<event>
 4    1  0.4676529E-002  0.4688090E+03  0.7818608E-02  0.1022257E+00
         21   -1    0    0  503  502  0.00000000000E+00  0.00000000000E+00  0.51648342936E+03  0.51648342936E+03  0.00000000000E+00 0. -1.
         21   -1    0    0  501  503 -0.00000000000E+00 -0.00000000000E+00 -0.63041596137E+03  0.63041596137E+03  0.00000000000E+00 0. -1.
    9000007    1    1    2  501    0 -0.22359229438E+03 -0.98936199037E+02 -0.38387935039E+03  0.60592511191E+03  0.40000000000E+03 0. -1.
   -9000007    1    1    2    0  502  0.22359229438E+03  0.98936199037E+02  0.26994681838E+03  0.54097427882E+03  0.40000000000E+03 0. -1.
<mgrwt>
<rscale>  2 0.46880901E+03</rscale>
<asrwt>0</asrwt>
<pdfrwt beam="1">  1       21 0.79458989E-01 0.46880901E+03</pdfrwt>
<pdfrwt beam="2">  1       21 0.96987071E-01 0.46880901E+03</pdfrwt>
<totfact> 0.10410470E+03</totfact>
</mgrwt>
</event>
<event>
 4    1  0.4676529E-002  0.4261722E+03  0.7818608E-02  0.1035076E+00
         21   -1    0    0  501  502  0.00000000000E+00  0.00000000000E+00  0.33158860433E+03  0.33158860433E+03  0.00000000000E+00 0.  1.
         21   -1    0    0  502  503 -0.00000000000E+00 -0.00000000000E+00 -0.85680560915E+03  0.85680560915E+03  0.00000000000E+00 0.  1.
    9000007    1    1    2  501    0 -0.10331376149E+03 -0.10463745413E+03  0.94268152142E+02  0.43647361275E+03  0.40000000000E+03 0.  1.
   -9000007    1    1    2    0  503  0.10331376149E+03  0.10463745413E+03 -0.61948515695E+03  0.75192060073E+03  0.40000000000E+03 0.  1.
<mgrwt>
<rscale>  2 0.42617218E+03</rscale>
<asrwt>0</asrwt>
<pdfrwt beam="1">  1       21 0.51013632E-01 0.42617218E+03</pdfrwt>
<pdfrwt beam="2">  1       21 0.13181625E+00 0.42617218E+03</pdfrwt>
<totfact> 0.13120455E+03</totfact>
</mgrwt>
</event>
<event>
 4    1  0.4676529E-002  0.5679214E+03  0.7818608E-02  0.9974289E-01
         21   -1    0    0  501  502  0.00000000000E+00  0.00000000000E+00  0.12491181258E+04  0.12491181258E+04  0.00000000000E+00 0.  1.
         21   -1    0    0  502  503 -0.00000000000E+00 -0.00000000000E+00 -0.65732028711E+03  0.65732028711E+03  0.00000000000E+00 0. -1.
    9000007    1    1    2  501    0  0.37548876988E+03  0.14677499103E+03  0.10386627729E+04  0.11837884398E+04  0.40000000000E+03 0.  1.
   -9000007    1    1    2    0  503 -0.37548876988E+03 -0.14677499103E+03 -0.44686493420E+03  0.72264997317E+03  0.40000000000E+03 0. -1.
<mgrwt>
<rscale>  2 0.56792140E+03</rscale>
<asrwt>0</asrwt>
<pdfrwt beam="1">  1       21 0.19217202E+00 0.56792140E+03</pdfrwt>
<pdfrwt beam="2">  1       21 0.10112620E+00 0.56792140E+03</pdfrwt>
<totfact> 0.90552766E+01</totfact>
</mgrwt>
</event>
<event>
 4    1  0.4676529E-002  0.4251001E+03  0.7818608E-02  0.1035419E+00
         21   -1    0    0  501  502  0.00000000000E+00  0.00000000000E+00  0.12258199771E+03  0.12258199771E+03  0.00000000000E+00 0. -1.
         21   -1    0    0  502  503 -0.00000000000E+00 -0.00000000000E+00 -0.30911744678E+04  0.30911744678E+04  0.00000000000E+00 0. -1.
    9000007    1    1    2  501    0  0.13993311493E+03 -0.33598187109E+02 -0.32211707970E+03  0.53335684852E+03  0.40000000000E+03 0. -1.
   -9000007    1    1    2    0  503 -0.13993311493E+03  0.33598187109E+02 -0.26464753904E+04  0.26803996170E+04  0.40000000000E+03 0. -1.
<mgrwt>
<rscale>  2 0.42510012E+03</rscale>
<asrwt>0</asrwt>
<pdfrwt beam="1">  1       21 0.18858769E-01 0.42510012E+03</pdfrwt>
<pdfrwt beam="2">  1       21 0.47556530E+00 0.42510012E+03</pdfrwt>
<totfact> 0.54384254E+01</totfact>
</mgrwt>
</event>
<event>
 4    1  0.4676529E-002  0.4686377E+03  0.7818608E-02  0.1022305E+00
         21   -1    0    0  503  502  0.00000000000E+00  0.00000000000E+00  0.32041698097E+03  0.32041698097E+03  0.00000000000E+00 0.  1.
         21   -1    0    0  501  503 -0.00000000000E+00 -0.00000000000E+00 -0.70442403288E+03  0.70442403288E+03  0.00000000000E+00 0.  1.
    9000007    1    1    2  501    0 -0.63844337988E+02 -0.23568020113E+03 -0.10784562921E+03  0.48088661495E+03  0.40000000000E+03 0.  1.
   -9000007    1    1    2    0  502  0.63844337988E+02  0.23568020113E+03 -0.27616142270E+03  0.54395439890E+03  0.40000000000E+03 0.  1.
<mgrwt>
<rscale>  2 0.46863766E+03</rscale>
<asrwt>0</asrwt>
<pdfrwt beam="1">  1       21 0.49294920E-01 0.46863766E+03</pdfrwt>
<pdfrwt beam="2">  1       21 0.10837293E+00 0.46863766E+03</pdfrwt>
<totfact> 0.22806197E+03</totfact>
</mgrwt>
</event>
<event>
 4    1  0.4676529E-002  0.5432873E+03  0.7818608E-02  0.1003060E+00
         21   -1    0    0  501  502  0.00000000000E+00  0.00000000000E+00  0.46749415402E+03  0.46749415402E+03  0.00000000000E+00 0.  1.
         21   -1    0    0  502  503 -0.00000000000E+00 -0.00000000000E+00 -0.68904143872E+03  0.68904143872E+03  0.00000000000E+00 0.  1.
    9000007    1    1    2  501    0  0.35816009295E+03 -0.82960775111E+02  0.56524799954E+02  0.54621991487E+03  0.40000000000E+03 0.  1.
   -9000007    1    1    2    0  503 -0.35816009295E+03  0.82960775111E+02 -0.27807208465E+03  0.61031567787E+03  0.40000000000E+03 0.  1.
<mgrwt>
<rscale>  2 0.54328735E+03</rscale>
<asrwt>0</asrwt>
<pdfrwt beam="1">  1       21 0.71922178E-01 0.54328735E+03</pdfrwt>
<pdfrwt beam="2">  1       21 0.10600638E+00 0.54328735E+03</pdfrwt>
<totfact> 0.10242131E+03</totfact>
</mgrwt>
</event>
<event>
 4    1  0.4676529E-002  0.4403115E+03  0.7818608E-02  0.1030651E+00
         21   -1    0    0  501  502  0.00000000000E+00  0.00000000000E+00  0.11662109237E+03  0.11662109237E+03  0.00000000000E+00 0.  1.
         21   -1    0    0  502  503 -0.00000000000E+00 -0.00000000000E+00 -0.16870259962E+04  0.16870259962E+04  0.00000000000E+00 0. -1.
    9000007    1    1    2  501    0  0.13197038834E+02  0.18357573532E+03 -0.89409728791E+03  0.99663642954E+03  0.40000000000E+03 0. -1.
   -9000007    1    1    2    0  503 -0.13197038834E+02 -0.18357573532E+03 -0.67630761587E+03  0.80701065899E+03  0.40000000000E+03 0.  1.
<mgrwt>
<rscale>  2 0.44031149E+03</rscale>
<asrwt>0</asrwt>
<pdfrwt beam="1">  1       21 0.17941706E-01 0.44031149E+03</pdfrwt>
<pdfrwt beam="2">  1       21 0.25954247E+00 0.44031149E+03</pdfrwt>
<totfact> 0.13663622E+03</totfact>
</mgrwt>
</event>
<event>
 4    1  0.4676529E-002  0.4804561E+03  0.7818608E-02  0.1019010E+00
         21   -1    0    0  501  502  0.00000000000E+00  0.00000000000E+00  0.59426030056E+03  0.59426030056E+03  0.00000000000E+00 0.  1.
         21   -1    0    0  502  503 -0.00000000000E+00 -0.00000000000E+00 -0.38845625643E+03  0.38845625643E+03  0.00000000000E+00 0. -1.
    9000007    1    1    2  501    0  0.15803678192E+03 -0.21415519938E+03  0.10038493839E+03  0.49083114176E+03  0.40000000000E+03 0. -1.
   -9000007    1    1    2    0  503 -0.15803678192E+03  0.21415519938E+03  0.10541910573E+03  0.49188541523E+03  0.40000000000E+03 0.  1.
<mgrwt>
<rscale>  2 0.48045611E+03</rscale>
<asrwt>0</asrwt>
<pdfrwt beam="1">  1       21 0.91424662E-01 0.48045611E+03</pdfrwt>
<pdfrwt beam="2">  1       21 0.59762501E-01 0.48045611E+03</pdfrwt>
<totfact> 0.22662867E+03</totfact>
</mgrwt>
</event>
<event>
 4    1  0.4676529E-002  0.4839691E+03  0.7818608E-02  0.1018050E+00
         21   -1    0    0  503  502  0.00000000000E+00  0.00000000000E+00  0.24511331142E+03  0.24511331142E+03  0.00000000000E+00 0.  1.
         21   -1    0    0  501  503 -0.00000000000E+00 -0.00000000000E+00 -0.10265067152E+04  0.10265067152E+04  0.00000000000E+00 0. -1.
    9000007    1    1    2  501    0  0.20185457635E+03 -0.18297777568E+03 -0.55782189354E+03  0.73850619584E+03  0.40000000000E+03 0. -1.
   -9000007    1    1    2    0  502 -0.20185457635E+03  0.18297777568E+03 -0.22357151027E+03  0.53311383080E+03  0.40000000000E+03 0. -1.
<mgrwt>
<rscale>  2 0.48396915E+03</rscale>
<asrwt>0</asrwt>
<pdfrwt beam="1">  1       21 0.37709741E-01 0.48396915E+03</pdfrwt>
<pdfrwt beam="2">  1       21 0.15792411E+00 0.48396915E+03</pdfrwt>
<totfact> 0.14825857E+03</totfact>
</mgrwt>
</event>
<event>
 4    1  0.4676529E-002  0.5539309E+03  0.7818608E-02  0.1000588E+00
         21   -1    0    0  501  502  0.00000000000E+00  0.00000000000E+00  0.59079964236E+03  0.59079964236E+03  0.00000000000E+00 0.  1.
         21   -1    0    0  502  503 -0.00000000000E+00 -0.00000000000E+00 -0.61162641340E+03  0.61162641340E+03  0.00000000000E+00 0.  1.
    9000007    1    1    2  501    0  0.37461483731E+03 -0.80642548382E+02  0.22309363200E+03  0.59716854035E+03  0.40000000000E+03 0.  1.
   -9000007    1    1    2    0  503 -0.37461483731E+03  0.80642548382E+02 -0.24392040304E+03  0.60525751541E+03  0.40000000000E+03 0.  1.
<mgrwt>
<rscale>  2 0.55393095E+03</rscale>
<asrwt>0</asrwt>
<pdfrwt beam="1">  1       21 0.90892253E-01 0.55393095E+03</pdfrwt>
<pdfrwt beam="2">  1       21 0.94096371E-01 0.55393095E+03</pdfrwt>
<totfact> 0.79179370E+02</totfact>
</mgrwt>
</event>
<event>
 4    1  0.4676529E-002  0.4463152E+03  0.7818608E-02  0.1028827E+00
         21   -1    0    0  501  502  0.00000000000E+00  0.00000000000E+00  0.95548543139E+03  0.95548543139E+03  0.00000000000E+00 0. -1.
         21   -1    0    0  502  503 -0.00000000000E+00 -0.00000000000E+00 -0.23240162128E+03  0.23240162128E+03  0.00000000000E+00 0. -1.
    9000007    1    1    2  501    0 -0.19014309126E+03 -0.55162107546E+02  0.55210693230E+03  0.70994317938E+03  0.40000000000E+03 0. -1.
   -9000007    1    1    2    0  503  0.19014309126E+03  0.55162107546E+02  0.17097687782E+03  0.47794387328E+03  0.40000000000E+03 0. -1.
<mgrwt>
<rscale>  2 0.44631519E+03</rscale>
<asrwt>0</asrwt>
<pdfrwt beam="1">  1       21 0.14699776E+00 0.44631519E+03</pdfrwt>
<pdfrwt beam="2">  1       21 0.35754096E-01 0.44631519E+03</pdfrwt>
<totfact> 0.20404222E+03</totfact>
</mgrwt>
</event>
<event>
 4    1  0.4676529E-002  0.4614830E+03  0.7818608E-02  0.1024352E+00
         21   -1    0    0  503  502  0.00000000000E+00  0.00000000000E+00  0.34218198026E+03  0.34218198026E+03  0.00000000000E+00 0.  1.
         21   -1    0    0  501  503 -0.00000000000E+00 -0.00000000000E+00 -0.78331772715E+03  0.78331772715E+03  0.00000000000E+00 0.  1.
    9000007    1    1    2  501    0  0.18169940246E+03 -0.14125116046E+03 -0.47564877212E+03  0.66272793634E+03  0.40000000000E+03 0.  1.
   -9000007    1    1    2    0  502 -0.18169940246E+03  0.14125116046E+03  0.34513025239E+02  0.46277177107E+03  0.40000000000E+03 0.  1.
<mgrwt>
<rscale>  2 0.46148300E+03</rscale>
<asrwt>0</asrwt>
<pdfrwt beam="1">  1       21 0.52643382E-01 0.46148300E+03</pdfrwt>
<pdfrwt beam="2">  1       21 0.12051042E+00 0.46148300E+03</pdfrwt>
<totfact> 0.15233015E+03</totfact>
</mgrwt>
</event>
<event>
 4    1  0.4676529E-002  0.4359836E+03  0.7818608E-02  0.1031986E+00
         21   -1    0    0  501  502  0.00000000000E+00  0.00000000000E+00  0.66594516019E+03  0.66594516019E+03  0.00000000000E+00 0.  1.
         21   -1    0    0  502  503 -0.00000000000E+00 -0.00000000000E+00 -0.28623887226E+03  0.28623887226E+03  0.00000000000E+00 0.  1.
    9000007    1    1    2  501    0  0.14447860651E+03 -0.95956240792E+02  0.21513954201E+03  0.48617557572E+03  0.40000000000E+03 0.  1.
   -9000007    1    1    2    0  503 -0.14447860651E+03  0.95956240792E+02  0.16456674592E+03  0.46600845674E+03  0.40000000000E+03 0.  1.
<mgrwt>
<rscale>  2 0.43598356E+03</rscale>
<asrwt>0</asrwt>
<pdfrwt beam="1">  1       21 0.10245310E+00 0.43598356E+03</pdfrwt>
<pdfrwt beam="2">  1       21 0.44036750E-01 0.43598356E+03</pdfrwt>
<totfact> 0.33605623E+03</totfact>
</mgrwt>
</event>
<event>
 4    1  0.4676529E-002  0.4674563E+03  0.7818608E-02  0.1022641E+00
         21   -1    0    0  503  502  0.00000000000E+00  0.00000000000E+00  0.55025534324E+03  0.55025534324E+03  0.00000000000E+00 0. -1.
         21   -1    0    0  501  503 -0.00000000000E+00 -0.00000000000E+00 -0.71172780863E+03  0.71172780863E+03  0.00000000000E+00 0. -1.
    9000007    1    1    2  501    0  0.15282945511E+03 -0.18750609134E+03 -0.50025740443E+03  0.68466988201E+03  0.40000000000E+03 0. -1.
   -9000007    1    1    2    0  502 -0.15282945511E+03  0.18750609134E+03  0.33878493904E+03  0.57731326986E+03  0.40000000000E+03 0. -1.
<mgrwt>
<rscale>  2 0.46745628E+03</rscale>
<asrwt>0</asrwt>
<pdfrwt beam="1">  1       21 0.84654669E-01 0.46745628E+03</pdfrwt>
<pdfrwt beam="2">  1       21 0.10949658E+00 0.46745628E+03</pdfrwt>
<totfact> 0.66778533E+02</totfact>
</mgrwt>
</event>
<event>
 4    1  0.4676529E-002  0.8546553E+03  0.7818608E-02  0.9484110E-01
         21   -1    0    0  501  502  0.00000000000E+00  0.00000000000E+00  0.40584744734E+03  0.40584744734E+03  0.00000000000E+00 0.  1.
         21   -1    0    0  502  503 -0.00000000000E+00 -0.00000000000E+00 -0.18143287689E+04  0.18143287689E+04  0.00000000000E+00 0. -1.
    9000007    1    1    2  501    0  0.62615790893E+03 -0.42232923476E+03 -0.60483121972E+03  0.10470226902E+04  0.40000000000E+03 0. -1.
   -9000007    1    1    2    0  503 -0.62615790893E+03  0.42232923476E+03 -0.80365010184E+03  0.11731535260E+04  0.40000000000E+03 0.  1.
<mgrwt>
<rscale>  2 0.85465532E+03</rscale>
<asrwt>0</asrwt>
<pdfrwt beam="1">  1       21 0.62438069E-01 0.85465532E+03</pdfrwt>
<pdfrwt beam="2">  1       21 0.27912750E+00 0.85465532E+03</pdfrwt>
<totfact> 0.69378786E+01</totfact>
</mgrwt>
</event>
<event>
 4    1  0.4676529E-002  0.4232872E+03  0.7818608E-02  0.1036002E+00
         21   -1    0    0  503  502  0.00000000000E+00  0.00000000000E+00  0.11601963558E+04  0.11601963558E+04  0.00000000000E+00 0. -1.
         21   -1    0    0  501  503 -0.00000000000E+00 -0.00000000000E+00 -0.17349225447E+03  0.17349225447E+03  0.00000000000E+00 0. -1.
    9000007    1    1    2  501    0 -0.13071553130E+03  0.45667463278E+02  0.27232642740E+03  0.50332270999E+03  0.40000000000E+03 0. -1.
   -9000007    1    1    2    0  502  0.13071553130E+03 -0.45667463278E+02  0.71437767388E+03  0.83036590023E+03  0.40000000000E+03 0. -1.
<mgrwt>
<rscale>  2 0.42328722E+03</rscale>
<asrwt>0</asrwt>
<pdfrwt beam="1">  1       21 0.17849174E+00 0.42328722E+03</pdfrwt>
<pdfrwt beam="2">  1       21 0.26691117E-01 0.42328722E+03</pdfrwt>
<totfact> 0.21438361E+03</totfact>
</mgrwt>
</event>
<event>
 4    1  0.4676529E-002  0.4212415E+03  0.7818608E-02  0.1036663E+00
         21   -1    0    0  503  502  0.00000000000E+00  0.00000000000E+00  0.21881188476E+03  0.21881188476E+03  0.00000000000E+00 0. -1.
         21   -1    0    0  501  503 -0.00000000000E+00 -0.00000000000E+00 -0.89471481144E+03  0.89471481144E+03  0.00000000000E+00 0. -1.
    9000007    1    1    2  501    0  0.88737355754E+02  0.97826696457E+02 -0.50831332068E+03  0.66017180554E+03  0.40000000000E+03 0. -1.
   -9000007    1    1    2    0  502 -0.88737355754E+02 -0.97826696457E+02 -0.16758960601E+03  0.45335489066E+03  0.40000000000E+03 0. -1.
<mgrwt>
<rscale>  2 0.42124148E+03</rscale>
<asrwt>0</asrwt>
<pdfrwt beam="1">  1       21 0.33663367E-01 0.42124148E+03</pdfrwt>
<pdfrwt beam="2">  1       21 0.13764843E+00 0.42124148E+03</pdfrwt>
<totfact> 0.27742275E+03</totfact>
</mgrwt>
</event>
<event>
 4    1  0.4676529E-002  0.4072644E+03  0.7818608E-02  0.1041293E+00
         21   -1    0    0  501  502  0.00000000000E+00  0.00000000000E+00  0.14131540596E+04  0.14131540596E+04  0.00000000000E+00 0. -1.
         21   -1    0    0  502  503 -0.00000000000E+00 -0.00000000000E+00 -0.13455966576E+03  0.13455966576E+03  0.00000000000E+00 0. -1.
    9000007    1    1    2  501    0  0.74213212895E+02 -0.18886618098E+02  0.91587373118E+03  0.10023417565E+04  0.40000000000E+03 0. -1.
   -9000007    1    1    2    0  503 -0.74213212895E+02  0.18886618098E+02  0.36272066262E+03  0.54537196885E+03  0.40000000000E+03 0. -1.
<mgrwt>
<rscale>  2 0.40726442E+03</rscale>
<asrwt>0</asrwt>
<pdfrwt beam="1">  1       21 0.21740831E+00 0.40726442E+03</pdfrwt>
<pdfrwt beam="2">  1       21 0.20701488E-01 0.40726442E+03</pdfrwt>
<totfact> 0.19356659E+03</totfact>
</mgrwt>
</event>
<event>
 4    1  0.4676529E-002  0.4599585E+03  0.7818608E-02  0.1024793E+00
         21   -1    0    0  501  502  0.00000000000E+00  0.00000000000E+00  0.32600439951E+03  0.32600439951E+03  0.00000000000E+00 0.  1.
         21   -1    0    0  502  503 -0.00000000000E+00 -0.00000000000E+00 -0.76044111871E+03  0.76044111871E+03  0.00000000000E+00 0.  1.
    9000007    1    1    2  501    0  0.17815410245E+03  0.14079386330E+03 -0.42521574833E+03  0.62639462704E+03  0.40000000000E+03 0.  1.
   -9000007    1    1    2    0  503 -0.17815410245E+03 -0.14079386330E+03 -0.92209708709E+01  0.46005089117E+03  0.40000000000E+03 0.  1.
<mgrwt>
<rscale>  2 0.45995847E+03</rscale>
<asrwt>0</asrwt>
<pdfrwt beam="1">  1       21 0.50154524E-01 0.45995847E+03</pdfrwt>
<pdfrwt beam="2">  1       21 0.11699094E+00 0.45995847E+03</pdfrwt>
<totfact> 0.18222299E+03</totfact>
</mgrwt>
</event>
<event>
 4    1  0.4676529E-002  0.6522693E+03  0.7818608E-02  0.9802530E-01
         21   -1    0    0  501  502  0.00000000000E+00  0.00000000000E+00  0.18674534680E+03  0.18674534680E+03  0.00000000000E+00 0.  1.
         21   -1    0    0  502  503 -0.00000000000E+00 -0.00000000000E+00 -0.22808761200E+04  0.22808761200E+04  0.00000000000E+00 0. -1.
    9000007    1    1    2  501    0  0.32149659834E+03 -0.40261047572E+03 -0.10053142000E+04  0.11983788628E+04  0.40000000000E+03 0. -1.
   -9000007    1    1    2    0  503 -0.32149659834E+03  0.40261047572E+03 -0.10888165731E+04  0.12692426040E+04  0.40000000000E+03 0. -1.
<mgrwt>
<rscale>  2 0.65226931E+03</rscale>
<asrwt>0</asrwt>
<pdfrwt beam="1">  1       21 0.28730052E-01 0.65226931E+03</pdfrwt>
<pdfrwt beam="2">  1       21 0.35090404E+00 0.65226931E+03</pdfrwt>
<totfact> 0.13794009E+02</totfact>
</mgrwt>
</event>
<event>
 4    1  0.4676529E-002  0.4390083E+03  0.7818608E-02  0.1031052E+00
         21   -1    0    0  503  502  0.00000000000E+00  0.00000000000E+00  0.20002093659E+03  0.20002093659E+03  0.00000000000E+00 0. -1.
         21   -1    0    0  501  503 -0.00000000000E+00 -0.00000000000E+00 -0.11957156874E+04  0.11957156874E+04  0.00000000000E+00 0. -1.
    9000007    1    1    2  501    0 -0.16771707522E+03  0.67817777224E+02 -0.80536318014E+03  0.91724485289E+03  0.40000000000E+03 0. -1.
   -9000007    1    1    2    0  502  0.16771707522E+03 -0.67817777224E+02 -0.19033157068E+03  0.47849177112E+03  0.40000000000E+03 0. -1.
<mgrwt>
<rscale>  2 0.43900828E+03</rscale>
<asrwt>0</asrwt>
<pdfrwt beam="1">  1       21 0.30772452E-01 0.43900828E+03</pdfrwt>
<pdfrwt beam="2">  1       21 0.18395626E+00 0.43900828E+03</pdfrwt>
<totfact> 0.14718501E+03</totfact>
</mgrwt>
</event>
<event>
 4    1  0.4676529E-002  0.4639240E+03  0.7818608E-02  0.1023649E+00
         21   -1    0    0  501  502  0.00000000000E+00  0.00000000000E+00  0.52252524118E+03  0.52252524118E+03  0.00000000000E+00 0.  1.
         21   -1    0    0  502  503 -0.00000000000E+00 -0.00000000000E+00 -0.10059790708E+04  0.10059790708E+04  0.00000000000E+00 0. -1.
    9000007    1    1    2  501    0  0.74514315840E+02  0.22287453486E+03  0.34558149354E+03  0.57849114966E+03  0.40000000000E+03 0.  1.
   -9000007    1    1    2    0  503 -0.74514315840E+02 -0.22287453486E+03 -0.82903532321E+03  0.95001316237E+03  0.40000000000E+03 0. -1.
<mgrwt>
<rscale>  2 0.46392396E+03</rscale>
<asrwt>0</asrwt>
<pdfrwt beam="1">  1       21 0.80388499E-01 0.46392396E+03</pdfrwt>
<pdfrwt beam="2">  1       21 0.15476601E+00 0.46392396E+03</pdfrwt>
<totfact> 0.30629607E+02</totfact>
</mgrwt>
</event>
<event>
 4    1  0.4676529E-002  0.4216055E+03  0.7818608E-02  0.1036545E+00
         21   -1    0    0  501  502  0.00000000000E+00  0.00000000000E+00  0.67940785025E+03  0.67940785025E+03  0.00000000000E+00 0.  1.
         21   -1    0    0  502  503 -0.00000000000E+00 -0.00000000000E+00 -0.47317376283E+03  0.47317376283E+03  0.00000000000E+00 0. -1.
    9000007    1    1    2  501    0 -0.10188855410E+03 -0.85848143084E+02  0.48844892544E+03  0.64523912923E+03  0.40000000000E+03 0.  1.
   -9000007    1    1    2    0  503  0.10188855410E+03  0.85848143084E+02 -0.28221483801E+03  0.50734248385E+03  0.40000000000E+03 0. -1.
<mgrwt>
<rscale>  2 0.42160548E+03</rscale>
<asrwt>0</asrwt>
<pdfrwt beam="1">  1       21 0.10452428E+00 0.42160548E+03</pdfrwt>
<pdfrwt beam="2">  1       21 0.72795963E-01 0.42160548E+03</pdfrwt>
<totfact> 0.10810012E+03</totfact>
</mgrwt>
</event>
<event>
 4    1  0.4676529E-002  0.4625217E+03  0.7818608E-02  0.1024052E+00
         21   -1    0    0  503  502  0.00000000000E+00  0.00000000000E+00  0.16214651852E+04  0.16214651852E+04  0.00000000000E+00 0.  1.
         21   -1    0    0  501  503 -0.00000000000E+00 -0.00000000000E+00 -0.14496893772E+03  0.14496893772E+03  0.00000000000E+00 0.  1.
    9000007    1    1    2  501    0 -0.16378607198E+03  0.16462222368E+03  0.47340737958E+03  0.66184658414E+03  0.40000000000E+03 0.  1.
   -9000007    1    1    2    0  502  0.16378607198E+03 -0.16462222368E+03  0.10030888679E+04  0.11045875388E+04  0.40000000000E+03 0.  1.
<mgrwt>
<rscale>  2 0.46252173E+03</rscale>
<asrwt>0</asrwt>
<pdfrwt beam="1">  1       21 0.24945617E+00 0.46252173E+03</pdfrwt>
<pdfrwt beam="2">  1       21 0.22302915E-01 0.46252173E+03</pdfrwt>
<totfact> 0.10295557E+03</totfact>
</mgrwt>
</event>
<event>
 4    1  0.4676529E-002  0.4734990E+03  0.7818608E-02  0.1020937E+00
         21   -1    0    0  503  502  0.00000000000E+00  0.00000000000E+00  0.12081633232E+03  0.12081633232E+03  0.00000000000E+00 0. -1.
         21   -1    0    0  501  503 -0.00000000000E+00 -0.00000000000E+00 -0.20591327665E+04  0.20591327665E+04  0.00000000000E+00 0.  1.
    9000007    1    1    2  501    0 -0.96587742685E+02  0.23424792541E+03 -0.13117392387E+04  0.13945827738E+04  0.40000000000E+03 0.  1.
   -9000007    1    1    2    0  502  0.96587742685E+02 -0.23424792541E+03 -0.62657719546E+03  0.78536632501E+03  0.40000000000E+03 0. -1.
<mgrwt>
<rscale>  2 0.47349898E+03</rscale>
<asrwt>0</asrwt>
<pdfrwt beam="1">  1       21 0.18587127E-01 0.47349898E+03</pdfrwt>
<pdfrwt beam="2">  1       21 0.31678968E+00 0.47349898E+03</pdfrwt>
<totfact> 0.56687231E+02</totfact>
</mgrwt>
</event>
<event>
 4    1  0.4676529E-002  0.4762415E+03  0.7818608E-02  0.1020173E+00
         21   -1    0    0  503  502  0.00000000000E+00  0.00000000000E+00  0.12631446057E+03  0.12631446057E+03  0.00000000000E+00 0. -1.
         21   -1    0    0  501  503 -0.00000000000E+00 -0.00000000000E+00 -0.18113173783E+04  0.18113173783E+04  0.00000000000E+00 0. -1.
    9000007    1    1    2  501    0 -0.12915124343E+03  0.22388818047E+03 -0.75215687065E+03  0.89025048110E+03  0.40000000000E+03 0. -1.
   -9000007    1    1    2    0  502  0.12915124343E+03 -0.22388818047E+03 -0.93284604705E+03  0.10473813577E+04  0.40000000000E+03 0. -1.
<mgrwt>
<rscale>  2 0.47624149E+03</rscale>
<asrwt>0</asrwt>
<pdfrwt beam="1">  1       21 0.19432995E-01 0.47624149E+03</pdfrwt>
<pdfrwt beam="2">  1       21 0.27866420E+00 0.47624149E+03</pdfrwt>
<totfact> 0.88352757E+02</totfact>
</mgrwt>
</event>
<event>
 4    1  0.4676529E-002  0.5055788E+03  0.7818608E-02  0.1012333E+00
         21   -1    0    0  503  502  0.00000000000E+00  0.00000000000E+00  0.10923152050E+04  0.10923152050E+04  0.00000000000E+00 0. -1.
         21   -1    0    0  501  503 -0.00000000000E+00 -0.00000000000E+00 -0.59600344555E+03  0.59600344555E+03  0.00000000000E+00 0. -1.
    9000007    1    1    2  501    0  0.29949138843E+03 -0.76907670125E+02 -0.40973206471E+03  0.65076128213E+03  0.40000000000E+03 0. -1.
   -9000007    1    1    2    0  502 -0.29949138843E+03  0.76907670125E+02  0.90604382416E+03  0.10375573684E+04  0.40000000000E+03 0. -1.
<mgrwt>
<rscale>  2 0.50557876E+03</rscale>
<asrwt>0</asrwt>
<pdfrwt beam="1">  1       21 0.16804849E+00 0.50557876E+03</pdfrwt>
<pdfrwt beam="2">  1       21 0.91692838E-01 0.50557876E+03</pdfrwt>
<totfact> 0.17505699E+02</totfact>
</mgrwt>
</event>
<event>
 4    1  0.4676529E-002  0.4475547E+03  0.7818608E-02  0.1028454E+00
         21   -1    0    0  503  502  0.00000000000E+00  0.00000000000E+00  0.26745258904E+03  0.26745258904E+03  0.00000000000E+00 0.  1.
         21   -1    0    0  501  503 -0.00000000000E+00 -0.00000000000E+00 -0.96664833429E+03  0.96664833429E+03  0.00000000000E+00 0.  1.
    9000007    1    1    2  501    0 -0.19407967277E+03  0.51364441657E+02 -0.64243533094E+03  0.78296128875E+03  0.40000000000E+03 0.  1.
   -9000007    1    1    2    0  502  0.19407967277E+03 -0.51364441657E+02 -0.56760414310E+02  0.45113963457E+03  0.40000000000E+03 0.  1.
<mgrwt>
<rscale>  2 0.44755472E+03</rscale>
<asrwt>0</asrwt>
<pdfrwt beam="1">  1       21 0.41146552E-01 0.44755472E+03</pdfrwt>
<pdfrwt beam="2">  1       21 0.14871513E+00 0.44755472E+03</pdfrwt>
<totfact> 0.14822844E+03</totfact>
</mgrwt>
</event>
<event>
 4    1  0.4676529E-002  0.4841212E+03  0.7818608E-02  0.1018009E+00
         21   -1    0    0  503  502  0.00000000000E+00  0.00000000000E+00  0.72237518899E+03  0.72237518899E+03  0.00000000000E+00 0. -1.
         21   -1    0    0  501  503 -0.00000000000E+00 -0.00000000000E+00 -0.87905832114E+03  0.87905832114E+03  0.00000000000E+00 0. -1.
    9000007    1    1    2  501    0  0.21761316543E+03  0.16437112195E+03 -0.71435157917E+03  0.86294352895E+03  0.40000000000E+03 0. -1.
   -9000007    1    1    2    0  502 -0.21761316543E+03 -0.16437112195E+03  0.55766844702E+03  0.73848998118E+03  0.40000000000E+03 0. -1.
<mgrwt>
<rscale>  2 0.48412122E+03</rscale>
<asrwt>0</asrwt>
<pdfrwt beam="1">  1       21 0.11113464E+00 0.48412122E+03</pdfrwt>
<pdfrwt beam="2">  1       21 0.13523974E+00 0.48412122E+03</pdfrwt>
<totfact> 0.20033225E+02</totfact>
</mgrwt>
</event>
<event>
 4    1  0.4676529E-002  0.4140721E+03  0.7818608E-02  0.1039013E+00
         21   -1    0    0  503  502  0.00000000000E+00  0.00000000000E+00  0.65160036779E+03  0.65160036779E+03  0.00000000000E+00 0. -1.
         21   -1    0    0  501  503 -0.00000000000E+00 -0.00000000000E+00 -0.28083797847E+03  0.28083797847E+03  0.00000000000E+00 0. -1.
    9000007    1    1    2  501    0  0.35152551379E+02 -0.10109418892E+03  0.68311572492E+02  0.41966916475E+03  0.40000000000E+03 0.  1.
   -9000007    1    1    2    0  502 -0.35152551379E+02  0.10109418892E+03  0.30245081683E+03  0.51276918151E+03  0.40000000000E+03 0.  1.
<mgrwt>
<rscale>  2 0.41407214E+03</rscale>
<asrwt>0</asrwt>
<pdfrwt beam="1">  1       21 0.10024621E+00 0.41407214E+03</pdfrwt>
<pdfrwt beam="2">  1       21 0.43205843E-01 0.41407214E+03</pdfrwt>
<totfact> 0.37173955E+03</totfact>
</mgrwt>
</event>
<event>
 4    1  0.4676529E-002  0.4235909E+03  0.7818608E-02  0.1035904E+00
         21   -1    0    0  501  502  0.00000000000E+00  0.00000000000E+00  0.21619815157E+03  0.21619815157E+03  0.00000000000E+00 0. -1.
         21   -1    0    0  502  503 -0.00000000000E+00 -0.00000000000E+00 -0.11038537151E+04  0.11038537151E+04  0.00000000000E+00 0. -1.
    9000007    1    1    2  501    0  0.65578974227E+02 -0.12299864925E+03 -0.11503650753E+03  0.43893355721E+03  0.40000000000E+03 0. -1.
   -9000007    1    1    2    0  503 -0.65578974227E+02  0.12299864925E+03 -0.77261905604E+03  0.88111830950E+03  0.40000000000E+03 0. -1.
<mgrwt>
<rscale>  2 0.42359092E+03</rscale>
<asrwt>0</asrwt>
<pdfrwt beam="1">  1       21 0.33261255E-01 0.42359092E+03</pdfrwt>
<pdfrwt beam="2">  1       21 0.16982364E+00 0.42359092E+03</pdfrwt>
<totfact> 0.15985417E+03</totfact>
</mgrwt>
</event>
<event>
 4    1  0.4676529E-002  0.4043316E+03  0.7818608E-02  0.1042290E+00
         21   -1    0    0  501  502  0.00000000000E+00  0.00000000000E+00  0.18034693526E+03  0.18034693526E+03  0.00000000000E+00 0.  1.
         21   -1    0    0  502  503 -0.00000000000E+00 -0.00000000000E+00 -0.12868884466E+04  0.12868884466E+04  0.00000000000E+00 0.  1.
    9000007    1    1    2  501    0  0.54132820037E+02 -0.23530079440E+02 -0.15441626033E+03  0.43281451951E+03  0.40000000000E+03 0.  1.
   -9000007    1    1    2    0  503 -0.54132820037E+02  0.23530079440E+02 -0.95212525102E+03  0.10344208624E+04  0.40000000000E+03 0.  1.
<mgrwt>
<rscale>  2 0.40433158E+03</rscale>
<asrwt>0</asrwt>
<pdfrwt beam="1">  1       21 0.27745683E-01 0.40433158E+03</pdfrwt>
<pdfrwt beam="2">  1       21 0.19798284E+00 0.40433158E+03</pdfrwt>
<totfact> 0.14733528E+03</totfact>
</mgrwt>
</event>
<event>
 4    1  0.4676529E-002  0.4346911E+03  0.7818608E-02  0.1032388E+00
         21   -1    0    0  503  502  0.00000000000E+00  0.00000000000E+00  0.16800738159E+04  0.16800738159E+04  0.00000000000E+00 0.  1.
         21   -1    0    0  501  503 -0.00000000000E+00 -0.00000000000E+00 -0.12113658783E+03  0.12113658783E+03  0.00000000000E+00 0. -1.
    9000007    1    1    2  501    0 -0.13326641717E+03 -0.10581302215E+03  0.53856448473E+03  0.69210406574E+03  0.40000000000E+03 0. -1.
   -9000007    1    1    2    0  502  0.13326641717E+03  0.10581302215E+03  0.10203727433E+04  0.11091063379E+04  0.40000000000E+03 0.  1.
<mgrwt>
<rscale>  2 0.43469108E+03</rscale>
<asrwt>0</asrwt>
<pdfrwt beam="1">  1       21 0.25847288E+00 0.43469108E+03</pdfrwt>
<pdfrwt beam="2">  1       21 0.18636399E-01 0.43469108E+03</pdfrwt>
<totfact> 0.12947926E+03</totfact>
</mgrwt>
</event>
<event>
 4    1  0.4676529E-002  0.4105122E+03  0.7818608E-02  0.1040199E+00
         21   -1    0    0  501  502  0.00000000000E+00  0.00000000000E+00  0.25952047304E+03  0.25952047304E+03  0.00000000000E+00 0.  1.
         21   -1    0    0  502  503 -0.00000000000E+00 -0.00000000000E+00 -0.19988776014E+04  0.19988776014E+04  0.00000000000E+00 0.  1.
    9000007    1    1    2  501    0 -0.85033905484E+02 -0.35909744864E+02  0.58150297026E+02  0.41461033743E+03  0.40000000000E+03 0.  1.
   -9000007    1    1    2    0  503  0.85033905484E+02  0.35909744864E+02 -0.17975074254E+04  0.18437877370E+04  0.40000000000E+03 0.  1.
<mgrwt>
<rscale>  2 0.41051221E+03</rscale>
<asrwt>0</asrwt>
<pdfrwt beam="1">  1       21 0.39926226E-01 0.41051221E+03</pdfrwt>
<pdfrwt beam="2">  1       21 0.30751964E+00 0.41051221E+03</pdfrwt>
<totfact> 0.14889905E+02</totfact>
</mgrwt>
</event>
<event>
 4    1  0.4676529E-002  0.4155617E+03  0.7818608E-02  0.1038521E+00
         21   -1    0    0  503  502  0.00000000000E+00  0.00000000000E+00  0.46881971498E+03  0.46881971498E+03  0.00000000000E+00 0. -1.
         21   -1    0    0  501  503 -0.00000000000E+00 -0.00000000000E+00 -0.43951237290E+03  0.43951237290E+03  0.00000000000E+00 0. -1.
    9000007    1    1    2  501    0  0.92401291298E+02 -0.64447802331E+02 -0.16809017449E+03  0.44826981230E+03  0.40000000000E+03 0. -1.
   -9000007    1    1    2    0  502 -0.92401291298E+02  0.64447802331E+02  0.19739751657E+03  0.46006227557E+03  0.40000000000E+03 0. -1.
<mgrwt>
<rscale>  2 0.41556169E+03</rscale>
<asrwt>0</asrwt>
<pdfrwt beam="1">  1       21 0.72126110E-01 0.41556169E+03</pdfrwt>
<pdfrwt beam="2">  1       21 0.67617288E-01 0.41556169E+03</pdfrwt>
<totfact> 0.30587941E+03</totfact>
</mgrwt>
</event>
<event>
 4    1  0.4676529E-002  0.5369099E+03  0.7818608E-02  0.1004570E+00
         21   -1    0    0  503  502  0.00000000000E+00  0.00000000000E+00  0.11416065344E+04  0.11416065344E+04  0.00000000000E+00 0.  1.
         21   -1    0    0  501  503 -0.00000000000E+00 -0.00000000000E+00 -0.26349794297E+03  0.26349794297E+03  0.00000000000E+00 0.  1.
    9000007    1    1    2  501    0 -0.27492919233E+03 -0.22953476553E+03  0.29561831361E+03  0.61291309068E+03  0.40000000000E+03 0.  1.
   -9000007    1    1    2    0  502  0.27492919233E+03  0.22953476553E+03  0.58249027782E+03  0.79219138668E+03  0.40000000000E+03 0.  1.
<mgrwt>
<rscale>  2 0.53690993E+03</rscale>
<asrwt>0</asrwt>
<pdfrwt beam="1">  1       21 0.17563177E+00 0.53690993E+03</pdfrwt>
<pdfrwt beam="2">  1       21 0.40538146E-01 0.53690993E+03</pdfrwt>
<totfact> 0.92605344E+02</totfact>
</mgrwt>
</event>
<event>
 4    1  0.4676529E-002  0.4495454E+03  0.7818608E-02  0.1027858E+00
         21   -1    0    0  501  502  0.00000000000E+00  0.00000000000E+00  0.18908198507E+04  0.18908198507E+04  0.00000000000E+00 0. -1.
         21   -1    0    0  502  503 -0.00000000000E+00 -0.00000000000E+00 -0.22319877437E+03  0.22319877437E+03  0.00000000000E+00 0. -1.
    9000007    1    1    2  501    0 -0.20068142534E+03  0.42638652316E+02  0.15968685548E+04  0.16589395018E+04  0.40000000000E+03 0. -1.
   -9000007    1    1    2    0  503  0.20068142534E+03 -0.42638652316E+02  0.70752521477E+02  0.45507912328E+03  0.40000000000E+03 0. -1.
<mgrwt>
<rscale>  2 0.44954543E+03</rscale>
<asrwt>0</asrwt>
<pdfrwt beam="1">  1       21 0.29089535E+00 0.44954543E+03</pdfrwt>
<pdfrwt beam="2">  1       21 0.34338274E-01 0.44954543E+03</pdfrwt>
<totfact> 0.24841770E+02</totfact>
</mgrwt>
</event>
<event>
 4    1  0.4676529E-002  0.4247347E+03  0.7818608E-02  0.1035536E+00
         21   -1    0    0  501  502  0.00000000000E+00  0.00000000000E+00  0.17020687672E+04  0.17020687672E+04  0.00000000000E+00 0. -1.
         21   -1    0    0  502  503 -0.00000000000E+00 -0.00000000000E+00 -0.23220387922E+03  0.23220387922E+03  0.00000000000E+00 0. -1.
    9000007    1    1    2  501    0  0.72073556943E+02  0.12330825623E+03  0.14479648880E+04  0.15089737707E+04  0.40000000000E+03 0. -1.
   -9000007    1    1    2    0  503 -0.72073556943E+02 -0.12330825623E+03  0.21899999915E+02  0.42529887569E+03  0.40000000000E+03 0. -1.
<mgrwt>
<rscale>  2 0.42473465E+03</rscale>
<asrwt>0</asrwt>
<pdfrwt beam="1">  1       21 0.26185672E+00 0.42473465E+03</pdfrwt>
<pdfrwt beam="2">  1       21 0.35723675E-01 0.42473465E+03</pdfrwt>
<totfact> 0.34830182E+02</totfact>
</mgrwt>
</event>
<event>
 4    1  0.4676529E-002  0.4397265E+03  0.7818608E-02  0.1030831E+00
         21   -1    0    0  501  502  0.00000000000E+00  0.00000000000E+00  0.97875819731E+02  0.97875819731E+02  0.00000000000E+00 0. -1.
         21   -1    0    0  502  503 -0.00000000000E+00 -0.00000000000E+00 -0.20872458645E+04  0.20872458645E+04  0.00000000000E+00 0.  1.
    9000007    1    1    2  501    0 -0.10431098232E+03  0.14992862908E+03 -0.74195228643E+03  0.86246888070E+03  0.40000000000E+03 0.  1.
   -9000007    1    1    2    0  503  0.10431098232E+03 -0.14992862908E+03 -0.12474177583E+04  0.13226528035E+04  0.40000000000E+03 0.  1.
<mgrwt>
<rscale>  2 0.43972648E+03</rscale>
<asrwt>0</asrwt>
<pdfrwt beam="1">  1       21 0.15057818E-01 0.43972648E+03</pdfrwt>
<pdfrwt beam="2">  1       21 0.32111475E+00 0.43972648E+03</pdfrwt>
<totfact> 0.80706296E+02</totfact>
</mgrwt>
</event>
<event>
 4    1  0.4676529E-002  0.5256587E+03  0.7818608E-02  0.1007290E+00
         21   -1    0    0  501  502  0.00000000000E+00  0.00000000000E+00  0.67864293410E+03  0.67864293410E+03  0.00000000000E+00 0. -1.
         21   -1    0    0  502  503 -0.00000000000E+00 -0.00000000000E+00 -0.44337262465E+03  0.44337262465E+03  0.00000000000E+00 0. -1.
    9000007    1    1    2  501    0 -0.30612818003E+03  0.15034180416E+03  0.27796221022E+03  0.59462602617E+03  0.40000000000E+03 0. -1.
   -9000007    1    1    2    0  503  0.30612818003E+03 -0.15034180416E+03 -0.42691900778E+02  0.52738953258E+03  0.40000000000E+03 0. -1.
<mgrwt>
<rscale>  2 0.52565875E+03</rscale>
<asrwt>0</asrwt>
<pdfrwt beam="1">  1       21 0.10440661E+00 0.52565875E+03</pdfrwt>
<pdfrwt beam="2">  1       21 0.68211173E-01 0.52565875E+03</pdfrwt>
<totfact> 0.12059614E+03</totfact>
</mgrwt>
</event>
<event>
 4    1  0.4676529E-002  0.5800901E+03  0.7818608E-02  0.9947596E-01
         21   -1    0    0  501  502  0.00000000000E+00  0.00000000000E+00  0.19169274514E+03  0.19169274514E+03  0.00000000000E+00 0. -1.
         21   -1    0    0  502  503 -0.00000000000E+00 -0.00000000000E+00 -0.17612443985E+04  0.17612443985E+04  0.00000000000E+00 0. -1.
    9000007    1    1    2  501    0 -0.38516175815E+03 -0.16779428516E+03 -0.84084784324E+03  0.10215329645E+04  0.40000000000E+03 0. -1.
   -9000007    1    1    2    0  503  0.38516175815E+03  0.16779428516E+03 -0.72870381017E+03  0.93140417920E+03  0.40000000000E+03 0. -1.
<mgrwt>
<rscale>  2 0.58009008E+03</rscale>
<asrwt>0</asrwt>
<pdfrwt beam="1">  1       21 0.29491192E-01 0.58009008E+03</pdfrwt>
<pdfrwt beam="2">  1       21 0.27096067E+00 0.58009008E+03</pdfrwt>
<totfact> 0.41714496E+02</totfact>
</mgrwt>
</event>
<event>
 4    1  0.4676529E-002  0.4772134E+03  0.7818608E-02  0.1019904E+00
         21   -1    0    0  503  502  0.00000000000E+00  0.00000000000E+00  0.24757225376E+03  0.24757225376E+03  0.00000000000E+00 0. -1.
         21   -1    0    0  501  503 -0.00000000000E+00 -0.00000000000E+00 -0.10174802848E+04  0.10174802848E+04  0.00000000000E+00 0. -1.
    9000007    1    1    2  501    0 -0.39375540924E+02 -0.25725895361E+03 -0.58087389742E+03  0.75176265347E+03  0.40000000000E+03 0. -1.
   -9000007    1    1    2    0  502  0.39375540924E+02  0.25725895361E+03 -0.18903413357E+03  0.51328988505E+03  0.40000000000E+03 0. -1.
<mgrwt>
<rscale>  2 0.47721337E+03</rscale>
<asrwt>0</asrwt>
<pdfrwt beam="1">  1       21 0.38088039E-01 0.47721337E+03</pdfrwt>
<pdfrwt beam="2">  1       21 0.15653543E+00 0.47721337E+03</pdfrwt>
<totfact> 0.14925914E+03</totfact>
</mgrwt>
</event>
<event>
 4    1  0.4676529E-002  0.4964424E+03  0.7818608E-02  0.1014712E+00
         21   -1    0    0  501  502  0.00000000000E+00  0.00000000000E+00  0.11919121346E+04  0.11919121346E+04  0.00000000000E+00 0. -1.
         21   -1    0    0  502  503 -0.00000000000E+00 -0.00000000000E+00 -0.20869680113E+03  0.20869680113E+03  0.00000000000E+00 0.  1.
    9000007    1    1    2  501    0  0.24408861304E+03  0.16393851892E+03  0.55884711300E+03  0.74750597637E+03  0.40000000000E+03 0. -1.
   -9000007    1    1    2    0  503 -0.24408861304E+03 -0.16393851892E+03  0.42436822052E+03  0.65310295941E+03  0.40000000000E+03 0.  1.
<mgrwt>
<rscale>  2 0.49644243E+03</rscale>
<asrwt>0</asrwt>
<pdfrwt beam="1">  1       21 0.18337109E+00 0.49644243E+03</pdfrwt>
<pdfrwt beam="2">  1       21 0.32107201E-01 0.49644243E+03</pdfrwt>
<totfact> 0.13324409E+03</totfact>
</mgrwt>
</event>
<event>
 4    1  0.4676529E-002  0.4353740E+03  0.7818608E-02  0.1032176E+00
         21   -1    0    0  501  502  0.00000000000E+00  0.00000000000E+00  0.17649168563E+03  0.17649168563E+03  0.00000000000E+00 0. -1.
         21   -1    0    0  502  503 -0.00000000000E+00 -0.00000000000E+00 -0.11169972445E+04  0.11169972445E+04  0.00000000000E+00 0. -1.
    9000007    1    1    2  501    0  0.16899475401E+03 -0.31484179307E+02 -0.59715594995E+03  0.73901671766E+03  0.40000000000E+03 0.  1.
   -9000007    1    1    2    0  503 -0.16899475401E+03  0.31484179307E+02 -0.34334960888E+03  0.55447221242E+03  0.40000000000E+03 0.  1.
<mgrwt>
<rscale>  2 0.43537395E+03</rscale>
<asrwt>0</asrwt>
<pdfrwt beam="1">  1       21 0.27152567E-01 0.43537395E+03</pdfrwt>
<pdfrwt beam="2">  1       21 0.17184573E+00 0.43537395E+03</pdfrwt>
<totfact> 0.23008381E+03</totfact>
</mgrwt>
</event>
<event>
 4    1  0.4676529E-002  0.4512455E+03  0.7818608E-02  0.1027351E+00
         21   -1    0    0  503  502  0.00000000000E+00  0.00000000000E+00  0.10479089486E+04  0.10479089486E+04  0.00000000000E+00 0. -1.
         21   -1    0    0  501  503 -0.00000000000E+00 -0.00000000000E+00 -0.20366555764E+03  0.20366555764E+03  0.00000000000E+00 0. -1.
    9000007    1    1    2  501    0 -0.10350628694E+03  0.18140829100E+03  0.55622174851E+03  0.71624378043E+03  0.40000000000E+03 0. -1.
   -9000007    1    1    2    0  502  0.10350628694E+03 -0.18140829100E+03  0.28802164244E+03  0.53533072581E+03  0.40000000000E+03 0. -1.
<mgrwt>
<rscale>  2 0.45124552E+03</rscale>
<asrwt>0</asrwt>
<pdfrwt beam="1">  1       21 0.16121676E+00 0.45124552E+03</pdfrwt>
<pdfrwt beam="2">  1       21 0.31333163E-01 0.45124552E+03</pdfrwt>
<totfact> 0.20617422E+03</totfact>
</mgrwt>
</event>
<event>
 4    1  0.4676529E-002  0.4275600E+03  0.7818608E-02  0.1034634E+00
         21   -1    0    0  501  502  0.00000000000E+00  0.00000000000E+00  0.12408889840E+04  0.12408889840E+04  0.00000000000E+00 0. -1.
         21   -1    0    0  502  503 -0.00000000000E+00 -0.00000000000E+00 -0.19406134738E+03  0.19406134738E+03  0.00000000000E+00 0.  1.
    9000007    1    1    2  501    0 -0.54791630887E+00  0.15102079869E+03  0.87553216319E+03  0.97435319604E+03  0.40000000000E+03 0. -1.
   -9000007    1    1    2    0  503  0.54791630887E+00 -0.15102079869E+03  0.17129547339E+03  0.46059713531E+03  0.40000000000E+03 0.  1.
<mgrwt>
<rscale>  2 0.42756003E+03</rscale>
<asrwt>0</asrwt>
<pdfrwt beam="1">  1       21 0.19090599E+00 0.42756003E+03</pdfrwt>
<pdfrwt beam="2">  1       21 0.29855593E-01 0.42756003E+03</pdfrwt>
<totfact> 0.14073788E+03</totfact>
</mgrwt>
</event>
<event>
 4    1  0.4676529E-002  0.4900574E+03  0.7818608E-02  0.1016407E+00
         21   -1    0    0  501  502  0.00000000000E+00  0.00000000000E+00  0.65157194304E+03  0.65157194304E+03  0.00000000000E+00 0.  1.
         21   -1    0    0  502  503 -0.00000000000E+00 -0.00000000000E+00 -0.93559877859E+03  0.93559877859E+03  0.00000000000E+00 0. -1.
    9000007    1    1    2  501    0 -0.11983082890E+03  0.25650893018E+03  0.47578617973E+03  0.68302909721E+03  0.40000000000E+03 0.  1.
   -9000007    1    1    2    0  503  0.11983082890E+03 -0.25650893018E+03 -0.75981301528E+03  0.90414162441E+03  0.40000000000E+03 0. -1.
<mgrwt>
<rscale>  2 0.49005740E+03</rscale>
<asrwt>0</asrwt>
<pdfrwt beam="1">  1       21 0.10024184E+00 0.49005740E+03</pdfrwt>
<pdfrwt beam="2">  1       21 0.14393827E+00 0.49005740E+03</pdfrwt>
<totfact> 0.21827722E+02</totfact>
</mgrwt>
</event>
<event>
 4    1  0.4676529E-002  0.7502959E+03  0.7818608E-02  0.9634886E-01
         21   -1    0    0  503  502  0.00000000000E+00  0.00000000000E+00  0.17660711622E+04  0.17660711622E+04  0.00000000000E+00 0.  1.
         21   -1    0    0  501  503 -0.00000000000E+00 -0.00000000000E+00 -0.32060071135E+03  0.32060071135E+03  0.00000000000E+00 0. -1.
    9000007    1    1    2  501    0 -0.62177625771E+03  0.12782087270E+03  0.64357044343E+03  0.98849724623E+03  0.40000000000E+03 0. -1.
   -9000007    1    1    2    0  502  0.62177625771E+03 -0.12782087270E+03  0.80190000739E+03  0.10981746273E+04  0.40000000000E+03 0.  1.
<mgrwt>
<rscale>  2 0.75029587E+03</rscale>
<asrwt>0</asrwt>
<pdfrwt beam="1">  1       21 0.27170325E+00 0.75029587E+03</pdfrwt>
<pdfrwt beam="2">  1       21 0.49323188E-01 0.75029587E+03</pdfrwt>
<totfact> 0.13379273E+02</totfact>
</mgrwt>
</event>
<event>
 4    1  0.4676529E-002  0.4891901E+03  0.7818608E-02  0.1016640E+00
         21   -1    0    0  501  502  0.00000000000E+00  0.00000000000E+00  0.60592669665E+03  0.60592669665E+03  0.00000000000E+00 0.  1.
         21   -1    0    0  502  503 -0.00000000000E+00 -0.00000000000E+00 -0.46169185405E+03  0.46169185405E+03  0.00000000000E+00 0.  1.
    9000007    1    1    2  501    0 -0.91825139152E+02 -0.26622386504E+03 -0.13085136667E+03  0.50638827263E+03  0.40000000000E+03 0.  1.
   -9000007    1    1    2    0  503  0.91825139152E+02  0.26622386504E+03  0.27508620928E+03  0.56123027807E+03  0.40000000000E+03 0.  1.
<mgrwt>
<rscale>  2 0.48919015E+03</rscale>
<asrwt>0</asrwt>
<pdfrwt beam="1">  1       21 0.93219492E-01 0.48919015E+03</pdfrwt>
<pdfrwt beam="2">  1       21 0.71029516E-01 0.48919015E+03</pdfrwt>
<totfact> 0.14680755E+03</totfact>
</mgrwt>
</event>
<event>
 4    1  0.4676529E-002  0.5037925E+03  0.7818608E-02  0.1012794E+00
         21   -1    0    0  503  502  0.00000000000E+00  0.00000000000E+00  0.26791060204E+03  0.26791060204E+03  0.00000000000E+00 0. -1.
         21   -1    0    0  501  503 -0.00000000000E+00 -0.00000000000E+00 -0.98527405116E+03  0.98527405116E+03  0.00000000000E+00 0. -1.
    9000007    1    1    2  501    0 -0.19962071176E+02  0.30562780116E+03 -0.48160297545E+03  0.69695642840E+03  0.40000000000E+03 0. -1.
   -9000007    1    1    2    0  502  0.19962071176E+02 -0.30562780116E+03 -0.23576047367E+03  0.55622822481E+03  0.40000000000E+03 0. -1.
<mgrwt>
<rscale>  2 0.50379245E+03</rscale>
<asrwt>0</asrwt>
<pdfrwt beam="1">  1       21 0.41217017E-01 0.50379245E+03</pdfrwt>
<pdfrwt beam="2">  1       21 0.15158062E+00 0.50379245E+03</pdfrwt>
<totfact> 0.13718312E+03</totfact>
</mgrwt>
</event>
<event>
 4    1  0.4676529E-002  0.4697388E+03  0.7818608E-02  0.1021994E+00
         21   -1    0    0  503  502  0.00000000000E+00  0.00000000000E+00  0.44851395594E+03  0.44851395594E+03  0.00000000000E+00 0.  1.
         21   -1    0    0  501  503 -0.00000000000E+00 -0.00000000000E+00 -0.68828303459E+03  0.68828303459E+03  0.00000000000E+00 0.  1.
    9000007    1    1    2  501    0  0.16846623242E+03 -0.17964886602E+03 -0.42344554882E+03  0.63242447719E+03  0.40000000000E+03 0.  1.
   -9000007    1    1    2    0  502 -0.16846623242E+03  0.17964886602E+03  0.18367647016E+03  0.50437251335E+03  0.40000000000E+03 0.  1.
<mgrwt>
<rscale>  2 0.46973885E+03</rscale>
<asrwt>0</asrwt>
<pdfrwt beam="1">  1       21 0.69002147E-01 0.46973885E+03</pdfrwt>
<pdfrwt beam="2">  1       21 0.10588970E+00 0.46973885E+03</pdfrwt>
<totfact> 0.11581993E+03</totfact>
</mgrwt>
</event>
<event>
 4    1  0.4676529E-002  0.4563799E+03  0.7818608E-02  0.1025836E+00
         21   -1    0    0  501  502  0.00000000000E+00  0.00000000000E+00  0.21110786143E+03  0.21110786143E+03  0.00000000000E+00 0. -1.
         21   -1    0    0  502  503 -0.00000000000E+00 -0.00000000000E+00 -0.10825209243E+04  0.10825209243E+04  0.00000000000E+00 0. -1.
    9000007    1    1    2  501    0  0.21970082621E+03  0.37618934121E+01 -0.24318481942E+03  0.51712808982E+03  0.40000000000E+03 0. -1.
   -9000007    1    1    2    0  503 -0.21970082621E+03 -0.37618934121E+01 -0.62822824347E+03  0.77650069592E+03  0.40000000000E+03 0. -1.
<mgrwt>
<rscale>  2 0.45637989E+03</rscale>
<asrwt>0</asrwt>
<pdfrwt beam="1">  1       21 0.32478133E-01 0.45637989E+03</pdfrwt>
<pdfrwt beam="2">  1       21 0.16654168E+00 0.45637989E+03</pdfrwt>
<totfact> 0.17477163E+03</totfact>
</mgrwt>
</event>
<event>
 4    1  0.4676529E-002  0.6885976E+03  0.7818608E-02  0.9736933E-01
         21   -1    0    0  501  502  0.00000000000E+00  0.00000000000E+00  0.43743831110E+03  0.43743831110E+03  0.00000000000E+00 0.  1.
         21   -1    0    0  502  503 -0.00000000000E+00 -0.00000000000E+00 -0.10996240524E+04  0.10996240524E+04  0.00000000000E+00 0. -1.
    9000007    1    1    2  501    0  0.48219291418E+03  0.28575635691E+03 -0.42281149225E+03  0.80804471410E+03  0.40000000000E+03 0. -1.
   -9000007    1    1    2    0  503 -0.48219291418E+03 -0.28575635691E+03 -0.23937424903E+03  0.72901764937E+03  0.40000000000E+03 0.  1.
<mgrwt>
<rscale>  2 0.68859763E+03</rscale>
<asrwt>0</asrwt>
<pdfrwt beam="1">  1       21 0.67298202E-01 0.68859763E+03</pdfrwt>
<pdfrwt beam="2">  1       21 0.16917293E+00 0.68859763E+03</pdfrwt>
<totfact> 0.32832986E+02</totfact>
</mgrwt>
</event>
<event>
 4    1  0.4676529E-002  0.4438536E+03  0.7818608E-02  0.1029571E+00
         21   -1    0    0  503  502  0.00000000000E+00  0.00000000000E+00  0.33918486188E+03  0.33918486188E+03  0.00000000000E+00 0. -1.
         21   -1    0    0  501  503 -0.00000000000E+00 -0.00000000000E+00 -0.61511496442E+03  0.61511496442E+03  0.00000000000E+00 0. -1.
    9000007    1    1    2  501    0  0.92987985332E+02  0.16840208568E+03 -0.25302585020E+02  0.44457423304E+03  0.40000000000E+03 0. -1.
   -9000007    1    1    2    0  502 -0.92987985332E+02 -0.16840208568E+03 -0.25062751753E+03  0.50972559325E+03  0.40000000000E+03 0. -1.
<mgrwt>
<rscale>  2 0.44385361E+03</rscale>
<asrwt>0</asrwt>
<pdfrwt beam="1">  1       21 0.52182287E-01 0.44385361E+03</pdfrwt>
<pdfrwt beam="2">  1       21 0.94633071E-01 0.44385361E+03</pdfrwt>
<totfact> 0.28366586E+03</totfact>
</mgrwt>
</event>
<event>
 4    1  0.4676529E-002  0.4160970E+03  0.7818608E-02  0.1038344E+00
         21   -1    0    0  503  502  0.00000000000E+00  0.00000000000E+00  0.25337677236E+03  0.25337677236E+03  0.00000000000E+00 0.  1.
         21   -1    0    0  501  503 -0.00000000000E+00 -0.00000000000E+00 -0.83954876362E+03  0.83954876362E+03  0.00000000000E+00 0.  1.
    9000007    1    1    2  501    0  0.99476394436E+02  0.56931113628E+02 -0.52881988106E+03  0.67289462128E+03  0.40000000000E+03 0.  1.
   -9000007    1    1    2    0  502 -0.99476394436E+02 -0.56931113628E+02 -0.57352110198E+02  0.42003091469E+03  0.40000000000E+03 0.  1.
<mgrwt>
<rscale>  2 0.41609699E+03</rscale>
<asrwt>0</asrwt>
<pdfrwt beam="1">  1       21 0.38981042E-01 0.41609699E+03</pdfrwt>
<pdfrwt beam="2">  1       21 0.12916135E+00 0.41609699E+03</pdfrwt>
<totfact> 0.24366956E+03</totfact>
</mgrwt>
</event>
<event>
 4    1  0.4676529E-002  0.5925204E+03  0.7818608E-02  0.9921046E-01
         21   -1    0    0  503  502  0.00000000000E+00  0.00000000000E+00  0.95418309476E+03  0.95418309476E+03  0.00000000000E+00 0.  1.
         21   -1    0    0  501  503 -0.00000000000E+00 -0.00000000000E+00 -0.38802504287E+03  0.38802504287E+03  0.00000000000E+00 0. -1.
    9000007    1    1    2  501    0 -0.42975944275E+03 -0.79920442999E+02  0.13038736478E+03  0.60669705845E+03  0.40000000000E+03 0. -1.
   -9000007    1    1    2    0  502  0.42975944275E+03  0.79920442999E+02  0.43577068711E+03  0.73551107917E+03  0.40000000000E+03 0.  1.
<mgrwt>
<rscale>  2 0.59252043E+03</rscale>
<asrwt>0</asrwt>
<pdfrwt beam="1">  1       21 0.14679740E+00 0.59252043E+03</pdfrwt>
<pdfrwt beam="2">  1       21 0.59696161E-01 0.59252043E+03</pdfrwt>
<totfact> 0.65818309E+02</totfact>
</mgrwt>
</event>
<event>
 4    1  0.4676529E-002  0.4149077E+03  0.7818608E-02  0.1038737E+00
         21   -1    0    0  503  502  0.00000000000E+00  0.00000000000E+00  0.37241016644E+03  0.37241016644E+03  0.00000000000E+00 0.  1.
         21   -1    0    0  501  503 -0.00000000000E+00 -0.00000000000E+00 -0.53365252005E+03  0.53365252005E+03  0.00000000000E+00 0.  1.
    9000007    1    1    2  501    0  0.36805325757E+02 -0.10389308019E+03 -0.24632823211E+03  0.48252046801E+03  0.40000000000E+03 0.  1.
   -9000007    1    1    2    0  502 -0.36805325757E+02  0.10389308019E+03  0.85085878492E+02  0.42354221848E+03  0.40000000000E+03 0.  1.
<mgrwt>
<rscale>  2 0.41490771E+03</rscale>
<asrwt>0</asrwt>
<pdfrwt beam="1">  1       21 0.57293872E-01 0.41490771E+03</pdfrwt>
<pdfrwt beam="2">  1       21 0.82100388E-01 0.41490771E+03</pdfrwt>
<totfact> 0.32760493E+03</totfact>
</mgrwt>
</event>
<event>
 4    1  0.4676529E-002  0.4537964E+03  0.7818608E-02  0.1026596E+00
         21   -1    0    0  503  502  0.00000000000E+00  0.00000000000E+00  0.35295450434E+03  0.35295450434E+03  0.00000000000E+00 0. -1.
         21   -1    0    0  501  503 -0.00000000000E+00 -0.00000000000E+00 -0.59364062721E+03  0.59364062721E+03  0.00000000000E+00 0. -1.
    9000007    1    1    2  501    0  0.93736552396E+02  0.19272940324E+03 -0.18235587823E+03  0.48906526196E+03  0.40000000000E+03 0. -1.
   -9000007    1    1    2    0  502 -0.93736552396E+02 -0.19272940324E+03 -0.58330244646E+02  0.45752986959E+03  0.40000000000E+03 0. -1.
<mgrwt>
<rscale>  2 0.45379639E+03</rscale>
<asrwt>0</asrwt>
<pdfrwt beam="1">  1       21 0.54300693E-01 0.45379639E+03</pdfrwt>
<pdfrwt beam="2">  1       21 0.91329327E-01 0.45379639E+03</pdfrwt>
<totfact> 0.28245421E+03</totfact>
</mgrwt>
</event>
<event>
 4    1  0.4676529E-002  0.4257743E+03  0.7818608E-02  0.1035203E+00
         21   -1    0    0  501  502  0.00000000000E+00  0.00000000000E+00  0.12755477473E+03  0.12755477473E+03  0.00000000000E+00 0.  1.
         21   -1    0    0  502  503 -0.00000000000E+00 -0.00000000000E+00 -0.18057447968E+04  0.18057447968E+04  0.00000000000E+00 0.  1.
    9000007    1    1    2  501    0 -0.14037159174E+03  0.39743637887E+02 -0.39302643735E+03  0.57944242248E+03  0.40000000000E+03 0.  1.
   -9000007    1    1    2    0  503  0.14037159174E+03 -0.39743637887E+02 -0.12851635848E+04  0.13538571491E+04  0.40000000000E+03 0.  1.
<mgrwt>
<rscale>  2 0.42577428E+03</rscale>
<asrwt>0</asrwt>
<pdfrwt beam="1">  1       21 0.19623811E-01 0.42577428E+03</pdfrwt>
<pdfrwt beam="2">  1       21 0.27780690E+00 0.42577428E+03</pdfrwt>
<totfact> 0.90126706E+02</totfact>
</mgrwt>
</event>
<event>
 4    1  0.4676529E-002  0.4235684E+03  0.7818608E-02  0.1035911E+00
         21   -1    0    0  503  502  0.00000000000E+00  0.00000000000E+00  0.13495071081E+04  0.13495071081E+04  0.00000000000E+00 0. -1.
         21   -1    0    0  501  503 -0.00000000000E+00 -0.00000000000E+00 -0.35879291869E+03  0.35879291869E+03  0.00000000000E+00 0. -1.
    9000007    1    1    2  501    0 -0.75265284283E+02  0.11724054025E+03 -0.18231605345E+03  0.46113918793E+03  0.40000000000E+03 0. -1.
   -9000007    1    1    2    0  502  0.75265284283E+02 -0.11724054025E+03  0.11730302428E+04  0.12471608388E+04  0.40000000000E+03 0. -1.
<mgrwt>
<rscale>  2 0.42356842E+03</rscale>
<asrwt>0</asrwt>
<pdfrwt beam="1">  1       21 0.20761648E+00 0.42356842E+03</pdfrwt>
<pdfrwt beam="2">  1       21 0.55198911E-01 0.42356842E+03</pdfrwt>
<totfact> 0.30674669E+02</totfact>
</mgrwt>
</event>
<event>
 4    1  0.4676529E-002  0.4589991E+03  0.7818608E-02  0.1025072E+00
         21   -1    0    0  501  502  0.00000000000E+00  0.00000000000E+00  0.34157270646E+03  0.34157270646E+03  0.00000000000E+00 0.  1.
         21   -1    0    0  502  503 -0.00000000000E+00 -0.00000000000E+00 -0.12012772821E+04  0.12012772821E+04  0.00000000000E+00 0.  1.
    9000007    1    1    2  501    0  0.18666581213E+03  0.12584151224E+03  0.10824138589E+03  0.47158923783E+03  0.40000000000E+03 0.  1.
   -9000007    1    1    2    0  503 -0.18666581213E+03 -0.12584151224E+03 -0.96794596153E+03  0.10712607507E+04  0.40000000000E+03 0.  1.
<mgrwt>
<rscale>  2 0.45899914E+03</rscale>
<asrwt>0</asrwt>
<pdfrwt beam="1">  1       21 0.52549647E-01 0.45899914E+03</pdfrwt>
<pdfrwt beam="2">  1       21 0.18481189E+00 0.45899914E+03</pdfrwt>
<totfact> 0.47680191E+02</totfact>
</mgrwt>
</event>
<event>
 4    1  0.4676529E-002  0.6053322E+03  0.7818608E-02  0.9894405E-01
         21   -1    0    0  503  502  0.00000000000E+00  0.00000000000E+00  0.12779879235E+04  0.12779879235E+04  0.00000000000E+00 0. -1.
         21   -1    0    0  501  503 -0.00000000000E+00 -0.00000000000E+00 -0.29486653931E+03  0.29486653931E+03  0.00000000000E+00 0. -1.
    9000007    1    1    2  501    0 -0.36508634508E+03 -0.27044228287E+03  0.62226290250E+03  0.86812337116E+03  0.40000000000E+03 0. -1.
   -9000007    1    1    2    0  502  0.36508634508E+03  0.27044228287E+03  0.36085848168E+03  0.70473109164E+03  0.40000000000E+03 0. -1.
<mgrwt>
<rscale>  2 0.60533220E+03</rscale>
<asrwt>0</asrwt>
<pdfrwt beam="1">  1       21 0.19661352E+00 0.60533220E+03</pdfrwt>
<pdfrwt beam="2">  1       21 0.45364084E-01 0.60533220E+03</pdfrwt>
<totfact> 0.50939292E+02</totfact>
</mgrwt>
</event>
<event>
 4    1  0.4676529E-002  0.4378977E+03  0.7818608E-02  0.1031394E+00
         21   -1    0    0  503  502  0.00000000000E+00  0.00000000000E+00  0.78849015025E+03  0.78849015025E+03  0.00000000000E+00 0.  1.
         21   -1    0    0  501  503 -0.00000000000E+00 -0.00000000000E+00 -0.25772348335E+03  0.25772348335E+03  0.00000000000E+00 0.  1.
    9000007    1    1    2  501    0 -0.15158540130E+03 -0.93681616364E+02  0.14116932294E+03  0.46009037903E+03  0.40000000000E+03 0.  1.
   -9000007    1    1    2    0  502  0.15158540130E+03  0.93681616364E+02  0.38959734396E+03  0.58612325458E+03  0.40000000000E+03 0.  1.
<mgrwt>
<rscale>  2 0.43789768E+03</rscale>
<asrwt>0</asrwt>
<pdfrwt beam="1">  1       21 0.12130618E+00 0.43789768E+03</pdfrwt>
<pdfrwt beam="2">  1       21 0.39649767E-01 0.43789768E+03</pdfrwt>
<totfact> 0.27410699E+03</totfact>
</mgrwt>
</event>
<event>
 4    1  0.4676529E-002  0.6582050E+03  0.7818608E-02  0.9791504E-01
         21   -1    0    0  501  502  0.00000000000E+00  0.00000000000E+00  0.13007137747E+04  0.13007137747E+04  0.00000000000E+00 0.  1.
         21   -1    0    0  502  503 -0.00000000000E+00 -0.00000000000E+00 -0.49403639219E+03  0.49403639219E+03  0.00000000000E+00 0.  1.
    9000007    1    1    2  501    0  0.57026094014E+02  0.51959774819E+03  0.91555911932E+03  0.11276002378E+04  0.40000000000E+03 0.  1.
   -9000007    1    1    2    0  503 -0.57026094014E+02 -0.51959774819E+03 -0.10888173678E+03  0.66714992912E+03  0.40000000000E+03 0.  1.
<mgrwt>
<rscale>  2 0.65820498E+03</rscale>
<asrwt>0</asrwt>
<pdfrwt beam="1">  1       21 0.20010981E+00 0.65820498E+03</pdfrwt>
<pdfrwt beam="2">  1       21 0.76005599E-01 0.65820498E+03</pdfrwt>
<totfact> 0.15188822E+02</totfact>
</mgrwt>
</event>
<event>
 4    1  0.4676529E-002  0.4949800E+03  0.7818608E-02  0.1015098E+00
         21   -1    0    0  503  502  0.00000000000E+00  0.00000000000E+00  0.17252673199E+04  0.17252673199E+04  0.00000000000E+00 0. -1.
         21   -1    0    0  501  503 -0.00000000000E+00 -0.00000000000E+00 -0.14437217369E+03  0.14437217369E+03  0.00000000000E+00 0. -1.
    9000007    1    1    2  501    0  0.65590367467E+02 -0.28408292730E+03  0.67087202647E+03  0.83371127004E+03  0.40000000000E+03 0. -1.
   -9000007    1    1    2    0  502 -0.65590367467E+02  0.28408292730E+03  0.91002311970E+03  0.10359282235E+04  0.40000000000E+03 0. -1.
<mgrwt>
<rscale>  2 0.49498001E+03</rscale>
<asrwt>0</asrwt>
<pdfrwt beam="1">  1       21 0.26542573E+00 0.49498001E+03</pdfrwt>
<pdfrwt beam="2">  1       21 0.22211105E-01 0.49498001E+03</pdfrwt>
<totfact> 0.81574233E+02</totfact>
</mgrwt>
</event>
<event>
 4    1  0.4676529E-002  0.6800409E+03  0.7818608E-02  0.9751987E-01
         21   -1    0    0  501  502  0.00000000000E+00  0.00000000000E+00  0.10796033697E+04  0.10796033697E+04  0.00000000000E+00 0.  1.
         21   -1    0    0  502  503 -0.00000000000E+00 -0.00000000000E+00 -0.51879961654E+03  0.51879961654E+03  0.00000000000E+00 0. -1.
    9000007    1    1    2  501    0 -0.42011821212E+03  0.35490330580E+03  0.61409173278E+03  0.91627742790E+03  0.40000000000E+03 0.  1.
   -9000007    1    1    2    0  503  0.42011821212E+03 -0.35490330580E+03 -0.53287979565E+02  0.68212555838E+03  0.40000000000E+03 0. -1.
<mgrwt>
<rscale>  2 0.68004093E+03</rscale>
<asrwt>0</asrwt>
<pdfrwt beam="1">  1       21 0.16609283E+00 0.68004093E+03</pdfrwt>
<pdfrwt beam="2">  1       21 0.79815326E-01 0.68004093E+03</pdfrwt>
<totfact> 0.23471153E+02</totfact>
</mgrwt>
</event>
<event>
 4    1  0.4676529E-002  0.4700347E+03  0.7818608E-02  0.1021910E+00
         21   -1    0    0  503  502  0.00000000000E+00  0.00000000000E+00  0.69203084290E+03  0.69203084290E+03  0.00000000000E+00 0.  1.
         21   -1    0    0  501  503 -0.00000000000E+00 -0.00000000000E+00 -0.47695801197E+03  0.47695801197E+03  0.00000000000E+00 0.  1.
    9000007    1    1    2  501    0  0.24019217846E+03  0.56923964739E+02 -0.22855982159E+03  0.52265879156E+03  0.40000000000E+03 0. -1.
   -9000007    1    1    2    0  502 -0.24019217846E+03 -0.56923964739E+02  0.44363265252E+03  0.64633006331E+03  0.40000000000E+03 0. -1.
<mgrwt>
<rscale>  2 0.47003470E+03</rscale>
<asrwt>0</asrwt>
<pdfrwt beam="1">  1       21 0.10646628E+00 0.47003470E+03</pdfrwt>
<pdfrwt beam="2">  1       21 0.73378156E-01 0.47003470E+03</pdfrwt>
<totfact> 0.99432822E+02</totfact>
</mgrwt>
</event>
<event>
 4    1  0.4676529E-002  0.5331068E+03  0.7818608E-02  0.1005481E+00
         21   -1    0    0  503  502  0.00000000000E+00  0.00000000000E+00  0.23581486721E+03  0.23581486721E+03  0.00000000000E+00 0.  1.
         21   -1    0    0  501  503 -0.00000000000E+00 -0.00000000000E+00 -0.13290973995E+04  0.13290973995E+04  0.00000000000E+00 0.  1.
    9000007    1    1    2  501    0 -0.12622816503E+03  0.32904308709E+03 -0.78554416766E+03  0.94935901647E+03  0.40000000000E+03 0.  1.
   -9000007    1    1    2    0  502  0.12622816503E+03 -0.32904308709E+03 -0.30773836462E+03  0.61555325023E+03  0.40000000000E+03 0.  1.
<mgrwt>
<rscale>  2 0.53310684E+03</rscale>
<asrwt>0</asrwt>
<pdfrwt beam="1">  1       21 0.36279210E-01 0.53310684E+03</pdfrwt>
<pdfrwt beam="2">  1       21 0.20447652E+00 0.53310684E+03</pdfrwt>
<totfact> 0.73671622E+02</totfact>
</mgrwt>
</event>
<event>
 4    1  0.4676529E-002  0.5206930E+03  0.7818608E-02  0.1008515E+00
         21   -1    0    0  501  502  0.00000000000E+00  0.00000000000E+00  0.22002204609E+04  0.22002204609E+04  0.00000000000E+00 0.  1.
         21   -1    0    0  502  503 -0.00000000000E+00 -0.00000000000E+00 -0.41197267456E+03  0.41197267456E+03  0.00000000000E+00 0.  1.
    9000007    1    1    2  501    0 -0.33306907919E+03 -0.13646000846E+02  0.19875782318E+04  0.20546504453E+04  0.40000000000E+03 0.  1.
   -9000007    1    1    2    0  503  0.33306907919E+03  0.13646000846E+02 -0.19933044547E+03  0.55754269015E+03  0.40000000000E+03 0.  1.
<mgrwt>
<rscale>  2 0.52069302E+03</rscale>
<asrwt>0</asrwt>
<pdfrwt beam="1">  1       21 0.33849545E+00 0.52069302E+03</pdfrwt>
<pdfrwt beam="2">  1       21 0.63380413E-01 0.52069302E+03</pdfrwt>
<totfact> 0.33573082E+01</totfact>
</mgrwt>
</event>
<event>
 4    1  0.4676529E-002  0.4220259E+03  0.7818608E-02  0.1036409E+00
         21   -1    0    0  503  502  0.00000000000E+00  0.00000000000E+00  0.10085101172E+03  0.10085101172E+03  0.00000000000E+00 0. -1.
         21   -1    0    0  501  503 -0.00000000000E+00 -0.00000000000E+00 -0.17927527658E+04  0.17927527658E+04  0.00000000000E+00 0.  1.
    9000007    1    1    2  501    0 -0.11381025924E+03 -0.71784973745E+02 -0.73035455366E+03  0.84351860182E+03  0.40000000000E+03 0. -1.
   -9000007    1    1    2    0  502  0.11381025924E+03  0.71784973745E+02 -0.96154720038E+03  0.10500851756E+04  0.40000000000E+03 0.  1.
<mgrwt>
<rscale>  2 0.42202590E+03</rscale>
<asrwt>0</asrwt>
<pdfrwt beam="1">  1       21 0.15515540E-01 0.42202590E+03</pdfrwt>
<pdfrwt beam="2">  1       21 0.27580812E+00 0.42202590E+03</pdfrwt>
<totfact> 0.14429145E+03</totfact>
</mgrwt>
</event>
<event>
 4    1  0.4676529E-002  0.4031493E+03  0.7818608E-02  0.1042695E+00
         21   -1    0    0  503  502  0.00000000000E+00  0.00000000000E+00  0.21237109771E+03  0.21237109771E+03  0.00000000000E+00 0.  1.
         21   -1    0    0  501  503 -0.00000000000E+00 -0.00000000000E+00 -0.76564546940E+03  0.76564546940E+03  0.00000000000E+00 0.  1.
    9000007    1    1    2  501    0 -0.25973042746E+02 -0.43066635241E+02 -0.28690118487E+03  0.49481473695E+03  0.40000000000E+03 0.  1.
   -9000007    1    1    2    0  502  0.25973042746E+02  0.43066635241E+02 -0.26637318682E+03  0.48320183017E+03  0.40000000000E+03 0.  1.
<mgrwt>
<rscale>  2 0.40314927E+03</rscale>
<asrwt>0</asrwt>
<pdfrwt beam="1">  1       21 0.32672477E-01 0.40314927E+03</pdfrwt>
<pdfrwt beam="2">  1       21 0.11779161E+00 0.40314927E+03</pdfrwt>
<totfact> 0.44315523E+03</totfact>
</mgrwt>
</event>
<event>
 4    1  0.4676529E-002  0.4627224E+03  0.7818608E-02  0.1023995E+00
         21   -1    0    0  501  502  0.00000000000E+00  0.00000000000E+00  0.70634136282E+03  0.70634136282E+03  0.00000000000E+00 0.  1.
         21   -1    0    0  502  503 -0.00000000000E+00 -0.00000000000E+00 -0.34009312668E+03  0.34009312668E+03  0.00000000000E+00 0.  1.
    9000007    1    1    2  501    0  0.22373045721E+03 -0.63692057033E+02  0.35561969591E+03  0.58359006480E+03  0.40000000000E+03 0.  1.
   -9000007    1    1    2    0  503 -0.22373045721E+03  0.63692057033E+02  0.10628540235E+02  0.46284442471E+03  0.40000000000E+03 0.  1.
<mgrwt>
<rscale>  2 0.46272237E+03</rscale>
<asrwt>0</asrwt>
<pdfrwt beam="1">  1       21 0.10866790E+00 0.46272237E+03</pdfrwt>
<pdfrwt beam="2">  1       21 0.52322020E-01 0.46272237E+03</pdfrwt>
<totfact> 0.19991072E+03</totfact>
</mgrwt>
</event>
<event>
 4    1  0.4676529E-002  0.4509389E+03  0.7818608E-02  0.1027442E+00
         21   -1    0    0  501  502  0.00000000000E+00  0.00000000000E+00  0.22322666862E+03  0.22322666862E+03  0.00000000000E+00 0. -1.
         21   -1    0    0  502  503 -0.00000000000E+00 -0.00000000000E+00 -0.91823782284E+03  0.91823782284E+03  0.00000000000E+00 0. -1.
    9000007    1    1    2  501    0  0.10978649986E+03 -0.17689787211E+03 -0.39838872594E+03  0.60171381043E+03  0.40000000000E+03 0. -1.
   -9000007    1    1    2    0  503 -0.10978649986E+03  0.17689787211E+03 -0.29662242828E+03  0.53975068103E+03  0.40000000000E+03 0. -1.
<mgrwt>
<rscale>  2 0.45093895E+03</rscale>
<asrwt>0</asrwt>
<pdfrwt beam="1">  1       21 0.34342564E-01 0.45093895E+03</pdfrwt>
<pdfrwt beam="2">  1       21 0.14126736E+00 0.45093895E+03</pdfrwt>
<totfact> 0.24586076E+03</totfact>
</mgrwt>
</event>
<event>
 4    1  0.4676529E-002  0.4673267E+03  0.7818608E-02  0.1022677E+00
         21   -1    0    0  501  502  0.00000000000E+00  0.00000000000E+00  0.40160359515E+03  0.40160359515E+03  0.00000000000E+00 0. -1.
         21   -1    0    0  502  503 -0.00000000000E+00 -0.00000000000E+00 -0.61097233794E+03  0.61097233794E+03  0.00000000000E+00 0. -1.
    9000007    1    1    2  501    0  0.21612136500E+03 -0.10810102509E+03 -0.27255086691E+03  0.54099745941E+03  0.40000000000E+03 0. -1.
   -9000007    1    1    2    0  503 -0.21612136500E+03  0.10810102509E+03  0.63182124118E+02  0.47157847368E+03  0.40000000000E+03 0. -1.
<mgrwt>
<rscale>  2 0.46732673E+03</rscale>
<asrwt>0</asrwt>
<pdfrwt beam="1">  1       21 0.61785169E-01 0.46732673E+03</pdfrwt>
<pdfrwt beam="2">  1       21 0.93995743E-01 0.46732673E+03</pdfrwt>
<totfact> 0.19806274E+03</totfact>
</mgrwt>
</event>
<event>
 4    1  0.4676529E-002  0.5126802E+03  0.7818608E-02  0.1010521E+00
         21   -1    0    0  501  502  0.00000000000E+00  0.00000000000E+00  0.41338276664E+03  0.41338276664E+03  0.00000000000E+00 0.  1.
         21   -1    0    0  502  503 -0.00000000000E+00 -0.00000000000E+00 -0.63588970595E+03  0.63588970595E+03  0.00000000000E+00 0.  1.
    9000007    1    1    2  501    0 -0.16312496373E+03  0.27610006558E+03 -0.11635403900E+03  0.52571785437E+03  0.40000000000E+03 0.  1.
   -9000007    1    1    2    0  503  0.16312496373E+03 -0.27610006558E+03 -0.10615290030E+03  0.52355461821E+03  0.40000000000E+03 0.  1.
<mgrwt>
<rscale>  2 0.51268021E+03</rscale>
<asrwt>0</asrwt>
<pdfrwt beam="1">  1       21 0.63597349E-01 0.51268021E+03</pdfrwt>
<pdfrwt beam="2">  1       21 0.97829185E-01 0.51268021E+03</pdfrwt>
<totfact> 0.16609728E+03</totfact>
</mgrwt>
</event>
<event>
 4    1  0.4676529E-002  0.4445917E+03  0.7818608E-02  0.1029347E+00
         21   -1    0    0  503  502  0.00000000000E+00  0.00000000000E+00  0.12994522161E+04  0.12994522161E+04  0.00000000000E+00 0.  1.
         21   -1    0    0  501  503 -0.00000000000E+00 -0.00000000000E+00 -0.31349413787E+03  0.31349413787E+03  0.00000000000E+00 0.  1.
    9000007    1    1    2  501    0 -0.19297445099E+03  0.20557794015E+02 -0.85654335811E+02  0.45276751967E+03  0.40000000000E+03 0.  1.
   -9000007    1    1    2    0  502  0.19297445099E+03 -0.20557794015E+02  0.10716124140E+04  0.11601788343E+04  0.40000000000E+03 0.  1.
<mgrwt>
<rscale>  2 0.44459168E+03</rscale>
<asrwt>0</asrwt>
<pdfrwt beam="1">  1       21 0.19991572E+00 0.44459168E+03</pdfrwt>
<pdfrwt beam="2">  1       21 0.48229868E-01 0.44459168E+03</pdfrwt>
<totfact> 0.45496799E+02</totfact>
</mgrwt>
</event>
<event>
 4    1  0.4676529E-002  0.4115240E+03  0.7818608E-02  0.1039861E+00
         21   -1    0    0  503  502  0.00000000000E+00  0.00000000000E+00  0.15740687700E+03  0.15740687700E+03  0.00000000000E+00 0.  1.
         21   -1    0    0  501  503 -0.00000000000E+00 -0.00000000000E+00 -0.11995640666E+04  0.11995640666E+04  0.00000000000E+00 0.  1.
    9000007    1    1    2  501    0 -0.51263628119E+02  0.82000246568E+02 -0.73893661774E+03  0.84580099613E+03  0.40000000000E+03 0.  1.
   -9000007    1    1    2    0  502  0.51263628119E+02 -0.82000246568E+02 -0.30322057187E+03  0.51116994748E+03  0.40000000000E+03 0.  1.
<mgrwt>
<rscale>  2 0.41152400E+03</rscale>
<asrwt>0</asrwt>
<pdfrwt beam="1">  1       21 0.24216442E-01 0.41152400E+03</pdfrwt>
<pdfrwt beam="2">  1       21 0.18454832E+00 0.41152400E+03</pdfrwt>
<totfact> 0.23620785E+03</totfact>
</mgrwt>
</event>
<event>
 4    1  0.4676529E-002  0.5687821E+03  0.7818608E-02  0.9972377E-01
         21   -1    0    0  503  502  0.00000000000E+00  0.00000000000E+00  0.16715194973E+04  0.16715194973E+04  0.00000000000E+00 0. -1.
         21   -1    0    0  501  503 -0.00000000000E+00 -0.00000000000E+00 -0.24706173072E+03  0.24706173072E+03  0.00000000000E+00 0.  1.
    9000007    1    1    2  501    0  0.33122225751E+03  0.23195880920E+03  0.26575600878E+03  0.62780516822E+03  0.40000000000E+03 0.  1.
   -9000007    1    1    2    0  502 -0.33122225751E+03 -0.23195880920E+03  0.11587017578E+04  0.12907760598E+04  0.40000000000E+03 0. -1.
<mgrwt>
<rscale>  2 0.56878210E+03</rscale>
<asrwt>0</asrwt>
<pdfrwt beam="1">  1       21 0.25715684E+00 0.56878210E+03</pdfrwt>
<pdfrwt beam="2">  1       21 0.38009498E-01 0.56878210E+03</pdfrwt>
<totfact> 0.30493954E+02</totfact>
</mgrwt>
</event>
<event>
 4    1  0.4676529E-002  0.4026318E+03  0.7818608E-02  0.1042872E+00
         21   -1    0    0  501  502  0.00000000000E+00  0.00000000000E+00  0.20342957818E+04  0.20342957818E+04  0.00000000000E+00 0.  1.
         21   -1    0    0  502  503 -0.00000000000E+00 -0.00000000000E+00 -0.28358625413E+03  0.28358625413E+03  0.00000000000E+00 0.  1.
    9000007    1    1    2  501    0 -0.45906186831E+02  0.22331842625E+01  0.18580610136E+04  0.19011846558E+04  0.40000000000E+03 0.  1.
   -9000007    1    1    2    0  503  0.45906186831E+02 -0.22331842625E+01 -0.10735148592E+03  0.41669738016E+03  0.40000000000E+03 0.  1.
<mgrwt>
<rscale>  2 0.40263180E+03</rscale>
<asrwt>0</asrwt>
<pdfrwt beam="1">  1       21 0.31296857E+00 0.40263180E+03</pdfrwt>
<pdfrwt beam="2">  1       21 0.43628656E-01 0.40263180E+03</pdfrwt>
<totfact> 0.11563288E+02</totfact>
</mgrwt>
</event>
<event>
 4    1  0.4676529E-002  0.5221253E+03  0.7818608E-02  0.1008160E+00
         21   -1    0    0  501  502  0.00000000000E+00  0.00000000000E+00  0.22057935321E+03  0.22057935321E+03  0.00000000000E+00 0.  1.
         21   -1    0    0  502  503 -0.00000000000E+00 -0.00000000000E+00 -0.13212771287E+04  0.13212771287E+04  0.00000000000E+00 0.  1.
    9000007    1    1    2  501    0  0.19942627164E+03  0.26989622671E+03 -0.35438381253E+03  0.63103304001E+03  0.40000000000E+03 0.  1.
   -9000007    1    1    2    0  503 -0.19942627164E+03 -0.26989622671E+03 -0.74631396301E+03  0.91082344194E+03  0.40000000000E+03 0.  1.
<mgrwt>
<rscale>  2 0.52212528E+03</rscale>
<asrwt>0</asrwt>
<pdfrwt beam="1">  1       21 0.33935286E-01 0.52212528E+03</pdfrwt>
<pdfrwt beam="2">  1       21 0.20327340E+00 0.52212528E+03</pdfrwt>
<totfact> 0.86317597E+02</totfact>
</mgrwt>
</event>
<event>
 4    1  0.4676529E-002  0.5399486E+03  0.7818608E-02  0.1003848E+00
         21   -1    0    0  501  502  0.00000000000E+00  0.00000000000E+00  0.47212901776E+03  0.47212901776E+03  0.00000000000E+00 0.  1.
         21   -1    0    0  502  503 -0.00000000000E+00 -0.00000000000E+00 -0.65952437537E+03  0.65952437537E+03  0.00000000000E+00 0.  1.
    9000007    1    1    2  501    0  0.17406300112E+03 -0.31819271458E+03  0.49114553424E+02  0.54217780417E+03  0.40000000000E+03 0.  1.
   -9000007    1    1    2    0  503 -0.17406300112E+03  0.31819271458E+03 -0.23650991103E+03  0.58947558897E+03  0.40000000000E+03 0.  1.
<mgrwt>
<rscale>  2 0.53994864E+03</rscale>
<asrwt>0</asrwt>
<pdfrwt beam="1">  1       21 0.72635234E-01 0.53994864E+03</pdfrwt>
<pdfrwt beam="2">  1       21 0.10146529E+00 0.53994864E+03</pdfrwt>
<totfact> 0.11169780E+03</totfact>
</mgrwt>
</event>
<event>
 4    1  0.4676529E-002  0.4666223E+03  0.7818608E-02  0.1022878E+00
         21   -1    0    0  503  502  0.00000000000E+00  0.00000000000E+00  0.10774697351E+04  0.10774697351E+04  0.00000000000E+00 0.  1.
         21   -1    0    0  501  503 -0.00000000000E+00 -0.00000000000E+00 -0.23055904690E+03  0.23055904690E+03  0.00000000000E+00 0.  1.
    9000007    1    1    2  501    0 -0.14718711789E+03  0.18992716372E+03  0.19360253852E+03  0.50519136782E+03  0.40000000000E+03 0.  1.
   -9000007    1    1    2    0  502  0.14718711789E+03 -0.18992716372E+03  0.65330814971E+03  0.80283741422E+03  0.40000000000E+03 0.  1.
<mgrwt>
<rscale>  2 0.46662230E+03</rscale>
<asrwt>0</asrwt>
<pdfrwt beam="1">  1       21 0.16576457E+00 0.46662230E+03</pdfrwt>
<pdfrwt beam="2">  1       21 0.35470623E-01 0.46662230E+03</pdfrwt>
<totfact> 0.14763415E+03</totfact>
</mgrwt>
</event>
<event>
 4    1  0.4676529E-002  0.9070332E+03  0.7818608E-02  0.9416832E-01
         21   -1    0    0  501  502  0.00000000000E+00  0.00000000000E+00  0.81436930317E+03  0.81436930317E+03  0.00000000000E+00 0. -1.
         21   -1    0    0  502  503 -0.00000000000E+00 -0.00000000000E+00 -0.13298315519E+04  0.13298315519E+04  0.00000000000E+00 0.  1.
    9000007    1    1    2  501    0 -0.10518007201E+03 -0.80724612110E+03  0.26784328598E+03  0.94575323072E+03  0.40000000000E+03 0. -1.
   -9000007    1    1    2    0  503  0.10518007201E+03  0.80724612110E+03 -0.78330553465E+03  0.11984476243E+04  0.40000000000E+03 0.  1.
<mgrwt>
<rscale>  2 0.90703316E+03</rscale>
<asrwt>0</asrwt>
<pdfrwt beam="1">  1       21 0.12528759E+00 0.90703316E+03</pdfrwt>
<pdfrwt beam="2">  1       21 0.20458947E+00 0.90703316E+03</pdfrwt>
<totfact> 0.38371359E+01</totfact>
</mgrwt>
</event>
<event>
 4    1  0.4676529E-002  0.4826791E+03  0.7818608E-02  0.1018401E+00
         21   -1    0    0  501  502  0.00000000000E+00  0.00000000000E+00  0.12577758326E+04  0.12577758326E+04  0.00000000000E+00 0. -1.
         21   -1    0    0  502  503 -0.00000000000E+00 -0.00000000000E+00 -0.44311015167E+03  0.44311015167E+03  0.00000000000E+00 0. -1.
    9000007    1    1    2  501    0 -0.11025724429E+03  0.24662202880E+03  0.10561128605E+04  0.11611862293E+04  0.40000000000E+03 0. -1.
   -9000007    1    1    2    0  503  0.11025724429E+03 -0.24662202880E+03 -0.24144717957E+03  0.53969975498E+03  0.40000000000E+03 0. -1.
<mgrwt>
<rscale>  2 0.48267907E+03</rscale>
<asrwt>0</asrwt>
<pdfrwt beam="1">  1       21 0.19350397E+00 0.48267907E+03</pdfrwt>
<pdfrwt beam="2">  1       21 0.68170793E-01 0.48267907E+03</pdfrwt>
<totfact> 0.23213290E+02</totfact>
</mgrwt>
</event>
<event>
 4    1  0.4676529E-002  0.4295750E+03  0.7818608E-02  0.1033994E+00
         21   -1    0    0  501  502  0.00000000000E+00  0.00000000000E+00  0.13034080551E+04  0.13034080551E+04  0.00000000000E+00 0. -1.
         21   -1    0    0  502  503 -0.00000000000E+00 -0.00000000000E+00 -0.15305469320E+03  0.15305469320E+03  0.00000000000E+00 0. -1.
    9000007    1    1    2  501    0  0.36804510217E+02 -0.15225020438E+03  0.77458485745E+03  0.88572930295E+03  0.40000000000E+03 0. -1.
   -9000007    1    1    2    0  503 -0.36804510217E+02  0.15225020438E+03  0.37576850442E+03  0.57073344533E+03  0.40000000000E+03 0. -1.
<mgrwt>
<rscale>  2 0.42957502E+03</rscale>
<asrwt>0</asrwt>
<pdfrwt beam="1">  1       21 0.20052431E+00 0.42957502E+03</pdfrwt>
<pdfrwt beam="2">  1       21 0.23546877E-01 0.42957502E+03</pdfrwt>
<totfact> 0.19276044E+03</totfact>
</mgrwt>
</event>
<event>
 4    1  0.4676529E-002  0.5704148E+03  0.7818608E-02  0.9968761E-01
         21   -1    0    0  503  502  0.00000000000E+00  0.00000000000E+00  0.11222305533E+04  0.11222305533E+04  0.00000000000E+00 0.  1.
         21   -1    0    0  501  503 -0.00000000000E+00 -0.00000000000E+00 -0.41292589222E+03  0.41292589222E+03  0.00000000000E+00 0.  1.
    9000007    1    1    2  501    0 -0.19056491101E+03 -0.35924647059E+03 -0.64261292960E+02  0.57402310556E+03  0.40000000000E+03 0.  1.
   -9000007    1    1    2    0  502  0.19056491101E+03  0.35924647059E+03  0.77356595405E+03  0.96113333997E+03  0.40000000000E+03 0.  1.
<mgrwt>
<rscale>  2 0.57041477E+03</rscale>
<asrwt>0</asrwt>
<pdfrwt beam="1">  1       21 0.17265085E+00 0.57041477E+03</pdfrwt>
<pdfrwt beam="2">  1       21 0.63527061E-01 0.57041477E+03</pdfrwt>
<totfact> 0.36683225E+02</totfact>
</mgrwt>
</event>
<event>
 4    1  0.4676529E-002  0.4680249E+03  0.7818608E-02  0.1022479E+00
         21   -1    0    0  503  502  0.00000000000E+00  0.00000000000E+00  0.41086424442E+03  0.41086424442E+03  0.00000000000E+00 0.  1.
         21   -1    0    0  501  503 -0.00000000000E+00 -0.00000000000E+00 -0.14145284032E+04  0.14145284032E+04  0.00000000000E+00 0. -1.
    9000007    1    1    2  501    0  0.42857623055E+01  0.24295863347E+03 -0.12222834461E+04  0.13088254612E+04  0.40000000000E+03 0. -1.
   -9000007    1    1    2    0  502 -0.42857623055E+01 -0.24295863347E+03  0.21861928727E+03  0.51656718644E+03  0.40000000000E+03 0.  1.
<mgrwt>
<rscale>  2 0.46802486E+03</rscale>
<asrwt>0</asrwt>
<pdfrwt beam="1">  1       21 0.63209884E-01 0.46802486E+03</pdfrwt>
<pdfrwt beam="2">  1       21 0.21761975E+00 0.46802486E+03</pdfrwt>
<totfact> 0.19179617E+02</totfact>
</mgrwt>
</event>
<event>
 4    1  0.4676529E-002  0.5793842E+03  0.7818608E-02  0.9949125E-01
         21   -1    0    0  503  502  0.00000000000E+00  0.00000000000E+00  0.75060350626E+03  0.75060350626E+03  0.00000000000E+00 0. -1.
         21   -1    0    0  501  503 -0.00000000000E+00 -0.00000000000E+00 -0.48959090619E+03  0.48959090619E+03  0.00000000000E+00 0. -1.
    9000007    1    1    2  501    0  0.41414169564E+03 -0.64596241899E+02  0.31292499435E+03  0.65848923349E+03  0.40000000000E+03 0. -1.
   -9000007    1    1    2    0  502 -0.41414169564E+03  0.64596241899E+02 -0.51912394279E+02  0.58170517895E+03  0.40000000000E+03 0. -1.
<mgrwt>
<rscale>  2 0.57938417E+03</rscale>
<asrwt>0</asrwt>
<pdfrwt beam="1">  1       21 0.11547746E+00 0.57938417E+03</pdfrwt>
<pdfrwt beam="2">  1       21 0.75321678E-01 0.57938417E+03</pdfrwt>
<totfact> 0.73528870E+02</totfact>
</mgrwt>
</event>
<event>
 4    1  0.4676529E-002  0.4077914E+03  0.7818608E-02  0.1041115E+00
         21   -1    0    0  503  502  0.00000000000E+00  0.00000000000E+00  0.26483672926E+03  0.26483672926E+03  0.00000000000E+00 0. -1.
         21   -1    0    0  501  503 -0.00000000000E+00 -0.00000000000E+00 -0.63148092597E+03  0.63148092597E+03  0.00000000000E+00 0. -1.
    9000007    1    1    2  501    0  0.54628474220E+02  0.57529032249E+02 -0.21701897549E+03  0.46194274047E+03  0.40000000000E+03 0.  1.
   -9000007    1    1    2    0  502 -0.54628474220E+02 -0.57529032249E+02 -0.14962522122E+03  0.43437491476E+03  0.40000000000E+03 0.  1.
<mgrwt>
<rscale>  2 0.40779144E+03</rscale>
<asrwt>0</asrwt>
<pdfrwt beam="1">  1       21 0.40744112E-01 0.40779144E+03</pdfrwt>
<pdfrwt beam="2">  1       21 0.97150911E-01 0.40779144E+03</pdfrwt>
<totfact> 0.45381347E+03</totfact>
</mgrwt>
</event>
<event>
 4    1  0.4676529E-002  0.4700360E+03  0.7818608E-02  0.1021910E+00
         21   -1    0    0  503  502  0.00000000000E+00  0.00000000000E+00  0.18809300605E+03  0.18809300605E+03  0.00000000000E+00 0. -1.
         21   -1    0    0  501  503 -0.00000000000E+00 -0.00000000000E+00 -0.11790148698E+04  0.11790148698E+04  0.00000000000E+00 0.  1.
    9000007    1    1    2  501    0 -0.16217887600E+03  0.18609644845E+03 -0.45362819514E+03  0.65323228286E+03  0.40000000000E+03 0. -1.
   -9000007    1    1    2    0  502  0.16217887600E+03 -0.18609644845E+03 -0.53729366860E+03  0.71387559299E+03  0.40000000000E+03 0. -1.
<mgrwt>
<rscale>  2 0.47003604E+03</rscale>
<asrwt>0</asrwt>
<pdfrwt beam="1">  1       21 0.28937385E-01 0.47003604E+03</pdfrwt>
<pdfrwt beam="2">  1       21 0.18138691E+00 0.47003604E+03</pdfrwt>
<totfact> 0.17106824E+03</totfact>
</mgrwt>
</event>
<event>
 4    1  0.4676529E-002  0.5659432E+03  0.7818608E-02  0.9978696E-01
         21   -1    0    0  501  502  0.00000000000E+00  0.00000000000E+00  0.15408811216E+04  0.15408811216E+04  0.00000000000E+00 0. -1.
         21   -1    0    0  502  503 -0.00000000000E+00 -0.00000000000E+00 -0.39386449193E+03  0.39386449193E+03  0.00000000000E+00 0.  1.
    9000007    1    1    2  501    0  0.76703583558E+02  0.39294817333E+03  0.12382899710E+04  0.13614895368E+04  0.40000000000E+03 0.  1.
   -9000007    1    1    2    0  503 -0.76703583558E+02 -0.39294817333E+03 -0.91273341307E+02  0.57325607671E+03  0.40000000000E+03 0.  1.
<mgrwt>
<rscale>  2 0.56594320E+03</rscale>
<asrwt>0</asrwt>
<pdfrwt beam="1">  1       21 0.23705863E+00 0.56594320E+03</pdfrwt>
<pdfrwt beam="2">  1       21 0.60594538E-01 0.56594320E+03</pdfrwt>
<totfact> 0.15105364E+02</totfact>
</mgrwt>
</event>
<event>
 4    1  0.4676529E-002  0.4413034E+03  0.7818608E-02  0.1030348E+00
         21   -1    0    0  501  502  0.00000000000E+00  0.00000000000E+00  0.72986780153E+03  0.72986780153E+03  0.00000000000E+00 0. -1.
         21   -1    0    0  502  503 -0.00000000000E+00 -0.00000000000E+00 -0.16976793629E+04  0.16976793629E+04  0.00000000000E+00 0. -1.
    9000007    1    1    2  501    0 -0.28922604084E+02 -0.18415266100E+03  0.63040722569E+03  0.76952062336E+03  0.40000000000E+03 0. -1.
   -9000007    1    1    2    0  503  0.28922604084E+02  0.18415266100E+03 -0.15982187871E+04  0.16580265411E+04  0.40000000000E+03 0. -1.
<mgrwt>
<rscale>  2 0.44130343E+03</rscale>
<asrwt>0</asrwt>
<pdfrwt beam="1">  1       21 0.11228736E+00 0.44130343E+03</pdfrwt>
<pdfrwt beam="2">  1       21 0.26118143E+00 0.44130343E+03</pdfrwt>
<totfact> 0.27164445E+01</totfact>
</mgrwt>
</event>
<event>
 4    1  0.4676529E-002  0.4352922E+03  0.7818608E-02  0.1032201E+00
         21   -1    0    0  501  502  0.00000000000E+00  0.00000000000E+00  0.10261466913E+04  0.10261466913E+04  0.00000000000E+00 0. -1.
         21   -1    0    0  502  503 -0.00000000000E+00 -0.00000000000E+00 -0.29827939872E+03  0.29827939872E+03  0.00000000000E+00 0. -1.
    9000007    1    1    2  501    0  0.16745403664E+03  0.37927393761E+02  0.77265651041E+03  0.88683562438E+03  0.40000000000E+03 0. -1.
   -9000007    1    1    2    0  503 -0.16745403664E+03 -0.37927393761E+02 -0.44789217827E+02  0.43759046564E+03  0.40000000000E+03 0. -1.
<mgrwt>
<rscale>  2 0.43529225E+03</rscale>
<asrwt>0</asrwt>
<pdfrwt beam="1">  1       21 0.15786872E+00 0.43529225E+03</pdfrwt>
<pdfrwt beam="2">  1       21 0.45889139E-01 0.43529225E+03</pdfrwt>
<totfact> 0.10081935E+03</totfact>
</mgrwt>
</event>
<event>
 4    1  0.4676529E-002  0.4510743E+03  0.7818608E-02  0.1027402E+00
         21   -1    0    0  501  502  0.00000000000E+00  0.00000000000E+00  0.88076660635E+03  0.88076660635E+03  0.00000000000E+00 0. -1.
         21   -1    0    0  502  503 -0.00000000000E+00 -0.00000000000E+00 -0.33625512826E+03  0.33625512826E+03  0.00000000000E+00 0. -1.
    9000007    1    1    2  501    0  0.20653050280E+02  0.20746450442E+03  0.61268727581E+03  0.76082439959E+03  0.40000000000E+03 0.  1.
   -9000007    1    1    2    0  503 -0.20653050280E+02 -0.20746450442E+03 -0.68175797721E+02  0.45619733501E+03  0.40000000000E+03 0.  1.
<mgrwt>
<rscale>  2 0.45107435E+03</rscale>
<asrwt>0</asrwt>
<pdfrwt beam="1">  1       21 0.13550255E+00 0.45107435E+03</pdfrwt>
<pdfrwt beam="2">  1       21 0.51731558E-01 0.45107435E+03</pdfrwt>
<totfact> 0.11726724E+03</totfact>
</mgrwt>
</event>
<event>
 4    1  0.4676529E-002  0.6070233E+03  0.7818608E-02  0.9890941E-01
         21   -1    0    0  503  502  0.00000000000E+00  0.00000000000E+00  0.11147923583E+04  0.11147923583E+04  0.00000000000E+00 0. -1.
         21   -1    0    0  501  503 -0.00000000000E+00 -0.00000000000E+00 -0.39047542666E+03  0.39047542666E+03  0.00000000000E+00 0.  1.
    9000007    1    1    2  501    0  0.43918437960E+03  0.12487750487E+03  0.67276154064E+02  0.61074003587E+03  0.40000000000E+03 0.  1.
   -9000007    1    1    2    0  502 -0.43918437960E+03 -0.12487750487E+03  0.65704077760E+03  0.89452774912E+03  0.40000000000E+03 0. -1.
<mgrwt>
<rscale>  2 0.60702332E+03</rscale>
<asrwt>0</asrwt>
<pdfrwt beam="1">  1       21 0.17150651E+00 0.60702332E+03</pdfrwt>
<pdfrwt beam="2">  1       21 0.60073143E-01 0.60702332E+03</pdfrwt>
<totfact> 0.41764516E+02</totfact>
</mgrwt>
</event>
<event>
 4    1  0.4676529E-002  0.4259007E+03  0.7818608E-02  0.1035163E+00
         21   -1    0    0  501  502  0.00000000000E+00  0.00000000000E+00  0.14541788794E+04  0.14541788794E+04  0.00000000000E+00 0.  1.
         21   -1    0    0  502  503 -0.00000000000E+00 -0.00000000000E+00 -0.10181230622E+04  0.10181230622E+04  0.00000000000E+00 0.  1.
    9000007    1    1    2  501    0 -0.14590797170E+03 -0.10114552210E+02  0.13759803093E+04  0.14403864939E+04  0.40000000000E+03 0.  1.
   -9000007    1    1    2    0  503  0.14590797170E+03  0.10114552210E+02 -0.93992449208E+03  0.10319154477E+04  0.40000000000E+03 0.  1.
<mgrwt>
<rscale>  2 0.42590074E+03</rscale>
<asrwt>0</asrwt>
<pdfrwt beam="1">  1       21 0.22371983E+00 0.42590074E+03</pdfrwt>
<pdfrwt beam="2">  1       21 0.15663432E+00 0.42590074E+03</pdfrwt>
<totfact> 0.19627048E+01</totfact>
</mgrwt>
</event>
<event>
 4    1  0.4676529E-002  0.4077567E+03  0.7818608E-02  0.1041126E+00
         21   -1    0    0  501  502  0.00000000000E+00  0.00000000000E+00  0.13721163069E+04  0.13721163069E+04  0.00000000000E+00 0. -1.
         21   -1    0    0  502  503 -0.00000000000E+00 -0.00000000000E+00 -0.12171306235E+03  0.12171306235E+03  0.00000000000E+00 0. -1.
    9000007    1    1    2  501    0 -0.75978991087E+02  0.22196709628E+02  0.57551696647E+03  0.70532636396E+03  0.40000000000E+03 0. -1.
   -9000007    1    1    2    0  503  0.75978991087E+02 -0.22196709628E+02  0.67488627803E+03  0.78850300525E+03  0.40000000000E+03 0. -1.
<mgrwt>
<rscale>  2 0.40775667E+03</rscale>
<asrwt>0</asrwt>
<pdfrwt beam="1">  1       21 0.21109481E+00 0.40775667E+03</pdfrwt>
<pdfrwt beam="2">  1       21 0.18725087E-01 0.40775667E+03</pdfrwt>
<totfact> 0.25707352E+03</totfact>
</mgrwt>
</event>
<event>
 4    1  0.4676529E-002  0.4260875E+03  0.7818608E-02  0.1035103E+00
         21   -1    0    0  501  502  0.00000000000E+00  0.00000000000E+00  0.58545666723E+03  0.58545666723E+03  0.00000000000E+00 0. -1.
         21   -1    0    0  502  503 -0.00000000000E+00 -0.00000000000E+00 -0.34473898844E+03  0.34473898844E+03  0.00000000000E+00 0. -1.
    9000007    1    1    2  501    0 -0.31993102345E+02 -0.14327245869E+03 -0.27068137859E+02  0.42694641362E+03  0.40000000000E+03 0. -1.
   -9000007    1    1    2    0  503  0.31993102345E+02  0.14327245869E+03  0.26778581665E+03  0.50324924204E+03  0.40000000000E+03 0. -1.
<mgrwt>
<rscale>  2 0.42608750E+03</rscale>
<asrwt>0</asrwt>
<pdfrwt beam="1">  1       21 0.90070256E-01 0.42608750E+03</pdfrwt>
<pdfrwt beam="2">  1       21 0.53036767E-01 0.42608750E+03</pdfrwt>
<totfact> 0.31017749E+03</totfact>
</mgrwt>
</event>
<event>
 4    1  0.4676529E-002  0.5994401E+03  0.7818608E-02  0.9906568E-01
         21   -1    0    0  503  502  0.00000000000E+00  0.00000000000E+00  0.73153781422E+03  0.73153781422E+03  0.00000000000E+00 0. -1.
         21   -1    0    0  501  503 -0.00000000000E+00 -0.00000000000E+00 -0.63865612272E+03  0.63865612272E+03  0.00000000000E+00 0.  1.
    9000007    1    1    2  501    0  0.42949921841E+03  0.12189671429E+03 -0.28275619557E+03  0.66278160332E+03  0.40000000000E+03 0. -1.
   -9000007    1    1    2    0  502 -0.42949921841E+03 -0.12189671429E+03  0.37563788706E+03  0.70741233362E+03  0.40000000000E+03 0. -1.
<mgrwt>
<rscale>  2 0.59944006E+03</rscale>
<asrwt>0</asrwt>
<pdfrwt beam="1">  1       21 0.11254428E+00 0.59944006E+03</pdfrwt>
<pdfrwt beam="2">  1       21 0.98254788E-01 0.59944006E+03</pdfrwt>
<totfact> 0.41585857E+02</totfact>
</mgrwt>
</event>
<event>
 4    1  0.4676529E-002  0.1278881E+04  0.7818608E-02  0.9046483E-01
         21   -1    0    0  503  502  0.00000000000E+00  0.00000000000E+00  0.17696396336E+04  0.17696396336E+04  0.00000000000E+00 0.  1.
         21   -1    0    0  501  503 -0.00000000000E+00 -0.00000000000E+00 -0.11109119577E+04  0.11109119577E+04  0.00000000000E+00 0. -1.
    9000007    1    1    2  501    0 -0.11213513387E+04  0.46701927241E+03 -0.26106693690E+03  0.13052554428E+04  0.40000000000E+03 0. -1.
   -9000007    1    1    2    0  502  0.11213513387E+04 -0.46701927241E+03  0.91979461284E+03  0.15752961485E+04  0.40000000000E+03 0.  1.
<mgrwt>
<rscale>  2 0.12788807E+04</rscale>
<asrwt>0</asrwt>
<pdfrwt beam="1">  1       21 0.27225225E+00 0.12788807E+04</pdfrwt>
<pdfrwt beam="2">  1       21 0.17090953E+00 0.12788807E+04</pdfrwt>
<totfact> 0.53392016E+00</totfact>
</mgrwt>
</event>
<event>
 4    1  0.4676529E-002  0.4387625E+03  0.7818608E-02  0.1031127E+00
         21   -1    0    0  501  502  0.00000000000E+00  0.00000000000E+00  0.53673489519E+03  0.53673489519E+03  0.00000000000E+00 0.  1.
         21   -1    0    0  502  503 -0.00000000000E+00 -0.00000000000E+00 -0.54238360454E+03  0.54238360454E+03  0.00000000000E+00 0.  1.
    9000007    1    1    2  501    0  0.71664712796E+02  0.16545907016E+03  0.31119216409E+03  0.53791551190E+03  0.40000000000E+03 0.  1.
   -9000007    1    1    2    0  503 -0.71664712796E+02 -0.16545907016E+03 -0.31684087343E+03  0.54120298783E+03  0.40000000000E+03 0.  1.
<mgrwt>
<rscale>  2 0.43876250E+03</rscale>
<asrwt>0</asrwt>
<pdfrwt beam="1">  1       21 0.82574600E-01 0.43876250E+03</pdfrwt>
<pdfrwt beam="2">  1       21 0.83443631E-01 0.43876250E+03</pdfrwt>
<totfact> 0.13764239E+03</totfact>
</mgrwt>
</event>
<event>
 4    1  0.4676529E-002  0.5239707E+03  0.7818608E-02  0.1007705E+00
         21   -1    0    0  503  502  0.00000000000E+00  0.00000000000E+00  0.21460785303E+04  0.21460785303E+04  0.00000000000E+00 0.  1.
         21   -1    0    0  501  503 -0.00000000000E+00 -0.00000000000E+00 -0.14246028811E+03  0.14246028811E+03  0.00000000000E+00 0. -1.
    9000007    1    1    2  501    0 -0.11951139243E+03  0.31664224701E+03  0.63635220564E+03  0.82431147944E+03  0.40000000000E+03 0. -1.
   -9000007    1    1    2    0  502  0.11951139243E+03 -0.31664224701E+03  0.13672660366E+04  0.14642273390E+04  0.40000000000E+03 0.  1.
<mgrwt>
<rscale>  2 0.52397069E+03</rscale>
<asrwt>0</asrwt>
<pdfrwt beam="1">  1       21 0.33016590E+00 0.52397069E+03</pdfrwt>
<pdfrwt beam="2">  1       21 0.21916969E-01 0.52397069E+03</pdfrwt>
<totfact> 0.33422017E+02</totfact>
</mgrwt>
</event>
<event>
 4    1  0.4676529E-002  0.4157532E+03  0.7818608E-02  0.1038457E+00
         21   -1    0    0  501  502  0.00000000000E+00  0.00000000000E+00  0.38828449779E+03  0.38828449779E+03  0.00000000000E+00 0.  1.
         21   -1    0    0  502  503 -0.00000000000E+00 -0.00000000000E+00 -0.72436494448E+03  0.72436494448E+03  0.00000000000E+00 0.  1.
    9000007    1    1    2  501    0 -0.21606289671E+02  0.11128305127E+03  0.17734770032E+03  0.45199884520E+03  0.40000000000E+03 0.  1.
   -9000007    1    1    2    0  503  0.21606289671E+02 -0.11128305127E+03 -0.51342814701E+03  0.66065059706E+03  0.40000000000E+03 0.  1.
<mgrwt>
<rscale>  2 0.41575323E+03</rscale>
<asrwt>0</asrwt>
<pdfrwt beam="1">  1       21 0.59736077E-01 0.41575323E+03</pdfrwt>
<pdfrwt beam="2">  1       21 0.11144076E+00 0.41575323E+03</pdfrwt>
<totfact> 0.14363851E+03</totfact>
</mgrwt>
</event>
<event>
 4    1  0.4676529E-002  0.4905271E+03  0.7818608E-02  0.1016281E+00
         21   -1    0    0  503  502  0.00000000000E+00  0.00000000000E+00  0.21088153169E+03  0.21088153169E+03  0.00000000000E+00 0.  1.
         21   -1    0    0  501  503 -0.00000000000E+00 -0.00000000000E+00 -0.11431473200E+04  0.11431473200E+04  0.00000000000E+00 0.  1.
    9000007    1    1    2  501    0 -0.16542495364E+03  0.23076269418E+03 -0.49544256788E+03  0.69719450255E+03  0.40000000000E+03 0.  1.
   -9000007    1    1    2    0  502  0.16542495364E+03 -0.23076269418E+03 -0.43682322045E+03  0.65683434916E+03  0.40000000000E+03 0.  1.
<mgrwt>
<rscale>  2 0.49052710E+03</rscale>
<asrwt>0</asrwt>
<pdfrwt beam="1">  1       21 0.32443313E-01 0.49052710E+03</pdfrwt>
<pdfrwt beam="2">  1       21 0.17586882E+00 0.49052710E+03</pdfrwt>
<totfact> 0.14782040E+03</totfact>
</mgrwt>
</event>
<event>
 4    1  0.4676529E-002  0.5697793E+03  0.7818608E-02  0.9970167E-01
         21   -1    0    0  501  502  0.00000000000E+00  0.00000000000E+00  0.28045908039E+04  0.28045908039E+04  0.00000000000E+00 0. -1.
         21   -1    0    0  502  503 -0.00000000000E+00 -0.00000000000E+00 -0.11745109246E+03  0.11745109246E+03  0.00000000000E+00 0. -1.
    9000007    1    1    2  501    0  0.40516771047E+03  0.22080832335E+02  0.15190849180E+04  0.16224264005E+04  0.40000000000E+03 0. -1.
   -9000007    1    1    2    0  503 -0.40516771047E+03 -0.22080832335E+02  0.11680547935E+04  0.12996154959E+04  0.40000000000E+03 0. -1.
<mgrwt>
<rscale>  2 0.56977929E+03</rscale>
<asrwt>0</asrwt>
<pdfrwt beam="1">  1       21 0.43147546E+00 0.56977929E+03</pdfrwt>
<pdfrwt beam="2">  1       21 0.18069401E-01 0.56977929E+03</pdfrwt>
<totfact> 0.10711458E+02</totfact>
</mgrwt>
</event>
<event>
 4    1  0.4676529E-002  0.4081917E+03  0.7818608E-02  0.1040980E+00
         21   -1    0    0  501  502  0.00000000000E+00  0.00000000000E+00  0.34815391060E+03  0.34815391060E+03  0.00000000000E+00 0. -1.
         21   -1    0    0  502  503 -0.00000000000E+00 -0.00000000000E+00 -0.48349514371E+03  0.48349514371E+03  0.00000000000E+00 0. -1.
    9000007    1    1    2  501    0  0.21538401682E+02 -0.78463932800E+02 -0.10958432764E+03  0.42264549727E+03  0.40000000000E+03 0. -1.
   -9000007    1    1    2    0  503 -0.21538401682E+02  0.78463932800E+02 -0.25756905469E+02  0.40900355705E+03  0.40000000000E+03 0. -1.
<mgrwt>
<rscale>  2 0.40819173E+03</rscale>
<asrwt>0</asrwt>
<pdfrwt beam="1">  1       21 0.53562140E-01 0.40819173E+03</pdfrwt>
<pdfrwt beam="2">  1       21 0.74383868E-01 0.40819173E+03</pdfrwt>
<totfact> 0.47631623E+03</totfact>
</mgrwt>
</event>
<event>
 4    1  0.4676529E-002  0.4457407E+03  0.7818608E-02  0.1029000E+00
         21   -1    0    0  503  502  0.00000000000E+00  0.00000000000E+00  0.38735351014E+03  0.38735351014E+03  0.00000000000E+00 0. -1.
         21   -1    0    0  501  503 -0.00000000000E+00 -0.00000000000E+00 -0.10855512322E+04  0.10855512322E+04  0.00000000000E+00 0. -1.
    9000007    1    1    2  501    0 -0.18573814074E+03  0.64699899102E+02 -0.88397560758E+03  0.98999879225E+03  0.40000000000E+03 0. -1.
   -9000007    1    1    2    0  502  0.18573814074E+03 -0.64699899102E+02  0.18577788552E+03  0.48290595008E+03  0.40000000000E+03 0. -1.
<mgrwt>
<rscale>  2 0.44574066E+03</rscale>
<asrwt>0</asrwt>
<pdfrwt beam="1">  1       21 0.59592848E-01 0.44574066E+03</pdfrwt>
<pdfrwt beam="2">  1       21 0.16700788E+00 0.44574066E+03</pdfrwt>
<totfact> 0.48975681E+02</totfact>
</mgrwt>
</event>
<event>
 4    1  0.4676529E-002  0.4629072E+03  0.7818608E-02  0.1023941E+00
         21   -1    0    0  501  502  0.00000000000E+00  0.00000000000E+00  0.48407198508E+03  0.48407198508E+03  0.00000000000E+00 0. -1.
         21   -1    0    0  502  503 -0.00000000000E+00 -0.00000000000E+00 -0.45376031904E+03  0.45376031904E+03  0.00000000000E+00 0. -1.
    9000007    1    1    2  501    0 -0.16554353167E+03 -0.16394647315E+03  0.88471360671E+02  0.47128578230E+03  0.40000000000E+03 0. -1.
   -9000007    1    1    2    0  503  0.16554353167E+03  0.16394647315E+03 -0.58159694629E+02  0.46654652181E+03  0.40000000000E+03 0. -1.
<mgrwt>
<rscale>  2 0.46290723E+03</rscale>
<asrwt>0</asrwt>
<pdfrwt beam="1">  1       21 0.74472613E-01 0.46290723E+03</pdfrwt>
<pdfrwt beam="2">  1       21 0.69809280E-01 0.46290723E+03</pdfrwt>
<totfact> 0.26025392E+03</totfact>
</mgrwt>
</event>
<event>
 4    1  0.4676529E-002  0.4996057E+03  0.7818608E-02  0.1013882E+00
         21   -1    0    0  503  502  0.00000000000E+00  0.00000000000E+00  0.10507926006E+04  0.10507926006E+04  0.00000000000E+00 0. -1.
         21   -1    0    0  501  503 -0.00000000000E+00 -0.00000000000E+00 -0.25979081634E+03  0.25979081634E+03  0.00000000000E+00 0. -1.
    9000007    1    1    2  501    0 -0.25965266795E+03  0.14895098009E+03  0.20372680836E+03  0.53954658268E+03  0.40000000000E+03 0. -1.
   -9000007    1    1    2    0  502  0.25965266795E+03 -0.14895098009E+03  0.58727497590E+03  0.77103683425E+03  0.40000000000E+03 0. -1.
<mgrwt>
<rscale>  2 0.49960575E+03</rscale>
<asrwt>0</asrwt>
<pdfrwt beam="1">  1       21 0.16166040E+00 0.49960575E+03</pdfrwt>
<pdfrwt beam="2">  1       21 0.39967818E-01 0.49960575E+03</pdfrwt>
<totfact> 0.12250011E+03</totfact>
</mgrwt>
</event>
<event>
 4    1  0.4676529E-002  0.4150385E+03  0.7818608E-02  0.1038693E+00
         21   -1    0    0  501  502  0.00000000000E+00  0.00000000000E+00  0.14026184165E+03  0.14026184165E+03  0.00000000000E+00 0.  1.
         21   -1    0    0  502  503 -0.00000000000E+00 -0.00000000000E+00 -0.14132232693E+04  0.14132232693E+04  0.00000000000E+00 0.  1.
    9000007    1    1    2  501    0  0.70597322426E+02  0.85281843330E+02 -0.35536155248E+03  0.54638704937E+03  0.40000000000E+03 0.  1.
   -9000007    1    1    2    0  503 -0.70597322426E+02 -0.85281843330E+02 -0.91759987514E+03  0.10070980616E+04  0.40000000000E+03 0.  1.
<mgrwt>
<rscale>  2 0.41503852E+03</rscale>
<asrwt>0</asrwt>
<pdfrwt beam="1">  1       21 0.21578746E-01 0.41503852E+03</pdfrwt>
<pdfrwt beam="2">  1       21 0.21741895E+00 0.41503852E+03</pdfrwt>
<totfact> 0.17811215E+03</totfact>
</mgrwt>
</event>
<event>
 4    1  0.4676529E-002  0.5380733E+03  0.7818608E-02  0.1004293E+00
         21   -1    0    0  503  502  0.00000000000E+00  0.00000000000E+00  0.60753013281E+03  0.60753013281E+03  0.00000000000E+00 0.  1.
         21   -1    0    0  501  503 -0.00000000000E+00 -0.00000000000E+00 -0.47888399456E+03  0.47888399456E+03  0.00000000000E+00 0. -1.
    9000007    1    1    2  501    0  0.28092260543E+03  0.22495647933E+03  0.26459748919E+02  0.53872353406E+03  0.40000000000E+03 0. -1.
   -9000007    1    1    2    0  502 -0.28092260543E+03 -0.22495647933E+03  0.10218638934E+03  0.54769059331E+03  0.40000000000E+03 0.  1.
<mgrwt>
<rscale>  2 0.53807335E+03</rscale>
<asrwt>0</asrwt>
<pdfrwt beam="1">  1       21 0.93466175E-01 0.53807335E+03</pdfrwt>
<pdfrwt beam="2">  1       21 0.73674460E-01 0.53807335E+03</pdfrwt>
<totfact> 0.13203508E+03</totfact>
</mgrwt>
</event>
<event>
 4    1  0.4676529E-002  0.4677561E+03  0.7818608E-02  0.1022555E+00
         21   -1    0    0  503  502  0.00000000000E+00  0.00000000000E+00  0.15832976122E+03  0.15832976122E+03  0.00000000000E+00 0.  1.
         21   -1    0    0  501  503 -0.00000000000E+00 -0.00000000000E+00 -0.13882674150E+04  0.13882674150E+04  0.00000000000E+00 0.  1.
    9000007    1    1    2  501    0 -0.20674347842E+03 -0.12669993494E+03 -0.66734408579E+03  0.81495022439E+03  0.40000000000E+03 0.  1.
   -9000007    1    1    2    0  502  0.20674347842E+03  0.12669993494E+03 -0.56259356795E+03  0.73164695180E+03  0.40000000000E+03 0.  1.
<mgrwt>
<rscale>  2 0.46775607E+03</rscale>
<asrwt>0</asrwt>
<pdfrwt beam="1">  1       21 0.24358424E-01 0.46775607E+03</pdfrwt>
<pdfrwt beam="2">  1       21 0.21357961E+00 0.46775607E+03</pdfrwt>
<totfact> 0.14572126E+03</totfact>
</mgrwt>
</event>
<event>
 4    1  0.4676529E-002  0.4657332E+03  0.7818608E-02  0.1023131E+00
         21   -1    0    0  503  502  0.00000000000E+00  0.00000000000E+00  0.10825372416E+04  0.10825372416E+04  0.00000000000E+00 0.  1.
         21   -1    0    0  501  503 -0.00000000000E+00 -0.00000000000E+00 -0.20569958269E+03  0.20569958269E+03  0.00000000000E+00 0. -1.
    9000007    1    1    2  501    0  0.23567317114E+03 -0.36954025094E+02  0.33473379727E+03  0.57354525419E+03  0.40000000000E+03 0.  1.
   -9000007    1    1    2    0  502 -0.23567317114E+03  0.36954025094E+02  0.54210386159E+03  0.71469157006E+03  0.40000000000E+03 0.  1.
<mgrwt>
<rscale>  2 0.46573323E+03</rscale>
<asrwt>0</asrwt>
<pdfrwt beam="1">  1       21 0.16654419E+00 0.46573323E+03</pdfrwt>
<pdfrwt beam="2">  1       21 0.31646090E-01 0.46573323E+03</pdfrwt>
<totfact> 0.18340020E+03</totfact>
</mgrwt>
</event>
<event>
 4    1  0.4676529E-002  0.4450228E+03  0.7818608E-02  0.1029217E+00
         21   -1    0    0  503  502  0.00000000000E+00  0.00000000000E+00  0.25233081344E+03  0.25233081344E+03  0.00000000000E+00 0. -1.
         21   -1    0    0  501  503 -0.00000000000E+00 -0.00000000000E+00 -0.78486374333E+03  0.78486374333E+03  0.00000000000E+00 0. -1.
    9000007    1    1    2  501    0  0.59066602216E+02  0.18589361442E+03 -0.26636680788E+03  0.51864879805E+03  0.40000000000E+03 0. -1.
   -9000007    1    1    2    0  502 -0.59066602216E+02 -0.18589361442E+03 -0.26616612201E+03  0.51854575872E+03  0.40000000000E+03 0. -1.
<mgrwt>
<rscale>  2 0.44502281E+03</rscale>
<asrwt>0</asrwt>
<pdfrwt beam="1">  1       21 0.38820125E-01 0.44502281E+03</pdfrwt>
<pdfrwt beam="2">  1       21 0.12074827E+00 0.44502281E+03</pdfrwt>
<totfact> 0.28888517E+03</totfact>
</mgrwt>
</event>
<event>
 4    1  0.4676529E-002  0.4811188E+03  0.7818608E-02  0.1018828E+00
         21   -1    0    0  501  502  0.00000000000E+00  0.00000000000E+00  0.59635651525E+03  0.59635651525E+03  0.00000000000E+00 0. -1.
         21   -1    0    0  502  503 -0.00000000000E+00 -0.00000000000E+00 -0.44026582506E+03  0.44026582506E+03  0.00000000000E+00 0. -1.
    9000007    1    1    2  501    0 -0.23477739737E+03 -0.12788619499E+03  0.25637403405E+03  0.54516323291E+03  0.40000000000E+03 0. -1.
   -9000007    1    1    2    0  503  0.23477739737E+03  0.12788619499E+03 -0.10028334386E+03  0.49145910740E+03  0.40000000000E+03 0. -1.
<mgrwt>
<rscale>  2 0.48111881E+03</rscale>
<asrwt>0</asrwt>
<pdfrwt beam="1">  1       21 0.91747157E-01 0.48111881E+03</pdfrwt>
<pdfrwt beam="2">  1       21 0.67733203E-01 0.48111881E+03</pdfrwt>
<totfact> 0.17021611E+03</totfact>
</mgrwt>
</event>
<event>
 4    1  0.4676529E-002  0.4187815E+03  0.7818608E-02  0.1037464E+00
         21   -1    0    0  501  502  0.00000000000E+00  0.00000000000E+00  0.72635726896E+03  0.72635726896E+03  0.00000000000E+00 0. -1.
         21   -1    0    0  502  503 -0.00000000000E+00 -0.00000000000E+00 -0.57723966086E+03  0.57723966086E+03  0.00000000000E+00 0.  1.
    9000007    1    1    2  501    0  0.84162630119E+02  0.91074865595E+02  0.57168859234E+03  0.70866481926E+03  0.40000000000E+03 0. -1.
   -9000007    1    1    2    0  503 -0.84162630119E+02 -0.91074865595E+02 -0.42257098424E+03  0.59493211056E+03  0.40000000000E+03 0.  1.
<mgrwt>
<rscale>  2 0.41878154E+03</rscale>
<asrwt>0</asrwt>
<pdfrwt beam="1">  1       21 0.11174727E+00 0.41878154E+03</pdfrwt>
<pdfrwt beam="2">  1       21 0.88806102E-01 0.41878154E+03</pdfrwt>
<totfact> 0.57985785E+02</totfact>
</mgrwt>
</event>
<event>
 4    1  0.4676529E-002  0.4038410E+03  0.7818608E-02  0.1042458E+00
         21   -1    0    0  501  502  0.00000000000E+00  0.00000000000E+00  0.85454479925E+03  0.85454479925E+03  0.00000000000E+00 0. -1.
         21   -1    0    0  502  503 -0.00000000000E+00 -0.00000000000E+00 -0.37239218451E+03  0.37239218451E+03  0.00000000000E+00 0. -1.
    9000007    1    1    2  501    0  0.49223125171E+02  0.25780591022E+02  0.66941174743E+03  0.78179258280E+03  0.40000000000E+03 0. -1.
   -9000007    1    1    2    0  503 -0.49223125171E+02 -0.25780591022E+02 -0.18725913270E+03  0.44514440096E+03  0.40000000000E+03 0. -1.
<mgrwt>
<rscale>  2 0.40384100E+03</rscale>
<asrwt>0</asrwt>
<pdfrwt beam="1">  1       21 0.13146843E+00 0.40384100E+03</pdfrwt>
<pdfrwt beam="2">  1       21 0.57291106E-01 0.40384100E+03</pdfrwt>
<totfact> 0.10398530E+03</totfact>
</mgrwt>
</event>
<event>
 4    1  0.4676529E-002  0.4278803E+03  0.7818608E-02  0.1034532E+00
         21   -1    0    0  501  502  0.00000000000E+00  0.00000000000E+00  0.38797316268E+03  0.38797316268E+03  0.00000000000E+00 0.  1.
         21   -1    0    0  502  503 -0.00000000000E+00 -0.00000000000E+00 -0.78838694722E+03  0.78838694722E+03  0.00000000000E+00 0.  1.
    9000007    1    1    2  501    0 -0.12473191387E+03  0.86738303903E+02  0.17246248062E+03  0.46132948196E+03  0.40000000000E+03 0.  1.
   -9000007    1    1    2    0  503  0.12473191387E+03 -0.86738303903E+02 -0.57287626517E+03  0.71503062794E+03  0.40000000000E+03 0.  1.
<mgrwt>
<rscale>  2 0.42788034E+03</rscale>
<asrwt>0</asrwt>
<pdfrwt beam="1">  1       21 0.59688179E-01 0.42788034E+03</pdfrwt>
<pdfrwt beam="2">  1       21 0.12129030E+00 0.42788034E+03</pdfrwt>
<totfact> 0.11573925E+03</totfact>
</mgrwt>
</event>
<event>
 4    1  0.4676529E-002  0.4712288E+03  0.7818608E-02  0.1021574E+00
         21   -1    0    0  501  502  0.00000000000E+00  0.00000000000E+00  0.38647234857E+03  0.38647234857E+03  0.00000000000E+00 0. -1.
         21   -1    0    0  502  503 -0.00000000000E+00 -0.00000000000E+00 -0.14715024435E+04  0.14715024435E+04  0.00000000000E+00 0.  1.
    9000007    1    1    2  501    0  0.16917305472E+03 -0.18285800536E+03  0.18276957731E+03  0.50543178665E+03  0.40000000000E+03 0. -1.
   -9000007    1    1    2    0  503 -0.16917305472E+03  0.18285800536E+03 -0.12677996723E+04  0.13525430054E+04  0.40000000000E+03 0.  1.
<mgrwt>
<rscale>  2 0.47122879E+03</rscale>
<asrwt>0</asrwt>
<pdfrwt beam="1">  1       21 0.59457284E-01 0.47122879E+03</pdfrwt>
<pdfrwt beam="2">  1       21 0.22638499E+00 0.47122879E+03</pdfrwt>
<totfact> 0.19260611E+02</totfact>
</mgrwt>
</event>
<event>
 4    1  0.4676529E-002  0.4947702E+03  0.7818608E-02  0.1015153E+00
         21   -1    0    0  501  502  0.00000000000E+00  0.00000000000E+00  0.10521590506E+03  0.10521590506E+03  0.00000000000E+00 0. -1.
         21   -1    0    0  502  503 -0.00000000000E+00 -0.00000000000E+00 -0.23930004089E+04  0.23930004089E+04  0.00000000000E+00 0.  1.
    9000007    1    1    2  501    0 -0.25786230631E+03  0.13529430809E+03 -0.93585273895E+03  0.10585923993E+04  0.40000000000E+03 0. -1.
   -9000007    1    1    2    0  503  0.25786230631E+03 -0.13529430809E+03 -0.13519317649E+04  0.14396239147E+04  0.40000000000E+03 0.  1.
<mgrwt>
<rscale>  2 0.49477017E+03</rscale>
<asrwt>0</asrwt>
<pdfrwt beam="1">  1       21 0.16187062E-01 0.49477017E+03</pdfrwt>
<pdfrwt beam="2">  1       21 0.36815391E+00 0.49477017E+03</pdfrwt>
<totfact> 0.35172243E+02</totfact>
</mgrwt>
</event>
<event>
 4    1  0.4676529E-002  0.5958291E+03  0.7818608E-02  0.9914097E-01
         21   -1    0    0  501  502  0.00000000000E+00  0.00000000000E+00  0.21435198006E+03  0.21435198006E+03  0.00000000000E+00 0. -1.
         21   -1    0    0  502  503 -0.00000000000E+00 -0.00000000000E+00 -0.17757647072E+04  0.17757647072E+04  0.00000000000E+00 0. -1.
    9000007    1    1    2  501    0  0.26410541234E+03  0.35392182360E+03 -0.52251868939E+03  0.79248855311E+03  0.40000000000E+03 0. -1.
   -9000007    1    1    2    0  503 -0.26410541234E+03 -0.35392182360E+03 -0.10388940377E+04  0.11976281341E+04  0.40000000000E+03 0. -1.
<mgrwt>
<rscale>  2 0.59582911E+03</rscale>
<asrwt>0</asrwt>
<pdfrwt beam="1">  1       21 0.32977229E-01 0.59582911E+03</pdfrwt>
<pdfrwt beam="2">  1       21 0.27319456E+00 0.59582911E+03</pdfrwt>
<totfact> 0.32085504E+02</totfact>
</mgrwt>
</event>
<event>
 4    1  0.4676529E-002  0.4477594E+03  0.7818608E-02  0.1028392E+00
         21   -1    0    0  501  502  0.00000000000E+00  0.00000000000E+00  0.38706246225E+03  0.38706246225E+03  0.00000000000E+00 0. -1.
         21   -1    0    0  502  503 -0.00000000000E+00 -0.00000000000E+00 -0.11487784032E+04  0.11487784032E+04  0.00000000000E+00 0.  1.
    9000007    1    1    2  501    0  0.12011211942E+03 -0.16143587686E+03  0.18818530765E+03  0.48569761538E+03  0.40000000000E+03 0. -1.
   -9000007    1    1    2    0  503 -0.12011211942E+03  0.16143587686E+03 -0.94990124857E+03  0.10501432500E+04  0.40000000000E+03 0.  1.
<mgrwt>
<rscale>  2 0.44775938E+03</rscale>
<asrwt>0</asrwt>
<pdfrwt beam="1">  1       21 0.59548071E-01 0.44775938E+03</pdfrwt>
<pdfrwt beam="2">  1       21 0.17673514E+00 0.44775938E+03</pdfrwt>
<totfact> 0.41680146E+02</totfact>
</mgrwt>
</event>
<event>
 4    1  0.4676529E-002  0.5226776E+03  0.7818608E-02  0.1008024E+00
         21   -1    0    0  503  502  0.00000000000E+00  0.00000000000E+00  0.30004419628E+03  0.30004419628E+03  0.00000000000E+00 0. -1.
         21   -1    0    0  501  503 -0.00000000000E+00 -0.00000000000E+00 -0.10458160721E+04  0.10458160721E+04  0.00000000000E+00 0.  1.
    9000007    1    1    2  501    0 -0.25175218876E+03  0.22318753181E+03 -0.13083405552E+03  0.53880366460E+03  0.40000000000E+03 0.  1.
   -9000007    1    1    2    0  502  0.25175218876E+03 -0.22318753181E+03 -0.61493782034E+03  0.80705660383E+03  0.40000000000E+03 0.  1.
<mgrwt>
<rscale>  2 0.52267757E+03</rscale>
<asrwt>0</asrwt>
<pdfrwt beam="1">  1       21 0.46160645E-01 0.52267757E+03</pdfrwt>
<pdfrwt beam="2">  1       21 0.16089478E+00 0.52267757E+03</pdfrwt>
<totfact> 0.91123152E+02</totfact>
</mgrwt>
</event>
<event>
 4    1  0.4676529E-002  0.4135451E+03  0.7818608E-02  0.1039188E+00
         21   -1    0    0  503  502  0.00000000000E+00  0.00000000000E+00  0.81710334970E+03  0.81710334970E+03  0.00000000000E+00 0.  1.
         21   -1    0    0  501  503 -0.00000000000E+00 -0.00000000000E+00 -0.21168890946E+03  0.21168890946E+03  0.00000000000E+00 0.  1.
    9000007    1    1    2  501    0  0.77368726616E+02  0.70948318988E+02  0.35735403655E+03  0.54655419792E+03  0.40000000000E+03 0.  1.
   -9000007    1    1    2    0  502 -0.77368726616E+02 -0.70948318988E+02  0.24806040370E+03  0.48223806124E+03  0.40000000000E+03 0.  1.
<mgrwt>
<rscale>  2 0.41354514E+03</rscale>
<asrwt>0</asrwt>
<pdfrwt beam="1">  1       21 0.12570821E+00 0.41354514E+03</pdfrwt>
<pdfrwt beam="2">  1       21 0.32567525E-01 0.41354514E+03</pdfrwt>
<totfact> 0.37639973E+03</totfact>
</mgrwt>
</event>
<event>
 4    1  0.4676529E-002  0.4201501E+03  0.7818608E-02  0.1037017E+00
         21   -1    0    0  503  502  0.00000000000E+00  0.00000000000E+00  0.17379655079E+04  0.17379655079E+04  0.00000000000E+00 0. -1.
         21   -1    0    0  501  503 -0.00000000000E+00 -0.00000000000E+00 -0.12007679110E+03  0.12007679110E+03  0.00000000000E+00 0. -1.
    9000007    1    1    2  501    0  0.10660468366E+03 -0.71844132971E+02  0.44422820396E+03  0.61144487504E+03  0.40000000000E+03 0. -1.
   -9000007    1    1    2    0  502 -0.10660468366E+03  0.71844132971E+02  0.11736605129E+04  0.12465974240E+04  0.40000000000E+03 0. -1.
<mgrwt>
<rscale>  2 0.42015014E+03</rscale>
<asrwt>0</asrwt>
<pdfrwt beam="1">  1       21 0.26737929E+00 0.42015014E+03</pdfrwt>
<pdfrwt beam="2">  1       21 0.18473354E-01 0.42015014E+03</pdfrwt>
<totfact> 0.11713753E+03</totfact>
</mgrwt>
</event>
<event>
 4    1  0.4676529E-002  0.5225933E+03  0.7818608E-02  0.1008044E+00
         21   -1    0    0  503  502  0.00000000000E+00  0.00000000000E+00  0.28894053892E+04  0.28894053892E+04  0.00000000000E+00 0.  1.
         21   -1    0    0  501  503 -0.00000000000E+00 -0.00000000000E+00 -0.96334814227E+02  0.96334814227E+02  0.00000000000E+00 0.  1.
    9000007    1    1    2  501    0 -0.31850862181E+03  0.10796314060E+03  0.11915781549E+04  0.13011388401E+04  0.40000000000E+03 0.  1.
   -9000007    1    1    2    0  502  0.31850862181E+03 -0.10796314060E+03  0.16014924200E+04  0.16846013633E+04  0.40000000000E+03 0.  1.
<mgrwt>
<rscale>  2 0.52259332E+03</rscale>
<asrwt>0</asrwt>
<pdfrwt beam="1">  1       21 0.44452384E+00 0.52259332E+03</pdfrwt>
<pdfrwt beam="2">  1       21 0.14820743E-01 0.52259332E+03</pdfrwt>
<totfact> 0.13041725E+02</totfact>
</mgrwt>
</event>
<event>
 4    1  0.4676529E-002  0.4103967E+03  0.7818608E-02  0.1040238E+00
         21   -1    0    0  503  502  0.00000000000E+00  0.00000000000E+00  0.55758242941E+03  0.55758242941E+03  0.00000000000E+00 0.  1.
         21   -1    0    0  501  503 -0.00000000000E+00 -0.00000000000E+00 -0.35578715939E+03  0.35578715939E+03  0.00000000000E+00 0.  1.
    9000007    1    1    2  501    0 -0.50734377536E+00  0.91788682862E+02 -0.76563536314E+02  0.41747741830E+03  0.40000000000E+03 0.  1.
   -9000007    1    1    2    0  502  0.50734377536E+00 -0.91788682862E+02  0.27835880634E+03  0.49589217050E+03  0.40000000000E+03 0.  1.
<mgrwt>
<rscale>  2 0.41039666E+03</rscale>
<asrwt>0</asrwt>
<pdfrwt beam="1">  1       21 0.85781913E-01 0.41039666E+03</pdfrwt>
<pdfrwt beam="2">  1       21 0.54736486E-01 0.41039666E+03</pdfrwt>
<totfact> 0.32702923E+03</totfact>
</mgrwt>
</event>
<event>
 4    1  0.4676529E-002  0.7879471E+03  0.7818608E-02  0.9577629E-01
         21   -1    0    0  503  502  0.00000000000E+00  0.00000000000E+00  0.64178237135E+03  0.64178237135E+03  0.00000000000E+00 0. -1.
         21   -1    0    0  501  503 -0.00000000000E+00 -0.00000000000E+00 -0.16159048244E+04  0.16159048244E+04  0.00000000000E+00 0.  1.
    9000007    1    1    2  501    0  0.67722461026E+03  0.47195751353E+02 -0.12021868028E+04  0.14373982470E+04  0.40000000000E+03 0.  1.
   -9000007    1    1    2    0  502 -0.67722461026E+03 -0.47195751353E+02  0.22806434981E+03  0.82028894869E+03  0.40000000000E+03 0. -1.
<mgrwt>
<rscale>  2 0.78794709E+03</rscale>
<asrwt>0</asrwt>
<pdfrwt beam="1">  1       21 0.98735752E-01 0.78794709E+03</pdfrwt>
<pdfrwt beam="2">  1       21 0.24860074E+00 0.78794709E+03</pdfrwt>
<totfact> 0.37692603E+01</totfact>
</mgrwt>
</event>
<event>
 4    1  0.4676529E-002  0.5158291E+03  0.7818608E-02  0.1009728E+00
         21   -1    0    0  501  502  0.00000000000E+00  0.00000000000E+00  0.25592868201E+03  0.25592868201E+03  0.00000000000E+00 0.  1.
         21   -1    0    0  502  503 -0.00000000000E+00 -0.00000000000E+00 -0.16408493220E+04  0.16408493220E+04  0.00000000000E+00 0. -1.
    9000007    1    1    2  501    0  0.12009471646E+03  0.30274900388E+03 -0.11840131256E+03  0.52924339494E+03  0.40000000000E+03 0.  1.
   -9000007    1    1    2    0  503 -0.12009471646E+03 -0.30274900388E+03 -0.12665193275E+04  0.13675346091E+04  0.40000000000E+03 0. -1.
<mgrwt>
<rscale>  2 0.51582914E+03</rscale>
<asrwt>0</asrwt>
<pdfrwt beam="1">  1       21 0.39373643E-01 0.51582914E+03</pdfrwt>
<pdfrwt beam="2">  1       21 0.25243836E+00 0.51582914E+03</pdfrwt>
<totfact> 0.31061556E+02</totfact>
</mgrwt>
</event>
<event>
 4    1  0.4676529E-002  0.6865365E+03  0.7818608E-02  0.9740538E-01
         21   -1    0    0  501  502  0.00000000000E+00  0.00000000000E+00  0.10917767250E+04  0.10917767250E+04  0.00000000000E+00 0.  1.
         21   -1    0    0  502  503 -0.00000000000E+00 -0.00000000000E+00 -0.44552396270E+03  0.44552396270E+03  0.00000000000E+00 0.  1.
    9000007    1    1    2  501    0 -0.27159628219E+02  0.55731026611E+03  0.18778469594E+03  0.71175520381E+03  0.40000000000E+03 0.  1.
   -9000007    1    1    2    0  503  0.27159628219E+02 -0.55731026611E+03  0.45846806640E+03  0.82554548392E+03  0.40000000000E+03 0.  1.
<mgrwt>
<rscale>  2 0.68653651E+03</rscale>
<asrwt>0</asrwt>
<pdfrwt beam="1">  1       21 0.16796565E+00 0.68653651E+03</pdfrwt>
<pdfrwt beam="2">  1       21 0.68542148E-01 0.68653651E+03</pdfrwt>
<totfact> 0.32178634E+02</totfact>
</mgrwt>
</event>
<event>
 4    1  0.4676529E-002  0.4971343E+03  0.7818608E-02  0.1014530E+00
         21   -1    0    0  503  502  0.00000000000E+00  0.00000000000E+00  0.61613386499E+03  0.61613386499E+03  0.00000000000E+00 0.  1.
         21   -1    0    0  501  503 -0.00000000000E+00 -0.00000000000E+00 -0.59818260482E+03  0.59818260482E+03  0.00000000000E+00 0.  1.
    9000007    1    1    2  501    0  0.28329451036E+02 -0.29383663992E+03 -0.33951335356E+03  0.60200651658E+03  0.40000000000E+03 0.  1.
   -9000007    1    1    2    0  502 -0.28329451036E+02  0.29383663992E+03  0.35746461373E+03  0.61230995323E+03  0.40000000000E+03 0.  1.
<mgrwt>
<rscale>  2 0.49713432E+03</rscale>
<asrwt>0</asrwt>
<pdfrwt beam="1">  1       21 0.94789826E-01 0.49713432E+03</pdfrwt>
<pdfrwt beam="2">  1       21 0.92028093E-01 0.49713432E+03</pdfrwt>
<totfact> 0.77074994E+02</totfact>
</mgrwt>
</event>
<event>
 4    1  0.4676529E-002  0.4099388E+03  0.7818608E-02  0.1040392E+00
         21   -1    0    0  501  502  0.00000000000E+00  0.00000000000E+00  0.75459581921E+02  0.75459581921E+02  0.00000000000E+00 0. -1.
         21   -1    0    0  502  503 -0.00000000000E+00 -0.00000000000E+00 -0.22273252562E+04  0.22273252562E+04  0.00000000000E+00 0. -1.
    9000007    1    1    2  501    0  0.82285873390E+02  0.35761492295E+02 -0.10894555041E+04  0.11640288418E+04  0.40000000000E+03 0. -1.
   -9000007    1    1    2    0  503 -0.82285873390E+02 -0.35761492295E+02 -0.10624101702E+04  0.11387559962E+04  0.40000000000E+03 0. -1.
<mgrwt>
<rscale>  2 0.40993884E+03</rscale>
<asrwt>0</asrwt>
<pdfrwt beam="1">  1       21 0.11609167E-01 0.40993884E+03</pdfrwt>
<pdfrwt beam="2">  1       21 0.34266540E+00 0.40993884E+03</pdfrwt>
<totfact> 0.98019703E+02</totfact>
</mgrwt>
</event>
<event>
 4    1  0.4676529E-002  0.4341029E+03  0.7818608E-02  0.1032572E+00
         21   -1    0    0  501  502  0.00000000000E+00  0.00000000000E+00  0.24452452816E+03  0.24452452816E+03  0.00000000000E+00 0. -1.
         21   -1    0    0  502  503 -0.00000000000E+00 -0.00000000000E+00 -0.77387112660E+03  0.77387112660E+03  0.00000000000E+00 0.  1.
    9000007    1    1    2  501    0  0.15292959406E+03 -0.71118925914E+02 -0.23187463286E+03  0.49214957861E+03  0.40000000000E+03 0.  1.
   -9000007    1    1    2    0  503 -0.15292959406E+03  0.71118925914E+02 -0.29747196558E+03  0.52624607616E+03  0.40000000000E+03 0.  1.
<mgrwt>
<rscale>  2 0.43410294E+03</rscale>
<asrwt>0</asrwt>
<pdfrwt beam="1">  1       21 0.37619158E-01 0.43410294E+03</pdfrwt>
<pdfrwt beam="2">  1       21 0.11905710E+00 0.43410294E+03</pdfrwt>
<totfact> 0.32062123E+03</totfact>
</mgrwt>
</event>
<event>
 4    1  0.4676529E-002  0.4382398E+03  0.7818608E-02  0.1031288E+00
         21   -1    0    0  501  502  0.00000000000E+00  0.00000000000E+00  0.61091569419E+03  0.61091569419E+03  0.00000000000E+00 0. -1.
         21   -1    0    0  502  503 -0.00000000000E+00 -0.00000000000E+00 -0.31437608560E+03  0.31437608560E+03  0.00000000000E+00 0. -1.
    9000007    1    1    2  501    0 -0.16534678250E+03  0.68662750396E+02  0.15014428662E+03  0.46324662824E+03  0.40000000000E+03 0. -1.
   -9000007    1    1    2    0  503  0.16534678250E+03 -0.68662750396E+02  0.14639532197E+03  0.46204515155E+03  0.40000000000E+03 0. -1.
<mgrwt>
<rscale>  2 0.43823981E+03</rscale>
<asrwt>0</asrwt>
<pdfrwt beam="1">  1       21 0.93987030E-01 0.43823981E+03</pdfrwt>
<pdfrwt beam="2">  1       21 0.48365552E-01 0.43823981E+03</pdfrwt>
<totfact> 0.33962228E+03</totfact>
</mgrwt>
</event>
<event>
 4    1  0.4676529E-002  0.4479089E+03  0.7818608E-02  0.1028347E+00
         21   -1    0    0  503  502  0.00000000000E+00  0.00000000000E+00  0.13214471457E+04  0.13214471457E+04  0.00000000000E+00 0.  1.
         21   -1    0    0  501  503 -0.00000000000E+00 -0.00000000000E+00 -0.59708520881E+03  0.59708520881E+03  0.00000000000E+00 0.  1.
    9000007    1    1    2  501    0 -0.28014386609E+02  0.19959346639E+03 -0.46620028820E+03  0.64650217818E+03  0.40000000000E+03 0.  1.
   -9000007    1    1    2    0  502  0.28014386609E+02 -0.19959346639E+03  0.11905622251E+04  0.12720301764E+04  0.40000000000E+03 0.  1.
<mgrwt>
<rscale>  2 0.44790887E+03</rscale>
<asrwt>0</asrwt>
<pdfrwt beam="1">  1       21 0.20329956E+00 0.44790887E+03</pdfrwt>
<pdfrwt beam="2">  1       21 0.91859264E-01 0.44790887E+03</pdfrwt>
<totfact> 0.10210797E+02</totfact>
</mgrwt>
</event>
<event>
 4    1  0.4676529E-002  0.4761533E+03  0.7818608E-02  0.1020198E+00
         21   -1    0    0  501  502  0.00000000000E+00  0.00000000000E+00  0.78717411158E+03  0.78717411158E+03  0.00000000000E+00 0. -1.
         21   -1    0    0  502  503 -0.00000000000E+00 -0.00000000000E+00 -0.37553642983E+03  0.37553642983E+03  0.00000000000E+00 0.  1.
    9000007    1    1    2  501    0  0.66524648457E+02  0.24959245216E+03  0.48646575331E+03  0.68071348611E+03  0.40000000000E+03 0. -1.
   -9000007    1    1    2    0  503 -0.66524648457E+02 -0.24959245216E+03 -0.74828071562E+02  0.48199705531E+03  0.40000000000E+03 0.  1.
<mgrwt>
<rscale>  2 0.47615325E+03</rscale>
<asrwt>0</asrwt>
<pdfrwt beam="1">  1       21 0.12110371E+00 0.47615325E+03</pdfrwt>
<pdfrwt beam="2">  1       21 0.57774835E-01 0.47615325E+03</pdfrwt>
<totfact> 0.12233168E+03</totfact>
</mgrwt>
</event>
<event>
 4    1  0.4676529E-002  0.4048213E+03  0.7818608E-02  0.1042123E+00
         21   -1    0    0  503  502  0.00000000000E+00  0.00000000000E+00  0.13092517120E+03  0.13092517120E+03  0.00000000000E+00 0.  1.
         21   -1    0    0  501  503 -0.00000000000E+00 -0.00000000000E+00 -0.15315314454E+04  0.15315314454E+04  0.00000000000E+00 0.  1.
    9000007    1    1    2  501    0  0.21444787130E+02  0.58484549495E+02 -0.10556054297E+04  0.11305676206E+04  0.40000000000E+03 0.  1.
   -9000007    1    1    2    0  502 -0.21444787130E+02 -0.58484549495E+02 -0.34500084451E+03  0.53188899607E+03  0.40000000000E+03 0.  1.
<mgrwt>
<rscale>  2 0.40482135E+03</rscale>
<asrwt>0</asrwt>
<pdfrwt beam="1">  1       21 0.20142334E-01 0.40482135E+03</pdfrwt>
<pdfrwt beam="2">  1       21 0.23562022E+00 0.40482135E+03</pdfrwt>
<totfact> 0.15677939E+03</totfact>
</mgrwt>
</event>
<event>
 4    1  0.4676529E-002  0.7195238E+03  0.7818608E-02  0.9684414E-01
         21   -1    0    0  501  502  0.00000000000E+00  0.00000000000E+00  0.11647856722E+04  0.11647856722E+04  0.00000000000E+00 0.  1.
         21   -1    0    0  502  503 -0.00000000000E+00 -0.00000000000E+00 -0.47968210198E+03  0.47968210198E+03  0.00000000000E+00 0. -1.
    9000007    1    1    2  501    0  0.58061842491E+03  0.14351544278E+03  0.56531999091E+03  0.91504160003E+03  0.40000000000E+03 0.  1.
   -9000007    1    1    2    0  503 -0.58061842491E+03 -0.14351544278E+03  0.11978357931E+03  0.72942617415E+03  0.40000000000E+03 0. -1.
<mgrwt>
<rscale>  2 0.71952376E+03</rscale>
<asrwt>0</asrwt>
<pdfrwt beam="1">  1       21 0.17919779E+00 0.71952376E+03</pdfrwt>
<pdfrwt beam="2">  1       21 0.73797247E-01 0.71952376E+03</pdfrwt>
<totfact> 0.22270741E+02</totfact>
</mgrwt>
</event>
<event>
 4    1  0.4676529E-002  0.6217251E+03  0.7818608E-02  0.9861331E-01
         21   -1    0    0  503  502  0.00000000000E+00  0.00000000000E+00  0.37600014131E+03  0.37600014131E+03  0.00000000000E+00 0.  1.
         21   -1    0    0  501  503 -0.00000000000E+00 -0.00000000000E+00 -0.10993510173E+04  0.10993510173E+04  0.00000000000E+00 0. -1.
    9000007    1    1    2  501    0  0.30331151367E+03 -0.36680262825E+03 -0.54955727006E+03  0.82979228454E+03  0.40000000000E+03 0. -1.
   -9000007    1    1    2    0  502 -0.30331151367E+03  0.36680262825E+03 -0.17379360592E+03  0.64555887406E+03  0.40000000000E+03 0.  1.
<mgrwt>
<rscale>  2 0.62172505E+03</rscale>
<asrwt>0</asrwt>
<pdfrwt beam="1">  1       21 0.57846175E-01 0.62172505E+03</pdfrwt>
<pdfrwt beam="2">  1       21 0.16913093E+00 0.62172505E+03</pdfrwt>
<totfact> 0.47011754E+02</totfact>
</mgrwt>
</event>
<event>
 4    1  0.4676529E-002  0.4776259E+03  0.7818608E-02  0.1019790E+00
         21   -1    0    0  501  502  0.00000000000E+00  0.00000000000E+00  0.23229837829E+03  0.23229837829E+03  0.00000000000E+00 0. -1.
         21   -1    0    0  502  503 -0.00000000000E+00 -0.00000000000E+00 -0.98224226747E+03  0.98224226747E+03  0.00000000000E+00 0. -1.
    9000007    1    1    2  501    0  0.21569159704E+03 -0.14698179180E+03 -0.36627732907E+03  0.60190164807E+03  0.40000000000E+03 0. -1.
   -9000007    1    1    2    0  503 -0.21569159704E+03  0.14698179180E+03 -0.38366656011E+03  0.61263899770E+03  0.40000000000E+03 0. -1.
<mgrwt>
<rscale>  2 0.47762591E+03</rscale>
<asrwt>0</asrwt>
<pdfrwt beam="1">  1       21 0.35738211E-01 0.47762591E+03</pdfrwt>
<pdfrwt beam="2">  1       21 0.15111420E+00 0.47762591E+03</pdfrwt>
<totfact> 0.18719904E+03</totfact>
</mgrwt>
</event>
<event>
 4    1  0.4676529E-002  0.4687333E+03  0.7818608E-02  0.1022278E+00
         21   -1    0    0  501  502  0.00000000000E+00  0.00000000000E+00  0.18770767295E+04  0.18770767295E+04  0.00000000000E+00 0.  1.
         21   -1    0    0  502  503 -0.00000000000E+00 -0.00000000000E+00 -0.11951091381E+03  0.11951091381E+03  0.00000000000E+00 0.  1.
    9000007    1    1    2  501    0  0.96420041372E+02  0.22453090698E+03  0.10220492261E+04  0.11244089883E+04  0.40000000000E+03 0.  1.
   -9000007    1    1    2    0  503 -0.96420041372E+02 -0.22453090698E+03  0.73551658961E+03  0.87217865496E+03  0.40000000000E+03 0.  1.
<mgrwt>
<rscale>  2 0.46873335E+03</rscale>
<asrwt>0</asrwt>
<pdfrwt beam="1">  1       21 0.28878101E+00 0.46873335E+03</pdfrwt>
<pdfrwt beam="2">  1       21 0.18386296E-01 0.46873335E+03</pdfrwt>
<totfact> 0.85583210E+02</totfact>
</mgrwt>
</event>
<event>
 4    1  0.4676529E-002  0.4138603E+03  0.7818608E-02  0.1039083E+00
         21   -1    0    0  501  502  0.00000000000E+00  0.00000000000E+00  0.27584066472E+03  0.27584066472E+03  0.00000000000E+00 0.  1.
         21   -1    0    0  502  503 -0.00000000000E+00 -0.00000000000E+00 -0.98818801000E+03  0.98818801000E+03  0.00000000000E+00 0.  1.
    9000007    1    1    2  501    0  0.95554788528E+02  0.46364223393E+02  0.29115827303E+02  0.41488322480E+03  0.40000000000E+03 0.  1.
   -9000007    1    1    2    0  503 -0.95554788528E+02 -0.46364223393E+02 -0.74146317258E+03  0.84914544992E+03  0.40000000000E+03 0.  1.
<mgrwt>
<rscale>  2 0.41386031E+03</rscale>
<asrwt>0</asrwt>
<pdfrwt beam="1">  1       21 0.42437025E-01 0.41386031E+03</pdfrwt>
<pdfrwt beam="2">  1       21 0.15202893E+00 0.41386031E+03</pdfrwt>
<totfact> 0.13288965E+03</totfact>
</mgrwt>
</event>
<event>
 4    1  0.4676529E-002  0.5148254E+03  0.7818608E-02  0.1009980E+00
         21   -1    0    0  501  502  0.00000000000E+00  0.00000000000E+00  0.11516540876E+04  0.11516540876E+04  0.00000000000E+00 0. -1.
         21   -1    0    0  502  503 -0.00000000000E+00 -0.00000000000E+00 -0.26486719050E+03  0.26486719050E+03  0.00000000000E+00 0.  1.
    9000007    1    1    2  501    0  0.25164691126E+03 -0.20425233133E+03  0.18694812439E+03  0.54771779596E+03  0.40000000000E+03 0.  1.
   -9000007    1    1    2    0  503 -0.25164691126E+03  0.20425233133E+03  0.69983877275E+03  0.86880348217E+03  0.40000000000E+03 0. -1.
<mgrwt>
<rscale>  2 0.51482539E+03</rscale>
<asrwt>0</asrwt>
<pdfrwt beam="1">  1       21 0.17717755E+00 0.51482539E+03</pdfrwt>
<pdfrwt beam="2">  1       21 0.40748799E-01 0.51482539E+03</pdfrwt>
<totfact> 0.90049496E+02</totfact>
</mgrwt>
</event>
<event>
 4    1  0.4676529E-002  0.5627631E+03  0.7818608E-02  0.9985822E-01
         21   -1    0    0  501  502  0.00000000000E+00  0.00000000000E+00  0.21933761841E+03  0.21933761841E+03  0.00000000000E+00 0. -1.
         21   -1    0    0  502  503 -0.00000000000E+00 -0.00000000000E+00 -0.16438559349E+04  0.16438559349E+04  0.00000000000E+00 0. -1.
    9000007    1    1    2  501    0  0.33741409030E+02  0.39441575844E+03 -0.38735157082E+03  0.68318629422E+03  0.40000000000E+03 0. -1.
   -9000007    1    1    2    0  503 -0.33741409030E+02 -0.39441575844E+03 -0.10371667457E+04  0.11800072591E+04  0.40000000000E+03 0. -1.
<mgrwt>
<rscale>  2 0.56276307E+03</rscale>
<asrwt>0</asrwt>
<pdfrwt beam="1">  1       21 0.33744250E-01 0.56276307E+03</pdfrwt>
<pdfrwt beam="2">  1       21 0.25290090E+00 0.56276307E+03</pdfrwt>
<totfact> 0.41405317E+02</totfact>
</mgrwt>
</event>
<event>
 4    1  0.4676529E-002  0.4147310E+03  0.7818608E-02  0.1038795E+00
         21   -1    0    0  503  502  0.00000000000E+00  0.00000000000E+00  0.17268190451E+03  0.17268190451E+03  0.00000000000E+00 0. -1.
         21   -1    0    0  501  503 -0.00000000000E+00 -0.00000000000E+00 -0.99919160302E+03  0.99919160302E+03  0.00000000000E+00 0. -1.
    9000007    1    1    2  501    0 -0.35879259765E+01 -0.10949382319E+03 -0.44605049871E+03  0.60906717029E+03  0.40000000000E+03 0. -1.
   -9000007    1    1    2    0  502  0.35879259765E+01  0.10949382319E+03 -0.38045919980E+03  0.56280633725E+03  0.40000000000E+03 0. -1.
<mgrwt>
<rscale>  2 0.41473096E+03</rscale>
<asrwt>0</asrwt>
<pdfrwt beam="1">  1       21 0.26566447E-01 0.41473096E+03</pdfrwt>
<pdfrwt beam="2">  1       21 0.15372178E+00 0.41473096E+03</pdfrwt>
<totfact> 0.33069179E+03</totfact>
</mgrwt>
</event>
<event>
 4    1  0.4676529E-002  0.4308443E+03  0.7818608E-02  0.1033594E+00
         21   -1    0    0  503  502  0.00000000000E+00  0.00000000000E+00  0.16101353838E+04  0.16101353838E+04  0.00000000000E+00 0. -1.
         21   -1    0    0  501  503 -0.00000000000E+00 -0.00000000000E+00 -0.13248856025E+03  0.13248856025E+03  0.00000000000E+00 0. -1.
    9000007    1    1    2  501    0  0.98770783397E+02 -0.12598082545E+03  0.42486291148E+03  0.60509117461E+03  0.40000000000E+03 0. -1.
   -9000007    1    1    2    0  502 -0.98770783397E+02  0.12598082545E+03  0.10527839120E+04  0.11375327694E+04  0.40000000000E+03 0. -1.
<mgrwt>
<rscale>  2 0.43084433E+03</rscale>
<asrwt>0</asrwt>
<pdfrwt beam="1">  1       21 0.24771312E+00 0.43084433E+03</pdfrwt>
<pdfrwt beam="2">  1       21 0.20382857E-01 0.43084433E+03</pdfrwt>
<totfact> 0.12736087E+03</totfact>
</mgrwt>
</event>
<event>
 4    1  0.4676529E-002  0.5344570E+03  0.7818608E-02  0.1005157E+00
         21   -1    0    0  501  502  0.00000000000E+00  0.00000000000E+00  0.49132923666E+03  0.49132923666E+03  0.00000000000E+00 0.  1.
         21   -1    0    0  502  503 -0.00000000000E+00 -0.00000000000E+00 -0.60076247581E+03  0.60076247581E+03  0.00000000000E+00 0. -1.
    9000007    1    1    2  501    0 -0.22589083139E+03 -0.27316215808E+03 -0.15282155043E+03  0.55587647782E+03  0.40000000000E+03 0.  1.
   -9000007    1    1    2    0  503  0.22589083139E+03  0.27316215808E+03  0.43388311281E+02  0.53621523465E+03  0.40000000000E+03 0.  1.
<mgrwt>
<rscale>  2 0.53445695E+03</rscale>
<asrwt>0</asrwt>
<pdfrwt beam="1">  1       21 0.75589113E-01 0.53445695E+03</pdfrwt>
<pdfrwt beam="2">  1       21 0.92424997E-01 0.53445695E+03</pdfrwt>
<totfact> 0.12804545E+03</totfact>
</mgrwt>
</event>
<event>
 4    1  0.4676529E-002  0.4064446E+03  0.7818608E-02  0.1041571E+00
         21   -1    0    0  501  502  0.00000000000E+00  0.00000000000E+00  0.15116580457E+03  0.15116580457E+03  0.00000000000E+00 0. -1.
         21   -1    0    0  502  503 -0.00000000000E+00 -0.00000000000E+00 -0.12351666340E+04  0.12351666340E+04  0.00000000000E+00 0. -1.
    9000007    1    1    2  501    0  0.43118254604E+02 -0.57775487933E+02 -0.30668713576E+03  0.50917009940E+03  0.40000000000E+03 0. -1.
   -9000007    1    1    2    0  503 -0.43118254604E+02  0.57775487933E+02 -0.77731369364E+03  0.87716233914E+03  0.40000000000E+03 0. -1.
<mgrwt>
<rscale>  2 0.40644457E+03</rscale>
<asrwt>0</asrwt>
<pdfrwt beam="1">  1       21 0.23256279E-01 0.40644457E+03</pdfrwt>
<pdfrwt beam="2">  1       21 0.19002563E+00 0.40644457E+03</pdfrwt>
<totfact> 0.23477063E+03</totfact>
</mgrwt>
</event>
<event>
 4    1  0.4676529E-002  0.5562707E+03  0.7818608E-02  0.1000053E+00
         21   -1    0    0  501  502  0.00000000000E+00  0.00000000000E+00  0.32725560735E+03  0.32725560735E+03  0.00000000000E+00 0.  1.
         21   -1    0    0  502  503 -0.00000000000E+00 -0.00000000000E+00 -0.13054205149E+04  0.13054205149E+04  0.00000000000E+00 0.  1.
    9000007    1    1    2  501    0  0.38052094191E+03 -0.68124568191E+02 -0.91769694177E+03  0.10731285202E+04  0.40000000000E+03 0.  1.
   -9000007    1    1    2    0  503 -0.38052094191E+03  0.68124568191E+02 -0.60467965781E+02  0.55954760201E+03  0.40000000000E+03 0.  1.
<mgrwt>
<rscale>  2 0.55627075E+03</rscale>
<asrwt>0</asrwt>
<pdfrwt beam="1">  1       21 0.50347017E-01 0.55627075E+03</pdfrwt>
<pdfrwt beam="2">  1       21 0.20083392E+00 0.55627075E+03</pdfrwt>
<totfact> 0.38941381E+02</totfact>
</mgrwt>
</event>
<event>
 4    1  0.4676529E-002  0.7008192E+03  0.7818608E-02  0.9715832E-01
         21   -1    0    0  501  502  0.00000000000E+00  0.00000000000E+00  0.11652915528E+04  0.11652915528E+04  0.00000000000E+00 0.  1.
         21   -1    0    0  502  503 -0.00000000000E+00 -0.00000000000E+00 -0.50462019024E+03  0.50462019024E+03  0.00000000000E+00 0. -1.
    9000007    1    1    2  501    0 -0.10250685488E+03 -0.56625077307E+03  0.66924661206E+03  0.96904005131E+03  0.40000000000E+03 0.  1.
   -9000007    1    1    2    0  503  0.10250685488E+03  0.56625077307E+03 -0.85752495366E+01  0.70087169168E+03  0.40000000000E+03 0. -1.
<mgrwt>
<rscale>  2 0.70081923E+03</rscale>
<asrwt>0</asrwt>
<pdfrwt beam="1">  1       21 0.17927562E+00 0.70081923E+03</pdfrwt>
<pdfrwt beam="2">  1       21 0.77633876E-01 0.70081923E+03</pdfrwt>
<totfact> 0.19904757E+02</totfact>
</mgrwt>
</event>
<event>
 4    1  0.4676529E-002  0.4233678E+03  0.7818608E-02  0.1035976E+00
         21   -1    0    0  501  502  0.00000000000E+00  0.00000000000E+00  0.44998541215E+03  0.44998541215E+03  0.00000000000E+00 0. -1.
         21   -1    0    0  502  503 -0.00000000000E+00 -0.00000000000E+00 -0.46978341596E+03  0.46978341596E+03  0.00000000000E+00 0. -1.
    9000007    1    1    2  501    0 -0.26822559310E+02 -0.13609140108E+03  0.16946172456E+03  0.45602367836E+03  0.40000000000E+03 0. -1.
   -9000007    1    1    2    0  503  0.26822559310E+02  0.13609140108E+03 -0.18925972838E+03  0.46374514975E+03  0.40000000000E+03 0. -1.
<mgrwt>
<rscale>  2 0.42336783E+03</rscale>
<asrwt>0</asrwt>
<pdfrwt beam="1">  1       21 0.69228525E-01 0.42336783E+03</pdfrwt>
<pdfrwt beam="2">  1       21 0.72274372E-01 0.42336783E+03</pdfrwt>
<totfact> 0.28797281E+03</totfact>
</mgrwt>
</event>
<event>
 4    1  0.4676529E-002  0.5679377E+03  0.7818608E-02  0.9974253E-01
         21   -1    0    0  503  502  0.00000000000E+00  0.00000000000E+00  0.10372805364E+04  0.10372805364E+04  0.00000000000E+00 0. -1.
         21   -1    0    0  501  503 -0.00000000000E+00 -0.00000000000E+00 -0.31423984001E+03  0.31423984001E+03  0.00000000000E+00 0. -1.
    9000007    1    1    2  501    0  0.11623329207E+03 -0.38606088071E+03  0.29248665547E+03  0.63882832235E+03  0.40000000000E+03 0. -1.
   -9000007    1    1    2    0  502 -0.11623329207E+03  0.38606088071E+03  0.43055404097E+03  0.71269205411E+03  0.40000000000E+03 0. -1.
<mgrwt>
<rscale>  2 0.56793766E+03</rscale>
<asrwt>0</asrwt>
<pdfrwt beam="1">  1       21 0.15958162E+00 0.56793766E+03</pdfrwt>
<pdfrwt beam="2">  1       21 0.48344591E-01 0.56793766E+03</pdfrwt>
<totfact> 0.83185839E+02</totfact>
</mgrwt>
</event>
<event>
 4    1  0.4676529E-002  0.4701025E+03  0.7818608E-02  0.1021891E+00
         21   -1    0    0  501  502  0.00000000000E+00  0.00000000000E+00  0.74882146581E+03  0.74882146581E+03  0.00000000000E+00 0. -1.
         21   -1    0    0  502  503 -0.00000000000E+00 -0.00000000000E+00 -0.30569894265E+03  0.30569894265E+03  0.00000000000E+00 0. -1.
    9000007    1    1    2  501    0 -0.24691420136E+03 -0.54540568679E+01  0.31961961247E+03  0.56846553655E+03  0.40000000000E+03 0. -1.
   -9000007    1    1    2    0  503  0.24691420136E+03  0.54540568679E+01  0.12350291069E+03  0.48605487192E+03  0.40000000000E+03 0. -1.
<mgrwt>
<rscale>  2 0.47010251E+03</rscale>
<asrwt>0</asrwt>
<pdfrwt beam="1">  1       21 0.11520330E+00 0.47010251E+03</pdfrwt>
<pdfrwt beam="2">  1       21 0.47030607E-01 0.47010251E+03</pdfrwt>
<totfact> 0.21624056E+03</totfact>
</mgrwt>
</event>
<event>
 4    1  0.4676529E-002  0.4967562E+03  0.7818608E-02  0.1014629E+00
         21   -1    0    0  501  502  0.00000000000E+00  0.00000000000E+00  0.79494625762E+03  0.79494625762E+03  0.00000000000E+00 0. -1.
         21   -1    0    0  502  503 -0.00000000000E+00 -0.00000000000E+00 -0.45145141286E+03  0.45145141286E+03  0.00000000000E+00 0.  1.
    9000007    1    1    2  501    0  0.29327132167E+03 -0.27543434877E+02  0.52006872651E+03  0.71919273440E+03  0.40000000000E+03 0. -1.
   -9000007    1    1    2    0  503 -0.29327132167E+03  0.27543434877E+02 -0.17657388174E+03  0.52720493609E+03  0.40000000000E+03 0.  1.
<mgrwt>
<rscale>  2 0.49675619E+03</rscale>
<asrwt>0</asrwt>
<pdfrwt beam="1">  1       21 0.12229942E+00 0.49675619E+03</pdfrwt>
<pdfrwt beam="2">  1       21 0.69454064E-01 0.49675619E+03</pdfrwt>
<totfact> 0.78685409E+02</totfact>
</mgrwt>
</event>
<event>
 4    1  0.4676529E-002  0.4888998E+03  0.7818608E-02  0.1016718E+00
         21   -1    0    0  501  502  0.00000000000E+00  0.00000000000E+00  0.69083634900E+03  0.69083634900E+03  0.00000000000E+00 0. -1.
         21   -1    0    0  502  503 -0.00000000000E+00 -0.00000000000E+00 -0.58769786273E+03  0.58769786273E+03  0.00000000000E+00 0.  1.
    9000007    1    1    2  501    0 -0.28144361627E+02 -0.27969796828E+03  0.46153720979E+03  0.67233894322E+03  0.40000000000E+03 0. -1.
   -9000007    1    1    2    0  503  0.28144361627E+02  0.27969796828E+03 -0.35839872351E+03  0.60619526851E+03  0.40000000000E+03 0.  1.
<mgrwt>
<rscale>  2 0.48889985E+03</rscale>
<asrwt>0</asrwt>
<pdfrwt beam="1">  1       21 0.10628251E+00 0.48889985E+03</pdfrwt>
<pdfrwt beam="2">  1       21 0.90415056E-01 0.48889985E+03</pdfrwt>
<totfact> 0.61011711E+02</totfact>
</mgrwt>
</event>
<event>
 4    1  0.4676529E-002  0.4589360E+03  0.7818608E-02  0.1025090E+00
         21   -1    0    0  503  502  0.00000000000E+00  0.00000000000E+00  0.12959071668E+04  0.12959071668E+04  0.00000000000E+00 0. -1.
         21   -1    0    0  501  503 -0.00000000000E+00 -0.00000000000E+00 -0.27352312961E+03  0.27352312961E+03  0.00000000000E+00 0. -1.
    9000007    1    1    2  501    0  0.18736403769E+03  0.12456725703E+03  0.11312511939E+02  0.45907543723E+03  0.40000000000E+03 0. -1.
   -9000007    1    1    2    0  502 -0.18736403769E+03 -0.12456725703E+03  0.10110715253E+04  0.11103548592E+04  0.40000000000E+03 0. -1.
<mgrwt>
<rscale>  2 0.45893603E+03</rscale>
<asrwt>0</asrwt>
<pdfrwt beam="1">  1       21 0.19937033E+00 0.45893603E+03</pdfrwt>
<pdfrwt beam="2">  1       21 0.42080482E-01 0.45893603E+03</pdfrwt>
<totfact> 0.60632272E+02</totfact>
</mgrwt>
</event>
<event>
 4    1  0.4676529E-002  0.4355041E+03  0.7818608E-02  0.1032135E+00
         21   -1    0    0  501  502  0.00000000000E+00  0.00000000000E+00  0.13548756268E+03  0.13548756268E+03  0.00000000000E+00 0.  1.
         21   -1    0    0  502  503 -0.00000000000E+00 -0.00000000000E+00 -0.15358667715E+04  0.15358667715E+04  0.00000000000E+00 0.  1.
    9000007    1    1    2  501    0 -0.17031897392E+03 -0.25598172360E+02 -0.45151028209E+03  0.62731599225E+03  0.40000000000E+03 0.  1.
   -9000007    1    1    2    0  503  0.17031897392E+03  0.25598172360E+02 -0.94886892677E+03  0.10440383420E+04  0.40000000000E+03 0.  1.
<mgrwt>
<rscale>  2 0.43550410E+03</rscale>
<asrwt>0</asrwt>
<pdfrwt beam="1">  1       21 0.20844240E-01 0.43550410E+03</pdfrwt>
<pdfrwt beam="2">  1       21 0.23628720E+00 0.43550410E+03</pdfrwt>
<totfact> 0.14326102E+03</totfact>
</mgrwt>
</event>
<event>
 4    1  0.4676529E-002  0.4231711E+03  0.7818608E-02  0.1036039E+00
         21   -1    0    0  501  502  0.00000000000E+00  0.00000000000E+00  0.38651619815E+03  0.38651619815E+03  0.00000000000E+00 0. -1.
         21   -1    0    0  502  503 -0.00000000000E+00 -0.00000000000E+00 -0.48379878649E+03  0.48379878649E+03  0.00000000000E+00 0. -1.
    9000007    1    1    2  501    0  0.13802547169E+03  0.47652664497E+01  0.40927487348E+02  0.42514561955E+03  0.40000000000E+03 0. -1.
   -9000007    1    1    2    0  503 -0.13802547169E+03 -0.47652664497E+01 -0.13821007569E+03  0.44516936510E+03  0.40000000000E+03 0. -1.
<mgrwt>
<rscale>  2 0.42317105E+03</rscale>
<asrwt>0</asrwt>
<pdfrwt beam="1">  1       21 0.59464030E-01 0.42317105E+03</pdfrwt>
<pdfrwt beam="2">  1       21 0.74430583E-01 0.42317105E+03</pdfrwt>
<totfact> 0.37725880E+03</totfact>
</mgrwt>
</event>
<event>
 4    1  0.4676529E-002  0.6234878E+03  0.7818608E-02  0.9857840E-01
         21   -1    0    0  503  502  0.00000000000E+00  0.00000000000E+00  0.26127571156E+03  0.26127571156E+03  0.00000000000E+00 0.  1.
         21   -1    0    0  501  503 -0.00000000000E+00 -0.00000000000E+00 -0.14885071473E+04  0.14885071473E+04  0.00000000000E+00 0.  1.
    9000007    1    1    2  501    0  0.47783738702E+03  0.20211088507E+02 -0.59512565040E+03  0.86192319629E+03  0.40000000000E+03 0.  1.
   -9000007    1    1    2    0  502 -0.47783738702E+03 -0.20211088507E+02 -0.63210578530E+03  0.88785966253E+03  0.40000000000E+03 0.  1.
<mgrwt>
<rscale>  2 0.62348782E+03</rscale>
<asrwt>0</asrwt>
<pdfrwt beam="1">  1       21 0.40196262E-01 0.62348782E+03</pdfrwt>
<pdfrwt beam="2">  1       21 0.22900110E+00 0.62348782E+03</pdfrwt>
<totfact> 0.39917169E+02</totfact>
</mgrwt>
</event>
<event>
 4    1  0.4676529E-002  0.4631999E+03  0.7818608E-02  0.1023857E+00
         21   -1    0    0  501  502  0.00000000000E+00  0.00000000000E+00  0.96989539633E+03  0.96989539633E+03  0.00000000000E+00 0.  1.
         21   -1    0    0  502  503 -0.00000000000E+00 -0.00000000000E+00 -0.33217978148E+03  0.33217978148E+03  0.00000000000E+00 0.  1.
    9000007    1    1    2  501    0  0.22703416224E+03 -0.54860363197E+02  0.69514076526E+03  0.83532918888E+03  0.40000000000E+03 0.  1.
   -9000007    1    1    2    0  503 -0.22703416224E+03  0.54860363197E+02 -0.57425150410E+02  0.46674598892E+03  0.40000000000E+03 0.  1.
<mgrwt>
<rscale>  2 0.46319992E+03</rscale>
<asrwt>0</asrwt>
<pdfrwt beam="1">  1       21 0.14921467E+00 0.46319992E+03</pdfrwt>
<pdfrwt beam="2">  1       21 0.51104582E-01 0.46319992E+03</pdfrwt>
<totfact> 0.92546271E+02</totfact>
</mgrwt>
</event>
<event>
 4    1  0.4676529E-002  0.4801017E+03  0.7818608E-02  0.1019107E+00
         21   -1    0    0  501  502  0.00000000000E+00  0.00000000000E+00  0.86385484064E+03  0.86385484064E+03  0.00000000000E+00 0. -1.
         21   -1    0    0  502  503 -0.00000000000E+00 -0.00000000000E+00 -0.67119681515E+03  0.67119681515E+03  0.00000000000E+00 0. -1.
    9000007    1    1    2  501    0  0.19593948203E+03 -0.17917963789E+03  0.69207176896E+03  0.84229505320E+03  0.40000000000E+03 0. -1.
   -9000007    1    1    2    0  503 -0.19593948203E+03  0.17917963789E+03 -0.49941374347E+03  0.69275660258E+03  0.40000000000E+03 0. -1.
<mgrwt>
<rscale>  2 0.48010168E+03</rscale>
<asrwt>0</asrwt>
<pdfrwt beam="1">  1       21 0.13290075E+00 0.48010168E+03</pdfrwt>
<pdfrwt beam="2">  1       21 0.10326105E+00 0.48010168E+03</pdfrwt>
<totfact> 0.25199400E+02</totfact>
</mgrwt>
</event>
<event>
 4    1  0.4676529E-002  0.4289164E+03  0.7818608E-02  0.1034203E+00
         21   -1    0    0  501  502  0.00000000000E+00  0.00000000000E+00  0.16841864301E+04  0.16841864301E+04  0.00000000000E+00 0. -1.
         21   -1    0    0  502  503 -0.00000000000E+00 -0.00000000000E+00 -0.53044093923E+03  0.53044093923E+03  0.00000000000E+00 0.  1.
    9000007    1    1    2  501    0 -0.15410288112E+03  0.14884297809E+02  0.15636071463E+04  0.16213687268E+04  0.40000000000E+03 0. -1.
   -9000007    1    1    2    0  503  0.15410288112E+03 -0.14884297809E+02 -0.40986165545E+03  0.59325864250E+03  0.40000000000E+03 0.  1.
<mgrwt>
<rscale>  2 0.42891636E+03</rscale>
<asrwt>0</asrwt>
<pdfrwt beam="1">  1       21 0.25910560E+00 0.42891636E+03</pdfrwt>
<pdfrwt beam="2">  1       21 0.81606299E-01 0.42891636E+03</pdfrwt>
<totfact> 0.60725647E+01</totfact>
</mgrwt>
</event>
<event>
 4    1  0.4676529E-002  0.4578324E+03  0.7818608E-02  0.1025412E+00
         21   -1    0    0  503  502  0.00000000000E+00  0.00000000000E+00  0.12843574752E+04  0.12843574752E+04  0.00000000000E+00 0.  1.
         21   -1    0    0  501  503 -0.00000000000E+00 -0.00000000000E+00 -0.45308792293E+03  0.45308792293E+03  0.00000000000E+00 0.  1.
    9000007    1    1    2  501    0  0.13062606055E+03 -0.18040885432E+03 -0.27923434834E+03  0.53626704514E+03  0.40000000000E+03 0.  1.
   -9000007    1    1    2    0  502 -0.13062606055E+03  0.18040885432E+03  0.11105039006E+04  0.12011783530E+04  0.40000000000E+03 0.  1.
<mgrwt>
<rscale>  2 0.45783242E+03</rscale>
<asrwt>0</asrwt>
<pdfrwt beam="1">  1       21 0.19759346E+00 0.45783242E+03</pdfrwt>
<pdfrwt beam="2">  1       21 0.69705835E-01 0.45783242E+03</pdfrwt>
<totfact> 0.20982119E+02</totfact>
</mgrwt>
</event>
<event>
 4    1  0.4676529E-002  0.4232025E+03  0.7818608E-02  0.1036029E+00
         21   -1    0    0  501  502  0.00000000000E+00  0.00000000000E+00  0.17168601367E+03  0.17168601367E+03  0.00000000000E+00 0.  1.
         21   -1    0    0  502  503 -0.00000000000E+00 -0.00000000000E+00 -0.13003995331E+04  0.13003995331E+04  0.00000000000E+00 0.  1.
    9000007    1    1    2  501    0 -0.39704512237E+02  0.13237777649E+03 -0.23700690140E+03  0.48504906485E+03  0.40000000000E+03 0.  1.
   -9000007    1    1    2    0  503  0.39704512237E+02 -0.13237777649E+03 -0.89170661806E+03  0.98703648195E+03  0.40000000000E+03 0.  1.
<mgrwt>
<rscale>  2 0.42320246E+03</rscale>
<asrwt>0</asrwt>
<pdfrwt beam="1">  1       21 0.26413233E-01 0.42320246E+03</pdfrwt>
<pdfrwt beam="2">  1       21 0.20006146E+00 0.42320246E+03</pdfrwt>
<totfact> 0.15574476E+03</totfact>
</mgrwt>
</event>
<event>
 4    1  0.4676529E-002  0.6020845E+03  0.7818608E-02  0.9901091E-01
         21   -1    0    0  503  502  0.00000000000E+00  0.00000000000E+00  0.76837669068E+03  0.76837669068E+03  0.00000000000E+00 0. -1.
         21   -1    0    0  501  503 -0.00000000000E+00 -0.00000000000E+00 -0.47477553888E+03  0.47477553888E+03  0.00000000000E+00 0. -1.
    9000007    1    1    2  501    0 -0.35329190684E+03 -0.27873026718E+03  0.97438282428E+02  0.60991798806E+03  0.40000000000E+03 0. -1.
   -9000007    1    1    2    0  502  0.35329190684E+03  0.27873026718E+03  0.19616286937E+03  0.63323424149E+03  0.40000000000E+03 0. -1.
<mgrwt>
<rscale>  2 0.60208449E+03</rscale>
<asrwt>0</asrwt>
<pdfrwt beam="1">  1       21 0.11821180E+00 0.60208449E+03</pdfrwt>
<pdfrwt beam="2">  1       21 0.73042391E-01 0.60208449E+03</pdfrwt>
<totfact> 0.73816405E+02</totfact>
</mgrwt>
</event>
<event>
 4    1  0.4676529E-002  0.4040784E+03  0.7818608E-02  0.1042377E+00
         21   -1    0    0  503  502  0.00000000000E+00  0.00000000000E+00  0.80810182927E+03  0.80810182927E+03  0.00000000000E+00 0. -1.
         21   -1    0    0  501  503 -0.00000000000E+00 -0.00000000000E+00 -0.57272005171E+03  0.57272005171E+03  0.00000000000E+00 0. -1.
    9000007    1    1    2  501    0 -0.10798708487E+02  0.56238351365E+02 -0.43773802941E+03  0.59572975975E+03  0.40000000000E+03 0. -1.
   -9000007    1    1    2    0  502  0.10798708487E+02 -0.56238351365E+02  0.67311980697E+03  0.78509212122E+03  0.40000000000E+03 0. -1.
<mgrwt>
<rscale>  2 0.40407841E+03</rscale>
<asrwt>0</asrwt>
<pdfrwt beam="1">  1       21 0.12432336E+00 0.40407841E+03</pdfrwt>
<pdfrwt beam="2">  1       21 0.88110777E-01 0.40407841E+03</pdfrwt>
<totfact> 0.45485099E+02</totfact>
</mgrwt>
</event>
<event>
 4    1  0.4676529E-002  0.5472680E+03  0.7818608E-02  0.1002128E+00
         21   -1    0    0  501  502  0.00000000000E+00  0.00000000000E+00  0.52267599062E+03  0.52267599062E+03  0.00000000000E+00 0. -1.
         21   -1    0    0  502  503 -0.00000000000E+00 -0.00000000000E+00 -0.69924812114E+03  0.69924812114E+03  0.00000000000E+00 0.  1.
    9000007    1    1    2  501    0  0.87905249623E+02  0.36300818579E+03  0.17130016256E+03  0.57345097572E+03  0.40000000000E+03 0. -1.
   -9000007    1    1    2    0  503 -0.87905249623E+02 -0.36300818579E+03 -0.34787229309E+03  0.64847313604E+03  0.40000000000E+03 0.  1.
<mgrwt>
<rscale>  2 0.54726801E+03</rscale>
<asrwt>0</asrwt>
<pdfrwt beam="1">  1       21 0.80411691E-01 0.54726801E+03</pdfrwt>
<pdfrwt beam="2">  1       21 0.10757663E+00 0.54726801E+03</pdfrwt>
<totfact> 0.76315437E+02</totfact>
</mgrwt>
</event>
<event>
 4    1  0.4676529E-002  0.4808116E+03  0.7818608E-02  0.1018912E+00
         21   -1    0    0  501  502  0.00000000000E+00  0.00000000000E+00  0.46487469321E+03  0.46487469321E+03  0.00000000000E+00 0.  1.
         21   -1    0    0  502  503 -0.00000000000E+00 -0.00000000000E+00 -0.63423963055E+03  0.63423963055E+03  0.00000000000E+00 0.  1.
    9000007    1    1    2  501    0  0.22669158214E+03 -0.14067947609E+03  0.17068109753E+03  0.51020762975E+03  0.40000000000E+03 0.  1.
   -9000007    1    1    2    0  503 -0.22669158214E+03  0.14067947609E+03 -0.34004603487E+03  0.58890669400E+03  0.40000000000E+03 0.  1.
<mgrwt>
<rscale>  2 0.48081159E+03</rscale>
<asrwt>0</asrwt>
<pdfrwt beam="1">  1       21 0.71519184E-01 0.48081159E+03</pdfrwt>
<pdfrwt beam="2">  1       21 0.97575327E-01 0.48081159E+03</pdfrwt>
<totfact> 0.12991640E+03</totfact>
</mgrwt>
</event>
<event>
 4    1  0.4676529E-002  0.4357900E+03  0.7818608E-02  0.1032046E+00
         21   -1    0    0  501  502  0.00000000000E+00  0.00000000000E+00  0.61759238169E+03  0.61759238169E+03  0.00000000000E+00 0.  1.
         21   -1    0    0  502  503 -0.00000000000E+00 -0.00000000000E+00 -0.76404242201E+03  0.76404242201E+03  0.00000000000E+00 0. -1.
    9000007    1    1    2  501    0  0.11090563288E+03  0.13271331380E+03  0.46077665287E+03  0.63421448020E+03  0.40000000000E+03 0.  1.
   -9000007    1    1    2    0  503 -0.11090563288E+03 -0.13271331380E+03 -0.60722669319E+03  0.74742032350E+03  0.40000000000E+03 0. -1.
<mgrwt>
<rscale>  2 0.43578995E+03</rscale>
<asrwt>0</asrwt>
<pdfrwt beam="1">  1       21 0.95014212E-01 0.43578995E+03</pdfrwt>
<pdfrwt beam="2">  1       21 0.11754499E+00 0.43578995E+03</pdfrwt>
<totfact> 0.43177272E+02</totfact>
</mgrwt>
</event>
<event>
 4    1  0.4676529E-002  0.4967000E+03  0.7818608E-02  0.1014644E+00
         21   -1    0    0  501  502  0.00000000000E+00  0.00000000000E+00  0.18251936275E+03  0.18251936275E+03  0.00000000000E+00 0.  1.
         21   -1    0    0  502  503 -0.00000000000E+00 -0.00000000000E+00 -0.14539054630E+04  0.14539054630E+04  0.00000000000E+00 0.  1.
    9000007    1    1    2  501    0  0.51953794824E+02 -0.28984762147E+03 -0.41875196354E+03  0.64966456532E+03  0.40000000000E+03 0.  1.
   -9000007    1    1    2    0  503 -0.51953794824E+02  0.28984762147E+03 -0.85263413671E+03  0.98676026042E+03  0.40000000000E+03 0.  1.
<mgrwt>
<rscale>  2 0.49669995E+03</rscale>
<asrwt>0</asrwt>
<pdfrwt beam="1">  1       21 0.28079902E-01 0.49669995E+03</pdfrwt>
<pdfrwt beam="2">  1       21 0.22367776E+00 0.49669995E+03</pdfrwt>
<totfact> 0.93786932E+02</totfact>
</mgrwt>
</event>
<event>
 4    1  0.4676529E-002  0.4841147E+03  0.7818608E-02  0.1018010E+00
         21   -1    0    0  503  502  0.00000000000E+00  0.00000000000E+00  0.20723650971E+04  0.20723650971E+04  0.00000000000E+00 0.  1.
         21   -1    0    0  501  503 -0.00000000000E+00 -0.00000000000E+00 -0.14856241681E+03  0.14856241681E+03  0.00000000000E+00 0. -1.
    9000007    1    1    2  501    0 -0.27007302941E+03 -0.37783664129E+02  0.41929405786E+03  0.64044871258E+03  0.40000000000E+03 0.  1.
   -9000007    1    1    2    0  502  0.27007302941E+03  0.37783664129E+02  0.15045086224E+04  0.15804788013E+04  0.40000000000E+03 0.  1.
<mgrwt>
<rscale>  2 0.48411470E+03</rscale>
<asrwt>0</asrwt>
<pdfrwt beam="1">  1       21 0.31882538E+00 0.48411470E+03</pdfrwt>
<pdfrwt beam="2">  1       21 0.22855758E-01 0.48411470E+03</pdfrwt>
<totfact> 0.36895492E+02</totfact>
</mgrwt>
</event>
<event>
 4    1  0.4676529E-002  0.4411062E+03  0.7818608E-02  0.1030408E+00
         21   -1    0    0  501  502  0.00000000000E+00  0.00000000000E+00  0.22615618190E+04  0.22615618190E+04  0.00000000000E+00 0.  1.
         21   -1    0    0  502  503 -0.00000000000E+00 -0.00000000000E+00 -0.22232196595E+03  0.22232196595E+03  0.00000000000E+00 0.  1.
    9000007    1    1    2  501    0 -0.18556625115E+03  0.11823913728E+02  0.19920008471E+04  0.20402553795E+04  0.40000000000E+03 0.  1.
   -9000007    1    1    2    0  503  0.18556625115E+03 -0.11823913728E+02  0.47239005973E+02  0.44362840552E+03  0.40000000000E+03 0.  1.
<mgrwt>
<rscale>  2 0.44110615E+03</rscale>
<asrwt>0</asrwt>
<pdfrwt beam="1">  1       21 0.34793257E+00 0.44110615E+03</pdfrwt>
<pdfrwt beam="2">  1       21 0.34203381E-01 0.44110615E+03</pdfrwt>
<totfact> 0.11382065E+02</totfact>
</mgrwt>
</event>
<event>
 4    1  0.4676529E-002  0.5593786E+03  0.7818608E-02  0.9993462E-01
         21   -1    0    0  501  502  0.00000000000E+00  0.00000000000E+00  0.19284376201E+04  0.19284376201E+04  0.00000000000E+00 0. -1.
         21   -1    0    0  502  503 -0.00000000000E+00 -0.00000000000E+00 -0.16277586031E+03  0.16277586031E+03  0.00000000000E+00 0. -1.
    9000007    1    1    2  501    0  0.19285516040E+03 -0.34016358041E+03  0.94180915805E+03  0.10954035168E+04  0.40000000000E+03 0. -1.
   -9000007    1    1    2    0  503 -0.19285516040E+03  0.34016358041E+03  0.82385260174E+03  0.99580996366E+03  0.40000000000E+03 0. -1.
<mgrwt>
<rscale>  2 0.55937856E+03</rscale>
<asrwt>0</asrwt>
<pdfrwt beam="1">  1       21 0.29668269E+00 0.55937856E+03</pdfrwt>
<pdfrwt beam="2">  1       21 0.25042441E-01 0.55937856E+03</pdfrwt>
<totfact> 0.40530811E+02</totfact>
</mgrwt>
</event>
<event>
 4    1  0.4676529E-002  0.4175389E+03  0.7818608E-02  0.1037870E+00
         21   -1    0    0  501  502  0.00000000000E+00  0.00000000000E+00  0.55156643050E+03  0.55156643050E+03  0.00000000000E+00 0.  1.
         21   -1    0    0  502  503 -0.00000000000E+00 -0.00000000000E+00 -0.41571607828E+03  0.41571607828E+03  0.00000000000E+00 0.  1.
    9000007    1    1    2  501    0  0.84448441800E+02 -0.84895438116E+02  0.30469949416E+03  0.51689511168E+03  0.40000000000E+03 0.  1.
   -9000007    1    1    2    0  503 -0.84448441800E+02  0.84895438116E+02 -0.16884914194E+03  0.45038739710E+03  0.40000000000E+03 0.  1.
<mgrwt>
<rscale>  2 0.41753895E+03</rscale>
<asrwt>0</asrwt>
<pdfrwt beam="1">  1       21 0.84856374E-01 0.41753895E+03</pdfrwt>
<pdfrwt beam="2">  1       21 0.63956320E-01 0.41753895E+03</pdfrwt>
<totfact> 0.23815279E+03</totfact>
</mgrwt>
</event>
<event>
 4    1  0.4676529E-002  0.6314774E+03  0.7818608E-02  0.9842170E-01
         21   -1    0    0  501  502  0.00000000000E+00  0.00000000000E+00  0.24825582038E+04  0.24825582038E+04  0.00000000000E+00 0.  1.
         21   -1    0    0  502  503 -0.00000000000E+00 -0.00000000000E+00 -0.20896300852E+03  0.20896300852E+03  0.00000000000E+00 0. -1.
    9000007    1    1    2  501    0  0.32229982767E+03 -0.36726898189E+03  0.17840482027E+04  0.18925093589E+04  0.40000000000E+03 0. -1.
   -9000007    1    1    2    0  503 -0.32229982767E+03  0.36726898189E+03  0.48954699261E+03  0.79901185345E+03  0.40000000000E+03 0. -1.
<mgrwt>
<rscale>  2 0.63147738E+03</rscale>
<asrwt>0</asrwt>
<pdfrwt beam="1">  1       21 0.38193201E+00 0.63147738E+03</pdfrwt>
<pdfrwt beam="2">  1       21 0.32148157E-01 0.63147738E+03</pdfrwt>
<totfact> 0.70886527E+01</totfact>
</mgrwt>
</event>
<event>
 4    1  0.4676529E-002  0.4254649E+03  0.7818608E-02  0.1035302E+00
         21   -1    0    0  501  502  0.00000000000E+00  0.00000000000E+00  0.98825225033E+03  0.98825225033E+03  0.00000000000E+00 0.  1.
         21   -1    0    0  502  503 -0.00000000000E+00 -0.00000000000E+00 -0.18987286994E+03  0.18987286994E+03  0.00000000000E+00 0.  1.
    9000007    1    1    2  501    0 -0.12766155588E+03  0.68723689207E+02  0.28853075920E+03  0.51407238528E+03  0.40000000000E+03 0.  1.
   -9000007    1    1    2    0  503  0.12766155588E+03 -0.68723689207E+02  0.50984862119E+03  0.66405273498E+03  0.40000000000E+03 0.  1.
<mgrwt>
<rscale>  2 0.42546494E+03</rscale>
<asrwt>0</asrwt>
<pdfrwt beam="1">  1       21 0.15203880E+00 0.42546494E+03</pdfrwt>
<pdfrwt beam="2">  1       21 0.29211211E-01 0.42546494E+03</pdfrwt>
<totfact> 0.28150902E+03</totfact>
</mgrwt>
</event>
<event>
 4    1  0.4676529E-002  0.4228015E+03  0.7818608E-02  0.1036158E+00
         21   -1    0    0  503  502  0.00000000000E+00  0.00000000000E+00  0.34089175232E+03  0.34089175232E+03  0.00000000000E+00 0.  1.
         21   -1    0    0  501  503 -0.00000000000E+00 -0.00000000000E+00 -0.81231832051E+03  0.81231832051E+03  0.00000000000E+00 0.  1.
    9000007    1    1    2  501    0 -0.13629000625E+03 -0.13642264201E+02 -0.57899890786E+03  0.71693849979E+03  0.40000000000E+03 0.  1.
   -9000007    1    1    2    0  502  0.13629000625E+03  0.13642264201E+02  0.10757233967E+03  0.43627157304E+03  0.40000000000E+03 0.  1.
<mgrwt>
<rscale>  2 0.42280146E+03</rscale>
<asrwt>0</asrwt>
<pdfrwt beam="1">  1       21 0.52444885E-01 0.42280146E+03</pdfrwt>
<pdfrwt beam="2">  1       21 0.12497205E+00 0.42280146E+03</pdfrwt>
<totfact> 0.14213922E+03</totfact>
</mgrwt>
</event>
<event>
 4    1  0.4676529E-002  0.5706620E+03  0.7818608E-02  0.9968215E-01
         21   -1    0    0  503  502  0.00000000000E+00  0.00000000000E+00  0.12846596451E+04  0.12846596451E+04  0.00000000000E+00 0. -1.
         21   -1    0    0  501  503 -0.00000000000E+00 -0.00000000000E+00 -0.60787140375E+03  0.60787140375E+03  0.00000000000E+00 0.  1.
    9000007    1    1    2  501    0 -0.82201859355E+02 -0.39862011922E+03 -0.38410844405E+03  0.68789130095E+03  0.40000000000E+03 0.  1.
   -9000007    1    1    2    0  502  0.82201859355E+02  0.39862011922E+03  0.10608966855E+04  0.12046397479E+04  0.40000000000E+03 0. -1.
<mgrwt>
<rscale>  2 0.57066202E+03</rscale>
<asrwt>0</asrwt>
<pdfrwt beam="1">  1       21 0.19763994E+00 0.57066202E+03</pdfrwt>
<pdfrwt beam="2">  1       21 0.93518678E-01 0.57066202E+03</pdfrwt>
<totfact> 0.10033429E+02</totfact>
</mgrwt>
</event>
<event>
 4    1  0.4676529E-002  0.6342330E+03  0.7818608E-02  0.9836823E-01
         21   -1    0    0  501  502  0.00000000000E+00  0.00000000000E+00  0.15570338313E+04  0.15570338313E+04  0.00000000000E+00 0. -1.
         21   -1    0    0  502  503 -0.00000000000E+00 -0.00000000000E+00 -0.37249742349E+03  0.37249742349E+03  0.00000000000E+00 0.  1.
    9000007    1    1    2  501    0  0.46496016511E+03 -0.16144202339E+03  0.11263444598E+04  0.12926342577E+04  0.40000000000E+03 0. -1.
   -9000007    1    1    2    0  503 -0.46496016511E+03  0.16144202339E+03  0.58191947967E+02  0.63689699706E+03  0.40000000000E+03 0.  1.
<mgrwt>
<rscale>  2 0.63423299E+03</rscale>
<asrwt>0</asrwt>
<pdfrwt beam="1">  1       21 0.23954366E+00 0.63423299E+03</pdfrwt>
<pdfrwt beam="2">  1       21 0.57307297E-01 0.63423299E+03</pdfrwt>
<totfact> 0.16006653E+02</totfact>
</mgrwt>
</event>
<event>
 4    1  0.4676529E-002  0.4123987E+03  0.7818608E-02  0.1039569E+00
         21   -1    0    0  501  502  0.00000000000E+00  0.00000000000E+00  0.44208134299E+03  0.44208134299E+03  0.00000000000E+00 0. -1.
         21   -1    0    0  502  503 -0.00000000000E+00 -0.00000000000E+00 -0.44811292469E+03  0.44811292469E+03  0.00000000000E+00 0. -1.
    9000007    1    1    2  501    0 -0.50986555071E+02 -0.86446649892E+02  0.16440881409E+03  0.44396273518E+03  0.40000000000E+03 0.  1.
   -9000007    1    1    2    0  503  0.50986555071E+02  0.86446649892E+02 -0.17044039579E+03  0.44623153250E+03  0.40000000000E+03 0.  1.
<mgrwt>
<rscale>  2 0.41239866E+03</rscale>
<asrwt>0</asrwt>
<pdfrwt beam="1">  1       21 0.68012514E-01 0.41239866E+03</pdfrwt>
<pdfrwt beam="2">  1       21 0.68940450E-01 0.41239866E+03</pdfrwt>
<totfact> 0.33463301E+03</totfact>
</mgrwt>
</event>
<event>
 4    1  0.4676529E-002  0.4262403E+03  0.7818608E-02  0.1035054E+00
         21   -1    0    0  501  502  0.00000000000E+00  0.00000000000E+00  0.15488645390E+04  0.15488645390E+04  0.00000000000E+00 0. -1.
         21   -1    0    0  502  503 -0.00000000000E+00 -0.00000000000E+00 -0.15262554191E+03  0.15262554191E+03  0.00000000000E+00 0. -1.
    9000007    1    1    2  501    0 -0.12100428652E+03  0.83897308593E+02  0.11074124446E+04  0.11866099267E+04  0.40000000000E+03 0. -1.
   -9000007    1    1    2    0  503  0.12100428652E+03 -0.83897308593E+02  0.28882655247E+03  0.51488015417E+03  0.40000000000E+03 0. -1.
<mgrwt>
<rscale>  2 0.42624030E+03</rscale>
<asrwt>0</asrwt>
<pdfrwt beam="1">  1       21 0.23828684E+00 0.42624030E+03</pdfrwt>
<pdfrwt beam="2">  1       21 0.23480854E-01 0.42624030E+03</pdfrwt>
<totfact> 0.11126300E+03</totfact>
</mgrwt>
</event>
<event>
 4    1  0.4676529E-002  0.4898339E+03  0.7818608E-02  0.1016467E+00
         21   -1    0    0  503  502  0.00000000000E+00  0.00000000000E+00  0.89561565585E+03  0.89561565585E+03  0.00000000000E+00 0. -1.
         21   -1    0    0  501  503 -0.00000000000E+00 -0.00000000000E+00 -0.28072202680E+03  0.28072202680E+03  0.00000000000E+00 0. -1.
    9000007    1    1    2  501    0 -0.24264337235E+03 -0.14512553650E+03  0.18175465268E+03  0.52246720592E+03  0.40000000000E+03 0. -1.
   -9000007    1    1    2    0  502  0.24264337235E+03  0.14512553650E+03  0.43313897638E+03  0.65387047673E+03  0.40000000000E+03 0. -1.
<mgrwt>
<rscale>  2 0.48983388E+03</rscale>
<asrwt>0</asrwt>
<pdfrwt beam="1">  1       21 0.13778702E+00 0.48983388E+03</pdfrwt>
<pdfrwt beam="2">  1       21 0.43188005E-01 0.48983388E+03</pdfrwt>
<totfact> 0.16180265E+03</totfact>
</mgrwt>
</event>
<event>
 4    1  0.4676529E-002  0.4132992E+03  0.7818608E-02  0.1039270E+00
         21   -1    0    0  501  502  0.00000000000E+00  0.00000000000E+00  0.34368282612E+03  0.34368282612E+03  0.00000000000E+00 0.  1.
         21   -1    0    0  502  503 -0.00000000000E+00 -0.00000000000E+00 -0.61651328018E+03  0.61651328018E+03  0.00000000000E+00 0.  1.
    9000007    1    1    2  501    0  0.35819634436E+02 -0.97637984167E+02  0.74951119549E+02  0.42004034626E+03  0.40000000000E+03 0.  1.
   -9000007    1    1    2    0  503 -0.35819634436E+02  0.97637984167E+02 -0.34778157361E+03  0.54015576004E+03  0.40000000000E+03 0.  1.
<mgrwt>
<rscale>  2 0.41329919E+03</rscale>
<asrwt>0</asrwt>
<pdfrwt beam="1">  1       21 0.52874282E-01 0.41329919E+03</pdfrwt>
<pdfrwt beam="2">  1       21 0.94848195E-01 0.41329919E+03</pdfrwt>
<totfact> 0.27746090E+03</totfact>
</mgrwt>
</event>
<event>
 4    1  0.4676529E-002  0.4200439E+03  0.7818608E-02  0.1037052E+00
         21   -1    0    0  501  502  0.00000000000E+00  0.00000000000E+00  0.23559637674E+04  0.23559637674E+04  0.00000000000E+00 0. -1.
         21   -1    0    0  502  503 -0.00000000000E+00 -0.00000000000E+00 -0.89569389699E+02  0.89569389699E+02  0.00000000000E+00 0. -1.
    9000007    1    1    2  501    0 -0.12696797109E+03  0.17775565440E+02  0.16282207300E+04  0.16815289418E+04  0.40000000000E+03 0.  1.
   -9000007    1    1    2    0  503  0.12696797109E+03 -0.17775565440E+02  0.63817364764E+03  0.76400421527E+03  0.40000000000E+03 0.  1.
<mgrwt>
<rscale>  2 0.42004385E+03</rscale>
<asrwt>0</asrwt>
<pdfrwt beam="1">  1       21 0.36245592E+00 0.42004385E+03</pdfrwt>
<pdfrwt beam="2">  1       21 0.13779908E-01 0.42004385E+03</pdfrwt>
<totfact> 0.53857891E+02</totfact>
</mgrwt>
</event>
<event>
 4    1  0.4676529E-002  0.4326602E+03  0.7818608E-02  0.1033023E+00
         21   -1    0    0  503  502  0.00000000000E+00  0.00000000000E+00  0.32839948792E+03  0.32839948792E+03  0.00000000000E+00 0. -1.
         21   -1    0    0  501  503 -0.00000000000E+00 -0.00000000000E+00 -0.68654225109E+03  0.68654225109E+03  0.00000000000E+00 0.  1.
    9000007    1    1    2  501    0  0.12238655294E+03 -0.11052755488E+03 -0.38813520715E+03  0.58124327760E+03  0.40000000000E+03 0.  1.
   -9000007    1    1    2    0  502 -0.12238655294E+03  0.11052755488E+03  0.29992443987E+02  0.43369846141E+03  0.40000000000E+03 0.  1.
<mgrwt>
<rscale>  2 0.43266015E+03</rscale>
<asrwt>0</asrwt>
<pdfrwt beam="1">  1       21 0.50522999E-01 0.43266015E+03</pdfrwt>
<pdfrwt beam="2">  1       21 0.10562188E+00 0.43266015E+03</pdfrwt>
<totfact> 0.23373312E+03</totfact>
</mgrwt>
</event>
<event>
 4    1  0.4676529E-002  0.4043427E+03  0.7818608E-02  0.1042286E+00
         21   -1    0    0  503  502  0.00000000000E+00  0.00000000000E+00  0.46895941549E+03  0.46895941549E+03  0.00000000000E+00 0.  1.
         21   -1    0    0  501  503 -0.00000000000E+00 -0.00000000000E+00 -0.10136560299E+04  0.10136560299E+04  0.00000000000E+00 0.  1.
    9000007    1    1    2  501    0  0.23289595617E+02  0.54319461960E+02 -0.87279265319E+03  0.96190437397E+03  0.40000000000E+03 0.  1.
   -9000007    1    1    2    0  502 -0.23289595617E+02 -0.54319461960E+02  0.32809603879E+03  0.52071107140E+03  0.40000000000E+03 0.  1.
<mgrwt>
<rscale>  2 0.40434269E+03</rscale>
<asrwt>0</asrwt>
<pdfrwt beam="1">  1       21 0.72147603E-01 0.40434269E+03</pdfrwt>
<pdfrwt beam="2">  1       21 0.15594708E+00 0.40434269E+03</pdfrwt>
<totfact> 0.39579947E+02</totfact>
</mgrwt>
</event>
<event>
 4    1  0.4676529E-002  0.5400383E+03  0.7818608E-02  0.1003826E+00
         21   -1    0    0  503  502  0.00000000000E+00  0.00000000000E+00  0.27173711688E+03  0.27173711688E+03  0.00000000000E+00 0. -1.
         21   -1    0    0  501  503 -0.00000000000E+00 -0.00000000000E+00 -0.11485685853E+04  0.11485685853E+04  0.00000000000E+00 0.  1.
    9000007    1    1    2  501    0 -0.27322235679E+03  0.23872770895E+03 -0.62027255536E+03  0.82242289499E+03  0.40000000000E+03 0.  1.
   -9000007    1    1    2    0  502  0.27322235679E+03 -0.23872770895E+03 -0.25655891306E+03  0.59788280719E+03  0.40000000000E+03 0. -1.
<mgrwt>
<rscale>  2 0.54003831E+03</rscale>
<asrwt>0</asrwt>
<pdfrwt beam="1">  1       21 0.41805711E-01 0.54003831E+03</pdfrwt>
<pdfrwt beam="2">  1       21 0.17670286E+00 0.54003831E+03</pdfrwt>
<totfact> 0.85243726E+02</totfact>
</mgrwt>
</event>
<event>
 4    1  0.4676529E-002  0.4178570E+03  0.7818608E-02  0.1037766E+00
         21   -1    0    0  501  502  0.00000000000E+00  0.00000000000E+00  0.39605867608E+03  0.39605867608E+03  0.00000000000E+00 0.  1.
         21   -1    0    0  502  503 -0.00000000000E+00 -0.00000000000E+00 -0.45968999606E+03  0.45968999606E+03  0.00000000000E+00 0.  1.
    9000007    1    1    2  501    0  0.10937378396E+03  0.51398602919E+02  0.54794067514E+02  0.42143425446E+03  0.40000000000E+03 0. -1.
   -9000007    1    1    2    0  503 -0.10937378396E+03 -0.51398602919E+02 -0.11842538750E+03  0.43431441768E+03  0.40000000000E+03 0. -1.
<mgrwt>
<rscale>  2 0.41785696E+03</rscale>
<asrwt>0</asrwt>
<pdfrwt beam="1">  1       21 0.60932104E-01 0.41785696E+03</pdfrwt>
<pdfrwt beam="2">  1       21 0.70721538E-01 0.41785696E+03</pdfrwt>
<totfact> 0.40228168E+03</totfact>
</mgrwt>
</event>
<event>
 4    1  0.4676529E-002  0.8414019E+03  0.7818608E-02  0.9501950E-01
         21   -1    0    0  501  502  0.00000000000E+00  0.00000000000E+00  0.12672713675E+04  0.12672713675E+04  0.00000000000E+00 0.  1.
         21   -1    0    0  502  503 -0.00000000000E+00 -0.00000000000E+00 -0.13805173909E+04  0.13805173909E+04  0.00000000000E+00 0. -1.
    9000007    1    1    2  501    0  0.53347724610E+03  0.51318525458E+03  0.96486699188E+03  0.12802052139E+04  0.40000000000E+03 0.  1.
   -9000007    1    1    2    0  503 -0.53347724610E+03 -0.51318525458E+03 -0.10781130153E+04  0.13675835445E+04  0.40000000000E+03 0. -1.
<mgrwt>
<rscale>  2 0.84140185E+03</rscale>
<asrwt>0</asrwt>
<pdfrwt beam="1">  1       21 0.19496483E+00 0.84140185E+03</pdfrwt>
<pdfrwt beam="2">  1       21 0.21238729E+00 0.84140185E+03</pdfrwt>
<totfact> 0.99229569E+00</totfact>
</mgrwt>
</event>
<event>
 4    1  0.4676529E-002  0.4008683E+03  0.7818608E-02  0.1043479E+00
         21   -1    0    0  501  502  0.00000000000E+00  0.00000000000E+00  0.35206560212E+03  0.35206560212E+03  0.00000000000E+00 0. -1.
         21   -1    0    0  502  503 -0.00000000000E+00 -0.00000000000E+00 -0.64108089424E+03  0.64108089424E+03  0.00000000000E+00 0. -1.
    9000007    1    1    2  501    0  0.20249784663E+02  0.16891291197E+02  0.12199142912E+03  0.41901942470E+03  0.40000000000E+03 0. -1.
   -9000007    1    1    2    0  503 -0.20249784663E+02 -0.16891291197E+02 -0.41100672124E+03  0.57412707165E+03  0.40000000000E+03 0. -1.
<mgrwt>
<rscale>  2 0.40086827E+03</rscale>
<asrwt>0</asrwt>
<pdfrwt beam="1">  1       21 0.54163940E-01 0.40086827E+03</pdfrwt>
<pdfrwt beam="2">  1       21 0.98627829E-01 0.40086827E+03</pdfrwt>
<totfact> 0.24111496E+03</totfact>
</mgrwt>
</event>
<event>
 4    1  0.4676529E-002  0.7312204E+03  0.7818608E-02  0.9665282E-01
         21   -1    0    0  501  502  0.00000000000E+00  0.00000000000E+00  0.52252386847E+03  0.52252386847E+03  0.00000000000E+00 0.  1.
         21   -1    0    0  502  503 -0.00000000000E+00 -0.00000000000E+00 -0.11289943166E+04  0.11289943166E+04  0.00000000000E+00 0.  1.
    9000007    1    1    2  501    0 -0.37149788047E+03  0.48649015358E+03 -0.50542015128E+02  0.73296510150E+03  0.40000000000E+03 0.  1.
   -9000007    1    1    2    0  503  0.37149788047E+03 -0.48649015358E+03 -0.55592843301E+03  0.91855308358E+03  0.40000000000E+03 0.  1.
<mgrwt>
<rscale>  2 0.73122045E+03</rscale>
<asrwt>0</asrwt>
<pdfrwt beam="1">  1       21 0.80388288E-01 0.73122045E+03</pdfrwt>
<pdfrwt beam="2">  1       21 0.17369143E+00 0.73122045E+03</pdfrwt>
<totfact> 0.19954952E+02</totfact>
</mgrwt>
</event>
<event>
 4    1  0.4676529E-002  0.4204116E+03  0.7818608E-02  0.1036932E+00
         21   -1    0    0  503  502  0.00000000000E+00  0.00000000000E+00  0.18119855322E+04  0.18119855322E+04  0.00000000000E+00 0.  1.
         21   -1    0    0  501  503 -0.00000000000E+00 -0.00000000000E+00 -0.10752523372E+03  0.10752523372E+03  0.00000000000E+00 0.  1.
    9000007    1    1    2  501    0  0.10166068651E+03 -0.80068743203E+02  0.55979706785E+03  0.70008474915E+03  0.40000000000E+03 0.  1.
   -9000007    1    1    2    0  502 -0.10166068651E+03  0.80068743203E+02  0.11446632307E+04  0.12194260168E+04  0.40000000000E+03 0.  1.
<mgrwt>
<rscale>  2 0.42041158E+03</rscale>
<asrwt>0</asrwt>
<pdfrwt beam="1">  1       21 0.27876698E+00 0.42041158E+03</pdfrwt>
<pdfrwt beam="2">  1       21 0.16542345E-01 0.42041158E+03</pdfrwt>
<totfact> 0.12302216E+03</totfact>
</mgrwt>
</event>
<event>
 4    1  0.4676529E-002  0.6538768E+03  0.7818608E-02  0.9799532E-01
         21   -1    0    0  501  502  0.00000000000E+00  0.00000000000E+00  0.62800358467E+03  0.62800358467E+03  0.00000000000E+00 0.  1.
         21   -1    0    0  502  503 -0.00000000000E+00 -0.00000000000E+00 -0.18192401866E+04  0.18192401866E+04  0.00000000000E+00 0. -1.
    9000007    1    1    2  501    0 -0.10078824264E+03  0.50734269557E+03  0.37233471004E+03  0.75245466103E+03  0.40000000000E+03 0.  1.
   -9000007    1    1    2    0  503  0.10078824264E+03 -0.50734269557E+03 -0.15635713119E+04  0.16947891102E+04  0.40000000000E+03 0. -1.
<mgrwt>
<rscale>  2 0.65387681E+03</rscale>
<asrwt>0</asrwt>
<pdfrwt beam="1">  1       21 0.96615938E-01 0.65387681E+03</pdfrwt>
<pdfrwt beam="2">  1       21 0.27988310E+00 0.65387681E+03</pdfrwt>
<totfact> 0.26826887E+01</totfact>
</mgrwt>
</event>
<event>
 4    1  0.4676529E-002  0.4357499E+03  0.7818608E-02  0.1032059E+00
         21   -1    0    0  501  502  0.00000000000E+00  0.00000000000E+00  0.29145674625E+03  0.29145674625E+03  0.00000000000E+00 0. -1.
         21   -1    0    0  502  503 -0.00000000000E+00 -0.00000000000E+00 -0.80371823433E+03  0.80371823433E+03  0.00000000000E+00 0. -1.
    9000007    1    1    2  501    0 -0.86445568006E+02 -0.14968352825E+03 -0.17808444143E+02  0.43611367273E+03  0.40000000000E+03 0. -1.
   -9000007    1    1    2    0  503  0.86445568006E+02  0.14968352825E+03 -0.49445304394E+03  0.65906130786E+03  0.40000000000E+03 0. -1.
<mgrwt>
<rscale>  2 0.43574992E+03</rscale>
<asrwt>0</asrwt>
<pdfrwt beam="1">  1       21 0.44839499E-01 0.43574992E+03</pdfrwt>
<pdfrwt beam="2">  1       21 0.12364896E+00 0.43574992E+03</pdfrwt>
<totfact> 0.20240083E+03</totfact>
</mgrwt>
</event>
<event>
 4    1  0.4676529E-002  0.4201524E+03  0.7818608E-02  0.1037017E+00
         21   -1    0    0  501  502  0.00000000000E+00  0.00000000000E+00  0.47936733661E+03  0.47936733661E+03  0.00000000000E+00 0.  1.
         21   -1    0    0  502  503 -0.00000000000E+00 -0.00000000000E+00 -0.44706474231E+03  0.44706474231E+03  0.00000000000E+00 0.  1.
    9000007    1    1    2  501    0  0.40866064644E+02 -0.12189339772E+03  0.21064085138E+03  0.46999745097E+03  0.40000000000E+03 0.  1.
   -9000007    1    1    2    0  503 -0.40866064644E+02  0.12189339772E+03 -0.17833825709E+03  0.45643462794E+03  0.40000000000E+03 0.  1.
<mgrwt>
<rscale>  2 0.42015240E+03</rscale>
<asrwt>0</asrwt>
<pdfrwt beam="1">  1       21 0.73748821E-01 0.42015240E+03</pdfrwt>
<pdfrwt beam="2">  1       21 0.68779191E-01 0.42015240E+03</pdfrwt>
<totfact> 0.27947793E+03</totfact>
</mgrwt>
</event>
<event>
 4    1  0.4676529E-002  0.5127640E+03  0.7818608E-02  0.1010500E+00
         21   -1    0    0  501  502  0.00000000000E+00  0.00000000000E+00  0.34376992891E+03  0.34376992891E+03  0.00000000000E+00 0.  1.
         21   -1    0    0  502  503 -0.00000000000E+00 -0.00000000000E+00 -0.76798912586E+03  0.76798912586E+03  0.00000000000E+00 0. -1.
    9000007    1    1    2  501    0 -0.29372307382E+03  0.12904916231E+03 -0.24773923332E+03  0.56947489683E+03  0.40000000000E+03 0.  1.
   -9000007    1    1    2    0  503  0.29372307382E+03 -0.12904916231E+03 -0.17647996363E+03  0.54228415794E+03  0.40000000000E+03 0. -1.
<mgrwt>
<rscale>  2 0.51276401E+03</rscale>
<asrwt>0</asrwt>
<pdfrwt beam="1">  1       21 0.52887682E-01 0.51276401E+03</pdfrwt>
<pdfrwt beam="2">  1       21 0.11815217E+00 0.51276401E+03</pdfrwt>
<totfact> 0.15567354E+03</totfact>
</mgrwt>
</event>
<event>
 4    1  0.4676529E-002  0.4845104E+03  0.7818608E-02  0.1017903E+00
         21   -1    0    0  501  502  0.00000000000E+00  0.00000000000E+00  0.31596513322E+03  0.31596513322E+03  0.00000000000E+00 0. -1.
         21   -1    0    0  502  503 -0.00000000000E+00 -0.00000000000E+00 -0.81091432710E+03  0.81091432710E+03  0.00000000000E+00 0. -1.
    9000007    1    1    2  501    0 -0.45413047061E+02 -0.26960702315E+03 -0.84372299009E+02  0.49180176557E+03  0.40000000000E+03 0. -1.
   -9000007    1    1    2    0  503  0.45413047061E+02  0.26960702315E+03 -0.41057689487E+03  0.63507769475E+03  0.40000000000E+03 0. -1.
<mgrwt>
<rscale>  2 0.48451036E+03</rscale>
<asrwt>0</asrwt>
<pdfrwt beam="1">  1       21 0.48610022E-01 0.48451036E+03</pdfrwt>
<pdfrwt beam="2">  1       21 0.12475605E+00 0.48451036E+03</pdfrwt>
<totfact> 0.16379352E+03</totfact>
</mgrwt>
</event>
<event>
 4    1  0.4676529E-002  0.7273552E+03  0.7818608E-02  0.9671562E-01
         21   -1    0    0  501  502  0.00000000000E+00  0.00000000000E+00  0.38155596697E+03  0.38155596697E+03  0.00000000000E+00 0.  1.
         21   -1    0    0  502  503 -0.00000000000E+00 -0.00000000000E+00 -0.13961672587E+04  0.13961672587E+04  0.00000000000E+00 0.  1.
    9000007    1    1    2  501    0 -0.56389810105E+03 -0.22597447767E+03 -0.58108654038E+03  0.93097105236E+03  0.40000000000E+03 0.  1.
   -9000007    1    1    2    0  503  0.56389810105E+03  0.22597447767E+03 -0.43352475131E+03  0.84675217327E+03  0.40000000000E+03 0.  1.
<mgrwt>
<rscale>  2 0.72735516E+03</rscale>
<asrwt>0</asrwt>
<pdfrwt beam="1">  1       21 0.58700917E-01 0.72735516E+03</pdfrwt>
<pdfrwt beam="2">  1       21 0.21479497E+00 0.72735516E+03</pdfrwt>
<totfact> 0.21196246E+02</totfact>
</mgrwt>
</event>
<event>
 4    1  0.4676529E-002  0.4274358E+03  0.7818608E-02  0.1034673E+00
         21   -1    0    0  503  502  0.00000000000E+00  0.00000000000E+00  0.11495593038E+04  0.11495593038E+04  0.00000000000E+00 0. -1.
         21   -1    0    0  501  503 -0.00000000000E+00 -0.00000000000E+00 -0.29130678127E+03  0.29130678127E+03  0.00000000000E+00 0. -1.
    9000007    1    1    2  501    0 -0.12673307377E+03  0.81486587720E+02 -0.56521686618E+02  0.43115662702E+03  0.40000000000E+03 0. -1.
   -9000007    1    1    2    0  502  0.12673307377E+03 -0.81486587720E+02  0.91477420913E+03  0.10097094580E+04  0.40000000000E+03 0. -1.
<mgrwt>
<rscale>  2 0.42743577E+03</rscale>
<asrwt>0</asrwt>
<pdfrwt beam="1">  1       21 0.17685528E+00 0.42743577E+03</pdfrwt>
<pdfrwt beam="2">  1       21 0.44816428E-01 0.42743577E+03</pdfrwt>
<totfact> 0.77123252E+02</totfact>
</mgrwt>
</event>
<event>
 4    1  0.4676529E-002  0.5473065E+03  0.7818608E-02  0.1002119E+00
         21   -1    0    0  503  502  0.00000000000E+00  0.00000000000E+00  0.31649795158E+03  0.31649795158E+03  0.00000000000E+00 0. -1.
         21   -1    0    0  501  503 -0.00000000000E+00 -0.00000000000E+00 -0.12853427733E+04  0.12853427733E+04  0.00000000000E+00 0. -1.
    9000007    1    1    2  501    0 -0.29658350182E+02  0.37237725868E+03 -0.89568691169E+03  0.10496663681E+04  0.40000000000E+03 0. -1.
   -9000007    1    1    2    0  502  0.29658350182E+02 -0.37237725868E+03 -0.73157910052E+02  0.55217435681E+03  0.40000000000E+03 0. -1.
<mgrwt>
<rscale>  2 0.54730653E+03</rscale>
<asrwt>0</asrwt>
<pdfrwt beam="1">  1       21 0.48691994E-01 0.54730653E+03</pdfrwt>
<pdfrwt beam="2">  1       21 0.19774504E+00 0.54730653E+03</pdfrwt>
<totfact> 0.44031267E+02</totfact>
</mgrwt>
</event>
<event>
 4    1  0.4676529E-002  0.4122184E+03  0.7818608E-02  0.1039629E+00
         21   -1    0    0  503  502  0.00000000000E+00  0.00000000000E+00  0.82855589007E+03  0.82855589007E+03  0.00000000000E+00 0.  1.
         21   -1    0    0  501  503 -0.00000000000E+00 -0.00000000000E+00 -0.45039351371E+03  0.45039351371E+03  0.00000000000E+00 0.  1.
    9000007    1    1    2  501    0  0.94404775140E+01  0.99171157965E+02 -0.28285576238E+03  0.49993141879E+03  0.40000000000E+03 0.  1.
   -9000007    1    1    2    0  502 -0.94404775140E+01 -0.99171157965E+02  0.66101813873E+03  0.77901798498E+03  0.40000000000E+03 0.  1.
<mgrwt>
<rscale>  2 0.41221844E+03</rscale>
<asrwt>0</asrwt>
<pdfrwt beam="1">  1       21 0.12747014E+00 0.41221844E+03</pdfrwt>
<pdfrwt beam="2">  1       21 0.69291310E-01 0.41221844E+03</pdfrwt>
<totfact> 0.73743242E+02</totfact>
</mgrwt>
</event>
<event>
 4    1  0.4676529E-002  0.4117523E+03  0.7818608E-02  0.1039785E+00
         21   -1    0    0  503  502  0.00000000000E+00  0.00000000000E+00  0.75460874849E+03  0.75460874849E+03  0.00000000000E+00 0.  1.
         21   -1    0    0  501  503 -0.00000000000E+00 -0.00000000000E+00 -0.22603126920E+03  0.22603126920E+03  0.00000000000E+00 0.  1.
    9000007    1    1    2  501    0 -0.97207532159E+02  0.95232963371E+01  0.30230186567E+03  0.51080956869E+03  0.40000000000E+03 0.  1.
   -9000007    1    1    2    0  502  0.97207532159E+02 -0.95232963371E+01  0.22627561362E+03  0.46983044899E+03  0.40000000000E+03 0.  1.
<mgrwt>
<rscale>  2 0.41175235E+03</rscale>
<asrwt>0</asrwt>
<pdfrwt beam="1">  1       21 0.11609365E+00 0.41175235E+03</pdfrwt>
<pdfrwt beam="2">  1       21 0.34774042E-01 0.41175235E+03</pdfrwt>
<totfact> 0.40407202E+03</totfact>
</mgrwt>
</event>
<event>
 4    1  0.4676529E-002  0.4313094E+03  0.7818608E-02  0.1033447E+00
         21   -1    0    0  503  502  0.00000000000E+00  0.00000000000E+00  0.28243842725E+03  0.28243842725E+03  0.00000000000E+00 0. -1.
         21   -1    0    0  501  503 -0.00000000000E+00 -0.00000000000E+00 -0.16600658533E+04  0.16600658533E+04  0.00000000000E+00 0. -1.
    9000007    1    1    2  501    0 -0.15085114520E+03 -0.57199190858E+02 -0.14431704223E+04  0.15062432351E+04  0.40000000000E+03 0. -1.
   -9000007    1    1    2    0  502  0.15085114520E+03  0.57199190858E+02  0.65542996241E+02  0.43626104548E+03  0.40000000000E+03 0. -1.
<mgrwt>
<rscale>  2 0.43130942E+03</rscale>
<asrwt>0</asrwt>
<pdfrwt beam="1">  1       21 0.43452066E-01 0.43130942E+03</pdfrwt>
<pdfrwt beam="2">  1       21 0.25539474E+00 0.43130942E+03</pdfrwt>
<totfact> 0.25403741E+02</totfact>
</mgrwt>
</event>
<event>
 4    1  0.4676529E-002  0.5106673E+03  0.7818608E-02  0.1011032E+00
         21   -1    0    0  501  502  0.00000000000E+00  0.00000000000E+00  0.76364515165E+03  0.76364515165E+03  0.00000000000E+00 0. -1.
         21   -1    0    0  502  503 -0.00000000000E+00 -0.00000000000E+00 -0.36954359594E+03  0.36954359594E+03  0.00000000000E+00 0.  1.
    9000007    1    1    2  501    0  0.46328489794E+02 -0.31406168636E+03  0.35314767250E+03  0.62088191341E+03  0.40000000000E+03 0. -1.
   -9000007    1    1    2    0  503 -0.46328489794E+02  0.31406168636E+03  0.40953883207E+02  0.51230683419E+03  0.40000000000E+03 0.  1.
<mgrwt>
<rscale>  2 0.51066728E+03</rscale>
<asrwt>0</asrwt>
<pdfrwt beam="1">  1       21 0.11748387E+00 0.51066728E+03</pdfrwt>
<pdfrwt beam="2">  1       21 0.56852861E-01 0.51066728E+03</pdfrwt>
<totfact> 0.13514544E+03</totfact>
</mgrwt>
</event>
<event>
 4    1  0.4676529E-002  0.5133218E+03  0.7818608E-02  0.1010359E+00
         21   -1    0    0  501  502  0.00000000000E+00  0.00000000000E+00  0.38170575109E+03  0.38170575109E+03  0.00000000000E+00 0. -1.
         21   -1    0    0  502  503 -0.00000000000E+00 -0.00000000000E+00 -0.99946772069E+03  0.99946772069E+03  0.00000000000E+00 0. -1.
    9000007    1    1    2  501    0  0.11743738748E+03 -0.29951253883E+03 -0.69295641619E+03  0.86237340847E+03  0.40000000000E+03 0. -1.
   -9000007    1    1    2    0  503 -0.11743738748E+03  0.29951253883E+03  0.75194446588E+02  0.51880006331E+03  0.40000000000E+03 0. -1.
<mgrwt>
<rscale>  2 0.51332183E+03</rscale>
<asrwt>0</asrwt>
<pdfrwt beam="1">  1       21 0.58723962E-01 0.51332183E+03</pdfrwt>
<pdfrwt beam="2">  1       21 0.15376426E+00 0.51332183E+03</pdfrwt>
<totfact> 0.61858739E+02</totfact>
</mgrwt>
</event>
<event>
 4    1  0.4676529E-002  0.6190387E+03  0.7818608E-02  0.9866676E-01
         21   -1    0    0  503  502  0.00000000000E+00  0.00000000000E+00  0.52559524734E+03  0.52559524734E+03  0.00000000000E+00 0.  1.
         21   -1    0    0  501  503 -0.00000000000E+00 -0.00000000000E+00 -0.18951994394E+04  0.18951994394E+04  0.00000000000E+00 0. -1.
    9000007    1    1    2  501    0  0.34465895866E+03 -0.32313937154E+03 -0.16342458288E+04  0.17475606657E+04  0.40000000000E+03 0. -1.
   -9000007    1    1    2    0  502 -0.34465895866E+03  0.32313937154E+03  0.26464163675E+03  0.67323402107E+03  0.40000000000E+03 0.  1.
<mgrwt>
<rscale>  2 0.61903865E+03</rscale>
<asrwt>0</asrwt>
<pdfrwt beam="1">  1       21 0.80860806E-01 0.61903865E+03</pdfrwt>
<pdfrwt beam="2">  1       21 0.29156915E+00 0.61903865E+03</pdfrwt>
<totfact> 0.35333960E+01</totfact>
</mgrwt>
</event>
<event>
 4    1  0.4676529E-002  0.5129668E+03  0.7818608E-02  0.1010449E+00
         21   -1    0    0  501  502  0.00000000000E+00  0.00000000000E+00  0.47543743534E+03  0.47543743534E+03  0.00000000000E+00 0. -1.
         21   -1    0    0  502  503 -0.00000000000E+00 -0.00000000000E+00 -0.11880535825E+04  0.11880535825E+04  0.00000000000E+00 0. -1.
    9000007    1    1    2  501    0  0.30223336867E+03 -0.10858148388E+03  0.25157599270E+03  0.57133652770E+03  0.40000000000E+03 0. -1.
   -9000007    1    1    2    0  503 -0.30223336867E+03  0.10858148388E+03 -0.96419213990E+03  0.10921544902E+04  0.40000000000E+03 0. -1.
<mgrwt>
<rscale>  2 0.51296681E+03</rscale>
<asrwt>0</asrwt>
<pdfrwt beam="1">  1       21 0.73144221E-01 0.51296681E+03</pdfrwt>
<pdfrwt beam="2">  1       21 0.18277747E+00 0.51296681E+03</pdfrwt>
<totfact> 0.23148194E+02</totfact>
</mgrwt>
</event>
<event>
 4    1  0.4676529E-002  0.4754208E+03  0.7818608E-02  0.1020401E+00
         21   -1    0    0  503  502  0.00000000000E+00  0.00000000000E+00  0.40530231645E+03  0.40530231645E+03  0.00000000000E+00 0. -1.
         21   -1    0    0  501  503 -0.00000000000E+00 -0.00000000000E+00 -0.56936182876E+03  0.56936182876E+03  0.00000000000E+00 0. -1.
    9000007    1    1    2  501    0 -0.22999735219E+03 -0.11456947232E+03 -0.15186455678E+03  0.49908695596E+03  0.40000000000E+03 0.  1.
   -9000007    1    1    2    0  502  0.22999735219E+03  0.11456947232E+03 -0.12194955532E+02  0.47557718926E+03  0.40000000000E+03 0.  1.
<mgrwt>
<rscale>  2 0.47542081E+03</rscale>
<asrwt>0</asrwt>
<pdfrwt beam="1">  1       21 0.62354202E-01 0.47542081E+03</pdfrwt>
<pdfrwt beam="2">  1       21 0.87594128E-01 0.47542081E+03</pdfrwt>
<totfact> 0.22884084E+03</totfact>
</mgrwt>
</event>
<event>
 4    1  0.4676529E-002  0.4229565E+03  0.7818608E-02  0.1036108E+00
         21   -1    0    0  501  502  0.00000000000E+00  0.00000000000E+00  0.37257186651E+03  0.37257186651E+03  0.00000000000E+00 0. -1.
         21   -1    0    0  502  503 -0.00000000000E+00 -0.00000000000E+00 -0.81678305579E+03  0.81678305579E+03  0.00000000000E+00 0. -1.
    9000007    1    1    2  501    0 -0.83377378580E+02 -0.10927207192E+03  0.15966581115E+03  0.45208997358E+03  0.40000000000E+03 0. -1.
   -9000007    1    1    2    0  503  0.83377378580E+02  0.10927207192E+03 -0.60387700044E+03  0.73726494872E+03  0.40000000000E+03 0. -1.
<mgrwt>
<rscale>  2 0.42295647E+03</rscale>
<asrwt>0</asrwt>
<pdfrwt beam="1">  1       21 0.57318749E-01 0.42295647E+03</pdfrwt>
<pdfrwt beam="2">  1       21 0.12565893E+00 0.42295647E+03</pdfrwt>
<totfact> 0.11572032E+03</totfact>
</mgrwt>
</event>
<event>
 4    1  0.4676529E-002  0.4706763E+03  0.7818608E-02  0.1021729E+00
         21   -1    0    0  503  502  0.00000000000E+00  0.00000000000E+00  0.60312754405E+03  0.60312754405E+03  0.00000000000E+00 0.  1.
         21   -1    0    0  501  503 -0.00000000000E+00 -0.00000000000E+00 -0.37283441720E+03  0.37283441720E+03  0.00000000000E+00 0. -1.
    9000007    1    1    2  501    0 -0.18910012269E+03  0.16055328827E+03  0.17453398742E+03  0.50199435011E+03  0.40000000000E+03 0.  1.
   -9000007    1    1    2    0  502  0.18910012269E+03 -0.16055328827E+03  0.55759139431E+02  0.47396761114E+03  0.40000000000E+03 0. -1.
<mgrwt>
<rscale>  2 0.47067634E+03</rscale>
<asrwt>0</asrwt>
<pdfrwt beam="1">  1       21 0.92788853E-01 0.47067634E+03</pdfrwt>
<pdfrwt beam="2">  1       21 0.57359141E-01 0.47067634E+03</pdfrwt>
<totfact> 0.24012000E+03</totfact>
</mgrwt>
</event>
<event>
 4    1  0.4676529E-002  0.4222469E+03  0.7818608E-02  0.1036337E+00
         21   -1    0    0  503  502  0.00000000000E+00  0.00000000000E+00  0.70009773813E+02  0.70009773813E+02  0.00000000000E+00 0.  1.
         21   -1    0    0  501  503 -0.00000000000E+00 -0.00000000000E+00 -0.26986606520E+04  0.26986606520E+04  0.00000000000E+00 0.  1.
    9000007    1    1    2  501    0 -0.13502312757E+03 -0.78223720543E+01 -0.16428459034E+04  0.16962414619E+04  0.40000000000E+03 0.  1.
   -9000007    1    1    2    0  502  0.13502312757E+03  0.78223720543E+01 -0.98580497470E+03  0.10724289639E+04  0.40000000000E+03 0.  1.
<mgrwt>
<rscale>  2 0.42224689E+03</rscale>
<asrwt>0</asrwt>
<pdfrwt beam="1">  1       21 0.10770735E-01 0.42224689E+03</pdfrwt>
<pdfrwt beam="2">  1       21 0.41517854E+00 0.42224689E+03</pdfrwt>
<totfact> 0.39052290E+02</totfact>
</mgrwt>
</event>
<event>
 4    1  0.4676529E-002  0.4286956E+03  0.7818608E-02  0.1034273E+00
         21   -1    0    0  501  502  0.00000000000E+00  0.00000000000E+00  0.28516218640E+04  0.28516218640E+04  0.00000000000E+00 0.  1.
         21   -1    0    0  502  503 -0.00000000000E+00 -0.00000000000E+00 -0.67382445309E+02  0.67382445309E+02  0.00000000000E+00 0.  1.
    9000007    1    1    2  501    0  0.65541677202E+02 -0.13958574588E+03  0.10875185336E+04  0.11689638373E+04  0.40000000000E+03 0. -1.
   -9000007    1    1    2    0  503 -0.65541677202E+02  0.13958574588E+03  0.16967208851E+04  0.17500404721E+04  0.40000000000E+03 0. -1.
<mgrwt>
<rscale>  2 0.42869557E+03</rscale>
<asrwt>0</asrwt>
<pdfrwt beam="1">  1       21 0.43871096E+00 0.42869557E+03</pdfrwt>
<pdfrwt beam="2">  1       21 0.10366532E-01 0.42869557E+03</pdfrwt>
<totfact> 0.29146145E+02</totfact>
</mgrwt>
</event>
<event>
 4    1  0.4676529E-002  0.4007557E+03  0.7818608E-02  0.1043518E+00
         21   -1    0    0  501  502  0.00000000000E+00  0.00000000000E+00  0.44893300177E+03  0.44893300177E+03  0.00000000000E+00 0. -1.
         21   -1    0    0  502  503 -0.00000000000E+00 -0.00000000000E+00 -0.73056977958E+03  0.73056977958E+03  0.00000000000E+00 0. -1.
    9000007    1    1    2  501    0 -0.21592737428E+02  0.11783827929E+02  0.28047871362E+03  0.48915581741E+03  0.40000000000E+03 0. -1.
   -9000007    1    1    2    0  503  0.21592737428E+02 -0.11783827929E+02 -0.56211549144E+03  0.69034696394E+03  0.40000000000E+03 0. -1.
<mgrwt>
<rscale>  2 0.40075567E+03</rscale>
<asrwt>0</asrwt>
<pdfrwt beam="1">  1       21 0.69066616E-01 0.40075567E+03</pdfrwt>
<pdfrwt beam="2">  1       21 0.11239535E+00 0.40075567E+03</pdfrwt>
<totfact> 0.10269263E+03</totfact>
</mgrwt>
</event>
<event>
 4    1  0.4676529E-002  0.4141062E+03  0.7818608E-02  0.1039002E+00
         21   -1    0    0  503  502  0.00000000000E+00  0.00000000000E+00  0.15642720807E+03  0.15642720807E+03  0.00000000000E+00 0. -1.
         21   -1    0    0  501  503 -0.00000000000E+00 -0.00000000000E+00 -0.18013753364E+04  0.18013753364E+04  0.00000000000E+00 0. -1.
    9000007    1    1    2  501    0 -0.85123726570E+01  0.10682466990E+03 -0.21002682756E+03  0.46432234373E+03  0.40000000000E+03 0. -1.
   -9000007    1    1    2    0  502  0.85123726570E+01 -0.10682466990E+03 -0.14349213008E+04  0.14934802007E+04  0.40000000000E+03 0. -1.
<mgrwt>
<rscale>  2 0.41410623E+03</rscale>
<asrwt>0</asrwt>
<pdfrwt beam="1">  1       21 0.24065724E-01 0.41410623E+03</pdfrwt>
<pdfrwt beam="2">  1       21 0.27713467E+00 0.41410623E+03</pdfrwt>
<totfact> 0.61938587E+02</totfact>
</mgrwt>
</event>
<event>
 4    1  0.4676529E-002  0.4127162E+03  0.7818608E-02  0.1039463E+00
         21   -1    0    0  503  502  0.00000000000E+00  0.00000000000E+00  0.30296360912E+03  0.30296360912E+03  0.00000000000E+00 0. -1.
         21   -1    0    0  501  503 -0.00000000000E+00 -0.00000000000E+00 -0.79401361353E+03  0.79401361353E+03  0.00000000000E+00 0. -1.
    9000007    1    1    2  501    0  0.92622029809E+02 -0.41902052842E+02 -0.54186951041E+03  0.68114402938E+03  0.40000000000E+03 0. -1.
   -9000007    1    1    2    0  502 -0.92622029809E+02  0.41902052842E+02  0.50819506001E+02  0.41583319327E+03  0.40000000000E+03 0. -1.
<mgrwt>
<rscale>  2 0.41271615E+03</rscale>
<asrwt>0</asrwt>
<pdfrwt beam="1">  1       21 0.46609787E-01 0.41271615E+03</pdfrwt>
<pdfrwt beam="2">  1       21 0.12215594E+00 0.41271615E+03</pdfrwt>
<totfact> 0.19431779E+03</totfact>
</mgrwt>
</event>
<event>
 4    1  0.4676529E-002  0.4627205E+03  0.7818608E-02  0.1023995E+00
         21   -1    0    0  501  502  0.00000000000E+00  0.00000000000E+00  0.75491440615E+03  0.75491440615E+03  0.00000000000E+00 0. -1.
         21   -1    0    0  502  503 -0.00000000000E+00 -0.00000000000E+00 -0.33706451306E+03  0.33706451306E+03  0.00000000000E+00 0. -1.
    9000007    1    1    2  501    0  0.19368024811E+03 -0.12883407817E+03  0.42633097644E+03  0.62918070510E+03  0.40000000000E+03 0.  1.
   -9000007    1    1    2    0  503 -0.19368024811E+03  0.12883407817E+03 -0.84810833539E+01  0.46279821411E+03  0.40000000000E+03 0.  1.
<mgrwt>
<rscale>  2 0.46272050E+03</rscale>
<asrwt>0</asrwt>
<pdfrwt beam="1">  1       21 0.11614068E+00 0.46272050E+03</pdfrwt>
<pdfrwt beam="2">  1       21 0.51856079E-01 0.46272050E+03</pdfrwt>
<totfact> 0.17264930E+03</totfact>
</mgrwt>
</event>
<event>
 4    1  0.4676529E-002  0.4352722E+03  0.7818608E-02  0.1032207E+00
         21   -1    0    0  501  502  0.00000000000E+00  0.00000000000E+00  0.10346995232E+04  0.10346995232E+04  0.00000000000E+00 0.  1.
         21   -1    0    0  502  503 -0.00000000000E+00 -0.00000000000E+00 -0.22738548122E+03  0.22738548122E+03  0.00000000000E+00 0.  1.
    9000007    1    1    2  501    0  0.93914680137E+02  0.14367288347E+03  0.68212047448E+03  0.80916636503E+03  0.40000000000E+03 0.  1.
   -9000007    1    1    2    0  503 -0.93914680137E+02 -0.14367288347E+03  0.12519356754E+03  0.45291863943E+03  0.40000000000E+03 0.  1.
<mgrwt>
<rscale>  2 0.43527217E+03</rscale>
<asrwt>0</asrwt>
<pdfrwt beam="1">  1       21 0.15918454E+00 0.43527217E+03</pdfrwt>
<pdfrwt beam="2">  1       21 0.34982382E-01 0.43527217E+03</pdfrwt>
<totfact> 0.17230109E+03</totfact>
</mgrwt>
</event>
<event>
 4    1  0.4676529E-002  0.5911699E+03  0.7818608E-02  0.9923897E-01
         21   -1    0    0  501  502  0.00000000000E+00  0.00000000000E+00  0.67339841105E+03  0.67339841105E+03  0.00000000000E+00 0.  1.
         21   -1    0    0  502  503 -0.00000000000E+00 -0.00000000000E+00 -0.66294075075E+03  0.66294075075E+03  0.00000000000E+00 0.  1.
    9000007    1    1    2  501    0 -0.19357206557E+02  0.43486449339E+03  0.31659253416E+03  0.67060618976E+03  0.40000000000E+03 0.  1.
   -9000007    1    1    2    0  503  0.19357206557E+02 -0.43486449339E+03 -0.30613487386E+03  0.66573297204E+03  0.40000000000E+03 0.  1.
<mgrwt>
<rscale>  2 0.59116988E+03</rscale>
<asrwt>0</asrwt>
<pdfrwt beam="1">  1       21 0.10359976E+00 0.59116988E+03</pdfrwt>
<pdfrwt beam="2">  1       21 0.10199088E+00 0.59116988E+03</pdfrwt>
<totfact> 0.46783297E+02</totfact>
</mgrwt>
</event>
<event>
 4    1  0.4676529E-002  0.6604551E+03  0.7818608E-02  0.9787356E-01
         21   -1    0    0  501  502  0.00000000000E+00  0.00000000000E+00  0.29742576391E+04  0.29742576391E+04  0.00000000000E+00 0. -1.
         21   -1    0    0  502  503 -0.00000000000E+00 -0.00000000000E+00 -0.21038779225E+03  0.21038779225E+03  0.00000000000E+00 0.  1.
    9000007    1    1    2  501    0 -0.23480129488E+03  0.47018004371E+03  0.22583089592E+04  0.23529046468E+04  0.40000000000E+03 0. -1.
   -9000007    1    1    2    0  503  0.23480129488E+03 -0.47018004371E+03  0.50556088759E+03  0.83174078453E+03  0.40000000000E+03 0.  1.
<mgrwt>
<rscale>  2 0.66045509E+03</rscale>
<asrwt>0</asrwt>
<pdfrwt beam="1">  1       21 0.45757807E+00 0.66045509E+03</pdfrwt>
<pdfrwt beam="2">  1       21 0.32367355E-01 0.66045509E+03</pdfrwt>
<totfact> 0.21775701E+01</totfact>
</mgrwt>
</event>
<event>
 4    1  0.4676529E-002  0.4909605E+03  0.7818608E-02  0.1016166E+00
         21   -1    0    0  503  502  0.00000000000E+00  0.00000000000E+00  0.51547074044E+03  0.51547074044E+03  0.00000000000E+00 0.  1.
         21   -1    0    0  501  503 -0.00000000000E+00 -0.00000000000E+00 -0.54735055085E+03  0.54735055085E+03  0.00000000000E+00 0. -1.
    9000007    1    1    2  501    0 -0.12118417241E+03 -0.25759772041E+03 -0.21876499617E+03  0.53749447695E+03  0.40000000000E+03 0. -1.
   -9000007    1    1    2    0  502  0.12118417241E+03  0.25759772041E+03  0.18688518576E+03  0.52532681433E+03  0.40000000000E+03 0.  1.
<mgrwt>
<rscale>  2 0.49096048E+03</rscale>
<asrwt>0</asrwt>
<pdfrwt beam="1">  1       21 0.79303191E-01 0.49096048E+03</pdfrwt>
<pdfrwt beam="2">  1       21 0.84207776E-01 0.49096048E+03</pdfrwt>
<totfact> 0.14505387E+03</totfact>
</mgrwt>
</event>
<event>
 4    1  0.4676529E-002  0.4160865E+03  0.7818608E-02  0.1038348E+00
         21   -1    0    0  503  502  0.00000000000E+00  0.00000000000E+00  0.22341511409E+04  0.22341511409E+04  0.00000000000E+00 0.  1.
         21   -1    0    0  501  503 -0.00000000000E+00 -0.00000000000E+00 -0.12506679913E+03  0.12506679913E+03  0.00000000000E+00 0.  1.
    9000007    1    1    2  501    0  0.54277361136E+02 -0.10090576646E+03  0.32700156814E+03  0.52920509371E+03  0.40000000000E+03 0.  1.
   -9000007    1    1    2    0  502 -0.54277361136E+02  0.10090576646E+03  0.17820827737E+04  0.18300128464E+04  0.40000000000E+03 0.  1.
<mgrwt>
<rscale>  2 0.41608654E+03</rscale>
<asrwt>0</asrwt>
<pdfrwt beam="1">  1       21 0.34371553E+00 0.41608654E+03</pdfrwt>
<pdfrwt beam="2">  1       21 0.19241048E-01 0.41608654E+03</pdfrwt>
<totfact> 0.37744295E+02</totfact>
</mgrwt>
</event>
<event>
 4    1  0.4676529E-002  0.4484184E+03  0.7818608E-02  0.1028195E+00
         21   -1    0    0  501  502  0.00000000000E+00  0.00000000000E+00  0.42759560393E+03  0.42759560393E+03  0.00000000000E+00 0. -1.
         21   -1    0    0  502  503 -0.00000000000E+00 -0.00000000000E+00 -0.68050960775E+03  0.68050960775E+03  0.00000000000E+00 0.  1.
    9000007    1    1    2  501    0 -0.99538475062E+02 -0.17655364908E+03  0.18151151560E+03  0.48376185186E+03  0.40000000000E+03 0. -1.
   -9000007    1    1    2    0  503  0.99538475062E+02  0.17655364908E+03 -0.43442551942E+03  0.62434335982E+03  0.40000000000E+03 0.  1.
<mgrwt>
<rscale>  2 0.44841844E+03</rscale>
<asrwt>0</asrwt>
<pdfrwt beam="1">  1       21 0.65783939E-01 0.44841844E+03</pdfrwt>
<pdfrwt beam="2">  1       21 0.10469379E+00 0.44841844E+03</pdfrwt>
<totfact> 0.13366265E+03</totfact>
</mgrwt>
</event>
<event>
 4    1  0.4676529E-002  0.4885409E+03  0.7818608E-02  0.1016814E+00
         21   -1    0    0  501  502  0.00000000000E+00  0.00000000000E+00  0.66831361202E+03  0.66831361202E+03  0.00000000000E+00 0. -1.
         21   -1    0    0  502  503 -0.00000000000E+00 -0.00000000000E+00 -0.45378837647E+03  0.45378837647E+03  0.00000000000E+00 0. -1.
    9000007    1    1    2  501    0 -0.23303310576E+03  0.15610183880E+03 -0.15168041721E+03  0.51154585466E+03  0.40000000000E+03 0. -1.
   -9000007    1    1    2    0  503  0.23303310576E+03 -0.15610183880E+03  0.36620565275E+03  0.61055613383E+03  0.40000000000E+03 0. -1.
<mgrwt>
<rscale>  2 0.48854090E+03</rscale>
<asrwt>0</asrwt>
<pdfrwt beam="1">  1       21 0.10281748E+00 0.48854090E+03</pdfrwt>
<pdfrwt beam="2">  1       21 0.69813596E-01 0.48854090E+03</pdfrwt>
<totfact> 0.12042371E+03</totfact>
</mgrwt>
</event>
<event>
 4    1  0.4676529E-002  0.5372386E+03  0.7818608E-02  0.1004492E+00
         21   -1    0    0  501  502  0.00000000000E+00  0.00000000000E+00  0.32914464607E+03  0.32914464607E+03  0.00000000000E+00 0. -1.
         21   -1    0    0  502  503 -0.00000000000E+00 -0.00000000000E+00 -0.92696068119E+03  0.92696068119E+03  0.00000000000E+00 0. -1.
    9000007    1    1    2  501    0 -0.35678861723E+03  0.36430372711E+02 -0.15294745266E+03  0.55858590451E+03  0.40000000000E+03 0. -1.
   -9000007    1    1    2    0  503  0.35678861723E+03 -0.36430372711E+02 -0.44486858246E+03  0.69751942274E+03  0.40000000000E+03 0. -1.
<mgrwt>
<rscale>  2 0.53723858E+03</rscale>
<asrwt>0</asrwt>
<pdfrwt beam="1">  1       21 0.50637639E-01 0.53723858E+03</pdfrwt>
<pdfrwt beam="2">  1       21 0.14260933E+00 0.53723858E+03</pdfrwt>
<totfact> 0.10368531E+03</totfact>
</mgrwt>
</event>
<event>
 4    1  0.4676529E-002  0.4474837E+03  0.7818608E-02  0.1028475E+00
         21   -1    0    0  501  502  0.00000000000E+00  0.00000000000E+00  0.14585590264E+03  0.14585590264E+03  0.00000000000E+00 0.  1.
         21   -1    0    0  502  503 -0.00000000000E+00 -0.00000000000E+00 -0.20903763202E+04  0.20903763202E+04  0.00000000000E+00 0.  1.
    9000007    1    1    2  501    0  0.55783297316E+02 -0.19269105079E+03 -0.31719180546E+03  0.54850000799E+03  0.40000000000E+03 0.  1.
   -9000007    1    1    2    0  503 -0.55783297316E+02  0.19269105079E+03 -0.16273286121E+04  0.16877322148E+04  0.40000000000E+03 0.  1.
<mgrwt>
<rscale>  2 0.44748365E+03</rscale>
<asrwt>0</asrwt>
<pdfrwt beam="1">  1       21 0.22439372E-01 0.44748365E+03</pdfrwt>
<pdfrwt beam="2">  1       21 0.32159632E+00 0.44748365E+03</pdfrwt>
<totfact> 0.37573870E+02</totfact>
</mgrwt>
</event>
<event>
 4    1  0.4676529E-002  0.4203534E+03  0.7818608E-02  0.1036951E+00
         21   -1    0    0  503  502  0.00000000000E+00  0.00000000000E+00  0.11151991357E+03  0.11151991357E+03  0.00000000000E+00 0. -1.
         21   -1    0    0  501  503 -0.00000000000E+00 -0.00000000000E+00 -0.16826492130E+04  0.16826492130E+04  0.00000000000E+00 0. -1.
    9000007    1    1    2  501    0  0.12921004267E+03 -0.13221236657E+01 -0.10022878196E+04  0.10868660710E+04  0.40000000000E+03 0. -1.
   -9000007    1    1    2    0  502 -0.12921004267E+03  0.13221236657E+01 -0.56884147985E+03  0.70730305551E+03  0.40000000000E+03 0. -1.
<mgrwt>
<rscale>  2 0.42035340E+03</rscale>
<asrwt>0</asrwt>
<pdfrwt beam="1">  1       21 0.17156911E-01 0.42035340E+03</pdfrwt>
<pdfrwt beam="2">  1       21 0.25886909E+00 0.42035340E+03</pdfrwt>
<totfact> 0.15154387E+03</totfact>
</mgrwt>
</event>
<event>
 4    1  0.4676529E-002  0.4435060E+03  0.7818608E-02  0.1029677E+00
         21   -1    0    0  501  502  0.00000000000E+00  0.00000000000E+00  0.36332847524E+03  0.36332847524E+03  0.00000000000E+00 0. -1.
         21   -1    0    0  502  503 -0.00000000000E+00 -0.00000000000E+00 -0.60248676483E+03  0.60248676483E+03  0.00000000000E+00 0. -1.
    9000007    1    1    2  501    0 -0.19152849625E+03  0.37900338938E+01  0.34217578618E+02  0.44482397858E+03  0.40000000000E+03 0. -1.
   -9000007    1    1    2    0  503  0.19152849625E+03 -0.37900338938E+01 -0.27337586821E+03  0.52099126149E+03  0.40000000000E+03 0. -1.
<mgrwt>
<rscale>  2 0.44350595E+03</rscale>
<asrwt>0</asrwt>
<pdfrwt beam="1">  1       21 0.55896689E-01 0.44350595E+03</pdfrwt>
<pdfrwt beam="2">  1       21 0.92690270E-01 0.44350595E+03</pdfrwt>
<totfact> 0.25710912E+03</totfact>
</mgrwt>
</event>
<event>
 4    1  0.4676529E-002  0.4396199E+03  0.7818608E-02  0.1030863E+00
         21   -1    0    0  503  502  0.00000000000E+00  0.00000000000E+00  0.17629165474E+04  0.17629165474E+04  0.00000000000E+00 0. -1.
         21   -1    0    0  501  503 -0.00000000000E+00 -0.00000000000E+00 -0.16753054060E+03  0.16753054060E+03  0.00000000000E+00 0. -1.
    9000007    1    1    2  501    0  0.18143827578E+03 -0.18596622665E+02  0.23024208564E+03  0.49626313614E+03  0.40000000000E+03 0. -1.
   -9000007    1    1    2    0  502 -0.18143827578E+03  0.18596622665E+02  0.13651439212E+04  0.14341839519E+04  0.40000000000E+03 0. -1.
<mgrwt>
<rscale>  2 0.43961993E+03</rscale>
<asrwt>0</asrwt>
<pdfrwt beam="1">  1       21 0.27121792E+00 0.43961993E+03</pdfrwt>
<pdfrwt beam="2">  1       21 0.25773931E-01 0.43961993E+03</pdfrwt>
<totfact> 0.58007713E+02</totfact>
</mgrwt>
</event>
<event>
 4    1  0.4676529E-002  0.4213237E+03  0.7818608E-02  0.1036636E+00
         21   -1    0    0  501  502  0.00000000000E+00  0.00000000000E+00  0.13972582236E+04  0.13972582236E+04  0.00000000000E+00 0.  1.
         21   -1    0    0  502  503 -0.00000000000E+00 -0.00000000000E+00 -0.20934936106E+03  0.20934936106E+03  0.00000000000E+00 0. -1.
    9000007    1    1    2  501    0  0.13118274129E+03 -0.17456010017E+02  0.10976375535E+04  0.11757218305E+04  0.40000000000E+03 0.  1.
   -9000007    1    1    2    0  503 -0.13118274129E+03  0.17456010017E+02  0.90271309057E+02  0.43088575416E+03  0.40000000000E+03 0. -1.
<mgrwt>
<rscale>  2 0.42132366E+03</rscale>
<asrwt>0</asrwt>
<pdfrwt beam="1">  1       21 0.21496280E+00 0.42132366E+03</pdfrwt>
<pdfrwt beam="2">  1       21 0.32207595E-01 0.42132366E+03</pdfrwt>
<totfact> 0.84140181E+02</totfact>
</mgrwt>
</event>
<event>
 4    1  0.4676529E-002  0.4095394E+03  0.7818608E-02  0.1040526E+00
         21   -1    0    0  503  502  0.00000000000E+00  0.00000000000E+00  0.14664889992E+03  0.14664889992E+03  0.00000000000E+00 0. -1.
         21   -1    0    0  501  503 -0.00000000000E+00 -0.00000000000E+00 -0.19675953811E+04  0.19675953811E+04  0.00000000000E+00 0. -1.
    9000007    1    1    2  501    0 -0.54843532321E+02 -0.68663501622E+02 -0.15945314344E+04  0.16462846001E+04  0.40000000000E+03 0. -1.
   -9000007    1    1    2    0  502  0.54843532321E+02  0.68663501622E+02 -0.22641504680E+03  0.46795968086E+03  0.40000000000E+03 0. -1.
<mgrwt>
<rscale>  2 0.40953936E+03</rscale>
<asrwt>0</asrwt>
<pdfrwt beam="1">  1       21 0.22561370E-01 0.40953936E+03</pdfrwt>
<pdfrwt beam="2">  1       21 0.30270697E+00 0.40953936E+03</pdfrwt>
<totfact> 0.49425534E+02</totfact>
</mgrwt>
</event>
<event>
 4    1  0.4676529E-002  0.5016531E+03  0.7818608E-02  0.1013348E+00
         21   -1    0    0  501  502  0.00000000000E+00  0.00000000000E+00  0.10598985705E+04  0.10598985705E+04  0.00000000000E+00 0. -1.
         21   -1    0    0  502  503 -0.00000000000E+00 -0.00000000000E+00 -0.25578764261E+03  0.25578764261E+03  0.00000000000E+00 0. -1.
    9000007    1    1    2  501    0  0.13660752068E+03  0.27017447894E+03  0.57827121553E+03  0.76554128725E+03  0.40000000000E+03 0. -1.
   -9000007    1    1    2    0  503 -0.13660752068E+03 -0.27017447894E+03  0.22583971237E+03  0.55014492587E+03  0.40000000000E+03 0. -1.
<mgrwt>
<rscale>  2 0.50165313E+03</rscale>
<asrwt>0</asrwt>
<pdfrwt beam="1">  1       21 0.16306132E+00 0.50165313E+03</pdfrwt>
<pdfrwt beam="2">  1       21 0.39351946E-01 0.50165313E+03</pdfrwt>
<totfact> 0.12336177E+03</totfact>
</mgrwt>
</event>
<event>
 4    1  0.4676529E-002  0.4431880E+03  0.7818608E-02  0.1029773E+00
         21   -1    0    0  503  502  0.00000000000E+00  0.00000000000E+00  0.44386924165E+03  0.44386924165E+03  0.00000000000E+00 0. -1.
         21   -1    0    0  501  503 -0.00000000000E+00 -0.00000000000E+00 -0.46274622885E+03  0.46274622885E+03  0.00000000000E+00 0.  1.
    9000007    1    1    2  501    0 -0.14534054806E+03 -0.12365960796E+03 -0.10423902271E+03  0.45528161330E+03  0.40000000000E+03 0.  1.
   -9000007    1    1    2    0  502  0.14534054806E+03  0.12365960796E+03  0.85362035506E+02  0.45133385720E+03  0.40000000000E+03 0.  1.
<mgrwt>
<rscale>  2 0.44318797E+03</rscale>
<asrwt>0</asrwt>
<pdfrwt beam="1">  1       21 0.68287575E-01 0.44318797E+03</pdfrwt>
<pdfrwt beam="2">  1       21 0.71191728E-01 0.44318797E+03</pdfrwt>
<totfact> 0.30502330E+03</totfact>
</mgrwt>
</event>
<event>
 4    1  0.4676529E-002  0.4308120E+03  0.7818608E-02  0.1033604E+00
         21   -1    0    0  501  502  0.00000000000E+00  0.00000000000E+00  0.12580805704E+04  0.12580805704E+04  0.00000000000E+00 0. -1.
         21   -1    0    0  502  503 -0.00000000000E+00 -0.00000000000E+00 -0.14753787120E+03  0.14753787120E+03  0.00000000000E+00 0. -1.
    9000007    1    1    2  501    0  0.15421788268E+03 -0.42612207441E+02  0.56170897763E+03  0.70789542385E+03  0.40000000000E+03 0. -1.
   -9000007    1    1    2    0  503 -0.15421788268E+03  0.42612207441E+02  0.54883372156E+03  0.69772301773E+03  0.40000000000E+03 0. -1.
<mgrwt>
<rscale>  2 0.43081197E+03</rscale>
<asrwt>0</asrwt>
<pdfrwt beam="1">  1       21 0.19355085E+00 0.43081197E+03</pdfrwt>
<pdfrwt beam="2">  1       21 0.22698135E-01 0.43081197E+03</pdfrwt>
<totfact> 0.23031745E+03</totfact>
</mgrwt>
</event>
<event>
 4    1  0.4676529E-002  0.4447856E+03  0.7818608E-02  0.1029289E+00
         21   -1    0    0  503  502  0.00000000000E+00  0.00000000000E+00  0.22250077990E+04  0.22250077990E+04  0.00000000000E+00 0.  1.
         21   -1    0    0  501  503 -0.00000000000E+00 -0.00000000000E+00 -0.14518656029E+03  0.14518656029E+03  0.00000000000E+00 0.  1.
    9000007    1    1    2  501    0 -0.58631756155E+02 -0.18546304219E+03  0.30210951123E+03  0.53768427504E+03  0.40000000000E+03 0.  1.
   -9000007    1    1    2    0  502  0.58631756155E+02  0.18546304219E+03  0.17777117274E+04  0.18325100842E+04  0.40000000000E+03 0.  1.
<mgrwt>
<rscale>  2 0.44478559E+03</rscale>
<asrwt>0</asrwt>
<pdfrwt beam="1">  1       21 0.34230887E+00 0.44478559E+03</pdfrwt>
<pdfrwt beam="2">  1       21 0.22336395E-01 0.44478559E+03</pdfrwt>
<totfact> 0.28430402E+02</totfact>
</mgrwt>
</event>
<event>
 4    1  0.4676529E-002  0.5119639E+03  0.7818608E-02  0.1010703E+00
         21   -1    0    0  501  502  0.00000000000E+00  0.00000000000E+00  0.35999785930E+03  0.35999785930E+03  0.00000000000E+00 0.  1.
         21   -1    0    0  502  503 -0.00000000000E+00 -0.00000000000E+00 -0.88889517217E+03  0.88889517217E+03  0.00000000000E+00 0.  1.
    9000007    1    1    2  501    0 -0.26145668442E+03  0.18370467711E+03  0.11551930303E+01  0.51196517527E+03  0.40000000000E+03 0.  1.
   -9000007    1    1    2    0  503  0.26145668442E+03 -0.18370467711E+03 -0.53005250590E+03  0.73692785619E+03  0.40000000000E+03 0.  1.
<mgrwt>
<rscale>  2 0.51196387E+03</rscale>
<asrwt>0</asrwt>
<pdfrwt beam="1">  1       21 0.55384286E-01 0.51196387E+03</pdfrwt>
<pdfrwt beam="2">  1       21 0.13675310E+00 0.51196387E+03</pdfrwt>
<totfact> 0.96502335E+02</totfact>
</mgrwt>
</event>
<event>
 4    1  0.4676529E-002  0.4547085E+03  0.7818608E-02  0.1026327E+00
         21   -1    0    0  501  502  0.00000000000E+00  0.00000000000E+00  0.13927244341E+04  0.13927244341E+04  0.00000000000E+00 0.  1.
         21   -1    0    0  502  503 -0.00000000000E+00 -0.00000000000E+00 -0.26734044939E+03  0.26734044939E+03  0.00000000000E+00 0.  1.
    9000007    1    1    2  501    0  0.10254919823E+03  0.19037721753E+03  0.11161991691E+04  0.12052636260E+04  0.40000000000E+03 0.  1.
   -9000007    1    1    2    0  503 -0.10254919823E+03 -0.19037721753E+03  0.91848156307E+01  0.45480125753E+03  0.40000000000E+03 0.  1.
<mgrwt>
<rscale>  2 0.45470850E+03</rscale>
<asrwt>0</asrwt>
<pdfrwt beam="1">  1       21 0.21426529E+00 0.45470850E+03</pdfrwt>
<pdfrwt beam="2">  1       21 0.41129301E-01 0.45470850E+03</pdfrwt>
<totfact> 0.50851845E+02</totfact>
</mgrwt>
</event>
<event>
 4    1  0.4676529E-002  0.7956841E+03  0.7818608E-02  0.9566285E-01
         21   -1    0    0  501  502  0.00000000000E+00  0.00000000000E+00  0.23396637440E+04  0.23396637440E+04  0.00000000000E+00 0. -1.
         21   -1    0    0  502  503 -0.00000000000E+00 -0.00000000000E+00 -0.56035005581E+03  0.56035005581E+03  0.00000000000E+00 0.  1.
    9000007    1    1    2  501    0  0.61886232424E+03 -0.30020426592E+03  0.19323393074E+04  0.20897484003E+04  0.40000000000E+03 0. -1.
   -9000007    1    1    2    0  503 -0.61886232424E+03  0.30020426592E+03 -0.15302561914E+03  0.81026539958E+03  0.40000000000E+03 0.  1.
<mgrwt>
<rscale>  2 0.79568409E+03</rscale>
<asrwt>0</asrwt>
<pdfrwt beam="1">  1       21 0.35994826E+00 0.79568409E+03</pdfrwt>
<pdfrwt beam="2">  1       21 0.86207702E-01 0.79568409E+03</pdfrwt>
<totfact> 0.10614875E+01</totfact>
</mgrwt>
</event>
<event>
 4    1  0.4676529E-002  0.6851141E+03  0.7818608E-02  0.9743033E-01
         21   -1    0    0  501  502  0.00000000000E+00  0.00000000000E+00  0.87090037242E+03  0.87090037242E+03  0.00000000000E+00 0. -1.
         21   -1    0    0  502  503 -0.00000000000E+00 -0.00000000000E+00 -0.71884505251E+03  0.71884505251E+03  0.00000000000E+00 0.  1.
    9000007    1    1    2  501    0  0.32781813495E+03  0.44935135641E+03  0.47365498946E+03  0.83290480858E+03  0.40000000000E+03 0. -1.
   -9000007    1    1    2    0  503 -0.32781813495E+03 -0.44935135641E+03 -0.32159966954E+03  0.75684061636E+03  0.40000000000E+03 0.  1.
<mgrwt>
<rscale>  2 0.68511413E+03</rscale>
<asrwt>0</asrwt>
<pdfrwt beam="1">  1       21 0.13398467E+00 0.68511413E+03</pdfrwt>
<pdfrwt beam="2">  1       21 0.11059155E+00 0.68511413E+03</pdfrwt>
<totfact> 0.19228689E+02</totfact>
</mgrwt>
</event>
<event>
 4    1  0.4676529E-002  0.4139015E+03  0.7818608E-02  0.1039070E+00
         21   -1    0    0  503  502  0.00000000000E+00  0.00000000000E+00  0.52653497870E+03  0.52653497870E+03  0.00000000000E+00 0. -1.
         21   -1    0    0  501  503 -0.00000000000E+00 -0.00000000000E+00 -0.42145557097E+03  0.42145557097E+03  0.00000000000E+00 0. -1.
    9000007    1    1    2  501    0 -0.10550763081E+03 -0.13511731357E+02 -0.17379204519E+03  0.44890767650E+03  0.40000000000E+03 0.  1.
   -9000007    1    1    2    0  502  0.10550763081E+03  0.13511731357E+02  0.27887145292E+03  0.49908287317E+03  0.40000000000E+03 0.  1.
<mgrwt>
<rscale>  2 0.41390147E+03</rscale>
<asrwt>0</asrwt>
<pdfrwt beam="1">  1       21 0.81005381E-01 0.41390147E+03</pdfrwt>
<pdfrwt beam="2">  1       21 0.64839319E-01 0.41390147E+03</pdfrwt>
<totfact> 0.25771713E+03</totfact>
</mgrwt>
</event>
<event>
 4    1  0.4676529E-002  0.5152484E+03  0.7818608E-02  0.1009874E+00
         21   -1    0    0  503  502  0.00000000000E+00  0.00000000000E+00  0.53810743118E+03  0.53810743118E+03  0.00000000000E+00 0. -1.
         21   -1    0    0  501  503 -0.00000000000E+00 -0.00000000000E+00 -0.54369793846E+03  0.54369793846E+03  0.00000000000E+00 0.  1.
    9000007    1    1    2  501    0  0.32249426521E+03  0.38449329004E+02  0.16178822794E+03  0.54005215738E+03  0.40000000000E+03 0. -1.
   -9000007    1    1    2    0  502 -0.32249426521E+03 -0.38449329004E+02 -0.16737873521E+03  0.54175321226E+03  0.40000000000E+03 0.  1.
<mgrwt>
<rscale>  2 0.51524839E+03</rscale>
<asrwt>0</asrwt>
<pdfrwt beam="1">  1       21 0.82785759E-01 0.51524839E+03</pdfrwt>
<pdfrwt beam="2">  1       21 0.83645836E-01 0.51524839E+03</pdfrwt>
<totfact> 0.13223049E+03</totfact>
</mgrwt>
</event>
<event>
 4    1  0.4676529E-002  0.4533550E+03  0.7818608E-02  0.1026726E+00
         21   -1    0    0  503  502  0.00000000000E+00  0.00000000000E+00  0.39692763769E+03  0.39692763769E+03  0.00000000000E+00 0.  1.
         21   -1    0    0  501  503 -0.00000000000E+00 -0.00000000000E+00 -0.11031230287E+04  0.11031230287E+04  0.00000000000E+00 0.  1.
    9000007    1    1    2  501    0  0.55070114682E+01 -0.21330822431E+03 -0.89943426578E+03  0.10072302240E+04  0.40000000000E+03 0.  1.
   -9000007    1    1    2    0  502 -0.55070114682E+01  0.21330822431E+03  0.19323887474E+03  0.49282044240E+03  0.40000000000E+03 0.  1.
<mgrwt>
<rscale>  2 0.45335497E+03</rscale>
<asrwt>0</asrwt>
<pdfrwt beam="1">  1       21 0.61065791E-01 0.45335497E+03</pdfrwt>
<pdfrwt beam="2">  1       21 0.16971123E+00 0.45335497E+03</pdfrwt>
<totfact> 0.44193562E+02</totfact>
</mgrwt>
</event>
<event>
 4    1  0.4676529E-002  0.4601352E+03  0.7818608E-02  0.1024742E+00
         21   -1    0    0  501  502  0.00000000000E+00  0.00000000000E+00  0.44917214247E+03  0.44917214247E+03  0.00000000000E+00 0. -1.
         21   -1    0    0  502  503 -0.00000000000E+00 -0.00000000000E+00 -0.47137279151E+03  0.47137279151E+03  0.00000000000E+00 0. -1.
    9000007    1    1    2  501    0 -0.18325328944E+03 -0.13469445352E+03 -0.12879257966E+02  0.46031536927E+03  0.40000000000E+03 0. -1.
   -9000007    1    1    2    0  503  0.18325328944E+03  0.13469445352E+03 -0.93213910781E+01  0.46022956471E+03  0.40000000000E+03 0. -1.
<mgrwt>
<rscale>  2 0.46013516E+03</rscale>
<asrwt>0</asrwt>
<pdfrwt beam="1">  1       21 0.69103407E-01 0.46013516E+03</pdfrwt>
<pdfrwt beam="2">  1       21 0.72518891E-01 0.46013516E+03</pdfrwt>
<totfact> 0.28314015E+03</totfact>
</mgrwt>
</event>
<event>
 4    1  0.4676529E-002  0.4194591E+03  0.7818608E-02  0.1037242E+00
         21   -1    0    0  503  502  0.00000000000E+00  0.00000000000E+00  0.40337858598E+03  0.40337858598E+03  0.00000000000E+00 0. -1.
         21   -1    0    0  501  503 -0.00000000000E+00 -0.00000000000E+00 -0.88383207761E+03  0.88383207761E+03  0.00000000000E+00 0. -1.
    9000007    1    1    2  501    0 -0.22006955545E+02 -0.12434473877E+03 -0.69826817045E+03  0.81457004488E+03  0.40000000000E+03 0. -1.
   -9000007    1    1    2    0  502  0.22006955545E+02  0.12434473877E+03  0.21781467882E+03  0.47264061872E+03  0.40000000000E+03 0. -1.
<mgrwt>
<rscale>  2 0.41945908E+03</rscale>
<asrwt>0</asrwt>
<pdfrwt beam="1">  1       21 0.62058245E-01 0.41945908E+03</pdfrwt>
<pdfrwt beam="2">  1       21 0.13597416E+00 0.41945908E+03</pdfrwt>
<totfact> 0.79399747E+02</totfact>
</mgrwt>
</event>
<event>
 4    1  0.4676529E-002  0.4285603E+03  0.7818608E-02  0.1034316E+00
         21   -1    0    0  501  502  0.00000000000E+00  0.00000000000E+00  0.18169170757E+04  0.18169170757E+04  0.00000000000E+00 0. -1.
         21   -1    0    0  502  503 -0.00000000000E+00 -0.00000000000E+00 -0.11507299989E+03  0.11507299989E+03  0.00000000000E+00 0. -1.
    9000007    1    1    2  501    0  0.14273287605E+03  0.57369357604E+02  0.51413242633E+03  0.66932508462E+03  0.40000000000E+03 0. -1.
   -9000007    1    1    2    0  503 -0.14273287605E+03 -0.57369357604E+02  0.11877116495E+04  0.12626649910E+04  0.40000000000E+03 0. -1.
<mgrwt>
<rscale>  2 0.42856028E+03</rscale>
<asrwt>0</asrwt>
<pdfrwt beam="1">  1       21 0.27952568E+00 0.42856028E+03</pdfrwt>
<pdfrwt beam="2">  1       21 0.17703540E-01 0.42856028E+03</pdfrwt>
<totfact> 0.10673651E+03</totfact>
</mgrwt>
</event>
<event>
 4    1  0.4676529E-002  0.4235058E+03  0.7818608E-02  0.1035931E+00
         21   -1    0    0  503  502  0.00000000000E+00  0.00000000000E+00  0.35931116932E+03  0.35931116932E+03  0.00000000000E+00 0. -1.
         21   -1    0    0  501  503 -0.00000000000E+00 -0.00000000000E+00 -0.52178990549E+03  0.52178990549E+03  0.00000000000E+00 0. -1.
    9000007    1    1    2  501    0  0.46262801697E+02  0.13121338956E+03 -0.17296642492E+03  0.45746539167E+03  0.40000000000E+03 0. -1.
   -9000007    1    1    2    0  502 -0.46262801697E+02 -0.13121338956E+03  0.10487688758E+02  0.42363568315E+03  0.40000000000E+03 0. -1.
<mgrwt>
<rscale>  2 0.42350584E+03</rscale>
<asrwt>0</asrwt>
<pdfrwt beam="1">  1       21 0.55278641E-01 0.42350584E+03</pdfrwt>
<pdfrwt beam="2">  1       21 0.80275370E-01 0.42350584E+03</pdfrwt>
<totfact> 0.37169712E+03</totfact>
</mgrwt>
</event>
<event>
 4    1  0.4676529E-002  0.4813268E+03  0.7818608E-02  0.1018771E+00
         21   -1    0    0  501  502  0.00000000000E+00  0.00000000000E+00  0.40383738003E+03  0.40383738003E+03  0.00000000000E+00 0. -1.
         21   -1    0    0  502  503 -0.00000000000E+00 -0.00000000000E+00 -0.57408984909E+03  0.57408984909E+03  0.00000000000E+00 0. -1.
    9000007    1    1    2  501    0 -0.92479050376E+02  0.25124316955E+03 -0.98108683366E+02  0.49122379702E+03  0.40000000000E+03 0. -1.
   -9000007    1    1    2    0  503  0.92479050376E+02 -0.25124316955E+03 -0.72143785696E+02  0.48670343210E+03  0.40000000000E+03 0. -1.
<mgrwt>
<rscale>  2 0.48132682E+03</rscale>
<asrwt>0</asrwt>
<pdfrwt beam="1">  1       21 0.62128828E-01 0.48132682E+03</pdfrwt>
<pdfrwt beam="2">  1       21 0.88321515E-01 0.48132682E+03</pdfrwt>
<totfact> 0.22575368E+03</totfact>
</mgrwt>
</event>
<event>
 4    1  0.4676529E-002  0.4596670E+03  0.7818608E-02  0.1024878E+00
         21   -1    0    0  503  502  0.00000000000E+00  0.00000000000E+00  0.81653983646E+02  0.81653983646E+02  0.00000000000E+00 0.  1.
         21   -1    0    0  501  503 -0.00000000000E+00 -0.00000000000E+00 -0.25994756834E+04  0.25994756834E+04  0.00000000000E+00 0. -1.
    9000007    1    1    2  501    0 -0.18343564792E+03  0.13283482642E+03 -0.13492453243E+04  0.14253970230E+04  0.40000000000E+03 0.  1.
   -9000007    1    1    2    0  502  0.18343564792E+03 -0.13283482642E+03 -0.11685763754E+04  0.12557326440E+04  0.40000000000E+03 0. -1.
<mgrwt>
<rscale>  2 0.45966698E+03</rscale>
<asrwt>0</asrwt>
<pdfrwt beam="1">  1       21 0.12562150E-01 0.45966698E+03</pdfrwt>
<pdfrwt beam="2">  1       21 0.39991938E+00 0.45966698E+03</pdfrwt>
<totfact> 0.36151626E+02</totfact>
</mgrwt>
</event>
<event>
 4    1  0.4676529E-002  0.4301919E+03  0.7818608E-02  0.1033799E+00
         21   -1    0    0  501  502  0.00000000000E+00  0.00000000000E+00  0.11674439849E+04  0.11674439849E+04  0.00000000000E+00 0. -1.
         21   -1    0    0  502  503 -0.00000000000E+00 -0.00000000000E+00 -0.19407714576E+03  0.19407714576E+03  0.00000000000E+00 0. -1.
    9000007    1    1    2  501    0 -0.14476369463E+03  0.64097720878E+02  0.77806432811E+03  0.88907206895E+03  0.40000000000E+03 0. -1.
   -9000007    1    1    2    0  503  0.14476369463E+03 -0.64097720878E+02  0.19530251104E+03  0.47244906172E+03  0.40000000000E+03 0. -1.
<mgrwt>
<rscale>  2 0.43019187E+03</rscale>
<asrwt>0</asrwt>
<pdfrwt beam="1">  1       21 0.17960676E+00 0.43019187E+03</pdfrwt>
<pdfrwt beam="2">  1       21 0.29858023E-01 0.43019187E+03</pdfrwt>
<totfact> 0.16828414E+03</totfact>
</mgrwt>
</event>
<event>
 4    1  0.4676529E-002  0.4359524E+03  0.7818608E-02  0.1031996E+00
         21   -1    0    0  501  502  0.00000000000E+00  0.00000000000E+00  0.32342620353E+04  0.32342620353E+04  0.00000000000E+00 0. -1.
         21   -1    0    0  502  503 -0.00000000000E+00 -0.00000000000E+00 -0.62189394292E+02  0.62189394292E+02  0.00000000000E+00 0. -1.
    9000007    1    1    2  501    0  0.50318475698E+02 -0.16589914129E+03  0.19729252652E+04  0.20205169082E+04  0.40000000000E+03 0. -1.
   -9000007    1    1    2    0  503 -0.50318475698E+02  0.16589914129E+03  0.11991473758E+04  0.12759345214E+04  0.40000000000E+03 0. -1.
<mgrwt>
<rscale>  2 0.43595238E+03</rscale>
<asrwt>0</asrwt>
<pdfrwt beam="1">  1       21 0.49757864E+00 0.43595238E+03</pdfrwt>
<pdfrwt beam="2">  1       21 0.95676016E-02 0.43595238E+03</pdfrwt>
<totfact> 0.13149211E+02</totfact>
</mgrwt>
</event>
<event>
 4    1  0.4676529E-002  0.6862658E+03  0.7818608E-02  0.9741012E-01
         21   -1    0    0  503  502  0.00000000000E+00  0.00000000000E+00  0.59578305554E+03  0.59578305554E+03  0.00000000000E+00 0. -1.
         21   -1    0    0  501  503 -0.00000000000E+00 -0.00000000000E+00 -0.12412952226E+04  0.12412952226E+04  0.00000000000E+00 0. -1.
    9000007    1    1    2  501    0 -0.13479061187E+03 -0.54110280626E+03 -0.87630298648E+03  0.11130443298E+04  0.40000000000E+03 0. -1.
   -9000007    1    1    2    0  502  0.13479061187E+03  0.54110280626E+03  0.23079081942E+03  0.72403394832E+03  0.40000000000E+03 0. -1.
<mgrwt>
<rscale>  2 0.68626581E+03</rscale>
<asrwt>0</asrwt>
<pdfrwt beam="1">  1       21 0.91658932E-01 0.68626581E+03</pdfrwt>
<pdfrwt beam="2">  1       21 0.19096850E+00 0.68626581E+03</pdfrwt>
<totfact> 0.11178647E+02</totfact>
</mgrwt>
</event>
<event>
 4    1  0.4676529E-002  0.5105518E+03  0.7818608E-02  0.1011061E+00
         21   -1    0    0  503  502  0.00000000000E+00  0.00000000000E+00  0.10174507931E+04  0.10174507931E+04  0.00000000000E+00 0.  1.
         21   -1    0    0  501  503 -0.00000000000E+00 -0.00000000000E+00 -0.46811561387E+03  0.46811561387E+03  0.00000000000E+00 0.  1.
    9000007    1    1    2  501    0  0.72271304372E+02  0.30893358183E+03 -0.22510776764E+03  0.55797545329E+03  0.40000000000E+03 0.  1.
   -9000007    1    1    2    0  502 -0.72271304372E+02 -0.30893358183E+03  0.77444294692E+03  0.92759095373E+03  0.40000000000E+03 0.  1.
<mgrwt>
<rscale>  2 0.51055176E+03</rscale>
<asrwt>0</asrwt>
<pdfrwt beam="1">  1       21 0.15653089E+00 0.51055176E+03</pdfrwt>
<pdfrwt beam="2">  1       21 0.72017787E-01 0.51055176E+03</pdfrwt>
<totfact> 0.37402888E+02</totfact>
</mgrwt>
</event>
<event>
 4    1  0.4676529E-002  0.4272858E+03  0.7818608E-02  0.1034721E+00
         21   -1    0    0  501  502  0.00000000000E+00  0.00000000000E+00  0.23977009619E+03  0.23977009619E+03  0.00000000000E+00 0. -1.
         21   -1    0    0  502  503 -0.00000000000E+00 -0.00000000000E+00 -0.83735774401E+03  0.83735774401E+03  0.00000000000E+00 0. -1.
    9000007    1    1    2  501    0 -0.15024341371E+03  0.31382125092E+00 -0.13664198116E+03  0.44860251098E+03  0.40000000000E+03 0. -1.
   -9000007    1    1    2    0  503  0.15024341371E+03 -0.31382125092E+00 -0.46094566667E+03  0.62852532921E+03  0.40000000000E+03 0. -1.
<mgrwt>
<rscale>  2 0.42728583E+03</rscale>
<asrwt>0</asrwt>
<pdfrwt beam="1">  1       21 0.36887707E-01 0.42728583E+03</pdfrwt>
<pdfrwt beam="2">  1       21 0.12882427E+00 0.42728583E+03</pdfrwt>
<totfact> 0.27336311E+03</totfact>
</mgrwt>
</event>
<event>
 4    1  0.4676529E-002  0.4427118E+03  0.7818608E-02  0.1029918E+00
         21   -1    0    0  503  502  0.00000000000E+00  0.00000000000E+00  0.22158676111E+04  0.22158676111E+04  0.00000000000E+00 0. -1.
         21   -1    0    0  501  503 -0.00000000000E+00 -0.00000000000E+00 -0.98064981247E+02  0.98064981247E+02  0.00000000000E+00 0. -1.
    9000007    1    1    2  501    0  0.17943981344E+03  0.61604311455E+02  0.69662876362E+03  0.82540012850E+03  0.40000000000E+03 0. -1.
   -9000007    1    1    2    0  502 -0.17943981344E+03 -0.61604311455E+02  0.14211738662E+04  0.14885324638E+04  0.40000000000E+03 0. -1.
<mgrwt>
<rscale>  2 0.44271180E+03</rscale>
<asrwt>0</asrwt>
<pdfrwt beam="1">  1       21 0.34090267E+00 0.44271180E+03</pdfrwt>
<pdfrwt beam="2">  1       21 0.15086922E-01 0.44271180E+03</pdfrwt>
<totfact> 0.60904528E+02</totfact>
</mgrwt>
</event>
<event>
 4    1  0.4676529E-002  0.4832586E+03  0.7818608E-02  0.1018243E+00
         21   -1    0    0  503  502  0.00000000000E+00  0.00000000000E+00  0.52712978849E+03  0.52712978849E+03  0.00000000000E+00 0.  1.
         21   -1    0    0  501  503 -0.00000000000E+00 -0.00000000000E+00 -0.44644529841E+03  0.44644529841E+03  0.00000000000E+00 0.  1.
    9000007    1    1    2  501    0  0.27086725949E+03  0.13032323516E+02  0.82864245077E+02  0.49031153039E+03  0.40000000000E+03 0.  1.
   -9000007    1    1    2    0  502 -0.27086725949E+03 -0.13032323516E+02 -0.21797549923E+01  0.48326355651E+03  0.40000000000E+03 0.  1.
<mgrwt>
<rscale>  2 0.48325864E+03</rscale>
<asrwt>0</asrwt>
<pdfrwt beam="1">  1       21 0.81096891E-01 0.48325864E+03</pdfrwt>
<pdfrwt beam="2">  1       21 0.68683892E-01 0.48325864E+03</pdfrwt>
<totfact> 0.22033646E+03</totfact>
</mgrwt>
</event>
<event>
 4    1  0.4676529E-002  0.4986839E+03  0.7818608E-02  0.1014123E+00
         21   -1    0    0  503  502  0.00000000000E+00  0.00000000000E+00  0.26134969181E+03  0.26134969181E+03  0.00000000000E+00 0.  1.
         21   -1    0    0  501  503 -0.00000000000E+00 -0.00000000000E+00 -0.10767468938E+04  0.10767468938E+04  0.00000000000E+00 0.  1.
    9000007    1    1    2  501    0 -0.14860921431E+03  0.25807147968E+03 -0.63584246441E+03  0.80807253805E+03  0.40000000000E+03 0.  1.
   -9000007    1    1    2    0  502  0.14860921431E+03 -0.25807147968E+03 -0.17955473757E+03  0.53002404755E+03  0.40000000000E+03 0.  1.
<mgrwt>
<rscale>  2 0.49868385E+03</rscale>
<asrwt>0</asrwt>
<pdfrwt beam="1">  1       21 0.40207645E-01 0.49868385E+03</pdfrwt>
<pdfrwt beam="2">  1       21 0.16565337E+00 0.49868385E+03</pdfrwt>
<totfact> 0.11299183E+03</totfact>
</mgrwt>
</event>
<event>
 4    1  0.4676529E-002  0.5502050E+03  0.7818608E-02  0.1001446E+00
         21   -1    0    0  503  502  0.00000000000E+00  0.00000000000E+00  0.37284823735E+03  0.37284823735E+03  0.00000000000E+00 0.  1.
         21   -1    0    0  501  503 -0.00000000000E+00 -0.00000000000E+00 -0.10335601644E+04  0.10335601644E+04  0.00000000000E+00 0.  1.
    9000007    1    1    2  501    0  0.25937034108E+03 -0.27468640235E+03 -0.65599078298E+03  0.85618310005E+03  0.40000000000E+03 0.  1.
   -9000007    1    1    2    0  502 -0.25937034108E+03  0.27468640235E+03 -0.47211441247E+01  0.55022530174E+03  0.40000000000E+03 0.  1.
<mgrwt>
<rscale>  2 0.55020505E+03</rscale>
<asrwt>0</asrwt>
<pdfrwt beam="1">  1       21 0.57361269E-01 0.55020505E+03</pdfrwt>
<pdfrwt beam="2">  1       21 0.15900925E+00 0.55020505E+03</pdfrwt>
<totfact> 0.58501911E+02</totfact>
</mgrwt>
</event>
<event>
 4    1  0.4676529E-002  0.4221644E+03  0.7818608E-02  0.1036364E+00
         21   -1    0    0  503  502  0.00000000000E+00  0.00000000000E+00  0.12668558513E+04  0.12668558513E+04  0.00000000000E+00 0.  1.
         21   -1    0    0  501  503 -0.00000000000E+00 -0.00000000000E+00 -0.19631949482E+03  0.19631949482E+03  0.00000000000E+00 0.  1.
    9000007    1    1    2  501    0  0.26651210870E+02 -0.13233477429E+03  0.14580030563E+03  0.44663240887E+03  0.40000000000E+03 0.  1.
   -9000007    1    1    2    0  502 -0.26651210870E+02  0.13233477429E+03  0.92473605087E+03  0.10165429373E+04  0.40000000000E+03 0.  1.
<mgrwt>
<rscale>  2 0.42216440E+03</rscale>
<asrwt>0</asrwt>
<pdfrwt beam="1">  1       21 0.19490090E+00 0.42216440E+03</pdfrwt>
<pdfrwt beam="2">  1       21 0.30203000E-01 0.42216440E+03</pdfrwt>
<totfact> 0.12955327E+03</totfact>
</mgrwt>
</event>
<event>
 4    1  0.4676529E-002  0.4217982E+03  0.7818608E-02  0.1036483E+00
         21   -1    0    0  501  502  0.00000000000E+00  0.00000000000E+00  0.31256662306E+03  0.31256662306E+03  0.00000000000E+00 0.  1.
         21   -1    0    0  502  503 -0.00000000000E+00 -0.00000000000E+00 -0.73955537180E+03  0.73955537180E+03  0.00000000000E+00 0.  1.
    9000007    1    1    2  501    0 -0.45812609048E+02  0.12575731539E+03  0.38984769643E+02  0.42359592749E+03  0.40000000000E+03 0.  1.
   -9000007    1    1    2    0  503  0.45812609048E+02 -0.12575731539E+03 -0.46597351839E+03  0.62852606737E+03  0.40000000000E+03 0.  1.
<mgrwt>
<rscale>  2 0.42179817E+03</rscale>
<asrwt>0</asrwt>
<pdfrwt beam="1">  1       21 0.48087173E-01 0.42179817E+03</pdfrwt>
<pdfrwt beam="2">  1       21 0.11377775E+00 0.42179817E+03</pdfrwt>
<totfact> 0.21681027E+03</totfact>
</mgrwt>
</event>
<event>
 4    1  0.4676529E-002  0.4583381E+03  0.7818608E-02  0.1025264E+00
         21   -1    0    0  503  502  0.00000000000E+00  0.00000000000E+00  0.18619175328E+04  0.18619175328E+04  0.00000000000E+00 0. -1.
         21   -1    0    0  501  503 -0.00000000000E+00 -0.00000000000E+00 -0.13063631154E+03  0.13063631154E+03  0.00000000000E+00 0.  1.
    9000007    1    1    2  501    0  0.19553357116E+03 -0.10881368809E+03  0.49778554152E+03  0.67665666443E+03  0.40000000000E+03 0.  1.
   -9000007    1    1    2    0  502 -0.19553357116E+03  0.10881368809E+03  0.12334956797E+04  0.13158971799E+04  0.40000000000E+03 0. -1.
<mgrwt>
<rscale>  2 0.45833808E+03</rscale>
<asrwt>0</asrwt>
<pdfrwt beam="1">  1       21 0.28644883E+00 0.45833808E+03</pdfrwt>
<pdfrwt beam="2">  1       21 0.20097896E-01 0.45833808E+03</pdfrwt>
<totfact> 0.75071039E+02</totfact>
</mgrwt>
</event>
<event>
 4    1  0.4676529E-002  0.4972505E+03  0.7818608E-02  0.1014499E+00
         21   -1    0    0  501  502  0.00000000000E+00  0.00000000000E+00  0.10637569929E+04  0.10637569929E+04  0.00000000000E+00 0. -1.
         21   -1    0    0  502  503 -0.00000000000E+00 -0.00000000000E+00 -0.31132471081E+03  0.31132471081E+03  0.00000000000E+00 0.  1.
    9000007    1    1    2  501    0  0.29403632917E+03  0.28296840174E+02  0.72230870960E+03  0.87691957784E+03  0.40000000000E+03 0. -1.
   -9000007    1    1    2    0  503 -0.29403632917E+03 -0.28296840174E+02  0.30123572489E+02  0.49816212588E+03  0.40000000000E+03 0.  1.
<mgrwt>
<rscale>  2 0.49725051E+03</rscale>
<asrwt>0</asrwt>
<pdfrwt beam="1">  1       21 0.16365492E+00 0.49725051E+03</pdfrwt>
<pdfrwt beam="2">  1       21 0.47896110E-01 0.49725051E+03</pdfrwt>
<totfact> 0.81131813E+02</totfact>
</mgrwt>
</event>
<event>
 4    1  0.4676529E-002  0.6647800E+03  0.7818608E-02  0.9779434E-01
         21   -1    0    0  501  502  0.00000000000E+00  0.00000000000E+00  0.75834267939E+03  0.75834267939E+03  0.00000000000E+00 0. -1.
         21   -1    0    0  502  503 -0.00000000000E+00 -0.00000000000E+00 -0.68126324735E+03  0.68126324735E+03  0.00000000000E+00 0.  1.
    9000007    1    1    2  501    0  0.48810293943E+03  0.20901668468E+03  0.31224265733E+03  0.73445757605E+03  0.40000000000E+03 0. -1.
   -9000007    1    1    2    0  503 -0.48810293943E+03 -0.20901668468E+03 -0.23516322529E+03  0.70514835070E+03  0.40000000000E+03 0. -1.
<mgrwt>
<rscale>  2 0.66478000E+03</rscale>
<asrwt>0</asrwt>
<pdfrwt beam="1">  1       21 0.11666810E+00 0.66478000E+03</pdfrwt>
<pdfrwt beam="2">  1       21 0.10480973E+00 0.66478000E+03</pdfrwt>
<totfact> 0.31716783E+02</totfact>
</mgrwt>
</event>
<event>
 4    1  0.4676529E-002  0.4394330E+03  0.7818608E-02  0.1030921E+00
         21   -1    0    0  503  502  0.00000000000E+00  0.00000000000E+00  0.47091536652E+03  0.47091536652E+03  0.00000000000E+00 0. -1.
         21   -1    0    0  501  503 -0.00000000000E+00 -0.00000000000E+00 -0.66732198258E+03  0.66732198258E+03  0.00000000000E+00 0. -1.
    9000007    1    1    2  501    0  0.17545861652E+03  0.48121489637E+02 -0.45157095352E+03  0.63009342953E+03  0.40000000000E+03 0. -1.
   -9000007    1    1    2    0  502 -0.17545861652E+03 -0.48121489637E+02  0.25516433746E+03  0.50814391956E+03  0.40000000000E+03 0. -1.
<mgrwt>
<rscale>  2 0.43943305E+03</rscale>
<asrwt>0</asrwt>
<pdfrwt beam="1">  1       21 0.72448518E-01 0.43943305E+03</pdfrwt>
<pdfrwt beam="2">  1       21 0.10266492E+00 0.43943305E+03</pdfrwt>
<totfact> 0.11333045E+03</totfact>
</mgrwt>
</event>
<event>
 4    1  0.4676529E-002  0.4277014E+03  0.7818608E-02  0.1034589E+00
         21   -1    0    0  501  502  0.00000000000E+00  0.00000000000E+00  0.86196283022E+03  0.86196283022E+03  0.00000000000E+00 0.  1.
         21   -1    0    0  502  503 -0.00000000000E+00 -0.00000000000E+00 -0.21847168331E+03  0.21847168331E+03  0.00000000000E+00 0. -1.
    9000007    1    1    2  501    0 -0.15083068004E+03  0.13363859928E+02  0.41310621128E+03  0.59463032936E+03  0.40000000000E+03 0.  1.
   -9000007    1    1    2    0  503  0.15083068004E+03 -0.13363859928E+02  0.23038493563E+03  0.48580418417E+03  0.40000000000E+03 0. -1.
<mgrwt>
<rscale>  2 0.42770140E+03</rscale>
<asrwt>0</asrwt>
<pdfrwt beam="1">  1       21 0.13260966E+00 0.42770140E+03</pdfrwt>
<pdfrwt beam="2">  1       21 0.33611029E-01 0.42770140E+03</pdfrwt>
<totfact> 0.30604306E+03</totfact>
</mgrwt>
</event>
<event>
 4    1  0.4676529E-002  0.4375766E+03  0.7818608E-02  0.1031493E+00
         21   -1    0    0  501  502  0.00000000000E+00  0.00000000000E+00  0.57997807833E+03  0.57997807833E+03  0.00000000000E+00 0.  1.
         21   -1    0    0  502  503 -0.00000000000E+00 -0.00000000000E+00 -0.46608137507E+03  0.46608137507E+03  0.00000000000E+00 0.  1.
    9000007    1    1    2  501    0 -0.17691860174E+03  0.13157955814E+02  0.33941884520E+03  0.55378558659E+03  0.40000000000E+03 0.  1.
   -9000007    1    1    2    0  503  0.17691860174E+03 -0.13157955814E+02 -0.22552214194E+03  0.49227386681E+03  0.40000000000E+03 0.  1.
<mgrwt>
<rscale>  2 0.43757665E+03</rscale>
<asrwt>0</asrwt>
<pdfrwt beam="1">  1       21 0.89227397E-01 0.43757665E+03</pdfrwt>
<pdfrwt beam="2">  1       21 0.71704827E-01 0.43757665E+03</pdfrwt>
<totfact> 0.16260695E+03</totfact>
</mgrwt>
</event>
<event>
 4    1  0.4676529E-002  0.4873039E+03  0.7818608E-02  0.1017147E+00
         21   -1    0    0  501  502  0.00000000000E+00  0.00000000000E+00  0.88229967108E+03  0.88229967108E+03  0.00000000000E+00 0. -1.
         21   -1    0    0  502  503 -0.00000000000E+00 -0.00000000000E+00 -0.26976229720E+03  0.26976229720E+03  0.00000000000E+00 0. -1.
    9000007    1    1    2  501    0 -0.13530859104E+03  0.24322146640E+03  0.33386042750E+03  0.59070117790E+03  0.40000000000E+03 0. -1.
   -9000007    1    1    2    0  503  0.13530859104E+03 -0.24322146640E+03  0.27867694637E+03  0.56136079037E+03  0.40000000000E+03 0. -1.
<mgrwt>
<rscale>  2 0.48730391E+03</rscale>
<asrwt>0</asrwt>
<pdfrwt beam="1">  1       21 0.13573841E+00 0.48730391E+03</pdfrwt>
<pdfrwt beam="2">  1       21 0.41501892E-01 0.48730391E+03</pdfrwt>
<totfact> 0.18304914E+03</totfact>
</mgrwt>
</event>
<event>
 4    1  0.4676529E-002  0.4382424E+03  0.7818608E-02  0.1031287E+00
         21   -1    0    0  503  502  0.00000000000E+00  0.00000000000E+00  0.31562563016E+03  0.31562563016E+03  0.00000000000E+00 0.  1.
         21   -1    0    0  501  503 -0.00000000000E+00 -0.00000000000E+00 -0.96357747990E+03  0.96357747990E+03  0.00000000000E+00 0. -1.
    9000007    1    1    2  501    0  0.76387612590E+02 -0.16193012026E+03 -0.71224354523E+03  0.83626987207E+03  0.40000000000E+03 0. -1.
   -9000007    1    1    2    0  502 -0.76387612590E+02  0.16193012026E+03  0.64291695491E+02  0.44293323799E+03  0.40000000000E+03 0.  1.
<mgrwt>
<rscale>  2 0.43824243E+03</rscale>
<asrwt>0</asrwt>
<pdfrwt beam="1">  1       21 0.48557789E-01 0.43824243E+03</pdfrwt>
<pdfrwt beam="2">  1       21 0.14824269E+00 0.43824243E+03</pdfrwt>
<totfact> 0.10614472E+03</totfact>
</mgrwt>
</event>
<event>
 4    1  0.4676529E-002  0.5459500E+03  0.7818608E-02  0.1002436E+00
         21   -1    0    0  503  502  0.00000000000E+00  0.00000000000E+00  0.12775656931E+04  0.12775656931E+04  0.00000000000E+00 0. -1.
         21   -1    0    0  501  503 -0.00000000000E+00 -0.00000000000E+00 -0.24039246803E+03  0.24039246803E+03  0.00000000000E+00 0. -1.
    9000007    1    1    2  501    0 -0.35628228501E+03  0.10547182529E+03  0.38825759898E+03  0.66992935128E+03  0.40000000000E+03 0. -1.
   -9000007    1    1    2    0  502  0.35628228501E+03 -0.10547182529E+03  0.64891562613E+03  0.84802880988E+03  0.40000000000E+03 0. -1.
<mgrwt>
<rscale>  2 0.54594997E+03</rscale>
<asrwt>0</asrwt>
<pdfrwt beam="1">  1       21 0.19654857E+00 0.54594997E+03</pdfrwt>
<pdfrwt beam="2">  1       21 0.36983457E-01 0.54594997E+03</pdfrwt>
<totfact> 0.79671017E+02</totfact>
</mgrwt>
</event>
<event>
 4    1  0.4676529E-002  0.5004286E+03  0.7818608E-02  0.1013667E+00
         21   -1    0    0  501  502  0.00000000000E+00  0.00000000000E+00  0.14004600229E+04  0.14004600229E+04  0.00000000000E+00 0.  1.
         21   -1    0    0  502  503 -0.00000000000E+00 -0.00000000000E+00 -0.77314224584E+03  0.77314224584E+03  0.00000000000E+00 0. -1.
    9000007    1    1    2  501    0 -0.27677136162E+03 -0.11758556808E+03  0.12665247500E+04  0.13618053072E+04  0.40000000000E+03 0.  1.
   -9000007    1    1    2    0  503  0.27677136162E+03  0.11758556808E+03 -0.63920697295E+03  0.81179696150E+03  0.40000000000E+03 0. -1.
<mgrwt>
<rscale>  2 0.50042857E+03</rscale>
<asrwt>0</asrwt>
<pdfrwt beam="1">  1       21 0.21545539E+00 0.50042857E+03</pdfrwt>
<pdfrwt beam="2">  1       21 0.11894496E+00 0.50042857E+03</pdfrwt>
<totfact> 0.43723143E+01</totfact>
</mgrwt>
</event>
<event>
 4    1  0.4676529E-002  0.6067946E+03  0.7818608E-02  0.9891409E-01
         21   -1    0    0  501  502  0.00000000000E+00  0.00000000000E+00  0.25808639128E+03  0.25808639128E+03  0.00000000000E+00 0. -1.
         21   -1    0    0  502  503 -0.00000000000E+00 -0.00000000000E+00 -0.14273541975E+04  0.14273541975E+04  0.00000000000E+00 0. -1.
    9000007    1    1    2  501    0  0.45017574726E+03 -0.74441219603E+02 -0.60331355106E+03  0.85567922698E+03  0.40000000000E+03 0. -1.
   -9000007    1    1    2    0  503 -0.45017574726E+03  0.74441219603E+02 -0.56595425514E+03  0.82976136178E+03  0.40000000000E+03 0. -1.
<mgrwt>
<rscale>  2 0.60679461E+03</rscale>
<asrwt>0</asrwt>
<pdfrwt beam="1">  1       21 0.39705598E-01 0.60679461E+03</pdfrwt>
<pdfrwt beam="2">  1       21 0.21959295E+00 0.60679461E+03</pdfrwt>
<totfact> 0.47353808E+02</totfact>
</mgrwt>
</event>
<event>
 4    1  0.4676529E-002  0.4273232E+03  0.7818608E-02  0.1034709E+00
         21   -1    0    0  501  502  0.00000000000E+00  0.00000000000E+00  0.55069839252E+03  0.55069839252E+03  0.00000000000E+00 0. -1.
         21   -1    0    0  502  503 -0.00000000000E+00 -0.00000000000E+00 -0.56878038200E+03  0.56878038200E+03  0.00000000000E+00 0. -1.
    9000007    1    1    2  501    0  0.14998066239E+03 -0.10531511667E+02  0.35242189019E+03  0.55390098439E+03  0.40000000000E+03 0. -1.
   -9000007    1    1    2    0  503 -0.14998066239E+03  0.10531511667E+02 -0.37050387967E+03  0.56557779012E+03  0.40000000000E+03 0. -1.
<mgrwt>
<rscale>  2 0.42732319E+03</rscale>
<asrwt>0</asrwt>
<pdfrwt beam="1">  1       21 0.84722830E-01 0.42732319E+03</pdfrwt>
<pdfrwt beam="2">  1       21 0.87504673E-01 0.42732319E+03</pdfrwt>
<totfact> 0.11655283E+03</totfact>
</mgrwt>
</event>
<event>
 4    1  0.4676529E-002  0.4088684E+03  0.7818608E-02  0.1040751E+00
         21   -1    0    0  501  502  0.00000000000E+00  0.00000000000E+00  0.10443277041E+04  0.10443277041E+04  0.00000000000E+00 0. -1.
         21   -1    0    0  502  503 -0.00000000000E+00 -0.00000000000E+00 -0.19886409676E+03  0.19886409676E+03  0.00000000000E+00 0. -1.
    9000007    1    1    2  501    0  0.26553637665E+02 -0.80425683197E+02  0.69724971812E+03  0.80828865859E+03  0.40000000000E+03 0. -1.
   -9000007    1    1    2    0  503 -0.26553637665E+02  0.80425683197E+02  0.14821388923E+03  0.43490314226E+03  0.40000000000E+03 0. -1.
<mgrwt>
<rscale>  2 0.40886842E+03</rscale>
<asrwt>0</asrwt>
<pdfrwt beam="1">  1       21 0.16066580E+00 0.40886842E+03</pdfrwt>
<pdfrwt beam="2">  1       21 0.30594477E-01 0.40886842E+03</pdfrwt>
<totfact> 0.22217189E+03</totfact>
</mgrwt>
</event>
<event>
 4    1  0.4676529E-002  0.5885825E+03  0.7818608E-02  0.9929381E-01
         21   -1    0    0  501  502  0.00000000000E+00  0.00000000000E+00  0.66184140684E+03  0.66184140684E+03  0.00000000000E+00 0. -1.
         21   -1    0    0  502  503 -0.00000000000E+00 -0.00000000000E+00 -0.54231771416E+03  0.54231771416E+03  0.00000000000E+00 0.  1.
    9000007    1    1    2  501    0  0.13297889933E+03 -0.41078707019E+03  0.17211523221E+03  0.61323165106E+03  0.40000000000E+03 0.  1.
   -9000007    1    1    2    0  503 -0.13297889933E+03  0.41078707019E+03 -0.52591539529E+02  0.59092746994E+03  0.40000000000E+03 0. -1.
<mgrwt>
<rscale>  2 0.58858254E+03</rscale>
<asrwt>0</asrwt>
<pdfrwt beam="1">  1       21 0.10182176E+00 0.58858254E+03</pdfrwt>
<pdfrwt beam="2">  1       21 0.83433494E-01 0.58858254E+03</pdfrwt>
<totfact> 0.79124749E+02</totfact>
</mgrwt>
</event>
<event>
 4    1  0.4676529E-002  0.4327008E+03  0.7818608E-02  0.1033010E+00
         21   -1    0    0  503  502  0.00000000000E+00  0.00000000000E+00  0.29816208414E+03  0.29816208414E+03  0.00000000000E+00 0. -1.
         21   -1    0    0  501  503 -0.00000000000E+00 -0.00000000000E+00 -0.80615735995E+03  0.80615735995E+03  0.00000000000E+00 0. -1.
    9000007    1    1    2  501    0 -0.43291032562E+02  0.15923531502E+03 -0.51360752784E+03  0.67158223004E+03  0.40000000000E+03 0. -1.
   -9000007    1    1    2    0  502  0.43291032562E+02 -0.15923531502E+03  0.56122520331E+01  0.43273721405E+03  0.40000000000E+03 0. -1.
<mgrwt>
<rscale>  2 0.43270082E+03</rscale>
<asrwt>0</asrwt>
<pdfrwt beam="1">  1       21 0.45871090E-01 0.43270082E+03</pdfrwt>
<pdfrwt beam="2">  1       21 0.12402421E+00 0.43270082E+03</pdfrwt>
<totfact> 0.19171957E+03</totfact>
</mgrwt>
</event>
<event>
 4    1  0.4676529E-002  0.4721297E+03  0.7818608E-02  0.1021321E+00
         21   -1    0    0  503  502  0.00000000000E+00  0.00000000000E+00  0.26829289530E+03  0.26829289530E+03  0.00000000000E+00 0.  1.
         21   -1    0    0  501  503 -0.00000000000E+00 -0.00000000000E+00 -0.10704086604E+04  0.10704086604E+04  0.00000000000E+00 0. -1.
    9000007    1    1    2  501    0  0.17938054154E+03 -0.17529705561E+03 -0.71772344407E+03  0.85908869074E+03  0.40000000000E+03 0. -1.
   -9000007    1    1    2    0  502 -0.17938054154E+03  0.17529705561E+03 -0.84392321034E+02  0.47961286496E+03  0.40000000000E+03 0.  1.
<mgrwt>
<rscale>  2 0.47212968E+03</rscale>
<asrwt>0</asrwt>
<pdfrwt beam="1">  1       21 0.41275830E-01 0.47212968E+03</pdfrwt>
<pdfrwt beam="2">  1       21 0.16467825E+00 0.47212968E+03</pdfrwt>
<totfact> 0.10999144E+03</totfact>
</mgrwt>
</event>
<event>
 4    1  0.4676529E-002  0.4228754E+03  0.7818608E-02  0.1036135E+00
         21   -1    0    0  503  502  0.00000000000E+00  0.00000000000E+00  0.36288134904E+03  0.36288134904E+03  0.00000000000E+00 0. -1.
         21   -1    0    0  501  503 -0.00000000000E+00 -0.00000000000E+00 -0.83600115407E+03  0.83600115407E+03  0.00000000000E+00 0. -1.
    9000007    1    1    2  501    0  0.12658330825E+03  0.52917448489E+02  0.14752313010E+03  0.44786902572E+03  0.40000000000E+03 0. -1.
   -9000007    1    1    2    0  502 -0.12658330825E+03 -0.52917448489E+02 -0.62064293514E+03  0.75101347739E+03  0.40000000000E+03 0. -1.
<mgrwt>
<rscale>  2 0.42287538E+03</rscale>
<asrwt>0</asrwt>
<pdfrwt beam="1">  1       21 0.55827901E-01 0.42287538E+03</pdfrwt>
<pdfrwt beam="2">  1       21 0.12861556E+00 0.42287538E+03</pdfrwt>
<totfact> 0.11539470E+03</totfact>
</mgrwt>
</event>
<event>
 4    1  0.4676529E-002  0.4062195E+03  0.7818608E-02  0.1041647E+00
         21   -1    0    0  503  502  0.00000000000E+00  0.00000000000E+00  0.25579579940E+03  0.25579579940E+03  0.00000000000E+00 0. -1.
         21   -1    0    0  501  503 -0.00000000000E+00 -0.00000000000E+00 -0.66830593509E+03  0.66830593509E+03  0.00000000000E+00 0. -1.
    9000007    1    1    2  501    0 -0.33111184371E+02 -0.62593122602E+02 -0.29235202252E+03  0.50048372061E+03  0.40000000000E+03 0. -1.
   -9000007    1    1    2    0  502  0.33111184371E+02  0.62593122602E+02 -0.12015811317E+03  0.42361801389E+03  0.40000000000E+03 0. -1.
<mgrwt>
<rscale>  2 0.40621946E+03</rscale>
<asrwt>0</asrwt>
<pdfrwt beam="1">  1       21 0.39353200E-01 0.40621946E+03</pdfrwt>
<pdfrwt beam="2">  1       21 0.10281630E+00 0.40621946E+03</pdfrwt>
<totfact> 0.42510762E+03</totfact>
</mgrwt>
</event>
<event>
 4    1  0.4676529E-002  0.4055052E+03  0.7818608E-02  0.1041890E+00
         21   -1    0    0  501  502  0.00000000000E+00  0.00000000000E+00  0.64639785748E+03  0.64639785748E+03  0.00000000000E+00 0. -1.
         21   -1    0    0  502  503 -0.00000000000E+00 -0.00000000000E+00 -0.46701786235E+03  0.46701786235E+03  0.00000000000E+00 0. -1.
    9000007    1    1    2  501    0 -0.66527623340E+02 -0.29266988516E+01  0.46533264904E+03  0.61722683391E+03  0.40000000000E+03 0. -1.
   -9000007    1    1    2    0  503  0.66527623340E+02  0.29266988516E+01 -0.28595265391E+03  0.49618888592E+03  0.40000000000E+03 0. -1.
<mgrwt>
<rscale>  2 0.40550523E+03</rscale>
<asrwt>0</asrwt>
<pdfrwt beam="1">  1       21 0.99445824E-01 0.40550523E+03</pdfrwt>
<pdfrwt beam="2">  1       21 0.71848902E-01 0.40550523E+03</pdfrwt>
<totfact> 0.12663454E+03</totfact>
</mgrwt>
</event>
<event>
 4    1  0.4676529E-002  0.5082806E+03  0.7818608E-02  0.1011640E+00
         21   -1    0    0  501  502  0.00000000000E+00  0.00000000000E+00  0.10755631929E+04  0.10755631929E+04  0.00000000000E+00 0.  1.
         21   -1    0    0  502  503 -0.00000000000E+00 -0.00000000000E+00 -0.27222406677E+03  0.27222406677E+03  0.00000000000E+00 0.  1.
    9000007    1    1    2  501    0 -0.11229515924E+03  0.29281216014E+03  0.63280863375E+03  0.81166244885E+03  0.40000000000E+03 0.  1.
   -9000007    1    1    2    0  503  0.11229515924E+03 -0.29281216014E+03  0.17053049234E+03  0.53612481078E+03  0.40000000000E+03 0.  1.
<mgrwt>
<rscale>  2 0.50828060E+03</rscale>
<asrwt>0</asrwt>
<pdfrwt beam="1">  1       21 0.16547126E+00 0.50828060E+03</pdfrwt>
<pdfrwt beam="2">  1       21 0.41880626E-01 0.50828060E+03</pdfrwt>
<totfact> 0.10378137E+03</totfact>
</mgrwt>
</event>
<event>
 4    1  0.4676529E-002  0.4917622E+03  0.7818608E-02  0.1015952E+00
         21   -1    0    0  503  502  0.00000000000E+00  0.00000000000E+00  0.19518110055E+03  0.19518110055E+03  0.00000000000E+00 0.  1.
         21   -1    0    0  501  503 -0.00000000000E+00 -0.00000000000E+00 -0.18194283974E+04  0.18194283974E+04  0.00000000000E+00 0.  1.
    9000007    1    1    2  501    0  0.23571980964E+03 -0.16206871967E+03 -0.13810634968E+04  0.14660035746E+04  0.40000000000E+03 0.  1.
   -9000007    1    1    2    0  502 -0.23571980964E+03  0.16206871967E+03 -0.24318380010E+03  0.54860592339E+03  0.40000000000E+03 0.  1.
<mgrwt>
<rscale>  2 0.49176224E+03</rscale>
<asrwt>0</asrwt>
<pdfrwt beam="1">  1       21 0.30027861E-01 0.49176224E+03</pdfrwt>
<pdfrwt beam="2">  1       21 0.27991207E+00 0.49176224E+03</pdfrwt>
<totfact> 0.36978034E+02</totfact>
</mgrwt>
</event>
<event>
 4    1  0.4676529E-002  0.4407064E+03  0.7818608E-02  0.1030530E+00
         21   -1    0    0  501  502  0.00000000000E+00  0.00000000000E+00  0.14104156861E+04  0.14104156861E+04  0.00000000000E+00 0. -1.
         21   -1    0    0  502  503 -0.00000000000E+00 -0.00000000000E+00 -0.27790082442E+03  0.27790082442E+03  0.00000000000E+00 0. -1.
    9000007    1    1    2  501    0  0.46857796743E+02 -0.17895940467E+03 -0.33320422253E+02  0.44196422047E+03  0.40000000000E+03 0. -1.
   -9000007    1    1    2    0  503 -0.46857796743E+02  0.17895940467E+03  0.11658352839E+04  0.12463522900E+04  0.40000000000E+03 0. -1.
<mgrwt>
<rscale>  2 0.44070639E+03</rscale>
<asrwt>0</asrwt>
<pdfrwt beam="1">  1       21 0.21698702E+00 0.44070639E+03</pdfrwt>
<pdfrwt beam="2">  1       21 0.42753974E-01 0.44070639E+03</pdfrwt>
<totfact> 0.45388677E+02</totfact>
</mgrwt>
</event>
<event>
 4    1  0.4676529E-002  0.5247743E+03  0.7818608E-02  0.1007507E+00
         21   -1    0    0  501  502  0.00000000000E+00  0.00000000000E+00  0.93697391934E+03  0.93697391934E+03  0.00000000000E+00 0. -1.
         21   -1    0    0  502  503 -0.00000000000E+00 -0.00000000000E+00 -0.40162319936E+03  0.40162319936E+03  0.00000000000E+00 0. -1.
    9000007    1    1    2  501    0  0.28016758559E+03  0.19207856257E+03  0.61428493518E+03  0.80791957013E+03  0.40000000000E+03 0. -1.
   -9000007    1    1    2    0  503 -0.28016758559E+03 -0.19207856257E+03 -0.78934215204E+02  0.53067754856E+03  0.40000000000E+03 0. -1.
<mgrwt>
<rscale>  2 0.52477429E+03</rscale>
<asrwt>0</asrwt>
<pdfrwt beam="1">  1       21 0.14414983E+00 0.52477429E+03</pdfrwt>
<pdfrwt beam="2">  1       21 0.61788185E-01 0.52477429E+03</pdfrwt>
<totfact> 0.65648842E+02</totfact>
</mgrwt>
</event>
<event>
 4    1  0.4676529E-002  0.4945227E+03  0.7818608E-02  0.1015219E+00
         21   -1    0    0  503  502  0.00000000000E+00  0.00000000000E+00  0.27585509419E+03  0.27585509419E+03  0.00000000000E+00 0.  1.
         21   -1    0    0  501  503 -0.00000000000E+00 -0.00000000000E+00 -0.34904237492E+04  0.34904237492E+04  0.00000000000E+00 0.  1.
    9000007    1    1    2  501    0 -0.29057619848E+03 -0.10868667654E+02 -0.32337892358E+04  0.32713828080E+04  0.40000000000E+03 0.  1.
   -9000007    1    1    2    0  502  0.29057619848E+03  0.10868667654E+02  0.19220580816E+02  0.49489603533E+03  0.40000000000E+03 0.  1.
<mgrwt>
<rscale>  2 0.49452265E+03</rscale>
<asrwt>0</asrwt>
<pdfrwt beam="1">  1       21 0.42439250E-01 0.49452265E+03</pdfrwt>
<pdfrwt beam="2">  1       21 0.53698821E+00 0.49452265E+03</pdfrwt>
<totfact> 0.37507639E+00</totfact>
</mgrwt>
</event>
<event>
 4    1  0.4676529E-002  0.4081487E+03  0.7818608E-02  0.1040994E+00
         21   -1    0    0  501  502  0.00000000000E+00  0.00000000000E+00  0.45278601143E+03  0.45278601143E+03  0.00000000000E+00 0. -1.
         21   -1    0    0  502  503 -0.00000000000E+00 -0.00000000000E+00 -0.58972682018E+03  0.58972682018E+03  0.00000000000E+00 0. -1.
    9000007    1    1    2  501    0 -0.24324948797E+02  0.77418818673E+02  0.25121390373E+03  0.47926381258E+03  0.40000000000E+03 0. -1.
   -9000007    1    1    2    0  503  0.24324948797E+02 -0.77418818673E+02 -0.38815471248E+03  0.56324901903E+03  0.40000000000E+03 0. -1.
<mgrwt>
<rscale>  2 0.40814872E+03</rscale>
<asrwt>0</asrwt>
<pdfrwt beam="1">  1       21 0.69659386E-01 0.40814872E+03</pdfrwt>
<pdfrwt beam="2">  1       21 0.90727203E-01 0.40814872E+03</pdfrwt>
<totfact> 0.16887531E+03</totfact>
</mgrwt>
</event>
<event>
 4    1  0.4676529E-002  0.6285056E+03  0.7818608E-02  0.9847969E-01
         21   -1    0    0  503  502  0.00000000000E+00  0.00000000000E+00  0.11757839223E+04  0.11757839223E+04  0.00000000000E+00 0.  1.
         21   -1    0    0  501  503 -0.00000000000E+00 -0.00000000000E+00 -0.37545267495E+03  0.37545267495E+03  0.00000000000E+00 0.  1.
    9000007    1    1    2  501    0  0.68979808307E+02  0.47985522271E+03  0.14862088279E+03  0.64583853672E+03  0.40000000000E+03 0.  1.
   -9000007    1    1    2    0  502 -0.68979808307E+02 -0.47985522271E+03  0.65171036453E+03  0.90539806050E+03  0.40000000000E+03 0.  1.
<mgrwt>
<rscale>  2 0.62850557E+03</rscale>
<asrwt>0</asrwt>
<pdfrwt beam="1">  1       21 0.18088983E+00 0.62850557E+03</pdfrwt>
<pdfrwt beam="2">  1       21 0.57761951E-01 0.62850557E+03</pdfrwt>
<totfact> 0.38668907E+02</totfact>
</mgrwt>
</event>
<event>
 4    1  0.4676529E-002  0.6900370E+03  0.7818608E-02  0.9734424E-01
         21   -1    0    0  501  502  0.00000000000E+00  0.00000000000E+00  0.14968714877E+04  0.14968714877E+04  0.00000000000E+00 0. -1.
         21   -1    0    0  502  503 -0.00000000000E+00 -0.00000000000E+00 -0.35266777041E+03  0.35266777041E+03  0.00000000000E+00 0. -1.
    9000007    1    1    2  501    0 -0.55849649836E+03 -0.65059134621E+02  0.86163765424E+03  0.11038887973E+04  0.40000000000E+03 0. -1.
   -9000007    1    1    2    0  503  0.55849649836E+03  0.65059134621E+02  0.28256606305E+03  0.74565046078E+03  0.40000000000E+03 0. -1.
<mgrwt>
<rscale>  2 0.69003698E+03</rscale>
<asrwt>0</asrwt>
<pdfrwt beam="1">  1       21 0.23028792E+00 0.69003698E+03</pdfrwt>
<pdfrwt beam="2">  1       21 0.54256581E-01 0.69003698E+03</pdfrwt>
<totfact> 0.20229850E+02</totfact>
</mgrwt>
</event>
<event>
 4    1  0.4676529E-002  0.4069072E+03  0.7818608E-02  0.1041414E+00
         21   -1    0    0  501  502  0.00000000000E+00  0.00000000000E+00  0.38300955686E+03  0.38300955686E+03  0.00000000000E+00 0.  1.
         21   -1    0    0  502  503 -0.00000000000E+00 -0.00000000000E+00 -0.44997004647E+03  0.44997004647E+03  0.00000000000E+00 0.  1.
    9000007    1    1    2  501    0 -0.38872064372E+02  0.63737261905E+02  0.49062958300E+02  0.40985442516E+03  0.40000000000E+03 0.  1.
   -9000007    1    1    2    0  503  0.38872064372E+02 -0.63737261905E+02 -0.11602344790E+03  0.42312517818E+03  0.40000000000E+03 0.  1.
<mgrwt>
<rscale>  2 0.40690721E+03</rscale>
<asrwt>0</asrwt>
<pdfrwt beam="1">  1       21 0.58924548E-01 0.40690721E+03</pdfrwt>
<pdfrwt beam="2">  1       21 0.69226160E-01 0.40690721E+03</pdfrwt>
<totfact> 0.45598810E+03</totfact>
</mgrwt>
</event>
<event>
 4    1  0.4676529E-002  0.4037775E+03  0.7818608E-02  0.1042479E+00
         21   -1    0    0  503  502  0.00000000000E+00  0.00000000000E+00  0.11859513566E+04  0.11859513566E+04  0.00000000000E+00 0.  1.
         21   -1    0    0  501  503 -0.00000000000E+00 -0.00000000000E+00 -0.20141921434E+03  0.20141921434E+03  0.00000000000E+00 0.  1.
    9000007    1    1    2  501    0  0.38923371627E+02  0.39003549420E+02  0.10140770666E+03  0.41631698103E+03  0.40000000000E+03 0.  1.
   -9000007    1    1    2    0  502 -0.38923371627E+02 -0.39003549420E+02  0.88312443562E+03  0.97105358993E+03  0.40000000000E+03 0.  1.
<mgrwt>
<rscale>  2 0.40377754E+03</rscale>
<asrwt>0</asrwt>
<pdfrwt beam="1">  1       21 0.18245405E+00 0.40377754E+03</pdfrwt>
<pdfrwt beam="2">  1       21 0.30987572E-01 0.40377754E+03</pdfrwt>
<totfact> 0.15111845E+03</totfact>
</mgrwt>
</event>
<event>
 4    1  0.4676529E-002  0.5207043E+03  0.7818608E-02  0.1008512E+00
         21   -1    0    0  503  502  0.00000000000E+00  0.00000000000E+00  0.17270277850E+04  0.17270277850E+04  0.00000000000E+00 0. -1.
         21   -1    0    0  501  503 -0.00000000000E+00 -0.00000000000E+00 -0.24127929110E+03  0.24127929110E+03  0.00000000000E+00 0.  1.
    9000007    1    1    2  501    0  0.33027396596E+03  0.45300035675E+02  0.16120145379E+03  0.54508613496E+03  0.40000000000E+03 0.  1.
   -9000007    1    1    2    0  502 -0.33027396596E+03 -0.45300035675E+02  0.13245470401E+04  0.14232209411E+04  0.40000000000E+03 0. -1.
<mgrwt>
<rscale>  2 0.52070432E+03</rscale>
<asrwt>0</asrwt>
<pdfrwt beam="1">  1       21 0.26569658E+00 0.52070432E+03</pdfrwt>
<pdfrwt beam="2">  1       21 0.37119892E-01 0.52070432E+03</pdfrwt>
<totfact> 0.29002201E+02</totfact>
</mgrwt>
</event>
<event>
 4    1  0.4676529E-002  0.4258606E+03  0.7818608E-02  0.1035176E+00
         21   -1    0    0  501  502  0.00000000000E+00  0.00000000000E+00  0.43738450650E+03  0.43738450650E+03  0.00000000000E+00 0. -1.
         21   -1    0    0  502  503 -0.00000000000E+00 -0.00000000000E+00 -0.42715803189E+03  0.42715803189E+03  0.00000000000E+00 0. -1.
    9000007    1    1    2  501    0 -0.14142427274E+03 -0.36830214856E+02  0.79111760931E+02  0.43314658069E+03  0.40000000000E+03 0. -1.
   -9000007    1    1    2    0  503  0.14142427274E+03  0.36830214856E+02 -0.68885286331E+02  0.43139595770E+03  0.40000000000E+03 0. -1.
<mgrwt>
<rscale>  2 0.42586065E+03</rscale>
<asrwt>0</asrwt>
<pdfrwt beam="1">  1       21 0.67289924E-01 0.42586065E+03</pdfrwt>
<pdfrwt beam="2">  1       21 0.65716620E-01 0.42586065E+03</pdfrwt>
<totfact> 0.37949710E+03</totfact>
</mgrwt>
</event>
<event>
 4    1  0.4676529E-002  0.6260197E+03  0.7818608E-02  0.9852847E-01
         21   -1    0    0  503  502  0.00000000000E+00  0.00000000000E+00  0.72142315469E+03  0.72142315469E+03  0.00000000000E+00 0.  1.
         21   -1    0    0  501  503 -0.00000000000E+00 -0.00000000000E+00 -0.71517014485E+03  0.71517014485E+03  0.00000000000E+00 0.  1.
    9000007    1    1    2  501    0 -0.27129727882E+03  0.39786745522E+03 -0.34906935917E+03  0.71676365905E+03  0.40000000000E+03 0.  1.
   -9000007    1    1    2    0  502  0.27129727882E+03 -0.39786745522E+03  0.35532236901E+03  0.71982964050E+03  0.40000000000E+03 0.  1.
<mgrwt>
<rscale>  2 0.62601975E+03</rscale>
<asrwt>0</asrwt>
<pdfrwt beam="1">  1       21 0.11098818E+00 0.62601975E+03</pdfrwt>
<pdfrwt beam="2">  1       21 0.11002618E+00 0.62601975E+03</pdfrwt>
<totfact> 0.32263279E+02</totfact>
</mgrwt>
</event>
<event>
 4    1  0.4676529E-002  0.4333620E+03  0.7818608E-02  0.1032803E+00
         21   -1    0    0  501  502  0.00000000000E+00  0.00000000000E+00  0.10819980200E+04  0.10819980200E+04  0.00000000000E+00 0. -1.
         21   -1    0    0  502  503 -0.00000000000E+00 -0.00000000000E+00 -0.29808451796E+03  0.29808451796E+03  0.00000000000E+00 0. -1.
    9000007    1    1    2  501    0 -0.10092322240E+03  0.13272966509E+03  0.83793628013E+03  0.94336624403E+03  0.40000000000E+03 0. -1.
   -9000007    1    1    2    0  503  0.10092322240E+03 -0.13272966509E+03 -0.54022778105E+02  0.43671629391E+03  0.40000000000E+03 0. -1.
<mgrwt>
<rscale>  2 0.43336204E+03</rscale>
<asrwt>0</asrwt>
<pdfrwt beam="1">  1       21 0.16646123E+00 0.43336204E+03</pdfrwt>
<pdfrwt beam="2">  1       21 0.45859157E-01 0.43336204E+03</pdfrwt>
<totfact> 0.87130114E+02</totfact>
</mgrwt>
</event>
<event>
 4    1  0.4676529E-002  0.5811662E+03  0.7818608E-02  0.9945269E-01
         21   -1    0    0  501  502  0.00000000000E+00  0.00000000000E+00  0.43722625474E+03  0.43722625474E+03  0.00000000000E+00 0.  1.
         21   -1    0    0  502  503 -0.00000000000E+00 -0.00000000000E+00 -0.79806249850E+03  0.79806249850E+03  0.00000000000E+00 0. -1.
    9000007    1    1    2  501    0 -0.72318676135E+02 -0.41536022238E+03 -0.69861846941E+02  0.58535013702E+03  0.40000000000E+03 0.  1.
   -9000007    1    1    2    0  503  0.72318676135E+02  0.41536022238E+03 -0.29097439682E+03  0.64993861622E+03  0.40000000000E+03 0. -1.
<mgrwt>
<rscale>  2 0.58116616E+03</rscale>
<asrwt>0</asrwt>
<pdfrwt beam="1">  1       21 0.67265579E-01 0.58116616E+03</pdfrwt>
<pdfrwt beam="2">  1       21 0.12277884E+00 0.58116616E+03</pdfrwt>
<totfact> 0.81261006E+02</totfact>
</mgrwt>
</event>
<event>
 4    1  0.4676529E-002  0.4172561E+03  0.7818608E-02  0.1037963E+00
         21   -1    0    0  503  502  0.00000000000E+00  0.00000000000E+00  0.15294908449E+04  0.15294908449E+04  0.00000000000E+00 0. -1.
         21   -1    0    0  501  503 -0.00000000000E+00 -0.00000000000E+00 -0.14555766128E+03  0.14555766128E+03  0.00000000000E+00 0. -1.
    9000007    1    1    2  501    0  0.79665911945E+02  0.88068285556E+02  0.30094963853E+03  0.51446415364E+03  0.40000000000E+03 0. -1.
   -9000007    1    1    2    0  502 -0.79665911945E+02 -0.88068285556E+02  0.10829835451E+04  0.11605843526E+04  0.40000000000E+03 0. -1.
<mgrwt>
<rscale>  2 0.41725613E+03</rscale>
<asrwt>0</asrwt>
<pdfrwt beam="1">  1       21 0.23530627E+00 0.41725613E+03</pdfrwt>
<pdfrwt beam="2">  1       21 0.22393487E-01 0.41725613E+03</pdfrwt>
<totfact> 0.12779728E+03</totfact>
</mgrwt>
</event>
<event>
 4    1  0.4676529E-002  0.4807091E+03  0.7818608E-02  0.1018940E+00
         21   -1    0    0  503  502  0.00000000000E+00  0.00000000000E+00  0.16826173252E+04  0.16826173252E+04  0.00000000000E+00 0.  1.
         21   -1    0    0  501  503 -0.00000000000E+00 -0.00000000000E+00 -0.16113319720E+03  0.16113319720E+03  0.00000000000E+00 0.  1.
    9000007    1    1    2  501    0 -0.26241256004E+03 -0.47126513414E+02  0.40645356955E+03  0.62951232246E+03  0.40000000000E+03 0.  1.
   -9000007    1    1    2    0  502  0.26241256004E+03  0.47126513414E+02  0.11150305585E+04  0.12142382000E+04  0.40000000000E+03 0.  1.
<mgrwt>
<rscale>  2 0.48070912E+03</rscale>
<asrwt>0</asrwt>
<pdfrwt beam="1">  1       21 0.25886419E+00 0.48070912E+03</pdfrwt>
<pdfrwt beam="2">  1       21 0.24789724E-01 0.48070912E+03</pdfrwt>
<totfact> 0.72814546E+02</totfact>
</mgrwt>
</event>
<event>
 4    1  0.4676529E-002  0.4460733E+03  0.7818608E-02  0.1028900E+00
         21   -1    0    0  501  502  0.00000000000E+00  0.00000000000E+00  0.20883410753E+03  0.20883410753E+03  0.00000000000E+00 0.  1.
         21   -1    0    0  502  503 -0.00000000000E+00 -0.00000000000E+00 -0.96357844364E+03  0.96357844364E+03  0.00000000000E+00 0.  1.
    9000007    1    1    2  501    0  0.19291808013E+03 -0.42000050527E+02 -0.31543171915E+03  0.54633191315E+03  0.40000000000E+03 0. -1.
   -9000007    1    1    2    0  503 -0.19291808013E+03  0.42000050527E+02 -0.43931261696E+03  0.62608063802E+03  0.40000000000E+03 0. -1.
<mgrwt>
<rscale>  2 0.44607330E+03</rscale>
<asrwt>0</asrwt>
<pdfrwt beam="1">  1       21 0.32128324E-01 0.44607330E+03</pdfrwt>
<pdfrwt beam="2">  1       21 0.14824284E+00 0.44607330E+03</pdfrwt>
<totfact> 0.24743446E+03</totfact>
</mgrwt>
</event>
<event>
 4    1  0.4676529E-002  0.4513298E+03  0.7818608E-02  0.1027326E+00
         21   -1    0    0  501  502  0.00000000000E+00  0.00000000000E+00  0.92571718219E+03  0.92571718219E+03  0.00000000000E+00 0. -1.
         21   -1    0    0  502  503 -0.00000000000E+00 -0.00000000000E+00 -0.23440365966E+03  0.23440365966E+03  0.00000000000E+00 0.  1.
    9000007    1    1    2  501    0  0.18317823951E+03 -0.10071921360E+03  0.48922594178E+03  0.66561298780E+03  0.40000000000E+03 0.  1.
   -9000007    1    1    2    0  503 -0.18317823951E+03  0.10071921360E+03  0.20208758076E+03  0.49450785405E+03  0.40000000000E+03 0.  1.
<mgrwt>
<rscale>  2 0.45132984E+03</rscale>
<asrwt>0</asrwt>
<pdfrwt beam="1">  1       21 0.14241803E+00 0.45132984E+03</pdfrwt>
<pdfrwt beam="2">  1       21 0.36062102E-01 0.45132984E+03</pdfrwt>
<totfact> 0.21788976E+03</totfact>
</mgrwt>
</event>
<event>
 4    1  0.4676529E-002  0.7642613E+03  0.7818608E-02  0.9613238E-01
         21   -1    0    0  503  502  0.00000000000E+00  0.00000000000E+00  0.64134058241E+03  0.64134058241E+03  0.00000000000E+00 0. -1.
         21   -1    0    0  501  503 -0.00000000000E+00 -0.00000000000E+00 -0.10684793906E+04  0.10684793906E+04  0.00000000000E+00 0.  1.
    9000007    1    1    2  501    0 -0.73070680998E+02  0.64711364906E+03 -0.54204681722E+03  0.93696859674E+03  0.40000000000E+03 0. -1.
   -9000007    1    1    2    0  502  0.73070680998E+02 -0.64711364906E+03  0.11490800906E+03  0.77285137625E+03  0.40000000000E+03 0. -1.
<mgrwt>
<rscale>  2 0.76426134E+03</rscale>
<asrwt>0</asrwt>
<pdfrwt beam="1">  1       21 0.98667783E-01 0.76426134E+03</pdfrwt>
<pdfrwt beam="2">  1       21 0.16438144E+00 0.76426134E+03</pdfrwt>
<totfact> 0.14190533E+02</totfact>
</mgrwt>
</event>
<event>
 4    1  0.4676529E-002  0.5734141E+03  0.7818608E-02  0.9962152E-01
         21   -1    0    0  503  502  0.00000000000E+00  0.00000000000E+00  0.23531902633E+03  0.23531902633E+03  0.00000000000E+00 0. -1.
         21   -1    0    0  501  503 -0.00000000000E+00 -0.00000000000E+00 -0.16364285115E+04  0.16364285115E+04  0.00000000000E+00 0. -1.
    9000007    1    1    2  501    0  0.90824197026E+02  0.40069272361E+03 -0.34277669272E+03  0.66805655044E+03  0.40000000000E+03 0. -1.
   -9000007    1    1    2    0  502 -0.90824197026E+02 -0.40069272361E+03 -0.10583327925E+04  0.12036909874E+04  0.40000000000E+03 0. -1.
<mgrwt>
<rscale>  2 0.57341407E+03</rscale>
<asrwt>0</asrwt>
<pdfrwt beam="1">  1       21 0.36202927E-01 0.57341407E+03</pdfrwt>
<pdfrwt beam="2">  1       21 0.25175823E+00 0.57341407E+03</pdfrwt>
<totfact> 0.36313491E+02</totfact>
</mgrwt>
</event>
<event>
 4    1  0.4676529E-002  0.4991286E+03  0.7818608E-02  0.1014007E+00
         21   -1    0    0  501  502  0.00000000000E+00  0.00000000000E+00  0.15831386388E+04  0.15831386388E+04  0.00000000000E+00 0.  1.
         21   -1    0    0  502  503 -0.00000000000E+00 -0.00000000000E+00 -0.20097500701E+03  0.20097500701E+03  0.00000000000E+00 0.  1.
    9000007    1    1    2  501    0 -0.29098337175E+03 -0.66768784603E+02  0.11066271441E+04  0.12139823019E+04  0.40000000000E+03 0.  1.
   -9000007    1    1    2    0  503  0.29098337175E+03  0.66768784603E+02  0.27553648762E+03  0.57013134386E+03  0.40000000000E+03 0.  1.
<mgrwt>
<rscale>  2 0.49912863E+03</rscale>
<asrwt>0</asrwt>
<pdfrwt beam="1">  1       21 0.24355978E+00 0.49912863E+03</pdfrwt>
<pdfrwt beam="2">  1       21 0.30919233E-01 0.49912863E+03</pdfrwt>
<totfact> 0.58004827E+02</totfact>
</mgrwt>
</event>
<event>
 4    1  0.4676529E-002  0.4836873E+03  0.7818608E-02  0.1018127E+00
         21   -1    0    0  501  502  0.00000000000E+00  0.00000000000E+00  0.10841542272E+04  0.10841542272E+04  0.00000000000E+00 0. -1.
         21   -1    0    0  502  503 -0.00000000000E+00 -0.00000000000E+00 -0.60008149161E+03  0.60008149161E+03  0.00000000000E+00 0.  1.
    9000007    1    1    2  501    0 -0.27157865656E+03 -0.14085711856E+02  0.91593752270E+03  0.10358064102E+04  0.40000000000E+03 0. -1.
   -9000007    1    1    2    0  503  0.27157865656E+03  0.14085711856E+02 -0.43186478707E+03  0.64842930863E+03  0.40000000000E+03 0.  1.
<mgrwt>
<rscale>  2 0.48368727E+03</rscale>
<asrwt>0</asrwt>
<pdfrwt beam="1">  1       21 0.16679296E+00 0.48368727E+03</pdfrwt>
<pdfrwt beam="2">  1       21 0.92320229E-01 0.48368727E+03</pdfrwt>
<totfact> 0.17778061E+02</totfact>
</mgrwt>
</event>
<event>
 4    1  0.4676529E-002  0.4075609E+03  0.7818608E-02  0.1041193E+00
         21   -1    0    0  503  502  0.00000000000E+00  0.00000000000E+00  0.88883055189E+03  0.88883055189E+03  0.00000000000E+00 0.  1.
         21   -1    0    0  501  503 -0.00000000000E+00 -0.00000000000E+00 -0.44908869882E+03  0.44908869882E+03  0.00000000000E+00 0.  1.
    9000007    1    1    2  501    0 -0.53374194426E+02  0.57071007631E+02 -0.29128832544E+03  0.50095388319E+03  0.40000000000E+03 0.  1.
   -9000007    1    1    2    0  502  0.53374194426E+02 -0.57071007631E+02  0.73103017851E+03  0.83696536753E+03  0.40000000000E+03 0.  1.
<mgrwt>
<rscale>  2 0.40756092E+03</rscale>
<asrwt>0</asrwt>
<pdfrwt beam="1">  1       21 0.13674316E+00 0.40756092E+03</pdfrwt>
<pdfrwt beam="2">  1       21 0.69090569E-01 0.40756092E+03</pdfrwt>
<totfact> 0.61993632E+02</totfact>
</mgrwt>
</event>
<event>
 4    1  0.4676529E-002  0.4071277E+03  0.7818608E-02  0.1041339E+00
         21   -1    0    0  501  502  0.00000000000E+00  0.00000000000E+00  0.48533681180E+03  0.48533681180E+03  0.00000000000E+00 0.  1.
         21   -1    0    0  502  503 -0.00000000000E+00 -0.00000000000E+00 -0.34309776449E+03  0.34309776449E+03  0.00000000000E+00 0. -1.
    9000007    1    1    2  501    0 -0.64291002138E+02  0.40244253138E+02  0.99195856355E+02  0.41903788705E+03  0.40000000000E+03 0.  1.
   -9000007    1    1    2    0  503  0.64291002138E+02 -0.40244253138E+02  0.43043190956E+02  0.40939668923E+03  0.40000000000E+03 0. -1.
<mgrwt>
<rscale>  2 0.40712766E+03</rscale>
<asrwt>0</asrwt>
<pdfrwt beam="1">  1       21 0.74667202E-01 0.40712766E+03</pdfrwt>
<pdfrwt beam="2">  1       21 0.52784271E-01 0.40712766E+03</pdfrwt>
<totfact> 0.48744627E+03</totfact>
</mgrwt>
</event>
<event>
 4    1  0.4676529E-002  0.4326582E+03  0.7818608E-02  0.1033024E+00
         21   -1    0    0  501  502  0.00000000000E+00  0.00000000000E+00  0.16147592005E+03  0.16147592005E+03  0.00000000000E+00 0. -1.
         21   -1    0    0  502  503 -0.00000000000E+00 -0.00000000000E+00 -0.13578913184E+04  0.13578913184E+04  0.00000000000E+00 0. -1.
    9000007    1    1    2  501    0  0.13664595716E+03 -0.92309344833E+02 -0.30765805816E+03  0.53089228050E+03  0.40000000000E+03 0. -1.
   -9000007    1    1    2    0  503 -0.13664595716E+03  0.92309344833E+02 -0.88875734021E+03  0.98847495797E+03  0.40000000000E+03 0. -1.
<mgrwt>
<rscale>  2 0.43265822E+03</rscale>
<asrwt>0</asrwt>
<pdfrwt beam="1">  1       21 0.24842449E-01 0.43265822E+03</pdfrwt>
<pdfrwt beam="2">  1       21 0.20890636E+00 0.43265822E+03</pdfrwt>
<totfact> 0.15281813E+03</totfact>
</mgrwt>
</event>
<event>
 4    1  0.4676529E-002  0.4557425E+03  0.7818608E-02  0.1026023E+00
         21   -1    0    0  503  502  0.00000000000E+00  0.00000000000E+00  0.12660068044E+03  0.12660068044E+03  0.00000000000E+00 0.  1.
         21   -1    0    0  501  503 -0.00000000000E+00 -0.00000000000E+00 -0.21843255532E+04  0.21843255532E+04  0.00000000000E+00 0.  1.
    9000007    1    1    2  501    0 -0.13778862119E+03  0.16945661046E+03 -0.16053457452E+04  0.16687828525E+04  0.40000000000E+03 0.  1.
   -9000007    1    1    2    0  502  0.13778862119E+03 -0.16945661046E+03 -0.45237912754E+03  0.64214338118E+03  0.40000000000E+03 0.  1.
<mgrwt>
<rscale>  2 0.45574252E+03</rscale>
<asrwt>0</asrwt>
<pdfrwt beam="1">  1       21 0.19477028E-01 0.45574252E+03</pdfrwt>
<pdfrwt beam="2">  1       21 0.33605009E+00 0.45574252E+03</pdfrwt>
<totfact> 0.40057545E+02</totfact>
</mgrwt>
</event>
<event>
 4    1  0.4676529E-002  0.4431274E+03  0.7818608E-02  0.1029792E+00
         21   -1    0    0  501  502  0.00000000000E+00  0.00000000000E+00  0.25791664270E+04  0.25791664270E+04  0.00000000000E+00 0.  1.
         21   -1    0    0  502  503 -0.00000000000E+00 -0.00000000000E+00 -0.11668778067E+03  0.11668778067E+03  0.00000000000E+00 0.  1.
    9000007    1    1    2  501    0 -0.87248667545E+02  0.16955694592E+03  0.20258788355E+04  0.20737760111E+04  0.40000000000E+03 0.  1.
   -9000007    1    1    2    0  503  0.87248667545E+02 -0.16955694592E+03  0.43659981085E+03  0.62207819664E+03  0.40000000000E+03 0.  1.
<mgrwt>
<rscale>  2 0.44312739E+03</rscale>
<asrwt>0</asrwt>
<pdfrwt beam="1">  1       21 0.39679479E+00 0.44312739E+03</pdfrwt>
<pdfrwt beam="2">  1       21 0.17951968E-01 0.44312739E+03</pdfrwt>
<totfact> 0.19730802E+02</totfact>
</mgrwt>
</event>
<event>
 4    1  0.4676529E-002  0.4392336E+03  0.7818608E-02  0.1030982E+00
         21   -1    0    0  501  502  0.00000000000E+00  0.00000000000E+00  0.47728584527E+03  0.47728584527E+03  0.00000000000E+00 0. -1.
         21   -1    0    0  502  503 -0.00000000000E+00 -0.00000000000E+00 -0.62905874522E+03  0.62905874522E+03  0.00000000000E+00 0. -1.
    9000007    1    1    2  501    0 -0.78596847607E+02  0.16355015892E+03  0.25482953115E+03  0.50780331713E+03  0.40000000000E+03 0. -1.
   -9000007    1    1    2    0  503  0.78596847607E+02 -0.16355015892E+03 -0.40660243110E+03  0.59854127336E+03  0.40000000000E+03 0. -1.
<mgrwt>
<rscale>  2 0.43923356E+03</rscale>
<asrwt>0</asrwt>
<pdfrwt beam="1">  1       21 0.73428591E-01 0.43923356E+03</pdfrwt>
<pdfrwt beam="2">  1       21 0.96778269E-01 0.43923356E+03</pdfrwt>
<totfact> 0.12687647E+03</totfact>
</mgrwt>
</event>
<event>
 4    1  0.4676529E-002  0.4103123E+03  0.7818608E-02  0.1040266E+00
         21   -1    0    0  501  502  0.00000000000E+00  0.00000000000E+00  0.98855669391E+02  0.98855669391E+02  0.00000000000E+00 0. -1.
         21   -1    0    0  502  503 -0.00000000000E+00 -0.00000000000E+00 -0.17635284710E+04  0.17635284710E+04  0.00000000000E+00 0. -1.
    9000007    1    1    2  501    0 -0.51779683033E+01  0.91265365424E+02 -0.65989270418E+03  0.77705505552E+03  0.40000000000E+03 0. -1.
   -9000007    1    1    2    0  503  0.51779683033E+01 -0.91265365424E+02 -0.10047800975E+04  0.10853290849E+04  0.40000000000E+03 0. -1.
<mgrwt>
<rscale>  2 0.41031229E+03</rscale>
<asrwt>0</asrwt>
<pdfrwt beam="1">  1       21 0.15208565E-01 0.41031229E+03</pdfrwt>
<pdfrwt beam="2">  1       21 0.27131207E+00 0.41031229E+03</pdfrwt>
<totfact> 0.16036996E+03</totfact>
</mgrwt>
</event>
<event>
 4    1  0.4676529E-002  0.4375903E+03  0.7818608E-02  0.1031489E+00
         21   -1    0    0  501  502  0.00000000000E+00  0.00000000000E+00  0.26800324806E+03  0.26800324806E+03  0.00000000000E+00 0. -1.
         21   -1    0    0  502  503 -0.00000000000E+00 -0.00000000000E+00 -0.20731212209E+04  0.20731212209E+04  0.00000000000E+00 0. -1.
    9000007    1    1    2  501    0  0.14305248792E+03 -0.10498204084E+03  0.45058774777E+02  0.43990400815E+03  0.40000000000E+03 0. -1.
   -9000007    1    1    2    0  503 -0.14305248792E+03  0.10498204084E+03 -0.18501767477E+04  0.19012204609E+04  0.40000000000E+03 0. -1.
<mgrwt>
<rscale>  2 0.43759027E+03</rscale>
<asrwt>0</asrwt>
<pdfrwt beam="1">  1       21 0.41231269E-01 0.43759027E+03</pdfrwt>
<pdfrwt beam="2">  1       21 0.31894172E+00 0.43759027E+03</pdfrwt>
<totfact> 0.11682290E+02</totfact>
</mgrwt>
</event>
<event>
 4    1  0.4676529E-002  0.4907226E+03  0.7818608E-02  0.1016229E+00
         21   -1    0    0  503  502  0.00000000000E+00  0.00000000000E+00  0.61210691937E+03  0.61210691937E+03  0.00000000000E+00 0.  1.
         21   -1    0    0  501  503 -0.00000000000E+00 -0.00000000000E+00 -0.39450586982E+03  0.39450586982E+03  0.00000000000E+00 0.  1.
    9000007    1    1    2  501    0 -0.15045061802E+03 -0.24119145749E+03  0.82268257204E+02  0.49757087312E+03  0.40000000000E+03 0.  1.
   -9000007    1    1    2    0  502  0.15045061802E+03  0.24119145749E+03  0.13533279234E+03  0.50904191607E+03  0.40000000000E+03 0.  1.
<mgrwt>
<rscale>  2 0.49072264E+03</rscale>
<asrwt>0</asrwt>
<pdfrwt beam="1">  1       21 0.94170296E-01 0.49072264E+03</pdfrwt>
<pdfrwt beam="2">  1       21 0.60693211E-01 0.49072264E+03</pdfrwt>
<totfact> 0.20338608E+03</totfact>
</mgrwt>
</event>
<event>
 4    1  0.4676529E-002  0.4525055E+03  0.7818608E-02  0.1026978E+00
         21   -1    0    0  501  502  0.00000000000E+00  0.00000000000E+00  0.98381010517E+03  0.98381010517E+03  0.00000000000E+00 0.  1.
         21   -1    0    0  502  503 -0.00000000000E+00 -0.00000000000E+00 -0.23182167907E+03  0.23182167907E+03  0.00000000000E+00 0.  1.
    9000007    1    1    2  501    0 -0.13018395771E+03  0.16677331797E+03  0.57029987057E+03  0.72801314878E+03  0.40000000000E+03 0.  1.
   -9000007    1    1    2    0  503  0.13018395771E+03 -0.16677331797E+03  0.18168855553E+03  0.48761863546E+03  0.40000000000E+03 0.  1.
<mgrwt>
<rscale>  2 0.45250547E+03</rscale>
<asrwt>0</asrwt>
<pdfrwt beam="1">  1       21 0.15135540E+00 0.45250547E+03</pdfrwt>
<pdfrwt beam="2">  1       21 0.35664874E-01 0.45250547E+03</pdfrwt>
<totfact> 0.18900136E+03</totfact>
</mgrwt>
</event>
<event>
 4    1  0.4676529E-002  0.4070324E+03  0.7818608E-02  0.1041371E+00
         21   -1    0    0  503  502  0.00000000000E+00  0.00000000000E+00  0.15827621504E+04  0.15827621504E+04  0.00000000000E+00 0. -1.
         21   -1    0    0  501  503 -0.00000000000E+00 -0.00000000000E+00 -0.10469733898E+03  0.10469733898E+03  0.00000000000E+00 0. -1.
    9000007    1    1    2  501    0  0.15792523198E+02 -0.73661062019E+02  0.75140420269E+03  0.85456634130E+03  0.40000000000E+03 0. -1.
   -9000007    1    1    2    0  502 -0.15792523198E+02  0.73661062019E+02  0.72666060869E+03  0.83289314805E+03  0.40000000000E+03 0. -1.
<mgrwt>
<rscale>  2 0.40703238E+03</rscale>
<asrwt>0</asrwt>
<pdfrwt beam="1">  1       21 0.24350185E+00 0.40703238E+03</pdfrwt>
<pdfrwt beam="2">  1       21 0.16107284E-01 0.40703238E+03</pdfrwt>
<totfact> 0.21313228E+03</totfact>
</mgrwt>
</event>
<event>
 4    1  0.4676529E-002  0.4139024E+03  0.7818608E-02  0.1039069E+00
         21   -1    0    0  503  502  0.00000000000E+00  0.00000000000E+00  0.60533599336E+02  0.60533599336E+02  0.00000000000E+00 0. -1.
         21   -1    0    0  501  503 -0.00000000000E+00 -0.00000000000E+00 -0.28932393582E+04  0.28932393582E+04  0.00000000000E+00 0. -1.
    9000007    1    1    2  501    0  0.95998438141E+02 -0.45820018988E+02 -0.11981503177E+04  0.12676274524E+04  0.40000000000E+03 0. -1.
   -9000007    1    1    2    0  502 -0.95998438141E+02  0.45820018988E+02 -0.16345554412E+04  0.16861455052E+04  0.40000000000E+03 0. -1.
<mgrwt>
<rscale>  2 0.41390237E+03</rscale>
<asrwt>0</asrwt>
<pdfrwt beam="1">  1       21 0.93128614E-02 0.41390237E+03</pdfrwt>
<pdfrwt beam="2">  1       21 0.44511375E+00 0.41390237E+03</pdfrwt>
<totfact> 0.32336976E+02</totfact>
</mgrwt>
</event>
<event>
 4    1  0.4676529E-002  0.4880765E+03  0.7818608E-02  0.1016939E+00
         21   -1    0    0  501  502  0.00000000000E+00  0.00000000000E+00  0.54852653265E+03  0.54852653265E+03  0.00000000000E+00 0. -1.
         21   -1    0    0  502  503 -0.00000000000E+00 -0.00000000000E+00 -0.88489854992E+03  0.88489854992E+03  0.00000000000E+00 0. -1.
    9000007    1    1    2  501    0  0.25663730815E+02 -0.27849595659E+03  0.34325885587E+03  0.59669528828E+03  0.40000000000E+03 0. -1.
   -9000007    1    1    2    0  503 -0.25663730815E+02  0.27849595659E+03 -0.67963087314E+03  0.83672979429E+03  0.40000000000E+03 0. -1.
<mgrwt>
<rscale>  2 0.48807645E+03</rscale>
<asrwt>0</asrwt>
<pdfrwt beam="1">  1       21 0.84388698E-01 0.48807645E+03</pdfrwt>
<pdfrwt beam="2">  1       21 0.13613824E+00 0.48807645E+03</pdfrwt>
<totfact> 0.38221979E+02</totfact>
</mgrwt>
</event>
<event>
 4    1  0.4676529E-002  0.5061735E+03  0.7818608E-02  0.1012180E+00
         21   -1    0    0  503  502  0.00000000000E+00  0.00000000000E+00  0.55050421876E+03  0.55050421876E+03  0.00000000000E+00 0.  1.
         21   -1    0    0  501  503 -0.00000000000E+00 -0.00000000000E+00 -0.48783988400E+03  0.48783988400E+03  0.00000000000E+00 0. -1.
    9000007    1    1    2  501    0 -0.81568050506E+02 -0.29926289790E+03 -0.79984573234E+02  0.51245405733E+03  0.40000000000E+03 0.  1.
   -9000007    1    1    2    0  502  0.81568050506E+02  0.29926289790E+03  0.14264890800E+03  0.52589004542E+03  0.40000000000E+03 0. -1.
<mgrwt>
<rscale>  2 0.50617352E+03</rscale>
<asrwt>0</asrwt>
<pdfrwt beam="1">  1       21 0.84692956E-01 0.50617352E+03</pdfrwt>
<pdfrwt beam="2">  1       21 0.75052290E-01 0.50617352E+03</pdfrwt>
<totfact> 0.16159003E+03</totfact>
</mgrwt>
</event>
<event>
 4    1  0.4676529E-002  0.4182136E+03  0.7818608E-02  0.1037649E+00
         21   -1    0    0  501  502  0.00000000000E+00  0.00000000000E+00  0.11616916434E+04  0.11616916434E+04  0.00000000000E+00 0. -1.
         21   -1    0    0  502  503 -0.00000000000E+00 -0.00000000000E+00 -0.18205733906E+03  0.18205733906E+03  0.00000000000E+00 0. -1.
    9000007    1    1    2  501    0 -0.10060253630E+03 -0.69149931652E+02  0.76928454337E+03  0.87561480802E+03  0.40000000000E+03 0. -1.
   -9000007    1    1    2    0  503  0.10060253630E+03  0.69149931652E+02  0.21034976100E+03  0.46813417448E+03  0.40000000000E+03 0. -1.
<mgrwt>
<rscale>  2 0.41821356E+03</rscale>
<asrwt>0</asrwt>
<pdfrwt beam="1">  1       21 0.17872179E+00 0.41821356E+03</pdfrwt>
<pdfrwt beam="2">  1       21 0.28008822E-01 0.41821356E+03</pdfrwt>
<totfact> 0.19473856E+03</totfact>
</mgrwt>
</event>
<event>
 4    1  0.4676529E-002  0.4608221E+03  0.7818608E-02  0.1024543E+00
         21   -1    0    0  503  502  0.00000000000E+00  0.00000000000E+00  0.28667751583E+03  0.28667751583E+03  0.00000000000E+00 0.  1.
         21   -1    0    0  501  503 -0.00000000000E+00 -0.00000000000E+00 -0.83542456805E+03  0.83542456805E+03  0.00000000000E+00 0.  1.
    9000007    1    1    2  501    0  0.28634712472E+02  0.22701785525E+03 -0.46324220800E+03  0.65341441416E+03  0.40000000000E+03 0.  1.
   -9000007    1    1    2    0  502 -0.28634712472E+02 -0.22701785525E+03 -0.85504844224E+02  0.46868766972E+03  0.40000000000E+03 0.  1.
<mgrwt>
<rscale>  2 0.46082215E+03</rscale>
<asrwt>0</asrwt>
<pdfrwt beam="1">  1       21 0.44104234E-01 0.46082215E+03</pdfrwt>
<pdfrwt beam="2">  1       21 0.12852685E+00 0.46082215E+03</pdfrwt>
<totfact> 0.18780414E+03</totfact>
</mgrwt>
</event>
<event>
 4    1  0.4676529E-002  0.4051483E+03  0.7818608E-02  0.1042011E+00
         21   -1    0    0  503  502  0.00000000000E+00  0.00000000000E+00  0.23427314700E+03  0.23427314700E+03  0.00000000000E+00 0.  1.
         21   -1    0    0  501  503 -0.00000000000E+00 -0.00000000000E+00 -0.70073551040E+03  0.70073551040E+03  0.00000000000E+00 0.  1.
    9000007    1    1    2  501    0 -0.54587864932E+02  0.34136153945E+02 -0.22828157365E+03  0.46503504048E+03  0.40000000000E+03 0. -1.
   -9000007    1    1    2    0  502  0.54587864932E+02 -0.34136153945E+02 -0.23818078975E+03  0.46997361693E+03  0.40000000000E+03 0. -1.
<mgrwt>
<rscale>  2 0.40514826E+03</rscale>
<asrwt>0</asrwt>
<pdfrwt beam="1">  1       21 0.36042023E-01 0.40514826E+03</pdfrwt>
<pdfrwt beam="2">  1       21 0.10780546E+00 0.40514826E+03</pdfrwt>
<totfact> 0.45284322E+03</totfact>
</mgrwt>
</event>
<event>
 4    1  0.4676529E-002  0.4042390E+03  0.7818608E-02  0.1042322E+00
         21   -1    0    0  503  502  0.00000000000E+00  0.00000000000E+00  0.15472777748E+03  0.15472777748E+03  0.00000000000E+00 0.  1.
         21   -1    0    0  501  503 -0.00000000000E+00 -0.00000000000E+00 -0.24166475791E+04  0.24166475791E+04  0.00000000000E+00 0.  1.
    9000007    1    1    2  501    0  0.58365466990E+02 -0.16269506552E+01 -0.20956425828E+04  0.21342743520E+04  0.40000000000E+03 0.  1.
   -9000007    1    1    2    0  502 -0.58365466990E+02  0.16269506552E+01 -0.16627721879E+03  0.43710100457E+03  0.40000000000E+03 0.  1.
<mgrwt>
<rscale>  2 0.40423901E+03</rscale>
<asrwt>0</asrwt>
<pdfrwt beam="1">  1       21 0.23804274E-01 0.40423901E+03</pdfrwt>
<pdfrwt beam="2">  1       21 0.37179192E+00 0.40423901E+03</pdfrwt>
<totfact> 0.17023019E+02</totfact>
</mgrwt>
</event>
<event>
 4    1  0.4676529E-002  0.4127713E+03  0.7818608E-02  0.1039445E+00
         21   -1    0    0  501  502  0.00000000000E+00  0.00000000000E+00  0.69703316966E+03  0.69703316966E+03  0.00000000000E+00 0.  1.
         21   -1    0    0  502  503 -0.00000000000E+00 -0.00000000000E+00 -0.25064462716E+03  0.25064462716E+03  0.00000000000E+00 0.  1.
    9000007    1    1    2  501    0 -0.80502783739E+02 -0.62445551437E+02  0.14861948569E+03  0.43871163264E+03  0.40000000000E+03 0.  1.
   -9000007    1    1    2    0  503  0.80502783739E+02  0.62445551437E+02  0.29776905681E+03  0.50896616418E+03  0.40000000000E+03 0.  1.
<mgrwt>
<rscale>  2 0.41277130E+03</rscale>
<asrwt>0</asrwt>
<pdfrwt beam="1">  1       21 0.10723587E+00 0.41277130E+03</pdfrwt>
<pdfrwt beam="2">  1       21 0.38560712E-01 0.41277130E+03</pdfrwt>
<totfact> 0.39869055E+03</totfact>
</mgrwt>
</event>
<event>
 4    1  0.4676529E-002  0.5416906E+03  0.7818608E-02  0.1003436E+00
         21   -1    0    0  503  502  0.00000000000E+00  0.00000000000E+00  0.86848637434E+03  0.86848637434E+03  0.00000000000E+00 0. -1.
         21   -1    0    0  501  503 -0.00000000000E+00 -0.00000000000E+00 -0.39766728388E+03  0.39766728388E+03  0.00000000000E+00 0. -1.
    9000007    1    1    2  501    0 -0.18112324980E+03  0.31721141881E+03 -0.10098395814E+02  0.54178472980E+03  0.40000000000E+03 0. -1.
   -9000007    1    1    2    0  502  0.18112324980E+03 -0.31721141881E+03  0.48091748628E+03  0.72436892841E+03  0.40000000000E+03 0. -1.
<mgrwt>
<rscale>  2 0.54169061E+03</rscale>
<asrwt>0</asrwt>
<pdfrwt beam="1">  1       21 0.13361329E+00 0.54169061E+03</pdfrwt>
<pdfrwt beam="2">  1       21 0.61179582E-01 0.54169061E+03</pdfrwt>
<totfact> 0.81637286E+02</totfact>
</mgrwt>
</event>
<event>
 4    1  0.4676529E-002  0.6452825E+03  0.7818608E-02  0.9815672E-01
         21   -1    0    0  501  502  0.00000000000E+00  0.00000000000E+00  0.34971377391E+03  0.34971377391E+03  0.00000000000E+00 0. -1.
         21   -1    0    0  502  503 -0.00000000000E+00 -0.00000000000E+00 -0.18594532191E+04  0.18594532191E+04  0.00000000000E+00 0. -1.
    9000007    1    1    2  501    0 -0.43824619826E+03 -0.25363309925E+03 -0.92420608848E+02  0.65186735480E+03  0.40000000000E+03 0. -1.
   -9000007    1    1    2    0  503  0.43824619826E+03  0.25363309925E+03 -0.14173188363E+04  0.15572996382E+04  0.40000000000E+03 0. -1.
<mgrwt>
<rscale>  2 0.64528248E+03</rscale>
<asrwt>0</asrwt>
<pdfrwt beam="1">  1       21 0.53802120E-01 0.64528248E+03</pdfrwt>
<pdfrwt beam="2">  1       21 0.28606972E+00 0.64528248E+03</pdfrwt>
<totfact> 0.94231067E+01</totfact>
</mgrwt>
</event>
<event>
 4    1  0.4676529E-002  0.4118467E+03  0.7818608E-02  0.1039753E+00
         21   -1    0    0  501  502  0.00000000000E+00  0.00000000000E+00  0.81218270764E+03  0.81218270764E+03  0.00000000000E+00 0. -1.
         21   -1    0    0  502  503 -0.00000000000E+00 -0.00000000000E+00 -0.22711642526E+03  0.22711642526E+03  0.00000000000E+00 0. -1.
    9000007    1    1    2  501    0  0.51846744531E+01 -0.97932690909E+02  0.43993760053E+03  0.60262989069E+03  0.40000000000E+03 0.  1.
   -9000007    1    1    2    0  503 -0.51846744531E+01  0.97932690909E+02  0.14512868185E+03  0.43666924221E+03  0.40000000000E+03 0.  1.
<mgrwt>
<rscale>  2 0.41184669E+03</rscale>
<asrwt>0</asrwt>
<pdfrwt beam="1">  1       21 0.12495118E+00 0.41184669E+03</pdfrwt>
<pdfrwt beam="2">  1       21 0.34940989E-01 0.41184669E+03</pdfrwt>
<totfact> 0.33207194E+03</totfact>
</mgrwt>
</event>
<event>
 4    1  0.4676529E-002  0.5235373E+03  0.7818608E-02  0.1007812E+00
         21   -1    0    0  503  502  0.00000000000E+00  0.00000000000E+00  0.95065592735E+03  0.95065592735E+03  0.00000000000E+00 0. -1.
         21   -1    0    0  501  503 -0.00000000000E+00 -0.00000000000E+00 -0.29682336386E+03  0.29682336386E+03  0.00000000000E+00 0.  1.
    9000007    1    1    2  501    0  0.21567962923E+03  0.25994929456E+03  0.22133243868E+03  0.56840072715E+03  0.40000000000E+03 0.  1.
   -9000007    1    1    2    0  502 -0.21567962923E+03 -0.25994929456E+03  0.43250012481E+03  0.67907856406E+03  0.40000000000E+03 0.  1.
<mgrwt>
<rscale>  2 0.52353733E+03</rscale>
<asrwt>0</asrwt>
<pdfrwt beam="1">  1       21 0.14625476E+00 0.52353733E+03</pdfrwt>
<pdfrwt beam="2">  1       21 0.45665134E-01 0.52353733E+03</pdfrwt>
<totfact> 0.12119462E+03</totfact>
</mgrwt>
</event>
<event>
 4    1  0.4676529E-002  0.4706038E+03  0.7818608E-02  0.1021750E+00
         21   -1    0    0  501  502  0.00000000000E+00  0.00000000000E+00  0.74162984195E+03  0.74162984195E+03  0.00000000000E+00 0. -1.
         21   -1    0    0  502  503 -0.00000000000E+00 -0.00000000000E+00 -0.40975617052E+03  0.40975617052E+03  0.00000000000E+00 0. -1.
    9000007    1    1    2  501    0 -0.85821586847E+02  0.23259966587E+03  0.46574915375E+03  0.66211043154E+03  0.40000000000E+03 0. -1.
   -9000007    1    1    2    0  503  0.85821586847E+02 -0.23259966587E+03 -0.13387548231E+03  0.48927558093E+03  0.40000000000E+03 0. -1.
<mgrwt>
<rscale>  2 0.47060381E+03</rscale>
<asrwt>0</asrwt>
<pdfrwt beam="1">  1       21 0.11409690E+00 0.47060381E+03</pdfrwt>
<pdfrwt beam="2">  1       21 0.63039411E-01 0.47060381E+03</pdfrwt>
<totfact> 0.11766295E+03</totfact>
</mgrwt>
</event>
<event>
 4    1  0.4676529E-002  0.5814733E+03  0.7818608E-02  0.9944606E-01
         21   -1    0    0  503  502  0.00000000000E+00  0.00000000000E+00  0.83575589414E+03  0.83575589414E+03  0.00000000000E+00 0.  1.
         21   -1    0    0  501  503 -0.00000000000E+00 -0.00000000000E+00 -0.57275860122E+03  0.57275860122E+03  0.00000000000E+00 0. -1.
    9000007    1    1    2  501    0 -0.13057446409E+03  0.40132467553E+03 -0.25014684155E+03  0.63299654676E+03  0.40000000000E+03 0. -1.
   -9000007    1    1    2    0  502  0.13057446409E+03 -0.40132467553E+03  0.51314413448E+03  0.77551794861E+03  0.40000000000E+03 0.  1.
<mgrwt>
<rscale>  2 0.58147329E+03</rscale>
<asrwt>0</asrwt>
<pdfrwt beam="1">  1       21 0.12857783E+00 0.58147329E+03</pdfrwt>
<pdfrwt beam="2">  1       21 0.88116709E-01 0.58147329E+03</pdfrwt>
<totfact> 0.38653694E+02</totfact>
</mgrwt>
</event>
<event>
 4    1  0.4676529E-002  0.4150556E+03  0.7818608E-02  0.1038688E+00
         21   -1    0    0  503  502  0.00000000000E+00  0.00000000000E+00  0.43088477991E+03  0.43088477991E+03  0.00000000000E+00 0.  1.
         21   -1    0    0  501  503 -0.00000000000E+00 -0.00000000000E+00 -0.44147999817E+03  0.44147999817E+03  0.00000000000E+00 0. -1.
    9000007    1    1    2  501    0 -0.10393943490E+03 -0.38310639996E+02  0.12871190419E+03  0.43455479004E+03  0.40000000000E+03 0.  1.
   -9000007    1    1    2    0  502  0.10393943490E+03  0.38310639996E+02 -0.13930712245E+03  0.43780998804E+03  0.40000000000E+03 0. -1.
<mgrwt>
<rscale>  2 0.41505555E+03</rscale>
<asrwt>0</asrwt>
<pdfrwt beam="1">  1       21 0.66289966E-01 0.41505555E+03</pdfrwt>
<pdfrwt beam="2">  1       21 0.67920000E-01 0.41505555E+03</pdfrwt>
<totfact> 0.36600425E+03</totfact>
</mgrwt>
</event>
<event>
 4    1  0.4676529E-002  0.4289343E+03  0.7818608E-02  0.1034197E+00
         21   -1    0    0  501  502  0.00000000000E+00  0.00000000000E+00  0.39208436777E+03  0.39208436777E+03  0.00000000000E+00 0.  1.
         21   -1    0    0  502  503 -0.00000000000E+00 -0.00000000000E+00 -0.53088265265E+03  0.53088265265E+03  0.00000000000E+00 0.  1.
    9000007    1    1    2  501    0 -0.12784211952E+03  0.87412938686E+02  0.87843733498E+02  0.43783689987E+03  0.40000000000E+03 0.  1.
   -9000007    1    1    2    0  503  0.12784211952E+03 -0.87412938686E+02 -0.22664201838E+03  0.48513012055E+03  0.40000000000E+03 0.  1.
<mgrwt>
<rscale>  2 0.42893429E+03</rscale>
<asrwt>0</asrwt>
<pdfrwt beam="1">  1       21 0.60320672E-01 0.42893429E+03</pdfrwt>
<pdfrwt beam="2">  1       21 0.81674254E-01 0.42893429E+03</pdfrwt>
<totfact> 0.29480653E+03</totfact>
</mgrwt>
</event>
<event>
 4    1  0.4676529E-002  0.4228458E+03  0.7818608E-02  0.1036144E+00
         21   -1    0    0  503  502  0.00000000000E+00  0.00000000000E+00  0.48428251254E+03  0.48428251254E+03  0.00000000000E+00 0. -1.
         21   -1    0    0  501  503 -0.00000000000E+00 -0.00000000000E+00 -0.44360312035E+03  0.44360312035E+03  0.00000000000E+00 0. -1.
    9000007    1    1    2  501    0 -0.13658867686E+03  0.11921949958E+02 -0.16966035509E+03  0.45561303277E+03  0.40000000000E+03 0. -1.
   -9000007    1    1    2    0  502  0.13658867686E+03 -0.11921949958E+02  0.21033974728E+03  0.47227260012E+03  0.40000000000E+03 0. -1.
<mgrwt>
<rscale>  2 0.42284583E+03</rscale>
<asrwt>0</asrwt>
<pdfrwt beam="1">  1       21 0.74505002E-01 0.42284583E+03</pdfrwt>
<pdfrwt beam="2">  1       21 0.68246634E-01 0.42284583E+03</pdfrwt>
<totfact> 0.27758455E+03</totfact>
</mgrwt>
</event>
<event>
 4    1  0.4676529E-002  0.5422230E+03  0.7818608E-02  0.1003310E+00
         21   -1    0    0  503  502  0.00000000000E+00  0.00000000000E+00  0.54648024272E+03  0.54648024272E+03  0.00000000000E+00 0.  1.
         21   -1    0    0  501  503 -0.00000000000E+00 -0.00000000000E+00 -0.73772262233E+03  0.73772262233E+03  0.00000000000E+00 0. -1.
    9000007    1    1    2  501    0 -0.11349306609E+03  0.34803028689E+03 -0.42971770015E+03  0.69185479580E+03  0.40000000000E+03 0. -1.
   -9000007    1    1    2    0  502  0.11349306609E+03 -0.34803028689E+03  0.23847532054E+03  0.59234806925E+03  0.40000000000E+03 0.  1.
<mgrwt>
<rscale>  2 0.54222298E+03</rscale>
<asrwt>0</asrwt>
<pdfrwt beam="1">  1       21 0.84073883E-01 0.54222298E+03</pdfrwt>
<pdfrwt beam="2">  1       21 0.11349579E+00 0.54222298E+03</pdfrwt>
<totfact> 0.60279991E+02</totfact>
</mgrwt>
</event>
<event>
 4    1  0.4676529E-002  0.4142501E+03  0.7818608E-02  0.1038954E+00
         21   -1    0    0  501  502  0.00000000000E+00  0.00000000000E+00  0.11500561022E+04  0.11500561022E+04  0.00000000000E+00 0.  1.
         21   -1    0    0  502  503 -0.00000000000E+00 -0.00000000000E+00 -0.15563202783E+03  0.15563202783E+03  0.00000000000E+00 0.  1.
    9000007    1    1    2  501    0  0.10575256840E+03 -0.20483226892E+02  0.36462560070E+03  0.55186501701E+03  0.40000000000E+03 0. -1.
   -9000007    1    1    2    0  503 -0.10575256840E+03  0.20483226892E+02  0.62979847370E+03  0.75382311306E+03  0.40000000000E+03 0. -1.
<mgrwt>
<rscale>  2 0.41425013E+03</rscale>
<asrwt>0</asrwt>
<pdfrwt beam="1">  1       21 0.17693170E+00 0.41425013E+03</pdfrwt>
<pdfrwt beam="2">  1       21 0.23943390E-01 0.41425013E+03</pdfrwt>
<totfact> 0.27271793E+03</totfact>
</mgrwt>
</event>
<event>
 4    1  0.4676529E-002  0.4403484E+03  0.7818608E-02  0.1030640E+00
         21   -1    0    0  501  502  0.00000000000E+00  0.00000000000E+00  0.22631782355E+03  0.22631782355E+03  0.00000000000E+00 0. -1.
         21   -1    0    0  502  503 -0.00000000000E+00 -0.00000000000E+00 -0.12379132577E+04  0.12379132577E+04  0.00000000000E+00 0.  1.
    9000007    1    1    2  501    0  0.18338689022E+03  0.16611447058E+02 -0.99571790165E+02  0.45146564994E+03  0.40000000000E+03 0. -1.
   -9000007    1    1    2    0  503 -0.18338689022E+03 -0.16611447058E+02 -0.91202364395E+03  0.10127654313E+04  0.40000000000E+03 0.  1.
<mgrwt>
<rscale>  2 0.44034838E+03</rscale>
<asrwt>0</asrwt>
<pdfrwt beam="1">  1       21 0.34818127E-01 0.44034838E+03</pdfrwt>
<pdfrwt beam="2">  1       21 0.19044819E+00 0.44034838E+03</pdfrwt>
<totfact> 0.10357704E+03</totfact>
</mgrwt>
</event>
<event>
 4    1  0.4676529E-002  0.4437577E+03  0.7818608E-02  0.1029600E+00
         21   -1    0    0  501  502  0.00000000000E+00  0.00000000000E+00  0.12780296733E+04  0.12780296733E+04  0.00000000000E+00 0.  1.
         21   -1    0    0  502  503 -0.00000000000E+00 -0.00000000000E+00 -0.17774195030E+03  0.17774195030E+03  0.00000000000E+00 0.  1.
    9000007    1    1    2  501    0 -0.12730073087E+03  0.14392862277E+03  0.28457424715E+03  0.52716546423E+03  0.40000000000E+03 0.  1.
   -9000007    1    1    2    0  503  0.12730073087E+03 -0.14392862277E+03  0.81571347583E+03  0.92860615935E+03  0.40000000000E+03 0.  1.
<mgrwt>
<rscale>  2 0.44375773E+03</rscale>
<asrwt>0</asrwt>
<pdfrwt beam="1">  1       21 0.19661994E+00 0.44375773E+03</pdfrwt>
<pdfrwt beam="2">  1       21 0.27344916E-01 0.44375773E+03</pdfrwt>
<totfact> 0.15201548E+03</totfact>
</mgrwt>
</event>
<event>
 4    1  0.4676529E-002  0.5223270E+03  0.7818608E-02  0.1008110E+00
         21   -1    0    0  503  502  0.00000000000E+00  0.00000000000E+00  0.35426883139E+03  0.35426883139E+03  0.00000000000E+00 0.  1.
         21   -1    0    0  501  503 -0.00000000000E+00 -0.00000000000E+00 -0.81914618947E+03  0.81914618947E+03  0.00000000000E+00 0. -1.
    9000007    1    1    2  501    0  0.12208467121E+03  0.31292308232E+03 -0.37598923834E+03  0.64357861194E+03  0.40000000000E+03 0. -1.
   -9000007    1    1    2    0  502 -0.12208467121E+03 -0.31292308232E+03 -0.88888119735E+02  0.52983640893E+03  0.40000000000E+03 0.  1.
<mgrwt>
<rscale>  2 0.52232703E+03</rscale>
<asrwt>0</asrwt>
<pdfrwt beam="1">  1       21 0.54502897E-01 0.52232703E+03</pdfrwt>
<pdfrwt beam="2">  1       21 0.12602249E+00 0.52232703E+03</pdfrwt>
<totfact> 0.12322755E+03</totfact>
</mgrwt>
</event>
<event>
 4    1  0.4676529E-002  0.4024125E+03  0.7818608E-02  0.1042948E+00
         21   -1    0    0  503  502  0.00000000000E+00  0.00000000000E+00  0.11533447200E+04  0.11533447200E+04  0.00000000000E+00 0.  1.
         21   -1    0    0  501  503 -0.00000000000E+00 -0.00000000000E+00 -0.35966375971E+03  0.35966375971E+03  0.00000000000E+00 0.  1.
    9000007    1    1    2  501    0  0.43413968985E+02 -0.71426385794E+01 -0.19382438526E+03  0.44665835077E+03  0.40000000000E+03 0.  1.
   -9000007    1    1    2    0  502 -0.43413968985E+02  0.71426385794E+01  0.98750534552E+03  0.10663501289E+04  0.40000000000E+03 0.  1.
<mgrwt>
<rscale>  2 0.40241246E+03</rscale>
<asrwt>0</asrwt>
<pdfrwt beam="1">  1       21 0.17743765E+00 0.40241246E+03</pdfrwt>
<pdfrwt beam="2">  1       21 0.55332887E-01 0.40241246E+03</pdfrwt>
<totfact> 0.49462272E+02</totfact>
</mgrwt>
</event>
<event>
 4    1  0.4676529E-002  0.4868140E+03  0.7818608E-02  0.1017279E+00
         21   -1    0    0  503  502  0.00000000000E+00  0.00000000000E+00  0.27562955712E+03  0.27562955712E+03  0.00000000000E+00 0. -1.
         21   -1    0    0  501  503 -0.00000000000E+00 -0.00000000000E+00 -0.11749004104E+04  0.11749004104E+04  0.00000000000E+00 0.  1.
    9000007    1    1    2  501    0 -0.43612395746E+02 -0.27401789714E+03 -0.74043043194E+02  0.49241265343E+03  0.40000000000E+03 0.  1.
   -9000007    1    1    2    0  502  0.43612395746E+02  0.27401789714E+03 -0.82522781013E+03  0.95811731413E+03  0.40000000000E+03 0.  1.
<mgrwt>
<rscale>  2 0.48681398E+03</rscale>
<asrwt>0</asrwt>
<pdfrwt beam="1">  1       21 0.42404547E-01 0.48681398E+03</pdfrwt>
<pdfrwt beam="2">  1       21 0.18075391E+00 0.48681398E+03</pdfrwt>
<totfact> 0.79074842E+02</totfact>
</mgrwt>
</event>
<event>
 4    1  0.4676529E-002  0.4008434E+03  0.7818608E-02  0.1043488E+00
         21   -1    0    0  501  502  0.00000000000E+00  0.00000000000E+00  0.58171529576E+03  0.58171529576E+03  0.00000000000E+00 0. -1.
         21   -1    0    0  502  503 -0.00000000000E+00 -0.00000000000E+00 -0.28105154865E+03  0.28105154865E+03  0.00000000000E+00 0. -1.
    9000007    1    1    2  501    0  0.18273468230E+02 -0.18480989490E+02  0.20695208593E+03  0.45111487726E+03  0.40000000000E+03 0. -1.
   -9000007    1    1    2    0  503 -0.18273468230E+02  0.18480989490E+02  0.93711661186E+02  0.41165196715E+03  0.40000000000E+03 0. -1.
<mgrwt>
<rscale>  2 0.40084344E+03</rscale>
<asrwt>0</asrwt>
<pdfrwt beam="1">  1       21 0.89494660E-01 0.40084344E+03</pdfrwt>
<pdfrwt beam="2">  1       21 0.43238700E-01 0.40084344E+03</pdfrwt>
<totfact> 0.48918472E+03</totfact>
</mgrwt>
</event>
<event>
 4    1  0.4676529E-002  0.4913044E+03  0.7818608E-02  0.1016074E+00
         21   -1    0    0  503  502  0.00000000000E+00  0.00000000000E+00  0.15828281720E+03  0.15828281720E+03  0.00000000000E+00 0.  1.
         21   -1    0    0  501  503 -0.00000000000E+00 -0.00000000000E+00 -0.15350184852E+04  0.15350184852E+04  0.00000000000E+00 0.  1.
    9000007    1    1    2  501    0  0.26763513633E+03 -0.98749664966E+02 -0.61994243411E+03  0.79101749926E+03  0.40000000000E+03 0.  1.
   -9000007    1    1    2    0  502 -0.26763513633E+03  0.98749664966E+02 -0.75679323387E+03  0.90228380311E+03  0.40000000000E+03 0.  1.
<mgrwt>
<rscale>  2 0.49130445E+03</rscale>
<asrwt>0</asrwt>
<pdfrwt beam="1">  1       21 0.24351202E-01 0.49130445E+03</pdfrwt>
<pdfrwt beam="2">  1       21 0.23615670E+00 0.49130445E+03</pdfrwt>
<totfact> 0.10363784E+03</totfact>
</mgrwt>
</event>
<event>
 4    1  0.4676529E-002  0.4129282E+03  0.7818608E-02  0.1039393E+00
         21   -1    0    0  503  502  0.00000000000E+00  0.00000000000E+00  0.33557192832E+03  0.33557192832E+03  0.00000000000E+00 0. -1.
         21   -1    0    0  501  503 -0.00000000000E+00 -0.00000000000E+00 -0.78765946447E+03  0.78765946447E+03  0.00000000000E+00 0.  1.
    9000007    1    1    2  501    0  0.81659385282E+02  0.61979390832E+02 -0.56061925515E+03  0.69627842803E+03  0.40000000000E+03 0. -1.
   -9000007    1    1    2    0  502 -0.81659385282E+02 -0.61979390832E+02  0.10853171899E+03  0.42695296476E+03  0.40000000000E+03 0. -1.
<mgrwt>
<rscale>  2 0.41292820E+03</rscale>
<asrwt>0</asrwt>
<pdfrwt beam="1">  1       21 0.51626451E-01 0.41292820E+03</pdfrwt>
<pdfrwt beam="2">  1       21 0.12117838E+00 0.41292820E+03</pdfrwt>
<totfact> 0.15972459E+03</totfact>
</mgrwt>
</event>
<event>
 4    1  0.4676529E-002  0.4673248E+03  0.7818608E-02  0.1022678E+00
         21   -1    0    0  501  502  0.00000000000E+00  0.00000000000E+00  0.17714941302E+03  0.17714941302E+03  0.00000000000E+00 0.  1.
         21   -1    0    0  502  503 -0.00000000000E+00 -0.00000000000E+00 -0.18520934648E+04  0.18520934648E+04  0.00000000000E+00 0.  1.
    9000007    1    1    2  501    0 -0.24162726118E+03 -0.29563652533E+01 -0.25077277362E+03  0.53035785790E+03  0.40000000000E+03 0.  1.
   -9000007    1    1    2    0  503  0.24162726118E+03  0.29563652533E+01 -0.14241712782E+04  0.14988850199E+04  0.40000000000E+03 0.  1.
<mgrwt>
<rscale>  2 0.46732481E+03</rscale>
<asrwt>0</asrwt>
<pdfrwt beam="1">  1       21 0.27253755E-01 0.46732481E+03</pdfrwt>
<pdfrwt beam="2">  1       21 0.28493746E+00 0.46732481E+03</pdfrwt>
<totfact> 0.42326017E+02</totfact>
</mgrwt>
</event>
<event>
 4    1  0.4676529E-002  0.4013011E+03  0.7818608E-02  0.1043330E+00
         21   -1    0    0  503  502  0.00000000000E+00  0.00000000000E+00  0.12093893264E+04  0.12093893264E+04  0.00000000000E+00 0. -1.
         21   -1    0    0  501  503 -0.00000000000E+00 -0.00000000000E+00 -0.13959973442E+03  0.13959973442E+03  0.00000000000E+00 0. -1.
    9000007    1    1    2  501    0  0.31720525678E+02  0.60295508075E+01  0.39003004001E+03  0.55961234738E+03  0.40000000000E+03 0. -1.
   -9000007    1    1    2    0  502 -0.31720525678E+02 -0.60295508075E+01  0.67975955198E+03  0.78937671345E+03  0.40000000000E+03 0. -1.
<mgrwt>
<rscale>  2 0.40130107E+03</rscale>
<asrwt>0</asrwt>
<pdfrwt beam="1">  1       21 0.18605989E+00 0.40130107E+03</pdfrwt>
<pdfrwt beam="2">  1       21 0.21476883E-01 0.40130107E+03</pdfrwt>
<totfact> 0.29187033E+03</totfact>
</mgrwt>
</event>
<event>
 4    1  0.4676529E-002  0.7009423E+03  0.7818608E-02  0.9715622E-01
         21   -1    0    0  503  502  0.00000000000E+00  0.00000000000E+00  0.95668724824E+03  0.95668724824E+03  0.00000000000E+00 0.  1.
         21   -1    0    0  501  503 -0.00000000000E+00 -0.00000000000E+00 -0.14947827498E+04  0.14947827498E+04  0.00000000000E+00 0.  1.
    9000007    1    1    2  501    0  0.56812969409E+03  0.92459437376E+02 -0.12621420186E+04  0.14437183146E+04  0.40000000000E+03 0.  1.
   -9000007    1    1    2    0  502 -0.56812969409E+03 -0.92459437376E+02  0.72404651695E+03  0.10077516835E+04  0.40000000000E+03 0.  1.
<mgrwt>
<rscale>  2 0.70094229E+03</rscale>
<asrwt>0</asrwt>
<pdfrwt beam="1">  1       21 0.14718265E+00 0.70094229E+03</pdfrwt>
<pdfrwt beam="2">  1       21 0.22996658E+00 0.70094229E+03</pdfrwt>
<totfact> 0.18235960E+01</totfact>
</mgrwt>
</event>
<event>
 4    1  0.4676529E-002  0.4554985E+03  0.7818608E-02  0.1026095E+00
         21   -1    0    0  503  502  0.00000000000E+00  0.00000000000E+00  0.10355625086E+04  0.10355625086E+04  0.00000000000E+00 0.  1.
         21   -1    0    0  501  503 -0.00000000000E+00 -0.00000000000E+00 -0.56507891778E+03  0.56507891778E+03  0.00000000000E+00 0.  1.
    9000007    1    1    2  501    0  0.91113452658E+02  0.19793225616E+03 -0.40773065772E+03  0.61132898552E+03  0.40000000000E+03 0.  1.
   -9000007    1    1    2    0  502 -0.91113452658E+02 -0.19793225616E+03  0.87821424855E+03  0.98931244086E+03  0.40000000000E+03 0.  1.
<mgrwt>
<rscale>  2 0.45549845E+03</rscale>
<asrwt>0</asrwt>
<pdfrwt beam="1">  1       21 0.15931731E+00 0.45549845E+03</pdfrwt>
<pdfrwt beam="2">  1       21 0.86935219E-01 0.45549845E+03</pdfrwt>
<totfact> 0.23645614E+02</totfact>
</mgrwt>
</event>
<event>
 4    1  0.4676529E-002  0.4308610E+03  0.7818608E-02  0.1033588E+00
         21   -1    0    0  503  502  0.00000000000E+00  0.00000000000E+00  0.19435357746E+03  0.19435357746E+03  0.00000000000E+00 0.  1.
         21   -1    0    0  501  503 -0.00000000000E+00 -0.00000000000E+00 -0.95948187441E+03  0.95948187441E+03  0.00000000000E+00 0.  1.
    9000007    1    1    2  501    0 -0.98041028561E+01  0.15982823119E+03 -0.34390032266E+03  0.55127907256E+03  0.40000000000E+03 0.  1.
   -9000007    1    1    2    0  502  0.98041028561E+01 -0.15982823119E+03 -0.42122797428E+03  0.60255637930E+03  0.40000000000E+03 0.  1.
<mgrwt>
<rscale>  2 0.43086098E+03</rscale>
<asrwt>0</asrwt>
<pdfrwt beam="1">  1       21 0.29900550E-01 0.43086098E+03</pdfrwt>
<pdfrwt beam="2">  1       21 0.14761260E+00 0.43086098E+03</pdfrwt>
<totfact> 0.29057230E+03</totfact>
</mgrwt>
</event>
<event>
 4    1  0.4676529E-002  0.4912631E+03  0.7818608E-02  0.1016085E+00
         21   -1    0    0  503  502  0.00000000000E+00  0.00000000000E+00  0.11361759664E+04  0.11361759664E+04  0.00000000000E+00 0. -1.
         21   -1    0    0  501  503 -0.00000000000E+00 -0.00000000000E+00 -0.21409543632E+03  0.21409543632E+03  0.00000000000E+00 0.  1.
    9000007    1    1    2  501    0  0.51848265307E+02  0.28044811739E+03  0.52087602820E+03  0.71599666614E+03  0.40000000000E+03 0. -1.
   -9000007    1    1    2    0  502 -0.51848265307E+02 -0.28044811739E+03  0.40120450189E+03  0.63427473661E+03  0.40000000000E+03 0.  1.
<mgrwt>
<rscale>  2 0.49126305E+03</rscale>
<asrwt>0</asrwt>
<pdfrwt beam="1">  1       21 0.17479630E+00 0.49126305E+03</pdfrwt>
<pdfrwt beam="2">  1       21 0.32937760E-01 0.49126305E+03</pdfrwt>
<totfact> 0.14591758E+03</totfact>
</mgrwt>
</event>
<event>
 4    1  0.4676529E-002  0.4156839E+03  0.7818608E-02  0.1038480E+00
         21   -1    0    0  503  502  0.00000000000E+00  0.00000000000E+00  0.26392003381E+03  0.26392003381E+03  0.00000000000E+00 0.  1.
         21   -1    0    0  501  503 -0.00000000000E+00 -0.00000000000E+00 -0.70268606293E+03  0.70268606293E+03  0.00000000000E+00 0.  1.
    9000007    1    1    2  501    0 -0.33466597421E+02  0.10804220658E+03 -0.34565763520E+03  0.54062217150E+03  0.40000000000E+03 0.  1.
   -9000007    1    1    2    0  502  0.33466597421E+02 -0.10804220658E+03 -0.93108393915E+02  0.42598392524E+03  0.40000000000E+03 0.  1.
<mgrwt>
<rscale>  2 0.41568393E+03</rscale>
<asrwt>0</asrwt>
<pdfrwt beam="1">  1       21 0.40603082E-01 0.41568393E+03</pdfrwt>
<pdfrwt beam="2">  1       21 0.10810555E+00 0.41568393E+03</pdfrwt>
<totfact> 0.35114106E+03</totfact>
</mgrwt>
</event>
<event>
 4    1  0.4676529E-002  0.4980262E+03  0.7818608E-02  0.1014295E+00
         21   -1    0    0  501  502  0.00000000000E+00  0.00000000000E+00  0.43248461454E+03  0.43248461454E+03  0.00000000000E+00 0. -1.
         21   -1    0    0  502  503 -0.00000000000E+00 -0.00000000000E+00 -0.57423224466E+03  0.57423224466E+03  0.00000000000E+00 0. -1.
    9000007    1    1    2  501    0  0.25321157150E+03 -0.15464148203E+03 -0.52903697554E+02  0.50082820320E+03  0.40000000000E+03 0. -1.
   -9000007    1    1    2    0  503 -0.25321157150E+03  0.15464148203E+03 -0.88843932565E+02  0.50588865599E+03  0.40000000000E+03 0. -1.
<mgrwt>
<rscale>  2 0.49802619E+03</rscale>
<asrwt>0</asrwt>
<pdfrwt beam="1">  1       21 0.66536095E-01 0.49802619E+03</pdfrwt>
<pdfrwt beam="2">  1       21 0.88343422E-01 0.49802619E+03</pdfrwt>
<totfact> 0.19264016E+03</totfact>
</mgrwt>
</event>
<event>
 4    1  0.4676529E-002  0.4657421E+03  0.7818608E-02  0.1023129E+00
         21   -1    0    0  503  502  0.00000000000E+00  0.00000000000E+00  0.13239859026E+04  0.13239859026E+04  0.00000000000E+00 0. -1.
         21   -1    0    0  501  503 -0.00000000000E+00 -0.00000000000E+00 -0.34000517388E+03  0.34000517388E+03  0.00000000000E+00 0.  1.
    9000007    1    1    2  501    0  0.11811380202E+02  0.23827749544E+03 -0.10689543224E+03  0.47785176254E+03  0.40000000000E+03 0.  1.
   -9000007    1    1    2    0  502 -0.11811380202E+02 -0.23827749544E+03  0.10908761610E+04  0.11861393140E+04  0.40000000000E+03 0. -1.
<mgrwt>
<rscale>  2 0.46574207E+03</rscale>
<asrwt>0</asrwt>
<pdfrwt beam="1">  1       21 0.20369014E+00 0.46574207E+03</pdfrwt>
<pdfrwt beam="2">  1       21 0.52308489E-01 0.46574207E+03</pdfrwt>
<totfact> 0.35747780E+02</totfact>
</mgrwt>
</event>
<event>
 4    1  0.4676529E-002  0.4429122E+03  0.7818608E-02  0.1029857E+00
         21   -1    0    0  501  502  0.00000000000E+00  0.00000000000E+00  0.12059664464E+04  0.12059664464E+04  0.00000000000E+00 0. -1.
         21   -1    0    0  502  503 -0.00000000000E+00 -0.00000000000E+00 -0.23091637342E+03  0.23091637342E+03  0.00000000000E+00 0. -1.
    9000007    1    1    2  501    0  0.19008970564E+03 -0.60954720171E+01  0.87810729882E+03  0.98348547483E+03  0.40000000000E+03 0. -1.
   -9000007    1    1    2    0  503 -0.19008970564E+03  0.60954720171E+01  0.96942774138E+02  0.45339734497E+03  0.40000000000E+03 0. -1.
<mgrwt>
<rscale>  2 0.44291224E+03</rscale>
<asrwt>0</asrwt>
<pdfrwt beam="1">  1       21 0.18553330E+00 0.44291224E+03</pdfrwt>
<pdfrwt beam="2">  1       21 0.35525597E-01 0.44291224E+03</pdfrwt>
<totfact> 0.10735963E+03</totfact>
</mgrwt>
</event>
<event>
 4    1  0.4676529E-002  0.5124176E+03  0.7818608E-02  0.1010588E+00
         21   -1    0    0  503  502  0.00000000000E+00  0.00000000000E+00  0.31578470627E+03  0.31578470627E+03  0.00000000000E+00 0. -1.
         21   -1    0    0  501  503 -0.00000000000E+00 -0.00000000000E+00 -0.85070584232E+03  0.85070584232E+03  0.00000000000E+00 0. -1.
    9000007    1    1    2  501    0  0.85105742647E+02  0.30875360417E+03 -0.35511886312E+03  0.62344300659E+03  0.40000000000E+03 0. -1.
   -9000007    1    1    2    0  502 -0.85105742647E+02 -0.30875360417E+03 -0.17980227294E+03  0.54304754200E+03  0.40000000000E+03 0. -1.
<mgrwt>
<rscale>  2 0.51241758E+03</rscale>
<asrwt>0</asrwt>
<pdfrwt beam="1">  1       21 0.48582263E-01 0.51241758E+03</pdfrwt>
<pdfrwt beam="2">  1       21 0.13087782E+00 0.51241758E+03</pdfrwt>
<totfact> 0.14340678E+03</totfact>
</mgrwt>
</event>
<event>
 4    1  0.4676529E-002  0.4607199E+03  0.7818608E-02  0.1024573E+00
         21   -1    0    0  503  502  0.00000000000E+00  0.00000000000E+00  0.39043388580E+03  0.39043388580E+03  0.00000000000E+00 0. -1.
         21   -1    0    0  501  503 -0.00000000000E+00 -0.00000000000E+00 -0.63782044905E+03  0.63782044905E+03  0.00000000000E+00 0. -1.
    9000007    1    1    2  501    0 -0.21755032377E+03  0.70247332230E+02  0.73848189464E+02  0.46660088528E+03  0.40000000000E+03 0. -1.
   -9000007    1    1    2    0  502  0.21755032377E+03 -0.70247332230E+02 -0.32123475272E+03  0.56165344957E+03  0.40000000000E+03 0. -1.
<mgrwt>
<rscale>  2 0.46071991E+03</rscale>
<asrwt>0</asrwt>
<pdfrwt beam="1">  1       21 0.60066751E-01 0.46071991E+03</pdfrwt>
<pdfrwt beam="2">  1       21 0.98126223E-01 0.46071991E+03</pdfrwt>
<totfact> 0.19049495E+03</totfact>
</mgrwt>
</event>
<event>
 4    1  0.4676529E-002  0.4272355E+03  0.7818608E-02  0.1034737E+00
         21   -1    0    0  503  502  0.00000000000E+00  0.00000000000E+00  0.51746505025E+03  0.51746505025E+03  0.00000000000E+00 0.  1.
         21   -1    0    0  501  503 -0.00000000000E+00 -0.00000000000E+00 -0.88665216735E+03  0.88665216735E+03  0.00000000000E+00 0.  1.
    9000007    1    1    2  501    0 -0.14306711238E+03 -0.45409273569E+02 -0.72938712354E+03  0.84530218074E+03  0.40000000000E+03 0.  1.
   -9000007    1    1    2    0  502  0.14306711238E+03  0.45409273569E+02  0.36020000645E+03  0.55881503686E+03  0.40000000000E+03 0.  1.
<mgrwt>
<rscale>  2 0.42723553E+03</rscale>
<asrwt>0</asrwt>
<pdfrwt beam="1">  1       21 0.79610009E-01 0.42723553E+03</pdfrwt>
<pdfrwt beam="2">  1       21 0.13640802E+00 0.42723553E+03</pdfrwt>
<totfact> 0.44778812E+02</totfact>
</mgrwt>
</event>
<event>
 4    1  0.4676529E-002  0.5784556E+03  0.7818608E-02  0.9951140E-01
         21   -1    0    0  501  502  0.00000000000E+00  0.00000000000E+00  0.40729545418E+03  0.40729545418E+03  0.00000000000E+00 0.  1.
         21   -1    0    0  502  503 -0.00000000000E+00 -0.00000000000E+00 -0.12060351962E+04  0.12060351962E+04  0.00000000000E+00 0.  1.
    9000007    1    1    2  501    0 -0.14533899746E+03  0.39177480367E+03  0.56097108566E+02  0.58116934414E+03  0.40000000000E+03 0.  1.
   -9000007    1    1    2    0  503  0.14533899746E+03 -0.39177480367E+03 -0.85483685055E+03  0.10321613062E+04  0.40000000000E+03 0.  1.
<mgrwt>
<rscale>  2 0.57845563E+03</rscale>
<asrwt>0</asrwt>
<pdfrwt beam="1">  1       21 0.62660839E-01 0.57845563E+03</pdfrwt>
<pdfrwt beam="2">  1       21 0.18554388E+00 0.57845563E+03</pdfrwt>
<totfact> 0.30502981E+02</totfact>
</mgrwt>
</event>
<event>
 4    1  0.4676529E-002  0.4301808E+03  0.7818608E-02  0.1033803E+00
         21   -1    0    0  503  502  0.00000000000E+00  0.00000000000E+00  0.46584869321E+03  0.46584869321E+03  0.00000000000E+00 0. -1.
         21   -1    0    0  501  503 -0.00000000000E+00 -0.00000000000E+00 -0.59151625484E+03  0.59151625484E+03  0.00000000000E+00 0. -1.
    9000007    1    1    2  501    0  0.33934656965E+02 -0.15460915863E+03 -0.36581595051E+03  0.56469182969E+03  0.40000000000E+03 0. -1.
   -9000007    1    1    2    0  502 -0.33934656965E+02  0.15460915863E+03  0.24014838887E+03  0.49267311836E+03  0.40000000000E+03 0. -1.
<mgrwt>
<rscale>  2 0.43018084E+03</rscale>
<asrwt>0</asrwt>
<pdfrwt beam="1">  1       21 0.71669030E-01 0.43018084E+03</pdfrwt>
<pdfrwt beam="2">  1       21 0.91002501E-01 0.43018084E+03</pdfrwt>
<totfact> 0.15583617E+03</totfact>
</mgrwt>
</event>
<event>
 4    1  0.4676529E-002  0.4028652E+03  0.7818608E-02  0.1042792E+00
         21   -1    0    0  501  502  0.00000000000E+00  0.00000000000E+00  0.32318537029E+03  0.32318537029E+03  0.00000000000E+00 0. -1.
         21   -1    0    0  502  503 -0.00000000000E+00 -0.00000000000E+00 -0.77939490801E+03  0.77939490801E+03  0.00000000000E+00 0. -1.
    9000007    1    1    2  501    0 -0.34829811390E+02  0.32973271969E+02  0.10067278764E+03  0.41525337157E+03  0.40000000000E+03 0. -1.
   -9000007    1    1    2    0  503  0.34829811390E+02 -0.32973271969E+02 -0.55688232537E+03  0.68732690674E+03  0.40000000000E+03 0. -1.
<mgrwt>
<rscale>  2 0.40286518E+03</rscale>
<asrwt>0</asrwt>
<pdfrwt beam="1">  1       21 0.49720826E-01 0.40286518E+03</pdfrwt>
<pdfrwt beam="2">  1       21 0.11990691E+00 0.40286518E+03</pdfrwt>
<totfact> 0.17851535E+03</totfact>
</mgrwt>
</event>
<event>
 4    1  0.4676529E-002  0.4384507E+03  0.7818608E-02  0.1031223E+00
         21   -1    0    0  503  502  0.00000000000E+00  0.00000000000E+00  0.55417215537E+03  0.55417215537E+03  0.00000000000E+00 0. -1.
         21   -1    0    0  501  503 -0.00000000000E+00 -0.00000000000E+00 -0.37683958565E+03  0.37683958565E+03  0.00000000000E+00 0. -1.
    9000007    1    1    2  501    0 -0.11887281030E+03 -0.13456697040E+03 -0.42557651670E+02  0.44051125782E+03  0.40000000000E+03 0. -1.
   -9000007    1    1    2    0  502  0.11887281030E+03  0.13456697040E+03  0.21989022139E+03  0.49050048320E+03  0.40000000000E+03 0. -1.
<mgrwt>
<rscale>  2 0.43845070E+03</rscale>
<asrwt>0</asrwt>
<pdfrwt beam="1">  1       21 0.85257255E-01 0.43845070E+03</pdfrwt>
<pdfrwt beam="2">  1       21 0.57975321E-01 0.43845070E+03</pdfrwt>
<totfact> 0.28988275E+03</totfact>
</mgrwt>
</event>
<event>
 4    1  0.4676529E-002  0.4905577E+03  0.7818608E-02  0.1016273E+00
         21   -1    0    0  503  502  0.00000000000E+00  0.00000000000E+00  0.69690948673E+03  0.69690948673E+03  0.00000000000E+00 0. -1.
         21   -1    0    0  501  503 -0.00000000000E+00 -0.00000000000E+00 -0.43954349717E+03  0.43954349717E+03  0.00000000000E+00 0.  1.
    9000007    1    1    2  501    0  0.16762988074E+03  0.22923147939E+03 -0.13442437436E+03  0.50864207502E+03  0.40000000000E+03 0.  1.
   -9000007    1    1    2    0  502 -0.16762988074E+03 -0.22923147939E+03  0.39179036392E+03  0.62781090889E+03  0.40000000000E+03 0. -1.
<mgrwt>
<rscale>  2 0.49055769E+03</rscale>
<asrwt>0</asrwt>
<pdfrwt beam="1">  1       21 0.10721684E+00 0.49055769E+03</pdfrwt>
<pdfrwt beam="2">  1       21 0.67622077E-01 0.49055769E+03</pdfrwt>
<totfact> 0.11658656E+03</totfact>
</mgrwt>
</event>
<event>
 4    1  0.4676529E-002  0.4798009E+03  0.7818608E-02  0.1019190E+00
         21   -1    0    0  503  502  0.00000000000E+00  0.00000000000E+00  0.81996074935E+03  0.81996074935E+03  0.00000000000E+00 0. -1.
         21   -1    0    0  501  503 -0.00000000000E+00 -0.00000000000E+00 -0.49651952670E+03  0.49651952670E+03  0.00000000000E+00 0.  1.
    9000007    1    1    2  501    0 -0.24374420585E+03  0.10391199233E+03  0.59563610920E+03  0.76484724921E+03  0.40000000000E+03 0. -1.
   -9000007    1    1    2    0  502  0.24374420585E+03 -0.10391199233E+03 -0.27219488655E+03  0.55163302684E+03  0.40000000000E+03 0.  1.
<mgrwt>
<rscale>  2 0.47980094E+03</rscale>
<asrwt>0</asrwt>
<pdfrwt beam="1">  1       21 0.12614781E+00 0.47980094E+03</pdfrwt>
<pdfrwt beam="2">  1       21 0.76387620E-01 0.47980094E+03</pdfrwt>
<totfact> 0.58925402E+02</totfact>
</mgrwt>
</event>
<event>
 4    1  0.4676529E-002  0.4368492E+03  0.7818608E-02  0.1031718E+00
         21   -1    0    0  503  502  0.00000000000E+00  0.00000000000E+00  0.69240761619E+03  0.69240761619E+03  0.00000000000E+00 0. -1.
         21   -1    0    0  501  503 -0.00000000000E+00 -0.00000000000E+00 -0.27565954292E+03  0.27565954292E+03  0.00000000000E+00 0. -1.
    9000007    1    1    2  501    0  0.11359527326E+03 -0.13391541337E+03  0.21459645453E+03  0.48671229936E+03  0.40000000000E+03 0.  1.
   -9000007    1    1    2    0  502 -0.11359527326E+03  0.13391541337E+03  0.20215161874E+03  0.48135485975E+03  0.40000000000E+03 0.  1.
<mgrwt>
<rscale>  2 0.43684920E+03</rscale>
<asrwt>0</asrwt>
<pdfrwt beam="1">  1       21 0.10652425E+00 0.43684920E+03</pdfrwt>
<pdfrwt beam="2">  1       21 0.42409161E-01 0.43684920E+03</pdfrwt>
<totfact> 0.33017589E+03</totfact>
</mgrwt>
</event>
<event>
 4    1  0.4676529E-002  0.5710248E+03  0.7818608E-02  0.9967413E-01
         21   -1    0    0  503  502  0.00000000000E+00  0.00000000000E+00  0.88681570391E+03  0.88681570391E+03  0.00000000000E+00 0.  1.
         21   -1    0    0  501  503 -0.00000000000E+00 -0.00000000000E+00 -0.48508847265E+03  0.48508847265E+03  0.00000000000E+00 0.  1.
    9000007    1    1    2  501    0 -0.27858435926E+03 -0.29742235193E+03 -0.13659677089E+03  0.58713540046E+03  0.40000000000E+03 0.  1.
   -9000007    1    1    2    0  502  0.27858435926E+03  0.29742235193E+03  0.53832400215E+03  0.78476877610E+03  0.40000000000E+03 0.  1.
<mgrwt>
<rscale>  2 0.57102478E+03</rscale>
<asrwt>0</asrwt>
<pdfrwt beam="1">  1       21 0.13643318E+00 0.57102478E+03</pdfrwt>
<pdfrwt beam="2">  1       21 0.74628996E-01 0.57102478E+03</pdfrwt>
<totfact> 0.48908734E+02</totfact>
</mgrwt>
</event>
<event>
 4    1  0.4676529E-002  0.4153490E+03  0.7818608E-02  0.1038591E+00
         21   -1    0    0  501  502  0.00000000000E+00  0.00000000000E+00  0.12743854181E+04  0.12743854181E+04  0.00000000000E+00 0. -1.
         21   -1    0    0  502  503 -0.00000000000E+00 -0.00000000000E+00 -0.14535632657E+03  0.14535632657E+03  0.00000000000E+00 0. -1.
    9000007    1    1    2  501    0 -0.11172593932E+03  0.56665895321E+01  0.37845837390E+03  0.56191239222E+03  0.40000000000E+03 0. -1.
   -9000007    1    1    2    0  503  0.11172593932E+03 -0.56665895321E+01  0.75057071759E+03  0.85782935241E+03  0.40000000000E+03 0. -1.
<mgrwt>
<rscale>  2 0.41534900E+03</rscale>
<asrwt>0</asrwt>
<pdfrwt beam="1">  1       21 0.19605929E+00 0.41534900E+03</pdfrwt>
<pdfrwt beam="2">  1       21 0.22362513E-01 0.41534900E+03</pdfrwt>
<totfact> 0.22951262E+03</totfact>
</mgrwt>
</event>
<event>
 4    1  0.4676529E-002  0.8026021E+03  0.7818608E-02  0.9556258E-01
         21   -1    0    0  503  502  0.00000000000E+00  0.00000000000E+00  0.11106867804E+04  0.11106867804E+04  0.00000000000E+00 0.  1.
         21   -1    0    0  501  503 -0.00000000000E+00 -0.00000000000E+00 -0.87461884925E+03  0.87461884925E+03  0.00000000000E+00 0. -1.
    9000007    1    1    2  501    0  0.57403936340E+03  0.39325424071E+03 -0.45811789444E+03  0.92414397892E+03  0.40000000000E+03 0. -1.
   -9000007    1    1    2    0  502 -0.57403936340E+03 -0.39325424071E+03  0.69418582564E+03  0.10611616508E+04  0.40000000000E+03 0.  1.
<mgrwt>
<rscale>  2 0.80260207E+03</rscale>
<asrwt>0</asrwt>
<pdfrwt beam="1">  1       21 0.17087489E+00 0.80260207E+03</pdfrwt>
<pdfrwt beam="2">  1       21 0.13455674E+00 0.80260207E+03</pdfrwt>
<totfact> 0.56777483E+01</totfact>
</mgrwt>
</event>
<event>
 4    1  0.4676529E-002  0.6001005E+03  0.7818608E-02  0.9905198E-01
         21   -1    0    0  503  502  0.00000000000E+00  0.00000000000E+00  0.10132501139E+04  0.10132501139E+04  0.00000000000E+00 0. -1.
         21   -1    0    0  501  503 -0.00000000000E+00 -0.00000000000E+00 -0.38314223308E+03  0.38314223308E+03  0.00000000000E+00 0. -1.
    9000007    1    1    2  501    0 -0.39412023210E+03 -0.21163603821E+03  0.50289021320E+03  0.78295538606E+03  0.40000000000E+03 0. -1.
   -9000007    1    1    2    0  502  0.39412023210E+03  0.21163603821E+03  0.12721766757E+03  0.61343696087E+03  0.40000000000E+03 0. -1.
<mgrwt>
<rscale>  2 0.60010047E+03</rscale>
<asrwt>0</asrwt>
<pdfrwt beam="1">  1       21 0.15588463E+00 0.60010047E+03</pdfrwt>
<pdfrwt beam="2">  1       21 0.58944959E-01 0.60010047E+03</pdfrwt>
<totfact> 0.57232623E+02</totfact>
</mgrwt>
</event>
<event>
 4    1  0.4676529E-002  0.4271183E+03  0.7818608E-02  0.1034774E+00
         21   -1    0    0  503  502  0.00000000000E+00  0.00000000000E+00  0.49654520618E+03  0.49654520618E+03  0.00000000000E+00 0.  1.
         21   -1    0    0  501  503 -0.00000000000E+00 -0.00000000000E+00 -0.62206623754E+03  0.62206623754E+03  0.00000000000E+00 0.  1.
    9000007    1    1    2  501    0  0.14428001482E+03 -0.40166261290E+02 -0.42062430979E+03  0.59946214326E+03  0.40000000000E+03 0.  1.
   -9000007    1    1    2    0  502 -0.14428001482E+03  0.40166261290E+02  0.29510327843E+03  0.51914930045E+03  0.40000000000E+03 0.  1.
<mgrwt>
<rscale>  2 0.42711831E+03</rscale>
<asrwt>0</asrwt>
<pdfrwt beam="1">  1       21 0.76391570E-01 0.42711831E+03</pdfrwt>
<pdfrwt beam="2">  1       21 0.95702499E-01 0.42711831E+03</pdfrwt>
<totfact> 0.11969730E+03</totfact>
</mgrwt>
</event>
<event>
 4    1  0.4676529E-002  0.4715963E+03  0.7818608E-02  0.1021471E+00
         21   -1    0    0  501  502  0.00000000000E+00  0.00000000000E+00  0.20167917466E+04  0.20167917466E+04  0.00000000000E+00 0. -1.
         21   -1    0    0  502  503 -0.00000000000E+00 -0.00000000000E+00 -0.13141358647E+03  0.13141358647E+03  0.00000000000E+00 0.  1.
    9000007    1    1    2  501    0 -0.23026671752E+03  0.96851785745E+02  0.13734704469E+04  0.14521790861E+04  0.40000000000E+03 0. -1.
   -9000007    1    1    2    0  503  0.23026671752E+03 -0.96851785745E+02  0.51190771318E+03  0.69602624693E+03  0.40000000000E+03 0.  1.
<mgrwt>
<rscale>  2 0.47159626E+03</rscale>
<asrwt>0</asrwt>
<pdfrwt beam="1">  1       21 0.31027563E+00 0.47159626E+03</pdfrwt>
<pdfrwt beam="2">  1       21 0.20217476E-01 0.47159626E+03</pdfrwt>
<totfact> 0.52954153E+02</totfact>
</mgrwt>
</event>
<event>
 4    1  0.4676529E-002  0.4244829E+03  0.7818608E-02  0.1035617E+00
         21   -1    0    0  503  502  0.00000000000E+00  0.00000000000E+00  0.53688447452E+03  0.53688447452E+03  0.00000000000E+00 0.  1.
         21   -1    0    0  501  503 -0.00000000000E+00 -0.00000000000E+00 -0.33563746564E+03  0.33563746564E+03  0.00000000000E+00 0.  1.
    9000007    1    1    2  501    0 -0.13544653301E+03  0.42895345268E+02  0.96950907806E+02  0.43541388641E+03  0.40000000000E+03 0.  1.
   -9000007    1    1    2    0  502  0.13544653301E+03 -0.42895345268E+02  0.10429610108E+03  0.43710805375E+03  0.40000000000E+03 0.  1.
<mgrwt>
<rscale>  2 0.42448295E+03</rscale>
<asrwt>0</asrwt>
<pdfrwt beam="1">  1       21 0.82597611E-01 0.42448295E+03</pdfrwt>
<pdfrwt beam="2">  1       21 0.51636533E-01 0.42448295E+03</pdfrwt>
<totfact> 0.40261339E+03</totfact>
</mgrwt>
</event>
<event>
 4    1  0.4676529E-002  0.4680871E+03  0.7818608E-02  0.1022462E+00
         21   -1    0    0  503  502  0.00000000000E+00  0.00000000000E+00  0.49983409477E+03  0.49983409477E+03  0.00000000000E+00 0. -1.
         21   -1    0    0  501  503 -0.00000000000E+00 -0.00000000000E+00 -0.44002686355E+03  0.44002686355E+03  0.00000000000E+00 0. -1.
    9000007    1    1    2  501    0 -0.24230150447E+03 -0.19886605235E+02  0.94972951386E+00  0.46808802391E+03  0.40000000000E+03 0. -1.
   -9000007    1    1    2    0  502  0.24230150447E+03  0.19886605235E+02  0.58857501698E+02  0.47177293441E+03  0.40000000000E+03 0. -1.
<mgrwt>
<rscale>  2 0.46808706E+03</rscale>
<asrwt>0</asrwt>
<pdfrwt beam="1">  1       21 0.76897553E-01 0.46808706E+03</pdfrwt>
<pdfrwt beam="2">  1       21 0.67696441E-01 0.46808706E+03</pdfrwt>
<totfact> 0.25868248E+03</totfact>
</mgrwt>
</event>
<event>
 4    1  0.4676529E-002  0.4084399E+03  0.7818608E-02  0.1040896E+00
         21   -1    0    0  503  502  0.00000000000E+00  0.00000000000E+00  0.11412800279E+04  0.11412800279E+04  0.00000000000E+00 0.  1.
         21   -1    0    0  501  503 -0.00000000000E+00 -0.00000000000E+00 -0.16806894094E+03  0.16806894094E+03  0.00000000000E+00 0.  1.
    9000007    1    1    2  501    0 -0.78381045485E+02  0.26068474276E+02  0.25030012913E+03  0.47903372354E+03  0.40000000000E+03 0.  1.
   -9000007    1    1    2    0  502  0.78381045485E+02 -0.26068474276E+02  0.72291095782E+03  0.83031524530E+03  0.40000000000E+03 0.  1.
<mgrwt>
<rscale>  2 0.40843990E+03</rscale>
<asrwt>0</asrwt>
<pdfrwt beam="1">  1       21 0.17558154E+00 0.40843990E+03</pdfrwt>
<pdfrwt beam="2">  1       21 0.25856761E-01 0.40843990E+03</pdfrwt>
<totfact> 0.24077238E+03</totfact>
</mgrwt>
</event>
<event>
 4    1  0.4676529E-002  0.5414227E+03  0.7818608E-02  0.1003499E+00
         21   -1    0    0  503  502  0.00000000000E+00  0.00000000000E+00  0.17120278520E+04  0.17120278520E+04  0.00000000000E+00 0. -1.
         21   -1    0    0  501  503 -0.00000000000E+00 -0.00000000000E+00 -0.21389685403E+03  0.21389685403E+03  0.00000000000E+00 0. -1.
    9000007    1    1    2  501    0 -0.36480793017E+03  0.73291167968E+01  0.11791839300E+04  0.12975412450E+04  0.40000000000E+03 0. -1.
   -9000007    1    1    2    0  502  0.36480793017E+03 -0.73291167968E+01  0.31894706803E+03  0.62838346101E+03  0.40000000000E+03 0. -1.
<mgrwt>
<rscale>  2 0.54142270E+03</rscale>
<asrwt>0</asrwt>
<pdfrwt beam="1">  1       21 0.26338889E+00 0.54142270E+03</pdfrwt>
<pdfrwt beam="2">  1       21 0.32907209E-01 0.54142270E+03</pdfrwt>
<totfact> 0.37896027E+02</totfact>
</mgrwt>
</event>
<event>
 4    1  0.4676529E-002  0.4974535E+03  0.7818608E-02  0.1014446E+00
         21   -1    0    0  501  502  0.00000000000E+00  0.00000000000E+00  0.38409975244E+03  0.38409975244E+03  0.00000000000E+00 0. -1.
         21   -1    0    0  502  503 -0.00000000000E+00 -0.00000000000E+00 -0.65503036813E+03  0.65503036813E+03  0.00000000000E+00 0.  1.
    9000007    1    1    2  501    0 -0.28296997917E+03 -0.85953435968E+02 -0.68841421035E+02  0.50219432844E+03  0.40000000000E+03 0. -1.
   -9000007    1    1    2    0  503  0.28296997917E+03  0.85953435968E+02 -0.20208919465E+03  0.53693579212E+03  0.40000000000E+03 0.  1.
<mgrwt>
<rscale>  2 0.49745352E+03</rscale>
<asrwt>0</asrwt>
<pdfrwt beam="1">  1       21 0.59092269E-01 0.49745352E+03</pdfrwt>
<pdfrwt beam="2">  1       21 0.10077390E+00 0.49745352E+03</pdfrwt>
<totfact> 0.18265918E+03</totfact>
</mgrwt>
</event>
<event>
 4    1  0.4676529E-002  0.4373235E+03  0.7818608E-02  0.1031571E+00
         21   -1    0    0  501  502  0.00000000000E+00  0.00000000000E+00  0.32883774341E+03  0.32883774341E+03  0.00000000000E+00 0.  1.
         21   -1    0    0  502  503 -0.00000000000E+00 -0.00000000000E+00 -0.10285358851E+04  0.10285358851E+04  0.00000000000E+00 0. -1.
    9000007    1    1    2  501    0 -0.95111094038E+02 -0.14901597682E+03  0.97537065591E+02  0.44806847771E+03  0.40000000000E+03 0.  1.
   -9000007    1    1    2    0  503  0.95111094038E+02  0.14901597682E+03 -0.79723520729E+03  0.90930515082E+03  0.40000000000E+03 0. -1.
<mgrwt>
<rscale>  2 0.43732354E+03</rscale>
<asrwt>0</asrwt>
<pdfrwt beam="1">  1       21 0.50590423E-01 0.43732354E+03</pdfrwt>
<pdfrwt beam="2">  1       21 0.15823629E+00 0.43732354E+03</pdfrwt>
<totfact> 0.81431158E+02</totfact>
</mgrwt>
</event>
<event>
 4    1  0.4676529E-002  0.6235929E+03  0.7818608E-02  0.9857632E-01
         21   -1    0    0  501  502  0.00000000000E+00  0.00000000000E+00  0.38493023783E+03  0.38493023783E+03  0.00000000000E+00 0.  1.
         21   -1    0    0  502  503 -0.00000000000E+00 -0.00000000000E+00 -0.11376959091E+04  0.11376959091E+04  0.00000000000E+00 0. -1.
    9000007    1    1    2  501    0  0.45663068681E+03  0.14267607907E+03 -0.63121094415E+03  0.88729662666E+03  0.40000000000E+03 0. -1.
   -9000007    1    1    2    0  503 -0.45663068681E+03 -0.14267607907E+03 -0.12155472716E+03  0.63532952030E+03  0.40000000000E+03 0.  1.
<mgrwt>
<rscale>  2 0.62359285E+03</rscale>
<asrwt>0</asrwt>
<pdfrwt beam="1">  1       21 0.59220037E-01 0.62359285E+03</pdfrwt>
<pdfrwt beam="2">  1       21 0.17503014E+00 0.62359285E+03</pdfrwt>
<totfact> 0.40401630E+02</totfact>
</mgrwt>
</event>
<event>
 4    1  0.4676529E-002  0.4479318E+03  0.7818608E-02  0.1028341E+00
         21   -1    0    0  503  502  0.00000000000E+00  0.00000000000E+00  0.16166656919E+04  0.16166656919E+04  0.00000000000E+00 0. -1.
         21   -1    0    0  501  503 -0.00000000000E+00 -0.00000000000E+00 -0.28132854273E+03  0.28132854273E+03  0.00000000000E+00 0.  1.
    9000007    1    1    2  501    0 -0.51938440239E+02 -0.19479547969E+03 -0.41764053206E+02  0.44987455654E+03  0.40000000000E+03 0.  1.
   -9000007    1    1    2    0  502  0.51938440239E+02  0.19479547969E+03  0.13771012024E+04  0.14481196781E+04  0.40000000000E+03 0. -1.
<mgrwt>
<rscale>  2 0.44793178E+03</rscale>
<asrwt>0</asrwt>
<pdfrwt beam="1">  1       21 0.24871779E+00 0.44793178E+03</pdfrwt>
<pdfrwt beam="2">  1       21 0.43281315E-01 0.44793178E+03</pdfrwt>
<totfact> 0.27875663E+02</totfact>
</mgrwt>
</event>
<event>
 4    1  0.4676529E-002  0.4609733E+03  0.7818608E-02  0.1024499E+00
         21   -1    0    0  503  502  0.00000000000E+00  0.00000000000E+00  0.20839702829E+03  0.20839702829E+03  0.00000000000E+00 0.  1.
         21   -1    0    0  501  503 -0.00000000000E+00 -0.00000000000E+00 -0.10476367016E+04  0.10476367016E+04  0.00000000000E+00 0.  1.
    9000007    1    1    2  501    0  0.35194936712E+02 -0.22640170691E+03 -0.31701249572E+03  0.55945807609E+03  0.40000000000E+03 0.  1.
   -9000007    1    1    2    0  502 -0.35194936712E+02  0.22640170691E+03 -0.52222717763E+03  0.69657565383E+03  0.40000000000E+03 0.  1.
<mgrwt>
<rscale>  2 0.46097334E+03</rscale>
<asrwt>0</asrwt>
<pdfrwt beam="1">  1       21 0.32061081E-01 0.46097334E+03</pdfrwt>
<pdfrwt beam="2">  1       21 0.16117488E+00 0.46097334E+03</pdfrwt>
<totfact> 0.19629974E+03</totfact>
</mgrwt>
</event>
<event>
 4    1  0.4676529E-002  0.4166165E+03  0.7818608E-02  0.1038173E+00
         21   -1    0    0  503  502  0.00000000000E+00  0.00000000000E+00  0.30168923550E+03  0.30168923550E+03  0.00000000000E+00 0. -1.
         21   -1    0    0  501  503 -0.00000000000E+00 -0.00000000000E+00 -0.57532598654E+03  0.57532598654E+03  0.00000000000E+00 0.  1.
    9000007    1    1    2  501    0 -0.18960389288E+02 -0.11493400531E+03 -0.13742767505E+03  0.43869771803E+03  0.40000000000E+03 0.  1.
   -9000007    1    1    2    0  502  0.18960389288E+02  0.11493400531E+03 -0.13620907599E+03  0.43831750401E+03  0.40000000000E+03 0.  1.
<mgrwt>
<rscale>  2 0.41661652E+03</rscale>
<asrwt>0</asrwt>
<pdfrwt beam="1">  1       21 0.46413729E-01 0.41661652E+03</pdfrwt>
<pdfrwt beam="2">  1       21 0.88511690E-01 0.41661652E+03</pdfrwt>
<totfact> 0.43046832E+03</totfact>
</mgrwt>
</event>
<event>
 4    1  0.4676529E-002  0.4222607E+03  0.7818608E-02  0.1036333E+00
         21   -1    0    0  501  502  0.00000000000E+00  0.00000000000E+00  0.37030532457E+03  0.37030532457E+03  0.00000000000E+00 0. -1.
         21   -1    0    0  502  503 -0.00000000000E+00 -0.00000000000E+00 -0.10025461918E+04  0.10025461918E+04  0.00000000000E+00 0. -1.
    9000007    1    1    2  501    0 -0.13459914821E+03  0.13681405135E+02  0.17873361573E+03  0.45853006110E+03  0.40000000000E+03 0. -1.
   -9000007    1    1    2    0  503  0.13459914821E+03 -0.13681405135E+02 -0.81097448291E+03  0.91432145522E+03  0.40000000000E+03 0. -1.
<mgrwt>
<rscale>  2 0.42226072E+03</rscale>
<asrwt>0</asrwt>
<pdfrwt beam="1">  1       21 0.56970049E-01 0.42226072E+03</pdfrwt>
<pdfrwt beam="2">  1       21 0.15423788E+00 0.42226072E+03</pdfrwt>
<totfact> 0.68181277E+02</totfact>
</mgrwt>
</event>
<event>
 4    1  0.4676529E-002  0.4097700E+03  0.7818608E-02  0.1040448E+00
         21   -1    0    0  503  502  0.00000000000E+00  0.00000000000E+00  0.43464036638E+03  0.43464036638E+03  0.00000000000E+00 0.  1.
         21   -1    0    0  501  503 -0.00000000000E+00 -0.00000000000E+00 -0.10356293484E+04  0.10356293484E+04  0.00000000000E+00 0. -1.
    9000007    1    1    2  501    0 -0.45939952004E+02 -0.76164105935E+02 -0.88258398140E+03  0.97307036459E+03  0.40000000000E+03 0. -1.
   -9000007    1    1    2    0  502  0.45939952004E+02  0.76164105935E+02  0.28159499933E+03  0.49719935023E+03  0.40000000000E+03 0.  1.
<mgrwt>
<rscale>  2 0.40977000E+03</rscale>
<asrwt>0</asrwt>
<pdfrwt beam="1">  1       21 0.66867750E-01 0.40977000E+03</pdfrwt>
<pdfrwt beam="2">  1       21 0.15932759E+00 0.40977000E+03</pdfrwt>
<totfact> 0.44108301E+02</totfact>
</mgrwt>
</event>
<event>
 4    1  0.4676529E-002  0.4617051E+03  0.7818608E-02  0.1024288E+00
         21   -1    0    0  501  502  0.00000000000E+00  0.00000000000E+00  0.86194202672E+03  0.86194202672E+03  0.00000000000E+00 0.  1.
         21   -1    0    0  502  503 -0.00000000000E+00 -0.00000000000E+00 -0.48922279884E+03  0.48922279884E+03  0.00000000000E+00 0.  1.
    9000007    1    1    2  501    0 -0.10826362734E+03 -0.20359413625E+03  0.66142076519E+03  0.80662817577E+03  0.40000000000E+03 0.  1.
   -9000007    1    1    2    0  503  0.10826362734E+03  0.20359413625E+03 -0.28870153731E+03  0.54453664979E+03  0.40000000000E+03 0.  1.
<mgrwt>
<rscale>  2 0.46170508E+03</rscale>
<asrwt>0</asrwt>
<pdfrwt beam="1">  1       21 0.13260647E+00 0.46170508E+03</pdfrwt>
<pdfrwt beam="2">  1       21 0.75265046E-01 0.46170508E+03</pdfrwt>
<totfact> 0.53967997E+02</totfact>
</mgrwt>
</event>
<event>
 4    1  0.4676529E-002  0.5707470E+03  0.7818608E-02  0.9968027E-01
         21   -1    0    0  501  502  0.00000000000E+00  0.00000000000E+00  0.22807356174E+03  0.22807356174E+03  0.00000000000E+00 0.  1.
         21   -1    0    0  502  503 -0.00000000000E+00 -0.00000000000E+00 -0.16908787845E+04  0.16908787845E+04  0.00000000000E+00 0. -1.
    9000007    1    1    2  501    0 -0.21354401454E+03  0.34662823217E+03 -0.35328495569E+03  0.67123947843E+03  0.40000000000E+03 0.  1.
   -9000007    1    1    2    0  503  0.21354401454E+03 -0.34662823217E+03 -0.11095202671E+04  0.12477128678E+04  0.40000000000E+03 0. -1.
<mgrwt>
<rscale>  2 0.57074703E+03</rscale>
<asrwt>0</asrwt>
<pdfrwt beam="1">  1       21 0.35088242E-01 0.57074703E+03</pdfrwt>
<pdfrwt beam="2">  1       21 0.26013518E+00 0.57074703E+03</pdfrwt>
<totfact> 0.34395448E+02</totfact>
</mgrwt>
</event>
<event>
 4    1  0.4676529E-002  0.4519020E+03  0.7818608E-02  0.1027156E+00
         21   -1    0    0  503  502  0.00000000000E+00  0.00000000000E+00  0.12776861904E+04  0.12776861904E+04  0.00000000000E+00 0. -1.
         21   -1    0    0  501  503 -0.00000000000E+00 -0.00000000000E+00 -0.21235965205E+03  0.21235965205E+03  0.00000000000E+00 0. -1.
    9000007    1    1    2  501    0  0.18483105300E+03  0.10026400716E+03  0.90319620448E+03  0.10099399849E+04  0.40000000000E+03 0. -1.
   -9000007    1    1    2    0  502 -0.18483105300E+03 -0.10026400716E+03  0.16213033385E+03  0.48010585754E+03  0.40000000000E+03 0. -1.
<mgrwt>
<rscale>  2 0.45190197E+03</rscale>
<asrwt>0</asrwt>
<pdfrwt beam="1">  1       21 0.19656710E+00 0.45190197E+03</pdfrwt>
<pdfrwt beam="2">  1       21 0.32670716E-01 0.45190197E+03</pdfrwt>
<totfact> 0.10645625E+03</totfact>
</mgrwt>
</event>
<event>
 4    1  0.4676529E-002  0.4761745E+03  0.7818608E-02  0.1020192E+00
         21   -1    0    0  503  502  0.00000000000E+00  0.00000000000E+00  0.54153612301E+03  0.54153612301E+03  0.00000000000E+00 0.  1.
         21   -1    0    0  501  503 -0.00000000000E+00 -0.00000000000E+00 -0.47827673839E+03  0.47827673839E+03  0.00000000000E+00 0. -1.
    9000007    1    1    2  501    0 -0.21091475524E+03 -0.14918821651E+03  0.21159243515E+03  0.52106958896E+03  0.40000000000E+03 0.  1.
   -9000007    1    1    2    0  502  0.21091475524E+03  0.14918821651E+03 -0.14833305053E+03  0.49874327244E+03  0.40000000000E+03 0. -1.
<mgrwt>
<rscale>  2 0.47617450E+03</rscale>
<asrwt>0</asrwt>
<pdfrwt beam="1">  1       21 0.83313250E-01 0.47617450E+03</pdfrwt>
<pdfrwt beam="2">  1       21 0.73581037E-01 0.47617450E+03</pdfrwt>
<totfact> 0.17753249E+03</totfact>
</mgrwt>
</event>
<event>
 4    1  0.4676529E-002  0.8295389E+03  0.7818608E-02  0.9518218E-01
         21   -1    0    0  501  502  0.00000000000E+00  0.00000000000E+00  0.85922311813E+03  0.85922311813E+03  0.00000000000E+00 0. -1.
         21   -1    0    0  502  503 -0.00000000000E+00 -0.00000000000E+00 -0.10435149523E+04  0.10435149523E+04  0.00000000000E+00 0. -1.
    9000007    1    1    2  501    0 -0.32916897893E+03 -0.64790636026E+03 -0.55089592723E+03  0.99580178298E+03  0.40000000000E+03 0. -1.
   -9000007    1    1    2    0  503  0.32916897893E+03  0.64790636026E+03  0.36660409310E+03  0.90693628741E+03  0.40000000000E+03 0. -1.
<mgrwt>
<rscale>  2 0.82953895E+03</rscale>
<asrwt>0</asrwt>
<pdfrwt beam="1">  1       21 0.13218817E+00 0.82953895E+03</pdfrwt>
<pdfrwt beam="2">  1       21 0.16054076E+00 0.82953895E+03</pdfrwt>
<totfact> 0.70644884E+01</totfact>
</mgrwt>
</event>
<event>
 4    1  0.4676529E-002  0.5263582E+03  0.7818608E-02  0.1007119E+00
         21   -1    0    0  501  502  0.00000000000E+00  0.00000000000E+00  0.23257028757E+04  0.23257028757E+04  0.00000000000E+00 0.  1.
         21   -1    0    0  502  503 -0.00000000000E+00 -0.00000000000E+00 -0.12948059666E+03  0.12948059666E+03  0.00000000000E+00 0.  1.
    9000007    1    1    2  501    0 -0.18391523203E+03  0.28849282813E+03  0.14452530016E+04  0.15381187091E+04  0.40000000000E+03 0.  1.
   -9000007    1    1    2    0  503  0.18391523203E+03 -0.28849282813E+03  0.75096927740E+03  0.91706476328E+03  0.40000000000E+03 0.  1.
<mgrwt>
<rscale>  2 0.52635817E+03</rscale>
<asrwt>0</asrwt>
<pdfrwt beam="1">  1       21 0.35780041E+00 0.52635817E+03</pdfrwt>
<pdfrwt beam="2">  1       21 0.19920093E-01 0.52635817E+03</pdfrwt>
<totfact> 0.27105947E+02</totfact>
</mgrwt>
</event>
<event>
 4    1  0.4676529E-002  0.7970226E+03  0.7818608E-02  0.9564337E-01
         21   -1    0    0  501  502  0.00000000000E+00  0.00000000000E+00  0.11088611733E+04  0.11088611733E+04  0.00000000000E+00 0. -1.
         21   -1    0    0  502  503 -0.00000000000E+00 -0.00000000000E+00 -0.57693270861E+03  0.57693270861E+03  0.00000000000E+00 0.  1.
    9000007    1    1    2  501    0  0.35768240466E+03 -0.58932869481E+03  0.33660483939E+03  0.86518658741E+03  0.40000000000E+03 0. -1.
   -9000007    1    1    2    0  503 -0.35768240466E+03  0.58932869481E+03  0.19532362526E+03  0.82060729446E+03  0.40000000000E+03 0. -1.
<mgrwt>
<rscale>  2 0.79702259E+03</rscale>
<asrwt>0</asrwt>
<pdfrwt beam="1">  1       21 0.17059403E+00 0.79702259E+03</pdfrwt>
<pdfrwt beam="2">  1       21 0.88758878E-01 0.79702259E+03</pdfrwt>
<totfact> 0.16318556E+02</totfact>
</mgrwt>
</event>
<event>
 4    1  0.4676529E-002  0.4841633E+03  0.7818608E-02  0.1017997E+00
         21   -1    0    0  501  502  0.00000000000E+00  0.00000000000E+00  0.11807611439E+03  0.11807611439E+03  0.00000000000E+00 0. -1.
         21   -1    0    0  502  503 -0.00000000000E+00 -0.00000000000E+00 -0.19948895926E+04  0.19948895926E+04  0.00000000000E+00 0. -1.
    9000007    1    1    2  501    0  0.27110958122E+03  0.30227612983E+02 -0.86508003611E+03  0.99135139204E+03  0.40000000000E+03 0. -1.
   -9000007    1    1    2    0  503 -0.27110958122E+03 -0.30227612983E+02 -0.10117334421E+04  0.11216143149E+04  0.40000000000E+03 0. -1.
<mgrwt>
<rscale>  2 0.48416331E+03</rscale>
<asrwt>0</asrwt>
<pdfrwt beam="1">  1       21 0.18165557E-01 0.48416331E+03</pdfrwt>
<pdfrwt beam="2">  1       21 0.30690608E+00 0.48416331E+03</pdfrwt>
<totfact> 0.67529906E+02</totfact>
</mgrwt>
</event>
<event>
 4    1  0.4676529E-002  0.4196249E+03  0.7818608E-02  0.1037188E+00
         21   -1    0    0  503  502  0.00000000000E+00  0.00000000000E+00  0.34453337343E+03  0.34453337343E+03  0.00000000000E+00 0.  1.
         21   -1    0    0  501  503 -0.00000000000E+00 -0.00000000000E+00 -0.12212241137E+04  0.12212241137E+04  0.00000000000E+00 0.  1.
    9000007    1    1    2  501    0 -0.12493413698E+03  0.21829614738E+02 -0.10353383371E+04  0.11171439222E+04  0.40000000000E+03 0.  1.
   -9000007    1    1    2    0  502  0.12493413698E+03 -0.21829614738E+02  0.15864759682E+03  0.44861356493E+03  0.40000000000E+03 0.  1.
<mgrwt>
<rscale>  2 0.41962492E+03</rscale>
<asrwt>0</asrwt>
<pdfrwt beam="1">  1       21 0.53005134E-01 0.41962492E+03</pdfrwt>
<pdfrwt beam="2">  1       21 0.18788063E+00 0.41962492E+03</pdfrwt>
<totfact> 0.45460825E+02</totfact>
</mgrwt>
</event>
<event>
 4    1  0.4676529E-002  0.5070927E+03  0.7818608E-02  0.1011944E+00
         21   -1    0    0  501  502  0.00000000000E+00  0.00000000000E+00  0.21915787944E+03  0.21915787944E+03  0.00000000000E+00 0. -1.
         21   -1    0    0  502  503 -0.00000000000E+00 -0.00000000000E+00 -0.13081406543E+04  0.13081406543E+04  0.00000000000E+00 0. -1.
    9000007    1    1    2  501    0  0.28045006064E+03 -0.13598079757E+03 -0.29933689463E+03  0.58885107651E+03  0.40000000000E+03 0. -1.
   -9000007    1    1    2    0  503 -0.28045006064E+03  0.13598079757E+03 -0.78964588020E+03  0.93844745720E+03  0.40000000000E+03 0. -1.
<mgrwt>
<rscale>  2 0.50709271E+03</rscale>
<asrwt>0</asrwt>
<pdfrwt beam="1">  1       21 0.33716597E-01 0.50709271E+03</pdfrwt>
<pdfrwt beam="2">  1       21 0.20125241E+00 0.50709271E+03</pdfrwt>
<totfact> 0.90751854E+02</totfact>
</mgrwt>
</event>
<event>
 4    1  0.4676529E-002  0.6130015E+03  0.7818608E-02  0.9878793E-01
         21   -1    0    0  501  502  0.00000000000E+00  0.00000000000E+00  0.34037080080E+03  0.34037080080E+03  0.00000000000E+00 0. -1.
         21   -1    0    0  502  503 -0.00000000000E+00 -0.00000000000E+00 -0.14549528914E+04  0.14549528914E+04  0.00000000000E+00 0.  1.
    9000007    1    1    2  501    0  0.45673164582E+03 -0.84658149310E+02 -0.11642149396E+03  0.62395894320E+03  0.40000000000E+03 0. -1.
   -9000007    1    1    2    0  503 -0.45673164582E+03  0.84658149310E+02 -0.99816059664E+03  0.11713647490E+04  0.40000000000E+03 0.  1.
<mgrwt>
<rscale>  2 0.61300147E+03</rscale>
<asrwt>0</asrwt>
<pdfrwt beam="1">  1       21 0.52364739E-01 0.61300147E+03</pdfrwt>
<pdfrwt beam="2">  1       21 0.22383891E+00 0.61300147E+03</pdfrwt>
<totfact> 0.24716588E+02</totfact>
</mgrwt>
</event>
<event>
 4    1  0.4676529E-002  0.5357799E+03  0.7818608E-02  0.1004840E+00
         21   -1    0    0  501  502  0.00000000000E+00  0.00000000000E+00  0.36908795875E+03  0.36908795875E+03  0.00000000000E+00 0.  1.
         21   -1    0    0  502  503 -0.00000000000E+00 -0.00000000000E+00 -0.11810598042E+04  0.11810598042E+04  0.00000000000E+00 0.  1.
    9000007    1    1    2  501    0 -0.21196879474E+03 -0.28658211909E+03  0.46936420103E+02  0.53783185891E+03  0.40000000000E+03 0.  1.
   -9000007    1    1    2    0  503  0.21196879474E+03  0.28658211909E+03 -0.85890826554E+03  0.10123159040E+04  0.40000000000E+03 0.  1.
<mgrwt>
<rscale>  2 0.53577988E+03</rscale>
<asrwt>0</asrwt>
<pdfrwt beam="1">  1       21 0.56782763E-01 0.53577988E+03</pdfrwt>
<pdfrwt beam="2">  1       21 0.18170151E+00 0.53577988E+03</pdfrwt>
<totfact> 0.41002306E+02</totfact>
</mgrwt>
</event>
<event>
 4    1  0.4676529E-002  0.5581907E+03  0.7818608E-02  0.9996157E-01
         21   -1    0    0  501  502  0.00000000000E+00  0.00000000000E+00  0.18942536485E+03  0.18942536485E+03  0.00000000000E+00 0. -1.
         21   -1    0    0  502  503 -0.00000000000E+00 -0.00000000000E+00 -0.16867127385E+04  0.16867127385E+04  0.00000000000E+00 0. -1.
    9000007    1    1    2  501    0  0.38093377751E+03  0.80413661782E+02 -0.60086495061E+03  0.82013144600E+03  0.40000000000E+03 0. -1.
   -9000007    1    1    2    0  503 -0.38093377751E+03 -0.80413661782E+02 -0.89642242305E+03  0.10560066574E+04  0.40000000000E+03 0. -1.
<mgrwt>
<rscale>  2 0.55819074E+03</rscale>
<asrwt>0</asrwt>
<pdfrwt beam="1">  1       21 0.29142365E-01 0.55819074E+03</pdfrwt>
<pdfrwt beam="2">  1       21 0.25949426E+00 0.55819074E+03</pdfrwt>
<totfact> 0.50696471E+02</totfact>
</mgrwt>
</event>
<event>
 4    1  0.4676529E-002  0.4355584E+03  0.7818608E-02  0.1032118E+00
         21   -1    0    0  501  502  0.00000000000E+00  0.00000000000E+00  0.21836654064E+04  0.21836654064E+04  0.00000000000E+00 0.  1.
         21   -1    0    0  502  503 -0.00000000000E+00 -0.00000000000E+00 -0.14025391128E+03  0.14025391128E+03  0.00000000000E+00 0.  1.
    9000007    1    1    2  501    0  0.31712633391E+02 -0.16942668462E+03  0.17385235816E+04  0.17922542611E+04  0.40000000000E+03 0.  1.
   -9000007    1    1    2    0  503 -0.31712633391E+02  0.16942668462E+03  0.30488791348E+03  0.53166505656E+03  0.40000000000E+03 0.  1.
<mgrwt>
<rscale>  2 0.43555837E+03</rscale>
<asrwt>0</asrwt>
<pdfrwt beam="1">  1       21 0.33594850E+00 0.43555837E+03</pdfrwt>
<pdfrwt beam="2">  1       21 0.21577526E-01 0.43555837E+03</pdfrwt>
<totfact> 0.33407778E+02</totfact>
</mgrwt>
</event>
<event>
 4    1  0.4676529E-002  0.4049869E+03  0.7818608E-02  0.1042066E+00
         21   -1    0    0  503  502  0.00000000000E+00  0.00000000000E+00  0.55099500763E+03  0.55099500763E+03  0.00000000000E+00 0.  1.
         21   -1    0    0  501  503 -0.00000000000E+00 -0.00000000000E+00 -0.91954188359E+03  0.91954188359E+03  0.00000000000E+00 0.  1.
    9000007    1    1    2  501    0  0.35486586841E+02 -0.52488981026E+02 -0.78893284973E+03  0.88680856579E+03  0.40000000000E+03 0.  1.
   -9000007    1    1    2    0  502 -0.35486586841E+02  0.52488981026E+02  0.42038597377E+03  0.58372832543E+03  0.40000000000E+03 0.  1.
<mgrwt>
<rscale>  2 0.40498690E+03</rscale>
<asrwt>0</asrwt>
<pdfrwt beam="1">  1       21 0.84768463E-01 0.40498690E+03</pdfrwt>
<pdfrwt beam="2">  1       21 0.14146798E+00 0.40498690E+03</pdfrwt>
<totfact> 0.35554531E+02</totfact>
</mgrwt>
</event>
<event>
 4    1  0.4676529E-002  0.5057579E+03  0.7818608E-02  0.1012287E+00
         21   -1    0    0  503  502  0.00000000000E+00  0.00000000000E+00  0.47904101652E+03  0.47904101652E+03  0.00000000000E+00 0.  1.
         21   -1    0    0  501  503 -0.00000000000E+00 -0.00000000000E+00 -0.94995319775E+03  0.94995319775E+03  0.00000000000E+00 0.  1.
    9000007    1    1    2  501    0  0.24400194642E+03  0.19040504114E+03 -0.70826972455E+03  0.87030858450E+03  0.40000000000E+03 0.  1.
   -9000007    1    1    2    0  502 -0.24400194642E+03 -0.19040504114E+03  0.23735754331E+03  0.55868562977E+03  0.40000000000E+03 0.  1.
<mgrwt>
<rscale>  2 0.50575788E+03</rscale>
<asrwt>0</asrwt>
<pdfrwt beam="1">  1       21 0.73698619E-01 0.50575788E+03</pdfrwt>
<pdfrwt beam="2">  1       21 0.14614664E+00 0.50575788E+03</pdfrwt>
<totfact> 0.42905062E+02</totfact>
</mgrwt>
</event>
<event>
 4    1  0.4676529E-002  0.4464746E+03  0.7818608E-02  0.1028779E+00
         21   -1    0    0  503  502  0.00000000000E+00  0.00000000000E+00  0.38224304027E+03  0.38224304027E+03  0.00000000000E+00 0. -1.
         21   -1    0    0  501  503 -0.00000000000E+00 -0.00000000000E+00 -0.76077941931E+03  0.76077941931E+03  0.00000000000E+00 0. -1.
    9000007    1    1    2  501    0 -0.10977731109E+02 -0.19803808718E+03 -0.50978323592E+03  0.67765665508E+03  0.40000000000E+03 0. -1.
   -9000007    1    1    2    0  502  0.10977731109E+02  0.19803808718E+03  0.13124685688E+03  0.46536580450E+03  0.40000000000E+03 0. -1.
<mgrwt>
<rscale>  2 0.44647463E+03</rscale>
<asrwt>0</asrwt>
<pdfrwt beam="1">  1       21 0.58806621E-01 0.44647463E+03</pdfrwt>
<pdfrwt beam="2">  1       21 0.11704299E+00 0.44647463E+03</pdfrwt>
<totfact> 0.12985180E+03</totfact>
</mgrwt>
</event>
<event>
 4    1  0.4676529E-002  0.5743070E+03  0.7818608E-02  0.9960193E-01
         21   -1    0    0  501  502  0.00000000000E+00  0.00000000000E+00  0.22707884997E+03  0.22707884997E+03  0.00000000000E+00 0. -1.
         21   -1    0    0  502  503 -0.00000000000E+00 -0.00000000000E+00 -0.20833257898E+04  0.20833257898E+04  0.00000000000E+00 0.  1.
    9000007    1    1    2  501    0  0.41139257757E+03  0.24179035952E+02 -0.29244198801E+03  0.64447714855E+03  0.40000000000E+03 0. -1.
   -9000007    1    1    2    0  503 -0.41139257757E+03 -0.24179035952E+02 -0.15638049518E+04  0.16659274912E+04  0.40000000000E+03 0.  1.
<mgrwt>
<rscale>  2 0.57430696E+03</rscale>
<asrwt>0</asrwt>
<pdfrwt beam="1">  1       21 0.34935207E-01 0.57430696E+03</pdfrwt>
<pdfrwt beam="2">  1       21 0.32051167E+00 0.57430696E+03</pdfrwt>
<totfact> 0.14844695E+02</totfact>
</mgrwt>
</event>
<event>
 4    1  0.4676529E-002  0.4907902E+03  0.7818608E-02  0.1016211E+00
         21   -1    0    0  503  502  0.00000000000E+00  0.00000000000E+00  0.94242181147E+03  0.94242181147E+03  0.00000000000E+00 0. -1.
         21   -1    0    0  501  503 -0.00000000000E+00 -0.00000000000E+00 -0.30389566703E+03  0.30389566703E+03  0.00000000000E+00 0.  1.
    9000007    1    1    2  501    0 -0.25790771159E+03  0.11982757663E+03  0.56770711349E+03  0.75044413685E+03  0.40000000000E+03 0. -1.
   -9000007    1    1    2    0  502  0.25790771159E+03 -0.11982757663E+03  0.70819030942E+02  0.49587334165E+03  0.40000000000E+03 0.  1.
<mgrwt>
<rscale>  2 0.49079022E+03</rscale>
<asrwt>0</asrwt>
<pdfrwt beam="1">  1       21 0.14498797E+00 0.49079022E+03</pdfrwt>
<pdfrwt beam="2">  1       21 0.46753180E-01 0.49079022E+03</pdfrwt>
<totfact> 0.11948675E+03</totfact>
</mgrwt>
</event>
<event>
 4    1  0.4676529E-002  0.4273993E+03  0.7818608E-02  0.1034685E+00
         21   -1    0    0  503  502  0.00000000000E+00  0.00000000000E+00  0.85836104173E+03  0.85836104173E+03  0.00000000000E+00 0. -1.
         21   -1    0    0  501  503 -0.00000000000E+00 -0.00000000000E+00 -0.57553394478E+03  0.57553394478E+03  0.00000000000E+00 0. -1.
    9000007    1    1    2  501    0  0.12721024585E+03  0.80546241708E+02 -0.42775168837E+03  0.60468309932E+03  0.40000000000E+03 0. -1.
   -9000007    1    1    2    0  502 -0.12721024585E+03 -0.80546241708E+02  0.71057878533E+03  0.82921188719E+03  0.40000000000E+03 0. -1.
<mgrwt>
<rscale>  2 0.42739928E+03</rscale>
<asrwt>0</asrwt>
<pdfrwt beam="1">  1       21 0.13205554E+00 0.42739928E+03</pdfrwt>
<pdfrwt beam="2">  1       21 0.88543684E-01 0.42739928E+03</pdfrwt>
<totfact> 0.38030481E+02</totfact>
</mgrwt>
</event>
<event>
 4    1  0.4676529E-002  0.4199185E+03  0.7818608E-02  0.1037093E+00
         21   -1    0    0  501  502  0.00000000000E+00  0.00000000000E+00  0.19285287335E+04  0.19285287335E+04  0.00000000000E+00 0.  1.
         21   -1    0    0  502  503 -0.00000000000E+00 -0.00000000000E+00 -0.13771493146E+03  0.13771493146E+03  0.00000000000E+00 0.  1.
    9000007    1    1    2  501    0  0.10932911566E+03 -0.66171972778E+02  0.29649113579E+03  0.51404141770E+03  0.40000000000E+03 0.  1.
   -9000007    1    1    2    0  503 -0.10932911566E+03  0.66171972778E+02  0.14943226662E+04  0.15522022472E+04  0.40000000000E+03 0.  1.
<mgrwt>
<rscale>  2 0.41991855E+03</rscale>
<asrwt>0</asrwt>
<pdfrwt beam="1">  1       21 0.29669671E+00 0.41991855E+03</pdfrwt>
<pdfrwt beam="2">  1       21 0.21186914E-01 0.41991855E+03</pdfrwt>
<totfact> 0.60191848E+02</totfact>
</mgrwt>
</event>
<event>
 4    1  0.4676529E-002  0.4006725E+03  0.7818608E-02  0.1043547E+00
         21   -1    0    0  503  502  0.00000000000E+00  0.00000000000E+00  0.39408358205E+03  0.39408358205E+03  0.00000000000E+00 0. -1.
         21   -1    0    0  501  503 -0.00000000000E+00 -0.00000000000E+00 -0.53773136523E+03  0.53773136523E+03  0.00000000000E+00 0. -1.
    9000007    1    1    2  501    0  0.17778536217E+02 -0.14911975580E+02 -0.30122147837E+03  0.50127120643E+03  0.40000000000E+03 0. -1.
   -9000007    1    1    2    0  502 -0.17778536217E+02  0.14911975580E+02  0.15757369519E+03  0.43054374085E+03  0.40000000000E+03 0. -1.
<mgrwt>
<rscale>  2 0.40067249E+03</rscale>
<asrwt>0</asrwt>
<pdfrwt beam="1">  1       21 0.60628244E-01 0.40067249E+03</pdfrwt>
<pdfrwt beam="2">  1       21 0.82727902E-01 0.40067249E+03</pdfrwt>
<totfact> 0.28612353E+03</totfact>
</mgrwt>
</event>
<event>
 4    1  0.4676529E-002  0.6406775E+03  0.7818608E-02  0.9824431E-01
         21   -1    0    0  501  502  0.00000000000E+00  0.00000000000E+00  0.69948413045E+03  0.69948413045E+03  0.00000000000E+00 0. -1.
         21   -1    0    0  502  503 -0.00000000000E+00 -0.00000000000E+00 -0.69699517738E+03  0.69699517738E+03  0.00000000000E+00 0. -1.
    9000007    1    1    2  501    0  0.34226653682E+03 -0.36513192377E+03 -0.27636965570E+03  0.69774486066E+03  0.40000000000E+03 0. -1.
   -9000007    1    1    2    0  503 -0.34226653682E+03  0.36513192377E+03  0.27885860877E+03  0.69873444717E+03  0.40000000000E+03 0. -1.
<mgrwt>
<rscale>  2 0.64067754E+03</rscale>
<asrwt>0</asrwt>
<pdfrwt beam="1">  1       21 0.10761294E+00 0.64067754E+03</pdfrwt>
<pdfrwt beam="2">  1       21 0.10723003E+00 0.64067754E+03</pdfrwt>
<totfact> 0.36994323E+02</totfact>
</mgrwt>
</event>
<event>
 4    1  0.4676529E-002  0.4774956E+03  0.7818608E-02  0.1019826E+00
         21   -1    0    0  503  502  0.00000000000E+00  0.00000000000E+00  0.22018799124E+03  0.22018799124E+03  0.00000000000E+00 0. -1.
         21   -1    0    0  501  503 -0.00000000000E+00 -0.00000000000E+00 -0.12564994321E+04  0.12564994321E+04  0.00000000000E+00 0.  1.
    9000007    1    1    2  501    0 -0.21937568460E+03 -0.14098337039E+03 -0.82781556748E+03  0.95565716419E+03  0.40000000000E+03 0.  1.
   -9000007    1    1    2    0  502  0.21937568460E+03  0.14098337039E+03 -0.20849587336E+03  0.52103025913E+03  0.40000000000E+03 0. -1.
<mgrwt>
<rscale>  2 0.47749555E+03</rscale>
<asrwt>0</asrwt>
<pdfrwt beam="1">  1       21 0.33875075E-01 0.47749555E+03</pdfrwt>
<pdfrwt beam="2">  1       21 0.19330761E+00 0.47749555E+03</pdfrwt>
<totfact> 0.10296466E+03</totfact>
</mgrwt>
</event>
<event>
 4    1  0.4676529E-002  0.4347207E+03  0.7818608E-02  0.1032379E+00
         21   -1    0    0  501  502  0.00000000000E+00  0.00000000000E+00  0.13215850210E+04  0.13215850210E+04  0.00000000000E+00 0. -1.
         21   -1    0    0  502  503 -0.00000000000E+00 -0.00000000000E+00 -0.16739842733E+03  0.16739842733E+03  0.00000000000E+00 0. -1.
    9000007    1    1    2  501    0  0.16795391074E+03  0.27813542226E+02  0.29284639798E+03  0.52415753555E+03  0.40000000000E+03 0. -1.
   -9000007    1    1    2    0  503 -0.16795391074E+03 -0.27813542226E+02  0.86134019574E+03  0.96482591282E+03  0.40000000000E+03 0. -1.
<mgrwt>
<rscale>  2 0.43472073E+03</rscale>
<asrwt>0</asrwt>
<pdfrwt beam="1">  1       21 0.20332077E+00 0.43472073E+03</pdfrwt>
<pdfrwt beam="2">  1       21 0.25753605E-01 0.43472073E+03</pdfrwt>
<totfact> 0.15486565E+03</totfact>
</mgrwt>
</event>
<event>
 4    1  0.4676529E-002  0.4317624E+03  0.7818608E-02  0.1033305E+00
         21   -1    0    0  501  502  0.00000000000E+00  0.00000000000E+00  0.13146861585E+04  0.13146861585E+04  0.00000000000E+00 0.  1.
         21   -1    0    0  502  503 -0.00000000000E+00 -0.00000000000E+00 -0.40711243019E+03  0.40711243019E+03  0.00000000000E+00 0.  1.
    9000007    1    1    2  501    0  0.95230411428E+02  0.13171906322E+03  0.11487732650E+04  0.12272321529E+04  0.40000000000E+03 0.  1.
   -9000007    1    1    2    0  503 -0.95230411428E+02 -0.13171906322E+03 -0.24119953667E+03  0.49456643574E+03  0.40000000000E+03 0.  1.
<mgrwt>
<rscale>  2 0.43176237E+03</rscale>
<asrwt>0</asrwt>
<pdfrwt beam="1">  1       21 0.20225941E+00 0.43176237E+03</pdfrwt>
<pdfrwt beam="2">  1       21 0.62632682E-01 0.43176237E+03</pdfrwt>
<totfact> 0.25139044E+02</totfact>
</mgrwt>
</event>
<event>
 4    1  0.4676529E-002  0.4893623E+03  0.7818608E-02  0.1016593E+00
         21   -1    0    0  503  502  0.00000000000E+00  0.00000000000E+00  0.26346650230E+03  0.26346650230E+03  0.00000000000E+00 0. -1.
         21   -1    0    0  501  503 -0.00000000000E+00 -0.00000000000E+00 -0.11255280870E+04  0.11255280870E+04  0.00000000000E+00 0.  1.
    9000007    1    1    2  501    0  0.17210902153E+03 -0.22328006409E+03 -0.73568605469E+03  0.88357765554E+03  0.40000000000E+03 0.  1.
   -9000007    1    1    2    0  502 -0.17210902153E+03  0.22328006409E+03 -0.12637552998E+03  0.50541693372E+03  0.40000000000E+03 0. -1.
<mgrwt>
<rscale>  2 0.48936234E+03</rscale>
<asrwt>0</asrwt>
<pdfrwt beam="1">  1       21 0.40533307E-01 0.48936234E+03</pdfrwt>
<pdfrwt beam="2">  1       21 0.17315817E+00 0.48936234E+03</pdfrwt>
<totfact> 0.98289888E+02</totfact>
</mgrwt>
</event>
<event>
 4    1  0.4676529E-002  0.4325834E+03  0.7818608E-02  0.1033047E+00
         21   -1    0    0  501  502  0.00000000000E+00  0.00000000000E+00  0.17490322089E+04  0.17490322089E+04  0.00000000000E+00 0. -1.
         21   -1    0    0  502  503 -0.00000000000E+00 -0.00000000000E+00 -0.14923919980E+03  0.14923919980E+03  0.00000000000E+00 0. -1.
    9000007    1    1    2  501    0  0.49749293932E+02  0.15701390497E+03  0.13049040353E+04  0.13747373931E+04  0.40000000000E+03 0. -1.
   -9000007    1    1    2    0  503 -0.49749293932E+02 -0.15701390497E+03  0.29488897373E+03  0.52353401554E+03  0.40000000000E+03 0. -1.
<mgrwt>
<rscale>  2 0.43258335E+03</rscale>
<asrwt>0</asrwt>
<pdfrwt beam="1">  1       21 0.26908186E+00 0.43258335E+03</pdfrwt>
<pdfrwt beam="2">  1       21 0.22959878E-01 0.43258335E+03</pdfrwt>
<totfact> 0.75065514E+02</totfact>
</mgrwt>
</event>
<event>
 4    1  0.4676529E-002  0.4984504E+03  0.7818608E-02  0.1014184E+00
         21   -1    0    0  503  502  0.00000000000E+00  0.00000000000E+00  0.23893291501E+03  0.23893291501E+03  0.00000000000E+00 0.  1.
         21   -1    0    0  501  503 -0.00000000000E+00 -0.00000000000E+00 -0.10783456592E+04  0.10783456592E+04  0.00000000000E+00 0.  1.
    9000007    1    1    2  501    0 -0.16307747541E+03 -0.24871374690E+03 -0.54416135930E+03  0.73794605212E+03  0.40000000000E+03 0.  1.
   -9000007    1    1    2    0  502  0.16307747541E+03  0.24871374690E+03 -0.29525138491E+03  0.57933252211E+03  0.40000000000E+03 0.  1.
<mgrwt>
<rscale>  2 0.49845039E+03</rscale>
<asrwt>0</asrwt>
<pdfrwt beam="1">  1       21 0.36758911E-01 0.49845039E+03</pdfrwt>
<pdfrwt beam="2">  1       21 0.16589933E+00 0.49845039E+03</pdfrwt>
<totfact> 0.13527434E+03</totfact>
</mgrwt>
</event>
<event>
 4    1  0.4676529E-002  0.4131651E+03  0.7818608E-02  0.1039314E+00
         21   -1    0    0  501  502  0.00000000000E+00  0.00000000000E+00  0.10364622803E+04  0.10364622803E+04  0.00000000000E+00 0. -1.
         21   -1    0    0  502  503 -0.00000000000E+00 -0.00000000000E+00 -0.19183074068E+03  0.19183074068E+03  0.00000000000E+00 0. -1.
    9000007    1    1    2  501    0  0.48705178097E+02 -0.91286363397E+02  0.19135231240E+03  0.45532527052E+03  0.40000000000E+03 0. -1.
   -9000007    1    1    2    0  503 -0.48705178097E+02  0.91286363397E+02  0.65327922720E+03  0.77296775043E+03  0.40000000000E+03 0. -1.
<mgrwt>
<rscale>  2 0.41316509E+03</rscale>
<asrwt>0</asrwt>
<pdfrwt beam="1">  1       21 0.15945573E+00 0.41316509E+03</pdfrwt>
<pdfrwt beam="2">  1       21 0.29512422E-01 0.41316509E+03</pdfrwt>
<totfact> 0.24323485E+03</totfact>
</mgrwt>
</event>
<event>
 4    1  0.4676529E-002  0.6361046E+03  0.7818608E-02  0.9833208E-01
         21   -1    0    0  501  502  0.00000000000E+00  0.00000000000E+00  0.32502456783E+03  0.32502456783E+03  0.00000000000E+00 0.  1.
         21   -1    0    0  502  503 -0.00000000000E+00 -0.00000000000E+00 -0.16087014500E+04  0.16087014500E+04  0.00000000000E+00 0. -1.
    9000007    1    1    2  501    0  0.37237685501E+03 -0.32552197355E+03 -0.18206018857E+03  0.66164566777E+03  0.40000000000E+03 0.  1.
   -9000007    1    1    2    0  503 -0.37237685501E+03  0.32552197355E+03 -0.11016166936E+04  0.12720803501E+04  0.40000000000E+03 0. -1.
<mgrwt>
<rscale>  2 0.63610461E+03</rscale>
<asrwt>0</asrwt>
<pdfrwt beam="1">  1       21 0.50003780E-01 0.63610461E+03</pdfrwt>
<pdfrwt beam="2">  1       21 0.24749253E+00 0.63610461E+03</pdfrwt>
<totfact> 0.19156648E+02</totfact>
</mgrwt>
</event>
<event>
 4    1  0.4676529E-002  0.4011385E+03  0.7818608E-02  0.1043386E+00
         21   -1    0    0  503  502  0.00000000000E+00  0.00000000000E+00  0.77633020746E+03  0.77633020746E+03  0.00000000000E+00 0.  1.
         21   -1    0    0  501  503 -0.00000000000E+00 -0.00000000000E+00 -0.16963508993E+04  0.16963508993E+04  0.00000000000E+00 0.  1.
    9000007    1    1    2  501    0 -0.19721988667E+02 -0.22872365019E+02 -0.16183582379E+04  0.16673318470E+04  0.40000000000E+03 0.  1.
   -9000007    1    1    2    0  502  0.19721988667E+02  0.22872365019E+02  0.69833754606E+03  0.80534925974E+03  0.40000000000E+03 0.  1.
<mgrwt>
<rscale>  2 0.40113851E+03</rscale>
<asrwt>0</asrwt>
<pdfrwt beam="1">  1       21 0.11943542E+00 0.40113851E+03</pdfrwt>
<pdfrwt beam="2">  1       21 0.26097706E+00 0.40113851E+03</pdfrwt>
<totfact> 0.24048996E+01</totfact>
</mgrwt>
</event>
<event>
 4    1  0.4676529E-002  0.5389749E+03  0.7818608E-02  0.1004078E+00
         21   -1    0    0  503  502  0.00000000000E+00  0.00000000000E+00  0.16696046035E+04  0.16696046035E+04  0.00000000000E+00 0.  1.
         21   -1    0    0  501  503 -0.00000000000E+00 -0.00000000000E+00 -0.30172555845E+03  0.30172555845E+03  0.00000000000E+00 0.  1.
    9000007    1    1    2  501    0  0.73884574100E+02 -0.35360293354E+03  0.42612149714E+02  0.54065678596E+03  0.40000000000E+03 0.  1.
   -9000007    1    1    2    0  502 -0.73884574100E+02  0.35360293354E+03  0.13252668953E+04  0.14306733760E+04  0.40000000000E+03 0.  1.
<mgrwt>
<rscale>  2 0.53897492E+03</rscale>
<asrwt>0</asrwt>
<pdfrwt beam="1">  1       21 0.25686224E+00 0.53897492E+03</pdfrwt>
<pdfrwt beam="2">  1       21 0.46419318E-01 0.53897492E+03</pdfrwt>
<totfact> 0.20465531E+02</totfact>
</mgrwt>
</event>
<event>
 4    1  0.4676529E-002  0.7046286E+03  0.7818608E-02  0.9709349E-01
         21   -1    0    0  501  502  0.00000000000E+00  0.00000000000E+00  0.16355092448E+04  0.16355092448E+04  0.00000000000E+00 0.  1.
         21   -1    0    0  502  503 -0.00000000000E+00 -0.00000000000E+00 -0.32209840297E+03  0.32209840297E+03  0.00000000000E+00 0.  1.
    9000007    1    1    2  501    0  0.57774065790E+03  0.52126699573E+02  0.42198586475E+03  0.82132425426E+03  0.40000000000E+03 0.  1.
   -9000007    1    1    2    0  503 -0.57774065790E+03 -0.52126699573E+02  0.89142497713E+03  0.11362833935E+04  0.40000000000E+03 0.  1.
<mgrwt>
<rscale>  2 0.70462860E+03</rscale>
<asrwt>0</asrwt>
<pdfrwt beam="1">  1       21 0.25161680E+00 0.70462860E+03</pdfrwt>
<pdfrwt beam="2">  1       21 0.49553601E-01 0.70462860E+03</pdfrwt>
<totfact> 0.17940617E+02</totfact>
</mgrwt>
</event>
<event>
 4    1  0.4676529E-002  0.6281301E+03  0.7818608E-02  0.9848705E-01
         21   -1    0    0  501  502  0.00000000000E+00  0.00000000000E+00  0.49221083894E+03  0.49221083894E+03  0.00000000000E+00 0.  1.
         21   -1    0    0  502  503 -0.00000000000E+00 -0.00000000000E+00 -0.82167071480E+03  0.82167071480E+03  0.00000000000E+00 0. -1.
    9000007    1    1    2  501    0  0.14363492315E+03  0.46251097154E+03 -0.62010535012E+02  0.63118356790E+03  0.40000000000E+03 0.  1.
   -9000007    1    1    2    0  503 -0.14363492315E+03 -0.46251097154E+03 -0.26744934085E+03  0.68269798583E+03  0.40000000000E+03 0. -1.
<mgrwt>
<rscale>  2 0.62813007E+03</rscale>
<asrwt>0</asrwt>
<pdfrwt beam="1">  1       21 0.75724745E-01 0.62813007E+03</pdfrwt>
<pdfrwt beam="2">  1       21 0.12641088E+00 0.62813007E+03</pdfrwt>
<totfact> 0.56694660E+02</totfact>
</mgrwt>
</event>
<event>
 4    1  0.4676529E-002  0.4627698E+03  0.7818608E-02  0.1023981E+00
         21   -1    0    0  503  502  0.00000000000E+00  0.00000000000E+00  0.76443701650E+03  0.76443701650E+03  0.00000000000E+00 0. -1.
         21   -1    0    0  501  503 -0.00000000000E+00 -0.00000000000E+00 -0.28493461351E+03  0.28493461351E+03  0.00000000000E+00 0. -1.
    9000007    1    1    2  501    0 -0.22568510341E+03  0.56763921641E+02  0.17174997897E+03  0.49361317241E+03  0.40000000000E+03 0. -1.
   -9000007    1    1    2    0  502  0.22568510341E+03 -0.56763921641E+02  0.30775242403E+03  0.55575845760E+03  0.40000000000E+03 0. -1.
<mgrwt>
<rscale>  2 0.46276982E+03</rscale>
<asrwt>0</asrwt>
<pdfrwt beam="1">  1       21 0.11760569E+00 0.46276982E+03</pdfrwt>
<pdfrwt beam="2">  1       21 0.43836095E-01 0.46276982E+03</pdfrwt>
<totfact> 0.23863349E+03</totfact>
</mgrwt>
</event>
<event>
 4    1  0.4676529E-002  0.5395924E+03  0.7818608E-02  0.1003932E+00
         21   -1    0    0  501  502  0.00000000000E+00  0.00000000000E+00  0.85234944229E+03  0.85234944229E+03  0.00000000000E+00 0. -1.
         21   -1    0    0  502  503 -0.00000000000E+00 -0.00000000000E+00 -0.60142405634E+03  0.60142405634E+03  0.00000000000E+00 0. -1.
    9000007    1    1    2  501    0  0.31251373000E+03  0.18301660690E+03  0.60323243474E+03  0.80935114763E+03  0.40000000000E+03 0. -1.
   -9000007    1    1    2    0  503 -0.31251373000E+03 -0.18301660690E+03 -0.35230704880E+03  0.64442235100E+03  0.40000000000E+03 0. -1.
<mgrwt>
<rscale>  2 0.53959236E+03</rscale>
<asrwt>0</asrwt>
<pdfrwt beam="1">  1       21 0.13113068E+00 0.53959236E+03</pdfrwt>
<pdfrwt beam="2">  1       21 0.92526778E-01 0.53959236E+03</pdfrwt>
<totfact> 0.33203013E+02</totfact>
</mgrwt>
</event>
<event>
 4    1  0.4676529E-002  0.5254391E+03  0.7818608E-02  0.1007344E+00
         21   -1    0    0  501  502  0.00000000000E+00  0.00000000000E+00  0.72944398928E+03  0.72944398928E+03  0.00000000000E+00 0.  1.
         21   -1    0    0  502  503 -0.00000000000E+00 -0.00000000000E+00 -0.69766043526E+03  0.69766043526E+03  0.00000000000E+00 0. -1.
    9000007    1    1    2  501    0 -0.13633471750E+03  0.31224844298E+03  0.49852362828E+03  0.72430107917E+03  0.40000000000E+03 0.  1.
   -9000007    1    1    2    0  503  0.13633471750E+03 -0.31224844298E+03 -0.46674007426E+03  0.70280334537E+03  0.40000000000E+03 0. -1.
<mgrwt>
<rscale>  2 0.52543910E+03</rscale>
<asrwt>0</asrwt>
<pdfrwt beam="1">  1       21 0.11222215E+00 0.52543910E+03</pdfrwt>
<pdfrwt beam="2">  1       21 0.10733237E+00 0.52543910E+03</pdfrwt>
<totfact> 0.34629857E+02</totfact>
</mgrwt>
</event>
<event>
 4    1  0.4676529E-002  0.5091759E+03  0.7818608E-02  0.1011411E+00
         21   -1    0    0  503  502  0.00000000000E+00  0.00000000000E+00  0.92398058140E+03  0.92398058140E+03  0.00000000000E+00 0. -1.
         21   -1    0    0  501  503 -0.00000000000E+00 -0.00000000000E+00 -0.31211634645E+03  0.31211634645E+03  0.00000000000E+00 0. -1.
    9000007    1    1    2  501    0 -0.12047833071E+03  0.29111011283E+03  0.10950655514E+03  0.52081840557E+03  0.40000000000E+03 0. -1.
   -9000007    1    1    2    0  502  0.12047833071E+03 -0.29111011283E+03  0.50235767981E+03  0.71527852228E+03  0.40000000000E+03 0. -1.
<mgrwt>
<rscale>  2 0.50917593E+03</rscale>
<asrwt>0</asrwt>
<pdfrwt beam="1">  1       21 0.14215086E+00 0.50917593E+03</pdfrwt>
<pdfrwt beam="2">  1       21 0.48017900E-01 0.50917593E+03</pdfrwt>
<totfact> 0.11828734E+03</totfact>
</mgrwt>
</event>
<event>
 4    1  0.4676529E-002  0.4109019E+03  0.7818608E-02  0.1040069E+00
         21   -1    0    0  501  502  0.00000000000E+00  0.00000000000E+00  0.17257547023E+03  0.17257547023E+03  0.00000000000E+00 0. -1.
         21   -1    0    0  502  503 -0.00000000000E+00 -0.00000000000E+00 -0.10669148943E+04  0.10669148943E+04  0.00000000000E+00 0. -1.
    9000007    1    1    2  501    0 -0.31723567284E+02  0.88509949437E+02 -0.26861872949E+03  0.49091385976E+03  0.40000000000E+03 0. -1.
   -9000007    1    1    2    0  503  0.31723567284E+02 -0.88509949437E+02 -0.62572069462E+03  0.74857650480E+03  0.40000000000E+03 0. -1.
<mgrwt>
<rscale>  2 0.41090193E+03</rscale>
<asrwt>0</asrwt>
<pdfrwt beam="1">  1       21 0.26550072E-01 0.41090193E+03</pdfrwt>
<pdfrwt beam="2">  1       21 0.16414075E+00 0.41090193E+03</pdfrwt>
<totfact> 0.27653737E+03</totfact>
</mgrwt>
</event>
<event>
 4    1  0.4676529E-002  0.4636125E+03  0.7818608E-02  0.1023739E+00
         21   -1    0    0  501  502  0.00000000000E+00  0.00000000000E+00  0.12568133877E+04  0.12568133877E+04  0.00000000000E+00 0.  1.
         21   -1    0    0  502  503 -0.00000000000E+00 -0.00000000000E+00 -0.40037456062E+03  0.40037456062E+03  0.00000000000E+00 0. -1.
    9000007    1    1    2  501    0  0.13954245726E+02  0.23396970084E+03  0.10553601306E+04  0.11527018466E+04  0.40000000000E+03 0.  1.
   -9000007    1    1    2    0  503 -0.13954245726E+02 -0.23396970084E+03 -0.19892130350E+03  0.50448610176E+03  0.40000000000E+03 0. -1.
<mgrwt>
<rscale>  2 0.46361249E+03</rscale>
<asrwt>0</asrwt>
<pdfrwt beam="1">  1       21 0.19335590E+00 0.46361249E+03</pdfrwt>
<pdfrwt beam="2">  1       21 0.61596087E-01 0.46361249E+03</pdfrwt>
<totfact> 0.29431238E+02</totfact>
</mgrwt>
</event>
<event>
 4    1  0.4676529E-002  0.4390525E+03  0.7818608E-02  0.1031038E+00
         21   -1    0    0  501  502  0.00000000000E+00  0.00000000000E+00  0.66186666300E+03  0.66186666300E+03  0.00000000000E+00 0.  1.
         21   -1    0    0  502  503 -0.00000000000E+00 -0.00000000000E+00 -0.29498892952E+03  0.29498892952E+03  0.00000000000E+00 0.  1.
    9000007    1    1    2  501    0  0.18020403796E+03 -0.17135808123E+02  0.23731814645E+03  0.49908619882E+03  0.40000000000E+03 0.  1.
   -9000007    1    1    2    0  503 -0.18020403796E+03  0.17135808123E+02  0.12955958704E+03  0.45776939370E+03  0.40000000000E+03 0.  1.
<mgrwt>
<rscale>  2 0.43905254E+03</rscale>
<asrwt>0</asrwt>
<pdfrwt beam="1">  1       21 0.10182564E+00 0.43905254E+03</pdfrwt>
<pdfrwt beam="2">  1       21 0.45382913E-01 0.43905254E+03</pdfrwt>
<totfact> 0.31996404E+03</totfact>
</mgrwt>
</event>
<event>
 4    1  0.4676529E-002  0.4941933E+03  0.7818608E-02  0.1015306E+00
         21   -1    0    0  501  502  0.00000000000E+00  0.00000000000E+00  0.93848748578E+03  0.93848748578E+03  0.00000000000E+00 0. -1.
         21   -1    0    0  502  503 -0.00000000000E+00 -0.00000000000E+00 -0.64334330210E+03  0.64334330210E+03  0.00000000000E+00 0.  1.
    9000007    1    1    2  501    0 -0.23602441997E+03  0.16887701792E+03  0.75790896673E+03  0.90479443845E+03  0.40000000000E+03 0. -1.
   -9000007    1    1    2    0  503  0.23602441997E+03 -0.16887701792E+03 -0.46276478306E+03  0.67703634943E+03  0.40000000000E+03 0.  1.
<mgrwt>
<rscale>  2 0.49419326E+03</rscale>
<asrwt>0</asrwt>
<pdfrwt beam="1">  1       21 0.14438269E+00 0.49419326E+03</pdfrwt>
<pdfrwt beam="2">  1       21 0.98975893E-01 0.49419326E+03</pdfrwt>
<totfact> 0.22283473E+02</totfact>
</mgrwt>
</event>
<event>
 4    1  0.4676529E-002  0.4407308E+03  0.7818608E-02  0.1030523E+00
         21   -1    0    0  501  502  0.00000000000E+00  0.00000000000E+00  0.70327136026E+03  0.70327136026E+03  0.00000000000E+00 0. -1.
         21   -1    0    0  502  503 -0.00000000000E+00 -0.00000000000E+00 -0.45409936752E+03  0.45409936752E+03  0.00000000000E+00 0. -1.
    9000007    1    1    2  501    0 -0.18334207218E+03 -0.25087166509E+02  0.48679064791E+03  0.65666491930E+03  0.40000000000E+03 0. -1.
   -9000007    1    1    2    0  503  0.18334207218E+03  0.25087166509E+02 -0.23761865517E+03  0.50070580847E+03  0.40000000000E+03 0. -1.
<mgrwt>
<rscale>  2 0.44073085E+03</rscale>
<asrwt>0</asrwt>
<pdfrwt beam="1">  1       21 0.10819559E+00 0.44073085E+03</pdfrwt>
<pdfrwt beam="2">  1       21 0.69861441E-01 0.44073085E+03</pdfrwt>
<totfact> 0.10806320E+03</totfact>
</mgrwt>
</event>
<event>
 4    1  0.4676529E-002  0.5267971E+03  0.7818608E-02  0.1007012E+00
         21   -1    0    0  501  502  0.00000000000E+00  0.00000000000E+00  0.71373940695E+03  0.71373940695E+03  0.00000000000E+00 0. -1.
         21   -1    0    0  502  503 -0.00000000000E+00 -0.00000000000E+00 -0.51442544607E+03  0.51442544607E+03  0.00000000000E+00 0.  1.
    9000007    1    1    2  501    0 -0.34279626599E+03  0.24254827432E+01  0.40309646270E+03  0.66332640622E+03  0.40000000000E+03 0. -1.
   -9000007    1    1    2    0  503  0.34279626599E+03 -0.24254827432E+01 -0.20378250181E+03  0.56483844680E+03  0.40000000000E+03 0.  1.
<mgrwt>
<rscale>  2 0.52679708E+03</rscale>
<asrwt>0</asrwt>
<pdfrwt beam="1">  1       21 0.10980606E+00 0.52679708E+03</pdfrwt>
<pdfrwt beam="2">  1       21 0.79142376E-01 0.52679708E+03</pdfrwt>
<totfact> 0.75789164E+02</totfact>
</mgrwt>
</event>
<event>
 4    1  0.4676529E-002  0.4491825E+03  0.7818608E-02  0.1027966E+00
         21   -1    0    0  501  502  0.00000000000E+00  0.00000000000E+00  0.41498785074E+03  0.41498785074E+03  0.00000000000E+00 0.  1.
         21   -1    0    0  502  503 -0.00000000000E+00 -0.00000000000E+00 -0.72087920274E+03  0.72087920274E+03  0.00000000000E+00 0.  1.
    9000007    1    1    2  501    0  0.14633270382E+03  0.14265908567E+03  0.17110169815E+03  0.48066689718E+03  0.40000000000E+03 0.  1.
   -9000007    1    1    2    0  503 -0.14633270382E+03 -0.14265908567E+03 -0.47699305015E+03  0.65520015631E+03  0.40000000000E+03 0.  1.
<mgrwt>
<rscale>  2 0.44918245E+03</rscale>
<asrwt>0</asrwt>
<pdfrwt beam="1">  1       21 0.63844285E-01 0.44918245E+03</pdfrwt>
<pdfrwt beam="2">  1       21 0.11090449E+00 0.44918245E+03</pdfrwt>
<totfact> 0.12384123E+03</totfact>
</mgrwt>
</event>
<event>
 4    1  0.4676529E-002  0.4067451E+03  0.7818608E-02  0.1041469E+00
         21   -1    0    0  501  502  0.00000000000E+00  0.00000000000E+00  0.10610922163E+04  0.10610922163E+04  0.00000000000E+00 0.  1.
         21   -1    0    0  502  503 -0.00000000000E+00 -0.00000000000E+00 -0.17860083166E+03  0.17860083166E+03  0.00000000000E+00 0.  1.
    9000007    1    1    2  501    0  0.33282883443E+02 -0.65831730224E+02  0.66215162935E+03  0.77710124648E+03  0.40000000000E+03 0.  1.
   -9000007    1    1    2    0  503 -0.33282883443E+02  0.65831730224E+02  0.22033975529E+03  0.46259180148E+03  0.40000000000E+03 0.  1.
<mgrwt>
<rscale>  2 0.40674509E+03</rscale>
<asrwt>0</asrwt>
<pdfrwt beam="1">  1       21 0.16324495E+00 0.40674509E+03</pdfrwt>
<pdfrwt beam="2">  1       21 0.27477052E-01 0.40674509E+03</pdfrwt>
<totfact> 0.26302795E+03</totfact>
</mgrwt>
</event>
<event>
 4    1  0.4676529E-002  0.5150408E+03  0.7818608E-02  0.1009926E+00
         21   -1    0    0  503  502  0.00000000000E+00  0.00000000000E+00  0.17108848503E+03  0.17108848503E+03  0.00000000000E+00 0.  1.
         21   -1    0    0  501  503 -0.00000000000E+00 -0.00000000000E+00 -0.16137728828E+04  0.16137728828E+04  0.00000000000E+00 0.  1.
    9000007    1    1    2  501    0  0.87553290877E+02  0.31241222365E+03 -0.89809927262E+03  0.10353015405E+04  0.40000000000E+03 0.  1.
   -9000007    1    1    2    0  502 -0.87553290877E+02 -0.31241222365E+03 -0.54458512514E+03  0.74955982733E+03  0.40000000000E+03 0.  1.
<mgrwt>
<rscale>  2 0.51504075E+03</rscale>
<asrwt>0</asrwt>
<pdfrwt beam="1">  1       21 0.26321305E-01 0.51504075E+03</pdfrwt>
<pdfrwt beam="2">  1       21 0.24827275E+00 0.51504075E+03</pdfrwt>
<totfact> 0.74071470E+02</totfact>
</mgrwt>
</event>
<event>
 4    1  0.4676529E-002  0.4659100E+03  0.7818608E-02  0.1023081E+00
         21   -1    0    0  503  502  0.00000000000E+00  0.00000000000E+00  0.12820418686E+03  0.12820418686E+03  0.00000000000E+00 0.  1.
         21   -1    0    0  501  503 -0.00000000000E+00 -0.00000000000E+00 -0.17227063009E+04  0.17227063009E+04  0.00000000000E+00 0. -1.
    9000007    1    1    2  501    0  0.23821526618E+03 -0.18044761691E+02 -0.91841989763E+03  0.10298384508E+04  0.40000000000E+03 0. -1.
   -9000007    1    1    2    0  502 -0.23821526618E+03  0.18044761691E+02 -0.67608221636E+03  0.82107203688E+03  0.40000000000E+03 0.  1.
<mgrwt>
<rscale>  2 0.46591000E+03</rscale>
<asrwt>0</asrwt>
<pdfrwt beam="1">  1       21 0.19723721E-01 0.46591000E+03</pdfrwt>
<pdfrwt beam="2">  1       21 0.26503174E+00 0.46591000E+03</pdfrwt>
<totfact> 0.10443326E+03</totfact>
</mgrwt>
</event>
<event>
 4    1  0.4676529E-002  0.4286689E+03  0.7818608E-02  0.1034281E+00
         21   -1    0    0  503  502  0.00000000000E+00  0.00000000000E+00  0.22396599284E+03  0.22396599284E+03  0.00000000000E+00 0.  1.
         21   -1    0    0  501  503 -0.00000000000E+00 -0.00000000000E+00 -0.17764850846E+04  0.17764850846E+04  0.00000000000E+00 0.  1.
    9000007    1    1    2  501    0 -0.42454428978E+02 -0.14817109866E+03 -0.15100124930E+04  0.15696798343E+04  0.40000000000E+03 0.  1.
   -9000007    1    1    2    0  502  0.42454428978E+02  0.14817109866E+03 -0.42506598754E+02  0.43077124318E+03  0.40000000000E+03 0.  1.
<mgrwt>
<rscale>  2 0.42866893E+03</rscale>
<asrwt>0</asrwt>
<pdfrwt beam="1">  1       21 0.34456307E-01 0.42866893E+03</pdfrwt>
<pdfrwt beam="2">  1       21 0.27330539E+00 0.42866893E+03</pdfrwt>
<totfact> 0.31874219E+02</totfact>
</mgrwt>
</event>
<event>
 4    1  0.4676529E-002  0.4886972E+03  0.7818608E-02  0.1016772E+00
         21   -1    0    0  501  502  0.00000000000E+00  0.00000000000E+00  0.11676826312E+04  0.11676826312E+04  0.00000000000E+00 0.  1.
         21   -1    0    0  502  503 -0.00000000000E+00 -0.00000000000E+00 -0.30197842887E+03  0.30197842887E+03  0.00000000000E+00 0.  1.
    9000007    1    1    2  501    0  0.12110221139E+03 -0.25329660706E+03  0.85028720163E+03  0.98072077678E+03  0.40000000000E+03 0.  1.
   -9000007    1    1    2    0  503 -0.12110221139E+03  0.25329660706E+03  0.15417000734E+02  0.48894028333E+03  0.40000000000E+03 0.  1.
<mgrwt>
<rscale>  2 0.48869716E+03</rscale>
<asrwt>0</asrwt>
<pdfrwt beam="1">  1       21 0.17964348E+00 0.48869716E+03</pdfrwt>
<pdfrwt beam="2">  1       21 0.46458220E-01 0.48869716E+03</pdfrwt>
<totfact> 0.66449534E+02</totfact>
</mgrwt>
</event>
<event>
 4    1  0.4676529E-002  0.4479458E+03  0.7818608E-02  0.1028336E+00
         21   -1    0    0  503  502  0.00000000000E+00  0.00000000000E+00  0.15730389163E+03  0.15730389163E+03  0.00000000000E+00 0.  1.
         21   -1    0    0  501  503 -0.00000000000E+00 -0.00000000000E+00 -0.12877564899E+04  0.12877564899E+04  0.00000000000E+00 0. -1.
    9000007    1    1    2  501    0  0.10761753259E+03 -0.17051082697E+03 -0.49500019234E+03  0.66759318889E+03  0.40000000000E+03 0. -1.
   -9000007    1    1    2    0  502 -0.10761753259E+03  0.17051082697E+03 -0.63545240597E+03  0.77746719268E+03  0.40000000000E+03 0.  1.
<mgrwt>
<rscale>  2 0.44794584E+03</rscale>
<asrwt>0</asrwt>
<pdfrwt beam="1">  1       21 0.24200598E-01 0.44794584E+03</pdfrwt>
<pdfrwt beam="2">  1       21 0.19811639E+00 0.44794584E+03</pdfrwt>
<totfact> 0.18817829E+03</totfact>
</mgrwt>
</event>
<event>
 4    1  0.4676529E-002  0.4438156E+03  0.7818608E-02  0.1029582E+00
         21   -1    0    0  503  502  0.00000000000E+00  0.00000000000E+00  0.17058225456E+03  0.17058225456E+03  0.00000000000E+00 0. -1.
         21   -1    0    0  501  503 -0.00000000000E+00 -0.00000000000E+00 -0.19480688044E+04  0.19480688044E+04  0.00000000000E+00 0. -1.
    9000007    1    1    2  501    0  0.18440923176E+03  0.54456837041E+02 -0.15647690836E+04  0.16264914991E+04  0.40000000000E+03 0. -1.
   -9000007    1    1    2    0  502 -0.18440923176E+03 -0.54456837041E+02 -0.21271746624E+03  0.49215955980E+03  0.40000000000E+03 0. -1.
<mgrwt>
<rscale>  2 0.44381563E+03</rscale>
<asrwt>0</asrwt>
<pdfrwt beam="1">  1       21 0.26243422E-01 0.44381563E+03</pdfrwt>
<pdfrwt beam="2">  1       21 0.29970291E+00 0.44381563E+03</pdfrwt>
<totfact> 0.37645691E+02</totfact>
</mgrwt>
</event>
<event>
 4    1  0.4676529E-002  0.4925578E+03  0.7818608E-02  0.1015740E+00
         21   -1    0    0  501  502  0.00000000000E+00  0.00000000000E+00  0.13791695437E+04  0.13791695437E+04  0.00000000000E+00 0.  1.
         21   -1    0    0  502  503 -0.00000000000E+00 -0.00000000000E+00 -0.17654572078E+03  0.17654572078E+03  0.00000000000E+00 0.  1.
    9000007    1    1    2  501    0 -0.19411691930E+03 -0.21197122080E+03  0.64789684760E+03  0.81386946247E+03  0.40000000000E+03 0.  1.
   -9000007    1    1    2    0  503  0.19411691930E+03  0.21197122080E+03  0.55472697530E+03  0.74184580199E+03  0.40000000000E+03 0.  1.
<mgrwt>
<rscale>  2 0.49255779E+03</rscale>
<asrwt>0</asrwt>
<pdfrwt beam="1">  1       21 0.21217992E+00 0.49255779E+03</pdfrwt>
<pdfrwt beam="2">  1       21 0.27160881E-01 0.49255779E+03</pdfrwt>
<totfact> 0.11900256E+03</totfact>
</mgrwt>
</event>
<event>
 4    1  0.4676529E-002  0.4011564E+03  0.7818608E-02  0.1043380E+00
         21   -1    0    0  501  502  0.00000000000E+00  0.00000000000E+00  0.62292386388E+03  0.62292386388E+03  0.00000000000E+00 0.  1.
         21   -1    0    0  502  503 -0.00000000000E+00 -0.00000000000E+00 -0.13363038944E+04  0.13363038944E+04  0.00000000000E+00 0. -1.
    9000007    1    1    2  501    0  0.43476543269E+01 -0.30126141725E+02  0.52315121862E+03  0.65925236751E+03  0.40000000000E+03 0.  1.
   -9000007    1    1    2    0  503 -0.43476543269E+01  0.30126141725E+02 -0.12365312491E+04  0.12999753908E+04  0.40000000000E+03 0. -1.
<mgrwt>
<rscale>  2 0.40115644E+03</rscale>
<asrwt>0</asrwt>
<pdfrwt beam="1">  1       21 0.95834440E-01 0.40115644E+03</pdfrwt>
<pdfrwt beam="2">  1       21 0.20558522E+00 0.40115644E+03</pdfrwt>
<totfact> 0.91754422E+01</totfact>
</mgrwt>
</event>
<event>
 4    1  0.4676529E-002  0.4212135E+03  0.7818608E-02  0.1036672E+00
         21   -1    0    0  501  502  0.00000000000E+00  0.00000000000E+00  0.57966468712E+03  0.57966468712E+03  0.00000000000E+00 0. -1.
         21   -1    0    0  502  503 -0.00000000000E+00 -0.00000000000E+00 -0.36685163572E+03  0.36685163572E+03  0.00000000000E+00 0. -1.
    9000007    1    1    2  501    0  0.55890610451E+02  0.11957027411E+03  0.29903548121E+03  0.51656851415E+03  0.40000000000E+03 0. -1.
   -9000007    1    1    2    0  503 -0.55890610451E+02 -0.11957027411E+03 -0.86222429813E+02  0.42994780868E+03  0.40000000000E+03 0. -1.
<mgrwt>
<rscale>  2 0.42121350E+03</rscale>
<asrwt>0</asrwt>
<pdfrwt beam="1">  1       21 0.89179182E-01 0.42121350E+03</pdfrwt>
<pdfrwt beam="2">  1       21 0.56438714E-01 0.42121350E+03</pdfrwt>
<totfact> 0.27826050E+03</totfact>
</mgrwt>
</event>
<event>
 4    1  0.4676529E-002  0.4019085E+03  0.7818608E-02  0.1043121E+00
         21   -1    0    0  501  502  0.00000000000E+00  0.00000000000E+00  0.31917644399E+03  0.31917644399E+03  0.00000000000E+00 0.  1.
         21   -1    0    0  502  503 -0.00000000000E+00 -0.00000000000E+00 -0.91187262878E+03  0.91187262878E+03  0.00000000000E+00 0.  1.
    9000007    1    1    2  501    0  0.25125794359E+02 -0.29985923104E+02  0.11426008707E+03  0.41783469055E+03  0.40000000000E+03 0.  1.
   -9000007    1    1    2    0  503 -0.25125794359E+02  0.29985923104E+02 -0.70695627187E+03  0.81321438223E+03  0.40000000000E+03 0.  1.
<mgrwt>
<rscale>  2 0.40190852E+03</rscale>
<asrwt>0</asrwt>
<pdfrwt beam="1">  1       21 0.49104068E-01 0.40190852E+03</pdfrwt>
<pdfrwt beam="2">  1       21 0.14028810E+00 0.40190852E+03</pdfrwt>
<totfact> 0.12215127E+03</totfact>
</mgrwt>
</event>
<event>
 4    1  0.4676529E-002  0.5567014E+03  0.7818608E-02  0.9999546E-01
         21   -1    0    0  503  502  0.00000000000E+00  0.00000000000E+00  0.84878678265E+03  0.84878678265E+03  0.00000000000E+00 0. -1.
         21   -1    0    0  501  503 -0.00000000000E+00 -0.00000000000E+00 -0.37303309212E+03  0.37303309212E+03  0.00000000000E+00 0. -1.
    9000007    1    1    2  501    0 -0.35208107688E+03 -0.16110678878E+03  0.14894945219E+03  0.57628328225E+03  0.40000000000E+03 0. -1.
   -9000007    1    1    2    0  502  0.35208107688E+03  0.16110678878E+03  0.32680423834E+03  0.64553659252E+03  0.40000000000E+03 0. -1.
<mgrwt>
<rscale>  2 0.55670143E+03</rscale>
<asrwt>0</asrwt>
<pdfrwt beam="1">  1       21 0.13058258E+00 0.55670143E+03</pdfrwt>
<pdfrwt beam="2">  1       21 0.57389707E-01 0.55670143E+03</pdfrwt>
<totfact> 0.99257674E+02</totfact>
</mgrwt>
</event>
<event>
 4    1  0.4676529E-002  0.7633263E+03  0.7818608E-02  0.9614672E-01
         21   -1    0    0  503  502  0.00000000000E+00  0.00000000000E+00  0.82495164728E+03  0.82495164728E+03  0.00000000000E+00 0.  1.
         21   -1    0    0  501  503 -0.00000000000E+00 -0.00000000000E+00 -0.13934170313E+04  0.13934170313E+04  0.00000000000E+00 0. -1.
    9000007    1    1    2  501    0  0.59712160574E+03  0.25712401716E+03 -0.10631245074E+04  0.13087783199E+04  0.40000000000E+03 0. -1.
   -9000007    1    1    2    0  502 -0.59712160574E+03 -0.25712401716E+03  0.49465912343E+03  0.90959035869E+03  0.40000000000E+03 0.  1.
<mgrwt>
<rscale>  2 0.76332626E+03</rscale>
<asrwt>0</asrwt>
<pdfrwt beam="1">  1       21 0.12691564E+00 0.76332626E+03</pdfrwt>
<pdfrwt beam="2">  1       21 0.21437185E+00 0.76332626E+03</pdfrwt>
<totfact> 0.33422500E+01</totfact>
</mgrwt>
</event>
<event>
 4    1  0.4676529E-002  0.4951259E+03  0.7818608E-02  0.1015059E+00
         21   -1    0    0  503  502  0.00000000000E+00  0.00000000000E+00  0.13872220493E+04  0.13872220493E+04  0.00000000000E+00 0. -1.
         21   -1    0    0  501  503 -0.00000000000E+00 -0.00000000000E+00 -0.20737057978E+03  0.20737057978E+03  0.00000000000E+00 0. -1.
    9000007    1    1    2  501    0 -0.21823647745E+03 -0.19370716104E+03  0.28340007125E+03  0.57049559570E+03  0.40000000000E+03 0.  1.
   -9000007    1    1    2    0  502  0.21823647745E+03  0.19370716104E+03  0.89645139830E+03  0.10240970334E+04  0.40000000000E+03 0.  1.
<mgrwt>
<rscale>  2 0.49512587E+03</rscale>
<asrwt>0</asrwt>
<pdfrwt beam="1">  1       21 0.21341877E+00 0.49512587E+03</pdfrwt>
<pdfrwt beam="2">  1       21 0.31903167E-01 0.49512587E+03</pdfrwt>
<totfact> 0.84754610E+02</totfact>
</mgrwt>
</event>
<event>
 4    1  0.4676529E-002  0.4157214E+03  0.7818608E-02  0.1038468E+00
         21   -1    0    0  501  502  0.00000000000E+00  0.00000000000E+00  0.62151660472E+03  0.62151660472E+03  0.00000000000E+00 0. -1.
         21   -1    0    0  502  503 -0.00000000000E+00 -0.00000000000E+00 -0.27810688378E+03  0.27810688378E+03  0.00000000000E+00 0. -1.
    9000007    1    1    2  501    0 -0.92669595699E+02 -0.65089611905E+02  0.16643390184E+03  0.44779968203E+03  0.40000000000E+03 0. -1.
   -9000007    1    1    2    0  503  0.92669595699E+02  0.65089611905E+02  0.17697581910E+03  0.45182380647E+03  0.40000000000E+03 0. -1.
<mgrwt>
<rscale>  2 0.41572144E+03</rscale>
<asrwt>0</asrwt>
<pdfrwt beam="1">  1       21 0.95617939E-01 0.41572144E+03</pdfrwt>
<pdfrwt beam="2">  1       21 0.42785674E-01 0.41572144E+03</pdfrwt>
<totfact> 0.42485643E+03</totfact>
</mgrwt>
</event>
<event>
 4    1  0.4676529E-002  0.4604670E+03  0.7818608E-02  0.1024646E+00
         21   -1    0    0  503  502  0.00000000000E+00  0.00000000000E+00  0.12903727955E+04  0.12903727955E+04  0.00000000000E+00 0. -1.
         21   -1    0    0  501  503 -0.00000000000E+00 -0.00000000000E+00 -0.18966585951E+03  0.18966585951E+03  0.00000000000E+00 0.  1.
    9000007    1    1    2  501    0 -0.22791248209E+03 -0.92613604184E+01  0.27981453056E+03  0.53881911975E+03  0.40000000000E+03 0.  1.
   -9000007    1    1    2    0  502  0.22791248209E+03  0.92613604184E+01  0.82089240546E+03  0.94121953530E+03  0.40000000000E+03 0. -1.
<mgrwt>
<rscale>  2 0.46046702E+03</rscale>
<asrwt>0</asrwt>
<pdfrwt beam="1">  1       21 0.19851889E+00 0.46046702E+03</pdfrwt>
<pdfrwt beam="2">  1       21 0.29179364E-01 0.46046702E+03</pdfrwt>
<totfact> 0.12890969E+03</totfact>
</mgrwt>
</event>
<event>
 4    1  0.4676529E-002  0.4935824E+03  0.7818608E-02  0.1015468E+00
         21   -1    0    0  503  502  0.00000000000E+00  0.00000000000E+00  0.64359511731E+03  0.64359511731E+03  0.00000000000E+00 0.  1.
         21   -1    0    0  501  503 -0.00000000000E+00 -0.00000000000E+00 -0.37889959772E+03  0.37889959772E+03  0.00000000000E+00 0.  1.
    9000007    1    1    2  501    0 -0.14096759016E+02 -0.28883363625E+03  0.14819627644E+03  0.51535009886E+03  0.40000000000E+03 0.  1.
   -9000007    1    1    2    0  502  0.14096759016E+02  0.28883363625E+03  0.11649924315E+03  0.50714461616E+03  0.40000000000E+03 0.  1.
<mgrwt>
<rscale>  2 0.49358240E+03</rscale>
<asrwt>0</asrwt>
<pdfrwt beam="1">  1       21 0.99014634E-01 0.49358240E+03</pdfrwt>
<pdfrwt beam="2">  1       21 0.58292246E-01 0.49358240E+03</pdfrwt>
<totfact> 0.19669770E+03</totfact>
</mgrwt>
</event>
<event>
 4    1  0.4676529E-002  0.5037664E+03  0.7818608E-02  0.1012800E+00
         21   -1    0    0  501  502  0.00000000000E+00  0.00000000000E+00  0.33917205671E+03  0.33917205671E+03  0.00000000000E+00 0.  1.
         21   -1    0    0  502  503 -0.00000000000E+00 -0.00000000000E+00 -0.76685717322E+03  0.76685717322E+03  0.00000000000E+00 0. -1.
    9000007    1    1    2  501    0  0.20997915543E+03  0.22291102699E+03 -0.12766607280E+03  0.51969144481E+03  0.40000000000E+03 0.  1.
   -9000007    1    1    2    0  503 -0.20997915543E+03 -0.22291102699E+03 -0.30001904372E+03  0.58633778512E+03  0.40000000000E+03 0.  1.
<mgrwt>
<rscale>  2 0.50376639E+03</rscale>
<asrwt>0</asrwt>
<pdfrwt beam="1">  1       21 0.52180317E-01 0.50376639E+03</pdfrwt>
<pdfrwt beam="2">  1       21 0.11797802E+00 0.50376639E+03</pdfrwt>
<totfact> 0.16133650E+03</totfact>
</mgrwt>
</event>
<event>
 4    1  0.4676529E-002  0.4116900E+03  0.7818608E-02  0.1039805E+00
         21   -1    0    0  503  502  0.00000000000E+00  0.00000000000E+00  0.41491082550E+03  0.41491082550E+03  0.00000000000E+00 0.  1.
         21   -1    0    0  501  503 -0.00000000000E+00 -0.00000000000E+00 -0.24126060492E+04  0.24126060492E+04  0.00000000000E+00 0. -1.
    9000007    1    1    2  501    0  0.88718509567E+02  0.40220426153E+02 -0.22873730116E+04  0.23241264920E+04  0.40000000000E+03 0. -1.
   -9000007    1    1    2    0  502 -0.88718509567E+02 -0.40220426153E+02  0.28967778788E+03  0.50339038272E+03  0.40000000000E+03 0.  1.
<mgrwt>
<rscale>  2 0.41169000E+03</rscale>
<asrwt>0</asrwt>
<pdfrwt beam="1">  1       21 0.63832435E-01 0.41169000E+03</pdfrwt>
<pdfrwt beam="2">  1       21 0.37117016E+00 0.41169000E+03</pdfrwt>
<totfact> 0.22466895E+01</totfact>
</mgrwt>
</event>
<event>
 4    1  0.4676529E-002  0.5297977E+03  0.7818608E-02  0.1006281E+00
         21   -1    0    0  501  502  0.00000000000E+00  0.00000000000E+00  0.44507834390E+03  0.44507834390E+03  0.00000000000E+00 0. -1.
         21   -1    0    0  502  503 -0.00000000000E+00 -0.00000000000E+00 -0.82091133156E+03  0.82091133156E+03  0.00000000000E+00 0. -1.
    9000007    1    1    2  501    0 -0.24624244193E+03 -0.24505153853E+03 -0.49266048956E+03  0.72346385861E+03  0.40000000000E+03 0. -1.
   -9000007    1    1    2    0  503  0.24624244193E+03  0.24505153853E+03  0.11682750190E+03  0.54252581685E+03  0.40000000000E+03 0. -1.
<mgrwt>
<rscale>  2 0.52979769E+03</rscale>
<asrwt>0</asrwt>
<pdfrwt beam="1">  1       21 0.68473592E-01 0.52979769E+03</pdfrwt>
<pdfrwt beam="2">  1       21 0.12629405E+00 0.52979769E+03</pdfrwt>
<totfact> 0.73872499E+02</totfact>
</mgrwt>
</event>
<event>
 4    1  0.4676529E-002  0.4218983E+03  0.7818608E-02  0.1036450E+00
         21   -1    0    0  503  502  0.00000000000E+00  0.00000000000E+00  0.30657754348E+03  0.30657754348E+03  0.00000000000E+00 0.  1.
         21   -1    0    0  501  503 -0.00000000000E+00 -0.00000000000E+00 -0.10225252369E+04  0.10225252369E+04  0.00000000000E+00 0.  1.
    9000007    1    1    2  501    0  0.13342387428E+03  0.14009481936E+02 -0.79485883096E+03  0.89988819137E+03  0.40000000000E+03 0.  1.
   -9000007    1    1    2    0  502 -0.13342387428E+03 -0.14009481936E+02  0.78911137520E+02  0.42921458903E+03  0.40000000000E+03 0.  1.
<mgrwt>
<rscale>  2 0.42189832E+03</rscale>
<asrwt>0</asrwt>
<pdfrwt beam="1">  1       21 0.47165776E-01 0.42189832E+03</pdfrwt>
<pdfrwt beam="2">  1       21 0.15731157E+00 0.42189832E+03</pdfrwt>
<totfact> 0.96688947E+02</totfact>
</mgrwt>
</event>
<event>
 4    1  0.4676529E-002  0.4174362E+03  0.7818608E-02  0.1037904E+00
         21   -1    0    0  503  502  0.00000000000E+00  0.00000000000E+00  0.26872498036E+03  0.26872498036E+03  0.00000000000E+00 0.  1.
         21   -1    0    0  501  503 -0.00000000000E+00 -0.00000000000E+00 -0.81268502529E+03  0.81268502529E+03  0.00000000000E+00 0.  1.
    9000007    1    1    2  501    0  0.11192866642E+03  0.41532413257E+02 -0.51505527155E+03  0.66297428341E+03  0.40000000000E+03 0.  1.
   -9000007    1    1    2    0  502 -0.11192866642E+03 -0.41532413257E+02 -0.28904773377E+02  0.41843572223E+03  0.40000000000E+03 0.  1.
<mgrwt>
<rscale>  2 0.41743618E+03</rscale>
<asrwt>0</asrwt>
<pdfrwt beam="1">  1       21 0.41342305E-01 0.41743618E+03</pdfrwt>
<pdfrwt beam="2">  1       21 0.12502847E+00 0.41743618E+03</pdfrwt>
<totfact> 0.23462425E+03</totfact>
</mgrwt>
</event>
<event>
 4    1  0.4676529E-002  0.5011250E+03  0.7818608E-02  0.1013486E+00
         21   -1    0    0  501  502  0.00000000000E+00  0.00000000000E+00  0.20035689554E+03  0.20035689554E+03  0.00000000000E+00 0.  1.
         21   -1    0    0  502  503 -0.00000000000E+00 -0.00000000000E+00 -0.13351541274E+04  0.13351541274E+04  0.00000000000E+00 0. -1.
    9000007    1    1    2  501    0  0.27063530040E+03 -0.13372654490E+03 -0.37741052503E+03  0.62734755840E+03  0.40000000000E+03 0.  1.
   -9000007    1    1    2    0  503 -0.27063530040E+03  0.13372654490E+03 -0.75738670685E+03  0.90816346455E+03  0.40000000000E+03 0. -1.
<mgrwt>
<rscale>  2 0.50112499E+03</rscale>
<asrwt>0</asrwt>
<pdfrwt beam="1">  1       21 0.30824137E-01 0.50112499E+03</pdfrwt>
<pdfrwt beam="2">  1       21 0.20540833E+00 0.50112499E+03</pdfrwt>
<totfact> 0.10221520E+03</totfact>
</mgrwt>
</event>
<event>
 4    1  0.4676529E-002  0.4318473E+03  0.7818608E-02  0.1033278E+00
         21   -1    0    0  501  502  0.00000000000E+00  0.00000000000E+00  0.88624228340E+03  0.88624228340E+03  0.00000000000E+00 0.  1.
         21   -1    0    0  502  503 -0.00000000000E+00 -0.00000000000E+00 -0.38787071854E+03  0.38787071854E+03  0.00000000000E+00 0. -1.
    9000007    1    1    2  501    0  0.68390968979E+02  0.14769830335E+03  0.68007030207E+03  0.80559774653E+03  0.40000000000E+03 0.  1.
   -9000007    1    1    2    0  503 -0.68390968979E+02 -0.14769830335E+03 -0.18169873722E+03  0.46851525542E+03  0.40000000000E+03 0. -1.
<mgrwt>
<rscale>  2 0.43184733E+03</rscale>
<asrwt>0</asrwt>
<pdfrwt beam="1">  1       21 0.13634497E+00 0.43184733E+03</pdfrwt>
<pdfrwt beam="2">  1       21 0.59672419E-01 0.43184733E+03</pdfrwt>
<totfact> 0.85433882E+02</totfact>
</mgrwt>
</event>
<event>
 4    1  0.4676529E-002  0.4437759E+03  0.7818608E-02  0.1029595E+00
         21   -1    0    0  503  502  0.00000000000E+00  0.00000000000E+00  0.95380740792E+03  0.95380740792E+03  0.00000000000E+00 0.  1.
         21   -1    0    0  501  503 -0.00000000000E+00 -0.00000000000E+00 -0.20907731502E+03  0.20907731502E+03  0.00000000000E+00 0.  1.
    9000007    1    1    2  501    0 -0.18393547820E+03 -0.55720485466E+02  0.30749205412E+03  0.53989665306E+03  0.40000000000E+03 0.  1.
   -9000007    1    1    2    0  502  0.18393547820E+03  0.55720485466E+02  0.43723803879E+03  0.62298806987E+03  0.40000000000E+03 0.  1.
<mgrwt>
<rscale>  2 0.44377588E+03</rscale>
<asrwt>0</asrwt>
<pdfrwt beam="1">  1       21 0.14673960E+00 0.44377588E+03</pdfrwt>
<pdfrwt beam="2">  1       21 0.32165741E-01 0.44377588E+03</pdfrwt>
<totfact> 0.25397453E+03</totfact>
</mgrwt>
</event>
<event>
 4    1  0.4676529E-002  0.5231348E+03  0.7818608E-02  0.1007911E+00
         21   -1    0    0  503  502  0.00000000000E+00  0.00000000000E+00  0.25218519175E+04  0.25218519175E+04  0.00000000000E+00 0.  1.
         21   -1    0    0  501  503 -0.00000000000E+00 -0.00000000000E+00 -0.10940697608E+03  0.10940697608E+03  0.00000000000E+00 0. -1.
    9000007    1    1    2  501    0  0.32467723838E+03 -0.90855461679E+02  0.10877281150E+04  0.12069890124E+04  0.40000000000E+03 0. -1.
   -9000007    1    1    2    0  502 -0.32467723838E+03  0.90855461679E+02  0.13247168265E+04  0.14242698812E+04  0.40000000000E+03 0. -1.
<mgrwt>
<rscale>  2 0.52313480E+03</rscale>
<asrwt>0</asrwt>
<pdfrwt beam="1">  1       21 0.38797717E+00 0.52313480E+03</pdfrwt>
<pdfrwt beam="2">  1       21 0.16831844E-01 0.52313480E+03</pdfrwt>
<totfact> 0.24132187E+02</totfact>
</mgrwt>
</event>
<event>
 4    1  0.4676529E-002  0.4530483E+03  0.7818608E-02  0.1026817E+00
         21   -1    0    0  503  502  0.00000000000E+00  0.00000000000E+00  0.18137969205E+03  0.18137969205E+03  0.00000000000E+00 0. -1.
         21   -1    0    0  501  503 -0.00000000000E+00 -0.00000000000E+00 -0.12380348863E+04  0.12380348863E+04  0.00000000000E+00 0. -1.
    9000007    1    1    2  501    0 -0.21233214894E+03 -0.12955513514E+02 -0.32025487658E+03  0.55481165523E+03  0.40000000000E+03 0. -1.
   -9000007    1    1    2    0  502  0.21233214894E+03  0.12955513514E+02 -0.73640031771E+03  0.86460292315E+03  0.40000000000E+03 0. -1.
<mgrwt>
<rscale>  2 0.45304833E+03</rscale>
<asrwt>0</asrwt>
<pdfrwt beam="1">  1       21 0.27904567E-01 0.45304833E+03</pdfrwt>
<pdfrwt beam="2">  1       21 0.19046691E+00 0.45304833E+03</pdfrwt>
<totfact> 0.16015318E+03</totfact>
</mgrwt>
</event>
<event>
 4    1  0.4676529E-002  0.4883352E+03  0.7818608E-02  0.1016869E+00
         21   -1    0    0  501  502  0.00000000000E+00  0.00000000000E+00  0.12350192326E+04  0.12350192326E+04  0.00000000000E+00 0.  1.
         21   -1    0    0  502  503 -0.00000000000E+00 -0.00000000000E+00 -0.35160036467E+03  0.35160036467E+03  0.00000000000E+00 0. -1.
    9000007    1    1    2  501    0 -0.48687826937E+02 -0.27586367114E+03  0.97436372890E+03  0.10898880428E+04  0.40000000000E+03 0.  1.
   -9000007    1    1    2    0  503  0.48687826937E+02  0.27586367114E+03 -0.90944860941E+02  0.49673155455E+03  0.40000000000E+03 0. -1.
<mgrwt>
<rscale>  2 0.48833520E+03</rscale>
<asrwt>0</asrwt>
<pdfrwt beam="1">  1       21 0.19000296E+00 0.48833520E+03</pdfrwt>
<pdfrwt beam="2">  1       21 0.54092364E-01 0.48833520E+03</pdfrwt>
<totfact> 0.40692226E+02</totfact>
</mgrwt>
</event>
<event>
 4    1  0.4676529E-002  0.5024220E+03  0.7818608E-02  0.1013149E+00
         21   -1    0    0  501  502  0.00000000000E+00  0.00000000000E+00  0.35687296947E+03  0.35687296947E+03  0.00000000000E+00 0.  1.
         21   -1    0    0  502  503 -0.00000000000E+00 -0.00000000000E+00 -0.70927434152E+03  0.70927434152E+03  0.00000000000E+00 0. -1.
    9000007    1    1    2  501    0 -0.11425463974E+02  0.30380474499E+03 -0.14830850953E+03  0.52385425292E+03  0.40000000000E+03 0. -1.
   -9000007    1    1    2    0  503  0.11425463974E+02 -0.30380474499E+03 -0.20409286253E+03  0.54229305808E+03  0.40000000000E+03 0. -1.
<mgrwt>
<rscale>  2 0.50242200E+03</rscale>
<asrwt>0</asrwt>
<pdfrwt beam="1">  1       21 0.54903534E-01 0.50242200E+03</pdfrwt>
<pdfrwt beam="2">  1       21 0.10911913E+00 0.50242200E+03</pdfrwt>
<totfact> 0.17586237E+03</totfact>
</mgrwt>
</event>
<event>
 4    1  0.4676529E-002  0.5222098E+03  0.7818608E-02  0.1008139E+00
         21   -1    0    0  501  502  0.00000000000E+00  0.00000000000E+00  0.41965384712E+03  0.41965384712E+03  0.00000000000E+00 0. -1.
         21   -1    0    0  502  503 -0.00000000000E+00 -0.00000000000E+00 -0.71473989900E+03  0.71473989900E+03  0.00000000000E+00 0. -1.
    9000007    1    1    2  501    0  0.33431381706E+03 -0.30615818415E+02  0.23387680364E+02  0.52273324000E+03  0.40000000000E+03 0. -1.
   -9000007    1    1    2    0  503 -0.33431381706E+03  0.30615818415E+02 -0.31847373225E+03  0.61166050612E+03  0.40000000000E+03 0. -1.
<mgrwt>
<rscale>  2 0.52220978E+03</rscale>
<asrwt>0</asrwt>
<pdfrwt beam="1">  1       21 0.64562131E-01 0.52220978E+03</pdfrwt>
<pdfrwt beam="2">  1       21 0.10995998E+00 0.52220978E+03</pdfrwt>
<totfact> 0.12007776E+03</totfact>
</mgrwt>
</event>
<event>
 4    1  0.4676529E-002  0.4845741E+03  0.7818608E-02  0.1017886E+00
         21   -1    0    0  501  502  0.00000000000E+00  0.00000000000E+00  0.20352046375E+03  0.20352046375E+03  0.00000000000E+00 0. -1.
         21   -1    0    0  502  503 -0.00000000000E+00 -0.00000000000E+00 -0.11722511224E+04  0.11722511224E+04  0.00000000000E+00 0. -1.
    9000007    1    1    2  501    0  0.24124573217E+03  0.12888961419E+03 -0.39795061518E+03  0.62703805949E+03  0.40000000000E+03 0. -1.
   -9000007    1    1    2    0  503 -0.24124573217E+03 -0.12888961419E+03 -0.57078004349E+03  0.74873352668E+03  0.40000000000E+03 0. -1.
<mgrwt>
<rscale>  2 0.48457408E+03</rscale>
<asrwt>0</asrwt>
<pdfrwt beam="1">  1       21 0.31310841E-01 0.48457408E+03</pdfrwt>
<pdfrwt beam="2">  1       21 0.18034632E+00 0.48457408E+03</pdfrwt>
<totfact> 0.14784936E+03</totfact>
</mgrwt>
</event>
<event>
 4    1  0.4676529E-002  0.4571981E+03  0.7818608E-02  0.1025597E+00
         21   -1    0    0  501  502  0.00000000000E+00  0.00000000000E+00  0.12671917719E+04  0.12671917719E+04  0.00000000000E+00 0.  1.
         21   -1    0    0  502  503 -0.00000000000E+00 -0.00000000000E+00 -0.18361214261E+03  0.18361214261E+03  0.00000000000E+00 0.  1.
    9000007    1    1    2  501    0 -0.21438547487E+03  0.55398692360E+02  0.77302064447E+03  0.89810414971E+03  0.40000000000E+03 0.  1.
   -9000007    1    1    2    0  503  0.21438547487E+03 -0.55398692360E+02  0.31055898480E+03  0.55269976478E+03  0.40000000000E+03 0.  1.
<mgrwt>
<rscale>  2 0.45719815E+03</rscale>
<asrwt>0</asrwt>
<pdfrwt beam="1">  1       21 0.19495257E+00 0.45719815E+03</pdfrwt>
<pdfrwt beam="2">  1       21 0.28248023E-01 0.45719815E+03</pdfrwt>
<totfact> 0.14547262E+03</totfact>
</mgrwt>
</event>
<event>
 4    1  0.4676529E-002  0.4318794E+03  0.7818608E-02  0.1033268E+00
         21   -1    0    0  503  502  0.00000000000E+00  0.00000000000E+00  0.24236936502E+04  0.24236936502E+04  0.00000000000E+00 0. -1.
         21   -1    0    0  501  503 -0.00000000000E+00 -0.00000000000E+00 -0.15008115229E+03  0.15008115229E+03  0.00000000000E+00 0. -1.
    9000007    1    1    2  501    0 -0.15024653182E+03  0.62815772642E+02  0.23853329612E+03  0.49337407205E+03  0.40000000000E+03 0. -1.
   -9000007    1    1    2    0  502  0.15024653182E+03 -0.62815772642E+02  0.20350792018E+04  0.20804007305E+04  0.40000000000E+03 0. -1.
<mgrwt>
<rscale>  2 0.43187943E+03</rscale>
<asrwt>0</asrwt>
<pdfrwt beam="1">  1       21 0.37287592E+00 0.43187943E+03</pdfrwt>
<pdfrwt beam="2">  1       21 0.23089410E-01 0.43187943E+03</pdfrwt>
<totfact> 0.17427720E+02</totfact>
</mgrwt>
</event>
<event>
 4    1  0.4676529E-002  0.4451814E+03  0.7818608E-02  0.1029169E+00
         21   -1    0    0  503  502  0.00000000000E+00  0.00000000000E+00  0.84603118400E+02  0.84603118400E+02  0.00000000000E+00 0.  1.
         21   -1    0    0  501  503 -0.00000000000E+00 -0.00000000000E+00 -0.26158882945E+04  0.26158882945E+04  0.00000000000E+00 0.  1.
    9000007    1    1    2  501    0 -0.55861721230E+01  0.19533370589E+03 -0.82916813583E+03  0.94111968392E+03  0.40000000000E+03 0.  1.
   -9000007    1    1    2    0  502  0.55861721230E+01 -0.19533370589E+03 -0.17021170403E+04  0.17593717290E+04  0.40000000000E+03 0.  1.
<mgrwt>
<rscale>  2 0.44518138E+03</rscale>
<asrwt>0</asrwt>
<pdfrwt beam="1">  1       21 0.13015865E-01 0.44518138E+03</pdfrwt>
<pdfrwt beam="2">  1       21 0.40244434E+00 0.44518138E+03</pdfrwt>
<totfact> 0.32942171E+02</totfact>
</mgrwt>
</event>
<event>
 4    1  0.4676529E-002  0.4931245E+03  0.7818608E-02  0.1015589E+00
         21   -1    0    0  501  502  0.00000000000E+00  0.00000000000E+00  0.11577591916E+04  0.11577591916E+04  0.00000000000E+00 0. -1.
         21   -1    0    0  502  503 -0.00000000000E+00 -0.00000000000E+00 -0.23503392398E+03  0.23503392398E+03  0.00000000000E+00 0. -1.
    9000007    1    1    2  501    0 -0.25340524778E+03 -0.13768634415E+03  0.68847381407E+03  0.84685768676E+03  0.40000000000E+03 0. -1.
   -9000007    1    1    2    0  503  0.25340524778E+03  0.13768634415E+03  0.23425145357E+03  0.54593542885E+03  0.40000000000E+03 0. -1.
<mgrwt>
<rscale>  2 0.49312448E+03</rscale>
<asrwt>0</asrwt>
<pdfrwt beam="1">  1       21 0.17811680E+00 0.49312448E+03</pdfrwt>
<pdfrwt beam="2">  1       21 0.36159066E-01 0.49312448E+03</pdfrwt>
<totfact> 0.11428425E+03</totfact>
</mgrwt>
</event>
<event>
 4    1  0.4676529E-002  0.4349593E+03  0.7818608E-02  0.1032305E+00
         21   -1    0    0  501  502  0.00000000000E+00  0.00000000000E+00  0.42285980816E+03  0.42285980816E+03  0.00000000000E+00 0.  1.
         21   -1    0    0  502  503 -0.00000000000E+00 -0.00000000000E+00 -0.52472377310E+03  0.52472377310E+03  0.00000000000E+00 0.  1.
    9000007    1    1    2  501    0 -0.29870561478E+02  0.16821804462E+03  0.13093960067E+03  0.45424083920E+03  0.40000000000E+03 0.  1.
   -9000007    1    1    2    0  503  0.29870561478E+02 -0.16821804462E+03 -0.23280356560E+03  0.49334274205E+03  0.40000000000E+03 0.  1.
<mgrwt>
<rscale>  2 0.43495926E+03</rscale>
<asrwt>0</asrwt>
<pdfrwt beam="1">  1       21 0.65055355E-01 0.43495926E+03</pdfrwt>
<pdfrwt beam="2">  1       21 0.80726734E-01 0.43495926E+03</pdfrwt>
<totfact> 0.25579825E+03</totfact>
</mgrwt>
</event>
<event>
 4    1  0.4676529E-002  0.5856006E+03  0.7818608E-02  0.9935739E-01
         21   -1    0    0  503  502  0.00000000000E+00  0.00000000000E+00  0.46696672936E+03  0.46696672936E+03  0.00000000000E+00 0. -1.
         21   -1    0    0  501  503 -0.00000000000E+00 -0.00000000000E+00 -0.12309548074E+04  0.12309548074E+04  0.00000000000E+00 0.  1.
    9000007    1    1    2  501    0  0.41982876610E+03  0.81681272661E+02 -0.92120873613E+03  0.10915830517E+04  0.40000000000E+03 0.  1.
   -9000007    1    1    2    0  502 -0.41982876610E+03 -0.81681272661E+02  0.15722065811E+03  0.60633848508E+03  0.40000000000E+03 0. -1.
<mgrwt>
<rscale>  2 0.58560057E+03</rscale>
<asrwt>0</asrwt>
<pdfrwt beam="1">  1       21 0.71841036E-01 0.58560057E+03</pdfrwt>
<pdfrwt beam="2">  1       21 0.18937766E+00 0.58560057E+03</pdfrwt>
<totfact> 0.21036238E+02</totfact>
</mgrwt>
</event>
<event>
 4    1  0.4676529E-002  0.4764622E+03  0.7818608E-02  0.1020112E+00
         21   -1    0    0  503  502  0.00000000000E+00  0.00000000000E+00  0.80893210249E+03  0.80893210249E+03  0.00000000000E+00 0. -1.
         21   -1    0    0  501  503 -0.00000000000E+00 -0.00000000000E+00 -0.36958133140E+03  0.36958133140E+03  0.00000000000E+00 0. -1.
    9000007    1    1    2  501    0  0.25527408520E+03  0.43027001168E+02  0.50874933714E+03  0.69702372229E+03  0.40000000000E+03 0. -1.
   -9000007    1    1    2    0  502 -0.25527408520E+03 -0.43027001168E+02 -0.69398566051E+02  0.48148971160E+03  0.40000000000E+03 0. -1.
<mgrwt>
<rscale>  2 0.47646215E+03</rscale>
<asrwt>0</asrwt>
<pdfrwt beam="1">  1       21 0.12445109E+00 0.47646215E+03</pdfrwt>
<pdfrwt beam="2">  1       21 0.56858667E-01 0.47646215E+03</pdfrwt>
<totfact> 0.11809202E+03</totfact>
</mgrwt>
</event>
<event>
 4    1  0.4676529E-002  0.4442976E+03  0.7818608E-02  0.1029436E+00
         21   -1    0    0  503  502  0.00000000000E+00  0.00000000000E+00  0.35210673133E+04  0.35210673133E+04  0.00000000000E+00 0. -1.
         21   -1    0    0  501  503 -0.00000000000E+00 -0.00000000000E+00 -0.10754428573E+03  0.10754428573E+03  0.00000000000E+00 0. -1.
    9000007    1    1    2  501    0 -0.13625398181E+03  0.13724142872E+03  0.45147461490E+03  0.63342693755E+03  0.40000000000E+03 0. -1.
   -9000007    1    1    2    0  502  0.13625398181E+03 -0.13724142872E+03  0.29620484127E+04  0.29951846615E+04  0.40000000000E+03 0. -1.
<mgrwt>
<rscale>  2 0.44429760E+03</rscale>
<asrwt>0</asrwt>
<pdfrwt beam="1">  1       21 0.54170258E+00 0.44429760E+03</pdfrwt>
<pdfrwt beam="2">  1       21 0.16545277E-01 0.44429760E+03</pdfrwt>
<totfact> 0.22910074E+01</totfact>
</mgrwt>
</event>
<event>
 4    1  0.4676529E-002  0.4547428E+03  0.7818608E-02  0.1026317E+00
         21   -1    0    0  501  502  0.00000000000E+00  0.00000000000E+00  0.13492697342E+04  0.13492697342E+04  0.00000000000E+00 0.  1.
         21   -1    0    0  502  503 -0.00000000000E+00 -0.00000000000E+00 -0.15866133941E+03  0.15866133941E+03  0.00000000000E+00 0.  1.
    9000007    1    1    2  501    0 -0.21273371113E+03  0.39184291795E+02  0.45621025065E+03  0.64414193574E+03  0.40000000000E+03 0.  1.
   -9000007    1    1    2    0  503  0.21273371113E+03 -0.39184291795E+02  0.73439814411E+03  0.86378913784E+03  0.40000000000E+03 0.  1.
<mgrwt>
<rscale>  2 0.45474283E+03</rscale>
<asrwt>0</asrwt>
<pdfrwt beam="1">  1       21 0.20757995E+00 0.45474283E+03</pdfrwt>
<pdfrwt beam="2">  1       21 0.24409438E-01 0.45474283E+03</pdfrwt>
<totfact> 0.15971738E+03</totfact>
</mgrwt>
</event>
<event>
 4    1  0.4676529E-002  0.5577678E+03  0.7818608E-02  0.9997118E-01
         21   -1    0    0  501  502  0.00000000000E+00  0.00000000000E+00  0.22016174436E+03  0.22016174436E+03  0.00000000000E+00 0.  1.
         21   -1    0    0  502  503 -0.00000000000E+00 -0.00000000000E+00 -0.15043752142E+04  0.15043752142E+04  0.00000000000E+00 0.  1.
    9000007    1    1    2  501    0  0.24773566938E+03 -0.29955298293E+03 -0.42968377153E+03  0.70408315914E+03  0.40000000000E+03 0.  1.
   -9000007    1    1    2    0  503 -0.24773566938E+03  0.29955298293E+03 -0.85452969832E+03  0.10204537994E+04  0.40000000000E+03 0.  1.
<mgrwt>
<rscale>  2 0.55776783E+03</rscale>
<asrwt>0</asrwt>
<pdfrwt beam="1">  1       21 0.33871038E-01 0.55776783E+03</pdfrwt>
<pdfrwt beam="2">  1       21 0.23144234E+00 0.55776783E+03</pdfrwt>
<totfact> 0.56097086E+02</totfact>
</mgrwt>
</event>
<event>
 4    1  0.4676529E-002  0.4570926E+03  0.7818608E-02  0.1025628E+00
         21   -1    0    0  501  502  0.00000000000E+00  0.00000000000E+00  0.15371809567E+04  0.15371809567E+04  0.00000000000E+00 0. -1.
         21   -1    0    0  502  503 -0.00000000000E+00 -0.00000000000E+00 -0.35157999867E+03  0.35157999867E+03  0.00000000000E+00 0. -1.
    9000007    1    1    2  501    0  0.13370122761E+03 -0.17623176503E+03  0.13324393180E+04  0.14086618435E+04  0.40000000000E+03 0. -1.
   -9000007    1    1    2    0  503 -0.13370122761E+03  0.17623176503E+03 -0.14683835993E+03  0.48009911187E+03  0.40000000000E+03 0. -1.
<mgrwt>
<rscale>  2 0.45709261E+03</rscale>
<asrwt>0</asrwt>
<pdfrwt beam="1">  1       21 0.23648937E+00 0.45709261E+03</pdfrwt>
<pdfrwt beam="2">  1       21 0.54089231E-01 0.45709261E+03</pdfrwt>
<totfact> 0.20592468E+02</totfact>
</mgrwt>
</event>
<event>
 4    1  0.4676529E-002  0.4143688E+03  0.7818608E-02  0.1038915E+00
         21   -1    0    0  501  502  0.00000000000E+00  0.00000000000E+00  0.21316521451E+03  0.21316521451E+03  0.00000000000E+00 0.  1.
         21   -1    0    0  502  503 -0.00000000000E+00 -0.00000000000E+00 -0.83141536364E+03  0.83141536364E+03  0.00000000000E+00 0.  1.
    9000007    1    1    2  501    0 -0.99332837108E+02 -0.42831190674E+02 -0.21688880969E+03  0.46769891938E+03  0.40000000000E+03 0.  1.
   -9000007    1    1    2    0  503  0.99332837108E+02  0.42831190674E+02 -0.40136133943E+03  0.57688165876E+03  0.40000000000E+03 0.  1.
<mgrwt>
<rscale>  2 0.41436883E+03</rscale>
<asrwt>0</asrwt>
<pdfrwt beam="1">  1       21 0.32794648E-01 0.41436883E+03</pdfrwt>
<pdfrwt beam="2">  1       21 0.12791006E+00 0.41436883E+03</pdfrwt>
<totfact> 0.35485959E+03</totfact>
</mgrwt>
</event>
<event>
 4    1  0.4676529E-002  0.4056193E+03  0.7818608E-02  0.1041851E+00
         21   -1    0    0  503  502  0.00000000000E+00  0.00000000000E+00  0.46713384766E+03  0.46713384766E+03  0.00000000000E+00 0. -1.
         21   -1    0    0  501  503 -0.00000000000E+00 -0.00000000000E+00 -0.53481723257E+03  0.53481723257E+03  0.00000000000E+00 0. -1.
    9000007    1    1    2  501    0 -0.67076334558E+02  0.52692419345E+01 -0.32657925105E+03  0.52075042658E+03  0.40000000000E+03 0. -1.
   -9000007    1    1    2    0  502  0.67076334558E+02 -0.52692419345E+01  0.25889586615E+03  0.48120065365E+03  0.40000000000E+03 0. -1.
<mgrwt>
<rscale>  2 0.40561928E+03</rscale>
<asrwt>0</asrwt>
<pdfrwt beam="1">  1       21 0.71866746E-01 0.40561928E+03</pdfrwt>
<pdfrwt beam="2">  1       21 0.82279574E-01 0.40561928E+03</pdfrwt>
<totfact> 0.19813165E+03</totfact>
</mgrwt>
</event>
<event>
 4    1  0.4676529E-002  0.5517608E+03  0.7818608E-02  0.1001087E+00
         21   -1    0    0  501  502  0.00000000000E+00  0.00000000000E+00  0.15775449779E+04  0.15775449779E+04  0.00000000000E+00 0. -1.
         21   -1    0    0  502  503 -0.00000000000E+00 -0.00000000000E+00 -0.24497075679E+03  0.24497075679E+03  0.00000000000E+00 0. -1.
    9000007    1    1    2  501    0  0.37932839860E+03 -0.23450407490E+02  0.10860781243E+04  0.12181977047E+04  0.40000000000E+03 0. -1.
   -9000007    1    1    2    0  503 -0.37932839860E+03  0.23450407490E+02  0.24649609674E+03  0.60431802993E+03  0.40000000000E+03 0. -1.
<mgrwt>
<rscale>  2 0.55176078E+03</rscale>
<asrwt>0</asrwt>
<pdfrwt beam="1">  1       21 0.24269922E+00 0.55176078E+03</pdfrwt>
<pdfrwt beam="2">  1       21 0.37687810E-01 0.55176078E+03</pdfrwt>
<totfact> 0.38433306E+02</totfact>
</mgrwt>
</event>
<event>
 4    1  0.4676529E-002  0.4736922E+03  0.7818608E-02  0.1020883E+00
         21   -1    0    0  503  502  0.00000000000E+00  0.00000000000E+00  0.79336763124E+03  0.79336763124E+03  0.00000000000E+00 0.  1.
         21   -1    0    0  501  503 -0.00000000000E+00 -0.00000000000E+00 -0.34375709742E+03  0.34375709742E+03  0.00000000000E+00 0. -1.
    9000007    1    1    2  501    0  0.20518756030E+03  0.14927292216E+03 -0.14567481986E+02  0.47391618639E+03  0.40000000000E+03 0. -1.
   -9000007    1    1    2    0  502 -0.20518756030E+03 -0.14927292216E+03  0.46417801580E+03  0.66320854228E+03  0.40000000000E+03 0.  1.
<mgrwt>
<rscale>  2 0.47369224E+03</rscale>
<asrwt>0</asrwt>
<pdfrwt beam="1">  1       21 0.12205656E+00 0.47369224E+03</pdfrwt>
<pdfrwt beam="2">  1       21 0.52885708E-01 0.47369224E+03</pdfrwt>
<totfact> 0.14531471E+03</totfact>
</mgrwt>
</event>
<event>
 4    1  0.4676529E-002  0.5589924E+03  0.7818608E-02  0.9994337E-01
         21   -1    0    0  503  502  0.00000000000E+00  0.00000000000E+00  0.22997661414E+03  0.22997661414E+03  0.00000000000E+00 0.  1.
         21   -1    0    0  501  503 -0.00000000000E+00 -0.00000000000E+00 -0.19814932213E+04  0.19814932213E+04  0.00000000000E+00 0.  1.
    9000007    1    1    2  501    0  0.23947280782E+03 -0.30842394470E+03 -0.14956582789E+04  0.15967048076E+04  0.40000000000E+03 0.  1.
   -9000007    1    1    2    0  502 -0.23947280782E+03  0.30842394470E+03 -0.25585832829E+03  0.61476502788E+03  0.40000000000E+03 0.  1.
<mgrwt>
<rscale>  2 0.55899245E+03</rscale>
<asrwt>0</asrwt>
<pdfrwt beam="1">  1       21 0.35381017E-01 0.55899245E+03</pdfrwt>
<pdfrwt beam="2">  1       21 0.30484511E+00 0.55899245E+03</pdfrwt>
<totfact> 0.18154335E+02</totfact>
</mgrwt>
</event>
<event>
 4    1  0.4676529E-002  0.4582119E+03  0.7818608E-02  0.1025301E+00
         21   -1    0    0  503  502  0.00000000000E+00  0.00000000000E+00  0.10576180371E+03  0.10576180371E+03  0.00000000000E+00 0.  1.
         21   -1    0    0  501  503 -0.00000000000E+00 -0.00000000000E+00 -0.19863955104E+04  0.19863955104E+04  0.00000000000E+00 0. -1.
    9000007    1    1    2  501    0 -0.48864078567E+02 -0.21810653927E+03 -0.91463635288E+03  0.10229945350E+04  0.40000000000E+03 0. -1.
   -9000007    1    1    2    0  502  0.48864078567E+02  0.21810653927E+03 -0.96599735385E+03  0.10691627791E+04  0.40000000000E+03 0.  1.
<mgrwt>
<rscale>  2 0.45821192E+03</rscale>
<asrwt>0</asrwt>
<pdfrwt beam="1">  1       21 0.16271047E-01 0.45821192E+03</pdfrwt>
<pdfrwt beam="2">  1       21 0.30559931E+00 0.45821192E+03</pdfrwt>
<totfact> 0.85753071E+02</totfact>
</mgrwt>
</event>
<event>
 4    1  0.4676529E-002  0.4489827E+03  0.7818608E-02  0.1028026E+00
         21   -1    0    0  503  502  0.00000000000E+00  0.00000000000E+00  0.15740183416E+04  0.15740183416E+04  0.00000000000E+00 0.  1.
         21   -1    0    0  501  503 -0.00000000000E+00 -0.00000000000E+00 -0.12836869753E+03  0.12836869753E+03  0.00000000000E+00 0.  1.
    9000007    1    1    2  501    0 -0.20314962257E+03  0.17766573295E+02  0.76384547060E+03  0.88602783434E+03  0.40000000000E+03 0. -1.
   -9000007    1    1    2    0  502  0.20314962257E+03 -0.17766573295E+02  0.68180417346E+03  0.81635920478E+03  0.40000000000E+03 0. -1.
<mgrwt>
<rscale>  2 0.44898265E+03</rscale>
<asrwt>0</asrwt>
<pdfrwt beam="1">  1       21 0.24215665E+00 0.44898265E+03</pdfrwt>
<pdfrwt beam="2">  1       21 0.19749032E-01 0.44898265E+03</pdfrwt>
<totfact> 0.14505824E+03</totfact>
</mgrwt>
</event>
<event>
 4    1  0.4676529E-002  0.4511052E+03  0.7818608E-02  0.1027393E+00
         21   -1    0    0  501  502  0.00000000000E+00  0.00000000000E+00  0.22468098156E+04  0.22468098156E+04  0.00000000000E+00 0.  1.
         21   -1    0    0  502  503 -0.00000000000E+00 -0.00000000000E+00 -0.12154440190E+03  0.12154440190E+03  0.00000000000E+00 0. -1.
    9000007    1    1    2  501    0 -0.10198001332E+03  0.18192292289E+03  0.16604155470E+04  0.17206032842E+04  0.40000000000E+03 0. -1.
   -9000007    1    1    2    0  503  0.10198001332E+03 -0.18192292289E+03  0.46484986673E+03  0.64775093330E+03  0.40000000000E+03 0. -1.
<mgrwt>
<rscale>  2 0.45110517E+03</rscale>
<asrwt>0</asrwt>
<pdfrwt beam="1">  1       21 0.34566302E+00 0.45110517E+03</pdfrwt>
<pdfrwt beam="2">  1       21 0.18699140E-01 0.45110517E+03</pdfrwt>
<totfact> 0.37914663E+02</totfact>
</mgrwt>
</event>
<event>
 4    1  0.4676529E-002  0.5700044E+03  0.7818608E-02  0.9969669E-01
         21   -1    0    0  503  502  0.00000000000E+00  0.00000000000E+00  0.49178317115E+03  0.49178317115E+03  0.00000000000E+00 0.  1.
         21   -1    0    0  501  503 -0.00000000000E+00 -0.00000000000E+00 -0.66655670548E+03  0.66655670548E+03  0.00000000000E+00 0.  1.
    9000007    1    1    2  501    0 -0.38350718585E+03  0.13351860523E+03 -0.14182815800E+03  0.58738420641E+03  0.40000000000E+03 0.  1.
   -9000007    1    1    2    0  502  0.38350718585E+03 -0.13351860523E+03 -0.32945376325E+02  0.57095567022E+03  0.40000000000E+03 0.  1.
<mgrwt>
<rscale>  2 0.57000437E+03</rscale>
<asrwt>0</asrwt>
<pdfrwt beam="1">  1       21 0.75658950E-01 0.57000437E+03</pdfrwt>
<pdfrwt beam="2">  1       21 0.10254719E+00 0.57000437E+03</pdfrwt>
<totfact> 0.98154859E+02</totfact>
</mgrwt>
</event>
<event>
 4    1  0.4676529E-002  0.4021832E+03  0.7818608E-02  0.1043026E+00
         21   -1    0    0  503  502  0.00000000000E+00  0.00000000000E+00  0.15925496417E+03  0.15925496417E+03  0.00000000000E+00 0.  1.
         21   -1    0    0  501  503 -0.00000000000E+00 -0.00000000000E+00 -0.10636944155E+04  0.10636944155E+04  0.00000000000E+00 0.  1.
    9000007    1    1    2  501    0 -0.10187454169E+02 -0.40589611243E+02 -0.32229911483E+03  0.51539113320E+03  0.40000000000E+03 0.  1.
   -9000007    1    1    2    0  502  0.10187454169E+02  0.40589611243E+02 -0.58214033656E+03  0.70755824651E+03  0.40000000000E+03 0.  1.
<mgrwt>
<rscale>  2 0.40218317E+03</rscale>
<asrwt>0</asrwt>
<pdfrwt beam="1">  1       21 0.24500764E-01 0.40218317E+03</pdfrwt>
<pdfrwt beam="2">  1       21 0.16364529E+00 0.40218317E+03</pdfrwt>
<totfact> 0.32730729E+03</totfact>
</mgrwt>
</event>
<event>
 4    1  0.4676529E-002  0.4109995E+03  0.7818608E-02  0.1040036E+00
         21   -1    0    0  501  502  0.00000000000E+00  0.00000000000E+00  0.18972954911E+03  0.18972954911E+03  0.00000000000E+00 0. -1.
         21   -1    0    0  502  503 -0.00000000000E+00 -0.00000000000E+00 -0.10906723357E+04  0.10906723357E+04  0.00000000000E+00 0. -1.
    9000007    1    1    2  501    0 -0.90097218964E+02  0.28338232178E+02 -0.17608459556E+03  0.44713124367E+03  0.40000000000E+03 0. -1.
   -9000007    1    1    2    0  503  0.90097218964E+02 -0.28338232178E+02 -0.72485819099E+03  0.83327064109E+03  0.40000000000E+03 0. -1.
<mgrwt>
<rscale>  2 0.41099947E+03</rscale>
<asrwt>0</asrwt>
<pdfrwt beam="1">  1       21 0.29189162E-01 0.41099947E+03</pdfrwt>
<pdfrwt beam="2">  1       21 0.16779574E+00 0.41099947E+03</pdfrwt>
<totfact> 0.21573251E+03</totfact>
</mgrwt>
</event>
<event>
 4    1  0.4676529E-002  0.8379608E+03  0.7818608E-02  0.9506640E-01
         21   -1    0    0  501  502  0.00000000000E+00  0.00000000000E+00  0.24022459352E+04  0.24022459352E+04  0.00000000000E+00 0.  1.
         21   -1    0    0  502  503 -0.00000000000E+00 -0.00000000000E+00 -0.29233779185E+03  0.29233779185E+03  0.00000000000E+00 0. -1.
    9000007    1    1    2  501    0  0.15631511768E+03 -0.71954421410E+03  0.10397885632E+04  0.13354169941E+04  0.40000000000E+03 0. -1.
   -9000007    1    1    2    0  503 -0.15631511768E+03  0.71954421410E+03  0.10701195802E+04  0.13591667330E+04  0.40000000000E+03 0.  1.
<mgrwt>
<rscale>  2 0.83796079E+03</rscale>
<asrwt>0</asrwt>
<pdfrwt beam="1">  1       21 0.36957628E+00 0.83796079E+03</pdfrwt>
<pdfrwt beam="2">  1       21 0.44975047E-01 0.83796079E+03</pdfrwt>
<totfact> 0.38935998E+01</totfact>
</mgrwt>
</event>
<event>
 4    1  0.4676529E-002  0.4940185E+03  0.7818608E-02  0.1015352E+00
         21   -1    0    0  501  502  0.00000000000E+00  0.00000000000E+00  0.12487001127E+04  0.12487001127E+04  0.00000000000E+00 0.  1.
         21   -1    0    0  502  503 -0.00000000000E+00 -0.00000000000E+00 -0.24064961641E+03  0.24064961641E+03  0.00000000000E+00 0.  1.
    9000007    1    1    2  501    0 -0.65305854932E+02 -0.28247017615E+03  0.82676879798E+03  0.96312039767E+03  0.40000000000E+03 0.  1.
   -9000007    1    1    2    0  503  0.65305854932E+02  0.28247017615E+03  0.18128169828E+03  0.52622933141E+03  0.40000000000E+03 0.  1.
<mgrwt>
<rscale>  2 0.49401848E+03</rscale>
<asrwt>0</asrwt>
<pdfrwt beam="1">  1       21 0.19210771E+00 0.49401848E+03</pdfrwt>
<pdfrwt beam="2">  1       21 0.37023019E-01 0.49401848E+03</pdfrwt>
<totfact> 0.86989459E+02</totfact>
</mgrwt>
</event>
<event>
 4    1  0.4676529E-002  0.4147220E+03  0.7818608E-02  0.1038798E+00
         21   -1    0    0  503  502  0.00000000000E+00  0.00000000000E+00  0.27831609058E+03  0.27831609058E+03  0.00000000000E+00 0. -1.
         21   -1    0    0  501  503 -0.00000000000E+00 -0.00000000000E+00 -0.75769790836E+03  0.75769790836E+03  0.00000000000E+00 0. -1.
    9000007    1    1    2  501    0  0.16631698318E+02 -0.10824829977E+03 -0.46212976918E+03  0.62093335500E+03  0.40000000000E+03 0. -1.
   -9000007    1    1    2    0  502 -0.16631698318E+02  0.10824829977E+03 -0.17252048604E+02  0.41508064394E+03  0.40000000000E+03 0. -1.
<mgrwt>
<rscale>  2 0.41472196E+03</rscale>
<asrwt>0</asrwt>
<pdfrwt beam="1">  1       21 0.42817860E-01 0.41472196E+03</pdfrwt>
<pdfrwt beam="2">  1       21 0.11656891E+00 0.41472196E+03</pdfrwt>
<totfact> 0.26096489E+03</totfact>
</mgrwt>
</event>
<event>
 4    1  0.4676529E-002  0.4324546E+03  0.7818608E-02  0.1033087E+00
         21   -1    0    0  501  502  0.00000000000E+00  0.00000000000E+00  0.39539198247E+03  0.39539198247E+03  0.00000000000E+00 0. -1.
         21   -1    0    0  502  503 -0.00000000000E+00 -0.00000000000E+00 -0.47886641619E+03  0.47886641619E+03  0.00000000000E+00 0.  1.
    9000007    1    1    2  501    0  0.16388993021E+02  0.16354930474E+03 -0.90155597627E+02  0.44175219972E+03  0.40000000000E+03 0. -1.
   -9000007    1    1    2    0  503 -0.16388993021E+02 -0.16354930474E+03  0.66811639004E+01  0.43250619894E+03  0.40000000000E+03 0. -1.
<mgrwt>
<rscale>  2 0.43245459E+03</rscale>
<asrwt>0</asrwt>
<pdfrwt beam="1">  1       21 0.60829535E-01 0.43245459E+03</pdfrwt>
<pdfrwt beam="2">  1       21 0.73671757E-01 0.43245459E+03</pdfrwt>
<totfact> 0.36619142E+03</totfact>
</mgrwt>
</event>
<event>
 4    1  0.4676529E-002  0.4324061E+03  0.7818608E-02  0.1033103E+00
         21   -1    0    0  501  502  0.00000000000E+00  0.00000000000E+00  0.46802897929E+03  0.46802897929E+03  0.00000000000E+00 0. -1.
         21   -1    0    0  502  503 -0.00000000000E+00 -0.00000000000E+00 -0.48880018024E+03  0.48880018024E+03  0.00000000000E+00 0. -1.
    9000007    1    1    2  501    0 -0.13577737793E+03  0.92409516257E+02  0.19410728680E+03  0.47397537261E+03  0.40000000000E+03 0. -1.
   -9000007    1    1    2    0  503  0.13577737793E+03 -0.92409516257E+02 -0.21487848775E+03  0.48285378692E+03  0.40000000000E+03 0. -1.
<mgrwt>
<rscale>  2 0.43240608E+03</rscale>
<asrwt>0</asrwt>
<pdfrwt beam="1">  1       21 0.72004458E-01 0.43240608E+03</pdfrwt>
<pdfrwt beam="2">  1       21 0.75200028E-01 0.43240608E+03</pdfrwt>
<totfact> 0.24002821E+03</totfact>
</mgrwt>
</event>
<event>
 4    1  0.4676529E-002  0.4414370E+03  0.7818608E-02  0.1030307E+00
         21   -1    0    0  501  502  0.00000000000E+00  0.00000000000E+00  0.25847990455E+03  0.25847990455E+03  0.00000000000E+00 0. -1.
         21   -1    0    0  502  503 -0.00000000000E+00 -0.00000000000E+00 -0.17545325236E+04  0.17545325236E+04  0.00000000000E+00 0.  1.
    9000007    1    1    2  501    0 -0.18590054060E+03  0.17537886724E+02  0.12079831729E+02  0.44160220878E+03  0.40000000000E+03 0. -1.
   -9000007    1    1    2    0  503  0.18590054060E+03 -0.17537886724E+02 -0.15081324508E+04  0.15714102194E+04  0.40000000000E+03 0.  1.
<mgrwt>
<rscale>  2 0.44143696E+03</rscale>
<asrwt>0</asrwt>
<pdfrwt beam="1">  1       21 0.39766140E-01 0.44143696E+03</pdfrwt>
<pdfrwt beam="2">  1       21 0.26992808E+00 0.44143696E+03</pdfrwt>
<totfact> 0.24761596E+02</totfact>
</mgrwt>
</event>
<event>
 4    1  0.4676529E-002  0.4087078E+03  0.7818608E-02  0.1040806E+00
         21   -1    0    0  503  502  0.00000000000E+00  0.00000000000E+00  0.34480258003E+03  0.34480258003E+03  0.00000000000E+00 0. -1.
         21   -1    0    0  501  503 -0.00000000000E+00 -0.00000000000E+00 -0.65058165289E+03  0.65058165289E+03  0.00000000000E+00 0.  1.
    9000007    1    1    2  501    0 -0.48371799050E+02 -0.68572805861E+02 -0.40438303252E+03  0.57495016970E+03  0.40000000000E+03 0.  1.
   -9000007    1    1    2    0  502  0.48371799050E+02  0.68572805861E+02  0.98603959665E+02  0.42043406321E+03  0.40000000000E+03 0. -1.
<mgrwt>
<rscale>  2 0.40870779E+03</rscale>
<asrwt>0</asrwt>
<pdfrwt beam="1">  1       21 0.53046551E-01 0.40870779E+03</pdfrwt>
<pdfrwt beam="2">  1       21 0.10008948E+00 0.40870779E+03</pdfrwt>
<totfact> 0.24254148E+03</totfact>
</mgrwt>
</event>
<event>
 4    1  0.4676529E-002  0.5066786E+03  0.7818608E-02  0.1012050E+00
         21   -1    0    0  501  502  0.00000000000E+00  0.00000000000E+00  0.17591256820E+04  0.17591256820E+04  0.00000000000E+00 0. -1.
         21   -1    0    0  502  503 -0.00000000000E+00 -0.00000000000E+00 -0.19646457615E+03  0.19646457615E+03  0.00000000000E+00 0. -1.
    9000007    1    1    2  501    0  0.16785864980E+03 -0.26181420166E+03  0.12771983160E+04  0.13740301091E+04  0.40000000000E+03 0. -1.
   -9000007    1    1    2    0  503 -0.16785864980E+03  0.26181420166E+03  0.28546278988E+03  0.58156014900E+03  0.40000000000E+03 0. -1.
<mgrwt>
<rscale>  2 0.50667860E+03</rscale>
<asrwt>0</asrwt>
<pdfrwt beam="1">  1       21 0.27063471E+00 0.50667860E+03</pdfrwt>
<pdfrwt beam="2">  1       21 0.30225321E-01 0.50667860E+03</pdfrwt>
<totfact> 0.41244877E+02</totfact>
</mgrwt>
</event>
<event>
 4    1  0.4676529E-002  0.4131647E+03  0.7818608E-02  0.1039314E+00
         21   -1    0    0  503  502  0.00000000000E+00  0.00000000000E+00  0.11648914395E+04  0.11648914395E+04  0.00000000000E+00 0. -1.
         21   -1    0    0  501  503 -0.00000000000E+00 -0.00000000000E+00 -0.32284485173E+03  0.32284485173E+03  0.00000000000E+00 0. -1.
    9000007    1    1    2  501    0  0.10249143535E+03  0.14162859274E+02 -0.12868104266E+03  0.43273998156E+03  0.40000000000E+03 0. -1.
   -9000007    1    1    2    0  502 -0.10249143535E+03 -0.14162859274E+02  0.97072763044E+03  0.10549963097E+04  0.40000000000E+03 0. -1.
<mgrwt>
<rscale>  2 0.41316471E+03</rscale>
<asrwt>0</asrwt>
<pdfrwt beam="1">  1       21 0.17921407E+00 0.41316471E+03</pdfrwt>
<pdfrwt beam="2">  1       21 0.49668439E-01 0.41316471E+03</pdfrwt>
<totfact> 0.60189775E+02</totfact>
</mgrwt>
</event>
<event>
 4    1  0.4676529E-002  0.4576032E+03  0.7818608E-02  0.1025479E+00
         21   -1    0    0  503  502  0.00000000000E+00  0.00000000000E+00  0.72177034184E+03  0.72177034184E+03  0.00000000000E+00 0. -1.
         21   -1    0    0  501  503 -0.00000000000E+00 -0.00000000000E+00 -0.42674367442E+03  0.42674367442E+03  0.00000000000E+00 0.  1.
    9000007    1    1    2  501    0 -0.20025978759E+03 -0.96419474363E+02 -0.17741248944E+03  0.49079108485E+03  0.40000000000E+03 0.  1.
   -9000007    1    1    2    0  502  0.20025978759E+03  0.96419474363E+02  0.47243915687E+03  0.65772293141E+03  0.40000000000E+03 0. -1.
<mgrwt>
<rscale>  2 0.45760321E+03</rscale>
<asrwt>0</asrwt>
<pdfrwt beam="1">  1       21 0.11104159E+00 0.45760321E+03</pdfrwt>
<pdfrwt beam="2">  1       21 0.65652873E-01 0.45760321E+03</pdfrwt>
<totfact> 0.11564069E+03</totfact>
</mgrwt>
</event>
<event>
 4    1  0.4676529E-002  0.4009262E+03  0.7818608E-02  0.1043459E+00
         21   -1    0    0  501  502  0.00000000000E+00  0.00000000000E+00  0.68033513740E+03  0.68033513740E+03  0.00000000000E+00 0.  1.
         21   -1    0    0  502  503 -0.00000000000E+00 -0.00000000000E+00 -0.24352421050E+03  0.24352421050E+03  0.00000000000E+00 0.  1.
    9000007    1    1    2  501    0 -0.24510828405E+02 -0.11875535790E+02  0.29813930906E+03  0.49962871882E+03  0.40000000000E+03 0.  1.
   -9000007    1    1    2    0  503  0.24510828405E+02  0.11875535790E+02  0.13867161783E+03  0.42423062908E+03  0.40000000000E+03 0.  1.
<mgrwt>
<rscale>  2 0.40092619E+03</rscale>
<asrwt>0</asrwt>
<pdfrwt beam="1">  1       21 0.10466694E+00 0.40092619E+03</pdfrwt>
<pdfrwt beam="2">  1       21 0.37465263E-01 0.40092619E+03</pdfrwt>
<totfact> 0.45086013E+03</totfact>
</mgrwt>
</event>
<event>
 4    1  0.4676529E-002  0.4455653E+03  0.7818608E-02  0.1029053E+00
         21   -1    0    0  501  502  0.00000000000E+00  0.00000000000E+00  0.11036767345E+03  0.11036767345E+03  0.00000000000E+00 0. -1.
         21   -1    0    0  502  503 -0.00000000000E+00 -0.00000000000E+00 -0.19804051653E+04  0.19804051653E+04  0.00000000000E+00 0.  1.
    9000007    1    1    2  501    0  0.19201653927E+03  0.40719468383E+02 -0.61844553601E+03  0.76223572959E+03  0.40000000000E+03 0. -1.
   -9000007    1    1    2    0  503 -0.19201653927E+03 -0.40719468383E+02 -0.12515919558E+04  0.13285371091E+04  0.40000000000E+03 0.  1.
<mgrwt>
<rscale>  2 0.44556529E+03</rscale>
<asrwt>0</asrwt>
<pdfrwt beam="1">  1       21 0.16979642E-01 0.44556529E+03</pdfrwt>
<pdfrwt beam="2">  1       21 0.30467772E+00 0.44556529E+03</pdfrwt>
<totfact> 0.80755518E+02</totfact>
</mgrwt>
</event>
<event>
 4    1  0.4676529E-002  0.4230844E+03  0.7818608E-02  0.1036067E+00
         21   -1    0    0  503  502  0.00000000000E+00  0.00000000000E+00  0.21456459296E+03  0.21456459296E+03  0.00000000000E+00 0.  1.
         21   -1    0    0  501  503 -0.00000000000E+00 -0.00000000000E+00 -0.83930274429E+03  0.83930274429E+03  0.00000000000E+00 0. -1.
    9000007    1    1    2  501    0 -0.11676968415E+03 -0.73247855778E+02 -0.35325568997E+03  0.55117147060E+03  0.40000000000E+03 0.  1.
   -9000007    1    1    2    0  502  0.11676968415E+03  0.73247855778E+02 -0.27148246136E+03  0.50269586664E+03  0.40000000000E+03 0.  1.
<mgrwt>
<rscale>  2 0.42308440E+03</rscale>
<asrwt>0</asrwt>
<pdfrwt beam="1">  1       21 0.33009937E-01 0.42308440E+03</pdfrwt>
<pdfrwt beam="2">  1       21 0.12912350E+00 0.42308440E+03</pdfrwt>
<totfact> 0.34065143E+03</totfact>
</mgrwt>
</event>
<event>
 4    1  0.4676529E-002  0.6445537E+03  0.7818608E-02  0.9817053E-01
         21   -1    0    0  503  502  0.00000000000E+00  0.00000000000E+00  0.21670904655E+03  0.21670904655E+03  0.00000000000E+00 0.  1.
         21   -1    0    0  501  503 -0.00000000000E+00 -0.00000000000E+00 -0.21847082230E+04  0.21847082230E+04  0.00000000000E+00 0.  1.
    9000007    1    1    2  501    0  0.25755450349E+03  0.43487370584E+03 -0.14042455608E+04  0.15451068109E+04  0.40000000000E+03 0.  1.
   -9000007    1    1    2    0  502 -0.25755450349E+03 -0.43487370584E+03 -0.56375361568E+03  0.85631045860E+03  0.40000000000E+03 0.  1.
<mgrwt>
<rscale>  2 0.64455369E+03</rscale>
<asrwt>0</asrwt>
<pdfrwt beam="1">  1       21 0.33339854E-01 0.64455369E+03</pdfrwt>
<pdfrwt beam="2">  1       21 0.33610895E+00 0.64455369E+03</pdfrwt>
<totfact> 0.12677040E+02</totfact>
</mgrwt>
</event>
<event>
 4    1  0.4676529E-002  0.4461463E+03  0.7818608E-02  0.1028878E+00
         21   -1    0    0  503  502  0.00000000000E+00  0.00000000000E+00  0.58091649025E+03  0.58091649025E+03  0.00000000000E+00 0. -1.
         21   -1    0    0  501  503 -0.00000000000E+00 -0.00000000000E+00 -0.63039846471E+03  0.63039846471E+03  0.00000000000E+00 0. -1.
    9000007    1    1    2  501    0 -0.19275839677E+03  0.43482850386E+02 -0.43393741538E+03  0.62237307001E+03  0.40000000000E+03 0. -1.
   -9000007    1    1    2    0  502  0.19275839677E+03 -0.43482850386E+02  0.38445544092E+03  0.58894188496E+03  0.40000000000E+03 0. -1.
<mgrwt>
<rscale>  2 0.44614634E+03</rscale>
<asrwt>0</asrwt>
<pdfrwt beam="1">  1       21 0.89371768E-01 0.44614634E+03</pdfrwt>
<pdfrwt beam="2">  1       21 0.96984379E-01 0.44614634E+03</pdfrwt>
<totfact> 0.79846066E+02</totfact>
</mgrwt>
</event>
<event>
 4    1  0.4676529E-002  0.5239093E+03  0.7818608E-02  0.1007720E+00
         21   -1    0    0  501  502  0.00000000000E+00  0.00000000000E+00  0.61563927796E+03  0.61563927796E+03  0.00000000000E+00 0. -1.
         21   -1    0    0  502  503 -0.00000000000E+00 -0.00000000000E+00 -0.44827535688E+03  0.44827535688E+03  0.00000000000E+00 0.  1.
    9000007    1    1    2  501    0  0.33786481226E+03  0.18119318404E+02  0.44529568433E+02  0.52579827266E+03  0.40000000000E+03 0. -1.
   -9000007    1    1    2    0  503 -0.33786481226E+03 -0.18119318404E+02  0.12283435264E+03  0.53811636219E+03  0.40000000000E+03 0. -1.
<mgrwt>
<rscale>  2 0.52390929E+03</rscale>
<asrwt>0</asrwt>
<pdfrwt beam="1">  1       21 0.94713735E-01 0.52390929E+03</pdfrwt>
<pdfrwt beam="2">  1       21 0.68965440E-01 0.52390929E+03</pdfrwt>
<totfact> 0.14925922E+03</totfact>
</mgrwt>
</event>
<event>
 4    1  0.4676529E-002  0.5892827E+03  0.7818608E-02  0.9927894E-01
         21   -1    0    0  501  502  0.00000000000E+00  0.00000000000E+00  0.15630344734E+04  0.15630344734E+04  0.00000000000E+00 0.  1.
         21   -1    0    0  502  503 -0.00000000000E+00 -0.00000000000E+00 -0.46097386313E+03  0.46097386313E+03  0.00000000000E+00 0.  1.
    9000007    1    1    2  501    0 -0.43006360996E+03  0.47951672386E+02  0.12794268988E+04  0.14086118205E+04  0.40000000000E+03 0.  1.
   -9000007    1    1    2    0  503  0.43006360996E+03 -0.47951672386E+02 -0.17736628862E+03  0.61539651594E+03  0.40000000000E+03 0.  1.
<mgrwt>
<rscale>  2 0.58928268E+03</rscale>
<asrwt>0</asrwt>
<pdfrwt beam="1">  1       21 0.24046684E+00 0.58928268E+03</pdfrwt>
<pdfrwt beam="2">  1       21 0.70919056E-01 0.58928268E+03</pdfrwt>
<totfact> 0.10003689E+02</totfact>
</mgrwt>
</event>
<event>
 4    1  0.4676529E-002  0.5310195E+03  0.7818608E-02  0.1005985E+00
         21   -1    0    0  501  502  0.00000000000E+00  0.00000000000E+00  0.10517296807E+04  0.10517296807E+04  0.00000000000E+00 0. -1.
         21   -1    0    0  502  503 -0.00000000000E+00 -0.00000000000E+00 -0.45475631601E+03  0.45475631601E+03  0.00000000000E+00 0. -1.
    9000007    1    1    2  501    0 -0.19842605204E+03  0.28741757187E+03  0.78104817557E+03  0.94446705147E+03  0.40000000000E+03 0. -1.
   -9000007    1    1    2    0  503  0.19842605204E+03 -0.28741757187E+03 -0.18407481092E+03  0.56201894520E+03  0.40000000000E+03 0. -1.
<mgrwt>
<rscale>  2 0.53101955E+03</rscale>
<asrwt>0</asrwt>
<pdfrwt beam="1">  1       21 0.16180457E+00 0.53101955E+03</pdfrwt>
<pdfrwt beam="2">  1       21 0.69962510E-01 0.53101955E+03</pdfrwt>
<totfact> 0.36101014E+02</totfact>
</mgrwt>
</event>
<event>
 4    1  0.4676529E-002  0.4286633E+03  0.7818608E-02  0.1034283E+00
         21   -1    0    0  501  502  0.00000000000E+00  0.00000000000E+00  0.22801335708E+03  0.22801335708E+03  0.00000000000E+00 0. -1.
         21   -1    0    0  502  503 -0.00000000000E+00 -0.00000000000E+00 -0.81080871353E+03  0.81080871353E+03  0.00000000000E+00 0.  1.
    9000007    1    1    2  501    0 -0.68354404149E+02 -0.13813011399E+03 -0.33187900105E+03  0.54212168772E+03  0.40000000000E+03 0.  1.
   -9000007    1    1    2    0  503  0.68354404149E+02  0.13813011399E+03 -0.25091635540E+03  0.49670038289E+03  0.40000000000E+03 0.  1.
<mgrwt>
<rscale>  2 0.42866333E+03</rscale>
<asrwt>0</asrwt>
<pdfrwt beam="1">  1       21 0.35078978E-01 0.42866333E+03</pdfrwt>
<pdfrwt beam="2">  1       21 0.12473980E+00 0.42866333E+03</pdfrwt>
<totfact> 0.32873566E+03</totfact>
</mgrwt>
</event>
<event>
 4    1  0.4676529E-002  0.4470099E+03  0.7818608E-02  0.1028617E+00
         21   -1    0    0  503  502  0.00000000000E+00  0.00000000000E+00  0.11376654404E+03  0.11376654404E+03  0.00000000000E+00 0.  1.
         21   -1    0    0  501  503 -0.00000000000E+00 -0.00000000000E+00 -0.25536267777E+04  0.25536267777E+04  0.00000000000E+00 0. -1.
    9000007    1    1    2  501    0 -0.12578323306E+03  0.15490782883E+03 -0.19651310031E+04  0.20153306718E+04  0.40000000000E+03 0. -1.
   -9000007    1    1    2    0  502  0.12578323306E+03 -0.15490782883E+03 -0.47472923054E+03  0.65206264997E+03  0.40000000000E+03 0.  1.
<mgrwt>
<rscale>  2 0.44700991E+03</rscale>
<asrwt>0</asrwt>
<pdfrwt beam="1">  1       21 0.17502544E-01 0.44700991E+03</pdfrwt>
<pdfrwt beam="2">  1       21 0.39286568E+00 0.44700991E+03</pdfrwt>
<totfact> 0.21866819E+02</totfact>
</mgrwt>
</event>
<event>
 4    1  0.4676529E-002  0.5676664E+03  0.7818608E-02  0.9974856E-01
         21   -1    0    0  501  502  0.00000000000E+00  0.00000000000E+00  0.48528547673E+03  0.48528547673E+03  0.00000000000E+00 0. -1.
         21   -1    0    0  502  503 -0.00000000000E+00 -0.00000000000E+00 -0.67221000031E+03  0.67221000031E+03  0.00000000000E+00 0. -1.
    9000007    1    1    2  501    0  0.30138086263E+03  0.26723532198E+03 -0.29627488526E+02  0.56843902905E+03  0.40000000000E+03 0. -1.
   -9000007    1    1    2    0  503 -0.30138086263E+03 -0.26723532198E+03 -0.15729703505E+03  0.58905644798E+03  0.40000000000E+03 0. -1.
<mgrwt>
<rscale>  2 0.56766640E+03</rscale>
<asrwt>0</asrwt>
<pdfrwt beam="1">  1       21 0.74659304E-01 0.56766640E+03</pdfrwt>
<pdfrwt beam="2">  1       21 0.10341692E+00 0.56766640E+03</pdfrwt>
<totfact> 0.99184720E+02</totfact>
</mgrwt>
</event>
<event>
 4    1  0.4676529E-002  0.4362168E+03  0.7818608E-02  0.1031914E+00
         21   -1    0    0  501  502  0.00000000000E+00  0.00000000000E+00  0.47387100008E+03  0.47387100008E+03  0.00000000000E+00 0. -1.
         21   -1    0    0  502  503 -0.00000000000E+00 -0.00000000000E+00 -0.40919021744E+03  0.40919021744E+03  0.00000000000E+00 0.  1.
    9000007    1    1    2  501    0  0.40879190560E+02 -0.16915666967E+03 -0.27973846197E+02  0.43711282661E+03  0.40000000000E+03 0.  1.
   -9000007    1    1    2    0  503 -0.40879190560E+02  0.16915666967E+03  0.92654628841E+02  0.44594839092E+03  0.40000000000E+03 0. -1.
<mgrwt>
<rscale>  2 0.43621679E+03</rscale>
<asrwt>0</asrwt>
<pdfrwt beam="1">  1       21 0.72903231E-01 0.43621679E+03</pdfrwt>
<pdfrwt beam="2">  1       21 0.62952341E-01 0.43621679E+03</pdfrwt>
<totfact> 0.34726559E+03</totfact>
</mgrwt>
</event>
<event>
 4    1  0.4676529E-002  0.4123213E+03  0.7818608E-02  0.1039595E+00
         21   -1    0    0  503  502  0.00000000000E+00  0.00000000000E+00  0.59608327589E+03  0.59608327589E+03  0.00000000000E+00 0.  1.
         21   -1    0    0  501  503 -0.00000000000E+00 -0.00000000000E+00 -0.33087304323E+03  0.33087304323E+03  0.00000000000E+00 0.  1.
    9000007    1    1    2  501    0  0.53993998297E+02  0.84222946180E+02 -0.39574383673E+02  0.41421611311E+03  0.40000000000E+03 0.  1.
   -9000007    1    1    2    0  502 -0.53993998297E+02 -0.84222946180E+02  0.30478461633E+03  0.51274020602E+03  0.40000000000E+03 0.  1.
<mgrwt>
<rscale>  2 0.41232130E+03</rscale>
<asrwt>0</asrwt>
<pdfrwt beam="1">  1       21 0.91705119E-01 0.41232130E+03</pdfrwt>
<pdfrwt beam="2">  1       21 0.50903545E-01 0.41232130E+03</pdfrwt>
<totfact> 0.32617198E+03</totfact>
</mgrwt>
</event>
<event>
 4    1  0.4676529E-002  0.4553640E+03  0.7818608E-02  0.1026134E+00
         21   -1    0    0  501  502  0.00000000000E+00  0.00000000000E+00  0.34106731597E+03  0.34106731597E+03  0.00000000000E+00 0.  1.
         21   -1    0    0  502  503 -0.00000000000E+00 -0.00000000000E+00 -0.61176822016E+03  0.61176822016E+03  0.00000000000E+00 0.  1.
    9000007    1    1    2  501    0 -0.12117428746E+03 -0.18075718248E+03 -0.17292334434E+03  0.48709223970E+03  0.40000000000E+03 0.  1.
   -9000007    1    1    2    0  503  0.12117428746E+03  0.18075718248E+03 -0.97777559857E+02  0.46574329643E+03  0.40000000000E+03 0.  1.
<mgrwt>
<rscale>  2 0.45536399E+03</rscale>
<asrwt>0</asrwt>
<pdfrwt beam="1">  1       21 0.52471895E-01 0.45536399E+03</pdfrwt>
<pdfrwt beam="2">  1       21 0.94118188E-01 0.45536399E+03</pdfrwt>
<totfact> 0.28283344E+03</totfact>
</mgrwt>
</event>
<event>
 4    1  0.4676529E-002  0.6232346E+03  0.7818608E-02  0.9858341E-01
         21   -1    0    0  501  502  0.00000000000E+00  0.00000000000E+00  0.10878731062E+04  0.10878731062E+04  0.00000000000E+00 0. -1.
         21   -1    0    0  502  503 -0.00000000000E+00 -0.00000000000E+00 -0.35704672105E+03  0.35704672105E+03  0.00000000000E+00 0. -1.
    9000007    1    1    2  501    0 -0.38825632061E+03  0.27870855313E+03  0.36505142492E+03  0.72227693506E+03  0.40000000000E+03 0. -1.
   -9000007    1    1    2    0  503  0.38825632061E+03 -0.27870855313E+03  0.36577496023E+03  0.72264289218E+03  0.40000000000E+03 0. -1.
<mgrwt>
<rscale>  2 0.62323465E+03</rscale>
<asrwt>0</asrwt>
<pdfrwt beam="1">  1       21 0.16736509E+00 0.62323465E+03</pdfrwt>
<pdfrwt beam="2">  1       21 0.54930265E-01 0.62323465E+03</pdfrwt>
<totfact> 0.54213062E+02</totfact>
</mgrwt>
</event>
<event>
 4    1  0.4676529E-002  0.5432584E+03  0.7818608E-02  0.1003066E+00
         21   -1    0    0  501  502  0.00000000000E+00  0.00000000000E+00  0.11376841744E+04  0.11376841744E+04  0.00000000000E+00 0.  1.
         21   -1    0    0  502  503 -0.00000000000E+00 -0.00000000000E+00 -0.29477881171E+03  0.29477881171E+03  0.00000000000E+00 0.  1.
    9000007    1    1    2  501    0  0.36491685906E+03  0.44332718675E+02  0.66953684582E+03  0.86221186020E+03  0.40000000000E+03 0.  1.
   -9000007    1    1    2    0  503 -0.36491685906E+03 -0.44332718675E+02  0.17336851689E+03  0.57025112593E+03  0.40000000000E+03 0.  1.
<mgrwt>
<rscale>  2 0.54325841E+03</rscale>
<asrwt>0</asrwt>
<pdfrwt beam="1">  1       21 0.17502833E+00 0.54325841E+03</pdfrwt>
<pdfrwt beam="2">  1       21 0.45350587E-01 0.54325841E+03</pdfrwt>
<totfact> 0.73824995E+02</totfact>
</mgrwt>
</event>
<event>
 4    1  0.4676529E-002  0.4041648E+03  0.7818608E-02  0.1042347E+00
         21   -1    0    0  501  502  0.00000000000E+00  0.00000000000E+00  0.45715175254E+03  0.45715175254E+03  0.00000000000E+00 0.  1.
         21   -1    0    0  502  503 -0.00000000000E+00 -0.00000000000E+00 -0.43932159604E+03  0.43932159604E+03  0.00000000000E+00 0.  1.
    9000007    1    1    2  501    0 -0.56306225989E+02 -0.13370426682E+02  0.20257021856E+03  0.45208832416E+03  0.40000000000E+03 0.  1.
   -9000007    1    1    2    0  503  0.56306225989E+02  0.13370426682E+02 -0.18474006206E+03  0.44438502441E+03  0.40000000000E+03 0.  1.
<mgrwt>
<rscale>  2 0.40416477E+03</rscale>
<asrwt>0</asrwt>
<pdfrwt beam="1">  1       21 0.70331039E-01 0.40416477E+03</pdfrwt>
<pdfrwt beam="2">  1       21 0.67587938E-01 0.40416477E+03</pdfrwt>
<totfact> 0.32551175E+03</totfact>
</mgrwt>
</event>
<event>
 4    1  0.4676529E-002  0.5308063E+03  0.7818608E-02  0.1006037E+00
         21   -1    0    0  501  502  0.00000000000E+00  0.00000000000E+00  0.40561181381E+03  0.40561181381E+03  0.00000000000E+00 0.  1.
         21   -1    0    0  502  503 -0.00000000000E+00 -0.00000000000E+00 -0.85318969494E+03  0.85318969494E+03  0.00000000000E+00 0.  1.
    9000007    1    1    2  501    0 -0.34663742233E+03  0.39973326952E+02  0.47531917916E+02  0.53293025120E+03  0.40000000000E+03 0.  1.
   -9000007    1    1    2    0  503  0.34663742233E+03 -0.39973326952E+02 -0.49510979904E+03  0.72587125755E+03  0.40000000000E+03 0.  1.
<mgrwt>
<rscale>  2 0.53080634E+03</rscale>
<asrwt>0</asrwt>
<pdfrwt beam="1">  1       21 0.62401818E-01 0.53080634E+03</pdfrwt>
<pdfrwt beam="2">  1       21 0.13125995E+00 0.53080634E+03</pdfrwt>
<totfact> 0.82184115E+02</totfact>
</mgrwt>
</event>
<event>
 4    1  0.4676529E-002  0.4233454E+03  0.7818608E-02  0.1035983E+00
         21   -1    0    0  501  502  0.00000000000E+00  0.00000000000E+00  0.10029569072E+04  0.10029569072E+04  0.00000000000E+00 0. -1.
         21   -1    0    0  502  503 -0.00000000000E+00 -0.00000000000E+00 -0.50023764448E+03  0.50023764448E+03  0.00000000000E+00 0. -1.
    9000007    1    1    2  501    0 -0.13607607563E+03 -0.26544306176E+02  0.85394378430E+03  0.95312186277E+03  0.40000000000E+03 0. -1.
   -9000007    1    1    2    0  503  0.13607607563E+03  0.26544306176E+02 -0.35122452157E+03  0.55007268892E+03  0.40000000000E+03 0. -1.
<mgrwt>
<rscale>  2 0.42334537E+03</rscale>
<asrwt>0</asrwt>
<pdfrwt beam="1">  1       21 0.15430106E+00 0.42334537E+03</pdfrwt>
<pdfrwt beam="2">  1       21 0.76959638E-01 0.42334537E+03</pdfrwt>
<totfact> 0.34834861E+02</totfact>
</mgrwt>
</event>
<event>
 4    1  0.4676529E-002  0.5098752E+03  0.7818608E-02  0.1011233E+00
         21   -1    0    0  501  502  0.00000000000E+00  0.00000000000E+00  0.29716965404E+03  0.29716965404E+03  0.00000000000E+00 0. -1.
         21   -1    0    0  502  503 -0.00000000000E+00 -0.00000000000E+00 -0.99327121349E+03  0.99327121349E+03  0.00000000000E+00 0.  1.
    9000007    1    1    2  501    0 -0.11992601490E+03  0.29255842586E+03 -0.12524464971E+03  0.52503228841E+03  0.40000000000E+03 0.  1.
   -9000007    1    1    2    0  503  0.11992601490E+03 -0.29255842586E+03 -0.57085690974E+03  0.76540857912E+03  0.40000000000E+03 0.  1.
<mgrwt>
<rscale>  2 0.50987516E+03</rscale>
<asrwt>0</asrwt>
<pdfrwt beam="1">  1       21 0.45718408E-01 0.50987516E+03</pdfrwt>
<pdfrwt beam="2">  1       21 0.15281096E+00 0.50987516E+03</pdfrwt>
<totfact> 0.10781030E+03</totfact>
</mgrwt>
</event>
<event>
 4    1  0.4676529E-002  0.5288591E+03  0.7818608E-02  0.1006509E+00
         21   -1    0    0  501  502  0.00000000000E+00  0.00000000000E+00  0.32446100083E+03  0.32446100083E+03  0.00000000000E+00 0.  1.
         21   -1    0    0  502  503 -0.00000000000E+00 -0.00000000000E+00 -0.93201445031E+03  0.93201445031E+03  0.00000000000E+00 0.  1.
    9000007    1    1    2  501    0  0.88288770433E+02 -0.33451016128E+03 -0.13161218783E+03  0.54498965400E+03  0.40000000000E+03 0.  1.
   -9000007    1    1    2    0  503 -0.88288770433E+02  0.33451016128E+03 -0.47594126165E+03  0.71148579714E+03  0.40000000000E+03 0.  1.
<mgrwt>
<rscale>  2 0.52885911E+03</rscale>
<asrwt>0</asrwt>
<pdfrwt beam="1">  1       21 0.49917078E-01 0.52885911E+03</pdfrwt>
<pdfrwt beam="2">  1       21 0.14338683E+00 0.52885911E+03</pdfrwt>
<totfact> 0.10566641E+03</totfact>
</mgrwt>
</event>
<event>
 4    1  0.4676529E-002  0.4928921E+03  0.7818608E-02  0.1015651E+00
         21   -1    0    0  501  502  0.00000000000E+00  0.00000000000E+00  0.11747740453E+04  0.11747740453E+04  0.00000000000E+00 0.  1.
         21   -1    0    0  502  503 -0.00000000000E+00 -0.00000000000E+00 -0.28359363274E+03  0.28359363274E+03  0.00000000000E+00 0.  1.
    9000007    1    1    2  501    0  0.28535767149E+03  0.38905118774E+02  0.82503884616E+03  0.96105759797E+03  0.40000000000E+03 0.  1.
   -9000007    1    1    2    0  503 -0.28535767149E+03 -0.38905118774E+02  0.66141566413E+02  0.49731008009E+03  0.40000000000E+03 0.  1.
<mgrwt>
<rscale>  2 0.49289209E+03</rscale>
<asrwt>0</asrwt>
<pdfrwt beam="1">  1       21 0.18073446E+00 0.49289209E+03</pdfrwt>
<pdfrwt beam="2">  1       21 0.43629791E-01 0.49289209E+03</pdfrwt>
<totfact> 0.74345351E+02</totfact>
</mgrwt>
</event>
<event>
 4    1  0.4676529E-002  0.5850225E+03  0.7818608E-02  0.9936976E-01
         21   -1    0    0  501  502  0.00000000000E+00  0.00000000000E+00  0.30658156008E+04  0.30658156008E+04  0.00000000000E+00 0. -1.
         21   -1    0    0  502  503 -0.00000000000E+00 -0.00000000000E+00 -0.99232667533E+03  0.99232667533E+03  0.00000000000E+00 0.  1.
    9000007    1    1    2  501    0 -0.41703705451E+03 -0.91276401352E+02  0.29482782092E+04  0.30057604171E+04  0.40000000000E+03 0. -1.
   -9000007    1    1    2    0  503  0.41703705451E+03  0.91276401352E+02 -0.87478928372E+03  0.10523818590E+04  0.40000000000E+03 0.  1.
<mgrwt>
<rscale>  2 0.58502247E+03</rscale>
<asrwt>0</asrwt>
<pdfrwt beam="1">  1       21 0.47166393E+00 0.58502247E+03</pdfrwt>
<pdfrwt beam="2">  1       21 0.15266564E+00 0.58502247E+03</pdfrwt>
<totfact> 0.50779739E-01</totfact>
</mgrwt>
</event>
<event>
 4    1  0.4676529E-002  0.4355797E+03  0.7818608E-02  0.1032112E+00
         21   -1    0    0  503  502  0.00000000000E+00  0.00000000000E+00  0.41553461905E+03  0.41553461905E+03  0.00000000000E+00 0. -1.
         21   -1    0    0  501  503 -0.00000000000E+00 -0.00000000000E+00 -0.50813700224E+03  0.50813700224E+03  0.00000000000E+00 0. -1.
    9000007    1    1    2  501    0 -0.17234604557E+03 -0.51509089021E+01 -0.19339398765E+03  0.47658254872E+03  0.40000000000E+03 0. -1.
   -9000007    1    1    2    0  502  0.17234604557E+03  0.51509089021E+01  0.10079160446E+03  0.44708907257E+03  0.40000000000E+03 0. -1.
<mgrwt>
<rscale>  2 0.43557972E+03</rscale>
<asrwt>0</asrwt>
<pdfrwt beam="1">  1       21 0.63928403E-01 0.43557972E+03</pdfrwt>
<pdfrwt beam="2">  1       21 0.78174923E-01 0.43557972E+03</pdfrwt>
<totfact> 0.28627443E+03</totfact>
</mgrwt>
</event>
<event>
 4    1  0.4676529E-002  0.4693418E+03  0.7818608E-02  0.1022106E+00
         21   -1    0    0  501  502  0.00000000000E+00  0.00000000000E+00  0.61086458722E+03  0.61086458722E+03  0.00000000000E+00 0.  1.
         21   -1    0    0  502  503 -0.00000000000E+00 -0.00000000000E+00 -0.47424202911E+03  0.47424202911E+03  0.00000000000E+00 0. -1.
    9000007    1    1    2  501    0  0.17541259242E+03 -0.17179105737E+03  0.33389377733E+03  0.57599201341E+03  0.40000000000E+03 0.  1.
   -9000007    1    1    2    0  503 -0.17541259242E+03  0.17179105737E+03 -0.19727121922E+03  0.50911460292E+03  0.40000000000E+03 0. -1.
<mgrwt>
<rscale>  2 0.46934182E+03</rscale>
<asrwt>0</asrwt>
<pdfrwt beam="1">  1       21 0.93979167E-01 0.46934182E+03</pdfrwt>
<pdfrwt beam="2">  1       21 0.72960312E-01 0.46934182E+03</pdfrwt>
<totfact> 0.13649392E+03</totfact>
</mgrwt>
</event>
<event>
 4    1  0.4676529E-002  0.6158249E+03  0.7818608E-02  0.9873108E-01
         21   -1    0    0  503  502  0.00000000000E+00  0.00000000000E+00  0.18509934155E+04  0.18509934155E+04  0.00000000000E+00 0.  1.
         21   -1    0    0  501  503 -0.00000000000E+00 -0.00000000000E+00 -0.42339997485E+03  0.42339997485E+03  0.00000000000E+00 0.  1.
    9000007    1    1    2  501    0  0.12209104190E+03  0.45203326508E+03 -0.10316374535E+03  0.62440616077E+03  0.40000000000E+03 0.  1.
   -9000007    1    1    2    0  502 -0.12209104190E+03 -0.45203326508E+03  0.15307571860E+04  0.16499872296E+04  0.40000000000E+03 0.  1.
<mgrwt>
<rscale>  2 0.61582489E+03</rscale>
<asrwt>0</asrwt>
<pdfrwt beam="1">  1       21 0.28476821E+00 0.61582489E+03</pdfrwt>
<pdfrwt beam="2">  1       21 0.65138459E-01 0.61582489E+03</pdfrwt>
<totfact> 0.63803935E+01</totfact>
</mgrwt>
</event>
<event>
 4    1  0.4676529E-002  0.5881292E+03  0.7818608E-02  0.9930345E-01
         21   -1    0    0  501  502  0.00000000000E+00  0.00000000000E+00  0.19523082572E+04  0.19523082572E+04  0.00000000000E+00 0.  1.
         21   -1    0    0  502  503 -0.00000000000E+00 -0.00000000000E+00 -0.17921356293E+03  0.17921356293E+03  0.00000000000E+00 0.  1.
    9000007    1    1    2  501    0  0.24651142212E+03 -0.35373443584E+03  0.77281867254E+03  0.97115633806E+03  0.40000000000E+03 0.  1.
   -9000007    1    1    2    0  503 -0.24651142212E+03  0.35373443584E+03  0.10002760218E+04  0.11603654821E+04  0.40000000000E+03 0.  1.
<mgrwt>
<rscale>  2 0.58812918E+03</rscale>
<asrwt>0</asrwt>
<pdfrwt beam="1">  1       21 0.30035510E+00 0.58812918E+03</pdfrwt>
<pdfrwt beam="2">  1       21 0.27571319E-01 0.58812918E+03</pdfrwt>
<totfact> 0.31454043E+02</totfact>
</mgrwt>
</event>
<event>
 4    1  0.4676529E-002  0.4300908E+03  0.7818608E-02  0.1033831E+00
         21   -1    0    0  503  502  0.00000000000E+00  0.00000000000E+00  0.62179113619E+03  0.62179113619E+03  0.00000000000E+00 0.  1.
         21   -1    0    0  501  503 -0.00000000000E+00 -0.00000000000E+00 -0.51128684097E+03  0.51128684097E+03  0.00000000000E+00 0.  1.
    9000007    1    1    2  501    0 -0.45722494421E+02 -0.15128641600E+03 -0.31109744916E+03  0.53081046432E+03  0.40000000000E+03 0.  1.
   -9000007    1    1    2    0  502  0.45722494421E+02  0.15128641600E+03  0.42160174438E+03  0.60226751284E+03  0.40000000000E+03 0.  1.
<mgrwt>
<rscale>  2 0.43009083E+03</rscale>
<asrwt>0</asrwt>
<pdfrwt beam="1">  1       21 0.95660175E-01 0.43009083E+03</pdfrwt>
<pdfrwt beam="2">  1       21 0.78659514E-01 0.43009083E+03</pdfrwt>
<totfact> 0.11190808E+03</totfact>
</mgrwt>
</event>
<event>
 4    1  0.4676529E-002  0.5565780E+03  0.7818608E-02  0.9999828E-01
         21   -1    0    0  501  502  0.00000000000E+00  0.00000000000E+00  0.56689533515E+03  0.56689533515E+03  0.00000000000E+00 0.  1.
         21   -1    0    0  502  503 -0.00000000000E+00 -0.00000000000E+00 -0.62733688587E+03  0.62733688587E+03  0.00000000000E+00 0. -1.
    9000007    1    1    2  501    0 -0.71898729701E+02 -0.38027572024E+03  0.18419252467E+03  0.58626439162E+03  0.40000000000E+03 0.  1.
   -9000007    1    1    2    0  503  0.71898729701E+02  0.38027572024E+03 -0.24463407539E+03  0.60796782939E+03  0.40000000000E+03 0. -1.
<mgrwt>
<rscale>  2 0.55657798E+03</rscale>
<asrwt>0</asrwt>
<pdfrwt beam="1">  1       21 0.87214667E-01 0.55657798E+03</pdfrwt>
<pdfrwt beam="2">  1       21 0.96513367E-01 0.55657798E+03</pdfrwt>
<totfact> 0.82086218E+02</totfact>
</mgrwt>
</event>
<event>
 4    1  0.4676529E-002  0.5919438E+03  0.7818608E-02  0.9922262E-01
         21   -1    0    0  503  502  0.00000000000E+00  0.00000000000E+00  0.96406560009E+03  0.96406560009E+03  0.00000000000E+00 0.  1.
         21   -1    0    0  501  503 -0.00000000000E+00 -0.00000000000E+00 -0.37062297016E+03  0.37062297016E+03  0.00000000000E+00 0. -1.
    9000007    1    1    2  501    0 -0.23696197963E+03 -0.36639669464E+03  0.20393458785E+03  0.62608851911E+03  0.40000000000E+03 0. -1.
   -9000007    1    1    2    0  502  0.23696197963E+03  0.36639669464E+03  0.38950804208E+03  0.70860005114E+03  0.40000000000E+03 0.  1.
<mgrwt>
<rscale>  2 0.59194385E+03</rscale>
<asrwt>0</asrwt>
<pdfrwt beam="1">  1       21 0.14831778E+00 0.59194385E+03</pdfrwt>
<pdfrwt beam="2">  1       21 0.57018919E-01 0.59194385E+03</pdfrwt>
<totfact> 0.70788679E+02</totfact>
</mgrwt>
</event>
<event>
 4    1  0.4676529E-002  0.4089927E+03  0.7818608E-02  0.1040710E+00
         21   -1    0    0  501  502  0.00000000000E+00  0.00000000000E+00  0.17323953959E+04  0.17323953959E+04  0.00000000000E+00 0.  1.
         21   -1    0    0  502  503 -0.00000000000E+00 -0.00000000000E+00 -0.99011339647E+02  0.99011339647E+02  0.00000000000E+00 0.  1.
    9000007    1    1    2  501    0 -0.29265857115E+02 -0.80115864537E+02  0.96086124180E+03  0.10442841415E+04  0.40000000000E+03 0.  1.
   -9000007    1    1    2    0  503  0.29265857115E+02  0.80115864537E+02  0.67252281447E+03  0.78712259409E+03  0.40000000000E+03 0.  1.
<mgrwt>
<rscale>  2 0.40899272E+03</rscale>
<asrwt>0</asrwt>
<pdfrwt beam="1">  1       21 0.26652235E+00 0.40899272E+03</pdfrwt>
<pdfrwt beam="2">  1       21 0.15232515E-01 0.40899272E+03</pdfrwt>
<totfact> 0.17102567E+03</totfact>
</mgrwt>
</event>
<event>
 4    1  0.4676529E-002  0.4628087E+03  0.7818608E-02  0.1023970E+00
         21   -1    0    0  501  502  0.00000000000E+00  0.00000000000E+00  0.52615809972E+03  0.52615809972E+03  0.00000000000E+00 0. -1.
         21   -1    0    0  502  503 -0.00000000000E+00 -0.00000000000E+00 -0.47790633918E+03  0.47790633918E+03  0.00000000000E+00 0. -1.
    9000007    1    1    2  501    0 -0.70999703679E+01  0.23268331160E+03  0.21738376981E+03  0.51131950526E+03  0.40000000000E+03 0. -1.
   -9000007    1    1    2    0  503  0.70999703679E+01 -0.23268331160E+03 -0.16913200927E+03  0.49274493365E+03  0.40000000000E+03 0. -1.
<mgrwt>
<rscale>  2 0.46280874E+03</rscale>
<asrwt>0</asrwt>
<pdfrwt beam="1">  1       21 0.80947400E-01 0.46280874E+03</pdfrwt>
<pdfrwt beam="2">  1       21 0.73524052E-01 0.46280874E+03</pdfrwt>
<totfact> 0.19109417E+03</totfact>
</mgrwt>
</event>
<event>
 4    1  0.4676529E-002  0.5478475E+03  0.7818608E-02  0.1001993E+00
         21   -1    0    0  501  502  0.00000000000E+00  0.00000000000E+00  0.87942078435E+03  0.87942078435E+03  0.00000000000E+00 0.  1.
         21   -1    0    0  502  503 -0.00000000000E+00 -0.00000000000E+00 -0.37483204155E+03  0.37483204155E+03  0.00000000000E+00 0.  1.
    9000007    1    1    2  501    0  0.28518972956E+03  0.24249472138E+03  0.43989584826E+03  0.70259891052E+03  0.40000000000E+03 0.  1.
   -9000007    1    1    2    0  503 -0.28518972956E+03 -0.24249472138E+03  0.64692894535E+02  0.55165391537E+03  0.40000000000E+03 0.  1.
<mgrwt>
<rscale>  2 0.54784749E+03</rscale>
<asrwt>0</asrwt>
<pdfrwt beam="1">  1       21 0.13529550E+00 0.54784749E+03</pdfrwt>
<pdfrwt beam="2">  1       21 0.57666468E-01 0.54784749E+03</pdfrwt>
<totfact> 0.89763329E+02</totfact>
</mgrwt>
</event>
<event>
 4    1  0.4676529E-002  0.4239416E+03  0.7818608E-02  0.1035791E+00
         21   -1    0    0  503  502  0.00000000000E+00  0.00000000000E+00  0.41494336192E+03  0.41494336192E+03  0.00000000000E+00 0.  1.
         21   -1    0    0  501  503 -0.00000000000E+00 -0.00000000000E+00 -0.63273220409E+03  0.63273220409E+03  0.00000000000E+00 0.  1.
    9000007    1    1    2  501    0 -0.91947338119E+02 -0.10617045883E+03 -0.40310894838E+03  0.58499855007E+03  0.40000000000E+03 0.  1.
   -9000007    1    1    2    0  502  0.91947338119E+02  0.10617045883E+03  0.18532010621E+03  0.46267701594E+03  0.40000000000E+03 0.  1.
<mgrwt>
<rscale>  2 0.42394160E+03</rscale>
<asrwt>0</asrwt>
<pdfrwt beam="1">  1       21 0.63837441E-01 0.42394160E+03</pdfrwt>
<pdfrwt beam="2">  1       21 0.97343415E-01 0.42394160E+03</pdfrwt>
<totfact> 0.17228017E+03</totfact>
</mgrwt>
</event>
<event>
 4    1  0.4676529E-002  0.4717767E+03  0.7818608E-02  0.1021420E+00
         21   -1    0    0  501  502  0.00000000000E+00  0.00000000000E+00  0.17276300580E+03  0.17276300580E+03  0.00000000000E+00 0.  1.
         21   -1    0    0  502  503 -0.00000000000E+00 -0.00000000000E+00 -0.12918782070E+04  0.12918782070E+04  0.00000000000E+00 0. -1.
    9000007    1    1    2  501    0  0.23373923074E+03 -0.89102520704E+02 -0.59801414849E+03  0.76170480436E+03  0.40000000000E+03 0.  1.
   -9000007    1    1    2    0  503 -0.23373923074E+03  0.89102520704E+02 -0.52110105271E+03  0.70293640845E+03  0.40000000000E+03 0. -1.
<mgrwt>
<rscale>  2 0.47177673E+03</rscale>
<asrwt>0</asrwt>
<pdfrwt beam="1">  1       21 0.26578924E-01 0.47177673E+03</pdfrwt>
<pdfrwt beam="2">  1       21 0.19875049E+00 0.47177673E+03</pdfrwt>
<totfact> 0.15365239E+03</totfact>
</mgrwt>
</event>
<event>
 4    1  0.4676529E-002  0.8703692E+03  0.7818608E-02  0.9463399E-01
         21   -1    0    0  501  502  0.00000000000E+00  0.00000000000E+00  0.54081949663E+03  0.54081949663E+03  0.00000000000E+00 0.  1.
         21   -1    0    0  502  503 -0.00000000000E+00 -0.00000000000E+00 -0.22199986935E+04  0.22199986935E+04  0.00000000000E+00 0. -1.
    9000007    1    1    2  501    0  0.75213309316E+03  0.17843293600E+03 -0.10097304041E+01  0.87036976167E+03  0.40000000000E+03 0.  1.
   -9000007    1    1    2    0  503 -0.75213309316E+03 -0.17843293600E+03 -0.16781694664E+04  0.18904484284E+04  0.40000000000E+03 0. -1.
<mgrwt>
<rscale>  2 0.87036918E+03</rscale>
<asrwt>0</asrwt>
<pdfrwt beam="1">  1       21 0.83202998E-01 0.87036918E+03</pdfrwt>
<pdfrwt beam="2">  1       21 0.34153827E+00 0.87036918E+03</pdfrwt>
<totfact> 0.14632140E+01</totfact>
</mgrwt>
</event>
<event>
 4    1  0.4676529E-002  0.4010450E+03  0.7818608E-02  0.1043418E+00
         21   -1    0    0  503  502  0.00000000000E+00  0.00000000000E+00  0.21039764023E+03  0.21039764023E+03  0.00000000000E+00 0.  1.
         21   -1    0    0  501  503 -0.00000000000E+00 -0.00000000000E+00 -0.11940263263E+04  0.11940263263E+04  0.00000000000E+00 0.  1.
    9000007    1    1    2  501    0  0.23987076430E+01 -0.28832606312E+02 -0.91301091323E+03  0.99720910578E+03  0.40000000000E+03 0.  1.
   -9000007    1    1    2    0  502 -0.23987076430E+01  0.28832606312E+02 -0.70617772860E+02  0.40721486077E+03  0.40000000000E+03 0.  1.
<mgrwt>
<rscale>  2 0.40104498E+03</rscale>
<asrwt>0</asrwt>
<pdfrwt beam="1">  1       21 0.32368867E-01 0.40104498E+03</pdfrwt>
<pdfrwt beam="2">  1       21 0.18369636E+00 0.40104498E+03</pdfrwt>
<totfact> 0.13598410E+03</totfact>
</mgrwt>
</event>
<event>
 4    1  0.4676529E-002  0.4680772E+03  0.7818608E-02  0.1022464E+00
         21   -1    0    0  503  502  0.00000000000E+00  0.00000000000E+00  0.15535413145E+04  0.15535413145E+04  0.00000000000E+00 0. -1.
         21   -1    0    0  501  503 -0.00000000000E+00 -0.00000000000E+00 -0.15708636995E+03  0.15708636995E+03  0.00000000000E+00 0. -1.
    9000007    1    1    2  501    0  0.41439282027E+02  0.23953918241E+03  0.42477786815E+03  0.63208581006E+03  0.40000000000E+03 0. -1.
   -9000007    1    1    2    0  502 -0.41439282027E+02 -0.23953918241E+03  0.97167707637E+03  0.10785418744E+04  0.40000000000E+03 0. -1.
<mgrwt>
<rscale>  2 0.46807717E+03</rscale>
<asrwt>0</asrwt>
<pdfrwt beam="1">  1       21 0.23900635E+00 0.46807717E+03</pdfrwt>
<pdfrwt beam="2">  1       21 0.24167135E-01 0.46807717E+03</pdfrwt>
<totfact> 0.10204022E+03</totfact>
</mgrwt>
</event>
<event>
 4    1  0.4676529E-002  0.4446395E+03  0.7818608E-02  0.1029333E+00
         21   -1    0    0  503  502  0.00000000000E+00  0.00000000000E+00  0.74575459224E+03  0.74575459224E+03  0.00000000000E+00 0. -1.
         21   -1    0    0  501  503 -0.00000000000E+00 -0.00000000000E+00 -0.68935281202E+03  0.68935281202E+03  0.00000000000E+00 0.  1.
    9000007    1    1    2  501    0 -0.18623335680E+03  0.54967586351E+02 -0.53471399661E+03  0.69543033936E+03  0.40000000000E+03 0.  1.
   -9000007    1    1    2    0  502  0.18623335680E+03 -0.54967586351E+02  0.59111577683E+03  0.73967706491E+03  0.40000000000E+03 0. -1.
<mgrwt>
<rscale>  2 0.44463952E+03</rscale>
<asrwt>0</asrwt>
<pdfrwt beam="1">  1       21 0.11473148E+00 0.44463952E+03</pdfrwt>
<pdfrwt beam="2">  1       21 0.10605428E+00 0.44463952E+03</pdfrwt>
<totfact> 0.34969943E+02</totfact>
</mgrwt>
</event>
<event>
 4    1  0.4676529E-002  0.4673090E+03  0.7818608E-02  0.1022682E+00
         21   -1    0    0  503  502  0.00000000000E+00  0.00000000000E+00  0.62115229761E+03  0.62115229761E+03  0.00000000000E+00 0.  1.
         21   -1    0    0  501  503 -0.00000000000E+00 -0.00000000000E+00 -0.52848435676E+03  0.52848435676E+03  0.00000000000E+00 0. -1.
    9000007    1    1    2  501    0 -0.24160071494E+03 -0.26053081571E+01 -0.28624723091E+03  0.54801019178E+03  0.40000000000E+03 0. -1.
   -9000007    1    1    2    0  502  0.24160071494E+03  0.26053081571E+01  0.37891517177E+03  0.60162646259E+03  0.40000000000E+03 0.  1.
<mgrwt>
<rscale>  2 0.46730899E+03</rscale>
<asrwt>0</asrwt>
<pdfrwt beam="1">  1       21 0.95561892E-01 0.46730899E+03</pdfrwt>
<pdfrwt beam="2">  1       21 0.81305285E-01 0.46730899E+03</pdfrwt>
<totfact> 0.10235553E+03</totfact>
</mgrwt>
</event>
<event>
 4    1  0.4676529E-002  0.5049000E+03  0.7818608E-02  0.1012508E+00
         21   -1    0    0  501  502  0.00000000000E+00  0.00000000000E+00  0.57181330857E+03  0.57181330857E+03  0.00000000000E+00 0. -1.
         21   -1    0    0  502  503 -0.00000000000E+00 -0.00000000000E+00 -0.51045302698E+03  0.51045302698E+03  0.00000000000E+00 0.  1.
    9000007    1    1    2  501    0 -0.18261821457E+01 -0.30809194513E+03  0.22323932981E+03  0.55205052302E+03  0.40000000000E+03 0. -1.
   -9000007    1    1    2    0  503  0.18261821457E+01  0.30809194513E+03 -0.16187904822E+03  0.53021581252E+03  0.40000000000E+03 0.  1.
<mgrwt>
<rscale>  2 0.50489997E+03</rscale>
<asrwt>0</asrwt>
<pdfrwt beam="1">  1       21 0.87971279E-01 0.50489997E+03</pdfrwt>
<pdfrwt beam="2">  1       21 0.78531234E-01 0.50489997E+03</pdfrwt>
<totfact> 0.13321512E+03</totfact>
</mgrwt>
</event>
<event>
 4    1  0.4676529E-002  0.4495704E+03  0.7818608E-02  0.1027850E+00
         21   -1    0    0  501  502  0.00000000000E+00  0.00000000000E+00  0.77109757202E+03  0.77109757202E+03  0.00000000000E+00 0.  1.
         21   -1    0    0  502  503 -0.00000000000E+00 -0.00000000000E+00 -0.30421602023E+03  0.30421602023E+03  0.00000000000E+00 0.  1.
    9000007    1    1    2  501    0  0.10711782486E+03  0.17504096040E+03  0.43346301934E+03  0.62450280652E+03  0.40000000000E+03 0.  1.
   -9000007    1    1    2    0  503 -0.10711782486E+03 -0.17504096040E+03  0.33418532453E+02  0.45081078573E+03  0.40000000000E+03 0.  1.
<mgrwt>
<rscale>  2 0.44957042E+03</rscale>
<asrwt>0</asrwt>
<pdfrwt beam="1">  1       21 0.11863040E+00 0.44957042E+03</pdfrwt>
<pdfrwt beam="2">  1       21 0.46802465E-01 0.44957042E+03</pdfrwt>
<totfact> 0.20451724E+03</totfact>
</mgrwt>
</event>
<event>
 4    1  0.4676529E-002  0.4489101E+03  0.7818608E-02  0.1028048E+00
         21   -1    0    0  501  502  0.00000000000E+00  0.00000000000E+00  0.80469662833E+03  0.80469662833E+03  0.00000000000E+00 0.  1.
         21   -1    0    0  502  503 -0.00000000000E+00 -0.00000000000E+00 -0.26465128654E+03  0.26465128654E+03  0.00000000000E+00 0.  1.
    9000007    1    1    2  501    0 -0.41015002435E+02  0.19959479711E+03  0.39396477760E+03  0.59726757776E+03  0.40000000000E+03 0.  1.
   -9000007    1    1    2    0  503  0.41015002435E+02 -0.19959479711E+03  0.14608056419E+03  0.47208033711E+03  0.40000000000E+03 0.  1.
<mgrwt>
<rscale>  2 0.44891014E+03</rscale>
<asrwt>0</asrwt>
<pdfrwt beam="1">  1       21 0.12379948E+00 0.44891014E+03</pdfrwt>
<pdfrwt beam="2">  1       21 0.40715583E-01 0.44891014E+03</pdfrwt>
<totfact> 0.24533352E+03</totfact>
</mgrwt>
</event>
<event>
 4    1  0.4676529E-002  0.4100113E+03  0.7818608E-02  0.1040367E+00
         21   -1    0    0  501  502  0.00000000000E+00  0.00000000000E+00  0.68578289857E+03  0.68578289857E+03  0.00000000000E+00 0.  1.
         21   -1    0    0  502  503 -0.00000000000E+00 -0.00000000000E+00 -0.36010988468E+03  0.36010988468E+03  0.00000000000E+00 0. -1.
    9000007    1    1    2  501    0  0.86228996598E+02  0.25958164781E+02  0.45832561974E+03  0.61495661626E+03  0.40000000000E+03 0.  1.
   -9000007    1    1    2    0  503 -0.86228996598E+02 -0.25958164781E+02 -0.13265260585E+03  0.43093616698E+03  0.40000000000E+03 0. -1.
<mgrwt>
<rscale>  2 0.41001130E+03</rscale>
<asrwt>0</asrwt>
<pdfrwt beam="1">  1       21 0.10550506E+00 0.41001130E+03</pdfrwt>
<pdfrwt beam="2">  1       21 0.55401521E-01 0.41001130E+03</pdfrwt>
<totfact> 0.19411746E+03</totfact>
</mgrwt>
</event>
<event>
 4    1  0.4676529E-002  0.4386331E+03  0.7818608E-02  0.1031167E+00
         21   -1    0    0  503  502  0.00000000000E+00  0.00000000000E+00  0.22922188624E+03  0.22922188624E+03  0.00000000000E+00 0. -1.
         21   -1    0    0  501  503 -0.00000000000E+00 -0.00000000000E+00 -0.14272623832E+04  0.14272623832E+04  0.00000000000E+00 0. -1.
    9000007    1    1    2  501    0 -0.15609422236E+03 -0.89630274558E+02 -0.11305886205E+04  0.12126951889E+04  0.40000000000E+03 0. -1.
   -9000007    1    1    2    0  502  0.15609422236E+03  0.89630274558E+02 -0.67451876468E+02  0.44378908054E+03  0.40000000000E+03 0. -1.
<mgrwt>
<rscale>  2 0.43863310E+03</rscale>
<asrwt>0</asrwt>
<pdfrwt beam="1">  1       21 0.35264906E-01 0.43863310E+03</pdfrwt>
<pdfrwt beam="2">  1       21 0.21957883E+00 0.43863310E+03</pdfrwt>
<totfact> 0.64910592E+02</totfact>
</mgrwt>
</event>
<event>
 4    1  0.4676529E-002  0.4086932E+03  0.7818608E-02  0.1040810E+00
         21   -1    0    0  501  502  0.00000000000E+00  0.00000000000E+00  0.26056364167E+03  0.26056364167E+03  0.00000000000E+00 0.  1.
         21   -1    0    0  502  503 -0.00000000000E+00 -0.00000000000E+00 -0.20212261681E+04  0.20212261681E+04  0.00000000000E+00 0.  1.
    9000007    1    1    2  501    0  0.83832855295E+02  0.14736018521E+01  0.62443578208E+02  0.41343599213E+03  0.40000000000E+03 0.  1.
   -9000007    1    1    2    0  503 -0.83832855295E+02 -0.14736018521E+01 -0.18231061047E+04  0.18683538177E+04  0.40000000000E+03 0.  1.
<mgrwt>
<rscale>  2 0.40869318E+03</rscale>
<asrwt>0</asrwt>
<pdfrwt beam="1">  1       21 0.40086712E-01 0.40869318E+03</pdfrwt>
<pdfrwt beam="2">  1       21 0.31095789E+00 0.40869318E+03</pdfrwt>
<totfact> 0.14101129E+02</totfact>
</mgrwt>
</event>
<event>
 4    1  0.4676529E-002  0.4100257E+03  0.7818608E-02  0.1040362E+00
         21   -1    0    0  501  502  0.00000000000E+00  0.00000000000E+00  0.15994231143E+04  0.15994231143E+04  0.00000000000E+00 0.  1.
         21   -1    0    0  502  503 -0.00000000000E+00 -0.00000000000E+00 -0.13361494462E+03  0.13361494462E+03  0.00000000000E+00 0.  1.
    9000007    1    1    2  501    0  0.87454624376E+02  0.21742509904E+02  0.11331100992E+04  0.12050143339E+04  0.40000000000E+03 0.  1.
   -9000007    1    1    2    0  503 -0.87454624376E+02 -0.21742509904E+02  0.33269807049E+03  0.52802372500E+03  0.40000000000E+03 0.  1.
<mgrwt>
<rscale>  2 0.41002567E+03</rscale>
<asrwt>0</asrwt>
<pdfrwt beam="1">  1       21 0.24606508E+00 0.41002567E+03</pdfrwt>
<pdfrwt beam="2">  1       21 0.20556146E-01 0.41002567E+03</pdfrwt>
<totfact> 0.12965518E+03</totfact>
</mgrwt>
</event>
<event>
 4    1  0.4676529E-002  0.4271982E+03  0.7818608E-02  0.1034749E+00
         21   -1    0    0  501  502  0.00000000000E+00  0.00000000000E+00  0.84676083945E+03  0.84676083945E+03  0.00000000000E+00 0. -1.
         21   -1    0    0  502  503 -0.00000000000E+00 -0.00000000000E+00 -0.10840998520E+04  0.10840998520E+04  0.00000000000E+00 0. -1.
    9000007    1    1    2  501    0  0.14632425102E+03 -0.32977767319E+02  0.74548196266E+03  0.85920991395E+03  0.40000000000E+03 0. -1.
   -9000007    1    1    2    0  503 -0.14632425102E+03  0.32977767319E+02 -0.98282097523E+03  0.10716507775E+04  0.40000000000E+03 0. -1.
<mgrwt>
<rscale>  2 0.42719822E+03</rscale>
<asrwt>0</asrwt>
<pdfrwt beam="1">  1       21 0.13027090E+00 0.42719822E+03</pdfrwt>
<pdfrwt beam="2">  1       21 0.16678459E+00 0.42719822E+03</pdfrwt>
<totfact> 0.77922187E+01</totfact>
</mgrwt>
</event>
<event>
 4    1  0.4676529E-002  0.4853426E+03  0.7818608E-02  0.1017677E+00
         21   -1    0    0  503  502  0.00000000000E+00  0.00000000000E+00  0.20896571438E+04  0.20896571438E+04  0.00000000000E+00 0.  1.
         21   -1    0    0  501  503 -0.00000000000E+00 -0.00000000000E+00 -0.11274978160E+03  0.11274978160E+03  0.00000000000E+00 0.  1.
    9000007    1    1    2  501    0 -0.19439425058E+02  0.27418895143E+03  0.97226573166E+03  0.10866729615E+04  0.40000000000E+03 0.  1.
   -9000007    1    1    2    0  502  0.19439425058E+02 -0.27418895143E+03  0.10046416305E+04  0.11157339639E+04  0.40000000000E+03 0.  1.
<mgrwt>
<rscale>  2 0.48534263E+03</rscale>
<asrwt>0</asrwt>
<pdfrwt beam="1">  1       21 0.32148569E+00 0.48534263E+03</pdfrwt>
<pdfrwt beam="2">  1       21 0.17346122E-01 0.48534263E+03</pdfrwt>
<totfact> 0.60095376E+02</totfact>
</mgrwt>
</event>
<event>
 4    1  0.4676529E-002  0.4012950E+03  0.7818608E-02  0.1043332E+00
         21   -1    0    0  501  502  0.00000000000E+00  0.00000000000E+00  0.16575043379E+03  0.16575043379E+03  0.00000000000E+00 0. -1.
         21   -1    0    0  502  503 -0.00000000000E+00 -0.00000000000E+00 -0.10182565431E+04  0.10182565431E+04  0.00000000000E+00 0. -1.
    9000007    1    1    2  501    0  0.11012412629E+02 -0.30272752358E+02 -0.29948677059E+03  0.50072950635E+03  0.40000000000E+03 0.  1.
   -9000007    1    1    2    0  503 -0.11012412629E+02  0.30272752358E+02 -0.55301933874E+03  0.68327747057E+03  0.40000000000E+03 0.  1.
<mgrwt>
<rscale>  2 0.40129504E+03</rscale>
<asrwt>0</asrwt>
<pdfrwt beam="1">  1       21 0.25500066E-01 0.40129504E+03</pdfrwt>
<pdfrwt beam="2">  1       21 0.15665486E+00 0.40129504E+03</pdfrwt>
<totfact> 0.34202320E+03</totfact>
</mgrwt>
</event>
<event>
 4    1  0.4676529E-002  0.4508653E+03  0.7818608E-02  0.1027464E+00
         21   -1    0    0  503  502  0.00000000000E+00  0.00000000000E+00  0.29865072959E+03  0.29865072959E+03  0.00000000000E+00 0. -1.
         21   -1    0    0  501  503 -0.00000000000E+00 -0.00000000000E+00 -0.74754819491E+03  0.74754819491E+03  0.00000000000E+00 0. -1.
    9000007    1    1    2  501    0 -0.18158155301E+03 -0.10152663441E+03 -0.38092207756E+03  0.59023821213E+03  0.40000000000E+03 0. -1.
   -9000007    1    1    2    0  502  0.18158155301E+03  0.10152663441E+03 -0.67975387755E+02  0.45596071237E+03  0.40000000000E+03 0. -1.
<mgrwt>
<rscale>  2 0.45086530E+03</rscale>
<asrwt>0</asrwt>
<pdfrwt beam="1">  1       21 0.45946266E-01 0.45086530E+03</pdfrwt>
<pdfrwt beam="2">  1       21 0.11500741E+00 0.45086530E+03</pdfrwt>
<totfact> 0.22972001E+03</totfact>
</mgrwt>
</event>
<event>
 4    1  0.4676529E-002  0.5412856E+03  0.7818608E-02  0.1003531E+00
         21   -1    0    0  503  502  0.00000000000E+00  0.00000000000E+00  0.16646183135E+03  0.16646183135E+03  0.00000000000E+00 0.  1.
         21   -1    0    0  501  503 -0.00000000000E+00 -0.00000000000E+00 -0.20112098956E+04  0.20112098956E+04  0.00000000000E+00 0.  1.
    9000007    1    1    2  501    0 -0.27496411280E+03  0.23955139749E+03 -0.53763861077E+03  0.76291900695E+03  0.40000000000E+03 0.  1.
   -9000007    1    1    2    0  502  0.27496411280E+03 -0.23955139749E+03 -0.13071094535E+04  0.14147527200E+04  0.40000000000E+03 0.  1.
<mgrwt>
<rscale>  2 0.54128563E+03</rscale>
<asrwt>0</asrwt>
<pdfrwt beam="1">  1       21 0.25609511E-01 0.54128563E+03</pdfrwt>
<pdfrwt beam="2">  1       21 0.30941693E+00 0.54128563E+03</pdfrwt>
<totfact> 0.32747486E+02</totfact>
</mgrwt>
</event>
<event>
 4    1  0.4676529E-002  0.4831536E+03  0.7818608E-02  0.1018272E+00
         21   -1    0    0  501  502  0.00000000000E+00  0.00000000000E+00  0.77551329294E+03  0.77551329294E+03  0.00000000000E+00 0. -1.
         21   -1    0    0  502  503 -0.00000000000E+00 -0.00000000000E+00 -0.57433823689E+03  0.57433823689E+03  0.00000000000E+00 0. -1.
    9000007    1    1    2  501    0 -0.13428742569E+03  0.23538115984E+03  0.56618888960E+03  0.74431664083E+03  0.40000000000E+03 0. -1.
   -9000007    1    1    2    0  503  0.13428742569E+03 -0.23538115984E+03 -0.36501383355E+03  0.60553488900E+03  0.40000000000E+03 0. -1.
<mgrwt>
<rscale>  2 0.48315360E+03</rscale>
<asrwt>0</asrwt>
<pdfrwt beam="1">  1       21 0.11930974E+00 0.48315360E+03</pdfrwt>
<pdfrwt beam="2">  1       21 0.88359728E-01 0.48315360E+03</pdfrwt>
<totfact> 0.48376381E+02</totfact>
</mgrwt>
</event>
<event>
 4    1  0.4676529E-002  0.4578234E+03  0.7818608E-02  0.1025414E+00
         21   -1    0    0  501  502  0.00000000000E+00  0.00000000000E+00  0.38862322698E+03  0.38862322698E+03  0.00000000000E+00 0.  1.
         21   -1    0    0  502  503 -0.00000000000E+00 -0.00000000000E+00 -0.57800925229E+03  0.57800925229E+03  0.00000000000E+00 0.  1.
    9000007    1    1    2  501    0  0.21282982827E+03 -0.65618261053E+02 -0.21969430397E+03  0.50780693101E+03  0.40000000000E+03 0.  1.
   -9000007    1    1    2    0  503 -0.21282982827E+03  0.65618261053E+02  0.30308278663E+02  0.45882554826E+03  0.40000000000E+03 0.  1.
<mgrwt>
<rscale>  2 0.45782343E+03</rscale>
<asrwt>0</asrwt>
<pdfrwt beam="1">  1       21 0.59788189E-01 0.45782343E+03</pdfrwt>
<pdfrwt beam="2">  1       21 0.88924500E-01 0.45782343E+03</pdfrwt>
<totfact> 0.24375089E+03</totfact>
</mgrwt>
</event>
<event>
 4    1  0.4676529E-002  0.4674755E+03  0.7818608E-02  0.1022635E+00
         21   -1    0    0  503  502  0.00000000000E+00  0.00000000000E+00  0.45342885012E+03  0.45342885012E+03  0.00000000000E+00 0. -1.
         21   -1    0    0  501  503 -0.00000000000E+00 -0.00000000000E+00 -0.86650167133E+03  0.86650167133E+03  0.00000000000E+00 0. -1.
    9000007    1    1    2  501    0  0.11421988578E+03  0.21327724131E+03 -0.64618894232E+03  0.79755470856E+03  0.40000000000E+03 0. -1.
   -9000007    1    1    2    0  502 -0.11421988578E+03 -0.21327724131E+03  0.23311612111E+03  0.52237581289E+03  0.40000000000E+03 0. -1.
<mgrwt>
<rscale>  2 0.46747552E+03</rscale>
<asrwt>0</asrwt>
<pdfrwt beam="1">  1       21 0.69758285E-01 0.46747552E+03</pdfrwt>
<pdfrwt beam="2">  1       21 0.13330795E+00 0.46747552E+03</pdfrwt>
<totfact> 0.63081726E+02</totfact>
</mgrwt>
</event>
<event>
 4    1  0.4676529E-002  0.4144001E+03  0.7818608E-02  0.1038904E+00
         21   -1    0    0  503  502  0.00000000000E+00  0.00000000000E+00  0.17797445240E+03  0.17797445240E+03  0.00000000000E+00 0. -1.
         21   -1    0    0  501  503 -0.00000000000E+00 -0.00000000000E+00 -0.96624209160E+03  0.96624209160E+03  0.00000000000E+00 0. -1.
    9000007    1    1    2  501    0 -0.21753933039E+02 -0.10608580229E+03 -0.37280662944E+03  0.55741565641E+03  0.40000000000E+03 0. -1.
   -9000007    1    1    2    0  502  0.21753933039E+02  0.10608580229E+03 -0.41546100976E+03  0.58680088759E+03  0.40000000000E+03 0. -1.
<mgrwt>
<rscale>  2 0.41440009E+03</rscale>
<asrwt>0</asrwt>
<pdfrwt beam="1">  1       21 0.27380685E-01 0.41440009E+03</pdfrwt>
<pdfrwt beam="2">  1       21 0.14865263E+00 0.41440009E+03</pdfrwt>
<totfact> 0.34144602E+03</totfact>
</mgrwt>
</event>
<event>
 4    1  0.4676529E-002  0.4172373E+03  0.7818608E-02  0.1037969E+00
         21   -1    0    0  501  502  0.00000000000E+00  0.00000000000E+00  0.26091442374E+03  0.26091442374E+03  0.00000000000E+00 0. -1.
         21   -1    0    0  502  503 -0.00000000000E+00 -0.00000000000E+00 -0.10701001646E+04  0.10701001646E+04  0.00000000000E+00 0. -1.
    9000007    1    1    2  501    0 -0.49641622437E+02 -0.10780838181E+03  0.37541024439E+01  0.41725415654E+03  0.40000000000E+03 0. -1.
   -9000007    1    1    2    0  503  0.49641622437E+02  0.10780838181E+03 -0.81293984329E+03  0.91376043178E+03  0.40000000000E+03 0. -1.
<mgrwt>
<rscale>  2 0.41723727E+03</rscale>
<asrwt>0</asrwt>
<pdfrwt beam="1">  1       21 0.40140680E-01 0.41723727E+03</pdfrwt>
<pdfrwt beam="2">  1       21 0.16463080E+00 0.41723727E+03</pdfrwt>
<totfact> 0.11943100E+03</totfact>
</mgrwt>
</event>
<event>
 4    1  0.4676529E-002  0.5069152E+03  0.7818608E-02  0.1011990E+00
         21   -1    0    0  503  502  0.00000000000E+00  0.00000000000E+00  0.90604614148E+03  0.90604614148E+03  0.00000000000E+00 0.  1.
         21   -1    0    0  501  503 -0.00000000000E+00 -0.00000000000E+00 -0.40823576208E+03  0.40823576208E+03  0.00000000000E+00 0.  1.
    9000007    1    1    2  501    0 -0.27908077895E+03 -0.13811912745E+03 -0.11417989305E+03  0.51961526395E+03  0.40000000000E+03 0.  1.
   -9000007    1    1    2    0  502  0.27908077895E+03  0.13811912745E+03  0.61199027245E+03  0.79466663962E+03  0.40000000000E+03 0.  1.
<mgrwt>
<rscale>  2 0.50691516E+03</rscale>
<asrwt>0</asrwt>
<pdfrwt beam="1">  1       21 0.13939171E+00 0.50691516E+03</pdfrwt>
<pdfrwt beam="2">  1       21 0.62805502E-01 0.50691516E+03</pdfrwt>
<totfact> 0.69758861E+02</totfact>
</mgrwt>
</event>
<event>
 4    1  0.4676529E-002  0.4538758E+03  0.7818608E-02  0.1026572E+00
         21   -1    0    0  501  502  0.00000000000E+00  0.00000000000E+00  0.18695073376E+03  0.18695073376E+03  0.00000000000E+00 0.  1.
         21   -1    0    0  502  503 -0.00000000000E+00 -0.00000000000E+00 -0.16299008191E+04  0.16299008191E+04  0.00000000000E+00 0.  1.
    9000007    1    1    2  501    0  0.41220882216E+02 -0.21048541144E+03 -0.20443855234E+03  0.49779352270E+03  0.40000000000E+03 0.  1.
   -9000007    1    1    2    0  503 -0.41220882216E+02  0.21048541144E+03 -0.12385115330E+04  0.13190580302E+04  0.40000000000E+03 0.  1.
<mgrwt>
<rscale>  2 0.45387583E+03</rscale>
<asrwt>0</asrwt>
<pdfrwt beam="1">  1       21 0.28761652E-01 0.45387583E+03</pdfrwt>
<pdfrwt beam="2">  1       21 0.25075397E+00 0.45387583E+03</pdfrwt>
<totfact> 0.61826307E+02</totfact>
</mgrwt>
</event>
<event>
 4    1  0.4676529E-002  0.6949260E+03  0.7818608E-02  0.9725949E-01
         21   -1    0    0  503  502  0.00000000000E+00  0.00000000000E+00  0.32105196855E+03  0.32105196855E+03  0.00000000000E+00 0.  1.
         21   -1    0    0  501  503 -0.00000000000E+00 -0.00000000000E+00 -0.15921397039E+04  0.15921397039E+04  0.00000000000E+00 0. -1.
    9000007    1    1    2  501    0 -0.14387284135E+02  0.56808027852E+03 -0.41070960094E+03  0.80722027544E+03  0.40000000000E+03 0.  1.
   -9000007    1    1    2    0  502  0.14387284135E+02 -0.56808027852E+03 -0.86037813438E+03  0.11059713970E+04  0.40000000000E+03 0. -1.
<mgrwt>
<rscale>  2 0.69492604E+03</rscale>
<asrwt>0</asrwt>
<pdfrwt beam="1">  1       21 0.49392610E-01 0.69492604E+03</pdfrwt>
<pdfrwt beam="2">  1       21 0.24494457E+00 0.69492604E+03</pdfrwt>
<totfact> 0.19963752E+02</totfact>
</mgrwt>
</event>
<event>
 4    1  0.4676529E-002  0.7128605E+03  0.7818608E-02  0.9695488E-01
         21   -1    0    0  503  502  0.00000000000E+00  0.00000000000E+00  0.10538992943E+04  0.10538992943E+04  0.00000000000E+00 0.  1.
         21   -1    0    0  501  503 -0.00000000000E+00 -0.00000000000E+00 -0.48457329681E+03  0.48457329681E+03  0.00000000000E+00 0.  1.
    9000007    1    1    2  501    0  0.25263613411E+03  0.53324018577E+03  0.33871309652E+03  0.78923803363E+03  0.40000000000E+03 0.  1.
   -9000007    1    1    2    0  502 -0.25263613411E+03 -0.53324018577E+03  0.23061290093E+03  0.74923455744E+03  0.40000000000E+03 0.  1.
<mgrwt>
<rscale>  2 0.71286051E+03</rscale>
<asrwt>0</asrwt>
<pdfrwt beam="1">  1       21 0.16213835E+00 0.71286051E+03</pdfrwt>
<pdfrwt beam="2">  1       21 0.74549738E-01 0.71286051E+03</pdfrwt>
<totfact> 0.29146303E+02</totfact>
</mgrwt>
</event>
<event>
 4    1  0.4676529E-002  0.8522563E+03  0.7818608E-02  0.9487314E-01
         21   -1    0    0  501  502  0.00000000000E+00  0.00000000000E+00  0.12092199597E+04  0.12092199597E+04  0.00000000000E+00 0.  1.
         21   -1    0    0  502  503 -0.00000000000E+00 -0.00000000000E+00 -0.89512534984E+03  0.89512534984E+03  0.00000000000E+00 0. -1.
    9000007    1    1    2  501    0  0.46096473569E+03 -0.59485489696E+03 -0.44642259110E+03  0.96209872978E+03  0.40000000000E+03 0. -1.
   -9000007    1    1    2    0  503 -0.46096473569E+03  0.59485489696E+03  0.76051720093E+03  0.11422465797E+04  0.40000000000E+03 0.  1.
<mgrwt>
<rscale>  2 0.85225632E+03</rscale>
<asrwt>0</asrwt>
<pdfrwt beam="1">  1       21 0.18603384E+00 0.85225632E+03</pdfrwt>
<pdfrwt beam="2">  1       21 0.13771159E+00 0.85225632E+03</pdfrwt>
<totfact> 0.40798287E+01</totfact>
</mgrwt>
</event>
<event>
 4    1  0.4676529E-002  0.4170762E+03  0.7818608E-02  0.1038022E+00
         21   -1    0    0  503  502  0.00000000000E+00  0.00000000000E+00  0.68478664380E+03  0.68478664380E+03  0.00000000000E+00 0.  1.
         21   -1    0    0  501  503 -0.00000000000E+00 -0.00000000000E+00 -0.26018780696E+03  0.26018780696E+03  0.00000000000E+00 0. -1.
    9000007    1    1    2  501    0 -0.10429145788E+03  0.55460086383E+02  0.13957900291E+03  0.43981226384E+03  0.40000000000E+03 0. -1.
   -9000007    1    1    2    0  502  0.10429145788E+03 -0.55460086383E+02  0.28501983393E+03  0.50516218693E+03  0.40000000000E+03 0.  1.
<mgrwt>
<rscale>  2 0.41707617E+03</rscale>
<asrwt>0</asrwt>
<pdfrwt beam="1">  1       21 0.10535179E+00 0.41707617E+03</pdfrwt>
<pdfrwt beam="2">  1       21 0.40028894E-01 0.41707617E+03</pdfrwt>
<totfact> 0.38511994E+03</totfact>
</mgrwt>
</event>
<event>
 4    1  0.4676529E-002  0.4342607E+03  0.7818608E-02  0.1032522E+00
         21   -1    0    0  503  502  0.00000000000E+00  0.00000000000E+00  0.65875436059E+03  0.65875436059E+03  0.00000000000E+00 0.  1.
         21   -1    0    0  501  503 -0.00000000000E+00 -0.00000000000E+00 -0.29066593683E+03  0.29066593683E+03  0.00000000000E+00 0.  1.
    9000007    1    1    2  501    0 -0.16895208142E+03 -0.61274108430E+01  0.12567260371E+03  0.45207958846E+03  0.40000000000E+03 0.  1.
   -9000007    1    1    2    0  502  0.16895208142E+03  0.61274108430E+01  0.24241582005E+03  0.49734070896E+03  0.40000000000E+03 0.  1.
<mgrwt>
<rscale>  2 0.43426069E+03</rscale>
<asrwt>0</asrwt>
<pdfrwt beam="1">  1       21 0.10134682E+00 0.43426069E+03</pdfrwt>
<pdfrwt beam="2">  1       21 0.44717837E-01 0.43426069E+03</pdfrwt>
<totfact> 0.33441416E+03</totfact>
</mgrwt>
</event>
<event>
 4    1  0.4676529E-002  0.4128659E+03  0.7818608E-02  0.1039414E+00
         21   -1    0    0  501  502  0.00000000000E+00  0.00000000000E+00  0.19264351557E+03  0.19264351557E+03  0.00000000000E+00 0. -1.
         21   -1    0    0  502  503 -0.00000000000E+00 -0.00000000000E+00 -0.17870848465E+04  0.17870848465E+04  0.00000000000E+00 0.  1.
    9000007    1    1    2  501    0  0.98259810784E+02 -0.28342199198E+02 -0.93879964416E+02  0.42340491068E+03  0.40000000000E+03 0. -1.
   -9000007    1    1    2    0  503 -0.98259810784E+02  0.28342199198E+02 -0.15005613665E+04  0.15563234514E+04  0.40000000000E+03 0.  1.
<mgrwt>
<rscale>  2 0.41286592E+03</rscale>
<asrwt>0</asrwt>
<pdfrwt beam="1">  1       21 0.29637464E-01 0.41286592E+03</pdfrwt>
<pdfrwt beam="2">  1       21 0.27493613E+00 0.41286592E+03</pdfrwt>
<totfact> 0.42510765E+02</totfact>
</mgrwt>
</event>
<event>
 4    1  0.4676529E-002  0.7173071E+03  0.7818608E-02  0.9688084E-01
         21   -1    0    0  503  502  0.00000000000E+00  0.00000000000E+00  0.13445164343E+04  0.13445164343E+04  0.00000000000E+00 0.  1.
         21   -1    0    0  501  503 -0.00000000000E+00 -0.00000000000E+00 -0.41899130261E+03  0.41899130261E+03  0.00000000000E+00 0. -1.
    9000007    1    1    2  501    0 -0.14823878938E+03 -0.57667554050E+03  0.20321205619E+03  0.74553642263E+03  0.40000000000E+03 0. -1.
   -9000007    1    1    2    0  502  0.14823878938E+03  0.57667554050E+03  0.72231307554E+03  0.10179713143E+04  0.40000000000E+03 0. -1.
<mgrwt>
<rscale>  2 0.71730706E+03</rscale>
<asrwt>0</asrwt>
<pdfrwt beam="1">  1       21 0.20684868E+00 0.71730706E+03</pdfrwt>
<pdfrwt beam="2">  1       21 0.64460201E-01 0.71730706E+03</pdfrwt>
<totfact> 0.19498442E+02</totfact>
</mgrwt>
</event>
<event>
 4    1  0.4676529E-002  0.5230052E+03  0.7818608E-02  0.1007943E+00
         21   -1    0    0  503  502  0.00000000000E+00  0.00000000000E+00  0.17355930078E+04  0.17355930078E+04  0.00000000000E+00 0. -1.
         21   -1    0    0  501  503 -0.00000000000E+00 -0.00000000000E+00 -0.37088172885E+03  0.37088172885E+03  0.00000000000E+00 0.  1.
    9000007    1    1    2  501    0  0.25980672640E+03 -0.21455742070E+03  0.14810533771E+04  0.15706856871E+04  0.40000000000E+03 0. -1.
   -9000007    1    1    2    0  502 -0.25980672640E+03  0.21455742070E+03 -0.11634209812E+03  0.53578904958E+03  0.40000000000E+03 0.  1.
<mgrwt>
<rscale>  2 0.52300518E+03</rscale>
<asrwt>0</asrwt>
<pdfrwt beam="1">  1       21 0.26701430E+00 0.52300518E+03</pdfrwt>
<pdfrwt beam="2">  1       21 0.57058728E-01 0.52300518E+03</pdfrwt>
<totfact> 0.11482199E+02</totfact>
</mgrwt>
</event>
<event>
 4    1  0.4676529E-002  0.4308358E+03  0.7818608E-02  0.1033596E+00
         21   -1    0    0  503  502  0.00000000000E+00  0.00000000000E+00  0.18496673014E+03  0.18496673014E+03  0.00000000000E+00 0. -1.
         21   -1    0    0  501  503 -0.00000000000E+00 -0.00000000000E+00 -0.12603555678E+04  0.12603555678E+04  0.00000000000E+00 0. -1.
    9000007    1    1    2  501    0  0.12463408683E+03 -0.10042831122E+03 -0.86391250186E+03  0.96538298730E+03  0.40000000000E+03 0. -1.
   -9000007    1    1    2    0  502 -0.12463408683E+03  0.10042831122E+03 -0.21147633580E+03  0.47993931064E+03  0.40000000000E+03 0. -1.
<mgrwt>
<rscale>  2 0.43083582E+03</rscale>
<asrwt>0</asrwt>
<pdfrwt beam="1">  1       21 0.28456420E-01 0.43083582E+03</pdfrwt>
<pdfrwt beam="2">  1       21 0.19390086E+00 0.43083582E+03</pdfrwt>
<totfact> 0.14745967E+03</totfact>
</mgrwt>
</event>
<event>
 4    1  0.4676529E-002  0.5177267E+03  0.7818608E-02  0.1009253E+00
         21   -1    0    0  501  502  0.00000000000E+00  0.00000000000E+00  0.13584593297E+04  0.13584593297E+04  0.00000000000E+00 0. -1.
         21   -1    0    0  502  503 -0.00000000000E+00 -0.00000000000E+00 -0.35823290638E+03  0.35823290638E+03  0.00000000000E+00 0. -1.
    9000007    1    1    2  501    0  0.26848216199E+03  0.18962657875E+03  0.10754012772E+04  0.11935362657E+04  0.40000000000E+03 0. -1.
   -9000007    1    1    2    0  503 -0.26848216199E+03 -0.18962657875E+03 -0.75174853837E+02  0.52315597036E+03  0.40000000000E+03 0. -1.
<mgrwt>
<rscale>  2 0.51772668E+03</rscale>
<asrwt>0</asrwt>
<pdfrwt beam="1">  1       21 0.20899374E+00 0.51772668E+03</pdfrwt>
<pdfrwt beam="2">  1       21 0.55112756E-01 0.51772668E+03</pdfrwt>
<totfact> 0.28759587E+02</totfact>
</mgrwt>
</event>
<event>
 4    1  0.4676529E-002  0.4923078E+03  0.7818608E-02  0.1015806E+00
         21   -1    0    0  503  502  0.00000000000E+00  0.00000000000E+00  0.15129939531E+04  0.15129939531E+04  0.00000000000E+00 0.  1.
         21   -1    0    0  501  503 -0.00000000000E+00 -0.00000000000E+00 -0.37119901319E+03  0.37119901319E+03  0.00000000000E+00 0.  1.
    9000007    1    1    2  501    0  0.27901753860E+03  0.67202199088E+02 -0.13940314866E+03  0.51166410883E+03  0.40000000000E+03 0.  1.
   -9000007    1    1    2    0  502 -0.27901753860E+03 -0.67202199088E+02  0.12811980886E+04  0.13725288575E+04  0.40000000000E+03 0.  1.
<mgrwt>
<rscale>  2 0.49230775E+03</rscale>
<asrwt>0</asrwt>
<pdfrwt beam="1">  1       21 0.23276830E+00 0.49230775E+03</pdfrwt>
<pdfrwt beam="2">  1       21 0.57107542E-01 0.49230775E+03</pdfrwt>
<totfact> 0.18956642E+02</totfact>
</mgrwt>
</event>
<event>
 4    1  0.4676529E-002  0.4233157E+03  0.7818608E-02  0.1035993E+00
         21   -1    0    0  501  502  0.00000000000E+00  0.00000000000E+00  0.19840200872E+03  0.19840200872E+03  0.00000000000E+00 0.  1.
         21   -1    0    0  502  503 -0.00000000000E+00 -0.00000000000E+00 -0.94515177687E+03  0.94515177687E+03  0.00000000000E+00 0.  1.
    9000007    1    1    2  501    0  0.30877997960E+02  0.13506566358E+03 -0.25290893438E+03  0.49311166415E+03  0.40000000000E+03 0.  1.
   -9000007    1    1    2    0  503 -0.30877997960E+02 -0.13506566358E+03 -0.49384083377E+03  0.65044212143E+03  0.40000000000E+03 0.  1.
<mgrwt>
<rscale>  2 0.42331570E+03</rscale>
<asrwt>0</asrwt>
<pdfrwt beam="1">  1       21 0.30523386E-01 0.42331570E+03</pdfrwt>
<pdfrwt beam="2">  1       21 0.14540797E+00 0.42331570E+03</pdfrwt>
<totfact> 0.29131193E+03</totfact>
</mgrwt>
</event>
<event>
 4    1  0.4676529E-002  0.5442319E+03  0.7818608E-02  0.1002838E+00
         21   -1    0    0  501  502  0.00000000000E+00  0.00000000000E+00  0.59545788411E+03  0.59545788411E+03  0.00000000000E+00 0. -1.
         21   -1    0    0  502  503 -0.00000000000E+00 -0.00000000000E+00 -0.49956314055E+03  0.49956314055E+03  0.00000000000E+00 0. -1.
    9000007    1    1    2  501    0  0.15215246122E+03 -0.33621125478E+03  0.83868493839E+02  0.55065624808E+03  0.40000000000E+03 0. -1.
   -9000007    1    1    2    0  503 -0.15215246122E+03  0.33621125478E+03  0.12026249718E+02  0.54436477658E+03  0.40000000000E+03 0. -1.
<mgrwt>
<rscale>  2 0.54423192E+03</rscale>
<asrwt>0</asrwt>
<pdfrwt beam="1">  1       21 0.91608905E-01 0.54423192E+03</pdfrwt>
<pdfrwt beam="2">  1       21 0.76855868E-01 0.54423192E+03</pdfrwt>
<totfact> 0.12548609E+03</totfact>
</mgrwt>
</event>
<event>
 4    1  0.4676529E-002  0.4111129E+03  0.7818608E-02  0.1039998E+00
         21   -1    0    0  503  502  0.00000000000E+00  0.00000000000E+00  0.67168694422E+03  0.67168694422E+03  0.00000000000E+00 0.  1.
         21   -1    0    0  501  503 -0.00000000000E+00 -0.00000000000E+00 -0.41282586227E+03  0.41282586227E+03  0.00000000000E+00 0.  1.
    9000007    1    1    2  501    0  0.52436080024E+02  0.79147056385E+02 -0.20941656012E+03  0.46137738856E+03  0.40000000000E+03 0.  1.
   -9000007    1    1    2    0  502 -0.52436080024E+02 -0.79147056385E+02  0.46827764206E+03  0.62313541793E+03  0.40000000000E+03 0.  1.
<mgrwt>
<rscale>  2 0.41111288E+03</rscale>
<asrwt>0</asrwt>
<pdfrwt beam="1">  1       21 0.10333645E+00 0.41111288E+03</pdfrwt>
<pdfrwt beam="2">  1       21 0.63511671E-01 0.41111288E+03</pdfrwt>
<totfact> 0.15151983E+03</totfact>
</mgrwt>
</event>
<event>
 4    1  0.4676529E-002  0.4116913E+03  0.7818608E-02  0.1039805E+00
         21   -1    0    0  501  502  0.00000000000E+00  0.00000000000E+00  0.53352793924E+03  0.53352793924E+03  0.00000000000E+00 0.  1.
         21   -1    0    0  502  503 -0.00000000000E+00 -0.00000000000E+00 -0.13641369819E+04  0.13641369819E+04  0.00000000000E+00 0.  1.
    9000007    1    1    2  501    0 -0.97415146799E+02 -0.91421146018E-01  0.41573521701E+03  0.58508588245E+03  0.40000000000E+03 0.  1.
   -9000007    1    1    2    0  503  0.97415146799E+02  0.91421146018E-01 -0.12463442597E+04  0.13125790387E+04  0.40000000000E+03 0.  1.
<mgrwt>
<rscale>  2 0.41169129E+03</rscale>
<asrwt>0</asrwt>
<pdfrwt beam="1">  1       21 0.82081222E-01 0.41169129E+03</pdfrwt>
<pdfrwt beam="2">  1       21 0.20986723E+00 0.41169129E+03</pdfrwt>
<totfact> 0.12308104E+02</totfact>
</mgrwt>
</event>
<event>
 4    1  0.4676529E-002  0.5065502E+03  0.7818608E-02  0.1012083E+00
         21   -1    0    0  503  502  0.00000000000E+00  0.00000000000E+00  0.75129719888E+03  0.75129719888E+03  0.00000000000E+00 0. -1.
         21   -1    0    0  501  503 -0.00000000000E+00 -0.00000000000E+00 -0.34178919424E+03  0.34178919424E+03  0.00000000000E+00 0.  1.
    9000007    1    1    2  501    0 -0.29651117988E+03 -0.93135523070E+02  0.18980302546E+03  0.54094204304E+03  0.40000000000E+03 0. -1.
   -9000007    1    1    2    0  502  0.29651117988E+03  0.93135523070E+02  0.21970497919E+03  0.55214435008E+03  0.40000000000E+03 0.  1.
<mgrwt>
<rscale>  2 0.50655020E+03</rscale>
<asrwt>0</asrwt>
<pdfrwt beam="1">  1       21 0.11558418E+00 0.50655020E+03</pdfrwt>
<pdfrwt beam="2">  1       21 0.52582953E-01 0.50655020E+03</pdfrwt>
<totfact> 0.16693690E+03</totfact>
</mgrwt>
</event>
<event>
 4    1  0.4676529E-002  0.4340412E+03  0.7818608E-02  0.1032591E+00
         21   -1    0    0  501  502  0.00000000000E+00  0.00000000000E+00  0.15144498669E+03  0.15144498669E+03  0.00000000000E+00 0. -1.
         21   -1    0    0  502  503 -0.00000000000E+00 -0.00000000000E+00 -0.12444952564E+04  0.12444952564E+04  0.00000000000E+00 0. -1.
    9000007    1    1    2  501    0 -0.67958538967E+02  0.15418622528E+03 -0.53207233711E+03  0.68665328005E+03  0.40000000000E+03 0. -1.
   -9000007    1    1    2    0  503  0.67958538967E+02 -0.15418622528E+03 -0.56097793258E+03  0.70928696303E+03  0.40000000000E+03 0. -1.
<mgrwt>
<rscale>  2 0.43404119E+03</rscale>
<asrwt>0</asrwt>
<pdfrwt beam="1">  1       21 0.23299230E-01 0.43404119E+03</pdfrwt>
<pdfrwt beam="2">  1       21 0.19146080E+00 0.43404119E+03</pdfrwt>
<totfact> 0.22596052E+03</totfact>
</mgrwt>
</event>
<event>
 4    1  0.4676529E-002  0.4510103E+03  0.7818608E-02  0.1027421E+00
         21   -1    0    0  503  502  0.00000000000E+00  0.00000000000E+00  0.46656925807E+03  0.46656925807E+03  0.00000000000E+00 0.  1.
         21   -1    0    0  501  503 -0.00000000000E+00 -0.00000000000E+00 -0.98168397055E+03  0.98168397055E+03  0.00000000000E+00 0.  1.
    9000007    1    1    2  501    0  0.20821293627E+03  0.75936735504E+01 -0.79745460959E+03  0.91615727092E+03  0.40000000000E+03 0.  1.
   -9000007    1    1    2    0  502 -0.20821293627E+03 -0.75936735504E+01  0.28233989710E+03  0.53209595770E+03  0.40000000000E+03 0.  1.
<mgrwt>
<rscale>  2 0.45101030E+03</rscale>
<asrwt>0</asrwt>
<pdfrwt beam="1">  1       21 0.71779886E-01 0.45101030E+03</pdfrwt>
<pdfrwt beam="2">  1       21 0.15102830E+00 0.45101030E+03</pdfrwt>
<totfact> 0.42693080E+02</totfact>
</mgrwt>
</event>
<event>
 4    1  0.4676529E-002  0.4280431E+03  0.7818608E-02  0.1034480E+00
         21   -1    0    0  501  502  0.00000000000E+00  0.00000000000E+00  0.81188284012E+03  0.81188284012E+03  0.00000000000E+00 0. -1.
         21   -1    0    0  502  503 -0.00000000000E+00 -0.00000000000E+00 -0.26313647839E+03  0.26313647839E+03  0.00000000000E+00 0. -1.
    9000007    1    1    2  501    0 -0.91988190330E+02  0.12148697268E+03  0.47718513168E+03  0.64103553847E+03  0.40000000000E+03 0. -1.
   -9000007    1    1    2    0  503  0.91988190330E+02 -0.12148697268E+03  0.71561230050E+02  0.43398378004E+03  0.40000000000E+03 0. -1.
<mgrwt>
<rscale>  2 0.42804312E+03</rscale>
<asrwt>0</asrwt>
<pdfrwt beam="1">  1       21 0.12490505E+00 0.42804312E+03</pdfrwt>
<pdfrwt beam="2">  1       21 0.40482535E-01 0.42804312E+03</pdfrwt>
<totfact> 0.24461136E+03</totfact>
</mgrwt>
</event>
<event>
 4    1  0.4676529E-002  0.4487850E+03  0.7818608E-02  0.1028085E+00
         21   -1    0    0  503  502  0.00000000000E+00  0.00000000000E+00  0.30010550732E+03  0.30010550732E+03  0.00000000000E+00 0. -1.
         21   -1    0    0  501  503 -0.00000000000E+00 -0.00000000000E+00 -0.10259362257E+04  0.10259362257E+04  0.00000000000E+00 0.  1.
    9000007    1    1    2  501    0  0.21397760069E+00 -0.20348946430E+03 -0.75282709170E+03  0.87644545630E+03  0.40000000000E+03 0.  1.
   -9000007    1    1    2    0  502 -0.21397760069E+00  0.20348946430E+03  0.26996373325E+02  0.44959627672E+03  0.40000000000E+03 0. -1.
<mgrwt>
<rscale>  2 0.44878504E+03</rscale>
<asrwt>0</asrwt>
<pdfrwt beam="1">  1       21 0.46170078E-01 0.44878504E+03</pdfrwt>
<pdfrwt beam="2">  1       21 0.15783634E+00 0.44878504E+03</pdfrwt>
<totfact> 0.99000793E+02</totfact>
</mgrwt>
</event>
<event>
 4    1  0.4676529E-002  0.5584610E+03  0.7818608E-02  0.9995543E-01
         21   -1    0    0  501  502  0.00000000000E+00  0.00000000000E+00  0.30595557515E+03  0.30595557515E+03  0.00000000000E+00 0. -1.
         21   -1    0    0  502  503 -0.00000000000E+00 -0.00000000000E+00 -0.11390505508E+04  0.11390505508E+04  0.00000000000E+00 0.  1.
    9000007    1    1    2  501    0  0.37052109700E+03  0.12080051074E+03 -0.18234069859E+03  0.58747491612E+03  0.40000000000E+03 0. -1.
   -9000007    1    1    2    0  503 -0.37052109700E+03 -0.12080051074E+03 -0.65075427711E+03  0.85753120986E+03  0.40000000000E+03 0.  1.
<mgrwt>
<rscale>  2 0.55846096E+03</rscale>
<asrwt>0</asrwt>
<pdfrwt beam="1">  1       21 0.47070089E-01 0.55846096E+03</pdfrwt>
<pdfrwt beam="2">  1       21 0.17523854E+00 0.55846096E+03</pdfrwt>
<totfact> 0.67625913E+02</totfact>
</mgrwt>
</event>
<event>
 4    1  0.4676529E-002  0.4310385E+03  0.7818608E-02  0.1033532E+00
         21   -1    0    0  501  502  0.00000000000E+00  0.00000000000E+00  0.79461239591E+03  0.79461239591E+03  0.00000000000E+00 0. -1.
         21   -1    0    0  502  503 -0.00000000000E+00 -0.00000000000E+00 -0.11684714031E+04  0.11684714031E+04  0.00000000000E+00 0. -1.
    9000007    1    1    2  501    0 -0.26185175544E+02  0.15845662874E+03  0.69093046565E+03  0.81435807540E+03  0.40000000000E+03 0. -1.
   -9000007    1    1    2    0  503  0.26185175544E+02 -0.15845662874E+03 -0.10647894728E+04  0.11487257236E+04  0.40000000000E+03 0. -1.
<mgrwt>
<rscale>  2 0.43103847E+03</rscale>
<asrwt>0</asrwt>
<pdfrwt beam="1">  1       21 0.12224806E+00 0.43103847E+03</pdfrwt>
<pdfrwt beam="2">  1       21 0.17976483E+00 0.43103847E+03</pdfrwt>
<totfact> 0.73852847E+01</totfact>
</mgrwt>
</event>
<event>
 4    1  0.4676529E-002  0.4105686E+03  0.7818608E-02  0.1040180E+00
         21   -1    0    0  501  502  0.00000000000E+00  0.00000000000E+00  0.13032079267E+04  0.13032079267E+04  0.00000000000E+00 0.  1.
         21   -1    0    0  502  503 -0.00000000000E+00 -0.00000000000E+00 -0.20680397980E+03  0.20680397980E+03  0.00000000000E+00 0.  1.
    9000007    1    1    2  501    0  0.80458732727E+02  0.45748986183E+02  0.86140196302E+02  0.41950770056E+03  0.40000000000E+03 0.  1.
   -9000007    1    1    2    0  503 -0.80458732727E+02 -0.45748986183E+02  0.10102637506E+04  0.10905042059E+04  0.40000000000E+03 0.  1.
<mgrwt>
<rscale>  2 0.41056860E+03</rscale>
<asrwt>0</asrwt>
<pdfrwt beam="1">  1       21 0.20049352E+00 0.41056860E+03</pdfrwt>
<pdfrwt beam="2">  1       21 0.31815998E-01 0.41056860E+03</pdfrwt>
<totfact> 0.10776301E+03</totfact>
</mgrwt>
</event>
<event>
 4    1  0.4676529E-002  0.5801673E+03  0.7818608E-02  0.9947429E-01
         21   -1    0    0  501  502  0.00000000000E+00  0.00000000000E+00  0.84220368972E+03  0.84220368972E+03  0.00000000000E+00 0. -1.
         21   -1    0    0  502  503 -0.00000000000E+00 -0.00000000000E+00 -0.56132365848E+03  0.56132365848E+03  0.00000000000E+00 0. -1.
    9000007    1    1    2  501    0  0.40483357111E+03 -0.11271170276E+03  0.51705012357E+03  0.77713253600E+03  0.40000000000E+03 0. -1.
   -9000007    1    1    2    0  503 -0.40483357111E+03  0.11271170276E+03 -0.23617009233E+03  0.62639481220E+03  0.40000000000E+03 0. -1.
<mgrwt>
<rscale>  2 0.58016735E+03</rscale>
<asrwt>0</asrwt>
<pdfrwt beam="1">  1       21 0.12956980E+00 0.58016735E+03</pdfrwt>
<pdfrwt beam="2">  1       21 0.86357486E-01 0.58016735E+03</pdfrwt>
<totfact> 0.39757498E+02</totfact>
</mgrwt>
</event>
<event>
 4    1  0.4676529E-002  0.4500887E+03  0.7818608E-02  0.1027696E+00
         21   -1    0    0  503  502  0.00000000000E+00  0.00000000000E+00  0.92162959802E+03  0.92162959802E+03  0.00000000000E+00 0.  1.
         21   -1    0    0  501  503 -0.00000000000E+00 -0.00000000000E+00 -0.22853618115E+03  0.22853618115E+03  0.00000000000E+00 0.  1.
    9000007    1    1    2  501    0  0.12305822029E+03 -0.16563963186E+03  0.45894558007E+03  0.64281479346E+03  0.40000000000E+03 0.  1.
   -9000007    1    1    2    0  502 -0.12305822029E+03  0.16563963186E+03  0.23414783679E+03  0.50735098571E+03  0.40000000000E+03 0.  1.
<mgrwt>
<rscale>  2 0.45008867E+03</rscale>
<asrwt>0</asrwt>
<pdfrwt beam="1">  1       21 0.14178917E+00 0.45008867E+03</pdfrwt>
<pdfrwt beam="2">  1       21 0.35159413E-01 0.45008867E+03</pdfrwt>
<totfact> 0.23222683E+03</totfact>
</mgrwt>
</event>
<event>
 4    1  0.4676529E-002  0.5918883E+03  0.7818608E-02  0.9922380E-01
         21   -1    0    0  503  502  0.00000000000E+00  0.00000000000E+00  0.17387351801E+03  0.17387351801E+03  0.00000000000E+00 0. -1.
         21   -1    0    0  501  503 -0.00000000000E+00 -0.00000000000E+00 -0.20168885835E+04  0.20168885835E+04  0.00000000000E+00 0. -1.
    9000007    1    1    2  501    0 -0.40392222163E+03 -0.16485946072E+03 -0.95619720823E+03  0.11245643174E+04  0.40000000000E+03 0. -1.
   -9000007    1    1    2    0  502  0.40392222163E+03  0.16485946072E+03 -0.88681785730E+03  0.10661977842E+04  0.40000000000E+03 0. -1.
<mgrwt>
<rscale>  2 0.59188834E+03</rscale>
<asrwt>0</asrwt>
<pdfrwt beam="1">  1       21 0.26749773E-01 0.59188834E+03</pdfrwt>
<pdfrwt beam="2">  1       21 0.31029054E+00 0.59188834E+03</pdfrwt>
<totfact> 0.28998979E+02</totfact>
</mgrwt>
</event>
<event>
 4    1  0.4676529E-002  0.5563462E+03  0.7818608E-02  0.1000036E+00
         21   -1    0    0  503  502  0.00000000000E+00  0.00000000000E+00  0.39314891558E+03  0.39314891558E+03  0.00000000000E+00 0.  1.
         21   -1    0    0  501  503 -0.00000000000E+00 -0.00000000000E+00 -0.79082117370E+03  0.79082117370E+03  0.00000000000E+00 0. -1.
    9000007    1    1    2  501    0  0.24923821117E+03  0.29563721124E+03 -0.23841040637E+03  0.60527726576E+03  0.40000000000E+03 0. -1.
   -9000007    1    1    2    0  502 -0.24923821117E+03 -0.29563721124E+03 -0.15926185175E+03  0.57869282353E+03  0.40000000000E+03 0. -1.
<mgrwt>
<rscale>  2 0.55634616E+03</rscale>
<asrwt>0</asrwt>
<pdfrwt beam="1">  1       21 0.60484449E-01 0.55634616E+03</pdfrwt>
<pdfrwt beam="2">  1       21 0.12166480E+00 0.55634616E+03</pdfrwt>
<totfact> 0.10626502E+03</totfact>
</mgrwt>
</event>
<event>
 4    1  0.4676529E-002  0.8912943E+03  0.7818608E-02  0.9436530E-01
         21   -1    0    0  503  502  0.00000000000E+00  0.00000000000E+00  0.15192141033E+04  0.15192141033E+04  0.00000000000E+00 0. -1.
         21   -1    0    0  501  503 -0.00000000000E+00 -0.00000000000E+00 -0.80776446726E+03  0.80776446726E+03  0.00000000000E+00 0.  1.
    9000007    1    1    2  501    0 -0.74802158459E+03 -0.27362238939E+03  0.10466561970E+04  0.13747344099E+04  0.40000000000E+03 0. -1.
   -9000007    1    1    2    0  502  0.74802158459E+03  0.27362238939E+03 -0.33520656098E+03  0.95224416066E+03  0.40000000000E+03 0.  1.
<mgrwt>
<rscale>  2 0.89129429E+03</rscale>
<asrwt>0</asrwt>
<pdfrwt beam="1">  1       21 0.23372525E+00 0.89129429E+03</pdfrwt>
<pdfrwt beam="2">  1       21 0.12427146E+00 0.89129429E+03</pdfrwt>
<totfact> 0.25298627E+01</totfact>
</mgrwt>
</event>
<event>
 4    1  0.4676529E-002  0.4077193E+03  0.7818608E-02  0.1041139E+00
         21   -1    0    0  503  502  0.00000000000E+00  0.00000000000E+00  0.18098864424E+04  0.18098864424E+04  0.00000000000E+00 0.  1.
         21   -1    0    0  501  503 -0.00000000000E+00 -0.00000000000E+00 -0.16201912109E+03  0.16201912109E+03  0.00000000000E+00 0.  1.
    9000007    1    1    2  501    0 -0.81998745206E+01 -0.78535084766E+02  0.17507328732E+03  0.44371798861E+03  0.40000000000E+03 0.  1.
   -9000007    1    1    2    0  502  0.81998745206E+01  0.78535084766E+02  0.14727940339E+04  0.15281875748E+04  0.40000000000E+03 0.  1.
<mgrwt>
<rscale>  2 0.40771926E+03</rscale>
<asrwt>0</asrwt>
<pdfrwt beam="1">  1       21 0.27844405E+00 0.40771926E+03</pdfrwt>
<pdfrwt beam="2">  1       21 0.24926020E-01 0.40771926E+03</pdfrwt>
<totfact> 0.57041232E+02</totfact>
</mgrwt>
</event>
<event>
 4    1  0.4676529E-002  0.4430864E+03  0.7818608E-02  0.1029804E+00
         21   -1    0    0  501  502  0.00000000000E+00  0.00000000000E+00  0.85890945430E+03  0.85890945430E+03  0.00000000000E+00 0.  1.
         21   -1    0    0  502  503 -0.00000000000E+00 -0.00000000000E+00 -0.23132748431E+03  0.23132748431E+03  0.00000000000E+00 0.  1.
    9000007    1    1    2  501    0  0.19048740222E+03  0.63326432974E+01  0.37324893337E+03  0.57934473247E+03  0.40000000000E+03 0. -1.
   -9000007    1    1    2    0  503 -0.19048740222E+03 -0.63326432974E+01  0.25433303662E+03  0.51089220614E+03  0.40000000000E+03 0. -1.
<mgrwt>
<rscale>  2 0.44308639E+03</rscale>
<asrwt>0</asrwt>
<pdfrwt beam="1">  1       21 0.13213991E+00 0.44308639E+03</pdfrwt>
<pdfrwt beam="2">  1       21 0.35588844E-01 0.44308639E+03</pdfrwt>
<totfact> 0.27358577E+03</totfact>
</mgrwt>
</event>
<event>
 4    1  0.4676529E-002  0.4760602E+03  0.7818608E-02  0.1020224E+00
         21   -1    0    0  501  502  0.00000000000E+00  0.00000000000E+00  0.94320274384E+02  0.94320274384E+02  0.00000000000E+00 0.  1.
         21   -1    0    0  502  503 -0.00000000000E+00 -0.00000000000E+00 -0.25955945870E+04  0.25955945870E+04  0.00000000000E+00 0.  1.
    9000007    1    1    2  501    0  0.53035313357E+02 -0.25262729207E+03 -0.16171853670E+04  0.16858000488E+04  0.40000000000E+03 0.  1.
   -9000007    1    1    2    0  503 -0.53035313357E+02  0.25262729207E+03 -0.88408894558E+03  0.10041148126E+04  0.40000000000E+03 0.  1.
<mgrwt>
<rscale>  2 0.47606018E+03</rscale>
<asrwt>0</asrwt>
<pdfrwt beam="1">  1       21 0.14510812E-01 0.47606018E+03</pdfrwt>
<pdfrwt beam="2">  1       21 0.39932223E+00 0.47606018E+03</pdfrwt>
<totfact> 0.27679488E+02</totfact>
</mgrwt>
</event>
<event>
 4    1  0.4676529E-002  0.4595722E+03  0.7818608E-02  0.1024905E+00
         21   -1    0    0  501  502  0.00000000000E+00  0.00000000000E+00  0.29130703801E+03  0.29130703801E+03  0.00000000000E+00 0.  1.
         21   -1    0    0  502  503 -0.00000000000E+00 -0.00000000000E+00 -0.73318316591E+03  0.73318316591E+03  0.00000000000E+00 0. -1.
    9000007    1    1    2  501    0 -0.14510701696E+03  0.17363911340E+03 -0.27495279174E+03  0.53554236598E+03  0.40000000000E+03 0. -1.
   -9000007    1    1    2    0  503  0.14510701696E+03 -0.17363911340E+03 -0.16692333616E+03  0.48894783794E+03  0.40000000000E+03 0.  1.
<mgrwt>
<rscale>  2 0.45957218E+03</rscale>
<asrwt>0</asrwt>
<pdfrwt beam="1">  1       21 0.44816468E-01 0.45957218E+03</pdfrwt>
<pdfrwt beam="2">  1       21 0.11279741E+00 0.45957218E+03</pdfrwt>
<totfact> 0.25323972E+03</totfact>
</mgrwt>
</event>
<event>
 4    1  0.4676529E-002  0.4281724E+03  0.7818608E-02  0.1034439E+00
         21   -1    0    0  503  502  0.00000000000E+00  0.00000000000E+00  0.23395222345E+03  0.23395222345E+03  0.00000000000E+00 0. -1.
         21   -1    0    0  501  503 -0.00000000000E+00 -0.00000000000E+00 -0.88315324243E+03  0.88315324243E+03  0.00000000000E+00 0. -1.
    9000007    1    1    2  501    0 -0.15267066659E+03 -0.48275903926E+01 -0.51210496955E+03  0.66752014045E+03  0.40000000000E+03 0.  1.
   -9000007    1    1    2    0  502  0.15267066659E+03  0.48275903926E+01 -0.13709604943E+03  0.44958532542E+03  0.40000000000E+03 0.  1.
<mgrwt>
<rscale>  2 0.42817244E+03</rscale>
<asrwt>0</asrwt>
<pdfrwt beam="1">  1       21 0.35992650E-01 0.42817244E+03</pdfrwt>
<pdfrwt beam="2">  1       21 0.13586973E+00 0.42817244E+03</pdfrwt>
<totfact> 0.25010000E+03</totfact>
</mgrwt>
</event>
<event>
 4    1  0.4676529E-002  0.6592060E+03  0.7818608E-02  0.9789656E-01
         21   -1    0    0  503  502  0.00000000000E+00  0.00000000000E+00  0.81834204056E+03  0.81834204056E+03  0.00000000000E+00 0.  1.
         21   -1    0    0  501  503 -0.00000000000E+00 -0.00000000000E+00 -0.83269135757E+03  0.83269135757E+03  0.00000000000E+00 0.  1.
    9000007    1    1    2  501    0  0.48153210796E+03 -0.20659003816E+03 -0.50405731967E+03  0.82983516217E+03  0.40000000000E+03 0.  1.
   -9000007    1    1    2    0  502 -0.48153210796E+03  0.20659003816E+03  0.48970800266E+03  0.82119823595E+03  0.40000000000E+03 0.  1.
<mgrwt>
<rscale>  2 0.65920605E+03</rscale>
<asrwt>0</asrwt>
<pdfrwt beam="1">  1       21 0.12589878E+00 0.65920605E+03</pdfrwt>
<pdfrwt beam="2">  1       21 0.12810636E+00 0.65920605E+03</pdfrwt>
<totfact> 0.15671248E+02</totfact>
</mgrwt>
</event>
<event>
 4    1  0.4676529E-002  0.4703268E+03  0.7818608E-02  0.1021828E+00
         21   -1    0    0  501  502  0.00000000000E+00  0.00000000000E+00  0.74537268182E+03  0.74537268182E+03  0.00000000000E+00 0. -1.
         21   -1    0    0  502  503 -0.00000000000E+00 -0.00000000000E+00 -0.33704722096E+03  0.33704722096E+03  0.00000000000E+00 0. -1.
    9000007    1    1    2  501    0 -0.56260816458E+01  0.24733705463E+03  0.39124313382E+03  0.61178301803E+03  0.40000000000E+03 0. -1.
   -9000007    1    1    2    0  503  0.56260816458E+01 -0.24733705463E+03  0.17082327028E+02  0.47063688475E+03  0.40000000000E+03 0. -1.
<mgrwt>
<rscale>  2 0.47032677E+03</rscale>
<asrwt>0</asrwt>
<pdfrwt beam="1">  1       21 0.11467272E+00 0.47032677E+03</pdfrwt>
<pdfrwt beam="2">  1       21 0.51853419E-01 0.47032677E+03</pdfrwt>
<totfact> 0.17775002E+03</totfact>
</mgrwt>
</event>
<event>
 4    1  0.4676529E-002  0.4956597E+03  0.7818608E-02  0.1014918E+00
         21   -1    0    0  501  502  0.00000000000E+00  0.00000000000E+00  0.54090114604E+03  0.54090114604E+03  0.00000000000E+00 0. -1.
         21   -1    0    0  502  503 -0.00000000000E+00 -0.00000000000E+00 -0.67706123725E+03  0.67706123725E+03  0.00000000000E+00 0. -1.
    9000007    1    1    2  501    0  0.18902494582E+03 -0.22349069974E+03  0.28130552980E+03  0.56992220882E+03  0.40000000000E+03 0. -1.
   -9000007    1    1    2    0  503 -0.18902494582E+03  0.22349069974E+03 -0.41746562101E+03  0.64804017447E+03  0.40000000000E+03 0. -1.
<mgrwt>
<rscale>  2 0.49565968E+03</rscale>
<asrwt>0</asrwt>
<pdfrwt beam="1">  1       21 0.83215561E-01 0.49565968E+03</pdfrwt>
<pdfrwt beam="2">  1       21 0.10416327E+00 0.49565968E+03</pdfrwt>
<totfact> 0.77752725E+02</totfact>
</mgrwt>
</event>
<event>
 4    1  0.4676529E-002  0.4981760E+03  0.7818608E-02  0.1014256E+00
         21   -1    0    0  501  502  0.00000000000E+00  0.00000000000E+00  0.41406627515E+03  0.41406627515E+03  0.00000000000E+00 0.  1.
         21   -1    0    0  502  503 -0.00000000000E+00 -0.00000000000E+00 -0.13166935359E+04  0.13166935359E+04  0.00000000000E+00 0.  1.
    9000007    1    1    2  501    0  0.19616722548E+03 -0.22292991412E+03  0.18742279772E+03  0.53226556536E+03  0.40000000000E+03 0.  1.
   -9000007    1    1    2    0  503 -0.19616722548E+03  0.22292991412E+03 -0.10900500585E+04  0.11984942457E+04  0.40000000000E+03 0.  1.
<mgrwt>
<rscale>  2 0.49817600E+03</rscale>
<asrwt>0</asrwt>
<pdfrwt beam="1">  1       21 0.63702503E-01 0.49817600E+03</pdfrwt>
<pdfrwt beam="2">  1       21 0.20256824E+00 0.49817600E+03</pdfrwt>
<totfact> 0.23290839E+02</totfact>
</mgrwt>
</event>
<event>
 4    1  0.4676529E-002  0.4825387E+03  0.7818608E-02  0.1018440E+00
         21   -1    0    0  501  502  0.00000000000E+00  0.00000000000E+00  0.17360797284E+03  0.17360797284E+03  0.00000000000E+00 0. -1.
         21   -1    0    0  502  503 -0.00000000000E+00 -0.00000000000E+00 -0.14479627824E+04  0.14479627824E+04  0.00000000000E+00 0.  1.
    9000007    1    1    2  501    0  0.22326754996E+03 -0.15164182636E+03 -0.85733302575E+03  0.98380056892E+03  0.40000000000E+03 0.  1.
   -9000007    1    1    2    0  503 -0.22326754996E+03  0.15164182636E+03 -0.41702178379E+03  0.63777018629E+03  0.40000000000E+03 0. -1.
<mgrwt>
<rscale>  2 0.48253875E+03</rscale>
<asrwt>0</asrwt>
<pdfrwt beam="1">  1       21 0.26708918E-01 0.48253875E+03</pdfrwt>
<pdfrwt beam="2">  1       21 0.22276352E+00 0.48253875E+03</pdfrwt>
<totfact> 0.10555963E+03</totfact>
</mgrwt>
</event>
<event>
 4    1  0.4676529E-002  0.4373475E+03  0.7818608E-02  0.1031564E+00
         21   -1    0    0  501  502  0.00000000000E+00  0.00000000000E+00  0.56897780228E+03  0.56897780228E+03  0.00000000000E+00 0. -1.
         21   -1    0    0  502  503 -0.00000000000E+00 -0.00000000000E+00 -0.48299432150E+03  0.48299432150E+03  0.00000000000E+00 0.  1.
    9000007    1    1    2  501    0 -0.13840158677E+03 -0.11008097577E+03  0.33299533938E+03  0.54968965471E+03  0.40000000000E+03 0. -1.
   -9000007    1    1    2    0  503  0.13840158677E+03  0.11008097577E+03 -0.24701185860E+03  0.50228246907E+03  0.40000000000E+03 0.  1.
<mgrwt>
<rscale>  2 0.43734748E+03</rscale>
<asrwt>0</asrwt>
<pdfrwt beam="1">  1       21 0.87535047E-01 0.43734748E+03</pdfrwt>
<pdfrwt beam="2">  1       21 0.74306818E-01 0.43734748E+03</pdfrwt>
<totfact> 0.15691904E+03</totfact>
</mgrwt>
</event>
<event>
 4    1  0.4676529E-002  0.5529099E+03  0.7818608E-02  0.1000823E+00
         21   -1    0    0  503  502  0.00000000000E+00  0.00000000000E+00  0.82429244336E+03  0.82429244336E+03  0.00000000000E+00 0. -1.
         21   -1    0    0  501  503 -0.00000000000E+00 -0.00000000000E+00 -0.41939989212E+03  0.41939989212E+03  0.00000000000E+00 0. -1.
    9000007    1    1    2  501    0  0.12628291277E+03  0.36022489405E+03 -0.90738521017E+01  0.55298434258E+03  0.40000000000E+03 0. -1.
   -9000007    1    1    2    0  502 -0.12628291277E+03 -0.36022489405E+03  0.41396640334E+03  0.69070799289E+03  0.40000000000E+03 0. -1.
<mgrwt>
<rscale>  2 0.55290989E+03</rscale>
<asrwt>0</asrwt>
<pdfrwt beam="1">  1       21 0.12681422E+00 0.55290989E+03</pdfrwt>
<pdfrwt beam="2">  1       21 0.64523061E-01 0.55290989E+03</pdfrwt>
<totfact> 0.82819240E+02</totfact>
</mgrwt>
</event>
<event>
 4    1  0.4676529E-002  0.4217651E+03  0.7818608E-02  0.1036493E+00
         21   -1    0    0  501  502  0.00000000000E+00  0.00000000000E+00  0.59940535515E+03  0.59940535515E+03  0.00000000000E+00 0. -1.
         21   -1    0    0  502  503 -0.00000000000E+00 -0.00000000000E+00 -0.47974460713E+03  0.47974460713E+03  0.00000000000E+00 0. -1.
    9000007    1    1    2  501    0  0.11891412309E+03  0.61198525861E+02  0.39305843746E+03  0.57652472930E+03  0.40000000000E+03 0. -1.
   -9000007    1    1    2    0  503 -0.11891412309E+03 -0.61198525861E+02 -0.27339768943E+03  0.50262523298E+03  0.40000000000E+03 0. -1.
<mgrwt>
<rscale>  2 0.42176513E+03</rscale>
<asrwt>0</asrwt>
<pdfrwt beam="1">  1       21 0.92216208E-01 0.42176513E+03</pdfrwt>
<pdfrwt beam="2">  1       21 0.73806863E-01 0.42176513E+03</pdfrwt>
<totfact> 0.14177470E+03</totfact>
</mgrwt>
</event>
<event>
 4    1  0.4676529E-002  0.4351085E+03  0.7818608E-02  0.1032258E+00
         21   -1    0    0  501  502  0.00000000000E+00  0.00000000000E+00  0.91274080061E+03  0.91274080061E+03  0.00000000000E+00 0. -1.
         21   -1    0    0  502  503 -0.00000000000E+00 -0.00000000000E+00 -0.24071695542E+03  0.24071695542E+03  0.00000000000E+00 0.  1.
    9000007    1    1    2  501    0 -0.15823777845E+03 -0.65423556469E+02  0.12151077197E+03  0.45175690805E+03  0.40000000000E+03 0.  1.
   -9000007    1    1    2    0  503  0.15823777845E+03  0.65423556469E+02  0.55051307322E+03  0.70170084798E+03  0.40000000000E+03 0. -1.
<mgrwt>
<rscale>  2 0.43510853E+03</rscale>
<asrwt>0</asrwt>
<pdfrwt beam="1">  1       21 0.14042166E+00 0.43510853E+03</pdfrwt>
<pdfrwt beam="2">  1       21 0.37033378E-01 0.43510853E+03</pdfrwt>
<totfact> 0.21572274E+03</totfact>
</mgrwt>
</event>
<event>
 4    1  0.4676529E-002  0.4913226E+03  0.7818608E-02  0.1016069E+00
         21   -1    0    0  501  502  0.00000000000E+00  0.00000000000E+00  0.10112288354E+04  0.10112288354E+04  0.00000000000E+00 0.  1.
         21   -1    0    0  502  503 -0.00000000000E+00 -0.00000000000E+00 -0.29594380105E+03  0.29594380105E+03  0.00000000000E+00 0.  1.
    9000007    1    1    2  501    0 -0.14183145481E+03 -0.24755156663E+03  0.64504893756E+03  0.81085514833E+03  0.40000000000E+03 0.  1.
   -9000007    1    1    2    0  503  0.14183145481E+03  0.24755156663E+03  0.70236096771E+02  0.49631748811E+03  0.40000000000E+03 0.  1.
<mgrwt>
<rscale>  2 0.49132264E+03</rscale>
<asrwt>0</asrwt>
<pdfrwt beam="1">  1       21 0.15557367E+00 0.49132264E+03</pdfrwt>
<pdfrwt beam="2">  1       21 0.45529816E-01 0.49132264E+03</pdfrwt>
<totfact> 0.10425174E+03</totfact>
</mgrwt>
</event>
<event>
 4    1  0.4676529E-002  0.7681254E+03  0.7818608E-02  0.9607336E-01
         21   -1    0    0  503  502  0.00000000000E+00  0.00000000000E+00  0.14691139937E+04  0.14691139937E+04  0.00000000000E+00 0.  1.
         21   -1    0    0  501  503 -0.00000000000E+00 -0.00000000000E+00 -0.43100486616E+03  0.43100486616E+03  0.00000000000E+00 0. -1.
    9000007    1    1    2  501    0 -0.37886712546E+03 -0.53523477975E+03  0.27096026727E+03  0.81451582836E+03  0.40000000000E+03 0.  1.
   -9000007    1    1    2    0  502  0.37886712546E+03  0.53523477975E+03  0.76714886028E+03  0.10856030315E+04  0.40000000000E+03 0. -1.
<mgrwt>
<rscale>  2 0.76812536E+03</rscale>
<asrwt>0</asrwt>
<pdfrwt beam="1">  1       21 0.22601754E+00 0.76812536E+03</pdfrwt>
<pdfrwt beam="2">  1       21 0.66308442E-01 0.76812536E+03</pdfrwt>
<totfact> 0.13468597E+02</totfact>
</mgrwt>
</event>
<event>
 4    1  0.4676529E-002  0.5540448E+03  0.7818608E-02  0.1000562E+00
         21   -1    0    0  501  502  0.00000000000E+00  0.00000000000E+00  0.62080239541E+03  0.62080239541E+03  0.00000000000E+00 0. -1.
         21   -1    0    0  502  503 -0.00000000000E+00 -0.00000000000E+00 -0.51503262642E+03  0.51503262642E+03  0.00000000000E+00 0. -1.
    9000007    1    1    2  501    0  0.32350052902E+03 -0.20570147075E+03  0.16637270273E+03  0.57848557766E+03  0.40000000000E+03 0. -1.
   -9000007    1    1    2    0  503 -0.32350052902E+03  0.20570147075E+03 -0.60602933738E+02  0.55734944417E+03  0.40000000000E+03 0. -1.
<mgrwt>
<rscale>  2 0.55404484E+03</rscale>
<asrwt>0</asrwt>
<pdfrwt beam="1">  1       21 0.95508062E-01 0.55404484E+03</pdfrwt>
<pdfrwt beam="2">  1       21 0.79235788E-01 0.55404484E+03</pdfrwt>
<totfact> 0.10547658E+03</totfact>
</mgrwt>
</event>
<event>
 4    1  0.4676529E-002  0.6812878E+03  0.7818608E-02  0.9749779E-01
         21   -1    0    0  501  502  0.00000000000E+00  0.00000000000E+00  0.19819888397E+03  0.19819888397E+03  0.00000000000E+00 0.  1.
         21   -1    0    0  502  503 -0.00000000000E+00 -0.00000000000E+00 -0.25617536367E+04  0.25617536367E+04  0.00000000000E+00 0.  1.
    9000007    1    1    2  501    0  0.16642872191E+03  0.52578939414E+03 -0.77746744709E+03  0.10337352842E+04  0.40000000000E+03 0.  1.
   -9000007    1    1    2    0  503 -0.16642872191E+03 -0.52578939414E+03 -0.15860873056E+04  0.17262172365E+04  0.40000000000E+03 0.  1.
<mgrwt>
<rscale>  2 0.68128776E+03</rscale>
<asrwt>0</asrwt>
<pdfrwt beam="1">  1       21 0.30492134E-01 0.68128776E+03</pdfrwt>
<pdfrwt beam="2">  1       21 0.39411596E+00 0.68128776E+03</pdfrwt>
<totfact> 0.64344946E+01</totfact>
</mgrwt>
</event>
<event>
 4    1  0.4676529E-002  0.4386940E+03  0.7818608E-02  0.1031148E+00
         21   -1    0    0  503  502  0.00000000000E+00  0.00000000000E+00  0.87960151864E+03  0.87960151864E+03  0.00000000000E+00 0.  1.
         21   -1    0    0  501  503 -0.00000000000E+00 -0.00000000000E+00 -0.28971986676E+03  0.28971986676E+03  0.00000000000E+00 0. -1.
    9000007    1    1    2  501    0 -0.15331462689E+03  0.94588989036E+02  0.56638341821E+01  0.43873059009E+03  0.40000000000E+03 0. -1.
   -9000007    1    1    2    0  502  0.15331462689E+03 -0.94588989036E+02  0.58421781770E+03  0.73059079530E+03  0.40000000000E+03 0.  1.
<mgrwt>
<rscale>  2 0.43869403E+03</rscale>
<asrwt>0</asrwt>
<pdfrwt beam="1">  1       21 0.13532331E+00 0.43869403E+03</pdfrwt>
<pdfrwt beam="2">  1       21 0.44572287E-01 0.43869403E+03</pdfrwt>
<totfact> 0.16205555E+03</totfact>
</mgrwt>
</event>
<event>
 4    1  0.4676529E-002  0.5171496E+03  0.7818608E-02  0.1009397E+00
         21   -1    0    0  501  502  0.00000000000E+00  0.00000000000E+00  0.18037996052E+03  0.18037996052E+03  0.00000000000E+00 0.  1.
         21   -1    0    0  502  503 -0.00000000000E+00 -0.00000000000E+00 -0.15239282892E+04  0.15239282892E+04  0.00000000000E+00 0. -1.
    9000007    1    1    2  501    0 -0.45395854805E+02 -0.32462739092E+03 -0.81199036312E+03  0.96269002091E+03  0.40000000000E+03 0.  1.
   -9000007    1    1    2    0  503  0.45395854805E+02  0.32462739092E+03 -0.53155796559E+03  0.74161822884E+03  0.40000000000E+03 0.  1.
<mgrwt>
<rscale>  2 0.51714962E+03</rscale>
<asrwt>0</asrwt>
<pdfrwt beam="1">  1       21 0.27750764E-01 0.51714962E+03</pdfrwt>
<pdfrwt beam="2">  1       21 0.23445050E+00 0.51714962E+03</pdfrwt>
<totfact> 0.81333345E+02</totfact>
</mgrwt>
</event>
<event>
 4    1  0.4676529E-002  0.4010918E+03  0.7818608E-02  0.1043402E+00
         21   -1    0    0  503  502  0.00000000000E+00  0.00000000000E+00  0.37913540095E+03  0.37913540095E+03  0.00000000000E+00 0. -1.
         21   -1    0    0  501  503 -0.00000000000E+00 -0.00000000000E+00 -0.62777578306E+03  0.62777578306E+03  0.00000000000E+00 0. -1.
    9000007    1    1    2  501    0 -0.20331954223E+02 -0.21475728108E+02 -0.41093214369E+03  0.57422976410E+03  0.40000000000E+03 0. -1.
   -9000007    1    1    2    0  502  0.20331954223E+02  0.21475728108E+02  0.16229176158E+03  0.43268141991E+03  0.40000000000E+03 0. -1.
<mgrwt>
<rscale>  2 0.40109175E+03</rscale>
<asrwt>0</asrwt>
<pdfrwt beam="1">  1       21 0.58328524E-01 0.40109175E+03</pdfrwt>
<pdfrwt beam="2">  1       21 0.96580888E-01 0.40109175E+03</pdfrwt>
<totfact> 0.21604940E+03</totfact>
</mgrwt>
</event>
<event>
 4    1  0.4676529E-002  0.4150146E+03  0.7818608E-02  0.1038701E+00
         21   -1    0    0  501  502  0.00000000000E+00  0.00000000000E+00  0.18433934846E+03  0.18433934846E+03  0.00000000000E+00 0. -1.
         21   -1    0    0  502  503 -0.00000000000E+00 -0.00000000000E+00 -0.10290259438E+04  0.10290259438E+04  0.00000000000E+00 0.  1.
    9000007    1    1    2  501    0  0.24789431144E+02  0.10780819203E+03 -0.23832010447E+03  0.47857454420E+03  0.40000000000E+03 0. -1.
   -9000007    1    1    2    0  503 -0.24789431144E+02 -0.10780819203E+03 -0.60636649083E+03  0.73479074802E+03  0.40000000000E+03 0.  1.
<mgrwt>
<rscale>  2 0.41501460E+03</rscale>
<asrwt>0</asrwt>
<pdfrwt beam="1">  1       21 0.28359901E-01 0.41501460E+03</pdfrwt>
<pdfrwt beam="2">  1       21 0.15831168E+00 0.41501460E+03</pdfrwt>
<totfact> 0.26824359E+03</totfact>
</mgrwt>
</event>
<event>
 4    1  0.4676529E-002  0.4159915E+03  0.7818608E-02  0.1038379E+00
         21   -1    0    0  503  502  0.00000000000E+00  0.00000000000E+00  0.72619277951E+03  0.72619277951E+03  0.00000000000E+00 0.  1.
         21   -1    0    0  501  503 -0.00000000000E+00 -0.00000000000E+00 -0.48248265544E+03  0.48248265544E+03  0.00000000000E+00 0.  1.
    9000007    1    1    2  501    0  0.97554793121E+02  0.59430667706E+02 -0.30807684678E+03  0.51764880512E+03  0.40000000000E+03 0.  1.
   -9000007    1    1    2    0  502 -0.97554793121E+02 -0.59430667706E+02  0.55178697085E+03  0.69102662982E+03  0.40000000000E+03 0.  1.
<mgrwt>
<rscale>  2 0.41599152E+03</rscale>
<asrwt>0</asrwt>
<pdfrwt beam="1">  1       21 0.11172197E+00 0.41599152E+03</pdfrwt>
<pdfrwt beam="2">  1       21 0.74228101E-01 0.41599152E+03</pdfrwt>
<totfact> 0.87965279E+02</totfact>
</mgrwt>
</event>
<event>
 4    1  0.4676529E-002  0.4424101E+03  0.7818608E-02  0.1030010E+00
         21   -1    0    0  501  502  0.00000000000E+00  0.00000000000E+00  0.41009769071E+03  0.41009769071E+03  0.00000000000E+00 0. -1.
         21   -1    0    0  502  503 -0.00000000000E+00 -0.00000000000E+00 -0.60495758406E+03  0.60495758406E+03  0.00000000000E+00 0. -1.
    9000007    1    1    2  501    0  0.18474685376E+03 -0.39941537907E+02  0.13574079299E+03  0.46276591200E+03  0.40000000000E+03 0. -1.
   -9000007    1    1    2    0  503 -0.18474685376E+03  0.39941537907E+02 -0.33060068634E+03  0.55228936277E+03  0.40000000000E+03 0. -1.
<mgrwt>
<rscale>  2 0.44241013E+03</rscale>
<asrwt>0</asrwt>
<pdfrwt beam="1">  1       21 0.63091952E-01 0.44241013E+03</pdfrwt>
<pdfrwt beam="2">  1       21 0.93070397E-01 0.44241013E+03</pdfrwt>
<totfact> 0.19545560E+03</totfact>
</mgrwt>
</event>
<event>
 4    1  0.4676529E-002  0.4082122E+03  0.7818608E-02  0.1040973E+00
         21   -1    0    0  501  502  0.00000000000E+00  0.00000000000E+00  0.24868986506E+03  0.24868986506E+03  0.00000000000E+00 0.  1.
         21   -1    0    0  502  503 -0.00000000000E+00 -0.00000000000E+00 -0.10475287860E+04  0.10475287860E+04  0.00000000000E+00 0.  1.
    9000007    1    1    2  501    0  0.80753017071E+02  0.10779117255E+02 -0.10369335285E+02  0.40834392643E+03  0.40000000000E+03 0.  1.
   -9000007    1    1    2    0  503 -0.80753017071E+02 -0.10779117255E+02 -0.78846958563E+03  0.88787472461E+03  0.40000000000E+03 0.  1.
<mgrwt>
<rscale>  2 0.40821225E+03</rscale>
<asrwt>0</asrwt>
<pdfrwt beam="1">  1       21 0.38259980E-01 0.40821225E+03</pdfrwt>
<pdfrwt beam="2">  1       21 0.16115827E+00 0.40821225E+03</pdfrwt>
<totfact> 0.14045237E+03</totfact>
</mgrwt>
</event>
<event>
 4    1  0.4676529E-002  0.4916107E+03  0.7818608E-02  0.1015992E+00
         21   -1    0    0  503  502  0.00000000000E+00  0.00000000000E+00  0.51634988206E+03  0.51634988206E+03  0.00000000000E+00 0.  1.
         21   -1    0    0  501  503 -0.00000000000E+00 -0.00000000000E+00 -0.49083262838E+03  0.49083262838E+03  0.00000000000E+00 0.  1.
    9000007    1    1    2  501    0 -0.24826327469E+03 -0.14158535000E+03  0.12123838715E+03  0.50633962062E+03  0.40000000000E+03 0.  1.
   -9000007    1    1    2    0  502  0.24826327469E+03  0.14158535000E+03 -0.95721133467E+02  0.50084288982E+03  0.40000000000E+03 0.  1.
<mgrwt>
<rscale>  2 0.49161068E+03</rscale>
<asrwt>0</asrwt>
<pdfrwt beam="1">  1       21 0.79438443E-01 0.49161068E+03</pdfrwt>
<pdfrwt beam="2">  1       21 0.75512712E-01 0.49161068E+03</pdfrwt>
<totfact> 0.18588392E+03</totfact>
</mgrwt>
</event>
<event>
 4    1  0.4676529E-002  0.4395974E+03  0.7818608E-02  0.1030870E+00
         21   -1    0    0  503  502  0.00000000000E+00  0.00000000000E+00  0.86480647785E+03  0.86480647785E+03  0.00000000000E+00 0.  1.
         21   -1    0    0  501  503 -0.00000000000E+00 -0.00000000000E+00 -0.22345573800E+03  0.22345573800E+03  0.00000000000E+00 0. -1.
    9000007    1    1    2  501    0  0.17630381782E+03 -0.46506250826E+02  0.32027967324E+03  0.54389791012E+03  0.40000000000E+03 0. -1.
   -9000007    1    1    2    0  502 -0.17630381782E+03  0.46506250826E+02  0.32107106661E+03  0.54436430574E+03  0.40000000000E+03 0.  1.
<mgrwt>
<rscale>  2 0.43959739E+03</rscale>
<asrwt>0</asrwt>
<pdfrwt beam="1">  1       21 0.13304715E+00 0.43959739E+03</pdfrwt>
<pdfrwt beam="2">  1       21 0.34377806E-01 0.43959739E+03</pdfrwt>
<totfact> 0.28863005E+03</totfact>
</mgrwt>
</event>
<event>
 4    1  0.4676529E-002  0.4175604E+03  0.7818608E-02  0.1037863E+00
         21   -1    0    0  503  502  0.00000000000E+00  0.00000000000E+00  0.33469410510E+03  0.33469410510E+03  0.00000000000E+00 0.  1.
         21   -1    0    0  501  503 -0.00000000000E+00 -0.00000000000E+00 -0.53090072655E+03  0.53090072655E+03  0.00000000000E+00 0.  1.
    9000007    1    1    2  501    0 -0.67267297446E+02  0.99155322973E+02 -0.15737543973E+03  0.44623278276E+03  0.40000000000E+03 0.  1.
   -9000007    1    1    2    0  502  0.67267297446E+02 -0.99155322973E+02 -0.38831181720E+02  0.41936204889E+03  0.40000000000E+03 0.  1.
<mgrwt>
<rscale>  2 0.41756038E+03</rscale>
<asrwt>0</asrwt>
<pdfrwt beam="1">  1       21 0.51491401E-01 0.41756038E+03</pdfrwt>
<pdfrwt beam="2">  1       21 0.81677034E-01 0.41756038E+03</pdfrwt>
<totfact> 0.41674377E+03</totfact>
</mgrwt>
</event>
<event>
 4    1  0.4676529E-002  0.4461365E+03  0.7818608E-02  0.1028880E+00
         21   -1    0    0  501  502  0.00000000000E+00  0.00000000000E+00  0.39744404132E+03  0.39744404132E+03  0.00000000000E+00 0. -1.
         21   -1    0    0  502  503 -0.00000000000E+00 -0.00000000000E+00 -0.55587983916E+03  0.55587983916E+03  0.00000000000E+00 0. -1.
    9000007    1    1    2  501    0  0.16259084165E+03  0.11225853090E+03  0.70832906274E+02  0.45172454013E+03  0.40000000000E+03 0. -1.
   -9000007    1    1    2    0  503 -0.16259084165E+03 -0.11225853090E+03 -0.22926870412E+03  0.50159934034E+03  0.40000000000E+03 0. -1.
<mgrwt>
<rscale>  2 0.44613648E+03</rscale>
<asrwt>0</asrwt>
<pdfrwt beam="1">  1       21 0.61145237E-01 0.44613648E+03</pdfrwt>
<pdfrwt beam="2">  1       21 0.85519975E-01 0.44613648E+03</pdfrwt>
<totfact> 0.25543695E+03</totfact>
</mgrwt>
</event>
<event>
 4    1  0.4676529E-002  0.4112334E+03  0.7818608E-02  0.1039958E+00
         21   -1    0    0  503  502  0.00000000000E+00  0.00000000000E+00  0.31918213911E+03  0.31918213911E+03  0.00000000000E+00 0. -1.
         21   -1    0    0  501  503 -0.00000000000E+00 -0.00000000000E+00 -0.83650316845E+03  0.83650316845E+03  0.00000000000E+00 0. -1.
    9000007    1    1    2  501    0 -0.91688209191E+02  0.26574515973E+02 -0.60853496368E+03  0.73445744235E+03  0.40000000000E+03 0.  1.
   -9000007    1    1    2    0  502  0.91688209191E+02 -0.26574515973E+02  0.91213934347E+02  0.42122786520E+03  0.40000000000E+03 0.  1.
<mgrwt>
<rscale>  2 0.41123343E+03</rscale>
<asrwt>0</asrwt>
<pdfrwt beam="1">  1       21 0.49104945E-01 0.41123343E+03</pdfrwt>
<pdfrwt beam="2">  1       21 0.12869279E+00 0.41123343E+03</pdfrwt>
<totfact> 0.15237149E+03</totfact>
</mgrwt>
</event>
<event>
 4    1  0.4676529E-002  0.5044788E+03  0.7818608E-02  0.1012616E+00
         21   -1    0    0  503  502  0.00000000000E+00  0.00000000000E+00  0.75689097728E+03  0.75689097728E+03  0.00000000000E+00 0. -1.
         21   -1    0    0  501  503 -0.00000000000E+00 -0.00000000000E+00 -0.49891121372E+03  0.49891121372E+03  0.00000000000E+00 0.  1.
    9000007    1    1    2  501    0 -0.21978583734E+03 -0.21492575022E+03 -0.22954520533E+03  0.55424714135E+03  0.40000000000E+03 0.  1.
   -9000007    1    1    2    0  502  0.21978583734E+03  0.21492575022E+03  0.48752496890E+03  0.70155504966E+03  0.40000000000E+03 0.  1.
<mgrwt>
<rscale>  2 0.50447883E+03</rscale>
<asrwt>0</asrwt>
<pdfrwt beam="1">  1       21 0.11644477E+00 0.50447883E+03</pdfrwt>
<pdfrwt beam="2">  1       21 0.76755572E-01 0.50447883E+03</pdfrwt>
<totfact> 0.70801400E+02</totfact>
</mgrwt>
</event>
<event>
 4    1  0.4676529E-002  0.4789884E+03  0.7818608E-02  0.1019414E+00
         21   -1    0    0  503  502  0.00000000000E+00  0.00000000000E+00  0.20489844999E+04  0.20489844999E+04  0.00000000000E+00 0. -1.
         21   -1    0    0  501  503 -0.00000000000E+00 -0.00000000000E+00 -0.11212373986E+03  0.11212373986E+03  0.00000000000E+00 0. -1.
    9000007    1    1    2  501    0 -0.12338386471E+03  0.23282249867E+03  0.10081172604E+04  0.11161228896E+04  0.40000000000E+03 0. -1.
   -9000007    1    1    2    0  502  0.12338386471E+03 -0.23282249867E+03  0.92874349962E+03  0.10449853502E+04  0.40000000000E+03 0. -1.
<mgrwt>
<rscale>  2 0.47898841E+03</rscale>
<asrwt>0</asrwt>
<pdfrwt beam="1">  1       21 0.31522836E+00 0.47898841E+03</pdfrwt>
<pdfrwt beam="2">  1       21 0.17249808E-01 0.47898841E+03</pdfrwt>
<totfact> 0.66488450E+02</totfact>
</mgrwt>
</event>
<event>
 4    1  0.4676529E-002  0.4076654E+03  0.7818608E-02  0.1041157E+00
         21   -1    0    0  501  502  0.00000000000E+00  0.00000000000E+00  0.20781165079E+03  0.20781165079E+03  0.00000000000E+00 0. -1.
         21   -1    0    0  502  503 -0.00000000000E+00 -0.00000000000E+00 -0.82657280878E+03  0.82657280878E+03  0.00000000000E+00 0. -1.
    9000007    1    1    2  501    0 -0.40604656571E+02  0.67397169980E+02 -0.21616104141E+03  0.46142898964E+03  0.40000000000E+03 0. -1.
   -9000007    1    1    2    0  503  0.40604656571E+02 -0.67397169980E+02 -0.40260011658E+03  0.57295546993E+03  0.40000000000E+03 0. -1.
<mgrwt>
<rscale>  2 0.40766545E+03</rscale>
<asrwt>0</asrwt>
<pdfrwt beam="1">  1       21 0.31971023E-01 0.40766545E+03</pdfrwt>
<pdfrwt beam="2">  1       21 0.12716505E+00 0.40766545E+03</pdfrwt>
<totfact> 0.38004674E+03</totfact>
</mgrwt>
</event>
<event>
 4    1  0.4676529E-002  0.7732894E+03  0.7818608E-02  0.9599505E-01
         21   -1    0    0  503  502  0.00000000000E+00  0.00000000000E+00  0.14944936225E+04  0.14944936225E+04  0.00000000000E+00 0.  1.
         21   -1    0    0  501  503 -0.00000000000E+00 -0.00000000000E+00 -0.12084358146E+04  0.12084358146E+04  0.00000000000E+00 0. -1.
    9000007    1    1    2  501    0 -0.65377784413E+03 -0.10271821207E+03 -0.96227959149E+03  0.12344871456E+04  0.40000000000E+03 0. -1.
   -9000007    1    1    2    0  502  0.65377784413E+03  0.10271821207E+03  0.12483373993E+04  0.14684422914E+04  0.40000000000E+03 0.  1.
<mgrwt>
<rscale>  2 0.77328940E+03</rscale>
<asrwt>0</asrwt>
<pdfrwt beam="1">  1       21 0.22992210E+00 0.77328940E+03</pdfrwt>
<pdfrwt beam="2">  1       21 0.18591320E+00 0.77328940E+03</pdfrwt>
<totfact> 0.90517028E+00</totfact>
</mgrwt>
</event>
<event>
 4    1  0.4676529E-002  0.4222423E+03  0.7818608E-02  0.1036339E+00
         21   -1    0    0  503  502  0.00000000000E+00  0.00000000000E+00  0.13423742096E+04  0.13423742096E+04  0.00000000000E+00 0. -1.
         21   -1    0    0  501  503 -0.00000000000E+00 -0.00000000000E+00 -0.16082422182E+03  0.16082422182E+03  0.00000000000E+00 0. -1.
    9000007    1    1    2  501    0  0.11550914976E+03  0.70329387487E+02  0.90443159740E+03  0.99814082213E+03  0.40000000000E+03 0. -1.
   -9000007    1    1    2    0  502 -0.11550914976E+03 -0.70329387487E+02  0.27711839039E+03  0.50505760931E+03  0.40000000000E+03 0. -1.
<mgrwt>
<rscale>  2 0.42224233E+03</rscale>
<asrwt>0</asrwt>
<pdfrwt beam="1">  1       21 0.20651910E+00 0.42224233E+03</pdfrwt>
<pdfrwt beam="2">  1       21 0.24742189E-01 0.42224233E+03</pdfrwt>
<totfact> 0.16042853E+03</totfact>
</mgrwt>
</event>
<event>
 4    1  0.4676529E-002  0.4475552E+03  0.7818608E-02  0.1028454E+00
         21   -1    0    0  503  502  0.00000000000E+00  0.00000000000E+00  0.18341182251E+04  0.18341182251E+04  0.00000000000E+00 0.  1.
         21   -1    0    0  501  503 -0.00000000000E+00 -0.00000000000E+00 -0.25130124283E+03  0.25130124283E+03  0.00000000000E+00 0.  1.
    9000007    1    1    2  501    0 -0.62882830584E+02 -0.19066045083E+03  0.73500632198E+01  0.44761555081E+03  0.40000000000E+03 0.  1.
   -9000007    1    1    2    0  502  0.62882830584E+02  0.19066045083E+03  0.15754669190E+04  0.16378039171E+04  0.40000000000E+03 0.  1.
<mgrwt>
<rscale>  2 0.44755520E+03</rscale>
<asrwt>0</asrwt>
<pdfrwt beam="1">  1       21 0.28217203E+00 0.44755520E+03</pdfrwt>
<pdfrwt beam="2">  1       21 0.38661731E-01 0.44755520E+03</pdfrwt>
<totfact> 0.22052182E+02</totfact>
</mgrwt>
</event>
<event>
 4    1  0.4676529E-002  0.4512929E+03  0.7818608E-02  0.1027337E+00
         21   -1    0    0  503  502  0.00000000000E+00  0.00000000000E+00  0.89100601358E+02  0.89100601358E+02  0.00000000000E+00 0. -1.
         21   -1    0    0  501  503 -0.00000000000E+00 -0.00000000000E+00 -0.23651877932E+04  0.23651877932E+04  0.00000000000E+00 0. -1.
    9000007    1    1    2  501    0 -0.31540153575E+02  0.20656834623E+03 -0.13628802008E+04  0.14356558448E+04  0.40000000000E+03 0. -1.
   -9000007    1    1    2    0  502  0.31540153575E+02 -0.20656834623E+03 -0.91320699102E+03  0.10186325497E+04  0.40000000000E+03 0. -1.
<mgrwt>
<rscale>  2 0.45129288E+03</rscale>
<asrwt>0</asrwt>
<pdfrwt beam="1">  1       21 0.13707784E-01 0.45129288E+03</pdfrwt>
<pdfrwt beam="2">  1       21 0.36387508E+00 0.45129288E+03</pdfrwt>
<totfact> 0.52257928E+02</totfact>
</mgrwt>
</event>
<event>
 4    1  0.4676529E-002  0.5948104E+03  0.7818608E-02  0.9916232E-01
         21   -1    0    0  501  502  0.00000000000E+00  0.00000000000E+00  0.16117333632E+03  0.16117333632E+03  0.00000000000E+00 0. -1.
         21   -1    0    0  502  503 -0.00000000000E+00 -0.00000000000E+00 -0.22235616768E+04  0.22235616768E+04  0.00000000000E+00 0. -1.
    9000007    1    1    2  501    0  0.41477291851E+03 -0.14752238990E+03 -0.89640829089E+03  0.10758007499E+04  0.40000000000E+03 0. -1.
   -9000007    1    1    2    0  503 -0.41477291851E+03  0.14752238990E+03 -0.11659800496E+04  0.13089342633E+04  0.40000000000E+03 0. -1.
<mgrwt>
<rscale>  2 0.59481041E+03</rscale>
<asrwt>0</asrwt>
<pdfrwt beam="1">  1       21 0.24795898E-01 0.59481041E+03</pdfrwt>
<pdfrwt beam="2">  1       21 0.34208641E+00 0.59481041E+03</pdfrwt>
<totfact> 0.21461642E+02</totfact>
</mgrwt>
</event>
<event>
 4    1  0.4676529E-002  0.4839624E+03  0.7818608E-02  0.1018052E+00
         21   -1    0    0  503  502  0.00000000000E+00  0.00000000000E+00  0.28766793178E+04  0.28766793178E+04  0.00000000000E+00 0. -1.
         21   -1    0    0  501  503 -0.00000000000E+00 -0.00000000000E+00 -0.10301409430E+03  0.10301409430E+03  0.00000000000E+00 0.  1.
    9000007    1    1    2  501    0  0.18443949797E+03  0.20050361279E+03  0.70471483246E+03  0.85489333969E+03  0.40000000000E+03 0.  1.
   -9000007    1    1    2    0  502 -0.18443949797E+03 -0.20050361279E+03  0.20689503910E+04  0.21248000724E+04  0.40000000000E+03 0. -1.
<mgrwt>
<rscale>  2 0.48396242E+03</rscale>
<asrwt>0</asrwt>
<pdfrwt beam="1">  1       21 0.44256599E+00 0.48396242E+03</pdfrwt>
<pdfrwt beam="2">  1       21 0.15848324E-01 0.48396242E+03</pdfrwt>
<totfact> 0.12150043E+02</totfact>
</mgrwt>
</event>
<event>
 4    1  0.4676529E-002  0.4202714E+03  0.7818608E-02  0.1036978E+00
         21   -1    0    0  501  502  0.00000000000E+00  0.00000000000E+00  0.25759252749E+03  0.25759252749E+03  0.00000000000E+00 0.  1.
         21   -1    0    0  502  503 -0.00000000000E+00 -0.00000000000E+00 -0.68814000330E+03  0.68814000330E+03  0.00000000000E+00 0.  1.
    9000007    1    1    2  501    0 -0.10402271536E+03 -0.76205893331E+02 -0.18704608798E+03  0.46001554595E+03  0.40000000000E+03 0.  1.
   -9000007    1    1    2    0  503  0.10402271536E+03  0.76205893331E+02 -0.24350138783E+03  0.48571698484E+03  0.40000000000E+03 0.  1.
<mgrwt>
<rscale>  2 0.42027142E+03</rscale>
<asrwt>0</asrwt>
<pdfrwt beam="1">  1       21 0.39629620E-01 0.42027142E+03</pdfrwt>
<pdfrwt beam="2">  1       21 0.10586769E+00 0.42027142E+03</pdfrwt>
<totfact> 0.38798668E+03</totfact>
</mgrwt>
</event>
<event>
 4    1  0.4676529E-002  0.5367061E+03  0.7818608E-02  0.1004619E+00
         21   -1    0    0  501  502  0.00000000000E+00  0.00000000000E+00  0.96835567891E+03  0.96835567891E+03  0.00000000000E+00 0. -1.
         21   -1    0    0  502  503 -0.00000000000E+00 -0.00000000000E+00 -0.56536179495E+03  0.56536179495E+03  0.00000000000E+00 0. -1.
    9000007    1    1    2  501    0 -0.74469047895E+02  0.35001114684E+03  0.72937623693E+03  0.90556233192E+03  0.40000000000E+03 0. -1.
   -9000007    1    1    2    0  503  0.74469047895E+02 -0.35001114684E+03 -0.32638235297E+03  0.62815514193E+03  0.40000000000E+03 0. -1.
<mgrwt>
<rscale>  2 0.53670610E+03</rscale>
<asrwt>0</asrwt>
<pdfrwt beam="1">  1       21 0.14897780E+00 0.53670610E+03</pdfrwt>
<pdfrwt beam="2">  1       21 0.86978738E-01 0.53670610E+03</pdfrwt>
<totfact> 0.27384860E+02</totfact>
</mgrwt>
</event>
<event>
 4    1  0.4676529E-002  0.4051223E+03  0.7818608E-02  0.1042020E+00
         21   -1    0    0  503  502  0.00000000000E+00  0.00000000000E+00  0.38025115007E+03  0.38025115007E+03  0.00000000000E+00 0.  1.
         21   -1    0    0  501  503 -0.00000000000E+00 -0.00000000000E+00 -0.43858181388E+03  0.43858181388E+03  0.00000000000E+00 0.  1.
    9000007    1    1    2  501    0 -0.46047590502E+02 -0.44762272721E+02 -0.80747300698E+02  0.41309099266E+03  0.40000000000E+03 0.  1.
   -9000007    1    1    2    0  502  0.46047590502E+02  0.44762272721E+02  0.22416636889E+02  0.40574197128E+03  0.40000000000E+03 0.  1.
<mgrwt>
<rscale>  2 0.40512226E+03</rscale>
<asrwt>0</asrwt>
<pdfrwt beam="1">  1       21 0.58500177E-01 0.40512226E+03</pdfrwt>
<pdfrwt beam="2">  1       21 0.67474126E-01 0.40512226E+03</pdfrwt>
<totfact> 0.49089141E+03</totfact>
</mgrwt>
</event>
<event>
 4    1  0.4676529E-002  0.4310176E+03  0.7818608E-02  0.1033539E+00
         21   -1    0    0  501  502  0.00000000000E+00  0.00000000000E+00  0.26295032217E+03  0.26295032217E+03  0.00000000000E+00 0. -1.
         21   -1    0    0  502  503 -0.00000000000E+00 -0.00000000000E+00 -0.12017302519E+04  0.12017302519E+04  0.00000000000E+00 0. -1.
    9000007    1    1    2  501    0  0.15725114401E+03  0.32376791069E+02  0.73146680107E+00  0.43101822924E+03  0.40000000000E+03 0. -1.
   -9000007    1    1    2    0  503 -0.15725114401E+03 -0.32376791069E+02 -0.93951139653E+03  0.10336623448E+04  0.40000000000E+03 0. -1.
<mgrwt>
<rscale>  2 0.43101761E+03</rscale>
<asrwt>0</asrwt>
<pdfrwt beam="1">  1       21 0.40453896E-01 0.43101761E+03</pdfrwt>
<pdfrwt beam="2">  1       21 0.18488158E+00 0.43101761E+03</pdfrwt>
<totfact> 0.83649054E+02</totfact>
</mgrwt>
</event>
<event>
 4    1  0.4676529E-002  0.4113894E+03  0.7818608E-02  0.1039906E+00
         21   -1    0    0  501  502  0.00000000000E+00  0.00000000000E+00  0.19012659511E+03  0.19012659511E+03  0.00000000000E+00 0. -1.
         21   -1    0    0  502  503 -0.00000000000E+00 -0.00000000000E+00 -0.10766407955E+04  0.10766407955E+04  0.00000000000E+00 0. -1.
    9000007    1    1    2  501    0  0.31086791759E+02 -0.90966172510E+02 -0.17964830778E+03  0.44890394034E+03  0.40000000000E+03 0. -1.
   -9000007    1    1    2    0  503 -0.31086791759E+02  0.90966172510E+02 -0.70686589265E+03  0.81786345031E+03  0.40000000000E+03 0. -1.
<mgrwt>
<rscale>  2 0.41138939E+03</rscale>
<asrwt>0</asrwt>
<pdfrwt beam="1">  1       21 0.29250245E-01 0.41138939E+03</pdfrwt>
<pdfrwt beam="2">  1       21 0.16563705E+00 0.41138939E+03</pdfrwt>
<totfact> 0.22278739E+03</totfact>
</mgrwt>
</event>
<event>
 4    1  0.4676529E-002  0.4334256E+03  0.7818608E-02  0.1032783E+00
         21   -1    0    0  503  502  0.00000000000E+00  0.00000000000E+00  0.30245612943E+03  0.30245612943E+03  0.00000000000E+00 0. -1.
         21   -1    0    0  501  503 -0.00000000000E+00 -0.00000000000E+00 -0.10475754267E+04  0.10475754267E+04  0.00000000000E+00 0.  1.
    9000007    1    1    2  501    0 -0.38985169647E+02  0.16228958286E+03 -0.80324935415E+03  0.91272519254E+03  0.40000000000E+03 0.  1.
   -9000007    1    1    2    0  502  0.38985169647E+02 -0.16228958286E+03  0.58130056846E+02  0.43730636362E+03  0.40000000000E+03 0. -1.
<mgrwt>
<rscale>  2 0.43342560E+03</rscale>
<asrwt>0</asrwt>
<pdfrwt beam="1">  1       21 0.46531713E-01 0.43342560E+03</pdfrwt>
<pdfrwt beam="2">  1       21 0.16116545E+00 0.43342560E+03</pdfrwt>
<totfact> 0.92526152E+02</totfact>
</mgrwt>
</event>
<event>
 4    1  0.4676529E-002  0.4133916E+03  0.7818608E-02  0.1039239E+00
         21   -1    0    0  501  502  0.00000000000E+00  0.00000000000E+00  0.66353764564E+03  0.66353764564E+03  0.00000000000E+00 0. -1.
         21   -1    0    0  502  503 -0.00000000000E+00 -0.00000000000E+00 -0.25765737670E+03  0.25765737670E+03  0.00000000000E+00 0. -1.
    9000007    1    1    2  501    0  0.10354779614E+03 -0.13055432898E+02  0.19343693895E+03  0.45641038525E+03  0.40000000000E+03 0. -1.
   -9000007    1    1    2    0  503 -0.10354779614E+03  0.13055432898E+02  0.21244332999E+03  0.46478463709E+03  0.40000000000E+03 0. -1.
<mgrwt>
<rscale>  2 0.41339157E+03</rscale>
<asrwt>0</asrwt>
<pdfrwt beam="1">  1       21 0.10208271E+00 0.41339157E+03</pdfrwt>
<pdfrwt beam="2">  1       21 0.39639597E-01 0.41339157E+03</pdfrwt>
<totfact> 0.42506534E+03</totfact>
</mgrwt>
</event>
<event>
 4    1  0.4676529E-002  0.5159240E+03  0.7818608E-02  0.1009704E+00
         21   -1    0    0  501  502  0.00000000000E+00  0.00000000000E+00  0.20871752249E+03  0.20871752249E+03  0.00000000000E+00 0. -1.
         21   -1    0    0  502  503 -0.00000000000E+00 -0.00000000000E+00 -0.15849401738E+04  0.15849401738E+04  0.00000000000E+00 0.  1.
    9000007    1    1    2  501    0 -0.28769769205E+03 -0.15299553437E+03 -0.10845091997E+04  0.12009736882E+04  0.40000000000E+03 0.  1.
   -9000007    1    1    2    0  503  0.28769769205E+03  0.15299553437E+03 -0.29171345156E+03  0.59268400803E+03  0.40000000000E+03 0. -1.
<mgrwt>
<rscale>  2 0.51592402E+03</rscale>
<asrwt>0</asrwt>
<pdfrwt beam="1">  1       21 0.32110388E-01 0.51592402E+03</pdfrwt>
<pdfrwt beam="2">  1       21 0.24383695E+00 0.51592402E+03</pdfrwt>
<totfact> 0.53160027E+02</totfact>
</mgrwt>
</event>
<event>
 4    1  0.4676529E-002  0.4679584E+03  0.7818608E-02  0.1022498E+00
         21   -1    0    0  503  502  0.00000000000E+00  0.00000000000E+00  0.70760640477E+03  0.70760640477E+03  0.00000000000E+00 0.  1.
         21   -1    0    0  501  503 -0.00000000000E+00 -0.00000000000E+00 -0.74839937513E+03  0.74839937513E+03  0.00000000000E+00 0.  1.
    9000007    1    1    2  501    0 -0.10401814014E+03  0.21946588232E+03 -0.57791880085E+03  0.74362301427E+03  0.40000000000E+03 0.  1.
   -9000007    1    1    2    0  502  0.10401814014E+03 -0.21946588232E+03  0.53712583049E+03  0.71238276562E+03  0.40000000000E+03 0.  1.
<mgrwt>
<rscale>  2 0.46795838E+03</rscale>
<asrwt>0</asrwt>
<pdfrwt beam="1">  1       21 0.10886252E+00 0.46795838E+03</pdfrwt>
<pdfrwt beam="2">  1       21 0.11513837E+00 0.46795838E+03</pdfrwt>
<totfact> 0.32137843E+02</totfact>
</mgrwt>
</event>
<event>
 4    1  0.4676529E-002  0.4061112E+03  0.7818608E-02  0.1041684E+00
         21   -1    0    0  503  502  0.00000000000E+00  0.00000000000E+00  0.41736368963E+03  0.41736368963E+03  0.00000000000E+00 0. -1.
         21   -1    0    0  501  503 -0.00000000000E+00 -0.00000000000E+00 -0.62170126800E+03  0.62170126800E+03  0.00000000000E+00 0. -1.
    9000007    1    1    2  501    0 -0.54290137130E+02  0.44484734128E+02 -0.41578137281E+03  0.58120603966E+03  0.40000000000E+03 0. -1.
   -9000007    1    1    2    0  502  0.54290137130E+02 -0.44484734128E+02  0.21144379444E+03  0.45785891797E+03  0.40000000000E+03 0. -1.
<mgrwt>
<rscale>  2 0.40611120E+03</rscale>
<asrwt>0</asrwt>
<pdfrwt beam="1">  1       21 0.64209799E-01 0.40611120E+03</pdfrwt>
<pdfrwt beam="2">  1       21 0.95646348E-01 0.40611120E+03</pdfrwt>
<totfact> 0.17873277E+03</totfact>
</mgrwt>
</event>
<event>
 4    1  0.4676529E-002  0.4205851E+03  0.7818608E-02  0.1036876E+00
         21   -1    0    0  501  502  0.00000000000E+00  0.00000000000E+00  0.95480407491E+03  0.95480407491E+03  0.00000000000E+00 0. -1.
         21   -1    0    0  502  503 -0.00000000000E+00 -0.00000000000E+00 -0.27773688614E+03  0.27773688614E+03  0.00000000000E+00 0.  1.
    9000007    1    1    2  501    0  0.11873136303E+03  0.52864490590E+02  0.69413167486E+03  0.81160986501E+03  0.40000000000E+03 0. -1.
   -9000007    1    1    2    0  503 -0.11873136303E+03 -0.52864490590E+02 -0.17064486090E+02  0.42093109604E+03  0.40000000000E+03 0.  1.
<mgrwt>
<rscale>  2 0.42058506E+03</rscale>
<asrwt>0</asrwt>
<pdfrwt beam="1">  1       21 0.14689293E+00 0.42058506E+03</pdfrwt>
<pdfrwt beam="2">  1       21 0.42728752E-01 0.42058506E+03</pdfrwt>
<totfact> 0.14334971E+03</totfact>
</mgrwt>
</event>
<event>
 4    1  0.4676529E-002  0.4045506E+03  0.7818608E-02  0.1042215E+00
         21   -1    0    0  503  502  0.00000000000E+00  0.00000000000E+00  0.11108206234E+04  0.11108206234E+04  0.00000000000E+00 0.  1.
         21   -1    0    0  501  503 -0.00000000000E+00 -0.00000000000E+00 -0.31675306735E+03  0.31675306735E+03  0.00000000000E+00 0.  1.
    9000007    1    1    2  501    0 -0.46094067816E+02 -0.39198512186E+02 -0.12498941483E+03  0.42341887094E+03  0.40000000000E+03 0.  1.
   -9000007    1    1    2    0  502  0.46094067816E+02  0.39198512186E+02  0.91905697093E+03  0.10041548199E+04  0.40000000000E+03 0.  1.
<mgrwt>
<rscale>  2 0.40455060E+03</rscale>
<asrwt>0</asrwt>
<pdfrwt beam="1">  1       21 0.17089548E+00 0.40455060E+03</pdfrwt>
<pdfrwt beam="2">  1       21 0.48731242E-01 0.40455060E+03</pdfrwt>
<totfact> 0.72166439E+02</totfact>
</mgrwt>
</event>
<event>
 4    1  0.4676529E-002  0.4424980E+03  0.7818608E-02  0.1029983E+00
         21   -1    0    0  501  502  0.00000000000E+00  0.00000000000E+00  0.10333837929E+04  0.10333837929E+04  0.00000000000E+00 0.  1.
         21   -1    0    0  502  503 -0.00000000000E+00 -0.00000000000E+00 -0.21039946676E+03  0.21039946676E+03  0.00000000000E+00 0.  1.
    9000007    1    1    2  501    0  0.98734005450E+02  0.16141898188E+03  0.21539177989E+03  0.49213627217E+03  0.40000000000E+03 0.  1.
   -9000007    1    1    2    0  503 -0.98734005450E+02 -0.16141898188E+03  0.60759254623E+03  0.75164698747E+03  0.40000000000E+03 0.  1.
<mgrwt>
<rscale>  2 0.44249801E+03</rscale>
<asrwt>0</asrwt>
<pdfrwt beam="1">  1       21 0.15898212E+00 0.44249801E+03</pdfrwt>
<pdfrwt beam="2">  1       21 0.32369149E-01 0.44249801E+03</pdfrwt>
<totfact> 0.20155737E+03</totfact>
</mgrwt>
</event>
<event>
 4    1  0.4676529E-002  0.5020689E+03  0.7818608E-02  0.1013240E+00
         21   -1    0    0  501  502  0.00000000000E+00  0.00000000000E+00  0.18357055829E+04  0.18357055829E+04  0.00000000000E+00 0. -1.
         21   -1    0    0  502  503 -0.00000000000E+00 -0.00000000000E+00 -0.13744903755E+03  0.13744903755E+03  0.00000000000E+00 0. -1.
    9000007    1    1    2  501    0  0.43418573372E+02  0.30031320172E+03  0.81852556818E+03  0.96023814619E+03  0.40000000000E+03 0. -1.
   -9000007    1    1    2    0  503 -0.43418573372E+02 -0.30031320172E+03  0.87973097720E+03  0.10129164743E+04  0.40000000000E+03 0. -1.
<mgrwt>
<rscale>  2 0.50206891E+03</rscale>
<asrwt>0</asrwt>
<pdfrwt beam="1">  1       21 0.28241623E+00 0.50206891E+03</pdfrwt>
<pdfrwt beam="2">  1       21 0.21146007E-01 0.50206891E+03</pdfrwt>
<totfact> 0.70465357E+02</totfact>
</mgrwt>
</event>
<event>
 4    1  0.4676529E-002  0.4498162E+03  0.7818608E-02  0.1027777E+00
         21   -1    0    0  501  502  0.00000000000E+00  0.00000000000E+00  0.67865621544E+03  0.67865621544E+03  0.00000000000E+00 0.  1.
         21   -1    0    0  502  503 -0.00000000000E+00 -0.00000000000E+00 -0.62565749668E+03  0.62565749668E+03  0.00000000000E+00 0.  1.
    9000007    1    1    2  501    0 -0.15697655182E+03 -0.13301492710E+03  0.49834608692E+03  0.67132959938E+03  0.40000000000E+03 0.  1.
   -9000007    1    1    2    0  503  0.15697655182E+03  0.13301492710E+03 -0.44534736817E+03  0.63298411274E+03  0.40000000000E+03 0.  1.
<mgrwt>
<rscale>  2 0.44981619E+03</rscale>
<asrwt>0</asrwt>
<pdfrwt beam="1">  1       21 0.10440865E+00 0.44981619E+03</pdfrwt>
<pdfrwt beam="2">  1       21 0.96255000E-01 0.44981619E+03</pdfrwt>
<totfact> 0.55814397E+02</totfact>
</mgrwt>
</event>
<event>
 4    1  0.4676529E-002  0.4260319E+03  0.7818608E-02  0.1035121E+00
         21   -1    0    0  503  502  0.00000000000E+00  0.00000000000E+00  0.15624675206E+03  0.15624675206E+03  0.00000000000E+00 0.  1.
         21   -1    0    0  501  503 -0.00000000000E+00 -0.00000000000E+00 -0.12116766090E+04  0.12116766090E+04  0.00000000000E+00 0.  1.
    9000007    1    1    2  501    0 -0.14649790860E+03 -0.64444560967E+01 -0.66669839681E+03  0.79119524806E+03  0.40000000000E+03 0.  1.
   -9000007    1    1    2    0  502  0.14649790860E+03  0.64444560967E+01 -0.38873146013E+03  0.57672811301E+03  0.40000000000E+03 0.  1.
<mgrwt>
<rscale>  2 0.42603189E+03</rscale>
<asrwt>0</asrwt>
<pdfrwt beam="1">  1       21 0.24037963E-01 0.42603189E+03</pdfrwt>
<pdfrwt beam="2">  1       21 0.18641178E+00 0.42603189E+03</pdfrwt>
<totfact> 0.23114353E+03</totfact>
</mgrwt>
</event>
<event>
 4    1  0.4676529E-002  0.5229653E+03  0.7818608E-02  0.1007953E+00
         21   -1    0    0  501  502  0.00000000000E+00  0.00000000000E+00  0.22807931412E+03  0.22807931412E+03  0.00000000000E+00 0. -1.
         21   -1    0    0  502  503 -0.00000000000E+00 -0.00000000000E+00 -0.21115982717E+04  0.21115982717E+04  0.00000000000E+00 0.  1.
    9000007    1    1    2  501    0  0.33256744283E+03  0.53773731785E+02 -0.17107720874E+04  0.17889197448E+04  0.40000000000E+03 0.  1.
   -9000007    1    1    2    0  503 -0.33256744283E+03 -0.53773731785E+02 -0.17274687013E+03  0.55075784098E+03  0.40000000000E+03 0. -1.
<mgrwt>
<rscale>  2 0.52296531E+03</rscale>
<asrwt>0</asrwt>
<pdfrwt beam="1">  1       21 0.35089125E-01 0.52296531E+03</pdfrwt>
<pdfrwt beam="2">  1       21 0.32486127E+00 0.52296531E+03</pdfrwt>
<totfact> 0.14213808E+02</totfact>
</mgrwt>
</event>
<event>
 4    1  0.4676529E-002  0.5714275E+03  0.7818608E-02  0.9966525E-01
         21   -1    0    0  501  502  0.00000000000E+00  0.00000000000E+00  0.63871461049E+03  0.63871461049E+03  0.00000000000E+00 0. -1.
         21   -1    0    0  502  503 -0.00000000000E+00 -0.00000000000E+00 -0.51904511581E+03  0.51904511581E+03  0.00000000000E+00 0. -1.
    9000007    1    1    2  501    0 -0.81657230940E+02 -0.39982680432E+03  0.13087160863E+03  0.58622244478E+03  0.40000000000E+03 0. -1.
   -9000007    1    1    2    0  503  0.81657230940E+02  0.39982680432E+03 -0.11202113959E+02  0.57153728152E+03  0.40000000000E+03 0. -1.
<mgrwt>
<rscale>  2 0.57142749E+03</rscale>
<asrwt>0</asrwt>
<pdfrwt beam="1">  1       21 0.98263786E-01 0.57142749E+03</pdfrwt>
<pdfrwt beam="2">  1       21 0.79853095E-01 0.57142749E+03</pdfrwt>
<totfact> 0.96154894E+02</totfact>
</mgrwt>
</event>
<event>
 4    1  0.4676529E-002  0.4039528E+03  0.7818608E-02  0.1042419E+00
         21   -1    0    0  501  502  0.00000000000E+00  0.00000000000E+00  0.14112858791E+04  0.14112858791E+04  0.00000000000E+00 0. -1.
         21   -1    0    0  502  503 -0.00000000000E+00 -0.00000000000E+00 -0.14884838417E+03  0.14884838417E+03  0.00000000000E+00 0. -1.
    9000007    1    1    2  501    0  0.56372078943E+02  0.24932510972E+00  0.26267302574E+03  0.48184540249E+03  0.40000000000E+03 0. -1.
   -9000007    1    1    2    0  503 -0.56372078943E+02 -0.24932510972E+00  0.99976446917E+03  0.10782888608E+04  0.40000000000E+03 0. -1.
<mgrwt>
<rscale>  2 0.40395281E+03</rscale>
<asrwt>0</asrwt>
<pdfrwt beam="1">  1       21 0.21712090E+00 0.40395281E+03</pdfrwt>
<pdfrwt beam="2">  1       21 0.22899752E-01 0.40395281E+03</pdfrwt>
<totfact> 0.16049848E+03</totfact>
</mgrwt>
</event>
<event>
 4    1  0.4676529E-002  0.4650584E+03  0.7818608E-02  0.1023324E+00
         21   -1    0    0  501  502  0.00000000000E+00  0.00000000000E+00  0.21809051652E+03  0.21809051652E+03  0.00000000000E+00 0.  1.
         21   -1    0    0  502  503 -0.00000000000E+00 -0.00000000000E+00 -0.10160181016E+04  0.10160181016E+04  0.00000000000E+00 0.  1.
    9000007    1    1    2  501    0  0.19169930772E+03 -0.13975220679E+03 -0.30349070843E+03  0.55532505254E+03  0.40000000000E+03 0.  1.
   -9000007    1    1    2    0  503 -0.19169930772E+03  0.13975220679E+03 -0.49443687662E+03  0.67878356554E+03  0.40000000000E+03 0.  1.
<mgrwt>
<rscale>  2 0.46505839E+03</rscale>
<asrwt>0</asrwt>
<pdfrwt beam="1">  1       21 0.33552388E-01 0.46505839E+03</pdfrwt>
<pdfrwt beam="2">  1       21 0.15631047E+00 0.46505839E+03</pdfrwt>
<totfact> 0.19479579E+03</totfact>
</mgrwt>
</event>
<event>
 4    1  0.4676529E-002  0.4978799E+03  0.7818608E-02  0.1014334E+00
         21   -1    0    0  501  502  0.00000000000E+00  0.00000000000E+00  0.11818407111E+04  0.11818407111E+04  0.00000000000E+00 0. -1.
         21   -1    0    0  502  503 -0.00000000000E+00 -0.00000000000E+00 -0.20979331565E+03  0.20979331565E+03  0.00000000000E+00 0. -1.
    9000007    1    1    2  501    0 -0.19486317545E+03  0.22341164490E+03  0.47539418841E+03  0.68839236965E+03  0.40000000000E+03 0. -1.
   -9000007    1    1    2    0  503  0.19486317545E+03 -0.22341164490E+03  0.49665320703E+03  0.70324165709E+03  0.40000000000E+03 0. -1.
<mgrwt>
<rscale>  2 0.49787993E+03</rscale>
<asrwt>0</asrwt>
<pdfrwt beam="1">  1       21 0.18182164E+00 0.49787993E+03</pdfrwt>
<pdfrwt beam="2">  1       21 0.32275895E-01 0.49787993E+03</pdfrwt>
<totfact> 0.13511905E+03</totfact>
</mgrwt>
</event>
<event>
 4    1  0.4676529E-002  0.4819421E+03  0.7818608E-02  0.1018603E+00
         21   -1    0    0  501  502  0.00000000000E+00  0.00000000000E+00  0.11578069753E+04  0.11578069753E+04  0.00000000000E+00 0.  1.
         21   -1    0    0  502  503 -0.00000000000E+00 -0.00000000000E+00 -0.20232011888E+03  0.20232011888E+03  0.00000000000E+00 0. -1.
    9000007    1    1    2  501    0 -0.21914995874E+03  0.15569690249E+03  0.54025786331E+03  0.72397982618E+03  0.40000000000E+03 0.  1.
   -9000007    1    1    2    0  503  0.21914995874E+03 -0.15569690249E+03  0.41522899312E+03  0.63614726800E+03  0.40000000000E+03 0. -1.
<mgrwt>
<rscale>  2 0.48194214E+03</rscale>
<asrwt>0</asrwt>
<pdfrwt beam="1">  1       21 0.17812415E+00 0.48194214E+03</pdfrwt>
<pdfrwt beam="2">  1       21 0.31126173E-01 0.48194214E+03</pdfrwt>
<totfact> 0.15529793E+03</totfact>
</mgrwt>
</event>
<event>
 4    1  0.4676529E-002  0.4068043E+03  0.7818608E-02  0.1041449E+00
         21   -1    0    0  503  502  0.00000000000E+00  0.00000000000E+00  0.23876448879E+03  0.23876448879E+03  0.00000000000E+00 0. -1.
         21   -1    0    0  501  503 -0.00000000000E+00 -0.00000000000E+00 -0.76635092696E+03  0.76635092696E+03  0.00000000000E+00 0. -1.
    9000007    1    1    2  501    0 -0.72651141410E+02 -0.14545319806E+02 -0.10842838059E+03  0.42100649448E+03  0.40000000000E+03 0. -1.
   -9000007    1    1    2    0  502  0.72651141410E+02  0.14545319806E+02 -0.41915805758E+03  0.58410892128E+03  0.40000000000E+03 0. -1.
<mgrwt>
<rscale>  2 0.40680432E+03</rscale>
<asrwt>0</asrwt>
<pdfrwt beam="1">  1       21 0.36732998E-01 0.40680432E+03</pdfrwt>
<pdfrwt beam="2">  1       21 0.11790014E+00 0.40680432E+03</pdfrwt>
<totfact> 0.34859489E+03</totfact>
</mgrwt>
</event>
<event>
 4    1  0.4676529E-002  0.5633295E+03  0.7818608E-02  0.9984549E-01
         21   -1    0    0  503  502  0.00000000000E+00  0.00000000000E+00  0.75645120099E+03  0.75645120099E+03  0.00000000000E+00 0. -1.
         21   -1    0    0  501  503 -0.00000000000E+00 -0.00000000000E+00 -0.42003408534E+03  0.42003408534E+03  0.00000000000E+00 0. -1.
    9000007    1    1    2  501    0  0.32479823845E+03  0.22769760023E+03  0.18895433701E+03  0.59417491897E+03  0.40000000000E+03 0. -1.
   -9000007    1    1    2    0  502 -0.32479823845E+03 -0.22769760023E+03  0.14746277863E+03  0.58231036736E+03  0.40000000000E+03 0. -1.
<mgrwt>
<rscale>  2 0.56332947E+03</rscale>
<asrwt>0</asrwt>
<pdfrwt beam="1">  1       21 0.11637711E+00 0.56332947E+03</pdfrwt>
<pdfrwt beam="2">  1       21 0.64620629E-01 0.56332947E+03</pdfrwt>
<totfact> 0.10253373E+03</totfact>
</mgrwt>
</event>
<event>
 4    1  0.4676529E-002  0.4465048E+03  0.7818608E-02  0.1028770E+00
         21   -1    0    0  501  502  0.00000000000E+00  0.00000000000E+00  0.41630084473E+03  0.41630084473E+03  0.00000000000E+00 0. -1.
         21   -1    0    0  502  503 -0.00000000000E+00 -0.00000000000E+00 -0.52222021165E+03  0.52222021165E+03  0.00000000000E+00 0. -1.
    9000007    1    1    2  501    0 -0.30946670358E+01  0.19838581079E+03  0.82195305772E+02  0.45400724133E+03  0.40000000000E+03 0. -1.
   -9000007    1    1    2    0  503  0.30946670358E+01 -0.19838581079E+03 -0.18811467269E+03  0.48451381504E+03  0.40000000000E+03 0. -1.
<mgrwt>
<rscale>  2 0.44650477E+03</rscale>
<asrwt>0</asrwt>
<pdfrwt beam="1">  1       21 0.64046284E-01 0.44650477E+03</pdfrwt>
<pdfrwt beam="2">  1       21 0.80341571E-01 0.44650477E+03</pdfrwt>
<totfact> 0.26663309E+03</totfact>
</mgrwt>
</event>
<event>
 4    1  0.4676529E-002  0.4124145E+03  0.7818608E-02  0.1039564E+00
         21   -1    0    0  503  502  0.00000000000E+00  0.00000000000E+00  0.11420547089E+04  0.11420547089E+04  0.00000000000E+00 0. -1.
         21   -1    0    0  501  503 -0.00000000000E+00 -0.00000000000E+00 -0.14957085380E+03  0.14957085380E+03  0.00000000000E+00 0. -1.
    9000007    1    1    2  501    0 -0.18242942163E+02  0.98756794668E+02  0.45395458034E+03  0.61331922393E+03  0.40000000000E+03 0. -1.
   -9000007    1    1    2    0  502  0.18242942163E+02 -0.98756794668E+02  0.53852927476E+03  0.67830633876E+03  0.40000000000E+03 0. -1.
<mgrwt>
<rscale>  2 0.41241449E+03</rscale>
<asrwt>0</asrwt>
<pdfrwt beam="1">  1       21 0.17570072E+00 0.41241449E+03</pdfrwt>
<pdfrwt beam="2">  1       21 0.23010901E-01 0.41241449E+03</pdfrwt>
<totfact> 0.30068253E+03</totfact>
</mgrwt>
</event>
<event>
 4    1  0.4676529E-002  0.4593825E+03  0.7818608E-02  0.1024960E+00
         21   -1    0    0  501  502  0.00000000000E+00  0.00000000000E+00  0.54464642570E+03  0.54464642570E+03  0.00000000000E+00 0. -1.
         21   -1    0    0  502  503 -0.00000000000E+00 -0.00000000000E+00 -0.49981019828E+03  0.49981019828E+03  0.00000000000E+00 0.  1.
    9000007    1    1    2  501    0 -0.16016747951E+03  0.15930671371E+03  0.27000759636E+03  0.53285678434E+03  0.40000000000E+03 0. -1.
   -9000007    1    1    2    0  503  0.16016747951E+03 -0.15930671371E+03 -0.22517136894E+03  0.51159983964E+03  0.40000000000E+03 0.  1.
<mgrwt>
<rscale>  2 0.45938247E+03</rscale>
<asrwt>0</asrwt>
<pdfrwt beam="1">  1       21 0.83791758E-01 0.45938247E+03</pdfrwt>
<pdfrwt beam="2">  1       21 0.76893876E-01 0.45938247E+03</pdfrwt>
<totfact> 0.15939712E+03</totfact>
</mgrwt>
</event>
<event>
 4    1  0.4676529E-002  0.4250391E+03  0.7818608E-02  0.1035439E+00
         21   -1    0    0  503  502  0.00000000000E+00  0.00000000000E+00  0.12187444417E+04  0.12187444417E+04  0.00000000000E+00 0. -1.
         21   -1    0    0  501  503 -0.00000000000E+00 -0.00000000000E+00 -0.23971967060E+03  0.23971967060E+03  0.00000000000E+00 0. -1.
    9000007    1    1    2  501    0  0.63105383945E+02 -0.12913548011E+03  0.39014663621E+02  0.42682596651E+03  0.40000000000E+03 0.  1.
   -9000007    1    1    2    0  502 -0.63105383945E+02  0.12913548011E+03  0.94001010749E+03  0.10316381458E+04  0.40000000000E+03 0.  1.
<mgrwt>
<rscale>  2 0.42503913E+03</rscale>
<asrwt>0</asrwt>
<pdfrwt beam="1">  1       21 0.18749914E+00 0.42503913E+03</pdfrwt>
<pdfrwt beam="2">  1       21 0.36879950E-01 0.42503913E+03</pdfrwt>
<totfact> 0.97250701E+02</totfact>
</mgrwt>
</event>
<event>
 4    1  0.4676529E-002  0.4163307E+03  0.7818608E-02  0.1038267E+00
         21   -1    0    0  501  502  0.00000000000E+00  0.00000000000E+00  0.17693573046E+04  0.17693573046E+04  0.00000000000E+00 0. -1.
         21   -1    0    0  502  503 -0.00000000000E+00 -0.00000000000E+00 -0.16163750232E+03  0.16163750232E+03  0.00000000000E+00 0. -1.
    9000007    1    1    2  501    0 -0.10034813522E+03  0.57109510663E+02  0.14098470476E+04  0.14700339935E+04  0.40000000000E+03 0. -1.
   -9000007    1    1    2    0  503  0.10034813522E+03 -0.57109510663E+02  0.19787275466E+03  0.46096081339E+03  0.40000000000E+03 0. -1.
<mgrwt>
<rscale>  2 0.41633069E+03</rscale>
<asrwt>0</asrwt>
<pdfrwt beam="1">  1       21 0.27220880E+00 0.41633069E+03</pdfrwt>
<pdfrwt beam="2">  1       21 0.24867309E-01 0.41633069E+03</pdfrwt>
<totfact> 0.62153275E+02</totfact>
</mgrwt>
</event>
<event>
 4    1  0.4676529E-002  0.4661475E+03  0.7818608E-02  0.1023013E+00
         21   -1    0    0  501  502  0.00000000000E+00  0.00000000000E+00  0.13117215766E+04  0.13117215766E+04  0.00000000000E+00 0. -1.
         21   -1    0    0  502  503 -0.00000000000E+00 -0.00000000000E+00 -0.16636233159E+03  0.16636233159E+03  0.00000000000E+00 0. -1.
    9000007    1    1    2  501    0 -0.22479767351E+03  0.82216020245E+02  0.52449602407E+03  0.70170474365E+03  0.40000000000E+03 0. -1.
   -9000007    1    1    2    0  503  0.22479767351E+03 -0.82216020245E+02  0.62086322092E+03  0.77637916452E+03  0.40000000000E+03 0. -1.
<mgrwt>
<rscale>  2 0.46614747E+03</rscale>
<asrwt>0</asrwt>
<pdfrwt beam="1">  1       21 0.20180331E+00 0.46614747E+03</pdfrwt>
<pdfrwt beam="2">  1       21 0.25594206E-01 0.46614747E+03</pdfrwt>
<totfact> 0.15822011E+03</totfact>
</mgrwt>
</event>
<event>
 4    1  0.4676529E-002  0.4265362E+03  0.7818608E-02  0.1034960E+00
         21   -1    0    0  503  502  0.00000000000E+00  0.00000000000E+00  0.59716011733E+03  0.59716011733E+03  0.00000000000E+00 0. -1.
         21   -1    0    0  501  503 -0.00000000000E+00 -0.00000000000E+00 -0.62093767459E+03  0.62093767459E+03  0.00000000000E+00 0. -1.
    9000007    1    1    2  501    0 -0.61079274061E+02  0.13491640694E+03 -0.44655887529E+03  0.61753375914E+03  0.40000000000E+03 0. -1.
   -9000007    1    1    2    0  502  0.61079274061E+02 -0.13491640694E+03  0.42278131804E+03  0.60056403277E+03  0.40000000000E+03 0. -1.
<mgrwt>
<rscale>  2 0.42653618E+03</rscale>
<asrwt>0</asrwt>
<pdfrwt beam="1">  1       21 0.91870787E-01 0.42653618E+03</pdfrwt>
<pdfrwt beam="2">  1       21 0.95528873E-01 0.42653618E+03</pdfrwt>
<totfact> 0.78230258E+02</totfact>
</mgrwt>
</event>
<event>
 4    1  0.4676529E-002  0.4941690E+03  0.7818608E-02  0.1015312E+00
         21   -1    0    0  503  502  0.00000000000E+00  0.00000000000E+00  0.22374003311E+03  0.22374003311E+03  0.00000000000E+00 0. -1.
         21   -1    0    0  501  503 -0.00000000000E+00 -0.00000000000E+00 -0.12519449387E+04  0.12519449387E+04  0.00000000000E+00 0. -1.
    9000007    1    1    2  501    0  0.16813346253E+03  0.23650399237E+03 -0.77827639695E+03  0.92190951274E+03  0.40000000000E+03 0. -1.
   -9000007    1    1    2    0  502 -0.16813346253E+03 -0.23650399237E+03 -0.24992850862E+03  0.55377545906E+03  0.40000000000E+03 0. -1.
<mgrwt>
<rscale>  2 0.49416900E+03</rscale>
<asrwt>0</asrwt>
<pdfrwt beam="1">  1       21 0.34421544E-01 0.49416900E+03</pdfrwt>
<pdfrwt beam="2">  1       21 0.19260691E+00 0.49416900E+03</pdfrwt>
<totfact> 0.10008002E+03</totfact>
</mgrwt>
</event>
<event>
 4    1  0.4676529E-002  0.6021495E+03  0.7818608E-02  0.9900957E-01
         21   -1    0    0  503  502  0.00000000000E+00  0.00000000000E+00  0.14104184614E+04  0.14104184614E+04  0.00000000000E+00 0. -1.
         21   -1    0    0  501  503 -0.00000000000E+00 -0.00000000000E+00 -0.33347449351E+03  0.33347449351E+03  0.00000000000E+00 0.  1.
    9000007    1    1    2  501    0  0.15041723492E+03  0.42421529445E+03  0.12112000464E+03  0.61421007492E+03  0.40000000000E+03 0.  1.
   -9000007    1    1    2    0  502 -0.15041723492E+03 -0.42421529445E+03  0.95582396323E+03  0.11296828800E+04  0.40000000000E+03 0. -1.
<mgrwt>
<rscale>  2 0.60214945E+03</rscale>
<asrwt>0</asrwt>
<pdfrwt beam="1">  1       21 0.21698745E+00 0.60214945E+03</pdfrwt>
<pdfrwt beam="2">  1       21 0.51303769E-01 0.60214945E+03</pdfrwt>
<totfact> 0.28725397E+02</totfact>
</mgrwt>
</event>
<event>
 4    1  0.4676529E-002  0.4418633E+03  0.7818608E-02  0.1030177E+00
         21   -1    0    0  501  502  0.00000000000E+00  0.00000000000E+00  0.88425224967E+03  0.88425224967E+03  0.00000000000E+00 0.  1.
         21   -1    0    0  502  503 -0.00000000000E+00 -0.00000000000E+00 -0.26276966765E+03  0.26276966765E+03  0.00000000000E+00 0.  1.
    9000007    1    1    2  501    0  0.13555716871E+03  0.12987468741E+03  0.53994424476E+03  0.69769833586E+03  0.40000000000E+03 0.  1.
   -9000007    1    1    2    0  503 -0.13555716871E+03 -0.12987468741E+03  0.81538337259E+02  0.44932358146E+03  0.40000000000E+03 0.  1.
<mgrwt>
<rscale>  2 0.44186331E+03</rscale>
<asrwt>0</asrwt>
<pdfrwt beam="1">  1       21 0.13603881E+00 0.44186331E+03</pdfrwt>
<pdfrwt beam="2">  1       21 0.40426103E-01 0.44186331E+03</pdfrwt>
<totfact> 0.19551126E+03</totfact>
</mgrwt>
</event>
<event>
 4    1  0.4676529E-002  0.4214593E+03  0.7818608E-02  0.1036592E+00
         21   -1    0    0  501  502  0.00000000000E+00  0.00000000000E+00  0.13123000874E+04  0.13123000874E+04  0.00000000000E+00 0. -1.
         21   -1    0    0  502  503 -0.00000000000E+00 -0.00000000000E+00 -0.23434769649E+03  0.23434769649E+03  0.00000000000E+00 0. -1.
    9000007    1    1    2  501    0 -0.10094727470E+03 -0.86241573654E+02  0.10415849102E+04  0.11236223060E+04  0.40000000000E+03 0.  1.
   -9000007    1    1    2    0  503  0.10094727470E+03  0.86241573654E+02  0.36367480684E+02  0.42302547789E+03  0.40000000000E+03 0.  1.
<mgrwt>
<rscale>  2 0.42145932E+03</rscale>
<asrwt>0</asrwt>
<pdfrwt beam="1">  1       21 0.20189232E+00 0.42145932E+03</pdfrwt>
<pdfrwt beam="2">  1       21 0.36053493E-01 0.42145932E+03</pdfrwt>
<totfact> 0.81577614E+02</totfact>
</mgrwt>
</event>
<event>
 4    1  0.4676529E-002  0.4146927E+03  0.7818608E-02  0.1038808E+00
         21   -1    0    0  501  502  0.00000000000E+00  0.00000000000E+00  0.25372401386E+03  0.25372401386E+03  0.00000000000E+00 0.  1.
         21   -1    0    0  502  503 -0.00000000000E+00 -0.00000000000E+00 -0.11720512521E+04  0.11720512521E+04  0.00000000000E+00 0.  1.
    9000007    1    1    2  501    0  0.63732586666E+02  0.88927916155E+02  0.37807454615E+01  0.41470991176E+03  0.40000000000E+03 0.  1.
   -9000007    1    1    2    0  503 -0.63732586666E+02 -0.88927916155E+02 -0.92210798372E+03  0.10110653542E+04  0.40000000000E+03 0.  1.
<mgrwt>
<rscale>  2 0.41469268E+03</rscale>
<asrwt>0</asrwt>
<pdfrwt beam="1">  1       21 0.39034463E-01 0.41469268E+03</pdfrwt>
<pdfrwt beam="2">  1       21 0.18031558E+00 0.41469268E+03</pdfrwt>
<totfact> 0.97632634E+02</totfact>
</mgrwt>
</event>
<event>
 4    1  0.4676529E-002  0.4425675E+03  0.7818608E-02  0.1029962E+00
         21   -1    0    0  503  502  0.00000000000E+00  0.00000000000E+00  0.91017688078E+03  0.91017688078E+03  0.00000000000E+00 0.  1.
         21   -1    0    0  501  503 -0.00000000000E+00 -0.00000000000E+00 -0.73311982619E+03  0.73311982619E+03  0.00000000000E+00 0.  1.
    9000007    1    1    2  501    0 -0.12130297023E+03 -0.14543587708E+03 -0.60207953694E+03  0.74723876621E+03  0.40000000000E+03 0.  1.
   -9000007    1    1    2    0  502  0.12130297023E+03  0.14543587708E+03  0.77913659153E+03  0.89605794075E+03  0.40000000000E+03 0.  1.
<mgrwt>
<rscale>  2 0.44256751E+03</rscale>
<asrwt>0</asrwt>
<pdfrwt beam="1">  1       21 0.14002721E+00 0.44256751E+03</pdfrwt>
<pdfrwt beam="2">  1       21 0.11278767E+00 0.44256751E+03</pdfrwt>
<totfact> 0.17982459E+02</totfact>
</mgrwt>
</event>
<event>
 4    1  0.4676529E-002  0.5977026E+03  0.7818608E-02  0.9910184E-01
         21   -1    0    0  503  502  0.00000000000E+00  0.00000000000E+00  0.53278842633E+03  0.53278842633E+03  0.00000000000E+00 0.  1.
         21   -1    0    0  501  503 -0.00000000000E+00 -0.00000000000E+00 -0.98579674191E+03  0.98579674191E+03  0.00000000000E+00 0. -1.
    9000007    1    1    2  501    0  0.25160421947E+03 -0.36598318887E+03 -0.65589962089E+03  0.88738531117E+03  0.40000000000E+03 0. -1.
   -9000007    1    1    2    0  502 -0.25160421947E+03  0.36598318887E+03  0.20289130532E+03  0.63119985707E+03  0.40000000000E+03 0.  1.
<mgrwt>
<rscale>  2 0.59770258E+03</rscale>
<asrwt>0</asrwt>
<pdfrwt beam="1">  1       21 0.81967451E-01 0.59770258E+03</pdfrwt>
<pdfrwt beam="2">  1       21 0.15166103E+00 0.59770258E+03</pdfrwt>
<totfact> 0.29282856E+02</totfact>
</mgrwt>
</event>
<event>
 4    1  0.4676529E-002  0.4030987E+03  0.7818608E-02  0.1042712E+00
         21   -1    0    0  503  502  0.00000000000E+00  0.00000000000E+00  0.75262010981E+03  0.75262010981E+03  0.00000000000E+00 0.  1.
         21   -1    0    0  501  503 -0.00000000000E+00 -0.00000000000E+00 -0.94197572257E+03  0.94197572257E+03  0.00000000000E+00 0. -1.
    9000007    1    1    2  501    0  0.49043476372E+02 -0.91259731851E+01 -0.83856672609E+03  0.93042071133E+03  0.40000000000E+03 0. -1.
   -9000007    1    1    2    0  502 -0.49043476372E+02  0.91259731851E+01  0.64921111333E+03  0.76417512105E+03  0.40000000000E+03 0.  1.
<mgrwt>
<rscale>  2 0.40309868E+03</rscale>
<asrwt>0</asrwt>
<pdfrwt beam="1">  1       21 0.11578771E+00 0.40309868E+03</pdfrwt>
<pdfrwt beam="2">  1       21 0.14491934E+00 0.40309868E+03</pdfrwt>
<totfact> 0.15709290E+02</totfact>
</mgrwt>
</event>
<event>
 4    1  0.4676529E-002  0.4357418E+03  0.7818608E-02  0.1032061E+00
         21   -1    0    0  501  502  0.00000000000E+00  0.00000000000E+00  0.58341194334E+03  0.58341194334E+03  0.00000000000E+00 0. -1.
         21   -1    0    0  502  503 -0.00000000000E+00 -0.00000000000E+00 -0.49572579131E+03  0.49572579131E+03  0.00000000000E+00 0. -1.
    9000007    1    1    2  501    0  0.24590039796E+02 -0.17107384117E+03 -0.27238734465E+03  0.51387332555E+03  0.40000000000E+03 0.  1.
   -9000007    1    1    2    0  503 -0.24590039796E+02  0.17107384117E+03  0.36007349667E+03  0.56526440910E+03  0.40000000000E+03 0.  1.
<mgrwt>
<rscale>  2 0.43574181E+03</rscale>
<asrwt>0</asrwt>
<pdfrwt beam="1">  1       21 0.89755683E-01 0.43574181E+03</pdfrwt>
<pdfrwt beam="2">  1       21 0.76265507E-01 0.43574181E+03</pdfrwt>
<totfact> 0.13948095E+03</totfact>
</mgrwt>
</event>
<event>
 4    1  0.4676529E-002  0.4317811E+03  0.7818608E-02  0.1033299E+00
         21   -1    0    0  501  502  0.00000000000E+00  0.00000000000E+00  0.86685500624E+03  0.86685500624E+03  0.00000000000E+00 0. -1.
         21   -1    0    0  502  503 -0.00000000000E+00 -0.00000000000E+00 -0.21877616116E+03  0.21877616116E+03  0.00000000000E+00 0. -1.
    9000007    1    1    2  501    0  0.15162726879E+03  0.58686051702E+02  0.25339317428E+03  0.50064256918E+03  0.40000000000E+03 0.  1.
   -9000007    1    1    2    0  503 -0.15162726879E+03 -0.58686051702E+02  0.39468567081E+03  0.58498859822E+03  0.40000000000E+03 0.  1.
<mgrwt>
<rscale>  2 0.43178106E+03</rscale>
<asrwt>0</asrwt>
<pdfrwt beam="1">  1       21 0.13336231E+00 0.43178106E+03</pdfrwt>
<pdfrwt beam="2">  1       21 0.33657871E-01 0.43178106E+03</pdfrwt>
<totfact> 0.30024953E+03</totfact>
</mgrwt>
</event>
<event>
 4    1  0.4676529E-002  0.4064153E+03  0.7818608E-02  0.1041581E+00
         21   -1    0    0  501  502  0.00000000000E+00  0.00000000000E+00  0.17959510901E+04  0.17959510901E+04  0.00000000000E+00 0. -1.
         21   -1    0    0  502  503 -0.00000000000E+00 -0.00000000000E+00 -0.27028696723E+03  0.27028696723E+03  0.00000000000E+00 0. -1.
    9000007    1    1    2  501    0 -0.33289323093E+02  0.63759217931E+02 -0.76307664429E+02  0.41351696042E+03  0.40000000000E+03 0. -1.
   -9000007    1    1    2    0  503  0.33289323093E+02 -0.63759217931E+02  0.16019717873E+04  0.16527210969E+04  0.40000000000E+03 0. -1.
<mgrwt>
<rscale>  2 0.40641533E+03</rscale>
<asrwt>0</asrwt>
<pdfrwt beam="1">  1       21 0.27630016E+00 0.40641533E+03</pdfrwt>
<pdfrwt beam="2">  1       21 0.41582611E-01 0.40641533E+03</pdfrwt>
<totfact> 0.21123740E+02</totfact>
</mgrwt>
</event>
<event>
 4    1  0.4676529E-002  0.4945236E+03  0.7818608E-02  0.1015218E+00
         21   -1    0    0  503  502  0.00000000000E+00  0.00000000000E+00  0.32743744464E+03  0.32743744464E+03  0.00000000000E+00 0. -1.
         21   -1    0    0  501  503 -0.00000000000E+00 -0.00000000000E+00 -0.92695980913E+03  0.92695980913E+03  0.00000000000E+00 0.  1.
    9000007    1    1    2  501    0 -0.83310023017E+02  0.27859112204E+03 -0.23310378502E+02  0.49507266836E+03  0.40000000000E+03 0. -1.
   -9000007    1    1    2    0  502  0.83310023017E+02 -0.27859112204E+03 -0.57621198598E+03  0.75932458541E+03  0.40000000000E+03 0.  1.
<mgrwt>
<rscale>  2 0.49452358E+03</rscale>
<asrwt>0</asrwt>
<pdfrwt beam="1">  1       21 0.50374991E-01 0.49452358E+03</pdfrwt>
<pdfrwt beam="2">  1       21 0.14260920E+00 0.49452358E+03</pdfrwt>
<totfact> 0.10647814E+03</totfact>
</mgrwt>
</event>
<event>
 4    1  0.4676529E-002  0.4721262E+03  0.7818608E-02  0.1021322E+00
         21   -1    0    0  503  502  0.00000000000E+00  0.00000000000E+00  0.12693018477E+04  0.12693018477E+04  0.00000000000E+00 0.  1.
         21   -1    0    0  501  503 -0.00000000000E+00 -0.00000000000E+00 -0.31719229065E+03  0.31719229065E+03  0.00000000000E+00 0. -1.
    9000007    1    1    2  501    0 -0.24072187814E+03  0.70399933719E+02 -0.53914056903E+02  0.47519459047E+03  0.40000000000E+03 0. -1.
   -9000007    1    1    2    0  502  0.24072187814E+03 -0.70399933719E+02  0.10060236140E+04  0.11112995479E+04  0.40000000000E+03 0.  1.
<mgrwt>
<rscale>  2 0.47212623E+03</rscale>
<asrwt>0</asrwt>
<pdfrwt beam="1">  1       21 0.19527720E+00 0.47212623E+03</pdfrwt>
<pdfrwt beam="2">  1       21 0.48798815E-01 0.47212623E+03</pdfrwt>
<totfact> 0.47046730E+02</totfact>
</mgrwt>
</event>
<event>
 4    1  0.4676529E-002  0.5387025E+03  0.7818608E-02  0.1004143E+00
         21   -1    0    0  503  502  0.00000000000E+00  0.00000000000E+00  0.78688838498E+03  0.78688838498E+03  0.00000000000E+00 0.  1.
         21   -1    0    0  501  503 -0.00000000000E+00 -0.00000000000E+00 -0.49856158801E+03  0.49856158801E+03  0.00000000000E+00 0.  1.
    9000007    1    1    2  501    0  0.30014121125E+03  0.20028896432E+03 -0.18374112068E+03  0.56917590897E+03  0.40000000000E+03 0.  1.
   -9000007    1    1    2    0  502 -0.30014121125E+03 -0.20028896432E+03  0.47206791765E+03  0.71627406402E+03  0.40000000000E+03 0.  1.
<mgrwt>
<rscale>  2 0.53870253E+03</rscale>
<asrwt>0</asrwt>
<pdfrwt beam="1">  1       21 0.12105975E+00 0.53870253E+03</pdfrwt>
<pdfrwt beam="2">  1       21 0.76701782E-01 0.53870253E+03</pdfrwt>
<totfact> 0.63435761E+02</totfact>
</mgrwt>
</event>
<event>
 4    1  0.4676529E-002  0.4272831E+03  0.7818608E-02  0.1034722E+00
         21   -1    0    0  501  502  0.00000000000E+00  0.00000000000E+00  0.50647678258E+03  0.50647678258E+03  0.00000000000E+00 0. -1.
         21   -1    0    0  502  503 -0.00000000000E+00 -0.00000000000E+00 -0.50683026676E+03  0.50683026676E+03  0.00000000000E+00 0. -1.
    9000007    1    1    2  501    0 -0.12721175544E+03  0.79925265469E+02  0.27208580227E+03  0.50655854803E+03  0.40000000000E+03 0. -1.
   -9000007    1    1    2    0  503  0.12721175544E+03 -0.79925265469E+02 -0.27243928645E+03  0.50674850131E+03  0.40000000000E+03 0. -1.
<mgrwt>
<rscale>  2 0.42728314E+03</rscale>
<asrwt>0</asrwt>
<pdfrwt beam="1">  1       21 0.77919506E-01 0.42728314E+03</pdfrwt>
<pdfrwt beam="2">  1       21 0.77973887E-01 0.42728314E+03</pdfrwt>
<totfact> 0.18493624E+03</totfact>
</mgrwt>
</event>
<event>
 4    1  0.4676529E-002  0.4158134E+03  0.7818608E-02  0.1038438E+00
         21   -1    0    0  501  502  0.00000000000E+00  0.00000000000E+00  0.15451649889E+04  0.15451649889E+04  0.00000000000E+00 0.  1.
         21   -1    0    0  502  503 -0.00000000000E+00 -0.00000000000E+00 -0.41498016768E+03  0.41498016768E+03  0.00000000000E+00 0.  1.
    9000007    1    1    2  501    0  0.11123009429E+03 -0.22992010188E+02  0.14026695368E+04  0.14630046466E+04  0.40000000000E+03 0.  1.
   -9000007    1    1    2    0  503 -0.11123009429E+03  0.22992010188E+02 -0.27248471562E+03  0.49714050997E+03  0.40000000000E+03 0.  1.
<mgrwt>
<rscale>  2 0.41581338E+03</rscale>
<asrwt>0</asrwt>
<pdfrwt beam="1">  1       21 0.23771769E+00 0.41581338E+03</pdfrwt>
<pdfrwt beam="2">  1       21 0.63843103E-01 0.41581338E+03</pdfrwt>
<totfact> 0.14436549E+02</totfact>
</mgrwt>
</event>
<event>
 4    1  0.4676529E-002  0.4398741E+03  0.7818608E-02  0.1030785E+00
         21   -1    0    0  501  502  0.00000000000E+00  0.00000000000E+00  0.22446434658E+04  0.22446434658E+04  0.00000000000E+00 0. -1.
         21   -1    0    0  502  503 -0.00000000000E+00 -0.00000000000E+00 -0.86425735349E+02  0.86425735349E+02  0.00000000000E+00 0. -1.
    9000007    1    1    2  501    0  0.97461497308E+02  0.15488871138E+03  0.10196003803E+04  0.11104387385E+04  0.40000000000E+03 0. -1.
   -9000007    1    1    2    0  503 -0.97461497308E+02 -0.15488871138E+03  0.11386173501E+04  0.12206304626E+04  0.40000000000E+03 0. -1.
<mgrwt>
<rscale>  2 0.43987414E+03</rscale>
<asrwt>0</asrwt>
<pdfrwt beam="1">  1       21 0.34532972E+00 0.43987414E+03</pdfrwt>
<pdfrwt beam="2">  1       21 0.13296269E-01 0.43987414E+03</pdfrwt>
<totfact> 0.72385528E+02</totfact>
</mgrwt>
</event>
<event>
 4    1  0.4676529E-002  0.4318305E+03  0.7818608E-02  0.1033283E+00
         21   -1    0    0  501  502  0.00000000000E+00  0.00000000000E+00  0.72871697897E+03  0.72871697897E+03  0.00000000000E+00 0. -1.
         21   -1    0    0  502  503 -0.00000000000E+00 -0.00000000000E+00 -0.25627554389E+03  0.25627554389E+03  0.00000000000E+00 0. -1.
    9000007    1    1    2  501    0  0.12894099756E+03 -0.99256137161E+02  0.25511199367E+03  0.50155726585E+03  0.40000000000E+03 0.  1.
   -9000007    1    1    2    0  503 -0.12894099756E+03  0.99256137161E+02  0.21732944140E+03  0.48343525700E+03  0.40000000000E+03 0.  1.
<mgrwt>
<rscale>  2 0.43183048E+03</rscale>
<asrwt>0</asrwt>
<pdfrwt beam="1">  1       21 0.11211030E+00 0.43183048E+03</pdfrwt>
<pdfrwt beam="2">  1       21 0.39427007E-01 0.43183048E+03</pdfrwt>
<totfact> 0.33883334E+03</totfact>
</mgrwt>
</event>
<event>
 4    1  0.4676529E-002  0.4650800E+03  0.7818608E-02  0.1023318E+00
         21   -1    0    0  501  502  0.00000000000E+00  0.00000000000E+00  0.20360197649E+03  0.20360197649E+03  0.00000000000E+00 0. -1.
         21   -1    0    0  502  503 -0.00000000000E+00 -0.00000000000E+00 -0.12589967087E+04  0.12589967087E+04  0.00000000000E+00 0.  1.
    9000007    1    1    2  501    0  0.20129642277E+03  0.12561498636E+03 -0.23868863758E+03  0.52275390034E+03  0.40000000000E+03 0. -1.
   -9000007    1    1    2    0  503 -0.20129642277E+03 -0.12561498636E+03 -0.81670609467E+03  0.93984478489E+03  0.40000000000E+03 0.  1.
<mgrwt>
<rscale>  2 0.46507997E+03</rscale>
<asrwt>0</asrwt>
<pdfrwt beam="1">  1       21 0.31323381E-01 0.46507997E+03</pdfrwt>
<pdfrwt beam="2">  1       21 0.19369180E+00 0.46507997E+03</pdfrwt>
<totfact> 0.12042247E+03</totfact>
</mgrwt>
</event>
<event>
 4    1  0.4676529E-002  0.4372353E+03  0.7818608E-02  0.1031598E+00
         21   -1    0    0  503  502  0.00000000000E+00  0.00000000000E+00  0.19198877383E+03  0.19198877383E+03  0.00000000000E+00 0.  1.
         21   -1    0    0  501  503 -0.00000000000E+00 -0.00000000000E+00 -0.10783205592E+04  0.10783205592E+04  0.00000000000E+00 0. -1.
    9000007    1    1    2  501    0  0.12681177527E+03 -0.12285559420E+03 -0.61891458848E+03  0.75777964555E+03  0.40000000000E+03 0.  1.
   -9000007    1    1    2    0  502 -0.12681177527E+03  0.12285559420E+03 -0.26741719693E+03  0.51252968751E+03  0.40000000000E+03 0.  1.
<mgrwt>
<rscale>  2 0.43723532E+03</rscale>
<asrwt>0</asrwt>
<pdfrwt beam="1">  1       21 0.29536734E-01 0.43723532E+03</pdfrwt>
<pdfrwt beam="2">  1       21 0.16589547E+00 0.43723532E+03</pdfrwt>
<totfact> 0.21520652E+03</totfact>
</mgrwt>
</event>
<event>
 4    1  0.4676529E-002  0.7661956E+03  0.7818608E-02  0.9610279E-01
         21   -1    0    0  503  502  0.00000000000E+00  0.00000000000E+00  0.13426373475E+04  0.13426373475E+04  0.00000000000E+00 0.  1.
         21   -1    0    0  501  503 -0.00000000000E+00 -0.00000000000E+00 -0.43817920903E+03  0.43817920903E+03  0.00000000000E+00 0.  1.
    9000007    1    1    2  501    0  0.64736104052E+03  0.89327375094E+02  0.41102102484E+03  0.86947914269E+03  0.40000000000E+03 0.  1.
   -9000007    1    1    2    0  502 -0.64736104052E+03 -0.89327375094E+02  0.49343711361E+03  0.91133741381E+03  0.40000000000E+03 0.  1.
<mgrwt>
<rscale>  2 0.76619560E+03</rscale>
<asrwt>0</asrwt>
<pdfrwt beam="1">  1       21 0.20655959E+00 0.76619560E+03</pdfrwt>
<pdfrwt beam="2">  1       21 0.67412187E-01 0.76619560E+03</pdfrwt>
<totfact> 0.17439689E+02</totfact>
</mgrwt>
</event>
<event>
 4    1  0.4676529E-002  0.4118251E+03  0.7818608E-02  0.1039760E+00
         21   -1    0    0  501  502  0.00000000000E+00  0.00000000000E+00  0.96384989188E+03  0.96384989188E+03  0.00000000000E+00 0.  1.
         21   -1    0    0  502  503 -0.00000000000E+00 -0.00000000000E+00 -0.31255171338E+03  0.31255171338E+03  0.00000000000E+00 0.  1.
    9000007    1    1    2  501    0 -0.96079759208E+02 -0.19199082905E+02  0.74754673248E+03  0.85347878835E+03  0.40000000000E+03 0.  1.
   -9000007    1    1    2    0  503  0.96079759208E+02  0.19199082905E+02 -0.96248553985E+02  0.42292281690E+03  0.40000000000E+03 0.  1.
<mgrwt>
<rscale>  2 0.41182511E+03</rscale>
<asrwt>0</asrwt>
<pdfrwt beam="1">  1       21 0.14828460E+00 0.41182511E+03</pdfrwt>
<pdfrwt beam="2">  1       21 0.48084879E-01 0.41182511E+03</pdfrwt>
<totfact> 0.10957038E+03</totfact>
</mgrwt>
</event>
<event>
 4    1  0.4676529E-002  0.4509064E+03  0.7818608E-02  0.1027452E+00
         21   -1    0    0  501  502  0.00000000000E+00  0.00000000000E+00  0.51365224645E+03  0.51365224645E+03  0.00000000000E+00 0.  1.
         21   -1    0    0  502  503 -0.00000000000E+00 -0.00000000000E+00 -0.75037756943E+03  0.75037756943E+03  0.00000000000E+00 0. -1.
    9000007    1    1    2  501    0  0.19436872394E+03  0.74413687443E+02  0.31607501680E+03  0.55065416912E+03  0.40000000000E+03 0.  1.
   -9000007    1    1    2    0  503 -0.19436872394E+03 -0.74413687443E+02 -0.55280033978E+03  0.71337564676E+03  0.40000000000E+03 0. -1.
<mgrwt>
<rscale>  2 0.45090642E+03</rscale>
<asrwt>0</asrwt>
<pdfrwt beam="1">  1       21 0.79023423E-01 0.45090642E+03</pdfrwt>
<pdfrwt beam="2">  1       21 0.11544270E+00 0.45090642E+03</pdfrwt>
<totfact> 0.69166102E+02</totfact>
</mgrwt>
</event>
<event>
 4    1  0.4676529E-002  0.4289224E+03  0.7818608E-02  0.1034201E+00
         21   -1    0    0  503  502  0.00000000000E+00  0.00000000000E+00  0.11209245008E+04  0.11209245008E+04  0.00000000000E+00 0. -1.
         21   -1    0    0  501  503 -0.00000000000E+00 -0.00000000000E+00 -0.40050999693E+03  0.40050999693E+03  0.00000000000E+00 0. -1.
    9000007    1    1    2  501    0 -0.90267176973E+02 -0.12580242612E+03 -0.22421176794E+03  0.48398897770E+03  0.40000000000E+03 0. -1.
   -9000007    1    1    2    0  502  0.90267176973E+02  0.12580242612E+03  0.94462627180E+03  0.10374455200E+04  0.40000000000E+03 0. -1.
<mgrwt>
<rscale>  2 0.42892239E+03</rscale>
<asrwt>0</asrwt>
<pdfrwt beam="1">  1       21 0.17244992E+00 0.42892239E+03</pdfrwt>
<pdfrwt beam="2">  1       21 0.61616923E-01 0.42892239E+03</pdfrwt>
<totfact> 0.41895425E+02</totfact>
</mgrwt>
</event>
<event>
 4    1  0.4676529E-002  0.4120830E+03  0.7818608E-02  0.1039674E+00
         21   -1    0    0  501  502  0.00000000000E+00  0.00000000000E+00  0.57926277064E+03  0.57926277064E+03  0.00000000000E+00 0.  1.
         21   -1    0    0  502  503 -0.00000000000E+00 -0.00000000000E+00 -0.31733076247E+03  0.31733076247E+03  0.00000000000E+00 0.  1.
    9000007    1    1    2  501    0  0.17198629943E+02  0.97552897139E+02  0.72227369620E+01  0.41214624655E+03  0.40000000000E+03 0.  1.
   -9000007    1    1    2    0  503 -0.17198629943E+02 -0.97552897139E+02  0.25470927121E+03  0.48444728656E+03  0.40000000000E+03 0.  1.
<mgrwt>
<rscale>  2 0.41208295E+03</rscale>
<asrwt>0</asrwt>
<pdfrwt beam="1">  1       21 0.89117349E-01 0.41208295E+03</pdfrwt>
<pdfrwt beam="2">  1       21 0.48820117E-01 0.41208295E+03</pdfrwt>
<totfact> 0.38142532E+03</totfact>
</mgrwt>
</event>
<event>
 4    1  0.4676529E-002  0.4063296E+03  0.7818608E-02  0.1041610E+00
         21   -1    0    0  501  502  0.00000000000E+00  0.00000000000E+00  0.89838807879E+03  0.89838807879E+03  0.00000000000E+00 0.  1.
         21   -1    0    0  502  503 -0.00000000000E+00 -0.00000000000E+00 -0.20187449861E+03  0.20187449861E+03  0.00000000000E+00 0.  1.
    9000007    1    1    2  501    0  0.18409200910E+02  0.69027670981E+02  0.51296914723E+03  0.65440130199E+03  0.40000000000E+03 0.  1.
   -9000007    1    1    2    0  503 -0.18409200910E+02 -0.69027670981E+02  0.18354443295E+03  0.44586127541E+03  0.40000000000E+03 0.  1.
<mgrwt>
<rscale>  2 0.40632957E+03</rscale>
<asrwt>0</asrwt>
<pdfrwt beam="1">  1       21 0.13821355E+00 0.40632957E+03</pdfrwt>
<pdfrwt beam="2">  1       21 0.31057616E-01 0.40632957E+03</pdfrwt>
<totfact> 0.32438884E+03</totfact>
</mgrwt>
</event>
<event>
 4    1  0.4676529E-002  0.4553199E+03  0.7818608E-02  0.1026147E+00
         21   -1    0    0  503  502  0.00000000000E+00  0.00000000000E+00  0.37220905781E+03  0.37220905781E+03  0.00000000000E+00 0.  1.
         21   -1    0    0  501  503 -0.00000000000E+00 -0.00000000000E+00 -0.59573309374E+03  0.59573309374E+03  0.00000000000E+00 0. -1.
    9000007    1    1    2  501    0  0.11678715816E+03 -0.18351297783E+03 -0.23518549195E+03  0.51247289584E+03  0.40000000000E+03 0. -1.
   -9000007    1    1    2    0  502 -0.11678715816E+03  0.18351297783E+03  0.11661456027E+02  0.45546925571E+03  0.40000000000E+03 0. -1.
<mgrwt>
<rscale>  2 0.45531995E+03</rscale>
<asrwt>0</asrwt>
<pdfrwt beam="1">  1       21 0.57262932E-01 0.45531995E+03</pdfrwt>
<pdfrwt beam="2">  1       21 0.91651245E-01 0.45531995E+03</pdfrwt>
<totfact> 0.24955079E+03</totfact>
</mgrwt>
</event>
<event>
 4    1  0.4676529E-002  0.4445068E+03  0.7818608E-02  0.1029373E+00
         21   -1    0    0  501  502  0.00000000000E+00  0.00000000000E+00  0.43454492671E+03  0.43454492671E+03  0.00000000000E+00 0. -1.
         21   -1    0    0  502  503 -0.00000000000E+00 -0.00000000000E+00 -0.12721459668E+04  0.12721459668E+04  0.00000000000E+00 0. -1.
    9000007    1    1    2  501    0 -0.18189857332E+03 -0.67076292727E+02  0.26524767244E+03  0.51763176850E+03  0.40000000000E+03 0. -1.
   -9000007    1    1    2    0  503  0.18189857332E+03  0.67076292727E+02 -0.11028487125E+04  0.11890591250E+04  0.40000000000E+03 0. -1.
<mgrwt>
<rscale>  2 0.44450683E+03</rscale>
<asrwt>0</asrwt>
<pdfrwt beam="1">  1       21 0.66853067E-01 0.44450683E+03</pdfrwt>
<pdfrwt beam="2">  1       21 0.19571476E+00 0.44450683E+03</pdfrwt>
<totfact> 0.23891322E+02</totfact>
</mgrwt>
</event>
<event>
 4    1  0.4676529E-002  0.6594766E+03  0.7818608E-02  0.9789158E-01
         21   -1    0    0  501  502  0.00000000000E+00  0.00000000000E+00  0.81397682154E+03  0.81397682154E+03  0.00000000000E+00 0.  1.
         21   -1    0    0  502  503 -0.00000000000E+00 -0.00000000000E+00 -0.54307636292E+03  0.54307636292E+03  0.00000000000E+00 0.  1.
    9000007    1    1    2  501    0  0.26533198246E+03 -0.45222601261E+03  0.49203086852E+02  0.66130958798E+03  0.40000000000E+03 0.  1.
   -9000007    1    1    2    0  503 -0.26533198246E+03  0.45222601261E+03  0.22169737176E+03  0.69574359648E+03  0.40000000000E+03 0.  1.
<mgrwt>
<rscale>  2 0.65947663E+03</rscale>
<asrwt>0</asrwt>
<pdfrwt beam="1">  1       21 0.12522720E+00 0.65947663E+03</pdfrwt>
<pdfrwt beam="2">  1       21 0.83550209E-01 0.65947663E+03</pdfrwt>
<totfact> 0.45774184E+02</totfact>
</mgrwt>
</event>
<event>
 4    1  0.4676529E-002  0.4550530E+03  0.7818608E-02  0.1026226E+00
         21   -1    0    0  501  502  0.00000000000E+00  0.00000000000E+00  0.66456550000E+03  0.66456550000E+03  0.00000000000E+00 0. -1.
         21   -1    0    0  502  503 -0.00000000000E+00 -0.00000000000E+00 -0.31511255055E+03  0.31511255055E+03  0.00000000000E+00 0. -1.
    9000007    1    1    2  501    0 -0.37167190773E+02  0.21375655515E+03  0.22650246978E+03  0.50830761725E+03  0.40000000000E+03 0. -1.
   -9000007    1    1    2    0  503  0.37167190773E+02 -0.21375655515E+03  0.12295047967E+03  0.47137043330E+03  0.40000000000E+03 0. -1.
<mgrwt>
<rscale>  2 0.45505304E+03</rscale>
<asrwt>0</asrwt>
<pdfrwt beam="1">  1       21 0.10224085E+00 0.45505304E+03</pdfrwt>
<pdfrwt beam="2">  1       21 0.48478854E-01 0.45505304E+03</pdfrwt>
<totfact> 0.27408038E+03</totfact>
</mgrwt>
</event>
<event>
 4    1  0.4676529E-002  0.4104472E+03  0.7818608E-02  0.1040221E+00
         21   -1    0    0  501  502  0.00000000000E+00  0.00000000000E+00  0.18384472535E+03  0.18384472535E+03  0.00000000000E+00 0.  1.
         21   -1    0    0  502  503 -0.00000000000E+00 -0.00000000000E+00 -0.17317700918E+04  0.17317700918E+04  0.00000000000E+00 0.  1.
    9000007    1    1    2  501    0  0.61865016794E+02 -0.68114865477E+02 -0.11672475480E+03  0.42672190427E+03  0.40000000000E+03 0.  1.
   -9000007    1    1    2    0  503 -0.61865016794E+02  0.68114865477E+02 -0.14312006116E+04  0.14888929128E+04  0.40000000000E+03 0.  1.
<mgrwt>
<rscale>  2 0.41044721E+03</rscale>
<asrwt>0</asrwt>
<pdfrwt beam="1">  1       21 0.28283805E-01 0.41044721E+03</pdfrwt>
<pdfrwt beam="2">  1       21 0.26642615E+00 0.41044721E+03</pdfrwt>
<totfact> 0.52544069E+02</totfact>
</mgrwt>
</event>
<event>
 4    1  0.4676529E-002  0.6108213E+03  0.7818608E-02  0.9883206E-01
         21   -1    0    0  503  502  0.00000000000E+00  0.00000000000E+00  0.14996597824E+04  0.14996597824E+04  0.00000000000E+00 0. -1.
         21   -1    0    0  501  503 -0.00000000000E+00 -0.00000000000E+00 -0.36890020482E+03  0.36890020482E+03  0.00000000000E+00 0. -1.
    9000007    1    1    2  501    0 -0.92698943121E+02 -0.45222737666E+03  0.32278493984E+02  0.61167360204E+03  0.40000000000E+03 0. -1.
   -9000007    1    1    2    0  502  0.92698943121E+02  0.45222737666E+03  0.10984810836E+04  0.12568863852E+04  0.40000000000E+03 0. -1.
<mgrwt>
<rscale>  2 0.61082133E+03</rscale>
<asrwt>0</asrwt>
<pdfrwt beam="1">  1       21 0.23071689E+00 0.61082133E+03</pdfrwt>
<pdfrwt beam="2">  1       21 0.56753878E-01 0.61082133E+03</pdfrwt>
<totfact> 0.18770078E+02</totfact>
</mgrwt>
</event>
<event>
 4    1  0.4676529E-002  0.4170329E+03  0.7818608E-02  0.1038036E+00
         21   -1    0    0  501  502  0.00000000000E+00  0.00000000000E+00  0.26086397298E+03  0.26086397298E+03  0.00000000000E+00 0.  1.
         21   -1    0    0  502  503 -0.00000000000E+00 -0.00000000000E+00 -0.75568589765E+03  0.75568589765E+03  0.00000000000E+00 0.  1.
    9000007    1    1    2  501    0 -0.10555833212E+03 -0.52667236870E+02 -0.72987982485E+02  0.42337175733E+03  0.40000000000E+03 0.  1.
   -9000007    1    1    2    0  503  0.10555833212E+03  0.52667236870E+02 -0.42183394218E+03  0.59317811330E+03  0.40000000000E+03 0.  1.
<mgrwt>
<rscale>  2 0.41703285E+03</rscale>
<asrwt>0</asrwt>
<pdfrwt beam="1">  1       21 0.40132920E-01 0.41703285E+03</pdfrwt>
<pdfrwt beam="2">  1       21 0.11625937E+00 0.41703285E+03</pdfrwt>
<totfact> 0.30006783E+03</totfact>
</mgrwt>
</event>
<event>
 4    1  0.4676529E-002  0.4299853E+03  0.7818608E-02  0.1033865E+00
         21   -1    0    0  503  502  0.00000000000E+00  0.00000000000E+00  0.49618438290E+03  0.49618438290E+03  0.00000000000E+00 0.  1.
         21   -1    0    0  501  503 -0.00000000000E+00 -0.00000000000E+00 -0.38470195820E+03  0.38470195820E+03  0.00000000000E+00 0.  1.
    9000007    1    1    2  501    0  0.16369217101E+02 -0.15690584652E+03 -0.22318395565E+02  0.43056417259E+03  0.40000000000E+03 0.  1.
   -9000007    1    1    2    0  502 -0.16369217101E+02  0.15690584652E+03  0.13380082027E+03  0.45032216851E+03  0.40000000000E+03 0.  1.
<mgrwt>
<rscale>  2 0.42998534E+03</rscale>
<asrwt>0</asrwt>
<pdfrwt beam="1">  1       21 0.76336059E-01 0.42998534E+03</pdfrwt>
<pdfrwt beam="2">  1       21 0.59184917E-01 0.42998534E+03</pdfrwt>
<totfact> 0.35892076E+03</totfact>
</mgrwt>
</event>
<event>
 4    1  0.4676529E-002  0.4783353E+03  0.7818608E-02  0.1019594E+00
         21   -1    0    0  501  502  0.00000000000E+00  0.00000000000E+00  0.36620494572E+03  0.36620494572E+03  0.00000000000E+00 0. -1.
         21   -1    0    0  502  503 -0.00000000000E+00 -0.00000000000E+00 -0.79778916009E+03  0.79778916009E+03  0.00000000000E+00 0. -1.
    9000007    1    1    2  501    0 -0.21673880859E+03 -0.14774631110E+03 -0.48680299298E+03  0.68248211520E+03  0.40000000000E+03 0. -1.
   -9000007    1    1    2    0  503  0.21673880859E+03  0.14774631110E+03  0.55218778606E+02  0.48151199061E+03  0.40000000000E+03 0. -1.
<mgrwt>
<rscale>  2 0.47833533E+03</rscale>
<asrwt>0</asrwt>
<pdfrwt beam="1">  1       21 0.56339223E-01 0.47833533E+03</pdfrwt>
<pdfrwt beam="2">  1       21 0.12273679E+00 0.47833533E+03</pdfrwt>
<totfact> 0.12474997E+03</totfact>
</mgrwt>
</event>
<event>
 4    1  0.4676529E-002  0.5300951E+03  0.7818608E-02  0.1006209E+00
         21   -1    0    0  501  502  0.00000000000E+00  0.00000000000E+00  0.52150981923E+03  0.52150981923E+03  0.00000000000E+00 0.  1.
         21   -1    0    0  502  503 -0.00000000000E+00 -0.00000000000E+00 -0.55380583414E+03  0.55380583414E+03  0.00000000000E+00 0.  1.
    9000007    1    1    2  501    0 -0.32462588862E+03 -0.12497549958E+03  0.72290630072E+02  0.53500166191E+03  0.40000000000E+03 0.  1.
   -9000007    1    1    2    0  503  0.32462588862E+03  0.12497549958E+03 -0.10458664498E+03  0.54031399146E+03  0.40000000000E+03 0.  1.
<mgrwt>
<rscale>  2 0.53009513E+03</rscale>
<asrwt>0</asrwt>
<pdfrwt beam="1">  1       21 0.80232280E-01 0.53009513E+03</pdfrwt>
<pdfrwt beam="2">  1       21 0.85200897E-01 0.53009513E+03</pdfrwt>
<totfact> 0.13554299E+03</totfact>
</mgrwt>
</event>
<event>
 4    1  0.4676529E-002  0.4932221E+03  0.7818608E-02  0.1015563E+00
         21   -1    0    0  503  502  0.00000000000E+00  0.00000000000E+00  0.23876834043E+04  0.23876834043E+04  0.00000000000E+00 0.  1.
         21   -1    0    0  501  503 -0.00000000000E+00 -0.00000000000E+00 -0.21562624374E+03  0.21562624374E+03  0.00000000000E+00 0.  1.
    9000007    1    1    2  501    0  0.27866452566E+03  0.74927604944E+02  0.14065196089E+03  0.51288501435E+03  0.40000000000E+03 0.  1.
   -9000007    1    1    2    0  502 -0.27866452566E+03 -0.74927604944E+02  0.20314051997E+04  0.20904246337E+04  0.40000000000E+03 0.  1.
<mgrwt>
<rscale>  2 0.49322212E+03</rscale>
<asrwt>0</asrwt>
<pdfrwt beam="1">  1       21 0.36733589E+00 0.49322212E+03</pdfrwt>
<pdfrwt beam="2">  1       21 0.33173270E-01 0.49322212E+03</pdfrwt>
<totfact> 0.88717458E+01</totfact>
</mgrwt>
</event>
<event>
 4    1  0.4676529E-002  0.4191483E+03  0.7818608E-02  0.1037344E+00
         21   -1    0    0  501  502  0.00000000000E+00  0.00000000000E+00  0.11010128304E+04  0.11010128304E+04  0.00000000000E+00 0. -1.
         21   -1    0    0  502  503 -0.00000000000E+00 -0.00000000000E+00 -0.16809970258E+03  0.16809970258E+03  0.00000000000E+00 0. -1.
    9000007    1    1    2  501    0  0.12514366805E+03  0.49334994202E+01  0.60942192622E+03  0.73964880939E+03  0.40000000000E+03 0. -1.
   -9000007    1    1    2    0  503 -0.12514366805E+03 -0.49334994202E+01  0.32349120156E+03  0.52946372355E+03  0.40000000000E+03 0. -1.
<mgrwt>
<rscale>  2 0.41914828E+03</rscale>
<asrwt>0</asrwt>
<pdfrwt beam="1">  1       21 0.16938658E+00 0.41914828E+03</pdfrwt>
<pdfrwt beam="2">  1       21 0.25861493E-01 0.41914828E+03</pdfrwt>
<totfact> 0.26546854E+03</totfact>
</mgrwt>
</event>
<event>
 4    1  0.4676529E-002  0.4111026E+03  0.7818608E-02  0.1040002E+00
         21   -1    0    0  503  502  0.00000000000E+00  0.00000000000E+00  0.17329563161E+03  0.17329563161E+03  0.00000000000E+00 0.  1.
         21   -1    0    0  501  503 -0.00000000000E+00 -0.00000000000E+00 -0.97729583632E+03  0.97729583632E+03  0.00000000000E+00 0.  1.
    9000007    1    1    2  501    0  0.85764523297E+02 -0.40617462307E+02 -0.37563269249E+03  0.55687094678E+03  0.40000000000E+03 0.  1.
   -9000007    1    1    2    0  502 -0.85764523297E+02  0.40617462307E+02 -0.42836751222E+03  0.59372052114E+03  0.40000000000E+03 0.  1.
<mgrwt>
<rscale>  2 0.41110258E+03</rscale>
<asrwt>0</asrwt>
<pdfrwt beam="1">  1       21 0.26660866E-01 0.41110258E+03</pdfrwt>
<pdfrwt beam="2">  1       21 0.15035321E+00 0.41110258E+03</pdfrwt>
<totfact> 0.34930166E+03</totfact>
</mgrwt>
</event>
<event>
 4    1  0.4676529E-002  0.4488692E+03  0.7818608E-02  0.1028060E+00
         21   -1    0    0  503  502  0.00000000000E+00  0.00000000000E+00  0.17963033945E+04  0.17963033945E+04  0.00000000000E+00 0.  1.
         21   -1    0    0  501  503 -0.00000000000E+00 -0.00000000000E+00 -0.13560568314E+03  0.13560568314E+03  0.00000000000E+00 0.  1.
    9000007    1    1    2  501    0 -0.13484633679E+02 -0.20322815262E+03  0.42874584648E+03  0.62073063259E+03  0.40000000000E+03 0.  1.
   -9000007    1    1    2    0  502  0.13484633679E+02  0.20322815262E+03  0.12319518649E+04  0.13111784451E+04  0.40000000000E+03 0.  1.
<mgrwt>
<rscale>  2 0.44886915E+03</rscale>
<asrwt>0</asrwt>
<pdfrwt beam="1">  1       21 0.27635435E+00 0.44886915E+03</pdfrwt>
<pdfrwt beam="2">  1       21 0.20862414E-01 0.44886915E+03</pdfrwt>
<totfact> 0.80828051E+02</totfact>
</mgrwt>
</event>
<event>
 4    1  0.4676529E-002  0.4875612E+03  0.7818608E-02  0.1017078E+00
         21   -1    0    0  501  502  0.00000000000E+00  0.00000000000E+00  0.10863908984E+04  0.10863908984E+04  0.00000000000E+00 0. -1.
         21   -1    0    0  502  503 -0.00000000000E+00 -0.00000000000E+00 -0.30689907059E+03  0.30689907059E+03  0.00000000000E+00 0.  1.
    9000007    1    1    2  501    0 -0.27876194796E+03 -0.27679330363E+01  0.76296911401E+03  0.90544892403E+03  0.40000000000E+03 0.  1.
   -9000007    1    1    2    0  503  0.27876194796E+03  0.27679330363E+01  0.16522713800E+02  0.48784104497E+03  0.40000000000E+03 0.  1.
<mgrwt>
<rscale>  2 0.48756116E+03</rscale>
<asrwt>0</asrwt>
<pdfrwt beam="1">  1       21 0.16713706E+00 0.48756116E+03</pdfrwt>
<pdfrwt beam="2">  1       21 0.47215242E-01 0.48756116E+03</pdfrwt>
<totfact> 0.79105702E+02</totfact>
</mgrwt>
</event>
<event>
 4    1  0.4676529E-002  0.5562542E+03  0.7818608E-02  0.1000057E+00
         21   -1    0    0  501  502  0.00000000000E+00  0.00000000000E+00  0.88611001595E+03  0.88611001595E+03  0.00000000000E+00 0. -1.
         21   -1    0    0  502  503 -0.00000000000E+00 -0.00000000000E+00 -0.50029459631E+03  0.50029459631E+03  0.00000000000E+00 0. -1.
    9000007    1    1    2  501    0  0.29724183870E+03  0.24711547955E+03  0.57387628212E+03  0.79922009365E+03  0.40000000000E+03 0. -1.
   -9000007    1    1    2    0  503 -0.29724183870E+03 -0.24711547955E+03 -0.18806086248E+03  0.58718451862E+03  0.40000000000E+03 0. -1.
<mgrwt>
<rscale>  2 0.55625423E+03</rscale>
<asrwt>0</asrwt>
<pdfrwt beam="1">  1       21 0.13632462E+00 0.55625423E+03</pdfrwt>
<pdfrwt beam="2">  1       21 0.76968400E-01 0.55625423E+03</pdfrwt>
<totfact> 0.45901416E+02</totfact>
</mgrwt>
</event>
<event>
 4    1  0.4676529E-002  0.4246140E+03  0.7818608E-02  0.1035575E+00
         21   -1    0    0  503  502  0.00000000000E+00  0.00000000000E+00  0.81780739292E+03  0.81780739292E+03  0.00000000000E+00 0.  1.
         21   -1    0    0  501  503 -0.00000000000E+00 -0.00000000000E+00 -0.22248017031E+03  0.22248017031E+03  0.00000000000E+00 0.  1.
    9000007    1    1    2  501    0 -0.10678226444E+03  0.94310958292E+02  0.24814688456E+03  0.49180675592E+03  0.40000000000E+03 0. -1.
   -9000007    1    1    2    0  502  0.10678226444E+03 -0.94310958292E+02  0.34718033806E+03  0.54848080731E+03  0.40000000000E+03 0. -1.
<mgrwt>
<rscale>  2 0.42461395E+03</rscale>
<asrwt>0</asrwt>
<pdfrwt beam="1">  1       21 0.12581652E+00 0.42461395E+03</pdfrwt>
<pdfrwt beam="2">  1       21 0.34227719E-01 0.42461395E+03</pdfrwt>
<totfact> 0.33842731E+03</totfact>
</mgrwt>
</event>
<event>
 4    1  0.4676529E-002  0.4926591E+03  0.7818608E-02  0.1015713E+00
         21   -1    0    0  501  502  0.00000000000E+00  0.00000000000E+00  0.12274656956E+04  0.12274656956E+04  0.00000000000E+00 0. -1.
         21   -1    0    0  502  503 -0.00000000000E+00 -0.00000000000E+00 -0.26392070424E+03  0.26392070424E+03  0.00000000000E+00 0.  1.
    9000007    1    1    2  501    0 -0.17600057849E+03  0.22745715686E+03  0.85519927772E+03  0.98695428792E+03  0.40000000000E+03 0.  1.
   -9000007    1    1    2    0  503  0.17600057849E+03 -0.22745715686E+03  0.10834571359E+03  0.50443211187E+03  0.40000000000E+03 0.  1.
<mgrwt>
<rscale>  2 0.49265907E+03</rscale>
<asrwt>0</asrwt>
<pdfrwt beam="1">  1       21 0.18884087E+00 0.49265907E+03</pdfrwt>
<pdfrwt beam="2">  1       21 0.40603186E-01 0.49265907E+03</pdfrwt>
<totfact> 0.75809321E+02</totfact>
</mgrwt>
</event>
<event>
 4    1  0.4676529E-002  0.6507592E+03  0.7818608E-02  0.9805356E-01
         21   -1    0    0  501  502  0.00000000000E+00  0.00000000000E+00  0.82182600154E+03  0.82182600154E+03  0.00000000000E+00 0.  1.
         21   -1    0    0  502  503 -0.00000000000E+00 -0.00000000000E+00 -0.11733537337E+04  0.11733537337E+04  0.00000000000E+00 0.  1.
    9000007    1    1    2  501    0  0.15290466724E+03  0.49000783488E+03  0.57131765914E+03  0.86596269155E+03  0.40000000000E+03 0.  1.
   -9000007    1    1    2    0  503 -0.15290466724E+03 -0.49000783488E+03 -0.92284539133E+03  0.11292170437E+04  0.40000000000E+03 0.  1.
<mgrwt>
<rscale>  2 0.65075918E+03</rscale>
<asrwt>0</asrwt>
<pdfrwt beam="1">  1       21 0.12643477E+00 0.65075918E+03</pdfrwt>
<pdfrwt beam="2">  1       21 0.18051596E+00 0.65075918E+03</pdfrwt>
<totfact> 0.60052581E+01</totfact>
</mgrwt>
</event>
<event>
 4    1  0.4676529E-002  0.5627526E+03  0.7818608E-02  0.9985846E-01
         21   -1    0    0  503  502  0.00000000000E+00  0.00000000000E+00  0.85284319982E+03  0.85284319982E+03  0.00000000000E+00 0.  1.
         21   -1    0    0  501  503 -0.00000000000E+00 -0.00000000000E+00 -0.37541888086E+03  0.37541888086E+03  0.00000000000E+00 0. -1.
    9000007    1    1    2  501    0  0.39511224591E+03 -0.24016652582E+02  0.30276556350E+03  0.63902853842E+03  0.40000000000E+03 0.  1.
   -9000007    1    1    2    0  502 -0.39511224591E+03  0.24016652582E+02  0.17465875546E+03  0.58923354227E+03  0.40000000000E+03 0. -1.
<mgrwt>
<rscale>  2 0.56275260E+03</rscale>
<asrwt>0</asrwt>
<pdfrwt beam="1">  1       21 0.13120665E+00 0.56275260E+03</pdfrwt>
<pdfrwt beam="2">  1       21 0.57756751E-01 0.56275260E+03</pdfrwt>
<totfact> 0.96474553E+02</totfact>
</mgrwt>
</event>
<event>
 4    1  0.4676529E-002  0.4279397E+03  0.7818608E-02  0.1034513E+00
         21   -1    0    0  503  502  0.00000000000E+00  0.00000000000E+00  0.88115693247E+03  0.88115693247E+03  0.00000000000E+00 0. -1.
         21   -1    0    0  501  503 -0.00000000000E+00 -0.00000000000E+00 -0.20803112973E+03  0.20803112973E+03  0.00000000000E+00 0.  1.
    9000007    1    1    2  501    0 -0.14598070378E+03 -0.42685609552E+02  0.35342066528E+03  0.55501224652E+03  0.40000000000E+03 0.  1.
   -9000007    1    1    2    0  502  0.14598070378E+03  0.42685609552E+02  0.31970513746E+03  0.53417581568E+03  0.40000000000E+03 0.  1.
<mgrwt>
<rscale>  2 0.42793975E+03</rscale>
<asrwt>0</asrwt>
<pdfrwt beam="1">  1       21 0.13556260E+00 0.42793975E+03</pdfrwt>
<pdfrwt beam="2">  1       21 0.32004790E-01 0.42793975E+03</pdfrwt>
<totfact> 0.31874366E+03</totfact>
</mgrwt>
</event>
<event>
 4    1  0.4676529E-002  0.4651491E+03  0.7818608E-02  0.1023298E+00
         21   -1    0    0  501  502  0.00000000000E+00  0.00000000000E+00  0.84248946419E+03  0.84248946419E+03  0.00000000000E+00 0.  1.
         21   -1    0    0  502  503 -0.00000000000E+00 -0.00000000000E+00 -0.41577608259E+03  0.41577608259E+03  0.00000000000E+00 0.  1.
    9000007    1    1    2  501    0 -0.30356482053E+01 -0.23739094218E+03  0.60236455473E+03  0.76105632602E+03  0.40000000000E+03 0.  1.
   -9000007    1    1    2    0  503  0.30356482053E+01  0.23739094218E+03 -0.17565117312E+03  0.49720922076E+03  0.40000000000E+03 0.  1.
<mgrwt>
<rscale>  2 0.46514909E+03</rscale>
<asrwt>0</asrwt>
<pdfrwt beam="1">  1       21 0.12961376E+00 0.46514909E+03</pdfrwt>
<pdfrwt beam="2">  1       21 0.63965551E-01 0.46514909E+03</pdfrwt>
<totfact> 0.82462325E+02</totfact>
</mgrwt>
</event>
<event>
 4    1  0.4676529E-002  0.4454514E+03  0.7818608E-02  0.1029087E+00
         21   -1    0    0  501  502  0.00000000000E+00  0.00000000000E+00  0.39678805369E+03  0.39678805369E+03  0.00000000000E+00 0.  1.
         21   -1    0    0  502  503 -0.00000000000E+00 -0.00000000000E+00 -0.91554808751E+03  0.91554808751E+03  0.00000000000E+00 0.  1.
    9000007    1    1    2  501    0  0.19362726629E+03  0.30585548209E+02  0.18263979631E+03  0.48143980850E+03  0.40000000000E+03 0.  1.
   -9000007    1    1    2    0  503 -0.19362726629E+03 -0.30585548209E+02 -0.70139983013E+03  0.83089633271E+03  0.40000000000E+03 0.  1.
<mgrwt>
<rscale>  2 0.44545145E+03</rscale>
<asrwt>0</asrwt>
<pdfrwt beam="1">  1       21 0.61044316E-01 0.44545145E+03</pdfrwt>
<pdfrwt beam="2">  1       21 0.14085355E+00 0.44545145E+03</pdfrwt>
<totfact> 0.74113504E+02</totfact>
</mgrwt>
</event>
<event>
 4    1  0.4676529E-002  0.5193778E+03  0.7818608E-02  0.1008841E+00
         21   -1    0    0  501  502  0.00000000000E+00  0.00000000000E+00  0.39079810760E+03  0.39079810760E+03  0.00000000000E+00 0.  1.
         21   -1    0    0  502  503 -0.00000000000E+00 -0.00000000000E+00 -0.70058868230E+03  0.70058868230E+03  0.00000000000E+00 0.  1.
    9000007    1    1    2  501    0 -0.14402086062E+03 -0.29834761082E+03 -0.22114524585E+03  0.56449847204E+03  0.40000000000E+03 0.  1.
   -9000007    1    1    2    0  503  0.14402086062E+03  0.29834761082E+03 -0.88645328850E+02  0.52688831786E+03  0.40000000000E+03 0.  1.
<mgrwt>
<rscale>  2 0.51937781E+03</rscale>
<asrwt>0</asrwt>
<pdfrwt beam="1">  1       21 0.60122786E-01 0.51937781E+03</pdfrwt>
<pdfrwt beam="2">  1       21 0.10778287E+00 0.51937781E+03</pdfrwt>
<totfact> 0.14789511E+03</totfact>
</mgrwt>
</event>
<event>
 4    1  0.4676529E-002  0.5692380E+03  0.7818608E-02  0.9971366E-01
         21   -1    0    0  503  502  0.00000000000E+00  0.00000000000E+00  0.13341228277E+04  0.13341228277E+04  0.00000000000E+00 0.  1.
         21   -1    0    0  501  503 -0.00000000000E+00 -0.00000000000E+00 -0.26309431322E+03  0.26309431322E+03  0.00000000000E+00 0. -1.
    9000007    1    1    2  501    0 -0.40179514170E+03  0.50916701668E+02  0.31415026706E+03  0.65017092883E+03  0.40000000000E+03 0.  1.
   -9000007    1    1    2    0  502  0.40179514170E+03 -0.50916701668E+02  0.75687824742E+03  0.94704621208E+03  0.40000000000E+03 0. -1.
<mgrwt>
<rscale>  2 0.56923795E+03</rscale>
<asrwt>0</asrwt>
<pdfrwt beam="1">  1       21 0.20524966E+00 0.56923795E+03</pdfrwt>
<pdfrwt beam="2">  1       21 0.40476049E-01 0.56923795E+03</pdfrwt>
<totfact> 0.57320444E+02</totfact>
</mgrwt>
</event>
<event>
 4    1  0.4676529E-002  0.4251724E+03  0.7818608E-02  0.1035396E+00
         21   -1    0    0  503  502  0.00000000000E+00  0.00000000000E+00  0.10355968529E+03  0.10355968529E+03  0.00000000000E+00 0. -1.
         21   -1    0    0  501  503 -0.00000000000E+00 -0.00000000000E+00 -0.17975835159E+04  0.17975835159E+04  0.00000000000E+00 0. -1.
    9000007    1    1    2  501    0  0.83290068584E+02  0.11761942621E+03 -0.68532952608E+03  0.80650364182E+03  0.40000000000E+03 0. -1.
   -9000007    1    1    2    0  502 -0.83290068584E+02 -0.11761942621E+03 -0.10086943045E+04  0.10946395594E+04  0.40000000000E+03 0. -1.
<mgrwt>
<rscale>  2 0.42517239E+03</rscale>
<asrwt>0</asrwt>
<pdfrwt beam="1">  1       21 0.15932261E-01 0.42517239E+03</pdfrwt>
<pdfrwt beam="2">  1       21 0.27655129E+00 0.42517239E+03</pdfrwt>
<totfact> 0.13571704E+03</totfact>
</mgrwt>
</event>
<event>
 4    1  0.4676529E-002  0.4204456E+03  0.7818608E-02  0.1036921E+00
         21   -1    0    0  503  502  0.00000000000E+00  0.00000000000E+00  0.43666184388E+03  0.43666184388E+03  0.00000000000E+00 0. -1.
         21   -1    0    0  501  503 -0.00000000000E+00 -0.00000000000E+00 -0.52894906863E+03  0.52894906863E+03  0.00000000000E+00 0. -1.
    9000007    1    1    2  501    0 -0.67634036326E+01 -0.12933955129E+03  0.18773036161E+03  0.46045320265E+03  0.40000000000E+03 0. -1.
   -9000007    1    1    2    0  502  0.67634036326E+01  0.12933955129E+03 -0.28001758636E+03  0.50515770986E+03  0.40000000000E+03 0. -1.
<mgrwt>
<rscale>  2 0.42044555E+03</rscale>
<asrwt>0</asrwt>
<pdfrwt beam="1">  1       21 0.67178746E-01 0.42044555E+03</pdfrwt>
<pdfrwt beam="2">  1       21 0.81376779E-01 0.42044555E+03</pdfrwt>
<totfact> 0.23506929E+03</totfact>
</mgrwt>
</event>
<event>
 4    1  0.4676529E-002  0.4143319E+03  0.7818608E-02  0.1038927E+00
         21   -1    0    0  501  502  0.00000000000E+00  0.00000000000E+00  0.30498306475E+04  0.30498306475E+04  0.00000000000E+00 0.  1.
         21   -1    0    0  502  503 -0.00000000000E+00 -0.00000000000E+00 -0.58951815977E+02  0.58951815977E+02  0.00000000000E+00 0.  1.
    9000007    1    1    2  501    0  0.56735443843E+02 -0.91934821324E+02  0.18258157527E+04  0.18722377212E+04  0.40000000000E+03 0. -1.
   -9000007    1    1    2    0  503 -0.56735443843E+02  0.91934821324E+02  0.11650630788E+04  0.12365447423E+04  0.40000000000E+03 0. -1.
<mgrwt>
<rscale>  2 0.41433190E+03</rscale>
<asrwt>0</asrwt>
<pdfrwt beam="1">  1       21 0.46920459E+00 0.41433190E+03</pdfrwt>
<pdfrwt beam="2">  1       21 0.90695125E-02 0.41433190E+03</pdfrwt>
<totfact> 0.23228342E+02</totfact>
</mgrwt>
</event>
<event>
 4    1  0.4676529E-002  0.4118448E+03  0.7818608E-02  0.1039754E+00
         21   -1    0    0  503  502  0.00000000000E+00  0.00000000000E+00  0.80642327628E+03  0.80642327628E+03  0.00000000000E+00 0. -1.
         21   -1    0    0  501  503 -0.00000000000E+00 -0.00000000000E+00 -0.32862446143E+03  0.32862446143E+03  0.00000000000E+00 0. -1.
    9000007    1    1    2  501    0 -0.81446451665E+02  0.54613007966E+02 -0.10159806756E+03  0.42419131587E+03  0.40000000000E+03 0. -1.
   -9000007    1    1    2    0  502  0.81446451665E+02 -0.54613007966E+02  0.57939688241E+03  0.71085642184E+03  0.40000000000E+03 0. -1.
<mgrwt>
<rscale>  2 0.41184476E+03</rscale>
<asrwt>0</asrwt>
<pdfrwt beam="1">  1       21 0.12406512E+00 0.41184476E+03</pdfrwt>
<pdfrwt beam="2">  1       21 0.50557610E-01 0.41184476E+03</pdfrwt>
<totfact> 0.15733104E+03</totfact>
</mgrwt>
</event>
<event>
 4    1  0.4676529E-002  0.4768180E+03  0.7818608E-02  0.1020013E+00
         21   -1    0    0  501  502  0.00000000000E+00  0.00000000000E+00  0.25691961370E+03  0.25691961370E+03  0.00000000000E+00 0.  1.
         21   -1    0    0  502  503 -0.00000000000E+00 -0.00000000000E+00 -0.89611400616E+03  0.89611400616E+03  0.00000000000E+00 0.  1.
    9000007    1    1    2  501    0 -0.24803774993E+03 -0.76372174673E+02 -0.25518587063E+03  0.54080982149E+03  0.40000000000E+03 0.  1.
   -9000007    1    1    2    0  503  0.24803774993E+03  0.76372174673E+02 -0.38400852183E+03  0.61222379837E+03  0.40000000000E+03 0.  1.
<mgrwt>
<rscale>  2 0.47681803E+03</rscale>
<asrwt>0</asrwt>
<pdfrwt beam="1">  1       21 0.39526095E-01 0.47681803E+03</pdfrwt>
<pdfrwt beam="2">  1       21 0.13786369E+00 0.47681803E+03</pdfrwt>
<totfact> 0.19508208E+03</totfact>
</mgrwt>
</event>
<event>
 4    1  0.4676529E-002  0.4081335E+03  0.7818608E-02  0.1040999E+00
         21   -1    0    0  503  502  0.00000000000E+00  0.00000000000E+00  0.50461417068E+03  0.50461417068E+03  0.00000000000E+00 0. -1.
         21   -1    0    0  501  503 -0.00000000000E+00 -0.00000000000E+00 -0.72241811903E+03  0.72241811903E+03  0.00000000000E+00 0. -1.
    9000007    1    1    2  501    0  0.36943357650E+02  0.72167522571E+02 -0.56101920155E+03  0.69376905919E+03  0.40000000000E+03 0. -1.
   -9000007    1    1    2    0  502 -0.36943357650E+02 -0.72167522571E+02  0.34321525320E+03  0.53326323051E+03  0.40000000000E+03 0. -1.
<mgrwt>
<rscale>  2 0.40813351E+03</rscale>
<asrwt>0</asrwt>
<pdfrwt beam="1">  1       21 0.77632949E-01 0.40813351E+03</pdfrwt>
<pdfrwt beam="2">  1       21 0.11114125E+00 0.40813351E+03</pdfrwt>
<totfact> 0.80735319E+02</totfact>
</mgrwt>
</event>
<event>
 4    1  0.4676529E-002  0.4111200E+03  0.7818608E-02  0.1039996E+00
         21   -1    0    0  503  502  0.00000000000E+00  0.00000000000E+00  0.53897814171E+03  0.53897814171E+03  0.00000000000E+00 0.  1.
         21   -1    0    0  501  503 -0.00000000000E+00 -0.00000000000E+00 -0.32074405364E+03  0.32074405364E+03  0.00000000000E+00 0.  1.
    9000007    1    1    2  501    0  0.56522039297E+02 -0.76321365276E+02  0.44931326681E+02  0.41356803049E+03  0.40000000000E+03 0. -1.
   -9000007    1    1    2    0  502 -0.56522039297E+02  0.76321365276E+02  0.17330276138E+03  0.44615416487E+03  0.40000000000E+03 0. -1.
<mgrwt>
<rscale>  2 0.41112005E+03</rscale>
<asrwt>0</asrwt>
<pdfrwt beam="1">  1       21 0.82919714E-01 0.41112005E+03</pdfrwt>
<pdfrwt beam="2">  1       21 0.49345239E-01 0.41112005E+03</pdfrwt>
<totfact> 0.44156044E+03</totfact>
</mgrwt>
</event>
<event>
 4    1  0.4676529E-002  0.5176778E+03  0.7818608E-02  0.1009265E+00
         21   -1    0    0  501  502  0.00000000000E+00  0.00000000000E+00  0.13281438111E+03  0.13281438111E+03  0.00000000000E+00 0.  1.
         21   -1    0    0  502  503 -0.00000000000E+00 -0.00000000000E+00 -0.22139206096E+04  0.22139206096E+04  0.00000000000E+00 0. -1.
    9000007    1    1    2  501    0  0.32517795844E+03  0.47430012561E+02 -0.69130354037E+03  0.86364975289E+03  0.40000000000E+03 0.  1.
   -9000007    1    1    2    0  503 -0.32517795844E+03 -0.47430012561E+02 -0.13898026881E+04  0.14830852378E+04  0.40000000000E+03 0. -1.
<mgrwt>
<rscale>  2 0.51767781E+03</rscale>
<asrwt>0</asrwt>
<pdfrwt beam="1">  1       21 0.20432982E-01 0.51767781E+03</pdfrwt>
<pdfrwt beam="2">  1       21 0.34060317E+00 0.51767781E+03</pdfrwt>
<totfact> 0.33117015E+02</totfact>
</mgrwt>
</event>
<event>
 4    1  0.4676529E-002  0.4440991E+03  0.7818608E-02  0.1029496E+00
         21   -1    0    0  503  502  0.00000000000E+00  0.00000000000E+00  0.12408549096E+03  0.12408549096E+03  0.00000000000E+00 0.  1.
         21   -1    0    0  501  503 -0.00000000000E+00 -0.00000000000E+00 -0.21006163926E+04  0.21006163926E+04  0.00000000000E+00 0.  1.
    9000007    1    1    2  501    0  0.59001206310E+01  0.19284507610E+03 -0.43953117391E+03  0.62482932681E+03  0.40000000000E+03 0.  1.
   -9000007    1    1    2    0  502 -0.59001206310E+01 -0.19284507610E+03 -0.15369997278E+04  0.15998725568E+04  0.40000000000E+03 0.  1.
<mgrwt>
<rscale>  2 0.44409913E+03</rscale>
<asrwt>0</asrwt>
<pdfrwt beam="1">  1       21 0.19090074E-01 0.44409913E+03</pdfrwt>
<pdfrwt beam="2">  1       21 0.32317178E+00 0.44409913E+03</pdfrwt>
<totfact> 0.50153116E+02</totfact>
</mgrwt>
</event>
<event>
 4    1  0.4676529E-002  0.6555337E+03  0.7818608E-02  0.9796451E-01
         21   -1    0    0  503  502  0.00000000000E+00  0.00000000000E+00  0.45509162768E+03  0.45509162768E+03  0.00000000000E+00 0. -1.
         21   -1    0    0  501  503 -0.00000000000E+00 -0.00000000000E+00 -0.10069441235E+04  0.10069441235E+04  0.00000000000E+00 0. -1.
    9000007    1    1    2  501    0  0.40158395208E+03  0.32932464773E+03 -0.45831889815E+03  0.79986286735E+03  0.40000000000E+03 0. -1.
   -9000007    1    1    2    0  502 -0.40158395208E+03 -0.32932464773E+03 -0.93533597663E+02  0.66217288382E+03  0.40000000000E+03 0. -1.
<mgrwt>
<rscale>  2 0.65553367E+03</rscale>
<asrwt>0</asrwt>
<pdfrwt beam="1">  1       21 0.70014097E-01 0.65553367E+03</pdfrwt>
<pdfrwt beam="2">  1       21 0.15491448E+00 0.65553367E+03</pdfrwt>
<totfact> 0.38941946E+02</totfact>
</mgrwt>
</event>
<event>
 4    1  0.4676529E-002  0.4062570E+03  0.7818608E-02  0.1041634E+00
         21   -1    0    0  503  502  0.00000000000E+00  0.00000000000E+00  0.94303599673E+03  0.94303599673E+03  0.00000000000E+00 0. -1.
         21   -1    0    0  501  503 -0.00000000000E+00 -0.00000000000E+00 -0.18054354726E+03  0.18054354726E+03  0.00000000000E+00 0. -1.
    9000007    1    1    2  501    0  0.34788931880E+02 -0.61923236778E+02  0.47956059603E+03  0.62850864934E+03  0.40000000000E+03 0. -1.
   -9000007    1    1    2    0  502 -0.34788931880E+02  0.61923236778E+02  0.28293185344E+03  0.49507089464E+03  0.40000000000E+03 0. -1.
<mgrwt>
<rscale>  2 0.40625701E+03</rscale>
<asrwt>0</asrwt>
<pdfrwt beam="1">  1       21 0.14508246E+00 0.40625701E+03</pdfrwt>
<pdfrwt beam="2">  1       21 0.27775931E-01 0.40625701E+03</pdfrwt>
<totfact> 0.35557854E+03</totfact>
</mgrwt>
</event>
<event>
 4    1  0.4676529E-002  0.5013645E+03  0.7818608E-02  0.1013423E+00
         21   -1    0    0  501  502  0.00000000000E+00  0.00000000000E+00  0.29390260025E+03  0.29390260025E+03  0.00000000000E+00 0. -1.
         21   -1    0    0  502  503 -0.00000000000E+00 -0.00000000000E+00 -0.12779829963E+04  0.12779829963E+04  0.00000000000E+00 0.  1.
    9000007    1    1    2  501    0 -0.98191391631E+02  0.28587547435E+03 -0.94405301342E+03  0.10689258292E+04  0.40000000000E+03 0.  1.
   -9000007    1    1    2    0  503  0.98191391631E+02 -0.28587547435E+03 -0.40027382661E+02  0.50295976736E+03  0.40000000000E+03 0. -1.
<mgrwt>
<rscale>  2 0.50136447E+03</rscale>
<asrwt>0</asrwt>
<pdfrwt beam="1">  1       21 0.45215785E-01 0.50136447E+03</pdfrwt>
<pdfrwt beam="2">  1       21 0.19661277E+00 0.50136447E+03</pdfrwt>
<totfact> 0.53416344E+02</totfact>
</mgrwt>
</event>
<event>
 4    1  0.4676529E-002  0.4291376E+03  0.7818608E-02  0.1034133E+00
         21   -1    0    0  501  502  0.00000000000E+00  0.00000000000E+00  0.49443803271E+03  0.49443803271E+03  0.00000000000E+00 0. -1.
         21   -1    0    0  502  503 -0.00000000000E+00 -0.00000000000E+00 -0.25807824598E+04  0.25807824598E+04  0.00000000000E+00 0. -1.
    9000007    1    1    2  501    0  0.15348682702E+03 -0.24512285434E+02  0.37916206567E+03  0.57264555377E+03  0.40000000000E+03 0. -1.
   -9000007    1    1    2    0  503 -0.15348682702E+03  0.24512285434E+02 -0.24655064928E+04  0.25025749387E+04  0.40000000000E+03 0. -1.
<mgrwt>
<rscale>  2 0.42913757E+03</rscale>
<asrwt>0</asrwt>
<pdfrwt beam="1">  1       21 0.76067390E-01 0.42913757E+03</pdfrwt>
<pdfrwt beam="2">  1       21 0.39704345E+00 0.42913757E+03</pdfrwt>
<totfact> 0.10257976E+01</totfact>
</mgrwt>
</event>
<event>
 4    1  0.4676529E-002  0.4080672E+03  0.7818608E-02  0.1041022E+00
         21   -1    0    0  503  502  0.00000000000E+00  0.00000000000E+00  0.20362016411E+03  0.20362016411E+03  0.00000000000E+00 0. -1.
         21   -1    0    0  501  503 -0.00000000000E+00 -0.00000000000E+00 -0.82698695806E+03  0.82698695806E+03  0.00000000000E+00 0. -1.
    9000007    1    1    2  501    0 -0.62929122633E+02  0.50584059503E+02 -0.36602126211E+03  0.54817003372E+03  0.40000000000E+03 0. -1.
   -9000007    1    1    2    0  502  0.62929122633E+02 -0.50584059503E+02 -0.25734553184E+03  0.48243708845E+03  0.40000000000E+03 0. -1.
<mgrwt>
<rscale>  2 0.40806718E+03</rscale>
<asrwt>0</asrwt>
<pdfrwt beam="1">  1       21 0.31326179E-01 0.40806718E+03</pdfrwt>
<pdfrwt beam="2">  1       21 0.12722876E+00 0.40806718E+03</pdfrwt>
<totfact> 0.39524194E+03</totfact>
</mgrwt>
</event>
<event>
 4    1  0.4676529E-002  0.4034506E+03  0.7818608E-02  0.1042591E+00
         21   -1    0    0  501  502  0.00000000000E+00  0.00000000000E+00  0.29799969059E+03  0.29799969059E+03  0.00000000000E+00 0.  1.
         21   -1    0    0  502  503 -0.00000000000E+00 -0.00000000000E+00 -0.84577491182E+03  0.84577491182E+03  0.00000000000E+00 0.  1.
    9000007    1    1    2  501    0  0.52635979959E+02  0.13439446608E+01  0.66460859220E+02  0.40888800225E+03  0.40000000000E+03 0.  1.
   -9000007    1    1    2    0  503 -0.52635979959E+02 -0.13439446608E+01 -0.61423608045E+03  0.73488660017E+03  0.40000000000E+03 0.  1.
<mgrwt>
<rscale>  2 0.40345056E+03</rscale>
<asrwt>0</asrwt>
<pdfrwt beam="1">  1       21 0.45846105E-01 0.40345056E+03</pdfrwt>
<pdfrwt beam="2">  1       21 0.13011922E+00 0.40345056E+03</pdfrwt>
<totfact> 0.17173467E+03</totfact>
</mgrwt>
</event>
<event>
 4    1  0.4676529E-002  0.5644122E+03  0.7818608E-02  0.9982121E-01
         21   -1    0    0  501  502  0.00000000000E+00  0.00000000000E+00  0.94298285112E+03  0.94298285112E+03  0.00000000000E+00 0. -1.
         21   -1    0    0  502  503 -0.00000000000E+00 -0.00000000000E+00 -0.49814582645E+03  0.49814582645E+03  0.00000000000E+00 0. -1.
    9000007    1    1    2  501    0  0.14148455232E+03 -0.37221392736E+03  0.63120120304E+03  0.84674437995E+03  0.40000000000E+03 0. -1.
   -9000007    1    1    2    0  503 -0.14148455232E+03  0.37221392736E+03 -0.18636417837E+03  0.59438429761E+03  0.40000000000E+03 0. -1.
<mgrwt>
<rscale>  2 0.56441216E+03</rscale>
<asrwt>0</asrwt>
<pdfrwt beam="1">  1       21 0.14507428E+00 0.56441216E+03</pdfrwt>
<pdfrwt beam="2">  1       21 0.76637820E-01 0.56441216E+03</pdfrwt>
<totfact> 0.39112916E+02</totfact>
</mgrwt>
</event>
<event>
 4    1  0.4676529E-002  0.4758735E+03  0.7818608E-02  0.1020275E+00
         21   -1    0    0  503  502  0.00000000000E+00  0.00000000000E+00  0.31710809958E+03  0.31710809958E+03  0.00000000000E+00 0.  1.
         21   -1    0    0  501  503 -0.00000000000E+00 -0.00000000000E+00 -0.72884593428E+03  0.72884593428E+03  0.00000000000E+00 0. -1.
    9000007    1    1    2  501    0  0.14119191640E+03  0.21568591399E+03 -0.28018752632E+03  0.55223239733E+03  0.40000000000E+03 0.  1.
   -9000007    1    1    2    0  502 -0.14119191640E+03 -0.21568591399E+03 -0.13155030838E+03  0.49372163654E+03  0.40000000000E+03 0. -1.
<mgrwt>
<rscale>  2 0.47587348E+03</rscale>
<asrwt>0</asrwt>
<pdfrwt beam="1">  1       21 0.48785862E-01 0.47587348E+03</pdfrwt>
<pdfrwt beam="2">  1       21 0.11213014E+00 0.47587348E+03</pdfrwt>
<totfact> 0.21365051E+03</totfact>
</mgrwt>
</event>
<event>
 4    1  0.4676529E-002  0.5043826E+03  0.7818608E-02  0.1012641E+00
         21   -1    0    0  503  502  0.00000000000E+00  0.00000000000E+00  0.55337069363E+03  0.55337069363E+03  0.00000000000E+00 0.  1.
         21   -1    0    0  501  503 -0.00000000000E+00 -0.00000000000E+00 -0.13583991854E+04  0.13583991854E+04  0.00000000000E+00 0. -1.
    9000007    1    1    2  501    0 -0.18014656616E+03  0.24889562031E+03 -0.11799983701E+04  0.12832762635E+04  0.40000000000E+03 0. -1.
   -9000007    1    1    2    0  502  0.18014656616E+03 -0.24889562031E+03  0.37496987831E+03  0.62849361552E+03  0.40000000000E+03 0.  1.
<mgrwt>
<rscale>  2 0.50438261E+03</rscale>
<asrwt>0</asrwt>
<pdfrwt beam="1">  1       21 0.85133952E-01 0.50438261E+03</pdfrwt>
<pdfrwt beam="2">  1       21 0.20898449E+00 0.50438261E+03</pdfrwt>
<totfact> 0.10871352E+02</totfact>
</mgrwt>
</event>
<event>
 4    1  0.4676529E-002  0.4055510E+03  0.7818608E-02  0.1041874E+00
         21   -1    0    0  501  502  0.00000000000E+00  0.00000000000E+00  0.76971619453E+03  0.76971619453E+03  0.00000000000E+00 0. -1.
         21   -1    0    0  502  503 -0.00000000000E+00 -0.00000000000E+00 -0.27767704717E+03  0.27767704717E+03  0.00000000000E+00 0. -1.
    9000007    1    1    2  501    0 -0.57178615900E+02 -0.34673512404E+02  0.49743708466E+03  0.64180627901E+03  0.40000000000E+03 0. -1.
   -9000007    1    1    2    0  503  0.57178615900E+02  0.34673512404E+02 -0.53979373003E+01  0.40558696269E+03  0.40000000000E+03 0. -1.
<mgrwt>
<rscale>  2 0.40555104E+03</rscale>
<asrwt>0</asrwt>
<pdfrwt beam="1">  1       21 0.11841788E+00 0.40555104E+03</pdfrwt>
<pdfrwt beam="2">  1       21 0.42719546E-01 0.40555104E+03</pdfrwt>
<totfact> 0.25302327E+03</totfact>
</mgrwt>
</event>
<event>
 4    1  0.4676529E-002  0.4223020E+03  0.7818608E-02  0.1036320E+00
         21   -1    0    0  501  502  0.00000000000E+00  0.00000000000E+00  0.13750443454E+04  0.13750443454E+04  0.00000000000E+00 0. -1.
         21   -1    0    0  502  503 -0.00000000000E+00 -0.00000000000E+00 -0.16886066584E+03  0.16886066584E+03  0.00000000000E+00 0. -1.
    9000007    1    1    2  501    0  0.55505614021E+02  0.12352358108E+03  0.97485702704E+03  0.10623959579E+04  0.40000000000E+03 0. -1.
   -9000007    1    1    2    0  503 -0.55505614021E+02 -0.12352358108E+03  0.23132665256E+03  0.48150905335E+03  0.40000000000E+03 0. -1.
<mgrwt>
<rscale>  2 0.42230196E+03</rscale>
<asrwt>0</asrwt>
<pdfrwt beam="1">  1       21 0.21154528E+00 0.42230196E+03</pdfrwt>
<pdfrwt beam="2">  1       21 0.25978565E-01 0.42230196E+03</pdfrwt>
<totfact> 0.13530739E+03</totfact>
</mgrwt>
</event>
<event>
 4    1  0.4676529E-002  0.4121788E+03  0.7818608E-02  0.1039642E+00
         21   -1    0    0  503  502  0.00000000000E+00  0.00000000000E+00  0.11938723814E+03  0.11938723814E+03  0.00000000000E+00 0.  1.
         21   -1    0    0  501  503 -0.00000000000E+00 -0.00000000000E+00 -0.26387704131E+04  0.26387704131E+04  0.00000000000E+00 0. -1.
    9000007    1    1    2  501    0  0.93516769328E+02 -0.33852738762E+02 -0.21957631557E+04  0.22341144174E+04  0.40000000000E+03 0. -1.
   -9000007    1    1    2    0  502 -0.93516769328E+02  0.33852738762E+02 -0.32362001922E+03  0.52404323382E+03  0.40000000000E+03 0.  1.
<mgrwt>
<rscale>  2 0.41217884E+03</rscale>
<asrwt>0</asrwt>
<pdfrwt beam="1">  1       21 0.18367268E-01 0.41217884E+03</pdfrwt>
<pdfrwt beam="2">  1       21 0.40596467E+00 0.41217884E+03</pdfrwt>
<totfact> 0.16868695E+02</totfact>
</mgrwt>
</event>
<event>
 4    1  0.4676529E-002  0.4367635E+03  0.7818608E-02  0.1031744E+00
         21   -1    0    0  501  502  0.00000000000E+00  0.00000000000E+00  0.11920680657E+04  0.11920680657E+04  0.00000000000E+00 0. -1.
         21   -1    0    0  502  503 -0.00000000000E+00 -0.00000000000E+00 -0.23250692629E+03  0.23250692629E+03  0.00000000000E+00 0. -1.
    9000007    1    1    2  501    0  0.42552940108E+02 -0.17015168748E+03  0.87747368380E+03  0.98016448376E+03  0.40000000000E+03 0. -1.
   -9000007    1    1    2    0  503 -0.42552940108E+02  0.17015168748E+03  0.82087455629E+02  0.44441050824E+03  0.40000000000E+03 0. -1.
<mgrwt>
<rscale>  2 0.43676349E+03</rscale>
<asrwt>0</asrwt>
<pdfrwt beam="1">  1       21 0.18339508E+00 0.43676349E+03</pdfrwt>
<pdfrwt beam="2">  1       21 0.35770297E-01 0.43676349E+03</pdfrwt>
<totfact> 0.10986517E+03</totfact>
</mgrwt>
</event>
<event>
 4    1  0.4676529E-002  0.7236234E+03  0.7818608E-02  0.9677665E-01
         21   -1    0    0  503  502  0.00000000000E+00  0.00000000000E+00  0.18117194134E+04  0.18117194134E+04  0.00000000000E+00 0. -1.
         21   -1    0    0  501  503 -0.00000000000E+00 -0.00000000000E+00 -0.53509844617E+03  0.53509844617E+03  0.00000000000E+00 0.  1.
    9000007    1    1    2  501    0  0.59708511140E+03  0.84380952418E+02 -0.15741930291E+03  0.74054818366E+03  0.40000000000E+03 0.  1.
   -9000007    1    1    2    0  502 -0.59708511140E+03 -0.84380952418E+02  0.14340402702E+04  0.16062696759E+04  0.40000000000E+03 0. -1.
<mgrwt>
<rscale>  2 0.72362337E+03</rscale>
<asrwt>0</asrwt>
<pdfrwt beam="1">  1       21 0.27872606E+00 0.72362337E+03</pdfrwt>
<pdfrwt beam="2">  1       21 0.82322839E-01 0.72362337E+03</pdfrwt>
<totfact> 0.38787632E+01</totfact>
</mgrwt>
</event>
<event>
 4    1  0.4676529E-002  0.7516731E+03  0.7818608E-02  0.9632729E-01
         21   -1    0    0  503  502  0.00000000000E+00  0.00000000000E+00  0.27673484580E+04  0.27673484580E+04  0.00000000000E+00 0.  1.
         21   -1    0    0  501  503 -0.00000000000E+00 -0.00000000000E+00 -0.26857321137E+03  0.26857321137E+03  0.00000000000E+00 0. -1.
    9000007    1    1    2  501    0 -0.46826614051E+03 -0.43097487727E+03  0.19927136524E+04  0.21297699932E+04  0.40000000000E+03 0.  1.
   -9000007    1    1    2    0  502  0.46826614051E+03  0.43097487727E+03  0.50606159423E+03  0.90615167624E+03  0.40000000000E+03 0. -1.
<mgrwt>
<rscale>  2 0.75167315E+03</rscale>
<asrwt>0</asrwt>
<pdfrwt beam="1">  1       21 0.42574590E+00 0.75167315E+03</pdfrwt>
<pdfrwt beam="2">  1       21 0.41318957E-01 0.75167315E+03</pdfrwt>
<totfact> 0.20753691E+01</totfact>
</mgrwt>
</event>
<event>
 4    1  0.4676529E-002  0.6723493E+03  0.7818608E-02  0.9765723E-01
         21   -1    0    0  503  502  0.00000000000E+00  0.00000000000E+00  0.10895743688E+04  0.10895743688E+04  0.00000000000E+00 0. -1.
         21   -1    0    0  501  503 -0.00000000000E+00 -0.00000000000E+00 -0.46628895408E+03  0.46628895408E+03  0.00000000000E+00 0. -1.
    9000007    1    1    2  501    0 -0.53440801727E+03 -0.80384137877E+02  0.53362626783E+02  0.67446357091E+03  0.40000000000E+03 0. -1.
   -9000007    1    1    2    0  502  0.53440801727E+03  0.80384137877E+02  0.56992278792E+03  0.88139975195E+03  0.40000000000E+03 0. -1.
<mgrwt>
<rscale>  2 0.67234927E+03</rscale>
<asrwt>0</asrwt>
<pdfrwt beam="1">  1       21 0.16762683E+00 0.67234927E+03</pdfrwt>
<pdfrwt beam="2">  1       21 0.71736762E-01 0.67234927E+03</pdfrwt>
<totfact> 0.29313513E+02</totfact>
</mgrwt>
</event>
<event>
 4    1  0.4676529E-002  0.6630300E+03  0.7818608E-02  0.9782632E-01
         21   -1    0    0  503  502  0.00000000000E+00  0.00000000000E+00  0.53930250659E+03  0.53930250659E+03  0.00000000000E+00 0.  1.
         21   -1    0    0  501  503 -0.00000000000E+00 -0.00000000000E+00 -0.82682693675E+03  0.82682693675E+03  0.00000000000E+00 0.  1.
    9000007    1    1    2  501    0  0.51750064351E+03 -0.10863627481E+03 -0.22496032826E+03  0.70015420125E+03  0.40000000000E+03 0.  1.
   -9000007    1    1    2    0  502 -0.51750064351E+03  0.10863627481E+03 -0.62564101892E+02  0.66597524209E+03  0.40000000000E+03 0.  1.
<mgrwt>
<rscale>  2 0.66302998E+03</rscale>
<asrwt>0</asrwt>
<pdfrwt beam="1">  1       21 0.82969617E-01 0.66302998E+03</pdfrwt>
<pdfrwt beam="2">  1       21 0.12720414E+00 0.66302998E+03</pdfrwt>
<totfact> 0.44621456E+02</totfact>
</mgrwt>
</event>
<event>
 4    1  0.4676529E-002  0.4092800E+03  0.7818608E-02  0.1040613E+00
         21   -1    0    0  501  502  0.00000000000E+00  0.00000000000E+00  0.11697879352E+04  0.11697879352E+04  0.00000000000E+00 0. -1.
         21   -1    0    0  502  503 -0.00000000000E+00 -0.00000000000E+00 -0.30574957252E+03  0.30574957252E+03  0.00000000000E+00 0. -1.
    9000007    1    1    2  501    0 -0.85538141240E+02  0.13906264272E+02  0.96995964431E+03  0.10527734179E+04  0.40000000000E+03 0. -1.
   -9000007    1    1    2    0  503  0.85538141240E+02 -0.13906264272E+02 -0.10592128160E+03  0.42276408988E+03  0.40000000000E+03 0. -1.
<mgrwt>
<rscale>  2 0.40928005E+03</rscale>
<asrwt>0</asrwt>
<pdfrwt beam="1">  1       21 0.17996737E+00 0.40928005E+03</pdfrwt>
<pdfrwt beam="2">  1       21 0.47038396E-01 0.40928005E+03</pdfrwt>
<totfact> 0.66833321E+02</totfact>
</mgrwt>
</event>
<event>
 4    1  0.4676529E-002  0.4228700E+03  0.7818608E-02  0.1036136E+00
         21   -1    0    0  503  502  0.00000000000E+00  0.00000000000E+00  0.45874951959E+03  0.45874951959E+03  0.00000000000E+00 0.  1.
         21   -1    0    0  501  503 -0.00000000000E+00 -0.00000000000E+00 -0.39177107753E+03  0.39177107753E+03  0.00000000000E+00 0.  1.
    9000007    1    1    2  501    0 -0.20616807918E+02 -0.13562429419E+03  0.32990897309E+01  0.42288282767E+03  0.40000000000E+03 0. -1.
   -9000007    1    1    2    0  502  0.20616807918E+02  0.13562429419E+03  0.63679352330E+02  0.42763776945E+03  0.40000000000E+03 0. -1.
<mgrwt>
<rscale>  2 0.42286996E+03</rscale>
<asrwt>0</asrwt>
<pdfrwt beam="1">  1       21 0.70576850E-01 0.42286996E+03</pdfrwt>
<pdfrwt beam="2">  1       21 0.60272473E-01 0.42286996E+03</pdfrwt>
<totfact> 0.41315313E+03</totfact>
</mgrwt>
</event>
<event>
 4    1  0.4676529E-002  0.4292616E+03  0.7818608E-02  0.1034093E+00
         21   -1    0    0  501  502  0.00000000000E+00  0.00000000000E+00  0.25629848713E+03  0.25629848713E+03  0.00000000000E+00 0. -1.
         21   -1    0    0  502  503 -0.00000000000E+00 -0.00000000000E+00 -0.88522974066E+03  0.88522974066E+03  0.00000000000E+00 0. -1.
    9000007    1    1    2  501    0 -0.15574816797E+03  0.28267623106E+01 -0.67093971461E+02  0.43447334028E+03  0.40000000000E+03 0. -1.
   -9000007    1    1    2    0  503  0.15574816797E+03 -0.28267623106E+01 -0.56183728207E+03  0.70705488750E+03  0.40000000000E+03 0. -1.
<mgrwt>
<rscale>  2 0.42926155E+03</rscale>
<asrwt>0</asrwt>
<pdfrwt beam="1">  1       21 0.39430537E-01 0.42926155E+03</pdfrwt>
<pdfrwt beam="2">  1       21 0.13618919E+00 0.42926155E+03</pdfrwt>
<totfact> 0.20625662E+03</totfact>
</mgrwt>
</event>
<event>
 4    1  0.4676529E-002  0.6390159E+03  0.7818608E-02  0.9827611E-01
         21   -1    0    0  501  502  0.00000000000E+00  0.00000000000E+00  0.37141862207E+03  0.37141862207E+03  0.00000000000E+00 0. -1.
         21   -1    0    0  502  503 -0.00000000000E+00 -0.00000000000E+00 -0.19980111819E+04  0.19980111819E+04  0.00000000000E+00 0.  1.
    9000007    1    1    2  501    0  0.14067023619E+03 -0.47807237693E+03 -0.18788033637E+02  0.63929203276E+03  0.40000000000E+03 0. -1.
   -9000007    1    1    2    0  503 -0.14067023619E+03  0.47807237693E+03 -0.16078045262E+04  0.17301377713E+04  0.40000000000E+03 0.  1.
<mgrwt>
<rscale>  2 0.63901589E+03</rscale>
<asrwt>0</asrwt>
<pdfrwt beam="1">  1       21 0.57141326E-01 0.63901589E+03</pdfrwt>
<pdfrwt beam="2">  1       21 0.30738634E+00 0.63901589E+03</pdfrwt>
<totfact> 0.61403970E+01</totfact>
</mgrwt>
</event>
<event>
 4    1  0.4676529E-002  0.4214382E+03  0.7818608E-02  0.1036599E+00
         21   -1    0    0  501  502  0.00000000000E+00  0.00000000000E+00  0.51542591453E+03  0.51542591453E+03  0.00000000000E+00 0.  1.
         21   -1    0    0  502  503 -0.00000000000E+00 -0.00000000000E+00 -0.36043842469E+03  0.36043842469E+03  0.00000000000E+00 0.  1.
    9000007    1    1    2  501    0  0.12609786882E+03 -0.41346221597E+02  0.16932613259E+03  0.45418225608E+03  0.40000000000E+03 0.  1.
   -9000007    1    1    2    0  503 -0.12609786882E+03  0.41346221597E+02 -0.14338642758E+02  0.42168208313E+03  0.40000000000E+03 0.  1.
<mgrwt>
<rscale>  2 0.42143823E+03</rscale>
<asrwt>0</asrwt>
<pdfrwt beam="1">  1       21 0.79296295E-01 0.42143823E+03</pdfrwt>
<pdfrwt beam="2">  1       21 0.55452065E-01 0.42143823E+03</pdfrwt>
<totfact> 0.38007305E+03</totfact>
</mgrwt>
</event>
<event>
 4    1  0.4676529E-002  0.4213354E+03  0.7818608E-02  0.1036633E+00
         21   -1    0    0  501  502  0.00000000000E+00  0.00000000000E+00  0.48124175789E+03  0.48124175789E+03  0.00000000000E+00 0. -1.
         21   -1    0    0  502  503 -0.00000000000E+00 -0.00000000000E+00 -0.43647759367E+03  0.43647759367E+03  0.00000000000E+00 0. -1.
    9000007    1    1    2  501    0  0.13053502692E+03 -0.22003420639E+02  0.20295139564E+03  0.46766741683E+03  0.40000000000E+03 0. -1.
   -9000007    1    1    2    0  503 -0.13053502692E+03  0.22003420639E+02 -0.15818723142E+03  0.45005193474E+03  0.40000000000E+03 0. -1.
<mgrwt>
<rscale>  2 0.42133543E+03</rscale>
<asrwt>0</asrwt>
<pdfrwt beam="1">  1       21 0.74037193E-01 0.42133543E+03</pdfrwt>
<pdfrwt beam="2">  1       21 0.67150399E-01 0.42133543E+03</pdfrwt>
<totfact> 0.29213325E+03</totfact>
</mgrwt>
</event>
<event>
 4    1  0.4676529E-002  0.6826678E+03  0.7818608E-02  0.9747340E-01
         21   -1    0    0  501  502  0.00000000000E+00  0.00000000000E+00  0.13117621206E+04  0.13117621206E+04  0.00000000000E+00 0.  1.
         21   -1    0    0  502  503 -0.00000000000E+00 -0.00000000000E+00 -0.59232663161E+03  0.59232663161E+03  0.00000000000E+00 0. -1.
    9000007    1    1    2  501    0  0.55125948933E+03 -0.46350001378E+02  0.96199809322E+03  0.11796082734E+04  0.40000000000E+03 0.  1.
   -9000007    1    1    2    0  503 -0.55125948933E+03  0.46350001378E+02 -0.24256260427E+03  0.72448047882E+03  0.40000000000E+03 0. -1.
<mgrwt>
<rscale>  2 0.68266782E+03</rscale>
<asrwt>0</asrwt>
<pdfrwt beam="1">  1       21 0.20180956E+00 0.68266782E+03</pdfrwt>
<pdfrwt beam="2">  1       21 0.91127174E-01 0.68266782E+03</pdfrwt>
<totfact> 0.95675319E+01</totfact>
</mgrwt>
</event>
<event>
 4    1  0.4676529E-002  0.4450991E+03  0.7818608E-02  0.1029194E+00
         21   -1    0    0  503  502  0.00000000000E+00  0.00000000000E+00  0.14789532988E+03  0.14789532988E+03  0.00000000000E+00 0. -1.
         21   -1    0    0  501  503 -0.00000000000E+00 -0.00000000000E+00 -0.13488268234E+04  0.13488268234E+04  0.00000000000E+00 0.  1.
    9000007    1    1    2  501    0  0.18460423265E+03  0.63517436574E+02 -0.66252878122E+03  0.79815886477E+03  0.40000000000E+03 0.  1.
   -9000007    1    1    2    0  502 -0.18460423265E+03 -0.63517436574E+02 -0.53840271232E+03  0.69856328854E+03  0.40000000000E+03 0. -1.
<mgrwt>
<rscale>  2 0.44509908E+03</rscale>
<asrwt>0</asrwt>
<pdfrwt beam="1">  1       21 0.22753128E-01 0.44509908E+03</pdfrwt>
<pdfrwt beam="2">  1       21 0.20751182E+00 0.44509908E+03</pdfrwt>
<totfact> 0.18393537E+03</totfact>
</mgrwt>
</event>
<event>
 4    1  0.4676529E-002  0.4332802E+03  0.7818608E-02  0.1032829E+00
         21   -1    0    0  503  502  0.00000000000E+00  0.00000000000E+00  0.48013038178E+03  0.48013038178E+03  0.00000000000E+00 0. -1.
         21   -1    0    0  501  503 -0.00000000000E+00 -0.00000000000E+00 -0.39481645991E+03  0.39481645991E+03  0.00000000000E+00 0. -1.
    9000007    1    1    2  501    0  0.73120544635E+02 -0.14961651464E+03  0.85659800705E+02  0.44166652234E+03  0.40000000000E+03 0. -1.
   -9000007    1    1    2    0  502 -0.73120544635E+02  0.14961651464E+03 -0.34587883099E+00  0.43328031934E+03  0.40000000000E+03 0. -1.
<mgrwt>
<rscale>  2 0.43328018E+03</rscale>
<asrwt>0</asrwt>
<pdfrwt beam="1">  1       21 0.73866212E-01 0.43328018E+03</pdfrwt>
<pdfrwt beam="2">  1       21 0.60740994E-01 0.43328018E+03</pdfrwt>
<totfact> 0.36506298E+03</totfact>
</mgrwt>
</event>
<event>
 4    1  0.4676529E-002  0.4340894E+03  0.7818608E-02  0.1032576E+00
         21   -1    0    0  503  502  0.00000000000E+00  0.00000000000E+00  0.13380766892E+03  0.13380766892E+03  0.00000000000E+00 0.  1.
         21   -1    0    0  501  503 -0.00000000000E+00 -0.00000000000E+00 -0.14772547520E+04  0.14772547520E+04  0.00000000000E+00 0.  1.
    9000007    1    1    2  501    0 -0.11930461981E+03 -0.11916384493E+03 -0.84583146062E+03  0.95071787299E+03  0.40000000000E+03 0.  1.
   -9000007    1    1    2    0  502  0.11930461981E+03  0.11916384493E+03 -0.49761562244E+03  0.66034454790E+03  0.40000000000E+03 0.  1.
<mgrwt>
<rscale>  2 0.43408941E+03</rscale>
<asrwt>0</asrwt>
<pdfrwt beam="1">  1       21 0.20585795E-01 0.43408941E+03</pdfrwt>
<pdfrwt beam="2">  1       21 0.22726996E+00 0.43408941E+03</pdfrwt>
<totfact> 0.16722136E+03</totfact>
</mgrwt>
</event>
<event>
 4    1  0.4676529E-002  0.4844741E+03  0.7818608E-02  0.1017913E+00
         21   -1    0    0  503  502  0.00000000000E+00  0.00000000000E+00  0.61363667218E+03  0.61363667218E+03  0.00000000000E+00 0.  1.
         21   -1    0    0  501  503 -0.00000000000E+00 -0.00000000000E+00 -0.49640696670E+03  0.49640696670E+03  0.00000000000E+00 0. -1.
    9000007    1    1    2  501    0 -0.22619303669E+03  0.15346616674E+03  0.32448463394E+03  0.58309984724E+03  0.40000000000E+03 0.  1.
   -9000007    1    1    2    0  502  0.22619303669E+03 -0.15346616674E+03 -0.20725492846E+03  0.52694379165E+03  0.40000000000E+03 0. -1.
<mgrwt>
<rscale>  2 0.48447410E+03</rscale>
<asrwt>0</asrwt>
<pdfrwt beam="1">  1       21 0.94405642E-01 0.48447410E+03</pdfrwt>
<pdfrwt beam="2">  1       21 0.76370303E-01 0.48447410E+03</pdfrwt>
<totfact> 0.12095965E+03</totfact>
</mgrwt>
</event>
<event>
 4    1  0.4676529E-002  0.4175747E+03  0.7818608E-02  0.1037859E+00
         21   -1    0    0  503  502  0.00000000000E+00  0.00000000000E+00  0.44847712491E+03  0.44847712491E+03  0.00000000000E+00 0.  1.
         21   -1    0    0  501  503 -0.00000000000E+00 -0.00000000000E+00 -0.44548066264E+03  0.44548066264E+03  0.00000000000E+00 0.  1.
    9000007    1    1    2  501    0  0.98258585769E+02  0.68657745424E+02 -0.15793682366E+03  0.44644448250E+03  0.40000000000E+03 0.  1.
   -9000007    1    1    2    0  502 -0.98258585769E+02 -0.68657745424E+02  0.16093328592E+03  0.44751330506E+03  0.40000000000E+03 0.  1.
<mgrwt>
<rscale>  2 0.41757471E+03</rscale>
<asrwt>0</asrwt>
<pdfrwt beam="1">  1       21 0.68996481E-01 0.41757471E+03</pdfrwt>
<pdfrwt beam="2">  1       21 0.68535486E-01 0.41757471E+03</pdfrwt>
<totfact> 0.32770885E+03</totfact>
</mgrwt>
</event>
<event>
 4    1  0.4676529E-002  0.4469480E+03  0.7818608E-02  0.1028636E+00
         21   -1    0    0  501  502  0.00000000000E+00  0.00000000000E+00  0.36945065530E+03  0.36945065530E+03  0.00000000000E+00 0. -1.
         21   -1    0    0  502  503 -0.00000000000E+00 -0.00000000000E+00 -0.60115609915E+03  0.60115609915E+03  0.00000000000E+00 0. -1.
    9000007    1    1    2  501    0 -0.64517200387E+02  0.18867967854E+03  0.38045882306E+02  0.44856435369E+03  0.40000000000E+03 0. -1.
   -9000007    1    1    2    0  503  0.64517200387E+02 -0.18867967854E+03 -0.26975132616E+03  0.52204240077E+03  0.40000000000E+03 0. -1.
<mgrwt>
<rscale>  2 0.44694797E+03</rscale>
<asrwt>0</asrwt>
<pdfrwt beam="1">  1       21 0.56838563E-01 0.44694797E+03</pdfrwt>
<pdfrwt beam="2">  1       21 0.92485553E-01 0.44694797E+03</pdfrwt>
<totfact> 0.24896107E+03</totfact>
</mgrwt>
</event>
<event>
 4    1  0.4676529E-002  0.4302239E+03  0.7818608E-02  0.1033789E+00
         21   -1    0    0  501  502  0.00000000000E+00  0.00000000000E+00  0.15079712365E+04  0.15079712365E+04  0.00000000000E+00 0. -1.
         21   -1    0    0  502  503 -0.00000000000E+00 -0.00000000000E+00 -0.16514215586E+03  0.16514215586E+03  0.00000000000E+00 0. -1.
    9000007    1    1    2  501    0 -0.10666302089E+03 -0.11711375174E+03  0.10952975115E+04  0.11767621976E+04  0.40000000000E+03 0. -1.
   -9000007    1    1    2    0  503  0.10666302089E+03  0.11711375174E+03  0.24753156912E+03  0.49635119480E+03  0.40000000000E+03 0. -1.
<mgrwt>
<rscale>  2 0.43022393E+03</rscale>
<asrwt>0</asrwt>
<pdfrwt beam="1">  1       21 0.23199557E+00 0.43022393E+03</pdfrwt>
<pdfrwt beam="2">  1       21 0.25406487E-01 0.43022393E+03</pdfrwt>
<totfact> 0.10431023E+03</totfact>
</mgrwt>
</event>
<event>
 4    1  0.4676529E-002  0.4458506E+03  0.7818608E-02  0.1028967E+00
         21   -1    0    0  503  502  0.00000000000E+00  0.00000000000E+00  0.62687574071E+03  0.62687574071E+03  0.00000000000E+00 0. -1.
         21   -1    0    0  501  503 -0.00000000000E+00 -0.00000000000E+00 -0.32514126912E+03  0.32514126912E+03  0.00000000000E+00 0. -1.
    9000007    1    1    2  501    0 -0.11360339114E+03 -0.16086344525E+03  0.76012335465E+02  0.45228381979E+03  0.40000000000E+03 0. -1.
   -9000007    1    1    2    0  502  0.11360339114E+03  0.16086344525E+03  0.22572213612E+03  0.49973319004E+03  0.40000000000E+03 0. -1.
<mgrwt>
<rscale>  2 0.44585062E+03</rscale>
<asrwt>0</asrwt>
<pdfrwt beam="1">  1       21 0.96442421E-01 0.44585062E+03</pdfrwt>
<pdfrwt beam="2">  1       21 0.50021734E-01 0.44585062E+03</pdfrwt>
<totfact> 0.29644345E+03</totfact>
</mgrwt>
</event>
<event>
 4    1  0.4676529E-002  0.4170292E+03  0.7818608E-02  0.1038038E+00
         21   -1    0    0  503  502  0.00000000000E+00  0.00000000000E+00  0.50632088174E+03  0.50632088174E+03  0.00000000000E+00 0. -1.
         21   -1    0    0  501  503 -0.00000000000E+00 -0.00000000000E+00 -0.35064719041E+03  0.35064719041E+03  0.00000000000E+00 0. -1.
    9000007    1    1    2  501    0  0.10694048493E+03 -0.49769957749E+02  0.16596013885E+02  0.41735925015E+03  0.40000000000E+03 0.  1.
   -9000007    1    1    2    0  502 -0.10694048493E+03  0.49769957749E+02  0.13907767744E+03  0.43960882199E+03  0.40000000000E+03 0.  1.
<mgrwt>
<rscale>  2 0.41702915E+03</rscale>
<asrwt>0</asrwt>
<pdfrwt beam="1">  1       21 0.77895520E-01 0.41702915E+03</pdfrwt>
<pdfrwt beam="2">  1       21 0.53945722E-01 0.41702915E+03</pdfrwt>
<totfact> 0.42083114E+03</totfact>
</mgrwt>
</event>
<event>
 4    1  0.4676529E-002  0.4416505E+03  0.7818608E-02  0.1030242E+00
         21   -1    0    0  501  502  0.00000000000E+00  0.00000000000E+00  0.13518470971E+04  0.13518470971E+04  0.00000000000E+00 0. -1.
         21   -1    0    0  502  503 -0.00000000000E+00 -0.00000000000E+00 -0.16302227800E+03  0.16302227800E+03  0.00000000000E+00 0.  1.
    9000007    1    1    2  501    0  0.18684869612E+03 -0.11947224988E+02  0.33764410485E+03  0.55593049292E+03  0.40000000000E+03 0.  1.
   -9000007    1    1    2    0  503 -0.18684869612E+03  0.11947224988E+02  0.85118071426E+03  0.95893888218E+03  0.40000000000E+03 0.  1.
<mgrwt>
<rscale>  2 0.44165051E+03</rscale>
<asrwt>0</asrwt>
<pdfrwt beam="1">  1       21 0.20797647E+00 0.44165051E+03</pdfrwt>
<pdfrwt beam="2">  1       21 0.25080351E-01 0.44165051E+03</pdfrwt>
<totfact> 0.15149856E+03</totfact>
</mgrwt>
</event>
<event>
 4    1  0.4676529E-002  0.4786389E+03  0.7818608E-02  0.1019510E+00
         21   -1    0    0  501  502  0.00000000000E+00  0.00000000000E+00  0.18645620795E+03  0.18645620795E+03  0.00000000000E+00 0.  1.
         21   -1    0    0  502  503 -0.00000000000E+00 -0.00000000000E+00 -0.15434843831E+04  0.15434843831E+04  0.00000000000E+00 0.  1.
    9000007    1    1    2  501    0  0.16660171681E+03  0.20332018470E+03 -0.10691477450E+04  0.11713975116E+04  0.40000000000E+03 0.  1.
   -9000007    1    1    2    0  503 -0.16660171681E+03 -0.20332018470E+03 -0.28788043015E+03  0.55854307946E+03  0.40000000000E+03 0.  1.
<mgrwt>
<rscale>  2 0.47863893E+03</rscale>
<asrwt>0</asrwt>
<pdfrwt beam="1">  1       21 0.28685571E-01 0.47863893E+03</pdfrwt>
<pdfrwt beam="2">  1       21 0.23745913E+00 0.47863893E+03</pdfrwt>
<totfact> 0.74199401E+02</totfact>
</mgrwt>
</event>
<event>
 4    1  0.4676529E-002  0.4044531E+03  0.7818608E-02  0.1042249E+00
         21   -1    0    0  503  502  0.00000000000E+00  0.00000000000E+00  0.52304249715E+03  0.52304249715E+03  0.00000000000E+00 0.  1.
         21   -1    0    0  501  503 -0.00000000000E+00 -0.00000000000E+00 -0.59688894141E+03  0.59688894141E+03  0.00000000000E+00 0.  1.
    9000007    1    1    2  501    0  0.59842900593E+02 -0.10661259140E+01 -0.42327145537E+03  0.58544088882E+03  0.40000000000E+03 0.  1.
   -9000007    1    1    2    0  502 -0.59842900593E+02  0.10661259140E+01  0.34942501110E+03  0.53449054974E+03  0.40000000000E+03 0.  1.
<mgrwt>
<rscale>  2 0.40445310E+03</rscale>
<asrwt>0</asrwt>
<pdfrwt beam="1">  1       21 0.80468076E-01 0.40445310E+03</pdfrwt>
<pdfrwt beam="2">  1       21 0.91829068E-01 0.40445310E+03</pdfrwt>
<totfact> 0.11839374E+03</totfact>
</mgrwt>
</event>
<event>
 4    1  0.4676529E-002  0.5696907E+03  0.7818608E-02  0.9970363E-01
         21   -1    0    0  501  502  0.00000000000E+00  0.00000000000E+00  0.26845727954E+03  0.26845727954E+03  0.00000000000E+00 0. -1.
         21   -1    0    0  502  503 -0.00000000000E+00 -0.00000000000E+00 -0.22361353407E+04  0.22361353407E+04  0.00000000000E+00 0.  1.
    9000007    1    1    2  501    0  0.37264558302E+03 -0.16025833423E+03 -0.13507769794E+03  0.58548565201E+03  0.40000000000E+03 0. -1.
   -9000007    1    1    2    0  503 -0.37264558302E+03  0.16025833423E+03 -0.18326003632E+04  0.19191069682E+04  0.40000000000E+03 0.  1.
<mgrwt>
<rscale>  2 0.56969067E+03</rscale>
<asrwt>0</asrwt>
<pdfrwt beam="1">  1       21 0.41301119E-01 0.56969067E+03</pdfrwt>
<pdfrwt beam="2">  1       21 0.34402083E+00 0.56969067E+03</pdfrwt>
<totfact> 0.75680401E+01</totfact>
</mgrwt>
</event>
<event>
 4    1  0.4676529E-002  0.4097970E+03  0.7818608E-02  0.1040439E+00
         21   -1    0    0  503  502  0.00000000000E+00  0.00000000000E+00  0.14889030842E+04  0.14889030842E+04  0.00000000000E+00 0. -1.
         21   -1    0    0  501  503 -0.00000000000E+00 -0.00000000000E+00 -0.20123261183E+03  0.20123261183E+03  0.00000000000E+00 0. -1.
    9000007    1    1    2  501    0 -0.43462106635E+01 -0.88964422115E+02  0.83596825940E+02  0.41823675981E+03  0.40000000000E+03 0. -1.
   -9000007    1    1    2    0  502  0.43462106635E+01  0.88964422115E+02  0.12040736464E+04  0.12718989362E+04  0.40000000000E+03 0. -1.
<mgrwt>
<rscale>  2 0.40979697E+03</rscale>
<asrwt>0</asrwt>
<pdfrwt beam="1">  1       21 0.22906201E+00 0.40979697E+03</pdfrwt>
<pdfrwt beam="2">  1       21 0.30958864E-01 0.40979697E+03</pdfrwt>
<totfact> 0.74531986E+02</totfact>
</mgrwt>
</event>
<event>
 4    1  0.4676529E-002  0.5068137E+03  0.7818608E-02  0.1012016E+00
         21   -1    0    0  501  502  0.00000000000E+00  0.00000000000E+00  0.51775496903E+03  0.51775496903E+03  0.00000000000E+00 0. -1.
         21   -1    0    0  502  503 -0.00000000000E+00 -0.00000000000E+00 -0.72064740011E+03  0.72064740011E+03  0.00000000000E+00 0. -1.
    9000007    1    1    2  501    0  0.21643752656E+03 -0.22364019345E+03 -0.44708369963E+03  0.67582836098E+03  0.40000000000E+03 0. -1.
   -9000007    1    1    2    0  503 -0.21643752656E+03  0.22364019345E+03  0.24419126854E+03  0.56257400816E+03  0.40000000000E+03 0. -1.
<mgrwt>
<rscale>  2 0.50681371E+03</rscale>
<asrwt>0</asrwt>
<pdfrwt beam="1">  1       21 0.79654610E-01 0.50681371E+03</pdfrwt>
<pdfrwt beam="2">  1       21 0.11086883E+00 0.50681371E+03</pdfrwt>
<totfact> 0.73431613E+02</totfact>
</mgrwt>
</event>
<event>
 4    1  0.4676529E-002  0.4901005E+03  0.7818608E-02  0.1016396E+00
         21   -1    0    0  503  502  0.00000000000E+00  0.00000000000E+00  0.16040780480E+04  0.16040780480E+04  0.00000000000E+00 0.  1.
         21   -1    0    0  501  503 -0.00000000000E+00 -0.00000000000E+00 -0.15234971641E+03  0.15234971641E+03  0.00000000000E+00 0. -1.
    9000007    1    1    2  501    0 -0.30842562604E+02  0.28150882652E+03  0.61097553626E+03  0.78325576218E+03  0.40000000000E+03 0. -1.
   -9000007    1    1    2    0  502  0.30842562604E+02 -0.28150882652E+03  0.84075279534E+03  0.97317200224E+03  0.40000000000E+03 0.  1.
<mgrwt>
<rscale>  2 0.49010048E+03</rscale>
<asrwt>0</asrwt>
<pdfrwt beam="1">  1       21 0.24678123E+00 0.49010048E+03</pdfrwt>
<pdfrwt beam="2">  1       21 0.23438419E-01 0.49010048E+03</pdfrwt>
<totfact> 0.95907633E+02</totfact>
</mgrwt>
</event>
<event>
 4    1  0.4676529E-002  0.4794845E+03  0.7818608E-02  0.1019277E+00
         21   -1    0    0  501  502  0.00000000000E+00  0.00000000000E+00  0.37272869447E+03  0.37272869447E+03  0.00000000000E+00 0.  1.
         21   -1    0    0  502  503 -0.00000000000E+00 -0.00000000000E+00 -0.11541562570E+04  0.11541562570E+04  0.00000000000E+00 0.  1.
    9000007    1    1    2  501    0 -0.10422451118E+03  0.24298697768E+03  0.13020290863E+03  0.49684828416E+03  0.40000000000E+03 0.  1.
   -9000007    1    1    2    0  503  0.10422451118E+03 -0.24298697768E+03 -0.91163047112E+03  0.10300366673E+04  0.40000000000E+03 0.  1.
<mgrwt>
<rscale>  2 0.47948454E+03</rscale>
<asrwt>0</asrwt>
<pdfrwt beam="1">  1       21 0.57342877E-01 0.47948454E+03</pdfrwt>
<pdfrwt beam="2">  1       21 0.17756250E+00 0.47948454E+03</pdfrwt>
<totfact> 0.43984467E+02</totfact>
</mgrwt>
</event>
<event>
 4    1  0.4676529E-002  0.5332116E+03  0.7818608E-02  0.1005456E+00
         21   -1    0    0  501  502  0.00000000000E+00  0.00000000000E+00  0.20977037754E+03  0.20977037754E+03  0.00000000000E+00 0. -1.
         21   -1    0    0  502  503 -0.00000000000E+00 -0.00000000000E+00 -0.14138912308E+04  0.14138912308E+04  0.00000000000E+00 0.  1.
    9000007    1    1    2  501    0  0.35257218412E+03  0.27227847161E+01 -0.43688395828E+03  0.68933457158E+03  0.40000000000E+03 0. -1.
   -9000007    1    1    2    0  503 -0.35257218412E+03 -0.27227847161E+01 -0.76723689494E+03  0.93432703671E+03  0.40000000000E+03 0. -1.
<mgrwt>
<rscale>  2 0.53321155E+03</rscale>
<asrwt>0</asrwt>
<pdfrwt beam="1">  1       21 0.32272365E-01 0.53321155E+03</pdfrwt>
<pdfrwt beam="2">  1       21 0.21752173E+00 0.53321155E+03</pdfrwt>
<totfact> 0.76684495E+02</totfact>
</mgrwt>
</event>
<event>
 4    1  0.4676529E-002  0.6992129E+03  0.7818608E-02  0.9718579E-01
         21   -1    0    0  501  502  0.00000000000E+00  0.00000000000E+00  0.34171111761E+03  0.34171111761E+03  0.00000000000E+00 0. -1.
         21   -1    0    0  502  503 -0.00000000000E+00 -0.00000000000E+00 -0.20588172085E+04  0.20588172085E+04  0.00000000000E+00 0. -1.
    9000007    1    1    2  501    0 -0.52816227854E+03  0.22347992659E+03 -0.19561099256E+03  0.72605945381E+03  0.40000000000E+03 0. -1.
   -9000007    1    1    2    0  503  0.52816227854E+03 -0.22347992659E+03 -0.15214950983E+04  0.16744688723E+04  0.40000000000E+03 0. -1.
<mgrwt>
<rscale>  2 0.69921289E+03</rscale>
<asrwt>0</asrwt>
<pdfrwt beam="1">  1       21 0.52570941E-01 0.69921289E+03</pdfrwt>
<pdfrwt beam="2">  1       21 0.31674111E+00 0.69921289E+03</pdfrwt>
<totfact> 0.62844430E+01</totfact>
</mgrwt>
</event>
<event>
 4    1  0.4676529E-002  0.4860181E+03  0.7818608E-02  0.1017494E+00
         21   -1    0    0  503  502  0.00000000000E+00  0.00000000000E+00  0.61824846620E+03  0.61824846620E+03  0.00000000000E+00 0.  1.
         21   -1    0    0  501  503 -0.00000000000E+00 -0.00000000000E+00 -0.73450131195E+03  0.73450131195E+03  0.00000000000E+00 0.  1.
    9000007    1    1    2  501    0 -0.23832765194E+02  0.27503747517E+03 -0.52664736416E+03  0.71663872323E+03  0.40000000000E+03 0.  1.
   -9000007    1    1    2    0  502  0.23832765194E+02 -0.27503747517E+03  0.41039451842E+03  0.63611105492E+03  0.40000000000E+03 0.  1.
<mgrwt>
<rscale>  2 0.48601812E+03</rscale>
<asrwt>0</asrwt>
<pdfrwt beam="1">  1       21 0.95115149E-01 0.48601812E+03</pdfrwt>
<pdfrwt beam="2">  1       21 0.11300020E+00 0.48601812E+03</pdfrwt>
<totfact> 0.46473113E+02</totfact>
</mgrwt>
</event>
<event>
 4    1  0.4676529E-002  0.7158883E+03  0.7818608E-02  0.9690440E-01
         21   -1    0    0  501  502  0.00000000000E+00  0.00000000000E+00  0.71750916441E+03  0.71750916441E+03  0.00000000000E+00 0.  1.
         21   -1    0    0  502  503 -0.00000000000E+00 -0.00000000000E+00 -0.89508180975E+03  0.89508180975E+03  0.00000000000E+00 0.  1.
    9000007    1    1    2  501    0 -0.99866414283E+02 -0.58525441933E+03  0.27360265444E+03  0.76639053267E+03  0.40000000000E+03 0.  1.
   -9000007    1    1    2    0  503  0.99866414283E+02  0.58525441933E+03 -0.45117529978E+03  0.84620044149E+03  0.40000000000E+03 0.  1.
<mgrwt>
<rscale>  2 0.71588828E+03</rscale>
<asrwt>0</asrwt>
<pdfrwt beam="1">  1       21 0.11038603E+00 0.71588828E+03</pdfrwt>
<pdfrwt beam="2">  1       21 0.13770489E+00 0.71588828E+03</pdfrwt>
<totfact> 0.17784381E+02</totfact>
</mgrwt>
</event>
<event>
 4    1  0.4676529E-002  0.4784200E+03  0.7818608E-02  0.1019570E+00
         21   -1    0    0  503  502  0.00000000000E+00  0.00000000000E+00  0.13411202771E+04  0.13411202771E+04  0.00000000000E+00 0.  1.
         21   -1    0    0  501  503 -0.00000000000E+00 -0.00000000000E+00 -0.17083787682E+03  0.17083787682E+03  0.00000000000E+00 0.  1.
    9000007    1    1    2  501    0 -0.88396799783E+02  0.24712681070E+03  0.60901456016E+03  0.77445748060E+03  0.40000000000E+03 0.  1.
   -9000007    1    1    2    0  502  0.88396799783E+02 -0.24712681070E+03  0.56126784008E+03  0.73750067328E+03  0.40000000000E+03 0.  1.
<mgrwt>
<rscale>  2 0.47841996E+03</rscale>
<asrwt>0</asrwt>
<pdfrwt beam="1">  1       21 0.20632619E+00 0.47841996E+03</pdfrwt>
<pdfrwt beam="2">  1       21 0.26282751E-01 0.47841996E+03</pdfrwt>
<totfact> 0.13948358E+03</totfact>
</mgrwt>
</event>
<event>
 4    1  0.4676529E-002  0.4835421E+03  0.7818608E-02  0.1018166E+00
         21   -1    0    0  503  502  0.00000000000E+00  0.00000000000E+00  0.12607007833E+03  0.12607007833E+03  0.00000000000E+00 0.  1.
         21   -1    0    0  501  503 -0.00000000000E+00 -0.00000000000E+00 -0.19317545123E+04  0.19317545123E+04  0.00000000000E+00 0. -1.
    9000007    1    1    2  501    0 -0.19763485273E+03  0.18642259252E+03 -0.69724925756E+03  0.84851013264E+03  0.40000000000E+03 0.  1.
   -9000007    1    1    2    0  502  0.19763485273E+03 -0.18642259252E+03 -0.11084351764E+04  0.12093144580E+04  0.40000000000E+03 0. -1.
<mgrwt>
<rscale>  2 0.48354205E+03</rscale>
<asrwt>0</asrwt>
<pdfrwt beam="1">  1       21 0.19395397E-01 0.48354205E+03</pdfrwt>
<pdfrwt beam="2">  1       21 0.29719300E+00 0.48354205E+03</pdfrwt>
<totfact> 0.68287989E+02</totfact>
</mgrwt>
</event>
<event>
 4    1  0.4676529E-002  0.4048715E+03  0.7818608E-02  0.1042106E+00
         21   -1    0    0  503  502  0.00000000000E+00  0.00000000000E+00  0.77884257960E+03  0.77884257960E+03  0.00000000000E+00 0. -1.
         21   -1    0    0  501  503 -0.00000000000E+00 -0.00000000000E+00 -0.21814463852E+03  0.21814463852E+03  0.00000000000E+00 0. -1.
    9000007    1    1    2  501    0 -0.52879122048E+02 -0.33536724223E+02  0.18683166312E+03  0.44590019485E+03  0.40000000000E+03 0. -1.
   -9000007    1    1    2    0  502  0.52879122048E+02  0.33536724223E+02  0.37386627795E+03  0.55108702326E+03  0.40000000000E+03 0. -1.
<mgrwt>
<rscale>  2 0.40487148E+03</rscale>
<asrwt>0</asrwt>
<pdfrwt beam="1">  1       21 0.11982193E+00 0.40487148E+03</pdfrwt>
<pdfrwt beam="2">  1       21 0.33560714E-01 0.40487148E+03</pdfrwt>
<totfact> 0.40192509E+03</totfact>
</mgrwt>
</event>
<event>
 4    1  0.4676529E-002  0.4171318E+03  0.7818608E-02  0.1038004E+00
         21   -1    0    0  501  502  0.00000000000E+00  0.00000000000E+00  0.51298524361E+03  0.51298524361E+03  0.00000000000E+00 0.  1.
         21   -1    0    0  502  503 -0.00000000000E+00 -0.00000000000E+00 -0.49213289506E+03  0.49213289506E+03  0.00000000000E+00 0.  1.
    9000007    1    1    2  501    0 -0.11542602126E+03 -0.25995374812E+02  0.29059000187E+03  0.50837139483E+03  0.40000000000E+03 0.  1.
   -9000007    1    1    2    0  503  0.11542602126E+03  0.25995374812E+02 -0.26973765332E+03  0.49674674384E+03  0.40000000000E+03 0.  1.
<mgrwt>
<rscale>  2 0.41713178E+03</rscale>
<asrwt>0</asrwt>
<pdfrwt beam="1">  1       21 0.78920807E-01 0.41713178E+03</pdfrwt>
<pdfrwt beam="2">  1       21 0.75712753E-01 0.41713178E+03</pdfrwt>
<totfact> 0.19288402E+03</totfact>
</mgrwt>
</event>
<event>
 4    1  0.4676529E-002  0.4163805E+03  0.7818608E-02  0.1038251E+00
         21   -1    0    0  503  502  0.00000000000E+00  0.00000000000E+00  0.24282355578E+03  0.24282355578E+03  0.00000000000E+00 0.  1.
         21   -1    0    0  501  503 -0.00000000000E+00 -0.00000000000E+00 -0.74908610039E+03  0.74908610039E+03  0.00000000000E+00 0.  1.
    9000007    1    1    2  501    0 -0.11093635589E+03  0.32647832818E+02 -0.36048742725E+03  0.55074852814E+03  0.40000000000E+03 0.  1.
   -9000007    1    1    2    0  502  0.11093635589E+03 -0.32647832818E+02 -0.14577511736E+03  0.44116112803E+03  0.40000000000E+03 0.  1.
<mgrwt>
<rscale>  2 0.41638054E+03</rscale>
<asrwt>0</asrwt>
<pdfrwt beam="1">  1       21 0.37357470E-01 0.41638054E+03</pdfrwt>
<pdfrwt beam="2">  1       21 0.11524402E+00 0.41638054E+03</pdfrwt>
<totfact> 0.35527064E+03</totfact>
</mgrwt>
</event>
<event>
 4    1  0.4676529E-002  0.4436288E+03  0.7818608E-02  0.1029639E+00
         21   -1    0    0  503  502  0.00000000000E+00  0.00000000000E+00  0.46737775713E+03  0.46737775713E+03  0.00000000000E+00 0. -1.
         21   -1    0    0  501  503 -0.00000000000E+00 -0.00000000000E+00 -0.47026461606E+03  0.47026461606E+03  0.00000000000E+00 0. -1.
    9000007    1    1    2  501    0 -0.31695514677E+02  0.18921401553E+03 -0.15305111421E+03  0.46928796371E+03  0.40000000000E+03 0.  1.
   -9000007    1    1    2    0  502  0.31695514677E+02 -0.18921401553E+03  0.15016425527E+03  0.46835440948E+03  0.40000000000E+03 0.  1.
<mgrwt>
<rscale>  2 0.44362884E+03</rscale>
<asrwt>0</asrwt>
<pdfrwt beam="1">  1       21 0.71904270E-01 0.44362884E+03</pdfrwt>
<pdfrwt beam="2">  1       21 0.72348403E-01 0.44362884E+03</pdfrwt>
<totfact> 0.26179947E+03</totfact>
</mgrwt>
</event>
<event>
 4    1  0.4676529E-002  0.4052835E+03  0.7818608E-02  0.1041965E+00
         21   -1    0    0  503  502  0.00000000000E+00  0.00000000000E+00  0.24809100470E+03  0.24809100470E+03  0.00000000000E+00 0. -1.
         21   -1    0    0  501  503 -0.00000000000E+00 -0.00000000000E+00 -0.87143253945E+03  0.87143253945E+03  0.00000000000E+00 0. -1.
    9000007    1    1    2  501    0  0.62189119649E+02 -0.19677524434E+02 -0.58603741871E+03  0.71252687507E+03  0.40000000000E+03 0. -1.
   -9000007    1    1    2    0  502 -0.62189119649E+02  0.19677524434E+02 -0.37304116051E+02  0.40699666908E+03  0.40000000000E+03 0. -1.
<mgrwt>
<rscale>  2 0.40528347E+03</rscale>
<asrwt>0</asrwt>
<pdfrwt beam="1">  1       21 0.38167847E-01 0.40528347E+03</pdfrwt>
<pdfrwt beam="2">  1       21 0.13406655E+00 0.40528347E+03</pdfrwt>
<totfact> 0.23200089E+03</totfact>
</mgrwt>
</event>
<event>
 4    1  0.4676529E-002  0.4249407E+03  0.7818608E-02  0.1035470E+00
         21   -1    0    0  501  502  0.00000000000E+00  0.00000000000E+00  0.97259767018E+03  0.97259767018E+03  0.00000000000E+00 0.  1.
         21   -1    0    0  502  503 -0.00000000000E+00 -0.00000000000E+00 -0.18616101419E+03  0.18616101419E+03  0.00000000000E+00 0.  1.
    9000007    1    1    2  501    0 -0.57233902740E+02  0.13152504967E+03  0.36322552458E+03  0.55902355945E+03  0.40000000000E+03 0.  1.
   -9000007    1    1    2    0  503  0.57233902740E+02 -0.13152504967E+03  0.42321113141E+03  0.59973512492E+03  0.40000000000E+03 0.  1.
<mgrwt>
<rscale>  2 0.42494065E+03</rscale>
<asrwt>0</asrwt>
<pdfrwt beam="1">  1       21 0.14963041E+00 0.42494065E+03</pdfrwt>
<pdfrwt beam="2">  1       21 0.28640157E-01 0.42494065E+03</pdfrwt>
<totfact> 0.30573869E+03</totfact>
</mgrwt>
</event>
<event>
 4    1  0.4676529E-002  0.4385124E+03  0.7818608E-02  0.1031204E+00
         21   -1    0    0  501  502  0.00000000000E+00  0.00000000000E+00  0.16803831113E+03  0.16803831113E+03  0.00000000000E+00 0.  1.
         21   -1    0    0  502  503 -0.00000000000E+00 -0.00000000000E+00 -0.17272984359E+04  0.17272984359E+04  0.00000000000E+00 0.  1.
    9000007    1    1    2  501    0  0.15805380003E+03 -0.85510744325E+02 -0.22908711389E+03  0.49474639650E+03  0.40000000000E+03 0.  1.
   -9000007    1    1    2    0  503 -0.15805380003E+03  0.85510744325E+02 -0.13301730108E+04  0.14005903505E+04  0.40000000000E+03 0.  1.
<mgrwt>
<rscale>  2 0.43851236E+03</rscale>
<asrwt>0</asrwt>
<pdfrwt beam="1">  1       21 0.25852046E-01 0.43851236E+03</pdfrwt>
<pdfrwt beam="2">  1       21 0.26573824E+00 0.43851236E+03</pdfrwt>
<totfact> 0.62281072E+02</totfact>
</mgrwt>
</event>
<event>
 4    1  0.4676529E-002  0.4083868E+03  0.7818608E-02  0.1040914E+00
         21   -1    0    0  503  502  0.00000000000E+00  0.00000000000E+00  0.15601686046E+03  0.15601686046E+03  0.00000000000E+00 0. -1.
         21   -1    0    0  501  503 -0.00000000000E+00 -0.00000000000E+00 -0.20647892036E+04  0.20647892036E+04  0.00000000000E+00 0. -1.
    9000007    1    1    2  501    0  0.29526333685E+02 -0.76863081686E+02 -0.17255198673E+04  0.17731888083E+04  0.40000000000E+03 0. -1.
   -9000007    1    1    2    0  502 -0.29526333685E+02  0.76863081686E+02 -0.18325247588E+03  0.44761725573E+03  0.40000000000E+03 0. -1.
<mgrwt>
<rscale>  2 0.40838675E+03</rscale>
<asrwt>0</asrwt>
<pdfrwt beam="1">  1       21 0.24002595E-01 0.40838675E+03</pdfrwt>
<pdfrwt beam="2">  1       21 0.31765986E+00 0.40838675E+03</pdfrwt>
<totfact> 0.35709767E+02</totfact>
</mgrwt>
</event>
<event>
 4    1  0.4676529E-002  0.4978535E+03  0.7818608E-02  0.1014341E+00
         21   -1    0    0  503  502  0.00000000000E+00  0.00000000000E+00  0.24069578349E+03  0.24069578349E+03  0.00000000000E+00 0.  1.
         21   -1    0    0  501  503 -0.00000000000E+00 -0.00000000000E+00 -0.10868128452E+04  0.10868128452E+04  0.00000000000E+00 0. -1.
    9000007    1    1    2  501    0  0.18253426938E+02  0.29584610131E+03 -0.57514167056E+03  0.76068787585E+03  0.40000000000E+03 0. -1.
   -9000007    1    1    2    0  502 -0.18253426938E+02 -0.29584610131E+03 -0.27097539120E+03  0.56682075287E+03  0.40000000000E+03 0.  1.
<mgrwt>
<rscale>  2 0.49785350E+03</rscale>
<asrwt>0</asrwt>
<pdfrwt beam="1">  1       21 0.37030121E-01 0.49785350E+03</pdfrwt>
<pdfrwt beam="2">  1       21 0.16720198E+00 0.49785350E+03</pdfrwt>
<totfact> 0.13036490E+03</totfact>
</mgrwt>
</event>
<event>
 4    1  0.4676529E-002  0.4071245E+03  0.7818608E-02  0.1041340E+00
         21   -1    0    0  503  502  0.00000000000E+00  0.00000000000E+00  0.13609426372E+04  0.13609426372E+04  0.00000000000E+00 0.  1.
         21   -1    0    0  501  503 -0.00000000000E+00 -0.00000000000E+00 -0.27077756215E+03  0.27077756215E+03  0.00000000000E+00 0.  1.
    9000007    1    1    2  501    0 -0.63755311321E+02 -0.41056296513E+02 -0.60095455495E+02  0.41153593157E+03  0.40000000000E+03 0.  1.
   -9000007    1    1    2    0  502  0.63755311321E+02  0.41056296513E+02  0.11502605305E+04  0.12201842677E+04  0.40000000000E+03 0.  1.
<mgrwt>
<rscale>  2 0.40712450E+03</rscale>
<asrwt>0</asrwt>
<pdfrwt beam="1">  1       21 0.20937579E+00 0.40712450E+03</pdfrwt>
<pdfrwt beam="2">  1       21 0.41658087E-01 0.40712450E+03</pdfrwt>
<totfact> 0.54611393E+02</totfact>
</mgrwt>
</event>
<event>
 4    1  0.4676529E-002  0.4524106E+03  0.7818608E-02  0.1027006E+00
         21   -1    0    0  503  502  0.00000000000E+00  0.00000000000E+00  0.69971566011E+03  0.69971566011E+03  0.00000000000E+00 0. -1.
         21   -1    0    0  501  503 -0.00000000000E+00 -0.00000000000E+00 -0.35216918330E+03  0.35216918330E+03  0.00000000000E+00 0. -1.
    9000007    1    1    2  501    0 -0.95443125148E+02  0.18858932026E+03 -0.42694612913E+02  0.45442067716E+03  0.40000000000E+03 0. -1.
   -9000007    1    1    2    0  502  0.95443125148E+02 -0.18858932026E+03  0.39024108972E+03  0.59746416625E+03  0.40000000000E+03 0. -1.
<mgrwt>
<rscale>  2 0.45241057E+03</rscale>
<asrwt>0</asrwt>
<pdfrwt beam="1">  1       21 0.10764856E+00 0.45241057E+03</pdfrwt>
<pdfrwt beam="2">  1       21 0.54179874E-01 0.45241057E+03</pdfrwt>
<totfact> 0.19058610E+03</totfact>
</mgrwt>
</event>
<event>
 4    1  0.4676529E-002  0.4782833E+03  0.7818608E-02  0.1019608E+00
         21   -1    0    0  501  502  0.00000000000E+00  0.00000000000E+00  0.25869255267E+03  0.25869255267E+03  0.00000000000E+00 0. -1.
         21   -1    0    0  502  503 -0.00000000000E+00 -0.00000000000E+00 -0.14705277550E+04  0.14705277550E+04  0.00000000000E+00 0. -1.
    9000007    1    1    2  501    0 -0.46935124420E+02  0.25797685201E+03 -0.60000458121E+02  0.48203217429E+03  0.40000000000E+03 0. -1.
   -9000007    1    1    2    0  503  0.46935124420E+02 -0.25797685201E+03 -0.11518347443E+04  0.12471881334E+04  0.40000000000E+03 0. -1.
<mgrwt>
<rscale>  2 0.47828335E+03</rscale>
<asrwt>0</asrwt>
<pdfrwt beam="1">  1       21 0.39798855E-01 0.47828335E+03</pdfrwt>
<pdfrwt beam="2">  1       21 0.22623504E+00 0.47828335E+03</pdfrwt>
<totfact> 0.45092482E+02</totfact>
</mgrwt>
</event>
<event>
 4    1  0.4676529E-002  0.4652822E+03  0.7818608E-02  0.1023260E+00
         21   -1    0    0  501  502  0.00000000000E+00  0.00000000000E+00  0.16792683577E+03  0.16792683577E+03  0.00000000000E+00 0. -1.
         21   -1    0    0  502  503 -0.00000000000E+00 -0.00000000000E+00 -0.19164050138E+04  0.19164050138E+04  0.00000000000E+00 0. -1.
    9000007    1    1    2  501    0  0.13076785162E+03 -0.19846238166E+03 -0.27802028642E+03  0.54201736837E+03  0.40000000000E+03 0. -1.
   -9000007    1    1    2    0  503 -0.13076785162E+03  0.19846238166E+03 -0.14704578916E+04  0.15423144812E+04  0.40000000000E+03 0. -1.
<mgrwt>
<rscale>  2 0.46528222E+03</rscale>
<asrwt>0</asrwt>
<pdfrwt beam="1">  1       21 0.25834898E-01 0.46528222E+03</pdfrwt>
<pdfrwt beam="2">  1       21 0.29483154E+00 0.46528222E+03</pdfrwt>
<totfact> 0.41017716E+02</totfact>
</mgrwt>
</event>
<event>
 4    1  0.4676529E-002  0.4202848E+03  0.7818608E-02  0.1036974E+00
         21   -1    0    0  501  502  0.00000000000E+00  0.00000000000E+00  0.14429359033E+03  0.14429359033E+03  0.00000000000E+00 0.  1.
         21   -1    0    0  502  503 -0.00000000000E+00 -0.00000000000E+00 -0.13352317082E+04  0.13352317082E+04  0.00000000000E+00 0.  1.
    9000007    1    1    2  501    0 -0.26418511552E+02  0.12625926773E+03 -0.80882445315E+03  0.91150224161E+03  0.40000000000E+03 0.  1.
   -9000007    1    1    2    0  503  0.26418511552E+02 -0.12625926773E+03 -0.38211366472E+03  0.56802305693E+03  0.40000000000E+03 0.  1.
<mgrwt>
<rscale>  2 0.42028483E+03</rscale>
<asrwt>0</asrwt>
<pdfrwt beam="1">  1       21 0.22199014E-01 0.42028483E+03</pdfrwt>
<pdfrwt beam="2">  1       21 0.20542026E+00 0.42028483E+03</pdfrwt>
<totfact> 0.20128448E+03</totfact>
</mgrwt>
</event>
<event>
 4    1  0.4676529E-002  0.4053352E+03  0.7818608E-02  0.1041948E+00
         21   -1    0    0  501  502  0.00000000000E+00  0.00000000000E+00  0.10816991719E+04  0.10816991719E+04  0.00000000000E+00 0.  1.
         21   -1    0    0  502  503 -0.00000000000E+00 -0.00000000000E+00 -0.16144083633E+03  0.16144083633E+03  0.00000000000E+00 0.  1.
    9000007    1    1    2  501    0 -0.26294020081E+02 -0.60043583423E+02  0.61133215427E+03  0.73350092723E+03  0.40000000000E+03 0.  1.
   -9000007    1    1    2    0  503  0.26294020081E+02  0.60043583423E+02  0.30892618134E+03  0.50963908103E+03  0.40000000000E+03 0.  1.
<mgrwt>
<rscale>  2 0.40533518E+03</rscale>
<asrwt>0</asrwt>
<pdfrwt beam="1">  1       21 0.16641525E+00 0.40533518E+03</pdfrwt>
<pdfrwt beam="2">  1       21 0.24837052E-01 0.40533518E+03</pdfrwt>
<totfact> 0.30368732E+03</totfact>
</mgrwt>
</event>
<event>
 4    1  0.4676529E-002  0.4144173E+03  0.7818608E-02  0.1038899E+00
         21   -1    0    0  503  502  0.00000000000E+00  0.00000000000E+00  0.68993548755E+03  0.68993548755E+03  0.00000000000E+00 0. -1.
         21   -1    0    0  501  503 -0.00000000000E+00 -0.00000000000E+00 -0.32666537751E+03  0.32666537751E+03  0.00000000000E+00 0. -1.
    9000007    1    1    2  501    0  0.10491769550E+03 -0.27091770739E+02  0.42960228484E+03  0.59690854409E+03  0.40000000000E+03 0. -1.
   -9000007    1    1    2    0  502 -0.10491769550E+03  0.27091770739E+02 -0.66332174798E+02  0.41969232097E+03  0.40000000000E+03 0. -1.
<mgrwt>
<rscale>  2 0.41441729E+03</rscale>
<asrwt>0</asrwt>
<pdfrwt beam="1">  1       21 0.10614392E+00 0.41441729E+03</pdfrwt>
<pdfrwt beam="2">  1       21 0.50256212E-01 0.41441729E+03</pdfrwt>
<totfact> 0.23521090E+03</totfact>
</mgrwt>
</event>
<event>
 4    1  0.4676529E-002  0.4085933E+03  0.7818608E-02  0.1040844E+00
         21   -1    0    0  503  502  0.00000000000E+00  0.00000000000E+00  0.53377969563E+03  0.53377969563E+03  0.00000000000E+00 0.  1.
         21   -1    0    0  501  503 -0.00000000000E+00 -0.00000000000E+00 -0.33821752518E+03  0.33821752518E+03  0.00000000000E+00 0.  1.
    9000007    1    1    2  501    0 -0.58240406496E+02 -0.59637021015E+02  0.21738293614E+03  0.46282162887E+03  0.40000000000E+03 0.  1.
   -9000007    1    1    2    0  502  0.58240406496E+02  0.59637021015E+02 -0.21820765684E+02  0.40917559194E+03  0.40000000000E+03 0.  1.
<mgrwt>
<rscale>  2 0.40859334E+03</rscale>
<asrwt>0</asrwt>
<pdfrwt beam="1">  1       21 0.82119953E-01 0.40859334E+03</pdfrwt>
<pdfrwt beam="2">  1       21 0.52033466E-01 0.40859334E+03</pdfrwt>
<totfact> 0.40379069E+03</totfact>
</mgrwt>
</event>
<event>
 4    1  0.4676529E-002  0.5661888E+03  0.7818608E-02  0.9978148E-01
         21   -1    0    0  503  502  0.00000000000E+00  0.00000000000E+00  0.14325978118E+04  0.14325978118E+04  0.00000000000E+00 0.  1.
         21   -1    0    0  501  503 -0.00000000000E+00 -0.00000000000E+00 -0.37449027803E+03  0.37449027803E+03  0.00000000000E+00 0. -1.
    9000007    1    1    2  501    0  0.38936878979E+03  0.94666035612E+02 -0.44161319797E+02  0.56790838604E+03  0.40000000000E+03 0. -1.
   -9000007    1    1    2    0  502 -0.38936878979E+03 -0.94666035612E+02  0.11022688535E+04  0.12391797038E+04  0.40000000000E+03 0.  1.
<mgrwt>
<rscale>  2 0.56618876E+03</rscale>
<asrwt>0</asrwt>
<pdfrwt beam="1">  1       21 0.22039966E+00 0.56618876E+03</pdfrwt>
<pdfrwt beam="2">  1       21 0.57613890E-01 0.56618876E+03</pdfrwt>
<totfact> 0.21544806E+02</totfact>
</mgrwt>
</event>
<event>
 4    1  0.4676529E-002  0.5698444E+03  0.7818608E-02  0.9970023E-01
         21   -1    0    0  501  502  0.00000000000E+00  0.00000000000E+00  0.23221626156E+04  0.23221626156E+04  0.00000000000E+00 0.  1.
         21   -1    0    0  502  503 -0.00000000000E+00 -0.00000000000E+00 -0.50083763134E+03  0.50083763134E+03  0.00000000000E+00 0. -1.
    9000007    1    1    2  501    0 -0.40248992451E+03 -0.52196995444E+02  0.21090212001E+04  0.21846494199E+04  0.40000000000E+03 0.  1.
   -9000007    1    1    2    0  503  0.40248992451E+03  0.52196995444E+02 -0.28769621586E+03  0.63835082696E+03  0.40000000000E+03 0. -1.
<mgrwt>
<rscale>  2 0.56984442E+03</rscale>
<asrwt>0</asrwt>
<pdfrwt beam="1">  1       21 0.35725578E+00 0.56984442E+03</pdfrwt>
<pdfrwt beam="2">  1       21 0.77051945E-01 0.56984442E+03</pdfrwt>
<totfact> 0.16047359E+01</totfact>
</mgrwt>
</event>
<event>
 4    1  0.4676529E-002  0.4980108E+03  0.7818608E-02  0.1014299E+00
         21   -1    0    0  503  502  0.00000000000E+00  0.00000000000E+00  0.41562636646E+03  0.41562636646E+03  0.00000000000E+00 0. -1.
         21   -1    0    0  501  503 -0.00000000000E+00 -0.00000000000E+00 -0.60589896119E+03  0.60589896119E+03  0.00000000000E+00 0. -1.
    9000007    1    1    2  501    0  0.25148963360E+03  0.15737748541E+03 -0.15798463223E+03  0.52246899692E+03  0.40000000000E+03 0. -1.
   -9000007    1    1    2    0  502 -0.25148963360E+03 -0.15737748541E+03 -0.32287962499E+02  0.49905633073E+03  0.40000000000E+03 0. -1.
<mgrwt>
<rscale>  2 0.49801075E+03</rscale>
<asrwt>0</asrwt>
<pdfrwt beam="1">  1       21 0.63942518E-01 0.49801075E+03</pdfrwt>
<pdfrwt beam="2">  1       21 0.93215225E-01 0.49801075E+03</pdfrwt>
<totfact> 0.18525709E+03</totfact>
</mgrwt>
</event>
<event>
 4    1  0.4676529E-002  0.4300576E+03  0.7818608E-02  0.1033842E+00
         21   -1    0    0  503  502  0.00000000000E+00  0.00000000000E+00  0.99246905826E+03  0.99246905826E+03  0.00000000000E+00 0. -1.
         21   -1    0    0  501  503 -0.00000000000E+00 -0.00000000000E+00 -0.18953581472E+03  0.18953581472E+03  0.00000000000E+00 0. -1.
    9000007    1    1    2  501    0 -0.15431272472E+03  0.33720752372E+02  0.47805358060E+03  0.64302778484E+03  0.40000000000E+03 0.  1.
   -9000007    1    1    2    0  502  0.15431272472E+03 -0.33720752372E+02  0.32487966294E+03  0.53897708815E+03  0.40000000000E+03 0.  1.
<mgrwt>
<rscale>  2 0.43005756E+03</rscale>
<asrwt>0</asrwt>
<pdfrwt beam="1">  1       21 0.15268755E+00 0.43005756E+03</pdfrwt>
<pdfrwt beam="2">  1       21 0.29159356E-01 0.43005756E+03</pdfrwt>
<totfact> 0.27873133E+03</totfact>
</mgrwt>
</event>
<event>
 4    1  0.4676529E-002  0.4015805E+03  0.7818608E-02  0.1043234E+00
         21   -1    0    0  501  502  0.00000000000E+00  0.00000000000E+00  0.23740031595E+03  0.23740031595E+03  0.00000000000E+00 0.  1.
         21   -1    0    0  502  503 -0.00000000000E+00 -0.00000000000E+00 -0.82110516123E+03  0.82110516123E+03  0.00000000000E+00 0.  1.
    9000007    1    1    2  501    0  0.34711854986E+02 -0.78722121567E+01 -0.71912403137E+02  0.40796847712E+03  0.40000000000E+03 0.  1.
   -9000007    1    1    2    0  503 -0.34711854986E+02  0.78722121567E+01 -0.51179244215E+03  0.65053700005E+03  0.40000000000E+03 0.  1.
<mgrwt>
<rscale>  2 0.40158048E+03</rscale>
<asrwt>0</asrwt>
<pdfrwt beam="1">  1       21 0.36523126E-01 0.40158048E+03</pdfrwt>
<pdfrwt beam="2">  1       21 0.12632387E+00 0.40158048E+03</pdfrwt>
<totfact> 0.29644110E+03</totfact>
</mgrwt>
</event>
<event>
 4    1  0.4676529E-002  0.4800158E+03  0.7818608E-02  0.1019131E+00
         21   -1    0    0  503  502  0.00000000000E+00  0.00000000000E+00  0.81781320846E+03  0.81781320846E+03  0.00000000000E+00 0. -1.
         21   -1    0    0  501  503 -0.00000000000E+00 -0.00000000000E+00 -0.52752283918E+03  0.52752283918E+03  0.00000000000E+00 0. -1.
    9000007    1    1    2  501    0 -0.11967064173E+03  0.23684195877E+03 -0.31400111174E+03  0.57359556667E+03  0.40000000000E+03 0. -1.
   -9000007    1    1    2    0  502  0.11967064173E+03 -0.23684195877E+03  0.60429148102E+03  0.77174048097E+03  0.40000000000E+03 0. -1.
<mgrwt>
<rscale>  2 0.48001581E+03</rscale>
<asrwt>0</asrwt>
<pdfrwt beam="1">  1       21 0.12581742E+00 0.48001581E+03</pdfrwt>
<pdfrwt beam="2">  1       21 0.81157360E-01 0.48001581E+03</pdfrwt>
<totfact> 0.51585914E+02</totfact>
</mgrwt>
</event>
<event>
 4    1  0.4676529E-002  0.5768692E+03  0.7818608E-02  0.9954592E-01
         21   -1    0    0  501  502  0.00000000000E+00  0.00000000000E+00  0.26228234381E+03  0.26228234381E+03  0.00000000000E+00 0.  1.
         21   -1    0    0  502  503 -0.00000000000E+00 -0.00000000000E+00 -0.12978371633E+04  0.12978371633E+04  0.00000000000E+00 0.  1.
    9000007    1    1    2  501    0  0.39359045352E+03  0.13365859851E+03 -0.63450119581E+03  0.85753707415E+03  0.40000000000E+03 0.  1.
   -9000007    1    1    2    0  503 -0.39359045352E+03 -0.13365859851E+03 -0.40105362370E+03  0.70258243299E+03  0.40000000000E+03 0.  1.
<mgrwt>
<rscale>  2 0.57686919E+03</rscale>
<asrwt>0</asrwt>
<pdfrwt beam="1">  1       21 0.40351130E-01 0.57686919E+03</pdfrwt>
<pdfrwt beam="2">  1       21 0.19966726E+00 0.57686919E+03</pdfrwt>
<totfact> 0.62693830E+02</totfact>
</mgrwt>
</event>
<event>
 4    1  0.4676529E-002  0.4671262E+03  0.7818608E-02  0.1022734E+00
         21   -1    0    0  503  502  0.00000000000E+00  0.00000000000E+00  0.59574604922E+03  0.59574604922E+03  0.00000000000E+00 0. -1.
         21   -1    0    0  501  503 -0.00000000000E+00 -0.00000000000E+00 -0.36627635582E+03  0.36627635582E+03  0.00000000000E+00 0. -1.
    9000007    1    1    2  501    0 -0.22143252606E+03 -0.95783790720E+02  0.11381744788E+03  0.48079237682E+03  0.40000000000E+03 0. -1.
   -9000007    1    1    2    0  502  0.22143252606E+03  0.95783790720E+02  0.11565224552E+03  0.48123002822E+03  0.40000000000E+03 0. -1.
<mgrwt>
<rscale>  2 0.46712621E+03</rscale>
<asrwt>0</asrwt>
<pdfrwt beam="1">  1       21 0.91653239E-01 0.46712621E+03</pdfrwt>
<pdfrwt beam="2">  1       21 0.56350208E-01 0.46712621E+03</pdfrwt>
<totfact> 0.25731274E+03</totfact>
</mgrwt>
</event>
<event>
 4    1  0.4676529E-002  0.4222104E+03  0.7818608E-02  0.1036349E+00
         21   -1    0    0  503  502  0.00000000000E+00  0.00000000000E+00  0.28265508379E+03  0.28265508379E+03  0.00000000000E+00 0. -1.
         21   -1    0    0  501  503 -0.00000000000E+00 -0.00000000000E+00 -0.65578816570E+03  0.65578816570E+03  0.00000000000E+00 0. -1.
    9000007    1    1    2  501    0 -0.43491904396E+02  0.12794545786E+03 -0.94732149105E+02  0.43270748319E+03  0.40000000000E+03 0. -1.
   -9000007    1    1    2    0  502  0.43491904396E+02 -0.12794545786E+03 -0.27840093280E+03  0.50573576630E+03  0.40000000000E+03 0. -1.
<mgrwt>
<rscale>  2 0.42221036E+03</rscale>
<asrwt>0</asrwt>
<pdfrwt beam="1">  1       21 0.43485398E-01 0.42221036E+03</pdfrwt>
<pdfrwt beam="2">  1       21 0.10089049E+00 0.42221036E+03</pdfrwt>
<totfact> 0.36001190E+03</totfact>
</mgrwt>
</event>
<event>
 4    1  0.4676529E-002  0.4304256E+03  0.7818608E-02  0.1033726E+00
         21   -1    0    0  503  502  0.00000000000E+00  0.00000000000E+00  0.10125144675E+04  0.10125144675E+04  0.00000000000E+00 0.  1.
         21   -1    0    0  501  503 -0.00000000000E+00 -0.00000000000E+00 -0.26767116992E+03  0.26767116992E+03  0.00000000000E+00 0.  1.
    9000007    1    1    2  501    0  0.28154606439E+02 -0.15644024190E+03  0.12365272863E+02  0.43060321773E+03  0.40000000000E+03 0.  1.
   -9000007    1    1    2    0  502 -0.28154606439E+02  0.15644024190E+03  0.73247802468E+03  0.84958241965E+03  0.40000000000E+03 0.  1.
<mgrwt>
<rscale>  2 0.43042564E+03</rscale>
<asrwt>0</asrwt>
<pdfrwt beam="1">  1       21 0.15577145E+00 0.43042564E+03</pdfrwt>
<pdfrwt beam="2">  1       21 0.41180181E-01 0.43042564E+03</pdfrwt>
<totfact> 0.13136273E+03</totfact>
</mgrwt>
</event>
<event>
 4    1  0.4676529E-002  0.9984166E+03  0.7818608E-02  0.9310283E-01
         21   -1    0    0  501  502  0.00000000000E+00  0.00000000000E+00  0.98180394848E+03  0.98180394848E+03  0.00000000000E+00 0.  1.
         21   -1    0    0  502  503 -0.00000000000E+00 -0.00000000000E+00 -0.10698030275E+04  0.10698030275E+04  0.00000000000E+00 0.  1.
    9000007    1    1    2  501    0 -0.77204345310E+03 -0.49069817713E+03 -0.27551553023E+03  0.10357338470E+04  0.40000000000E+03 0.  1.
   -9000007    1    1    2    0  503  0.77204345310E+03  0.49069817713E+03  0.18751645126E+03  0.10158731289E+04  0.40000000000E+03 0.  1.
<mgrwt>
<rscale>  2 0.99841664E+03</rscale>
<asrwt>0</asrwt>
<pdfrwt beam="1">  1       21 0.15104676E+00 0.99841664E+03</pdfrwt>
<pdfrwt beam="2">  1       21 0.16458508E+00 0.99841664E+03</pdfrwt>
<totfact> 0.43679857E+01</totfact>
</mgrwt>
</event>
<event>
 4    1  0.4676529E-002  0.4368078E+03  0.7818608E-02  0.1031731E+00
         21   -1    0    0  503  502  0.00000000000E+00  0.00000000000E+00  0.11643419808E+04  0.11643419808E+04  0.00000000000E+00 0. -1.
         21   -1    0    0  501  503 -0.00000000000E+00 -0.00000000000E+00 -0.21326090119E+03  0.21326090119E+03  0.00000000000E+00 0. -1.
    9000007    1    1    2  501    0  0.12559154387E+03  0.12258817498E+03  0.14405813424E+03  0.45994982615E+03  0.40000000000E+03 0. -1.
   -9000007    1    1    2    0  502 -0.12559154387E+03 -0.12258817498E+03  0.80702294537E+03  0.91765305584E+03  0.40000000000E+03 0. -1.
<mgrwt>
<rscale>  2 0.43680785E+03</rscale>
<asrwt>0</asrwt>
<pdfrwt beam="1">  1       21 0.17912953E+00 0.43680785E+03</pdfrwt>
<pdfrwt beam="2">  1       21 0.32809370E-01 0.43680785E+03</pdfrwt>
<totfact> 0.14010922E+03</totfact>
</mgrwt>
</event>
<event>
 4    1  0.4676529E-002  0.4849703E+03  0.7818608E-02  0.1017778E+00
         21   -1    0    0  503  502  0.00000000000E+00  0.00000000000E+00  0.50124491189E+03  0.50124491189E+03  0.00000000000E+00 0. -1.
         21   -1    0    0  501  503 -0.00000000000E+00 -0.00000000000E+00 -0.75074978113E+03  0.75074978113E+03  0.00000000000E+00 0. -1.
    9000007    1    1    2  501    0 -0.26014180033E+03 -0.86731699390E+02 -0.50809228506E+03  0.70239156750E+03  0.40000000000E+03 0. -1.
   -9000007    1    1    2    0  502  0.26014180033E+03  0.86731699390E+02  0.25858741582E+03  0.54960312552E+03  0.40000000000E+03 0. -1.
<mgrwt>
<rscale>  2 0.48497025E+03</rscale>
<asrwt>0</asrwt>
<pdfrwt beam="1">  1       21 0.77114602E-01 0.48497025E+03</pdfrwt>
<pdfrwt beam="2">  1       21 0.11549997E+00 0.48497025E+03</pdfrwt>
<totfact> 0.72041915E+02</totfact>
</mgrwt>
</event>
<event>
 4    1  0.4676529E-002  0.7076328E+03  0.7818608E-02  0.9704267E-01
         21   -1    0    0  503  502  0.00000000000E+00  0.00000000000E+00  0.53337823546E+03  0.53337823546E+03  0.00000000000E+00 0.  1.
         21   -1    0    0  501  503 -0.00000000000E+00 -0.00000000000E+00 -0.15187664516E+04  0.15187664516E+04  0.00000000000E+00 0. -1.
    9000007    1    1    2  501    0 -0.50225722497E+02  0.58156824756E+03 -0.11267503313E+04  0.13305301796E+04  0.40000000000E+03 0. -1.
   -9000007    1    1    2    0  502  0.50225722497E+02 -0.58156824756E+03  0.14136211516E+03  0.72161450745E+03  0.40000000000E+03 0.  1.
<mgrwt>
<rscale>  2 0.70763285E+03</rscale>
<asrwt>0</asrwt>
<pdfrwt beam="1">  1       21 0.82058188E-01 0.70763285E+03</pdfrwt>
<pdfrwt beam="2">  1       21 0.23365638E+00 0.70763285E+03</pdfrwt>
<totfact> 0.75204496E+01</totfact>
</mgrwt>
</event>
<event>
 4    1  0.4676529E-002  0.5195206E+03  0.7818608E-02  0.1008806E+00
         21   -1    0    0  503  502  0.00000000000E+00  0.00000000000E+00  0.61308612597E+03  0.61308612597E+03  0.00000000000E+00 0.  1.
         21   -1    0    0  501  503 -0.00000000000E+00 -0.00000000000E+00 -0.52044245913E+03  0.52044245913E+03  0.00000000000E+00 0. -1.
    9000007    1    1    2  501    0  0.91204580517E+02  0.31872146671E+03 -0.17617555673E+03  0.54857950713E+03  0.40000000000E+03 0. -1.
   -9000007    1    1    2    0  502 -0.91204580517E+02 -0.31872146671E+03  0.26881922357E+03  0.58494907797E+03  0.40000000000E+03 0.  1.
<mgrwt>
<rscale>  2 0.51952060E+03</rscale>
<asrwt>0</asrwt>
<pdfrwt beam="1">  1       21 0.94320942E-01 0.51952060E+03</pdfrwt>
<pdfrwt beam="2">  1       21 0.80068071E-01 0.51952060E+03</pdfrwt>
<totfact> 0.10734160E+03</totfact>
</mgrwt>
</event>
<event>
 4    1  0.4676529E-002  0.4593921E+03  0.7818608E-02  0.1024958E+00
         21   -1    0    0  501  502  0.00000000000E+00  0.00000000000E+00  0.26608478898E+03  0.26608478898E+03  0.00000000000E+00 0.  1.
         21   -1    0    0  502  503 -0.00000000000E+00 -0.00000000000E+00 -0.79672905902E+03  0.79672905902E+03  0.00000000000E+00 0. -1.
    9000007    1    1    2  501    0 -0.17450966241E+02  0.22524772626E+03 -0.30101518938E+03  0.54922783856E+03  0.40000000000E+03 0. -1.
   -9000007    1    1    2    0  503  0.17450966241E+02 -0.22524772626E+03 -0.22962908066E+03  0.51358600944E+03  0.40000000000E+03 0.  1.
<mgrwt>
<rscale>  2 0.45939207E+03</rscale>
<asrwt>0</asrwt>
<pdfrwt beam="1">  1       21 0.40936122E-01 0.45939207E+03</pdfrwt>
<pdfrwt beam="2">  1       21 0.12257370E+00 0.45939207E+03</pdfrwt>
<totfact> 0.24791158E+03</totfact>
</mgrwt>
</event>
<event>
 4    1  0.4676529E-002  0.4943045E+03  0.7818608E-02  0.1015276E+00
         21   -1    0    0  501  502  0.00000000000E+00  0.00000000000E+00  0.42305565025E+03  0.42305565025E+03  0.00000000000E+00 0.  1.
         21   -1    0    0  502  503 -0.00000000000E+00 -0.00000000000E+00 -0.57786401495E+03  0.57786401495E+03  0.00000000000E+00 0. -1.
    9000007    1    1    2  501    0  0.28390794595E+03 -0.61100100152E+02 -0.65788671467E+02  0.49866330656E+03  0.40000000000E+03 0. -1.
   -9000007    1    1    2    0  503 -0.28390794595E+03  0.61100100152E+02 -0.89019693231E+02  0.50225635864E+03  0.40000000000E+03 0.  1.
<mgrwt>
<rscale>  2 0.49430451E+03</rscale>
<asrwt>0</asrwt>
<pdfrwt beam="1">  1       21 0.65085485E-01 0.49430451E+03</pdfrwt>
<pdfrwt beam="2">  1       21 0.88902156E-01 0.49430451E+03</pdfrwt>
<totfact> 0.19960687E+03</totfact>
</mgrwt>
</event>
<event>
 4    1  0.4676529E-002  0.4198534E+03  0.7818608E-02  0.1037114E+00
         21   -1    0    0  501  502  0.00000000000E+00  0.00000000000E+00  0.99263083974E+02  0.99263083974E+02  0.00000000000E+00 0. -1.
         21   -1    0    0  502  503 -0.00000000000E+00 -0.00000000000E+00 -0.19083315275E+04  0.19083315275E+04  0.00000000000E+00 0. -1.
    9000007    1    1    2  501    0 -0.85985502779E+01  0.12729085977E+03 -0.64005735683E+03  0.76547391731E+03  0.40000000000E+03 0.  1.
   -9000007    1    1    2    0  503  0.85985502779E+01 -0.12729085977E+03 -0.11690110866E+04  0.12421206941E+04  0.40000000000E+03 0.  1.
<mgrwt>
<rscale>  2 0.41985342E+03</rscale>
<asrwt>0</asrwt>
<pdfrwt beam="1">  1       21 0.15271243E-01 0.41985342E+03</pdfrwt>
<pdfrwt beam="2">  1       21 0.29358947E+00 0.41985342E+03</pdfrwt>
<totfact> 0.11635895E+03</totfact>
</mgrwt>
</event>
<event>
 4    1  0.4676529E-002  0.4249184E+03  0.7818608E-02  0.1035477E+00
         21   -1    0    0  503  502  0.00000000000E+00  0.00000000000E+00  0.96549087871E+02  0.96549087871E+02  0.00000000000E+00 0.  1.
         21   -1    0    0  501  503 -0.00000000000E+00 -0.00000000000E+00 -0.18935802291E+04  0.18935802291E+04  0.00000000000E+00 0.  1.
    9000007    1    1    2  501    0 -0.13857165560E+03 -0.36789965023E+02 -0.78768962728E+03  0.89499192967E+03  0.40000000000E+03 0.  1.
   -9000007    1    1    2    0  502  0.13857165560E+03  0.36789965023E+02 -0.10093415139E+04  0.10951373873E+04  0.40000000000E+03 0.  1.
<mgrwt>
<rscale>  2 0.42491835E+03</rscale>
<asrwt>0</asrwt>
<pdfrwt beam="1">  1       21 0.14853709E-01 0.42491835E+03</pdfrwt>
<pdfrwt beam="2">  1       21 0.29131998E+00 0.42491835E+03</pdfrwt>
<totfact> 0.12604014E+03</totfact>
</mgrwt>
</event>
<event>
 4    1  0.4676529E-002  0.4406927E+03  0.7818608E-02  0.1030534E+00
         21   -1    0    0  503  502  0.00000000000E+00  0.00000000000E+00  0.51387216371E+03  0.51387216371E+03  0.00000000000E+00 0. -1.
         21   -1    0    0  501  503 -0.00000000000E+00 -0.00000000000E+00 -0.54506970531E+03  0.54506970531E+03  0.00000000000E+00 0.  1.
    9000007    1    1    2  501    0 -0.96132402671E+02  0.15801466653E+03 -0.30878929767E+03  0.53810863591E+03  0.40000000000E+03 0.  1.
   -9000007    1    1    2    0  502  0.96132402671E+02 -0.15801466653E+03  0.27759175607E+03  0.52083323312E+03  0.40000000000E+03 0. -1.
<mgrwt>
<rscale>  2 0.44069272E+03</rscale>
<asrwt>0</asrwt>
<pdfrwt beam="1">  1       21 0.79057256E-01 0.44069272E+03</pdfrwt>
<pdfrwt beam="2">  1       21 0.83856877E-01 0.44069272E+03</pdfrwt>
<totfact> 0.15036664E+03</totfact>
</mgrwt>
</event>
<event>
 4    1  0.4676529E-002  0.4108542E+03  0.7818608E-02  0.1040085E+00
         21   -1    0    0  501  502  0.00000000000E+00  0.00000000000E+00  0.10320866467E+04  0.10320866467E+04  0.00000000000E+00 0.  1.
         21   -1    0    0  502  503 -0.00000000000E+00 -0.00000000000E+00 -0.23952261511E+03  0.23952261511E+03  0.00000000000E+00 0.  1.
    9000007    1    1    2  501    0  0.87872551700E+02  0.32857386984E+02  0.75435329263E+03  0.85898200407E+03  0.40000000000E+03 0.  1.
   -9000007    1    1    2    0  503 -0.87872551700E+02 -0.32857386984E+02  0.38210738905E+02  0.41262725769E+03  0.40000000000E+03 0.  1.
<mgrwt>
<rscale>  2 0.41085422E+03</rscale>
<asrwt>0</asrwt>
<pdfrwt beam="1">  1       21 0.15878256E+00 0.41085422E+03</pdfrwt>
<pdfrwt beam="2">  1       21 0.36849634E-01 0.41085422E+03</pdfrwt>
<totfact> 0.15781599E+03</totfact>
</mgrwt>
</event>
<event>
 4    1  0.4676529E-002  0.4431969E+03  0.7818608E-02  0.1029770E+00
         21   -1    0    0  503  502  0.00000000000E+00  0.00000000000E+00  0.31514135221E+03  0.31514135221E+03  0.00000000000E+00 0.  1.
         21   -1    0    0  501  503 -0.00000000000E+00 -0.00000000000E+00 -0.81065825026E+03  0.81065825026E+03  0.00000000000E+00 0. -1.
    9000007    1    1    2  501    0 -0.18278088940E+03  0.54906047154E+02 -0.51838075932E+03  0.68201329838E+03  0.40000000000E+03 0. -1.
   -9000007    1    1    2    0  502  0.18278088940E+03 -0.54906047154E+02  0.22863861263E+02  0.44378630409E+03  0.40000000000E+03 0.  1.
<mgrwt>
<rscale>  2 0.44319694E+03</rscale>
<asrwt>0</asrwt>
<pdfrwt beam="1">  1       21 0.48483285E-01 0.44319694E+03</pdfrwt>
<pdfrwt beam="2">  1       21 0.12471665E+00 0.44319694E+03</pdfrwt>
<totfact> 0.16747021E+03</totfact>
</mgrwt>
</event>
<event>
 4    1  0.4676529E-002  0.5566377E+03  0.7818608E-02  0.9999691E-01
         21   -1    0    0  501  502  0.00000000000E+00  0.00000000000E+00  0.72886035416E+03  0.72886035416E+03  0.00000000000E+00 0.  1.
         21   -1    0    0  502  503 -0.00000000000E+00 -0.00000000000E+00 -0.92995047648E+03  0.92995047648E+03  0.00000000000E+00 0. -1.
    9000007    1    1    2  501    0  0.79452869365E+02 -0.37885712780E+03  0.51055769524E+03  0.75532419655E+03  0.40000000000E+03 0.  1.
   -9000007    1    1    2    0  503 -0.79452869365E+02  0.37885712780E+03 -0.71164781756E+03  0.90348663409E+03  0.40000000000E+03 0. -1.
<mgrwt>
<rscale>  2 0.55663766E+03</rscale>
<asrwt>0</asrwt>
<pdfrwt beam="1">  1       21 0.11213236E+00 0.55663766E+03</pdfrwt>
<pdfrwt beam="2">  1       21 0.14306930E+00 0.55663766E+03</pdfrwt>
<totfact> 0.16331825E+02</totfact>
</mgrwt>
</event>
<event>
 4    1  0.4676529E-002  0.5025798E+03  0.7818608E-02  0.1013108E+00
         21   -1    0    0  503  502  0.00000000000E+00  0.00000000000E+00  0.14381949399E+03  0.14381949399E+03  0.00000000000E+00 0.  1.
         21   -1    0    0  501  503 -0.00000000000E+00 -0.00000000000E+00 -0.17884185779E+04  0.17884185779E+04  0.00000000000E+00 0.  1.
    9000007    1    1    2  501    0  0.17138244040E+03  0.25142490266E+03 -0.69277542459E+03  0.85587628281E+03  0.40000000000E+03 0.  1.
   -9000007    1    1    2    0  502 -0.17138244040E+03 -0.25142490266E+03 -0.95182365934E+03  0.10763617891E+04  0.40000000000E+03 0.  1.
<mgrwt>
<rscale>  2 0.50257977E+03</rscale>
<asrwt>0</asrwt>
<pdfrwt beam="1">  1       21 0.22126077E-01 0.50257977E+03</pdfrwt>
<pdfrwt beam="2">  1       21 0.27514131E+00 0.50257977E+03</pdfrwt>
<totfact> 0.71472186E+02</totfact>
</mgrwt>
</event>
<event>
 4    1  0.4676529E-002  0.4169005E+03  0.7818608E-02  0.1038080E+00
         21   -1    0    0  503  502  0.00000000000E+00  0.00000000000E+00  0.81704142690E+03  0.81704142690E+03  0.00000000000E+00 0. -1.
         21   -1    0    0  501  503 -0.00000000000E+00 -0.00000000000E+00 -0.27518178456E+03  0.27518178456E+03  0.00000000000E+00 0. -1.
    9000007    1    1    2  501    0 -0.40058562722E+01  0.11743080304E+03  0.53110001091E+03  0.67518387272E+03  0.40000000000E+03 0. -1.
   -9000007    1    1    2    0  502  0.40058562722E+01 -0.11743080304E+03  0.10759631425E+02  0.41703933874E+03  0.40000000000E+03 0. -1.
<mgrwt>
<rscale>  2 0.41690052E+03</rscale>
<asrwt>0</asrwt>
<pdfrwt beam="1">  1       21 0.12569868E+00 0.41690052E+03</pdfrwt>
<pdfrwt beam="2">  1       21 0.42335659E-01 0.41690052E+03</pdfrwt>
<totfact> 0.22037345E+03</totfact>
</mgrwt>
</event>
<event>
 4    1  0.4676529E-002  0.4926540E+03  0.7818608E-02  0.1015714E+00
         21   -1    0    0  503  502  0.00000000000E+00  0.00000000000E+00  0.92449147022E+03  0.92449147022E+03  0.00000000000E+00 0. -1.
         21   -1    0    0  501  503 -0.00000000000E+00 -0.00000000000E+00 -0.65238934693E+03  0.65238934693E+03  0.00000000000E+00 0. -1.
    9000007    1    1    2  501    0  0.19967452940E+03 -0.20697354219E+03 -0.47344188613E+03  0.68326801798E+03  0.40000000000E+03 0. -1.
   -9000007    1    1    2    0  502 -0.19967452940E+03  0.20697354219E+03  0.74554400942E+03  0.89361279917E+03  0.40000000000E+03 0. -1.
<mgrwt>
<rscale>  2 0.49265400E+03</rscale>
<asrwt>0</asrwt>
<pdfrwt beam="1">  1       21 0.14222946E+00 0.49265400E+03</pdfrwt>
<pdfrwt beam="2">  1       21 0.10036759E+00 0.49265400E+03</pdfrwt>
<totfact> 0.22443221E+02</totfact>
</mgrwt>
</event>
<event>
 4    1  0.4676529E-002  0.4199292E+03  0.7818608E-02  0.1037089E+00
         21   -1    0    0  501  502  0.00000000000E+00  0.00000000000E+00  0.31318080177E+03  0.31318080177E+03  0.00000000000E+00 0. -1.
         21   -1    0    0  502  503 -0.00000000000E+00 -0.00000000000E+00 -0.59602365965E+03  0.59602365965E+03  0.00000000000E+00 0. -1.
    9000007    1    1    2  501    0  0.12707259580E+03 -0.13894579259E+02 -0.34516399999E+02  0.42134532845E+03  0.40000000000E+03 0. -1.
   -9000007    1    1    2    0  503 -0.12707259580E+03  0.13894579259E+02 -0.24832645788E+03  0.48785913297E+03  0.40000000000E+03 0. -1.
<mgrwt>
<rscale>  2 0.41992917E+03</rscale>
<asrwt>0</asrwt>
<pdfrwt beam="1">  1       21 0.48181662E-01 0.41992917E+03</pdfrwt>
<pdfrwt beam="2">  1       21 0.91695947E-01 0.41992917E+03</pdfrwt>
<totfact> 0.36552620E+03</totfact>
</mgrwt>
</event>
<event>
 4    1  0.4676529E-002  0.5355502E+03  0.7818608E-02  0.1004895E+00
         21   -1    0    0  501  502  0.00000000000E+00  0.00000000000E+00  0.57573680716E+03  0.57573680716E+03  0.00000000000E+00 0.  1.
         21   -1    0    0  502  503 -0.00000000000E+00 -0.00000000000E+00 -0.58483015639E+03  0.58483015639E+03  0.00000000000E+00 0. -1.
    9000007    1    1    2  501    0  0.34798118401E+03  0.75651112600E+02 -0.22792374365E+03  0.58203370021E+03  0.40000000000E+03 0. -1.
   -9000007    1    1    2    0  503 -0.34798118401E+03 -0.75651112600E+02  0.21883039443E+03  0.57853326334E+03  0.40000000000E+03 0.  1.
<mgrwt>
<rscale>  2 0.53555018E+03</rscale>
<asrwt>0</asrwt>
<pdfrwt beam="1">  1       21 0.88574893E-01 0.53555018E+03</pdfrwt>
<pdfrwt beam="2">  1       21 0.89973870E-01 0.53555018E+03</pdfrwt>
<totfact> 0.94306852E+02</totfact>
</mgrwt>
</event>
<event>
 4    1  0.4676529E-002  0.4690407E+03  0.7818608E-02  0.1022191E+00
         21   -1    0    0  503  502  0.00000000000E+00  0.00000000000E+00  0.10173656125E+04  0.10173656125E+04  0.00000000000E+00 0. -1.
         21   -1    0    0  501  503 -0.00000000000E+00 -0.00000000000E+00 -0.29116216071E+03  0.29116216071E+03  0.00000000000E+00 0.  1.
    9000007    1    1    2  501    0 -0.23899658416E+03  0.53664217368E+02  0.31223302154E+02  0.47007883388E+03  0.40000000000E+03 0.  1.
   -9000007    1    1    2    0  502  0.23899658416E+03 -0.53664217368E+02  0.69498014958E+03  0.83844893928E+03  0.40000000000E+03 0. -1.
<mgrwt>
<rscale>  2 0.46904074E+03</rscale>
<asrwt>0</asrwt>
<pdfrwt beam="1">  1       21 0.15651778E+00 0.46904074E+03</pdfrwt>
<pdfrwt beam="2">  1       21 0.44794179E-01 0.46904074E+03</pdfrwt>
<totfact> 0.10704821E+03</totfact>
</mgrwt>
</event>
<event>
 4    1  0.4676529E-002  0.4911778E+03  0.7818608E-02  0.1016108E+00
         21   -1    0    0  503  502  0.00000000000E+00  0.00000000000E+00  0.55648053157E+03  0.55648053157E+03  0.00000000000E+00 0. -1.
         21   -1    0    0  501  503 -0.00000000000E+00 -0.00000000000E+00 -0.49932248242E+03  0.49932248242E+03  0.00000000000E+00 0. -1.
    9000007    1    1    2  501    0  0.28417136953E+03 -0.22411842804E+02  0.22019110157E+03  0.53827481752E+03  0.40000000000E+03 0. -1.
   -9000007    1    1    2    0  502 -0.28417136953E+03  0.22411842804E+02 -0.16303305243E+03  0.51752819647E+03  0.40000000000E+03 0. -1.
<mgrwt>
<rscale>  2 0.49117783E+03</rscale>
<asrwt>0</asrwt>
<pdfrwt beam="1">  1       21 0.85612389E-01 0.49117783E+03</pdfrwt>
<pdfrwt beam="2">  1       21 0.76818844E-01 0.49117783E+03</pdfrwt>
<totfact> 0.15013955E+03</totfact>
</mgrwt>
</event>
<event>
 4    1  0.4676529E-002  0.4052799E+03  0.7818608E-02  0.1041967E+00
         21   -1    0    0  503  502  0.00000000000E+00  0.00000000000E+00  0.47212898598E+03  0.47212898598E+03  0.00000000000E+00 0. -1.
         21   -1    0    0  501  503 -0.00000000000E+00 -0.00000000000E+00 -0.40702938873E+03  0.40702938873E+03  0.00000000000E+00 0. -1.
    9000007    1    1    2  501    0 -0.25742125215E+02 -0.59909244105E+02  0.20009836209E+03  0.45198576200E+03  0.40000000000E+03 0. -1.
   -9000007    1    1    2    0  502  0.25742125215E+02  0.59909244105E+02 -0.13499876484E+03  0.42717261271E+03  0.40000000000E+03 0. -1.
<mgrwt>
<rscale>  2 0.40527987E+03</rscale>
<asrwt>0</asrwt>
<pdfrwt beam="1">  1       21 0.72635228E-01 0.40527987E+03</pdfrwt>
<pdfrwt beam="2">  1       21 0.62619906E-01 0.40527987E+03</pdfrwt>
<totfact> 0.35836210E+03</totfact>
</mgrwt>
</event>
<event>
 4    1  0.4676529E-002  0.5380643E+03  0.7818608E-02  0.1004295E+00
         21   -1    0    0  501  502  0.00000000000E+00  0.00000000000E+00  0.91004254352E+03  0.91004254352E+03  0.00000000000E+00 0. -1.
         21   -1    0    0  502  503 -0.00000000000E+00 -0.00000000000E+00 -0.16446186359E+04  0.16446186359E+04  0.00000000000E+00 0.  1.
    9000007    1    1    2  501    0  0.19362331995E+03 -0.30335328789E+03  0.77986728873E+03  0.94747358556E+03  0.40000000000E+03 0. -1.
   -9000007    1    1    2    0  503 -0.19362331995E+03  0.30335328789E+03 -0.15144433812E+04  0.16071875939E+04  0.40000000000E+03 0.  1.
<mgrwt>
<rscale>  2 0.53806432E+03</rscale>
<asrwt>0</asrwt>
<pdfrwt beam="1">  1       21 0.14000654E+00 0.53806432E+03</pdfrwt>
<pdfrwt beam="2">  1       21 0.25301825E+00 0.53806432E+03</pdfrwt>
<totfact> 0.16222390E+01</totfact>
</mgrwt>
</event>
<event>
 4    1  0.4676529E-002  0.4883466E+03  0.7818608E-02  0.1016866E+00
         21   -1    0    0  501  502  0.00000000000E+00  0.00000000000E+00  0.16741946162E+03  0.16741946162E+03  0.00000000000E+00 0.  1.
         21   -1    0    0  502  503 -0.00000000000E+00 -0.00000000000E+00 -0.21864815504E+04  0.21864815504E+04  0.00000000000E+00 0. -1.
    9000007    1    1    2  501    0 -0.26940980740E+03  0.76816427167E+02 -0.17043453946E+04  0.17729285468E+04  0.40000000000E+03 0. -1.
   -9000007    1    1    2    0  503  0.26940980740E+03 -0.76816427167E+02 -0.31471669419E+03  0.58097246528E+03  0.40000000000E+03 0.  1.
<mgrwt>
<rscale>  2 0.48834661E+03</rscale>
<asrwt>0</asrwt>
<pdfrwt beam="1">  1       21 0.25756840E-01 0.48834661E+03</pdfrwt>
<pdfrwt beam="2">  1       21 0.33638179E+00 0.48834661E+03</pdfrwt>
<totfact> 0.22823475E+02</totfact>
</mgrwt>
</event>
<event>
 4    1  0.4676529E-002  0.5148617E+03  0.7818608E-02  0.1009971E+00
         21   -1    0    0  501  502  0.00000000000E+00  0.00000000000E+00  0.12804770703E+04  0.12804770703E+04  0.00000000000E+00 0.  1.
         21   -1    0    0  502  503 -0.00000000000E+00 -0.00000000000E+00 -0.20774039367E+03  0.20774039367E+03  0.00000000000E+00 0. -1.
    9000007    1    1    2  501    0 -0.30601858769E+03  0.10693562668E+03  0.49250774423E+03  0.71249314551E+03  0.40000000000E+03 0.  1.
   -9000007    1    1    2    0  503  0.30601858769E+03 -0.10693562668E+03  0.58022893240E+03  0.77572431847E+03  0.40000000000E+03 0. -1.
<mgrwt>
<rscale>  2 0.51486173E+03</rscale>
<asrwt>0</asrwt>
<pdfrwt beam="1">  1       21 0.19699647E+00 0.51486173E+03</pdfrwt>
<pdfrwt beam="2">  1       21 0.31960061E-01 0.51486173E+03</pdfrwt>
<totfact> 0.10762487E+03</totfact>
</mgrwt>
</event>
<event>
 4    1  0.4676529E-002  0.5007507E+03  0.7818608E-02  0.1013583E+00
         21   -1    0    0  503  502  0.00000000000E+00  0.00000000000E+00  0.48515098438E+03  0.48515098438E+03  0.00000000000E+00 0.  1.
         21   -1    0    0  501  503 -0.00000000000E+00 -0.00000000000E+00 -0.16411977928E+04  0.16411977928E+04  0.00000000000E+00 0.  1.
    9000007    1    1    2  501    0  0.41917052217E+01  0.30122026192E+03 -0.14580058514E+04  0.15416005576E+04  0.40000000000E+03 0.  1.
   -9000007    1    1    2    0  502 -0.41917052217E+01 -0.30122026192E+03  0.30195904300E+03  0.58474821952E+03  0.40000000000E+03 0.  1.
<mgrwt>
<rscale>  2 0.50075065E+03</rscale>
<asrwt>0</asrwt>
<pdfrwt beam="1">  1       21 0.74638614E-01 0.50075065E+03</pdfrwt>
<pdfrwt beam="2">  1       21 0.25249196E+00 0.50075065E+03</pdfrwt>
<totfact> 0.78321781E+01</totfact>
</mgrwt>
</event>
<event>
 4    1  0.4676529E-002  0.4616098E+03  0.7818608E-02  0.1024315E+00
         21   -1    0    0  503  502  0.00000000000E+00  0.00000000000E+00  0.15356790449E+04  0.15356790449E+04  0.00000000000E+00 0.  1.
         21   -1    0    0  501  503 -0.00000000000E+00 -0.00000000000E+00 -0.22768449272E+03  0.22768449272E+03  0.00000000000E+00 0. -1.
    9000007    1    1    2  501    0  0.17314131461E+03 -0.15200549167E+03  0.10297729847E+03  0.47295656072E+03  0.40000000000E+03 0. -1.
   -9000007    1    1    2    0  502 -0.17314131461E+03  0.15200549167E+03  0.12050172537E+04  0.12904069769E+04  0.40000000000E+03 0.  1.
<mgrwt>
<rscale>  2 0.46160977E+03</rscale>
<asrwt>0</asrwt>
<pdfrwt beam="1">  1       21 0.23625831E+00 0.46160977E+03</pdfrwt>
<pdfrwt beam="2">  1       21 0.35028384E-01 0.46160977E+03</pdfrwt>
<totfact> 0.51034860E+02</totfact>
</mgrwt>
</event>
<event>
 4    1  0.4676529E-002  0.4179738E+03  0.7818608E-02  0.1037728E+00
         21   -1    0    0  501  502  0.00000000000E+00  0.00000000000E+00  0.21723636674E+04  0.21723636674E+04  0.00000000000E+00 0. -1.
         21   -1    0    0  502  503 -0.00000000000E+00 -0.00000000000E+00 -0.88158080397E+02  0.88158080397E+02  0.00000000000E+00 0. -1.
    9000007    1    1    2  501    0 -0.50284703287E+02 -0.11033386417E+03  0.70724828340E+03  0.82152434373E+03  0.40000000000E+03 0. -1.
   -9000007    1    1    2    0  503  0.50284703287E+02  0.11033386417E+03  0.13769573036E+04  0.14389974041E+04  0.40000000000E+03 0. -1.
<mgrwt>
<rscale>  2 0.41797382E+03</rscale>
<asrwt>0</asrwt>
<pdfrwt beam="1">  1       21 0.33420975E+00 0.41797382E+03</pdfrwt>
<pdfrwt beam="2">  1       21 0.13562783E-01 0.41797382E+03</pdfrwt>
<totfact> 0.82638543E+02</totfact>
</mgrwt>
</event>
<event>
 4    1  0.4676529E-002  0.5171234E+03  0.7818608E-02  0.1009404E+00
         21   -1    0    0  501  502  0.00000000000E+00  0.00000000000E+00  0.12615928415E+04  0.12615928415E+04  0.00000000000E+00 0.  1.
         21   -1    0    0  502  503 -0.00000000000E+00 -0.00000000000E+00 -0.59753431975E+03  0.59753431975E+03  0.00000000000E+00 0.  1.
    9000007    1    1    2  501    0 -0.24750655147E+03  0.21484205413E+03  0.10787316401E+04  0.11962769548E+04  0.40000000000E+03 0.  1.
   -9000007    1    1    2    0  503  0.24750655147E+03 -0.21484205413E+03 -0.41467311828E+03  0.66285020651E+03  0.40000000000E+03 0.  1.
<mgrwt>
<rscale>  2 0.51712339E+03</rscale>
<asrwt>0</asrwt>
<pdfrwt beam="1">  1       21 0.19409121E+00 0.51712339E+03</pdfrwt>
<pdfrwt beam="2">  1       21 0.91928357E-01 0.51712339E+03</pdfrwt>
<totfact> 0.11327923E+02</totfact>
</mgrwt>
</event>
<event>
 4    1  0.4676529E-002  0.4780835E+03  0.7818608E-02  0.1019663E+00
         21   -1    0    0  503  502  0.00000000000E+00  0.00000000000E+00  0.11063267392E+04  0.11063267392E+04  0.00000000000E+00 0. -1.
         21   -1    0    0  501  503 -0.00000000000E+00 -0.00000000000E+00 -0.26996103642E+03  0.26996103642E+03  0.00000000000E+00 0.  1.
    9000007    1    1    2  501    0  0.12216080781E+03  0.23160425246E+03  0.84794740672E+02  0.48554499356E+03  0.40000000000E+03 0.  1.
   -9000007    1    1    2    0  502 -0.12216080781E+03 -0.23160425246E+03  0.75157096211E+03  0.89074278207E+03  0.40000000000E+03 0. -1.
<mgrwt>
<rscale>  2 0.47808346E+03</rscale>
<asrwt>0</asrwt>
<pdfrwt beam="1">  1       21 0.17020411E+00 0.47808346E+03</pdfrwt>
<pdfrwt beam="2">  1       21 0.41532468E-01 0.47808346E+03</pdfrwt>
<totfact> 0.98637575E+02</totfact>
</mgrwt>
</event>
<event>
 4    1  0.4676529E-002  0.4072879E+03  0.7818608E-02  0.1041285E+00
         21   -1    0    0  503  502  0.00000000000E+00  0.00000000000E+00  0.93820686128E+03  0.93820686128E+03  0.00000000000E+00 0.  1.
         21   -1    0    0  501  503 -0.00000000000E+00 -0.00000000000E+00 -0.21173178806E+03  0.21173178806E+03  0.00000000000E+00 0.  1.
    9000007    1    1    2  501    0  0.18566145402E+02 -0.74422785403E+02  0.12972733466E+03  0.42744898421E+03  0.40000000000E+03 0.  1.
   -9000007    1    1    2    0  502 -0.18566145402E+02  0.74422785403E+02  0.59674773856E+03  0.72248966513E+03  0.40000000000E+03 0.  1.
<mgrwt>
<rscale>  2 0.40728792E+03</rscale>
<asrwt>0</asrwt>
<pdfrwt beam="1">  1       21 0.14433952E+00 0.40728792E+03</pdfrwt>
<pdfrwt beam="2">  1       21 0.32574122E-01 0.40728792E+03</pdfrwt>
<totfact> 0.26269603E+03</totfact>
</mgrwt>
</event>
<event>
 4    1  0.4676529E-002  0.4237087E+03  0.7818608E-02  0.1035866E+00
         21   -1    0    0  501  502  0.00000000000E+00  0.00000000000E+00  0.22164119025E+03  0.22164119025E+03  0.00000000000E+00 0.  1.
         21   -1    0    0  502  503 -0.00000000000E+00 -0.00000000000E+00 -0.92399443433E+03  0.92399443433E+03  0.00000000000E+00 0.  1.
    9000007    1    1    2  501    0 -0.12535700541E+02  0.13918313052E+03 -0.55237572351E+03  0.69616666649E+03  0.40000000000E+03 0.  1.
   -9000007    1    1    2    0  503  0.12535700541E+02 -0.13918313052E+03 -0.14997752056E+03  0.44946895809E+03  0.40000000000E+03 0.  1.
<mgrwt>
<rscale>  2 0.42370873E+03</rscale>
<asrwt>0</asrwt>
<pdfrwt beam="1">  1       21 0.34098645E-01 0.42370873E+03</pdfrwt>
<pdfrwt beam="2">  1       21 0.14215299E+00 0.42370873E+03</pdfrwt>
<totfact> 0.24793312E+03</totfact>
</mgrwt>
</event>
<event>
 4    1  0.4676529E-002  0.4075467E+03  0.7818608E-02  0.1041197E+00
         21   -1    0    0  501  502  0.00000000000E+00  0.00000000000E+00  0.27403832294E+03  0.27403832294E+03  0.00000000000E+00 0. -1.
         21   -1    0    0  502  503 -0.00000000000E+00 -0.00000000000E+00 -0.70900078287E+03  0.70900078287E+03  0.00000000000E+00 0. -1.
    9000007    1    1    2  501    0 -0.73332657894E+02  0.26769370485E+02 -0.30227932857E+02  0.40866613003E+03  0.40000000000E+03 0.  1.
   -9000007    1    1    2    0  503  0.73332657894E+02 -0.26769370485E+02 -0.40473452707E+03  0.57437297578E+03  0.40000000000E+03 0.  1.
<mgrwt>
<rscale>  2 0.40754666E+03</rscale>
<asrwt>0</asrwt>
<pdfrwt beam="1">  1       21 0.42159743E-01 0.40754666E+03</pdfrwt>
<pdfrwt beam="2">  1       21 0.10907704E+00 0.40754666E+03</pdfrwt>
<totfact> 0.31878346E+03</totfact>
</mgrwt>
</event>
<event>
 4    1  0.4676529E-002  0.4558266E+03  0.7818608E-02  0.1025999E+00
         21   -1    0    0  503  502  0.00000000000E+00  0.00000000000E+00  0.87872358142E+02  0.87872358142E+02  0.00000000000E+00 0. -1.
         21   -1    0    0  501  503 -0.00000000000E+00 -0.00000000000E+00 -0.24318252177E+04  0.24318252177E+04  0.00000000000E+00 0.  1.
    9000007    1    1    2  501    0  0.18085172344E+03 -0.12276219854E+03 -0.13815347071E+04  0.14547907238E+04  0.40000000000E+03 0.  1.
   -9000007    1    1    2    0  502 -0.18085172344E+03  0.12276219854E+03 -0.96241815251E+03  0.10649068521E+04  0.40000000000E+03 0.  1.
<mgrwt>
<rscale>  2 0.45582662E+03</rscale>
<asrwt>0</asrwt>
<pdfrwt beam="1">  1       21 0.13518825E-01 0.45582662E+03</pdfrwt>
<pdfrwt beam="2">  1       21 0.37412692E+00 0.45582662E+03</pdfrwt>
<totfact> 0.46148896E+02</totfact>
</mgrwt>
</event>
<event>
 4    1  0.4676529E-002  0.4140582E+03  0.7818608E-02  0.1039018E+00
         21   -1    0    0  501  502  0.00000000000E+00  0.00000000000E+00  0.41980489629E+03  0.41980489629E+03  0.00000000000E+00 0. -1.
         21   -1    0    0  502  503 -0.00000000000E+00 -0.00000000000E+00 -0.92128607476E+03  0.92128607476E+03  0.00000000000E+00 0. -1.
    9000007    1    1    2  501    0  0.99262098131E+02 -0.39889808682E+02  0.24957684592E+03  0.48345916372E+03  0.40000000000E+03 0. -1.
   -9000007    1    1    2    0  503 -0.99262098131E+02  0.39889808682E+02 -0.75105802438E+03  0.85763180733E+03  0.40000000000E+03 0. -1.
<mgrwt>
<rscale>  2 0.41405816E+03</rscale>
<asrwt>0</asrwt>
<pdfrwt beam="1">  1       21 0.64585369E-01 0.41405816E+03</pdfrwt>
<pdfrwt beam="2">  1       21 0.14173632E+00 0.41405816E+03</pdfrwt>
<totfact> 0.65304142E+02</totfact>
</mgrwt>
</event>
<event>
 4    1  0.4676529E-002  0.4364649E+03  0.7818608E-02  0.1031837E+00
         21   -1    0    0  503  502  0.00000000000E+00  0.00000000000E+00  0.19943119852E+03  0.19943119852E+03  0.00000000000E+00 0. -1.
         21   -1    0    0  501  503 -0.00000000000E+00 -0.00000000000E+00 -0.15084512724E+04  0.15084512724E+04  0.00000000000E+00 0. -1.
    9000007    1    1    2  501    0  0.74835405379E+02 -0.15780147753E+03 -0.11716567693E+04  0.12503124526E+04  0.40000000000E+03 0. -1.
   -9000007    1    1    2    0  502 -0.74835405379E+02  0.15780147753E+03 -0.13736330463E+03  0.45757001832E+03  0.40000000000E+03 0. -1.
<mgrwt>
<rscale>  2 0.43646494E+03</rscale>
<asrwt>0</asrwt>
<pdfrwt beam="1">  1       21 0.30681723E-01 0.43646494E+03</pdfrwt>
<pdfrwt beam="2">  1       21 0.23206943E+00 0.43646494E+03</pdfrwt>
<totfact> 0.71642640E+02</totfact>
</mgrwt>
</event>
<event>
 4    1  0.4676529E-002  0.5997221E+03  0.7818608E-02  0.9905983E-01
         21   -1    0    0  503  502  0.00000000000E+00  0.00000000000E+00  0.17584832809E+04  0.17584832809E+04  0.00000000000E+00 0. -1.
         21   -1    0    0  501  503 -0.00000000000E+00 -0.00000000000E+00 -0.20999594194E+03  0.20999594194E+03  0.00000000000E+00 0. -1.
    9000007    1    1    2  501    0  0.44268148786E+03 -0.60824952349E+02  0.61548488826E+03  0.85935337446E+03  0.40000000000E+03 0. -1.
   -9000007    1    1    2    0  502 -0.44268148786E+03  0.60824952349E+02  0.93300245068E+03  0.11091258484E+04  0.40000000000E+03 0. -1.
<mgrwt>
<rscale>  2 0.59972208E+03</rscale>
<asrwt>0</asrwt>
<pdfrwt beam="1">  1       21 0.27053588E+00 0.59972208E+03</pdfrwt>
<pdfrwt beam="2">  1       21 0.32307069E-01 0.59972208E+03</pdfrwt>
<totfact> 0.34666667E+02</totfact>
</mgrwt>
</event>
<event>
 4    1  0.4676529E-002  0.5415374E+03  0.7818608E-02  0.1003472E+00
         21   -1    0    0  503  502  0.00000000000E+00  0.00000000000E+00  0.43336254231E+03  0.43336254231E+03  0.00000000000E+00 0.  1.
         21   -1    0    0  501  503 -0.00000000000E+00 -0.00000000000E+00 -0.73000473392E+03  0.73000473392E+03  0.00000000000E+00 0.  1.
    9000007    1    1    2  501    0  0.27275994548E+03  0.24262058479E+03 -0.30548312806E+03  0.62175773220E+03  0.40000000000E+03 0.  1.
   -9000007    1    1    2    0  502 -0.27275994548E+03 -0.24262058479E+03  0.88409364526E+01  0.54160954403E+03  0.40000000000E+03 0.  1.
<mgrwt>
<rscale>  2 0.54153738E+03</rscale>
<asrwt>0</asrwt>
<pdfrwt beam="1">  1       21 0.66671161E-01 0.54153738E+03</pdfrwt>
<pdfrwt beam="2">  1       21 0.11230842E+00 0.54153738E+03</pdfrwt>
<totfact> 0.10531701E+03</totfact>
</mgrwt>
</event>
<event>
 4    1  0.4676529E-002  0.4633656E+03  0.7818608E-02  0.1023810E+00
         21   -1    0    0  501  502  0.00000000000E+00  0.00000000000E+00  0.13119825349E+04  0.13119825349E+04  0.00000000000E+00 0.  1.
         21   -1    0    0  502  503 -0.00000000000E+00 -0.00000000000E+00 -0.77939059893E+03  0.77939059893E+03  0.00000000000E+00 0.  1.
    9000007    1    1    2  501    0 -0.23295118329E+03  0.21010112696E+02  0.11957381433E+04  0.12823795795E+04  0.40000000000E+03 0.  1.
   -9000007    1    1    2    0  503  0.23295118329E+03 -0.21010112696E+02 -0.66314620733E+03  0.80899355432E+03  0.40000000000E+03 0.  1.
<mgrwt>
<rscale>  2 0.46336560E+03</rscale>
<asrwt>0</asrwt>
<pdfrwt beam="1">  1       21 0.20184347E+00 0.46336560E+03</pdfrwt>
<pdfrwt beam="2">  1       21 0.11990625E+00 0.46336560E+03</pdfrwt>
<totfact> 0.53762167E+01</totfact>
</mgrwt>
</event>
<event>
 4    1  0.4676529E-002  0.4180163E+03  0.7818608E-02  0.1037714E+00
         21   -1    0    0  501  502  0.00000000000E+00  0.00000000000E+00  0.71153578835E+03  0.71153578835E+03  0.00000000000E+00 0.  1.
         21   -1    0    0  502  503 -0.00000000000E+00 -0.00000000000E+00 -0.33112947026E+03  0.33112947026E+03  0.00000000000E+00 0.  1.
    9000007    1    1    2  501    0 -0.10205566612E+03 -0.65744071147E+02  0.45519307710E+03  0.61801163364E+03  0.40000000000E+03 0.  1.
   -9000007    1    1    2    0  503  0.10205566612E+03  0.65744071147E+02 -0.74786759012E+02  0.42465362497E+03  0.40000000000E+03 0.  1.
<mgrwt>
<rscale>  2 0.41801632E+03</rscale>
<asrwt>0</asrwt>
<pdfrwt beam="1">  1       21 0.10946704E+00 0.41801632E+03</pdfrwt>
<pdfrwt beam="2">  1       21 0.50942996E-01 0.41801632E+03</pdfrwt>
<totfact> 0.21147138E+03</totfact>
</mgrwt>
</event>
<event>
 4    1  0.4676529E-002  0.5244630E+03  0.7818608E-02  0.1007584E+00
         21   -1    0    0  501  502  0.00000000000E+00  0.00000000000E+00  0.45767353982E+03  0.45767353982E+03  0.00000000000E+00 0. -1.
         21   -1    0    0  502  503 -0.00000000000E+00 -0.00000000000E+00 -0.60373042328E+03  0.60373042328E+03  0.00000000000E+00 0. -1.
    9000007    1    1    2  501    0  0.33830818082E+03 -0.24677711715E+02 -0.37333171869E+02  0.52579005353E+03  0.40000000000E+03 0. -1.
   -9000007    1    1    2    0  503 -0.33830818082E+03  0.24677711715E+02 -0.10872371160E+03  0.53561390957E+03  0.40000000000E+03 0. -1.
<mgrwt>
<rscale>  2 0.52446298E+03</rscale>
<asrwt>0</asrwt>
<pdfrwt beam="1">  1       21 0.70411314E-01 0.52446298E+03</pdfrwt>
<pdfrwt beam="2">  1       21 0.92881604E-01 0.52446298E+03</pdfrwt>
<totfact> 0.14923479E+03</totfact>
</mgrwt>
</event>
<event>
 4    1  0.4676529E-002  0.4661243E+03  0.7818608E-02  0.1023020E+00
         21   -1    0    0  503  502  0.00000000000E+00  0.00000000000E+00  0.97949261590E+03  0.97949261590E+03  0.00000000000E+00 0. -1.
         21   -1    0    0  501  503 -0.00000000000E+00 -0.00000000000E+00 -0.82837468140E+03  0.82837468140E+03  0.00000000000E+00 0. -1.
    9000007    1    1    2  501    0  0.15896412087E+03  0.17889182725E+03 -0.69793658835E+03  0.83927787946E+03  0.40000000000E+03 0. -1.
   -9000007    1    1    2    0  502 -0.15896412087E+03 -0.17889182725E+03  0.84905452285E+03  0.96858941785E+03  0.40000000000E+03 0. -1.
<mgrwt>
<rscale>  2 0.46612432E+03</rscale>
<asrwt>0</asrwt>
<pdfrwt beam="1">  1       21 0.15069117E+00 0.46612432E+03</pdfrwt>
<pdfrwt beam="2">  1       21 0.12744226E+00 0.46612432E+03</pdfrwt>
<totfact> 0.10688863E+02</totfact>
</mgrwt>
</event>
<event>
 4    1  0.4676529E-002  0.4510590E+03  0.7818608E-02  0.1027407E+00
         21   -1    0    0  501  502  0.00000000000E+00  0.00000000000E+00  0.56273297737E+03  0.56273297737E+03  0.00000000000E+00 0. -1.
         21   -1    0    0  502  503 -0.00000000000E+00 -0.00000000000E+00 -0.42016183709E+03  0.42016183709E+03  0.00000000000E+00 0.  1.
    9000007    1    1    2  501    0 -0.85041455803E+01 -0.20828322207E+03  0.25484378931E+03  0.51807294664E+03  0.40000000000E+03 0. -1.
   -9000007    1    1    2    0  503  0.85041455803E+01  0.20828322207E+03 -0.11227264902E+03  0.46482186782E+03  0.40000000000E+03 0.  1.
<mgrwt>
<rscale>  2 0.45105900E+03</rscale>
<asrwt>0</asrwt>
<pdfrwt beam="1">  1       21 0.86574304E-01 0.45105900E+03</pdfrwt>
<pdfrwt beam="2">  1       21 0.64640282E-01 0.45105900E+03</pdfrwt>
<totfact> 0.21911974E+03</totfact>
</mgrwt>
</event>
<event>
 4    1  0.4676529E-002  0.4316176E+03  0.7818608E-02  0.1033350E+00
         21   -1    0    0  501  502  0.00000000000E+00  0.00000000000E+00  0.53634623381E+03  0.53634623381E+03  0.00000000000E+00 0.  1.
         21   -1    0    0  502  503 -0.00000000000E+00 -0.00000000000E+00 -0.40164078146E+03  0.40164078146E+03  0.00000000000E+00 0.  1.
    9000007    1    1    2  501    0  0.16172804467E+03  0.11737526780E+02  0.23980015222E+03  0.49375889154E+03  0.40000000000E+03 0.  1.
   -9000007    1    1    2    0  503 -0.16172804467E+03 -0.11737526780E+02 -0.10509469987E+03  0.44422812373E+03  0.40000000000E+03 0.  1.
<mgrwt>
<rscale>  2 0.43161757E+03</rscale>
<asrwt>0</asrwt>
<pdfrwt beam="1">  1       21 0.82514806E-01 0.43161757E+03</pdfrwt>
<pdfrwt beam="2">  1       21 0.61790889E-01 0.43161757E+03</pdfrwt>
<totfact> 0.27278487E+03</totfact>
</mgrwt>
</event>
<event>
 4    1  0.4676529E-002  0.4049926E+03  0.7818608E-02  0.1042064E+00
         21   -1    0    0  503  502  0.00000000000E+00  0.00000000000E+00  0.70171707369E+02  0.70171707369E+02  0.00000000000E+00 0.  1.
         21   -1    0    0  501  503 -0.00000000000E+00 -0.00000000000E+00 -0.23401347788E+04  0.23401347788E+04  0.00000000000E+00 0.  1.
    9000007    1    1    2  501    0 -0.19619394109E+02  0.60283654489E+02 -0.11762133562E+04  0.12439842840E+04  0.40000000000E+03 0.  1.
   -9000007    1    1    2    0  502  0.19619394109E+02 -0.60283654489E+02 -0.10937497152E+04  0.11663222021E+04  0.40000000000E+03 0.  1.
<mgrwt>
<rscale>  2 0.40499264E+03</rscale>
<asrwt>0</asrwt>
<pdfrwt beam="1">  1       21 0.10795649E-01 0.40499264E+03</pdfrwt>
<pdfrwt beam="2">  1       21 0.36002067E+00 0.40499264E+03</pdfrwt>
<totfact> 0.87830553E+02</totfact>
</mgrwt>
</event>
<event>
 4    1  0.4676529E-002  0.5117113E+03  0.7818608E-02  0.1010766E+00
         21   -1    0    0  503  502  0.00000000000E+00  0.00000000000E+00  0.65535335820E+03  0.65535335820E+03  0.00000000000E+00 0.  1.
         21   -1    0    0  501  503 -0.00000000000E+00 -0.00000000000E+00 -0.55904358032E+03  0.55904358032E+03  0.00000000000E+00 0. -1.
    9000007    1    1    2  501    0  0.14724122783E+03 -0.28314046546E+03 -0.27616616515E+03  0.58147764628E+03  0.40000000000E+03 0. -1.
   -9000007    1    1    2    0  502 -0.14724122783E+03  0.28314046546E+03  0.37247594303E+03  0.63291929224E+03  0.40000000000E+03 0.  1.
<mgrwt>
<rscale>  2 0.51171135E+03</rscale>
<asrwt>0</asrwt>
<pdfrwt beam="1">  1       21 0.10082359E+00 0.51171135E+03</pdfrwt>
<pdfrwt beam="2">  1       21 0.86006705E-01 0.51171135E+03</pdfrwt>
<totfact> 0.77499271E+02</totfact>
</mgrwt>
</event>
<event>
 4    1  0.4676529E-002  0.5152487E+03  0.7818608E-02  0.1009874E+00
         21   -1    0    0  503  502  0.00000000000E+00  0.00000000000E+00  0.87344181108E+03  0.87344181108E+03  0.00000000000E+00 0. -1.
         21   -1    0    0  501  503 -0.00000000000E+00 -0.00000000000E+00 -0.46526069392E+03  0.46526069392E+03  0.00000000000E+00 0. -1.
    9000007    1    1    2  501    0 -0.29289143293E+03 -0.14034167999E+03 -0.19003965435E+03  0.54917779348E+03  0.40000000000E+03 0. -1.
   -9000007    1    1    2    0  502  0.29289143293E+03  0.14034167999E+03  0.59822077151E+03  0.78952471152E+03  0.40000000000E+03 0. -1.
<mgrwt>
<rscale>  2 0.51524866E+03</rscale>
<asrwt>0</asrwt>
<pdfrwt beam="1">  1       21 0.13437566E+00 0.51524866E+03</pdfrwt>
<pdfrwt beam="2">  1       21 0.71578568E-01 0.51524866E+03</pdfrwt>
<totfact> 0.57158088E+02</totfact>
</mgrwt>
</event>
<event>
 4    1  0.4676529E-002  0.4372811E+03  0.7818608E-02  0.1031584E+00
         21   -1    0    0  501  502  0.00000000000E+00  0.00000000000E+00  0.12620798138E+04  0.12620798138E+04  0.00000000000E+00 0.  1.
         21   -1    0    0  502  503 -0.00000000000E+00 -0.00000000000E+00 -0.35031608061E+03  0.35031608061E+03  0.00000000000E+00 0.  1.
    9000007    1    1    2  501    0  0.13427652472E+03  0.11482404673E+03  0.10632179015E+04  0.11496290936E+04  0.40000000000E+03 0.  1.
   -9000007    1    1    2    0  503 -0.13427652472E+03 -0.11482404673E+03 -0.15145416833E+03  0.46276680078E+03  0.40000000000E+03 0.  1.
<mgrwt>
<rscale>  2 0.43728108E+03</rscale>
<asrwt>0</asrwt>
<pdfrwt beam="1">  1       21 0.19416612E+00 0.43728108E+03</pdfrwt>
<pdfrwt beam="2">  1       21 0.53894782E-01 0.43728108E+03</pdfrwt>
<totfact> 0.39387331E+02</totfact>
</mgrwt>
</event>
<event>
 4    1  0.4676529E-002  0.4949369E+03  0.7818608E-02  0.1015109E+00
         21   -1    0    0  503  502  0.00000000000E+00  0.00000000000E+00  0.18615325854E+04  0.18615325854E+04  0.00000000000E+00 0. -1.
         21   -1    0    0  501  503 -0.00000000000E+00 -0.00000000000E+00 -0.13163949963E+03  0.13163949963E+03  0.00000000000E+00 0. -1.
    9000007    1    1    2  501    0  0.19937761174E+03  0.21262904447E+03  0.88390434971E+03  0.10130397041E+04  0.40000000000E+03 0. -1.
   -9000007    1    1    2    0  502 -0.19937761174E+03 -0.21262904447E+03  0.84598873601E+03  0.98013238089E+03  0.40000000000E+03 0. -1.
<mgrwt>
<rscale>  2 0.49493691E+03</rscale>
<asrwt>0</asrwt>
<pdfrwt beam="1">  1       21 0.28638961E+00 0.49493691E+03</pdfrwt>
<pdfrwt beam="2">  1       21 0.20252232E-01 0.49493691E+03</pdfrwt>
<totfact> 0.72658693E+02</totfact>
</mgrwt>
</event>
<event>
 4    1  0.4676529E-002  0.4075501E+03  0.7818608E-02  0.1041196E+00
         21   -1    0    0  503  502  0.00000000000E+00  0.00000000000E+00  0.41040079515E+03  0.41040079515E+03  0.00000000000E+00 0. -1.
         21   -1    0    0  501  503 -0.00000000000E+00 -0.00000000000E+00 -0.10458356813E+04  0.10458356813E+04  0.00000000000E+00 0.  1.
    9000007    1    1    2  501    0  0.25442556382E+02 -0.73822722772E+02 -0.88780114183E+03  0.97687664805E+03  0.40000000000E+03 0.  1.
   -9000007    1    1    2    0  502 -0.25442556382E+02  0.73822722772E+02  0.25236625569E+03  0.47935982840E+03  0.40000000000E+03 0. -1.
<mgrwt>
<rscale>  2 0.40755014E+03</rscale>
<asrwt>0</asrwt>
<pdfrwt beam="1">  1       21 0.63138583E-01 0.40755014E+03</pdfrwt>
<pdfrwt beam="2">  1       21 0.16089780E+00 0.40755014E+03</pdfrwt>
<totfact> 0.48804588E+02</totfact>
</mgrwt>
</event>
<event>
 4    1  0.4676529E-002  0.6058690E+03  0.7818608E-02  0.9893304E-01
         21   -1    0    0  501  502  0.00000000000E+00  0.00000000000E+00  0.10516545878E+04  0.10516545878E+04  0.00000000000E+00 0. -1.
         21   -1    0    0  502  503 -0.00000000000E+00 -0.00000000000E+00 -0.41790031221E+03  0.41790031221E+03  0.00000000000E+00 0. -1.
    9000007    1    1    2  501    0 -0.34617099804E+03 -0.29536905551E+03  0.18626891632E+02  0.60615526058E+03  0.40000000000E+03 0. -1.
   -9000007    1    1    2    0  503  0.34617099804E+03  0.29536905551E+03  0.61512738392E+03  0.86339963938E+03  0.40000000000E+03 0. -1.
<mgrwt>
<rscale>  2 0.60586899E+03</rscale>
<asrwt>0</asrwt>
<pdfrwt beam="1">  1       21 0.16179301E+00 0.60586899E+03</pdfrwt>
<pdfrwt beam="2">  1       21 0.64292356E-01 0.60586899E+03</pdfrwt>
<totfact> 0.42449431E+02</totfact>
</mgrwt>
</event>
<event>
 4    1  0.4676529E-002  0.5891248E+03  0.7818608E-02  0.9928229E-01
         21   -1    0    0  501  502  0.00000000000E+00  0.00000000000E+00  0.57548486882E+03  0.57548486882E+03  0.00000000000E+00 0. -1.
         21   -1    0    0  502  503 -0.00000000000E+00 -0.00000000000E+00 -0.61552426195E+03  0.61552426195E+03  0.00000000000E+00 0.  1.
    9000007    1    1    2  501    0  0.42818941619E+03 -0.61006668566E+02  0.64626668355E+02  0.59265892047E+03  0.40000000000E+03 0.  1.
   -9000007    1    1    2    0  503 -0.42818941619E+03  0.61006668566E+02 -0.10466606148E+03  0.59835021031E+03  0.40000000000E+03 0.  1.
<mgrwt>
<rscale>  2 0.58912477E+03</rscale>
<asrwt>0</asrwt>
<pdfrwt beam="1">  1       21 0.88536134E-01 0.58912477E+03</pdfrwt>
<pdfrwt beam="2">  1       21 0.94696040E-01 0.58912477E+03</pdfrwt>
<totfact> 0.82051707E+02</totfact>
</mgrwt>
</event>
<event>
 4    1  0.4676529E-002  0.6339481E+03  0.7818608E-02  0.9837374E-01
         21   -1    0    0  503  502  0.00000000000E+00  0.00000000000E+00  0.35701602144E+03  0.35701602144E+03  0.00000000000E+00 0.  1.
         21   -1    0    0  501  503 -0.00000000000E+00 -0.00000000000E+00 -0.11261172001E+04  0.11261172001E+04  0.00000000000E+00 0. -1.
    9000007    1    1    2  501    0 -0.45823687317E+03 -0.17863152005E+03 -0.37014908350E+03  0.73409849196E+03  0.40000000000E+03 0.  1.
   -9000007    1    1    2    0  502  0.45823687317E+03  0.17863152005E+03 -0.39895209519E+03  0.74903472960E+03  0.40000000000E+03 0. -1.
<mgrwt>
<rscale>  2 0.63394815E+03</rscale>
<asrwt>0</asrwt>
<pdfrwt beam="1">  1       21 0.54925541E-01 0.63394815E+03</pdfrwt>
<pdfrwt beam="2">  1       21 0.17324880E+00 0.63394815E+03</pdfrwt>
<totfact> 0.48911765E+02</totfact>
</mgrwt>
</event>
<event>
 4    1  0.4676529E-002  0.6427506E+03  0.7818608E-02  0.9820478E-01
         21   -1    0    0  501  502  0.00000000000E+00  0.00000000000E+00  0.82009347657E+03  0.82009347657E+03  0.00000000000E+00 0.  1.
         21   -1    0    0  502  503 -0.00000000000E+00 -0.00000000000E+00 -0.11674367176E+04  0.11674367176E+04  0.00000000000E+00 0. -1.
    9000007    1    1    2  501    0  0.30570200154E+02  0.50218902577E+03  0.57561180940E+03  0.86281939585E+03  0.40000000000E+03 0.  1.
   -9000007    1    1    2    0  503 -0.30570200154E+02 -0.50218902577E+03 -0.92295505043E+03  0.11247107983E+04  0.40000000000E+03 0. -1.
<mgrwt>
<rscale>  2 0.64275062E+03</rscale>
<asrwt>0</asrwt>
<pdfrwt beam="1">  1       21 0.12616823E+00 0.64275062E+03</pdfrwt>
<pdfrwt beam="2">  1       21 0.17960565E+00 0.64275062E+03</pdfrwt>
<totfact> 0.61490599E+01</totfact>
</mgrwt>
</event>
<event>
 4    1  0.4676529E-002  0.4695535E+03  0.7818608E-02  0.1022046E+00
         21   -1    0    0  501  502  0.00000000000E+00  0.00000000000E+00  0.54695648182E+03  0.54695648182E+03  0.00000000000E+00 0.  1.
         21   -1    0    0  502  503 -0.00000000000E+00 -0.00000000000E+00 -0.40792958294E+03  0.40792958294E+03  0.00000000000E+00 0. -1.
    9000007    1    1    2  501    0 -0.29258565375E+01  0.24591048153E+03  0.12143994919E+03  0.48500328537E+03  0.40000000000E+03 0.  1.
   -9000007    1    1    2    0  503  0.29258565375E+01 -0.24591048153E+03  0.17586949688E+02  0.46988277938E+03  0.40000000000E+03 0. -1.
<mgrwt>
<rscale>  2 0.46955354E+03</rscale>
<asrwt>0</asrwt>
<pdfrwt beam="1">  1       21 0.84147151E-01 0.46955354E+03</pdfrwt>
<pdfrwt beam="2">  1       21 0.62758398E-01 0.46955354E+03</pdfrwt>
<totfact> 0.24840400E+03</totfact>
</mgrwt>
</event>
<event>
 4    1  0.4676529E-002  0.8218160E+03  0.7818608E-02  0.9528965E-01
         21   -1    0    0  503  502  0.00000000000E+00  0.00000000000E+00  0.16476128511E+04  0.16476128511E+04  0.00000000000E+00 0. -1.
         21   -1    0    0  501  503 -0.00000000000E+00 -0.00000000000E+00 -0.45630660540E+03  0.45630660540E+03  0.00000000000E+00 0. -1.
    9000007    1    1    2  501    0 -0.59336232102E+03 -0.40410726798E+03  0.93107359613E+03  0.12418854897E+04  0.40000000000E+03 0. -1.
   -9000007    1    1    2    0  502  0.59336232102E+03  0.40410726798E+03  0.26023264954E+03  0.86203396681E+03  0.40000000000E+03 0. -1.
<mgrwt>
<rscale>  2 0.82181599E+03</rscale>
<asrwt>0</asrwt>
<pdfrwt beam="1">  1       21 0.25347890E+00 0.82181599E+03</pdfrwt>
<pdfrwt beam="2">  1       21 0.70201017E-01 0.82181599E+03</pdfrwt>
<totfact> 0.77753664E+01</totfact>
</mgrwt>
</event>
<event>
 4    1  0.4676529E-002  0.4093798E+03  0.7818608E-02  0.1040579E+00
         21   -1    0    0  503  502  0.00000000000E+00  0.00000000000E+00  0.67959088665E+03  0.67959088665E+03  0.00000000000E+00 0. -1.
         21   -1    0    0  501  503 -0.00000000000E+00 -0.00000000000E+00 -0.26922016540E+03  0.26922016540E+03  0.00000000000E+00 0. -1.
    9000007    1    1    2  501    0  0.32803913661E+02  0.80720039796E+02  0.67693399460E+02  0.41493881224E+03  0.40000000000E+03 0. -1.
   -9000007    1    1    2    0  502 -0.32803913661E+02 -0.80720039796E+02  0.34267732179E+03  0.53387223981E+03  0.40000000000E+03 0. -1.
<mgrwt>
<rscale>  2 0.40937980E+03</rscale>
<asrwt>0</asrwt>
<pdfrwt beam="1">  1       21 0.10455244E+00 0.40937980E+03</pdfrwt>
<pdfrwt beam="2">  1       21 0.41418487E-01 0.40937980E+03</pdfrwt>
<totfact> 0.36679076E+03</totfact>
</mgrwt>
</event>
<event>
 4    1  0.4676529E-002  0.4743248E+03  0.7818608E-02  0.1020707E+00
         21   -1    0    0  503  502  0.00000000000E+00  0.00000000000E+00  0.62639088623E+03  0.62639088623E+03  0.00000000000E+00 0. -1.
         21   -1    0    0  501  503 -0.00000000000E+00 -0.00000000000E+00 -0.42317793501E+03  0.42317793501E+03  0.00000000000E+00 0. -1.
    9000007    1    1    2  501    0  0.71129065860E+02 -0.24479509266E+03  0.30569527655E+03  0.56429919680E+03  0.40000000000E+03 0. -1.
   -9000007    1    1    2    0  502 -0.71129065860E+02  0.24479509266E+03 -0.10248232533E+03  0.48526962444E+03  0.40000000000E+03 0. -1.
<mgrwt>
<rscale>  2 0.47432476E+03</rscale>
<asrwt>0</asrwt>
<pdfrwt beam="1">  1       21 0.96367829E-01 0.47432476E+03</pdfrwt>
<pdfrwt beam="2">  1       21 0.65104298E-01 0.47432476E+03</pdfrwt>
<totfact> 0.16571717E+03</totfact>
</mgrwt>
</event>
<event>
 4    1  0.4676529E-002  0.4453416E+03  0.7818608E-02  0.1029120E+00
         21   -1    0    0  501  502  0.00000000000E+00  0.00000000000E+00  0.30819279736E+03  0.30819279736E+03  0.00000000000E+00 0.  1.
         21   -1    0    0  502  503 -0.00000000000E+00 -0.00000000000E+00 -0.14982053402E+04  0.14982053402E+04  0.00000000000E+00 0.  1.
    9000007    1    1    2  501    0 -0.14413550926E+03 -0.13249179007E+03  0.87175647128E+02  0.45379368982E+03  0.40000000000E+03 0.  1.
   -9000007    1    1    2    0  503  0.14413550926E+03  0.13249179007E+03 -0.12771881899E+04  0.13526044477E+04  0.40000000000E+03 0.  1.
<mgrwt>
<rscale>  2 0.44534158E+03</rscale>
<asrwt>0</asrwt>
<pdfrwt beam="1">  1       21 0.47414278E-01 0.44534158E+03</pdfrwt>
<pdfrwt beam="2">  1       21 0.23049312E+00 0.44534158E+03</pdfrwt>
<totfact> 0.29923420E+02</totfact>
</mgrwt>
</event>
<event>
 4    1  0.4676529E-002  0.7454026E+03  0.7818608E-02  0.9642591E-01
         21   -1    0    0  503  502  0.00000000000E+00  0.00000000000E+00  0.20558141390E+04  0.20558141390E+04  0.00000000000E+00 0.  1.
         21   -1    0    0  501  503 -0.00000000000E+00 -0.00000000000E+00 -0.48092360956E+03  0.48092360956E+03  0.00000000000E+00 0. -1.
    9000007    1    1    2  501    0 -0.57627992420E+03  0.25204460085E+03 -0.51999078832E+02  0.74721411660E+03  0.40000000000E+03 0. -1.
   -9000007    1    1    2    0  502  0.57627992420E+03 -0.25204460085E+03  0.16268896082E+04  0.17895236319E+04  0.40000000000E+03 0.  1.
<mgrwt>
<rscale>  2 0.74540260E+03</rscale>
<asrwt>0</asrwt>
<pdfrwt beam="1">  1       21 0.31627909E+00 0.74540260E+03</pdfrwt>
<pdfrwt beam="2">  1       21 0.73988249E-01 0.74540260E+03</pdfrwt>
<totfact> 0.28967259E+01</totfact>
</mgrwt>
</event>
<event>
 4    1  0.4676529E-002  0.4344487E+03  0.7818608E-02  0.1032464E+00
         21   -1    0    0  503  502  0.00000000000E+00  0.00000000000E+00  0.25235629579E+04  0.25235629579E+04  0.00000000000E+00 0.  1.
         21   -1    0    0  501  503 -0.00000000000E+00 -0.00000000000E+00 -0.94111064424E+02  0.94111064424E+02  0.00000000000E+00 0.  1.
    9000007    1    1    2  501    0 -0.14417510263E+03 -0.89214590268E+02  0.62174163534E+03  0.75849084665E+03  0.40000000000E+03 0.  1.
   -9000007    1    1    2    0  502  0.14417510263E+03  0.89214590268E+02  0.18077102581E+04  0.18591831757E+04  0.40000000000E+03 0.  1.
<mgrwt>
<rscale>  2 0.43444873E+03</rscale>
<asrwt>0</asrwt>
<pdfrwt beam="1">  1       21 0.38824040E+00 0.43444873E+03</pdfrwt>
<pdfrwt beam="2">  1       21 0.14478627E-01 0.43444873E+03</pdfrwt>
<totfact> 0.33595992E+02</totfact>
</mgrwt>
</event>
<event>
 4    1  0.4676529E-002  0.4455123E+03  0.7818608E-02  0.1029069E+00
         21   -1    0    0  501  502  0.00000000000E+00  0.00000000000E+00  0.76235150809E+03  0.76235150809E+03  0.00000000000E+00 0.  1.
         21   -1    0    0  502  503 -0.00000000000E+00 -0.00000000000E+00 -0.31810655555E+03  0.31810655555E+03  0.00000000000E+00 0.  1.
    9000007    1    1    2  501    0  0.33214852073E+02  0.19333382707E+03 -0.80628079192E+01  0.44558523759E+03  0.40000000000E+03 0.  1.
   -9000007    1    1    2    0  503 -0.33214852073E+02 -0.19333382707E+03  0.45230776045E+03  0.63487282605E+03  0.40000000000E+03 0.  1.
<mgrwt>
<rscale>  2 0.44551228E+03</rscale>
<asrwt>0</asrwt>
<pdfrwt beam="1">  1       21 0.11728485E+00 0.44551228E+03</pdfrwt>
<pdfrwt beam="2">  1       21 0.48939470E-01 0.44551228E+03</pdfrwt>
<totfact> 0.19182454E+03</totfact>
</mgrwt>
</event>
<event>
 4    1  0.4676529E-002  0.4840168E+03  0.7818608E-02  0.1018037E+00
         21   -1    0    0  503  502  0.00000000000E+00  0.00000000000E+00  0.93644354159E+02  0.93644354159E+02  0.00000000000E+00 0.  1.
         21   -1    0    0  501  503 -0.00000000000E+00 -0.00000000000E+00 -0.27142447047E+04  0.27142447047E+04  0.00000000000E+00 0. -1.
    9000007    1    1    2  501    0  0.13128249279E+03  0.23882463099E+03 -0.91745048863E+03  0.10372982678E+04  0.40000000000E+03 0. -1.
   -9000007    1    1    2    0  502 -0.13128249279E+03 -0.23882463099E+03 -0.17031498619E+04  0.17705907911E+04  0.40000000000E+03 0. -1.
<mgrwt>
<rscale>  2 0.48401684E+03</rscale>
<asrwt>0</asrwt>
<pdfrwt beam="1">  1       21 0.14406824E-01 0.48401684E+03</pdfrwt>
<pdfrwt beam="2">  1       21 0.41757610E+00 0.48401684E+03</pdfrwt>
<totfact> 0.21251305E+02</totfact>
</mgrwt>
</event>
<event>
 4    1  0.4676529E-002  0.4305450E+03  0.7818608E-02  0.1033688E+00
         21   -1    0    0  503  502  0.00000000000E+00  0.00000000000E+00  0.39702556475E+04  0.39702556475E+04  0.00000000000E+00 0. -1.
         21   -1    0    0  501  503 -0.00000000000E+00 -0.00000000000E+00 -0.66720054870E+02  0.66720054870E+02  0.00000000000E+00 0.  1.
    9000007    1    1    2  501    0  0.14087166638E+03 -0.74324995712E+02  0.84579350387E+03  0.94907095761E+03  0.40000000000E+03 0.  1.
   -9000007    1    1    2    0  502 -0.14087166638E+03  0.74324995712E+02  0.30577420888E+04  0.30879047448E+04  0.40000000000E+03 0. -1.
<mgrwt>
<rscale>  2 0.43054504E+03</rscale>
<asrwt>0</asrwt>
<pdfrwt beam="1">  1       21 0.61080838E+00 0.43054504E+03</pdfrwt>
<pdfrwt beam="2">  1       21 0.10264627E-01 0.43054504E+03</pdfrwt>
<totfact> 0.16365526E+01</totfact>
</mgrwt>
</event>
<event>
 4    1  0.4676529E-002  0.4000240E+03  0.7818608E-02  0.1043771E+00
         21   -1    0    0  503  502  0.00000000000E+00  0.00000000000E+00  0.86346232044E+03  0.86346232044E+03  0.00000000000E+00 0.  1.
         21   -1    0    0  501  503 -0.00000000000E+00 -0.00000000000E+00 -0.19833300829E+03  0.19833300829E+03  0.00000000000E+00 0.  1.
    9000007    1    1    2  501    0  0.18770130417E+01 -0.39642053454E+01  0.46853862208E+03  0.61607440986E+03  0.40000000000E+03 0.  1.
   -9000007    1    1    2    0  502 -0.18770130417E+01  0.39642053454E+01  0.19659069007E+03  0.44572091888E+03  0.40000000000E+03 0.  1.
<mgrwt>
<rscale>  2 0.40002405E+03</rscale>
<asrwt>0</asrwt>
<pdfrwt beam="1">  1       21 0.13284036E+00 0.40002405E+03</pdfrwt>
<pdfrwt beam="2">  1       21 0.30512771E-01 0.40002405E+03</pdfrwt>
<totfact> 0.37371083E+03</totfact>
</mgrwt>
</event>
<event>
 4    1  0.4676529E-002  0.4573619E+03  0.7818608E-02  0.1025549E+00
         21   -1    0    0  503  502  0.00000000000E+00  0.00000000000E+00  0.40530984912E+03  0.40530984912E+03  0.00000000000E+00 0.  1.
         21   -1    0    0  501  503 -0.00000000000E+00 -0.00000000000E+00 -0.88490805046E+03  0.88490805046E+03  0.00000000000E+00 0.  1.
    9000007    1    1    2  501    0 -0.92525724874E+00  0.22176353109E+03 -0.65627023597E+03  0.79991908493E+03  0.40000000000E+03 0.  1.
   -9000007    1    1    2    0  502  0.92525724874E+00 -0.22176353109E+03  0.17667203462E+03  0.49029881464E+03  0.40000000000E+03 0.  1.
<mgrwt>
<rscale>  2 0.45736191E+03</rscale>
<asrwt>0</asrwt>
<pdfrwt beam="1">  1       21 0.62355362E-01 0.45736191E+03</pdfrwt>
<pdfrwt beam="2">  1       21 0.13613970E+00 0.45736191E+03</pdfrwt>
<totfact> 0.77003984E+02</totfact>
</mgrwt>
</event>
<event>
 4    1  0.4676529E-002  0.4864018E+03  0.7818608E-02  0.1017390E+00
         21   -1    0    0  503  502  0.00000000000E+00  0.00000000000E+00  0.39103266603E+03  0.39103266603E+03  0.00000000000E+00 0.  1.
         21   -1    0    0  501  503 -0.00000000000E+00 -0.00000000000E+00 -0.86928210588E+03  0.86928210588E+03  0.00000000000E+00 0.  1.
    9000007    1    1    2  501    0  0.23678270663E+03 -0.14325043579E+03 -0.58656276892E+03  0.76199909409E+03  0.40000000000E+03 0.  1.
   -9000007    1    1    2    0  502 -0.23678270663E+03  0.14325043579E+03  0.10831332907E+03  0.49831567782E+03  0.40000000000E+03 0.  1.
<mgrwt>
<rscale>  2 0.48640183E+03</rscale>
<asrwt>0</asrwt>
<pdfrwt beam="1">  1       21 0.60158872E-01 0.48640183E+03</pdfrwt>
<pdfrwt beam="2">  1       21 0.13373571E+00 0.48640183E+03</pdfrwt>
<totfact> 0.86269237E+02</totfact>
</mgrwt>
</event>
<event>
 4    1  0.4676529E-002  0.4448089E+03  0.7818608E-02  0.1029281E+00
         21   -1    0    0  503  502  0.00000000000E+00  0.00000000000E+00  0.18972181918E+03  0.18972181918E+03  0.00000000000E+00 0. -1.
         21   -1    0    0  501  503 -0.00000000000E+00 -0.00000000000E+00 -0.13830573498E+04  0.13830573498E+04  0.00000000000E+00 0.  1.
    9000007    1    1    2  501    0 -0.46532985093E+02  0.18891699205E+03 -0.20665613101E+03  0.49047090135E+03  0.40000000000E+03 0. -1.
   -9000007    1    1    2    0  502  0.46532985093E+02 -0.18891699205E+03 -0.98667939962E+03  0.10823082677E+04  0.40000000000E+03 0.  1.
<mgrwt>
<rscale>  2 0.44480889E+03</rscale>
<asrwt>0</asrwt>
<pdfrwt beam="1">  1       21 0.29187972E-01 0.44480889E+03</pdfrwt>
<pdfrwt beam="2">  1       21 0.21277806E+00 0.44480889E+03</pdfrwt>
<totfact> 0.10452830E+03</totfact>
</mgrwt>
</event>
<event>
 4    1  0.4676529E-002  0.4639695E+03  0.7818608E-02  0.1023636E+00
         21   -1    0    0  503  502  0.00000000000E+00  0.00000000000E+00  0.40540402564E+03  0.40540402564E+03  0.00000000000E+00 0. -1.
         21   -1    0    0  501  503 -0.00000000000E+00 -0.00000000000E+00 -0.59291588373E+03  0.59291588373E+03  0.00000000000E+00 0.  1.
    9000007    1    1    2  501    0  0.20231908208E+03  0.11972741780E+03 -0.25506560797E+03  0.52945833634E+03  0.40000000000E+03 0. -1.
   -9000007    1    1    2    0  502 -0.20231908208E+03 -0.11972741780E+03  0.67553749885E+02  0.46886157304E+03  0.40000000000E+03 0. -1.
<mgrwt>
<rscale>  2 0.46396947E+03</rscale>
<asrwt>0</asrwt>
<pdfrwt beam="1">  1       21 0.62369850E-01 0.46396947E+03</pdfrwt>
<pdfrwt beam="2">  1       21 0.91217828E-01 0.46396947E+03</pdfrwt>
<totfact> 0.20863441E+03</totfact>
</mgrwt>
</event>
<event>
 4    1  0.4676529E-002  0.4358410E+03  0.7818608E-02  0.1032031E+00
         21   -1    0    0  503  502  0.00000000000E+00  0.00000000000E+00  0.11465379584E+04  0.11465379584E+04  0.00000000000E+00 0. -1.
         21   -1    0    0  501  503 -0.00000000000E+00 -0.00000000000E+00 -0.19033219181E+03  0.19033219181E+03  0.00000000000E+00 0. -1.
    9000007    1    1    2  501    0  0.41730167242E+02  0.16797613138E+03  0.23753440439E+03  0.49636678056E+03  0.40000000000E+03 0. -1.
   -9000007    1    1    2    0  502 -0.41730167242E+02 -0.16797613138E+03  0.71867136225E+03  0.84050336971E+03  0.40000000000E+03 0. -1.
<mgrwt>
<rscale>  2 0.43584101E+03</rscale>
<asrwt>0</asrwt>
<pdfrwt beam="1">  1       21 0.17639045E+00 0.43584101E+03</pdfrwt>
<pdfrwt beam="2">  1       21 0.29281876E-01 0.43584101E+03</pdfrwt>
<totfact> 0.18388642E+03</totfact>
</mgrwt>
</event>
<event>
 4    1  0.4676529E-002  0.8939788E+03  0.7818608E-02  0.9433140E-01
         21   -1    0    0  501  502  0.00000000000E+00  0.00000000000E+00  0.10016553120E+04  0.10016553120E+04  0.00000000000E+00 0. -1.
         21   -1    0    0  502  503 -0.00000000000E+00 -0.00000000000E+00 -0.81714894732E+03  0.81714894732E+03  0.00000000000E+00 0.  1.
    9000007    1    1    2  501    0  0.74962895414E+03  0.27794696122E+03 -0.47404314354E+02  0.89523474639E+03  0.40000000000E+03 0. -1.
   -9000007    1    1    2    0  503 -0.74962895414E+03 -0.27794696122E+03  0.23191067902E+03  0.92356951291E+03  0.40000000000E+03 0.  1.
<mgrwt>
<rscale>  2 0.89397879E+03</rscale>
<asrwt>0</asrwt>
<pdfrwt beam="1">  1       21 0.15410082E+00 0.89397879E+03</pdfrwt>
<pdfrwt beam="2">  1       21 0.12571522E+00 0.89397879E+03</pdfrwt>
<totfact> 0.88938491E+01</totfact>
</mgrwt>
</event>
<event>
 4    1  0.4676529E-002  0.6772468E+03  0.7818608E-02  0.9756954E-01
         21   -1    0    0  503  502  0.00000000000E+00  0.00000000000E+00  0.49492674451E+03  0.49492674451E+03  0.00000000000E+00 0. -1.
         21   -1    0    0  501  503 -0.00000000000E+00 -0.00000000000E+00 -0.10127050211E+04  0.10127050211E+04  0.00000000000E+00 0.  1.
    9000007    1    1    2  501    0  0.53777941699E+03  0.97244466337E+02 -0.47852909425E+03  0.82924862473E+03  0.40000000000E+03 0. -1.
   -9000007    1    1    2    0  502 -0.53777941699E+03 -0.97244466337E+02 -0.39249182386E+02  0.67838314093E+03  0.40000000000E+03 0. -1.
<mgrwt>
<rscale>  2 0.67724677E+03</rscale>
<asrwt>0</asrwt>
<pdfrwt beam="1">  1       21 0.76142577E-01 0.67724677E+03</pdfrwt>
<pdfrwt beam="2">  1       21 0.15580077E+00 0.67724677E+03</pdfrwt>
<totfact> 0.31409971E+02</totfact>
</mgrwt>
</event>
<event>
 4    1  0.4676529E-002  0.4390599E+03  0.7818608E-02  0.1031036E+00
         21   -1    0    0  503  502  0.00000000000E+00  0.00000000000E+00  0.30533246120E+03  0.30533246120E+03  0.00000000000E+00 0. -1.
         21   -1    0    0  501  503 -0.00000000000E+00 -0.00000000000E+00 -0.78333035920E+03  0.78333035920E+03  0.00000000000E+00 0. -1.
    9000007    1    1    2  501    0  0.10757599845E+03 -0.14560561106E+03 -0.47875830928E+03  0.64960226918E+03  0.40000000000E+03 0. -1.
   -9000007    1    1    2    0  502 -0.10757599845E+03  0.14560561106E+03  0.76041128223E+00  0.43906055122E+03  0.40000000000E+03 0. -1.
<mgrwt>
<rscale>  2 0.43905989E+03</rscale>
<asrwt>0</asrwt>
<pdfrwt beam="1">  1       21 0.46974225E-01 0.43905989E+03</pdfrwt>
<pdfrwt beam="2">  1       21 0.12051236E+00 0.43905989E+03</pdfrwt>
<totfact> 0.19577528E+03</totfact>
</mgrwt>
</event>
<event>
 4    1  0.4676529E-002  0.4640472E+03  0.7818608E-02  0.1023614E+00
         21   -1    0    0  503  502  0.00000000000E+00  0.00000000000E+00  0.27447880118E+03  0.27447880118E+03  0.00000000000E+00 0.  1.
         21   -1    0    0  501  503 -0.00000000000E+00 -0.00000000000E+00 -0.88421947084E+03  0.88421947084E+03  0.00000000000E+00 0.  1.
    9000007    1    1    2  501    0 -0.22557682085E+03  0.66745139951E+02 -0.49938908265E+03  0.68171054831E+03  0.40000000000E+03 0.  1.
   -9000007    1    1    2    0  502  0.22557682085E+03 -0.66745139951E+02 -0.11035158701E+03  0.47698772371E+03  0.40000000000E+03 0.  1.
<mgrwt>
<rscale>  2 0.46404721E+03</rscale>
<asrwt>0</asrwt>
<pdfrwt beam="1">  1       21 0.42227509E-01 0.46404721E+03</pdfrwt>
<pdfrwt beam="2">  1       21 0.13603376E+00 0.46404721E+03</pdfrwt>
<totfact> 0.17711265E+03</totfact>
</mgrwt>
</event>
<event>
 4    1  0.4676529E-002  0.4332698E+03  0.7818608E-02  0.1032832E+00
         21   -1    0    0  501  502  0.00000000000E+00  0.00000000000E+00  0.22568407003E+03  0.22568407003E+03  0.00000000000E+00 0. -1.
         21   -1    0    0  502  503 -0.00000000000E+00 -0.00000000000E+00 -0.10450010466E+04  0.10450010466E+04  0.00000000000E+00 0. -1.
    9000007    1    1    2  501    0  0.12190999838E+03 -0.11340482065E+03 -0.12267946339E+03  0.45030317763E+03  0.40000000000E+03 0. -1.
   -9000007    1    1    2    0  503 -0.12190999838E+03  0.11340482065E+03 -0.69663751322E+03  0.82038193902E+03  0.40000000000E+03 0. -1.
<mgrwt>
<rscale>  2 0.43326978E+03</rscale>
<asrwt>0</asrwt>
<pdfrwt beam="1">  1       21 0.34720627E-01 0.43326978E+03</pdfrwt>
<pdfrwt beam="2">  1       21 0.16076939E+00 0.43326978E+03</pdfrwt>
<totfact> 0.17032333E+03</totfact>
</mgrwt>
</event>
<event>
 4    1  0.4676529E-002  0.4182878E+03  0.7818608E-02  0.1037625E+00
         21   -1    0    0  501  502  0.00000000000E+00  0.00000000000E+00  0.41691995617E+03  0.41691995617E+03  0.00000000000E+00 0.  1.
         21   -1    0    0  502  503 -0.00000000000E+00 -0.00000000000E+00 -0.47335319783E+03  0.47335319783E+03  0.00000000000E+00 0.  1.
    9000007    1    1    2  501    0  0.32169957299E+02 -0.11802457463E+03  0.12170335615E+03  0.43563334729E+03  0.40000000000E+03 0. -1.
   -9000007    1    1    2    0  503 -0.32169957299E+02  0.11802457463E+03 -0.17813659781E+03  0.45463980671E+03  0.40000000000E+03 0. -1.
<mgrwt>
<rscale>  2 0.41828783E+03</rscale>
<asrwt>0</asrwt>
<pdfrwt beam="1">  1       21 0.64141531E-01 0.41828783E+03</pdfrwt>
<pdfrwt beam="2">  1       21 0.72823569E-01 0.41828783E+03</pdfrwt>
<totfact> 0.33620814E+03</totfact>
</mgrwt>
</event>
<event>
 4    1  0.4676529E-002  0.4155830E+03  0.7818608E-02  0.1038514E+00
         21   -1    0    0  501  502  0.00000000000E+00  0.00000000000E+00  0.25900544575E+03  0.25900544575E+03  0.00000000000E+00 0.  1.
         21   -1    0    0  502  503 -0.00000000000E+00 -0.00000000000E+00 -0.67195953049E+03  0.67195953049E+03  0.00000000000E+00 0.  1.
    9000007    1    1    2  501    0  0.44881898303E+02 -0.10341578962E+03 -0.24719857688E+03  0.48354559945E+03  0.40000000000E+03 0. -1.
   -9000007    1    1    2    0  503 -0.44881898303E+02  0.10341578962E+03 -0.16575550787E+03  0.44741937679E+03  0.40000000000E+03 0. -1.
<mgrwt>
<rscale>  2 0.41558298E+03</rscale>
<asrwt>0</asrwt>
<pdfrwt beam="1">  1       21 0.39846993E-01 0.41558298E+03</pdfrwt>
<pdfrwt beam="2">  1       21 0.10337839E+00 0.41558298E+03</pdfrwt>
<totfact> 0.40742807E+03</totfact>
</mgrwt>
</event>
<event>
 4    1  0.4676529E-002  0.4065859E+03  0.7818608E-02  0.1041523E+00
         21   -1    0    0  503  502  0.00000000000E+00  0.00000000000E+00  0.56240948599E+03  0.56240948599E+03  0.00000000000E+00 0. -1.
         21   -1    0    0  501  503 -0.00000000000E+00 -0.00000000000E+00 -0.29397121453E+03  0.29397121453E+03  0.00000000000E+00 0. -1.
    9000007    1    1    2  501    0 -0.26040206978E+02 -0.68073730585E+02  0.13893737916E+03  0.42966931529E+03  0.40000000000E+03 0.  1.
   -9000007    1    1    2    0  502  0.26040206978E+02  0.68073730585E+02  0.12950089230E+03  0.42671138523E+03  0.40000000000E+03 0.  1.
<mgrwt>
<rscale>  2 0.40658594E+03</rscale>
<asrwt>0</asrwt>
<pdfrwt beam="1">  1       21 0.86524536E-01 0.40658594E+03</pdfrwt>
<pdfrwt beam="2">  1       21 0.45226341E-01 0.40658594E+03</pdfrwt>
<totfact> 0.48116855E+03</totfact>
</mgrwt>
</event>
<event>
 4    1  0.4676529E-002  0.4722900E+03  0.7818608E-02  0.1021276E+00
         21   -1    0    0  501  502  0.00000000000E+00  0.00000000000E+00  0.80724331094E+03  0.80724331094E+03  0.00000000000E+00 0. -1.
         21   -1    0    0  502  503 -0.00000000000E+00 -0.00000000000E+00 -0.10138135483E+04  0.10138135483E+04  0.00000000000E+00 0. -1.
    9000007    1    1    2  501    0 -0.20944930835E+03  0.13852359094E+03  0.67330785827E+03  0.82243617991E+03  0.40000000000E+03 0. -1.
   -9000007    1    1    2    0  503  0.20944930835E+03 -0.13852359094E+03 -0.87987809565E+03  0.99862067935E+03  0.40000000000E+03 0. -1.
<mgrwt>
<rscale>  2 0.47228995E+03</rscale>
<asrwt>0</asrwt>
<pdfrwt beam="1">  1       21 0.12419128E+00 0.47228995E+03</pdfrwt>
<pdfrwt beam="2">  1       21 0.15597131E+00 0.47228995E+03</pdfrwt>
<totfact> 0.10362586E+02</totfact>
</mgrwt>
</event>
<event>
 4    1  0.4676529E-002  0.4359342E+03  0.7818608E-02  0.1032002E+00
         21   -1    0    0  503  502  0.00000000000E+00  0.00000000000E+00  0.17219697458E+03  0.17219697458E+03  0.00000000000E+00 0.  1.
         21   -1    0    0  501  503 -0.00000000000E+00 -0.00000000000E+00 -0.11039636880E+04  0.11039636880E+04  0.00000000000E+00 0.  1.
    9000007    1    1    2  501    0  0.14405464114E+03 -0.96368669436E+02 -0.47727094114E+03  0.64639477979E+03  0.40000000000E+03 0.  1.
   -9000007    1    1    2    0  502 -0.14405464114E+03  0.96368669436E+02 -0.45449577224E+03  0.62976588275E+03  0.40000000000E+03 0.  1.
<mgrwt>
<rscale>  2 0.43593424E+03</rscale>
<asrwt>0</asrwt>
<pdfrwt beam="1">  1       21 0.26491842E-01 0.43593424E+03</pdfrwt>
<pdfrwt beam="2">  1       21 0.16984057E+00 0.43593424E+03</pdfrwt>
<totfact> 0.24961121E+03</totfact>
</mgrwt>
</event>
<event>
 4    1  0.4676529E-002  0.5841568E+03  0.7818608E-02  0.9938832E-01
         21   -1    0    0  503  502  0.00000000000E+00  0.00000000000E+00  0.72888143029E+03  0.72888143029E+03  0.00000000000E+00 0. -1.
         21   -1    0    0  501  503 -0.00000000000E+00 -0.00000000000E+00 -0.47329153557E+03  0.47329153557E+03  0.00000000000E+00 0. -1.
    9000007    1    1    2  501    0 -0.37098701782E+03 -0.20882480102E+03  0.19033318528E+03  0.61438252443E+03  0.40000000000E+03 0. -1.
   -9000007    1    1    2    0  502  0.37098701782E+03  0.20882480102E+03  0.65256709442E+02  0.58779044143E+03  0.40000000000E+03 0. -1.
<mgrwt>
<rscale>  2 0.58415680E+03</rscale>
<asrwt>0</asrwt>
<pdfrwt beam="1">  1       21 0.11213560E+00 0.58415680E+03</pdfrwt>
<pdfrwt beam="2">  1       21 0.72814082E-01 0.58415680E+03</pdfrwt>
<totfact> 0.85408773E+02</totfact>
</mgrwt>
</event>
<event>
 4    1  0.4676529E-002  0.4761552E+03  0.7818608E-02  0.1020197E+00
         21   -1    0    0  503  502  0.00000000000E+00  0.00000000000E+00  0.45981883040E+03  0.45981883040E+03  0.00000000000E+00 0. -1.
         21   -1    0    0  501  503 -0.00000000000E+00 -0.00000000000E+00 -0.51150914193E+03  0.51150914193E+03  0.00000000000E+00 0. -1.
    9000007    1    1    2  501    0 -0.82055381165E+01  0.25817907228E+03 -0.11805062209E+03  0.49057080386E+03  0.40000000000E+03 0. -1.
   -9000007    1    1    2    0  502  0.82055381165E+01 -0.25817907228E+03  0.66360310558E+02  0.48075716847E+03  0.40000000000E+03 0. -1.
<mgrwt>
<rscale>  2 0.47615519E+03</rscale>
<asrwt>0</asrwt>
<pdfrwt beam="1">  1       21 0.70741359E-01 0.47615519E+03</pdfrwt>
<pdfrwt beam="2">  1       21 0.78693714E-01 0.47615519E+03</pdfrwt>
<totfact> 0.22156030E+03</totfact>
</mgrwt>
</event>
<event>
 4    1  0.4676529E-002  0.4316114E+03  0.7818608E-02  0.1033352E+00
         21   -1    0    0  503  502  0.00000000000E+00  0.00000000000E+00  0.11637464960E+03  0.11637464960E+03  0.00000000000E+00 0. -1.
         21   -1    0    0  501  503 -0.00000000000E+00 -0.00000000000E+00 -0.23685512034E+04  0.23685512034E+04  0.00000000000E+00 0.  1.
    9000007    1    1    2  501    0  0.11008678344E+03  0.11903493002E+03 -0.18334838327E+04  0.18836006422E+04  0.40000000000E+03 0.  1.
   -9000007    1    1    2    0  502 -0.11008678344E+03 -0.11903493002E+03 -0.41869272107E+03  0.60132521079E+03  0.40000000000E+03 0. -1.
<mgrwt>
<rscale>  2 0.43161142E+03</rscale>
<asrwt>0</asrwt>
<pdfrwt beam="1">  1       21 0.17903793E-01 0.43161142E+03</pdfrwt>
<pdfrwt beam="2">  1       21 0.36439248E+00 0.43161142E+03</pdfrwt>
<totfact> 0.31951790E+02</totfact>
</mgrwt>
</event>
<event>
 4    1  0.4676529E-002  0.4595048E+03  0.7818608E-02  0.1024925E+00
         21   -1    0    0  503  502  0.00000000000E+00  0.00000000000E+00  0.66641446446E+03  0.66641446446E+03  0.00000000000E+00 0. -1.
         21   -1    0    0  501  503 -0.00000000000E+00 -0.00000000000E+00 -0.37765755429E+03  0.37765755429E+03  0.00000000000E+00 0. -1.
    9000007    1    1    2  501    0 -0.86145502922E+02  0.20910200290E+03 -0.65118109101E+02  0.46409596359E+03  0.40000000000E+03 0. -1.
   -9000007    1    1    2    0  502  0.86145502922E+02 -0.20910200290E+03  0.35387501927E+03  0.57997605516E+03  0.40000000000E+03 0. -1.
<mgrwt>
<rscale>  2 0.45950484E+03</rscale>
<asrwt>0</asrwt>
<pdfrwt beam="1">  1       21 0.10252530E+00 0.45950484E+03</pdfrwt>
<pdfrwt beam="2">  1       21 0.58101162E-01 0.45950484E+03</pdfrwt>
<totfact> 0.18421053E+03</totfact>
</mgrwt>
</event>
<event>
 4    1  0.4676529E-002  0.4146153E+03  0.7818608E-02  0.1038833E+00
         21   -1    0    0  503  502  0.00000000000E+00  0.00000000000E+00  0.26927866737E+03  0.26927866737E+03  0.00000000000E+00 0.  1.
         21   -1    0    0  501  503 -0.00000000000E+00 -0.00000000000E+00 -0.81529247810E+03  0.81529247810E+03  0.00000000000E+00 0.  1.
    9000007    1    1    2  501    0 -0.89226252034E+02 -0.62805201813E+02 -0.52560710623E+03  0.66945399210E+03  0.40000000000E+03 0.  1.
   -9000007    1    1    2    0  502  0.89226252034E+02  0.62805201813E+02 -0.20406704508E+02  0.41511715336E+03  0.40000000000E+03 0.  1.
<mgrwt>
<rscale>  2 0.41461526E+03</rscale>
<asrwt>0</asrwt>
<pdfrwt beam="1">  1       21 0.41427487E-01 0.41461526E+03</pdfrwt>
<pdfrwt beam="2">  1       21 0.12542961E+00 0.41461526E+03</pdfrwt>
<totfact> 0.23198100E+03</totfact>
</mgrwt>
</event>
<event>
 4    1  0.4676529E-002  0.4131592E+03  0.7818608E-02  0.1039316E+00
         21   -1    0    0  503  502  0.00000000000E+00  0.00000000000E+00  0.11436912143E+04  0.11436912143E+04  0.00000000000E+00 0.  1.
         21   -1    0    0  501  503 -0.00000000000E+00 -0.00000000000E+00 -0.15855495895E+03  0.15855495895E+03  0.00000000000E+00 0. -1.
    9000007    1    1    2  501    0 -0.10203760922E+03 -0.16994909838E+02  0.33486627510E+03  0.53182320639E+03  0.40000000000E+03 0. -1.
   -9000007    1    1    2    0  502  0.10203760922E+03  0.16994909838E+02  0.65026998027E+03  0.77042296688E+03  0.40000000000E+03 0.  1.
<mgrwt>
<rscale>  2 0.41315917E+03</rscale>
<asrwt>0</asrwt>
<pdfrwt beam="1">  1       21 0.17595249E+00 0.41315917E+03</pdfrwt>
<pdfrwt beam="2">  1       21 0.24393071E-01 0.41315917E+03</pdfrwt>
<totfact> 0.26744838E+03</totfact>
</mgrwt>
</event>
<event>
 4    1  0.4676529E-002  0.5054627E+03  0.7818608E-02  0.1012363E+00
         21   -1    0    0  503  502  0.00000000000E+00  0.00000000000E+00  0.39875870498E+03  0.39875870498E+03  0.00000000000E+00 0. -1.
         21   -1    0    0  501  503 -0.00000000000E+00 -0.00000000000E+00 -0.67899887825E+03  0.67899887825E+03  0.00000000000E+00 0. -1.
    9000007    1    1    2  501    0  0.15581895239E+03 -0.26685771007E+03 -0.26806926554E+03  0.57214833258E+03  0.40000000000E+03 0. -1.
   -9000007    1    1    2    0  502 -0.15581895239E+03  0.26685771007E+03 -0.12170907740E+02  0.50560925065E+03  0.40000000000E+03 0. -1.
<mgrwt>
<rscale>  2 0.50546274E+03</rscale>
<asrwt>0</asrwt>
<pdfrwt beam="1">  1       21 0.61347493E-01 0.50546274E+03</pdfrwt>
<pdfrwt beam="2">  1       21 0.10446137E+00 0.50546274E+03</pdfrwt>
<totfact> 0.15358436E+03</totfact>
</mgrwt>
</event>
<event>
 4    1  0.4676529E-002  0.4018977E+03  0.7818608E-02  0.1043125E+00
         21   -1    0    0  501  502  0.00000000000E+00  0.00000000000E+00  0.15036972444E+03  0.15036972444E+03  0.00000000000E+00 0.  1.
         21   -1    0    0  502  503 -0.00000000000E+00 -0.00000000000E+00 -0.16312030048E+04  0.16312030048E+04  0.00000000000E+00 0.  1.
    9000007    1    1    2  501    0 -0.38072990019E+02 -0.84960182847E+01 -0.21986672178E+03  0.45810818618E+03  0.40000000000E+03 0.  1.
   -9000007    1    1    2    0  503  0.38072990019E+02  0.84960182847E+01 -0.12609665586E+04  0.13234645431E+04  0.40000000000E+03 0.  1.
<mgrwt>
<rscale>  2 0.40189767E+03</rscale>
<asrwt>0</asrwt>
<pdfrwt beam="1">  1       21 0.23133803E-01 0.40189767E+03</pdfrwt>
<pdfrwt beam="2">  1       21 0.25095432E+00 0.40189767E+03</pdfrwt>
<totfact> 0.96953887E+02</totfact>
</mgrwt>
</event>
<event>
 4    1  0.4676529E-002  0.4325059E+03  0.7818608E-02  0.1033071E+00
         21   -1    0    0  503  502  0.00000000000E+00  0.00000000000E+00  0.13231557620E+04  0.13231557620E+04  0.00000000000E+00 0. -1.
         21   -1    0    0  501  503 -0.00000000000E+00 -0.00000000000E+00 -0.15860298037E+03  0.15860298037E+03  0.00000000000E+00 0. -1.
    9000007    1    1    2  501    0 -0.16179148910E+03  0.29747373030E+02  0.33809831416E+03  0.54897346219E+03  0.40000000000E+03 0. -1.
   -9000007    1    1    2    0  502  0.16179148910E+03 -0.29747373030E+02  0.82645446749E+03  0.93278528021E+03  0.40000000000E+03 0. -1.
<mgrwt>
<rscale>  2 0.43250594E+03</rscale>
<asrwt>0</asrwt>
<pdfrwt beam="1">  1       21 0.20356242E+00 0.43250594E+03</pdfrwt>
<pdfrwt beam="2">  1       21 0.24400459E-01 0.43250594E+03</pdfrwt>
<totfact> 0.17154740E+03</totfact>
</mgrwt>
</event>
<event>
 4    1  0.4676529E-002  0.4187087E+03  0.7818608E-02  0.1037487E+00
         21   -1    0    0  501  502  0.00000000000E+00  0.00000000000E+00  0.12375144740E+03  0.12375144740E+03  0.00000000000E+00 0.  1.
         21   -1    0    0  502  503 -0.00000000000E+00 -0.00000000000E+00 -0.17550500202E+04  0.17550500202E+04  0.00000000000E+00 0.  1.
    9000007    1    1    2  501    0  0.31233041221E+02  0.11975571597E+03 -0.40317367145E+03  0.58126237081E+03  0.40000000000E+03 0. -1.
   -9000007    1    1    2    0  503 -0.31233041221E+02 -0.11975571597E+03 -0.12281249014E+04  0.12975390968E+04  0.40000000000E+03 0. -1.
<mgrwt>
<rscale>  2 0.41870865E+03</rscale>
<asrwt>0</asrwt>
<pdfrwt beam="1">  1       21 0.19038686E-01 0.41870865E+03</pdfrwt>
<pdfrwt beam="2">  1       21 0.27000767E+00 0.41870865E+03</pdfrwt>
<totfact> 0.10676555E+03</totfact>
</mgrwt>
</event>
<event>
 4    1  0.4676529E-002  0.4016334E+03  0.7818608E-02  0.1043216E+00
         21   -1    0    0  503  502  0.00000000000E+00  0.00000000000E+00  0.14590759367E+04  0.14590759367E+04  0.00000000000E+00 0.  1.
         21   -1    0    0  501  503 -0.00000000000E+00 -0.00000000000E+00 -0.20974758478E+03  0.20974758478E+03  0.00000000000E+00 0.  1.
    9000007    1    1    2  501    0 -0.35763851052E+02 -0.55075107435E+01  0.50852121869E+02  0.40483987454E+03  0.40000000000E+03 0.  1.
   -9000007    1    1    2    0  502  0.35763851052E+02  0.55075107435E+01  0.11984762300E+04  0.12639836469E+04  0.40000000000E+03 0.  1.
<mgrwt>
<rscale>  2 0.40163340E+03</rscale>
<asrwt>0</asrwt>
<pdfrwt beam="1">  1       21 0.22447321E+00 0.40163340E+03</pdfrwt>
<pdfrwt beam="2">  1       21 0.32268860E-01 0.40163340E+03</pdfrwt>
<totfact> 0.73671892E+02</totfact>
</mgrwt>
</event>
<event>
 4    1  0.4676529E-002  0.4234496E+03  0.7818608E-02  0.1035949E+00
         21   -1    0    0  503  502  0.00000000000E+00  0.00000000000E+00  0.68550997219E+03  0.68550997219E+03  0.00000000000E+00 0. -1.
         21   -1    0    0  501  503 -0.00000000000E+00 -0.00000000000E+00 -0.50479454679E+03  0.50479454679E+03  0.00000000000E+00 0. -1.
    9000007    1    1    2  501    0  0.13726232923E+03 -0.21648499786E+02 -0.32275967038E+03  0.53243160067E+03  0.40000000000E+03 0. -1.
   -9000007    1    1    2    0  502 -0.13726232923E+03  0.21648499786E+02  0.50347509578E+03  0.65787291831E+03  0.40000000000E+03 0. -1.
<mgrwt>
<rscale>  2 0.42344965E+03</rscale>
<asrwt>0</asrwt>
<pdfrwt beam="1">  1       21 0.10546307E+00 0.42344965E+03</pdfrwt>
<pdfrwt beam="2">  1       21 0.77660699E-01 0.42344965E+03</pdfrwt>
<totfact> 0.91181875E+02</totfact>
</mgrwt>
</event>
<event>
 4    1  0.4676529E-002  0.4572476E+03  0.7818608E-02  0.1025583E+00
         21   -1    0    0  501  502  0.00000000000E+00  0.00000000000E+00  0.46395048541E+03  0.46395048541E+03  0.00000000000E+00 0.  1.
         21   -1    0    0  502  503 -0.00000000000E+00 -0.00000000000E+00 -0.52287276335E+03  0.52287276335E+03  0.00000000000E+00 0.  1.
    9000007    1    1    2  501    0 -0.51256119176E+02 -0.21551829409E+03  0.15392820121E+03  0.48246162124E+03  0.40000000000E+03 0.  1.
   -9000007    1    1    2    0  503  0.51256119176E+02  0.21551829409E+03 -0.21285047916E+03  0.50436162752E+03  0.40000000000E+03 0.  1.
<mgrwt>
<rscale>  2 0.45724755E+03</rscale>
<asrwt>0</asrwt>
<pdfrwt beam="1">  1       21 0.71376998E-01 0.45724755E+03</pdfrwt>
<pdfrwt beam="2">  1       21 0.80441963E-01 0.45724755E+03</pdfrwt>
<totfact> 0.20778682E+03</totfact>
</mgrwt>
</event>
<event>
 4    1  0.4676529E-002  0.4760924E+03  0.7818608E-02  0.1020215E+00
         21   -1    0    0  501  502  0.00000000000E+00  0.00000000000E+00  0.21464592343E+03  0.21464592343E+03  0.00000000000E+00 0. -1.
         21   -1    0    0  502  503 -0.00000000000E+00 -0.00000000000E+00 -0.14240630343E+04  0.14240630343E+04  0.00000000000E+00 0. -1.
    9000007    1    1    2  501    0  0.93921762140E+02  0.24050507733E+03 -0.18815186555E+03  0.51192295723E+03  0.40000000000E+03 0. -1.
   -9000007    1    1    2    0  503 -0.93921762140E+02 -0.24050507733E+03 -0.10212652453E+04  0.11267860005E+04  0.40000000000E+03 0. -1.
<mgrwt>
<rscale>  2 0.47609242E+03</rscale>
<asrwt>0</asrwt>
<pdfrwt beam="1">  1       21 0.33022451E-01 0.47609242E+03</pdfrwt>
<pdfrwt beam="2">  1       21 0.21908662E+00 0.47609242E+03</pdfrwt>
<totfact> 0.73311207E+02</totfact>
</mgrwt>
</event>
<event>
 4    1  0.4676529E-002  0.4434244E+03  0.7818608E-02  0.1029701E+00
         21   -1    0    0  501  502  0.00000000000E+00  0.00000000000E+00  0.57582562138E+03  0.57582562138E+03  0.00000000000E+00 0.  1.
         21   -1    0    0  502  503 -0.00000000000E+00 -0.00000000000E+00 -0.35200824144E+03  0.35200824144E+03  0.00000000000E+00 0.  1.
    9000007    1    1    2  501    0 -0.12334122690E+03 -0.14632902512E+03  0.31626900706E+02  0.44455090000E+03  0.40000000000E+03 0. -1.
   -9000007    1    1    2    0  503  0.12334122690E+03  0.14632902512E+03  0.19219047923E+03  0.48328296282E+03  0.40000000000E+03 0. -1.
<mgrwt>
<rscale>  2 0.44342445E+03</rscale>
<asrwt>0</asrwt>
<pdfrwt beam="1">  1       21 0.88588557E-01 0.44342445E+03</pdfrwt>
<pdfrwt beam="2">  1       21 0.54155114E-01 0.44342445E+03</pdfrwt>
<totfact> 0.30648253E+03</totfact>
</mgrwt>
</event>
<event>
 4    1  0.4676529E-002  0.4104861E+03  0.7818608E-02  0.1040208E+00
         21   -1    0    0  501  502  0.00000000000E+00  0.00000000000E+00  0.25787828103E+03  0.25787828103E+03  0.00000000000E+00 0. -1.
         21   -1    0    0  502  503 -0.00000000000E+00 -0.00000000000E+00 -0.96300968827E+03  0.96300968827E+03  0.00000000000E+00 0. -1.
    9000007    1    1    2  501    0  0.54209945597E+02  0.74566027445E+02 -0.64393589513E+01  0.41053657084E+03  0.40000000000E+03 0. -1.
   -9000007    1    1    2    0  503 -0.54209945597E+02 -0.74566027445E+02 -0.69869204829E+03  0.81035139846E+03  0.40000000000E+03 0. -1.
<mgrwt>
<rscale>  2 0.41048607E+03</rscale>
<asrwt>0</asrwt>
<pdfrwt beam="1">  1       21 0.39673581E-01 0.41048607E+03</pdfrwt>
<pdfrwt beam="2">  1       21 0.14815534E+00 0.41048607E+03</pdfrwt>
<totfact> 0.16400364E+03</totfact>
</mgrwt>
</event>
<event>
 4    1  0.4676529E-002  0.4322170E+03  0.7818608E-02  0.1033162E+00
         21   -1    0    0  501  502  0.00000000000E+00  0.00000000000E+00  0.25751249220E+03  0.25751249220E+03  0.00000000000E+00 0. -1.
         21   -1    0    0  502  503 -0.00000000000E+00 -0.00000000000E+00 -0.74412201167E+03  0.74412201167E+03  0.00000000000E+00 0. -1.
    9000007    1    1    2  501    0  0.66045707615E+02 -0.14983148387E+03 -0.32264521431E+03  0.53936207076E+03  0.40000000000E+03 0.  1.
   -9000007    1    1    2    0  503 -0.66045707615E+02  0.14983148387E+03 -0.16396430516E+03  0.46227243312E+03  0.40000000000E+03 0.  1.
<mgrwt>
<rscale>  2 0.43221697E+03</rscale>
<asrwt>0</asrwt>
<pdfrwt beam="1">  1       21 0.39617307E-01 0.43221697E+03</pdfrwt>
<pdfrwt beam="2">  1       21 0.11448031E+00 0.43221697E+03</pdfrwt>
<totfact> 0.31841330E+03</totfact>
</mgrwt>
</event>
<event>
 4    1  0.4676529E-002  0.4140073E+03  0.7818608E-02  0.1039035E+00
         21   -1    0    0  503  502  0.00000000000E+00  0.00000000000E+00  0.18773543565E+04  0.18773543565E+04  0.00000000000E+00 0. -1.
         21   -1    0    0  501  503 -0.00000000000E+00 -0.00000000000E+00 -0.16982169115E+03  0.16982169115E+03  0.00000000000E+00 0. -1.
    9000007    1    1    2  501    0 -0.96737702592E+02  0.45208897617E+02  0.15774257492E+03  0.44304034519E+03  0.40000000000E+03 0. -1.
   -9000007    1    1    2    0  502  0.96737702592E+02 -0.45208897617E+02  0.15497900904E+04  0.16041357025E+04  0.40000000000E+03 0. -1.
<mgrwt>
<rscale>  2 0.41400728E+03</rscale>
<asrwt>0</asrwt>
<pdfrwt beam="1">  1       21 0.28882373E+00 0.41400728E+03</pdfrwt>
<pdfrwt beam="2">  1       21 0.26126415E-01 0.41400728E+03</pdfrwt>
<totfact> 0.44928065E+02</totfact>
</mgrwt>
</event>
<event>
 4    1  0.4676529E-002  0.4015028E+03  0.7818608E-02  0.1043261E+00
         21   -1    0    0  501  502  0.00000000000E+00  0.00000000000E+00  0.12781696142E+04  0.12781696142E+04  0.00000000000E+00 0. -1.
         21   -1    0    0  502  503 -0.00000000000E+00 -0.00000000000E+00 -0.12690967787E+03  0.12690967787E+03  0.00000000000E+00 0. -1.
    9000007    1    1    2  501    0  0.24112305971E+02 -0.24962473360E+02  0.52026106856E+03  0.65717281428E+03  0.40000000000E+03 0. -1.
   -9000007    1    1    2    0  503 -0.24112305971E+02  0.24962473360E+02  0.63099886778E+03  0.74790647778E+03  0.40000000000E+03 0. -1.
<mgrwt>
<rscale>  2 0.40150284E+03</rscale>
<asrwt>0</asrwt>
<pdfrwt beam="1">  1       21 0.19664147E+00 0.40150284E+03</pdfrwt>
<pdfrwt beam="2">  1       21 0.19524567E-01 0.40150284E+03</pdfrwt>
<totfact> 0.29655589E+03</totfact>
</mgrwt>
</event>
<event>
 4    1  0.4676529E-002  0.4422895E+03  0.7818608E-02  0.1030047E+00
         21   -1    0    0  503  502  0.00000000000E+00  0.00000000000E+00  0.13632358522E+04  0.13632358522E+04  0.00000000000E+00 0. -1.
         21   -1    0    0  501  503 -0.00000000000E+00 -0.00000000000E+00 -0.14377247409E+03  0.14377247409E+03  0.00000000000E+00 0.  1.
    9000007    1    1    2  501    0 -0.16319580696E+02 -0.18802576927E+03  0.57673845813E+03  0.72680621056E+03  0.40000000000E+03 0. -1.
   -9000007    1    1    2    0  502  0.16319580696E+02  0.18802576927E+03  0.64272492000E+03  0.78020211574E+03  0.40000000000E+03 0.  1.
<mgrwt>
<rscale>  2 0.44228952E+03</rscale>
<asrwt>0</asrwt>
<pdfrwt beam="1">  1       21 0.20972858E+00 0.44228952E+03</pdfrwt>
<pdfrwt beam="2">  1       21 0.22118843E-01 0.44228952E+03</pdfrwt>
<totfact> 0.18808706E+03</totfact>
</mgrwt>
</event>
<event>
 4    1  0.4676529E-002  0.4047329E+03  0.7818608E-02  0.1042153E+00
         21   -1    0    0  501  502  0.00000000000E+00  0.00000000000E+00  0.10695253373E+04  0.10695253373E+04  0.00000000000E+00 0.  1.
         21   -1    0    0  502  503 -0.00000000000E+00 -0.00000000000E+00 -0.15765953648E+03  0.15765953648E+03  0.00000000000E+00 0.  1.
    9000007    1    1    2  501    0 -0.44256757440E+01 -0.61555662478E+02  0.55958912631E+03  0.69061470914E+03  0.40000000000E+03 0. -1.
   -9000007    1    1    2    0  503  0.44256757440E+01  0.61555662478E+02  0.35227667455E+03  0.53657016468E+03  0.40000000000E+03 0. -1.
<mgrwt>
<rscale>  2 0.40473286E+03</rscale>
<asrwt>0</asrwt>
<pdfrwt beam="1">  1       21 0.16454235E+00 0.40473286E+03</pdfrwt>
<pdfrwt beam="2">  1       21 0.24255314E-01 0.40473286E+03</pdfrwt>
<totfact> 0.32831673E+03</totfact>
</mgrwt>
</event>
<event>
 4    1  0.4676529E-002  0.4738093E+03  0.7818608E-02  0.1020851E+00
         21   -1    0    0  501  502  0.00000000000E+00  0.00000000000E+00  0.14964561037E+04  0.14964561037E+04  0.00000000000E+00 0.  1.
         21   -1    0    0  502  503 -0.00000000000E+00 -0.00000000000E+00 -0.28278986211E+03  0.28278986211E+03  0.00000000000E+00 0.  1.
    9000007    1    1    2  501    0  0.89194708745E+02 -0.23778039924E+03  0.12164082640E+04  0.13054287721E+04  0.40000000000E+03 0.  1.
   -9000007    1    1    2    0  503 -0.89194708745E+02  0.23778039924E+03 -0.27420224464E+01  0.47381719367E+03  0.40000000000E+03 0.  1.
<mgrwt>
<rscale>  2 0.47380926E+03</rscale>
<asrwt>0</asrwt>
<pdfrwt beam="1">  1       21 0.23022401E+00 0.47380926E+03</pdfrwt>
<pdfrwt beam="2">  1       21 0.43506134E-01 0.47380926E+03</pdfrwt>
<totfact> 0.35449092E+02</totfact>
</mgrwt>
</event>
<event>
 4    1  0.4676529E-002  0.4374140E+03  0.7818608E-02  0.1031543E+00
         21   -1    0    0  501  502  0.00000000000E+00  0.00000000000E+00  0.20677217658E+04  0.20677217658E+04  0.00000000000E+00 0. -1.
         21   -1    0    0  502  503 -0.00000000000E+00 -0.00000000000E+00 -0.39278042009E+03  0.39278042009E+03  0.00000000000E+00 0.  1.
    9000007    1    1    2  501    0 -0.17173306202E+03  0.42880837702E+02  0.19130910145E+04  0.19624597424E+04  0.40000000000E+03 0. -1.
   -9000007    1    1    2    0  503  0.17173306202E+03 -0.42880837702E+02 -0.23814966874E+03  0.49804244353E+03  0.40000000000E+03 0.  1.
<mgrwt>
<rscale>  2 0.43741400E+03</rscale>
<asrwt>0</asrwt>
<pdfrwt beam="1">  1       21 0.31811103E+00 0.43741400E+03</pdfrwt>
<pdfrwt beam="2">  1       21 0.60427758E-01 0.43741400E+03</pdfrwt>
<totfact> 0.52417144E+01</totfact>
</mgrwt>
</event>
<event>
 4    1  0.4676529E-002  0.6029407E+03  0.7818608E-02  0.9899324E-01
         21   -1    0    0  501  502  0.00000000000E+00  0.00000000000E+00  0.80286960230E+03  0.80286960230E+03  0.00000000000E+00 0.  1.
         21   -1    0    0  502  503 -0.00000000000E+00 -0.00000000000E+00 -0.11714572371E+04  0.11714572371E+04  0.00000000000E+00 0. -1.
    9000007    1    1    2  501    0  0.27879785676E+03  0.35469597233E+03  0.58889834394E+03  0.84281595691E+03  0.40000000000E+03 0.  1.
   -9000007    1    1    2    0  503 -0.27879785676E+03 -0.35469597233E+03 -0.95748597872E+03  0.11315108825E+04  0.40000000000E+03 0. -1.
<mgrwt>
<rscale>  2 0.60294069E+03</rscale>
<asrwt>0</asrwt>
<pdfrwt beam="1">  1       21 0.12351840E+00 0.60294069E+03</pdfrwt>
<pdfrwt beam="2">  1       21 0.18022419E+00 0.60294069E+03</pdfrwt>
<totfact> 0.65373604E+01</totfact>
</mgrwt>
</event>
<event>
 4    1  0.4676529E-002  0.5274269E+03  0.7818608E-02  0.1006858E+00
         21   -1    0    0  503  502  0.00000000000E+00  0.00000000000E+00  0.27112101632E+03  0.27112101632E+03  0.00000000000E+00 0. -1.
         21   -1    0    0  501  503 -0.00000000000E+00 -0.00000000000E+00 -0.19794236229E+04  0.19794236229E+04  0.00000000000E+00 0. -1.
    9000007    1    1    2  501    0 -0.88441546957E+01 -0.34365816897E+03 -0.73200527905E+02  0.53248236915E+03  0.40000000000E+03 0. -1.
   -9000007    1    1    2    0  502  0.88441546957E+01  0.34365816897E+03 -0.16351020786E+04  0.17180622700E+04  0.40000000000E+03 0. -1.
<mgrwt>
<rscale>  2 0.52742692E+03</rscale>
<asrwt>0</asrwt>
<pdfrwt beam="1">  1       21 0.41710925E-01 0.52742692E+03</pdfrwt>
<pdfrwt beam="2">  1       21 0.30452671E+00 0.52742692E+03</pdfrwt>
<totfact> 0.13208846E+02</totfact>
</mgrwt>
</event>
<event>
 4    1  0.4676529E-002  0.4302701E+03  0.7818608E-02  0.1033775E+00
         21   -1    0    0  501  502  0.00000000000E+00  0.00000000000E+00  0.14498408456E+04  0.14498408456E+04  0.00000000000E+00 0. -1.
         21   -1    0    0  502  503 -0.00000000000E+00 -0.00000000000E+00 -0.72312772721E+03  0.72312772721E+03  0.00000000000E+00 0.  1.
    9000007    1    1    2  501    0 -0.11157016367E+03  0.11262529132E+03  0.13492581521E+04  0.14162026404E+04  0.40000000000E+03 0. -1.
   -9000007    1    1    2    0  503  0.11157016367E+03 -0.11262529132E+03 -0.62254503363E+03  0.75676593248E+03  0.40000000000E+03 0.  1.
<mgrwt>
<rscale>  2 0.43027010E+03</rscale>
<asrwt>0</asrwt>
<pdfrwt beam="1">  1       21 0.22305244E+00 0.43027010E+03</pdfrwt>
<pdfrwt beam="2">  1       21 0.11125042E+00 0.43027010E+03</pdfrwt>
<totfact> 0.48243134E+01</totfact>
</mgrwt>
</event>
<event>
 4    1  0.4676529E-002  0.4092938E+03  0.7818608E-02  0.1040608E+00
         21   -1    0    0  503  502  0.00000000000E+00  0.00000000000E+00  0.41394378258E+03  0.41394378258E+03  0.00000000000E+00 0. -1.
         21   -1    0    0  501  503 -0.00000000000E+00 -0.00000000000E+00 -0.65369799428E+03  0.65369799428E+03  0.00000000000E+00 0. -1.
    9000007    1    1    2  501    0 -0.51053684240E+01 -0.86575662602E+02 -0.44934140727E+03  0.60780680354E+03  0.40000000000E+03 0.  1.
   -9000007    1    1    2    0  502  0.51053684240E+01  0.86575662602E+02  0.20958719557E+03  0.45983497332E+03  0.40000000000E+03 0.  1.
<mgrwt>
<rscale>  2 0.40929379E+03</rscale>
<asrwt>0</asrwt>
<pdfrwt beam="1">  1       21 0.63683659E-01 0.40929379E+03</pdfrwt>
<pdfrwt beam="2">  1       21 0.10056892E+00 0.40929379E+03</pdfrwt>
<totfact> 0.16106005E+03</totfact>
</mgrwt>
</event>
<event>
 4    1  0.4676529E-002  0.4389139E+03  0.7818608E-02  0.1031081E+00
         21   -1    0    0  503  502  0.00000000000E+00  0.00000000000E+00  0.78940565084E+03  0.78940565084E+03  0.00000000000E+00 0. -1.
         21   -1    0    0  501  503 -0.00000000000E+00 -0.00000000000E+00 -0.28668794220E+03  0.28668794220E+03  0.00000000000E+00 0. -1.
    9000007    1    1    2  501    0  0.69355052028E+02  0.16683909949E+03  0.43833209197E+02  0.44109722124E+03  0.40000000000E+03 0. -1.
   -9000007    1    1    2    0  502 -0.69355052028E+02 -0.16683909949E+03  0.45888449944E+03  0.63499637179E+03  0.40000000000E+03 0. -1.
<mgrwt>
<rscale>  2 0.43891390E+03</rscale>
<asrwt>0</asrwt>
<pdfrwt beam="1">  1       21 0.12144702E+00 0.43891390E+03</pdfrwt>
<pdfrwt beam="2">  1       21 0.44105838E-01 0.43891390E+03</pdfrwt>
<totfact> 0.21908319E+03</totfact>
</mgrwt>
</event>
<event>
 4    1  0.4676529E-002  0.4287573E+03  0.7818608E-02  0.1034253E+00
         21   -1    0    0  501  502  0.00000000000E+00  0.00000000000E+00  0.57704653958E+03  0.57704653958E+03  0.00000000000E+00 0.  1.
         21   -1    0    0  502  503 -0.00000000000E+00 -0.00000000000E+00 -0.43470670903E+03  0.43470670903E+03  0.00000000000E+00 0.  1.
    9000007    1    1    2  501    0  0.78676545958E+02  0.13282631190E+03  0.33263946234E+03  0.54266180990E+03  0.40000000000E+03 0.  1.
   -9000007    1    1    2    0  503 -0.78676545958E+02 -0.13282631190E+03 -0.19029963179E+03  0.46909143871E+03  0.40000000000E+03 0.  1.
<mgrwt>
<rscale>  2 0.42875731E+03</rscale>
<asrwt>0</asrwt>
<pdfrwt beam="1">  1       21 0.88776391E-01 0.42875731E+03</pdfrwt>
<pdfrwt beam="2">  1       21 0.66877955E-01 0.42875731E+03</pdfrwt>
<totfact> 0.19311412E+03</totfact>
</mgrwt>
</event>
<event>
 4    1  0.4676529E-002  0.6264023E+03  0.7818608E-02  0.9852095E-01
         21   -1    0    0  501  502  0.00000000000E+00  0.00000000000E+00  0.10751728287E+04  0.10751728287E+04  0.00000000000E+00 0.  1.
         21   -1    0    0  502  503 -0.00000000000E+00 -0.00000000000E+00 -0.38745534534E+03  0.38745534534E+03  0.00000000000E+00 0. -1.
    9000007    1    1    2  501    0  0.42921976156E+03  0.21943174052E+03  0.52012765025E+03  0.81419448844E+03  0.40000000000E+03 0. -1.
   -9000007    1    1    2    0  503 -0.42921976156E+03 -0.21943174052E+03  0.16758983312E+03  0.64843368560E+03  0.40000000000E+03 0. -1.
<mgrwt>
<rscale>  2 0.62640234E+03</rscale>
<asrwt>0</asrwt>
<pdfrwt beam="1">  1       21 0.16541120E+00 0.62640234E+03</pdfrwt>
<pdfrwt beam="2">  1       21 0.59608515E-01 0.62640234E+03</pdfrwt>
<totfact> 0.46829703E+02</totfact>
</mgrwt>
</event>
<event>
 4    1  0.4676529E-002  0.4609726E+03  0.7818608E-02  0.1024500E+00
         21   -1    0    0  501  502  0.00000000000E+00  0.00000000000E+00  0.38484962073E+03  0.38484962073E+03  0.00000000000E+00 0. -1.
         21   -1    0    0  502  503 -0.00000000000E+00 -0.00000000000E+00 -0.58234024177E+03  0.58234024177E+03  0.00000000000E+00 0.  1.
    9000007    1    1    2  501    0  0.39503068656E+02  0.22568829438E+03 -0.20885063153E+03  0.50607735075E+03  0.40000000000E+03 0.  1.
   -9000007    1    1    2    0  503 -0.39503068656E+02 -0.22568829438E+03  0.11360010482E+02  0.46111251175E+03  0.40000000000E+03 0. -1.
<mgrwt>
<rscale>  2 0.46097256E+03</rscale>
<asrwt>0</asrwt>
<pdfrwt beam="1">  1       21 0.59207634E-01 0.46097256E+03</pdfrwt>
<pdfrwt beam="2">  1       21 0.89590806E-01 0.46097256E+03</pdfrwt>
<totfact> 0.24438027E+03</totfact>
</mgrwt>
</event>
<event>
 4    1  0.4676529E-002  0.4288102E+03  0.7818608E-02  0.1034236E+00
         21   -1    0    0  501  502  0.00000000000E+00  0.00000000000E+00  0.99084864453E+03  0.99084864453E+03  0.00000000000E+00 0. -1.
         21   -1    0    0  502  503 -0.00000000000E+00 -0.00000000000E+00 -0.24039287064E+03  0.24039287064E+03  0.00000000000E+00 0.  1.
    9000007    1    1    2  501    0  0.32062534003E+02 -0.15116265274E+03  0.66920118260E+03  0.79480084076E+03  0.40000000000E+03 0. -1.
   -9000007    1    1    2    0  503 -0.32062534003E+02  0.15116265274E+03  0.81254591287E+02  0.43644067441E+03  0.40000000000E+03 0.  1.
<mgrwt>
<rscale>  2 0.42881016E+03</rscale>
<asrwt>0</asrwt>
<pdfrwt beam="1">  1       21 0.15243825E+00 0.42881016E+03</pdfrwt>
<pdfrwt beam="2">  1       21 0.36983519E-01 0.42881016E+03</pdfrwt>
<totfact> 0.17386475E+03</totfact>
</mgrwt>
</event>
<event>
 4    1  0.4676529E-002  0.4841262E+03  0.7818608E-02  0.1018007E+00
         21   -1    0    0  501  502  0.00000000000E+00  0.00000000000E+00  0.42046294547E+03  0.42046294547E+03  0.00000000000E+00 0.  1.
         21   -1    0    0  502  503 -0.00000000000E+00 -0.00000000000E+00 -0.56475879871E+03  0.56475879871E+03  0.00000000000E+00 0. -1.
    9000007    1    1    2  501    0 -0.16241270470E+03  0.21908974746E+03 -0.16027496663E+02  0.48439145816E+03  0.40000000000E+03 0.  1.
   -9000007    1    1    2    0  503  0.16241270470E+03 -0.21908974746E+03 -0.12826835658E+03  0.50083028601E+03  0.40000000000E+03 0.  1.
<mgrwt>
<rscale>  2 0.48412623E+03</rscale>
<asrwt>0</asrwt>
<pdfrwt beam="1">  1       21 0.64686607E-01 0.48412623E+03</pdfrwt>
<pdfrwt beam="2">  1       21 0.86885970E-01 0.48412623E+03</pdfrwt>
<totfact> 0.21437409E+03</totfact>
</mgrwt>
</event>
<event>
 4    1  0.4676529E-002  0.5319729E+03  0.7818608E-02  0.1005755E+00
         21   -1    0    0  501  502  0.00000000000E+00  0.00000000000E+00  0.27699787401E+03  0.27699787401E+03  0.00000000000E+00 0. -1.
         21   -1    0    0  502  503 -0.00000000000E+00 -0.00000000000E+00 -0.10216608397E+04  0.10216608397E+04  0.00000000000E+00 0. -1.
    9000007    1    1    2  501    0  0.33270947296E+03  0.11090363599E+03 -0.37033675236E+03  0.64818555987E+03  0.40000000000E+03 0. -1.
   -9000007    1    1    2    0  503 -0.33270947296E+03 -0.11090363599E+03 -0.37432621332E+03  0.65047315383E+03  0.40000000000E+03 0. -1.
<mgrwt>
<rscale>  2 0.53197294E+03</rscale>
<asrwt>0</asrwt>
<pdfrwt beam="1">  1       21 0.42615057E-01 0.53197294E+03</pdfrwt>
<pdfrwt beam="2">  1       21 0.15717859E+00 0.53197294E+03</pdfrwt>
<totfact> 0.11464406E+03</totfact>
</mgrwt>
</event>
<event>
 4    1  0.4676529E-002  0.5380655E+03  0.7818608E-02  0.1004295E+00
         21   -1    0    0  501  502  0.00000000000E+00  0.00000000000E+00  0.11558093849E+04  0.11558093849E+04  0.00000000000E+00 0. -1.
         21   -1    0    0  502  503 -0.00000000000E+00 -0.00000000000E+00 -0.26946646673E+03  0.26946646673E+03  0.00000000000E+00 0.  1.
    9000007    1    1    2  501    0 -0.34679948468E+03  0.96148845545E+02  0.25403906576E+03  0.59502128534E+03  0.40000000000E+03 0. -1.
   -9000007    1    1    2    0  503  0.34679948468E+03 -0.96148845545E+02  0.63230385241E+03  0.83025456629E+03  0.40000000000E+03 0. -1.
<mgrwt>
<rscale>  2 0.53806550E+03</rscale>
<asrwt>0</asrwt>
<pdfrwt beam="1">  1       21 0.17781683E+00 0.53806550E+03</pdfrwt>
<pdfrwt beam="2">  1       21 0.41456380E-01 0.53806550E+03</pdfrwt>
<totfact> 0.85227412E+02</totfact>
</mgrwt>
</event>
<event>
 4    1  0.4676529E-002  0.4035081E+03  0.7818608E-02  0.1042572E+00
         21   -1    0    0  503  502  0.00000000000E+00  0.00000000000E+00  0.88606003680E+03  0.88606003680E+03  0.00000000000E+00 0. -1.
         21   -1    0    0  501  503 -0.00000000000E+00 -0.00000000000E+00 -0.18511698661E+03  0.18511698661E+03  0.00000000000E+00 0. -1.
    9000007    1    1    2  501    0 -0.51556215626E+02  0.12676982500E+02  0.30454613587E+03  0.50553644590E+03  0.40000000000E+03 0. -1.
   -9000007    1    1    2    0  502  0.51556215626E+02 -0.12676982500E+02  0.39639691431E+03  0.56564057751E+03  0.40000000000E+03 0. -1.
<mgrwt>
<rscale>  2 0.40350805E+03</rscale>
<asrwt>0</asrwt>
<pdfrwt beam="1">  1       21 0.13631693E+00 0.40350805E+03</pdfrwt>
<pdfrwt beam="2">  1       21 0.28479537E-01 0.40350805E+03</pdfrwt>
<totfact> 0.39987002E+03</totfact>
</mgrwt>
</event>
<event>
 4    1  0.4676529E-002  0.4229927E+03  0.7818608E-02  0.1036097E+00
         21   -1    0    0  501  502  0.00000000000E+00  0.00000000000E+00  0.17186121828E+03  0.17186121828E+03  0.00000000000E+00 0. -1.
         21   -1    0    0  502  503 -0.00000000000E+00 -0.00000000000E+00 -0.34576642198E+04  0.34576642198E+04  0.00000000000E+00 0. -1.
    9000007    1    1    2  501    0 -0.54799428843E+02  0.12617386314E+03 -0.12575122168E+03  0.44128923723E+03  0.40000000000E+03 0. -1.
   -9000007    1    1    2    0  503  0.54799428843E+02 -0.12617386314E+03 -0.31600517799E+04  0.31882362009E+04  0.40000000000E+03 0. -1.
<mgrwt>
<rscale>  2 0.42299270E+03</rscale>
<asrwt>0</asrwt>
<pdfrwt beam="1">  1       21 0.26440186E-01 0.42299270E+03</pdfrwt>
<pdfrwt beam="2">  1       21 0.53194836E+00 0.42299270E+03</pdfrwt>
<totfact> 0.11233966E+01</totfact>
</mgrwt>
</event>
<event>
 4    1  0.4676529E-002  0.4613416E+03  0.7818608E-02  0.1024393E+00
         21   -1    0    0  503  502  0.00000000000E+00  0.00000000000E+00  0.61754440385E+03  0.61754440385E+03  0.00000000000E+00 0.  1.
         21   -1    0    0  501  503 -0.00000000000E+00 -0.00000000000E+00 -0.41835503298E+03  0.41835503298E+03  0.00000000000E+00 0.  1.
    9000007    1    1    2  501    0  0.12926188682E+03  0.19007215569E+03  0.31699823368E+03  0.55975346351E+03  0.40000000000E+03 0.  1.
   -9000007    1    1    2    0  502 -0.12926188682E+03 -0.19007215569E+03 -0.11780886280E+03  0.47614597332E+03  0.40000000000E+03 0.  1.
<mgrwt>
<rscale>  2 0.46134159E+03</rscale>
<asrwt>0</asrwt>
<pdfrwt beam="1">  1       21 0.95006832E-01 0.46134159E+03</pdfrwt>
<pdfrwt beam="2">  1       21 0.64362312E-01 0.46134159E+03</pdfrwt>
<totfact> 0.17675395E+03</totfact>
</mgrwt>
</event>
<event>
 4    1  0.4676529E-002  0.5919410E+03  0.7818608E-02  0.9922268E-01
         21   -1    0    0  501  502  0.00000000000E+00  0.00000000000E+00  0.16624069005E+03  0.16624069005E+03  0.00000000000E+00 0.  1.
         21   -1    0    0  502  503 -0.00000000000E+00 -0.00000000000E+00 -0.21657804814E+04  0.21657804814E+04  0.00000000000E+00 0. -1.
    9000007    1    1    2  501    0 -0.24521575877E+03 -0.36092017258E+03 -0.80890939917E+03  0.10023614894E+04  0.40000000000E+03 0.  1.
   -9000007    1    1    2    0  503  0.24521575877E+03  0.36092017258E+03 -0.11906303922E+04  0.13296596821E+04  0.40000000000E+03 0. -1.
<mgrwt>
<rscale>  2 0.59194099E+03</rscale>
<asrwt>0</asrwt>
<pdfrwt beam="1">  1       21 0.25575493E-01 0.59194099E+03</pdfrwt>
<pdfrwt beam="2">  1       21 0.33319697E+00 0.59194099E+03</pdfrwt>
<totfact> 0.22943461E+02</totfact>
</mgrwt>
</event>
<event>
 4    1  0.4676529E-002  0.4224466E+03  0.7818608E-02  0.1036273E+00
         21   -1    0    0  503  502  0.00000000000E+00  0.00000000000E+00  0.70168070163E+03  0.70168070163E+03  0.00000000000E+00 0.  1.
         21   -1    0    0  501  503 -0.00000000000E+00 -0.00000000000E+00 -0.13585342336E+04  0.13585342336E+04  0.00000000000E+00 0. -1.
    9000007    1    1    2  501    0  0.98249999597E+02  0.93851474586E+02 -0.12571176594E+04  0.13261998233E+04  0.40000000000E+03 0. -1.
   -9000007    1    1    2    0  502 -0.98249999597E+02 -0.93851474586E+02  0.60026412750E+03  0.73401511188E+03  0.40000000000E+03 0.  1.
<mgrwt>
<rscale>  2 0.42244664E+03</rscale>
<asrwt>0</asrwt>
<pdfrwt beam="1">  1       21 0.10795088E+00 0.42244664E+03</pdfrwt>
<pdfrwt beam="2">  1       21 0.20900527E+00 0.42244664E+03</pdfrwt>
<totfact> 0.64320673E+01</totfact>
</mgrwt>
</event>
<event>
 4    1  0.4676529E-002  0.4174329E+03  0.7818608E-02  0.1037905E+00
         21   -1    0    0  501  502  0.00000000000E+00  0.00000000000E+00  0.76729069864E+03  0.76729069864E+03  0.00000000000E+00 0.  1.
         21   -1    0    0  502  503 -0.00000000000E+00 -0.00000000000E+00 -0.22815707665E+03  0.22815707665E+03  0.00000000000E+00 0.  1.
    9000007    1    1    2  501    0 -0.14224837838E+02  0.11852371973E+03  0.23565696350E+03  0.47935834466E+03  0.40000000000E+03 0.  1.
   -9000007    1    1    2    0  503  0.14224837838E+02 -0.11852371973E+03  0.30347665849E+03  0.51608943062E+03  0.40000000000E+03 0.  1.
<mgrwt>
<rscale>  2 0.41743289E+03</rscale>
<asrwt>0</asrwt>
<pdfrwt beam="1">  1       21 0.11804472E+00 0.41743289E+03</pdfrwt>
<pdfrwt beam="2">  1       21 0.35101089E-01 0.41743289E+03</pdfrwt>
<totfact> 0.37948287E+03</totfact>
</mgrwt>
</event>
<event>
 4    1  0.4676529E-002  0.4657779E+03  0.7818608E-02  0.1023119E+00
         21   -1    0    0  501  502  0.00000000000E+00  0.00000000000E+00  0.11350011285E+04  0.11350011285E+04  0.00000000000E+00 0.  1.
         21   -1    0    0  502  503 -0.00000000000E+00 -0.00000000000E+00 -0.24272782012E+03  0.24272782012E+03  0.00000000000E+00 0. -1.
    9000007    1    1    2  501    0  0.97586259215E+02  0.21777503129E+03  0.76369923836E+03  0.89453092116E+03  0.40000000000E+03 0.  1.
   -9000007    1    1    2    0  503 -0.97586259215E+02 -0.21777503129E+03  0.12857407000E+03  0.48319802744E+03  0.40000000000E+03 0. -1.
<mgrwt>
<rscale>  2 0.46577789E+03</rscale>
<asrwt>0</asrwt>
<pdfrwt beam="1">  1       21 0.17461555E+00 0.46577789E+03</pdfrwt>
<pdfrwt beam="2">  1       21 0.37342742E-01 0.46577789E+03</pdfrwt>
<totfact> 0.11466451E+03</totfact>
</mgrwt>
</event>
<event>
 4    1  0.4676529E-002  0.4646786E+03  0.7818608E-02  0.1023433E+00
         21   -1    0    0  501  502  0.00000000000E+00  0.00000000000E+00  0.33012302284E+03  0.33012302284E+03  0.00000000000E+00 0.  1.
         21   -1    0    0  502  503 -0.00000000000E+00 -0.00000000000E+00 -0.13804119714E+04  0.13804119714E+04  0.00000000000E+00 0.  1.
    9000007    1    1    2  501    0 -0.19389397386E+03 -0.13539330172E+03  0.95246936278E+02  0.47433974967E+03  0.40000000000E+03 0.  1.
   -9000007    1    1    2    0  503  0.19389397386E+03  0.13539330172E+03 -0.11455358849E+04  0.12361952446E+04  0.40000000000E+03 0.  1.
<mgrwt>
<rscale>  2 0.46467862E+03</rscale>
<asrwt>0</asrwt>
<pdfrwt beam="1">  1       21 0.50788157E-01 0.46467862E+03</pdfrwt>
<pdfrwt beam="2">  1       21 0.21237107E+00 0.46467862E+03</pdfrwt>
<totfact> 0.33417225E+02</totfact>
</mgrwt>
</event>
<event>
 4    1  0.4676529E-002  0.4415182E+03  0.7818608E-02  0.1030282E+00
         21   -1    0    0  501  502  0.00000000000E+00  0.00000000000E+00  0.90347883309E+03  0.90347883309E+03  0.00000000000E+00 0. -1.
         21   -1    0    0  502  503 -0.00000000000E+00 -0.00000000000E+00 -0.27497848668E+03  0.27497848668E+03  0.00000000000E+00 0.  1.
    9000007    1    1    2  501    0 -0.16841067301E+03 -0.81093765736E+02  0.58768126268E+03  0.73505620202E+03  0.40000000000E+03 0. -1.
   -9000007    1    1    2    0  503  0.16841067301E+03  0.81093765736E+02  0.40819083728E+02  0.44340111775E+03  0.40000000000E+03 0.  1.
<mgrwt>
<rscale>  2 0.44151824E+03</rscale>
<asrwt>0</asrwt>
<pdfrwt beam="1">  1       21 0.13899674E+00 0.44151824E+03</pdfrwt>
<pdfrwt beam="2">  1       21 0.42304383E-01 0.44151824E+03</pdfrwt>
<totfact> 0.16816226E+03</totfact>
</mgrwt>
</event>
<event>
 4    1  0.4676529E-002  0.5757253E+03  0.7818608E-02  0.9957089E-01
         21   -1    0    0  501  502  0.00000000000E+00  0.00000000000E+00  0.13023807442E+04  0.13023807442E+04  0.00000000000E+00 0.  1.
         21   -1    0    0  502  503 -0.00000000000E+00 -0.00000000000E+00 -0.27688776375E+03  0.27688776375E+03  0.00000000000E+00 0.  1.
    9000007    1    1    2  501    0  0.37243232500E+03 -0.18098015814E+03  0.73726465772E+03  0.93542441163E+03  0.40000000000E+03 0.  1.
   -9000007    1    1    2    0  503 -0.37243232500E+03  0.18098015814E+03  0.28822832272E+03  0.64384409632E+03  0.40000000000E+03 0.  1.
<mgrwt>
<rscale>  2 0.57572533E+03</rscale>
<asrwt>0</asrwt>
<pdfrwt beam="1">  1       21 0.20036626E+00 0.57572533E+03</pdfrwt>
<pdfrwt beam="2">  1       21 0.42598118E-01 0.57572533E+03</pdfrwt>
<totfact> 0.55424928E+02</totfact>
</mgrwt>
</event>
<event>
 4    1  0.4676529E-002  0.4337614E+03  0.7818608E-02  0.1032678E+00
         21   -1    0    0  501  502  0.00000000000E+00  0.00000000000E+00  0.10808440382E+04  0.10808440382E+04  0.00000000000E+00 0.  1.
         21   -1    0    0  502  503 -0.00000000000E+00 -0.00000000000E+00 -0.34176914038E+03  0.34176914038E+03  0.00000000000E+00 0. -1.
    9000007    1    1    2  501    0 -0.47795739072E+02  0.16082455793E+03  0.86778835883E+03  0.97015751651E+03  0.40000000000E+03 0.  1.
   -9000007    1    1    2    0  503  0.47795739072E+02 -0.16082455793E+03 -0.12871346101E+03  0.45245566208E+03  0.40000000000E+03 0. -1.
<mgrwt>
<rscale>  2 0.43376142E+03</rscale>
<asrwt>0</asrwt>
<pdfrwt beam="1">  1       21 0.16628370E+00 0.43376142E+03</pdfrwt>
<pdfrwt beam="2">  1       21 0.52579869E-01 0.43376142E+03</pdfrwt>
<totfact> 0.65385765E+02</totfact>
</mgrwt>
</event>
<event>
 4    1  0.4676529E-002  0.4086661E+03  0.7818608E-02  0.1040820E+00
         21   -1    0    0  503  502  0.00000000000E+00  0.00000000000E+00  0.70998150950E+03  0.70998150950E+03  0.00000000000E+00 0. -1.
         21   -1    0    0  501  503 -0.00000000000E+00 -0.00000000000E+00 -0.23648432564E+03  0.23648432564E+03  0.00000000000E+00 0. -1.
    9000007    1    1    2  501    0 -0.20077387764E+02 -0.81270334658E+02  0.20226455088E+03  0.45598126863E+03  0.40000000000E+03 0.  1.
   -9000007    1    1    2    0  502  0.20077387764E+02  0.81270334658E+02  0.27123263298E+03  0.49048456652E+03  0.40000000000E+03 0.  1.
<mgrwt>
<rscale>  2 0.40866608E+03</rscale>
<asrwt>0</asrwt>
<pdfrwt beam="1">  1       21 0.10922792E+00 0.40866608E+03</pdfrwt>
<pdfrwt beam="2">  1       21 0.36382204E-01 0.40866608E+03</pdfrwt>
<totfact> 0.42956532E+03</totfact>
</mgrwt>
</event>
<event>
 4    1  0.4676529E-002  0.6076592E+03  0.7818608E-02  0.9889642E-01
         21   -1    0    0  501  502  0.00000000000E+00  0.00000000000E+00  0.17806457902E+04  0.17806457902E+04  0.00000000000E+00 0. -1.
         21   -1    0    0  502  503 -0.00000000000E+00 -0.00000000000E+00 -0.74199980298E+03  0.74199980298E+03  0.00000000000E+00 0.  1.
    9000007    1    1    2  501    0  0.89063564492E+02 -0.44868403344E+03  0.15899829985E+04  0.17021444169E+04  0.40000000000E+03 0. -1.
   -9000007    1    1    2    0  503 -0.89063564492E+02  0.44868403344E+03 -0.55133701125E+03  0.82050117633E+03  0.40000000000E+03 0.  1.
<mgrwt>
<rscale>  2 0.60765918E+03</rscale>
<asrwt>0</asrwt>
<pdfrwt beam="1">  1       21 0.27394550E+00 0.60765918E+03</pdfrwt>
<pdfrwt beam="2">  1       21 0.11415382E+00 0.60765918E+03</pdfrwt>
<totfact> 0.19721857E+01</totfact>
</mgrwt>
</event>
<event>
 4    1  0.4676529E-002  0.4012170E+03  0.7818608E-02  0.1043359E+00
         21   -1    0    0  503  502  0.00000000000E+00  0.00000000000E+00  0.44518392625E+03  0.44518392625E+03  0.00000000000E+00 0. -1.
         21   -1    0    0  501  503 -0.00000000000E+00 -0.00000000000E+00 -0.45974902548E+03  0.45974902548E+03  0.00000000000E+00 0. -1.
    9000007    1    1    2  501    0  0.27897425449E+02 -0.14030045600E+02 -0.21634974178E+03  0.45583145931E+03  0.40000000000E+03 0. -1.
   -9000007    1    1    2    0  502 -0.27897425449E+02  0.14030045600E+02  0.20178464256E+03  0.44910149242E+03  0.40000000000E+03 0. -1.
<mgrwt>
<rscale>  2 0.40121703E+03</rscale>
<asrwt>0</asrwt>
<pdfrwt beam="1">  1       21 0.68489835E-01 0.40121703E+03</pdfrwt>
<pdfrwt beam="2">  1       21 0.70730619E-01 0.40121703E+03</pdfrwt>
<totfact> 0.31237749E+03</totfact>
</mgrwt>
</event>
<event>
 4    1  0.4676529E-002  0.4987270E+03  0.7818608E-02  0.1014112E+00
         21   -1    0    0  501  502  0.00000000000E+00  0.00000000000E+00  0.72666398594E+03  0.72666398594E+03  0.00000000000E+00 0. -1.
         21   -1    0    0  502  503 -0.00000000000E+00 -0.00000000000E+00 -0.37781474079E+03  0.37781474079E+03  0.00000000000E+00 0. -1.
    9000007    1    1    2  501    0 -0.16182674466E+03 -0.25008148410E+03  0.34376605378E+03  0.60572579911E+03  0.40000000000E+03 0. -1.
   -9000007    1    1    2    0  503  0.16182674466E+03  0.25008148410E+03  0.50831913668E+01  0.49875292762E+03  0.40000000000E+03 0. -1.
<mgrwt>
<rscale>  2 0.49872702E+03</rscale>
<asrwt>0</asrwt>
<pdfrwt beam="1">  1       21 0.11179446E+00 0.49872702E+03</pdfrwt>
<pdfrwt beam="2">  1       21 0.58125345E-01 0.49872702E+03</pdfrwt>
<totfact> 0.14645154E+03</totfact>
</mgrwt>
</event>
<event>
 4    1  0.4676529E-002  0.7143543E+03  0.7818608E-02  0.9692994E-01
         21   -1    0    0  503  502  0.00000000000E+00  0.00000000000E+00  0.45647265565E+03  0.45647265565E+03  0.00000000000E+00 0.  1.
         21   -1    0    0  501  503 -0.00000000000E+00 -0.00000000000E+00 -0.11322675588E+04  0.11322675588E+04  0.00000000000E+00 0. -1.
    9000007    1    1    2  501    0  0.40170531349E+02  0.59049843963E+03 -0.24849169418E+03  0.75634000348E+03  0.40000000000E+03 0. -1.
   -9000007    1    1    2    0  502 -0.40170531349E+02 -0.59049843963E+03 -0.42730320894E+03  0.83240021093E+03  0.40000000000E+03 0.  1.
<mgrwt>
<rscale>  2 0.71435431E+03</rscale>
<asrwt>0</asrwt>
<pdfrwt beam="1">  1       21 0.70226563E-01 0.71435431E+03</pdfrwt>
<pdfrwt beam="2">  1       21 0.17419501E+00 0.71435431E+03</pdfrwt>
<totfact> 0.27163930E+02</totfact>
</mgrwt>
</event>
<event>
 4    1  0.4676529E-002  0.5246527E+03  0.7818608E-02  0.1007537E+00
         21   -1    0    0  501  502  0.00000000000E+00  0.00000000000E+00  0.42334315993E+03  0.42334315993E+03  0.00000000000E+00 0. -1.
         21   -1    0    0  502  503 -0.00000000000E+00 -0.00000000000E+00 -0.65134523607E+03  0.65134523607E+03  0.00000000000E+00 0.  1.
    9000007    1    1    2  501    0  0.21947706720E+03 -0.25901788945E+03 -0.91532780249E+02  0.53257741216E+03  0.40000000000E+03 0. -1.
   -9000007    1    1    2    0  503 -0.21947706720E+03  0.25901788945E+03 -0.13646929589E+03  0.54211098384E+03  0.40000000000E+03 0.  1.
<mgrwt>
<rscale>  2 0.52465269E+03</rscale>
<asrwt>0</asrwt>
<pdfrwt beam="1">  1       21 0.65129717E-01 0.52465269E+03</pdfrwt>
<pdfrwt beam="2">  1       21 0.10020696E+00 0.52465269E+03</pdfrwt>
<totfact> 0.14800824E+03</totfact>
</mgrwt>
</event>
<event>
 4    1  0.4676529E-002  0.5508335E+03  0.7818608E-02  0.1001301E+00
         21   -1    0    0  503  502  0.00000000000E+00  0.00000000000E+00  0.24582131236E+03  0.24582131236E+03  0.00000000000E+00 0.  1.
         21   -1    0    0  501  503 -0.00000000000E+00 -0.00000000000E+00 -0.13461977665E+04  0.13461977665E+04  0.00000000000E+00 0. -1.
    9000007    1    1    2  501    0  0.22819349024E+03 -0.30223380552E+03 -0.32069376548E+03  0.63738687891E+03  0.40000000000E+03 0. -1.
   -9000007    1    1    2    0  502 -0.22819349024E+03  0.30223380552E+03 -0.77968268864E+03  0.95463219993E+03  0.40000000000E+03 0. -1.
<mgrwt>
<rscale>  2 0.55083350E+03</rscale>
<asrwt>0</asrwt>
<pdfrwt beam="1">  1       21 0.37818663E-01 0.55083350E+03</pdfrwt>
<pdfrwt beam="2">  1       21 0.20710735E+00 0.55083350E+03</pdfrwt>
<totfact> 0.64553385E+02</totfact>
</mgrwt>
</event>
<event>
 4    1  0.4676529E-002  0.6897597E+03  0.7818608E-02  0.9734907E-01
         21   -1    0    0  501  502  0.00000000000E+00  0.00000000000E+00  0.25008906063E+04  0.25008906063E+04  0.00000000000E+00 0. -1.
         21   -1    0    0  502  503 -0.00000000000E+00 -0.00000000000E+00 -0.68147882471E+03  0.68147882471E+03  0.00000000000E+00 0. -1.
    9000007    1    1    2  501    0  0.49649501919E+03 -0.26317505696E+03  0.22606610576E+04  0.23635475100E+04  0.40000000000E+03 0. -1.
   -9000007    1    1    2    0  503 -0.49649501919E+03  0.26317505696E+03 -0.44124927603E+03  0.81882192099E+03  0.40000000000E+03 0. -1.
<mgrwt>
<rscale>  2 0.68975968E+03</rscale>
<asrwt>0</asrwt>
<pdfrwt beam="1">  1       21 0.38475240E+00 0.68975968E+03</pdfrwt>
<pdfrwt beam="2">  1       21 0.10484290E+00 0.68975968E+03</pdfrwt>
<totfact> 0.48199736E+00</totfact>
</mgrwt>
</event>
<event>
 4    1  0.4676529E-002  0.5180081E+03  0.7818608E-02  0.1009183E+00
         21   -1    0    0  501  502  0.00000000000E+00  0.00000000000E+00  0.13498085382E+04  0.13498085382E+04  0.00000000000E+00 0.  1.
         21   -1    0    0  502  503 -0.00000000000E+00 -0.00000000000E+00 -0.34639577965E+03  0.34639577965E+03  0.00000000000E+00 0.  1.
    9000007    1    1    2  501    0 -0.13241641788E+03 -0.30132752922E+03  0.10553231669E+04  0.11756017073E+04  0.40000000000E+03 0.  1.
   -9000007    1    1    2    0  503  0.13241641788E+03  0.30132752922E+03 -0.51910408391E+02  0.52060261053E+03  0.40000000000E+03 0.  1.
<mgrwt>
<rscale>  2 0.51800810E+03</rscale>
<asrwt>0</asrwt>
<pdfrwt beam="1">  1       21 0.20766285E+00 0.51800810E+03</pdfrwt>
<pdfrwt beam="2">  1       21 0.53291659E-01 0.51800810E+03</pdfrwt>
<totfact> 0.31550385E+02</totfact>
</mgrwt>
</event>
<event>
 4    1  0.4676529E-002  0.4656925E+03  0.7818608E-02  0.1023143E+00
         21   -1    0    0  501  502  0.00000000000E+00  0.00000000000E+00  0.43715719043E+03  0.43715719043E+03  0.00000000000E+00 0.  1.
         21   -1    0    0  502  503 -0.00000000000E+00 -0.00000000000E+00 -0.64353905614E+03  0.64353905614E+03  0.00000000000E+00 0.  1.
    9000007    1    1    2  501    0 -0.10171190165E+03 -0.21569462080E+03  0.15545557511E+03  0.49095408769E+03  0.40000000000E+03 0.  1.
   -9000007    1    1    2    0  503  0.10171190165E+03  0.21569462080E+03 -0.36183744082E+03  0.58974215888E+03  0.40000000000E+03 0.  1.
<mgrwt>
<rscale>  2 0.46569247E+03</rscale>
<asrwt>0</asrwt>
<pdfrwt beam="1">  1       21 0.67254953E-01 0.46569247E+03</pdfrwt>
<pdfrwt beam="2">  1       21 0.99006008E-01 0.46569247E+03</pdfrwt>
<totfact> 0.14486081E+03</totfact>
</mgrwt>
</event>
<event>
 4    1  0.4676529E-002  0.4114583E+03  0.7818608E-02  0.1039883E+00
         21   -1    0    0  503  502  0.00000000000E+00  0.00000000000E+00  0.60387695791E+02  0.60387695791E+02  0.00000000000E+00 0.  1.
         21   -1    0    0  501  503 -0.00000000000E+00 -0.00000000000E+00 -0.35189974778E+04  0.35189974778E+04  0.00000000000E+00 0.  1.
    9000007    1    1    2  501    0  0.70543850767E+02  0.65738186458E+02 -0.25362942233E+04  0.25694525353E+04  0.40000000000E+03 0.  1.
   -9000007    1    1    2    0  502 -0.70543850767E+02 -0.65738186458E+02 -0.92231555872E+03  0.10099326383E+04  0.40000000000E+03 0.  1.
<mgrwt>
<rscale>  2 0.41145831E+03</rscale>
<asrwt>0</asrwt>
<pdfrwt beam="1">  1       21 0.92904170E-02 0.41145831E+03</pdfrwt>
<pdfrwt beam="2">  1       21 0.54138409E+00 0.41145831E+03</pdfrwt>
<totfact> 0.67755409E+01</totfact>
</mgrwt>
</event>
<event>
 4    1  0.4676529E-002  0.6520378E+03  0.7818608E-02  0.9802963E-01
         21   -1    0    0  501  502  0.00000000000E+00  0.00000000000E+00  0.40033156095E+03  0.40033156095E+03  0.00000000000E+00 0. -1.
         21   -1    0    0  502  503 -0.00000000000E+00 -0.00000000000E+00 -0.10691596928E+04  0.10691596928E+04  0.00000000000E+00 0.  1.
    9000007    1    1    2  501    0 -0.10543094786E+03  0.50402147562E+03 -0.39452740507E+03  0.76210577088E+03  0.40000000000E+03 0.  1.
   -9000007    1    1    2    0  503  0.10543094786E+03 -0.50402147562E+03 -0.27430072677E+03  0.70738548286E+03  0.40000000000E+03 0. -1.
<mgrwt>
<rscale>  2 0.65203783E+03</rscale>
<asrwt>0</asrwt>
<pdfrwt beam="1">  1       21 0.61589470E-01 0.65203783E+03</pdfrwt>
<pdfrwt beam="2">  1       21 0.16448611E+00 0.65203783E+03</pdfrwt>
<totfact> 0.43899999E+02</totfact>
</mgrwt>
</event>
<event>
 4    1  0.4676529E-002  0.4543240E+03  0.7818608E-02  0.1026440E+00
         21   -1    0    0  501  502  0.00000000000E+00  0.00000000000E+00  0.35410648832E+03  0.35410648832E+03  0.00000000000E+00 0.  1.
         21   -1    0    0  502  503 -0.00000000000E+00 -0.00000000000E+00 -0.21161969140E+04  0.21161969140E+04  0.00000000000E+00 0.  1.
    9000007    1    1    2  501    0  0.20746315228E+03  0.58045993954E+02  0.17032276042E+03  0.48520113323E+03  0.40000000000E+03 0.  1.
   -9000007    1    1    2    0  503 -0.20746315228E+03 -0.58045993954E+02 -0.19324131861E+04  0.19851022691E+04  0.40000000000E+03 0.  1.
<mgrwt>
<rscale>  2 0.45432400E+03</rscale>
<asrwt>0</asrwt>
<pdfrwt beam="1">  1       21 0.54477923E-01 0.45432400E+03</pdfrwt>
<pdfrwt beam="2">  1       21 0.32556875E+00 0.45432400E+03</pdfrwt>
<totfact> 0.58506621E+01</totfact>
</mgrwt>
</event>
<event>
 4    1  0.4676529E-002  0.4729031E+03  0.7818608E-02  0.1021104E+00
         21   -1    0    0  503  502  0.00000000000E+00  0.00000000000E+00  0.71326283128E+03  0.71326283128E+03  0.00000000000E+00 0.  1.
         21   -1    0    0  501  503 -0.00000000000E+00 -0.00000000000E+00 -0.72501140158E+03  0.72501140158E+03  0.00000000000E+00 0.  1.
    9000007    1    1    2  501    0  0.23611754381E+03 -0.88802426184E+02 -0.54763613662E+03  0.72356250837E+03  0.40000000000E+03 0.  1.
   -9000007    1    1    2    0  502 -0.23611754381E+03  0.88802426184E+02  0.53588756632E+03  0.71471172449E+03  0.40000000000E+03 0.  1.
<mgrwt>
<rscale>  2 0.47290312E+03</rscale>
<asrwt>0</asrwt>
<pdfrwt beam="1">  1       21 0.10973274E+00 0.47290312E+03</pdfrwt>
<pdfrwt beam="2">  1       21 0.11154022E+00 0.47290312E+03</pdfrwt>
<totfact> 0.34031839E+02</totfact>
</mgrwt>
</event>
<event>
 4    1  0.4676529E-002  0.4639646E+03  0.7818608E-02  0.1023638E+00
         21   -1    0    0  501  502  0.00000000000E+00  0.00000000000E+00  0.36473652186E+03  0.36473652186E+03  0.00000000000E+00 0.  1.
         21   -1    0    0  502  503 -0.00000000000E+00 -0.00000000000E+00 -0.59033047824E+03  0.59033047824E+03  0.00000000000E+00 0.  1.
    9000007    1    1    2  501    0 -0.77170676172E+02  0.22205367310E+03 -0.12021368007E+03  0.47928538041E+03  0.40000000000E+03 0.  1.
   -9000007    1    1    2    0  503  0.77170676172E+02 -0.22205367310E+03 -0.10538027631E+03  0.47578161969E+03  0.40000000000E+03 0.  1.
<mgrwt>
<rscale>  2 0.46396460E+03</rscale>
<asrwt>0</asrwt>
<pdfrwt beam="1">  1       21 0.56113311E-01 0.46396460E+03</pdfrwt>
<pdfrwt beam="2">  1       21 0.90820073E-01 0.46396460E+03</pdfrwt>
<totfact> 0.26566828E+03</totfact>
</mgrwt>
</event>
<event>
 4    1  0.4676529E-002  0.4874799E+03  0.7818608E-02  0.1017099E+00
         21   -1    0    0  501  502  0.00000000000E+00  0.00000000000E+00  0.14025697107E+04  0.14025697107E+04  0.00000000000E+00 0.  1.
         21   -1    0    0  502  503 -0.00000000000E+00 -0.00000000000E+00 -0.18739861470E+03  0.18739861470E+03  0.00000000000E+00 0. -1.
    9000007    1    1    2  501    0 -0.67058253288E+02  0.27044381190E+03  0.85375763200E+03  0.98312703092E+03  0.40000000000E+03 0.  1.
   -9000007    1    1    2    0  503  0.67058253288E+02 -0.27044381190E+03  0.36141346401E+03  0.60684129449E+03  0.40000000000E+03 0. -1.
<mgrwt>
<rscale>  2 0.48747991E+03</rscale>
<asrwt>0</asrwt>
<pdfrwt beam="1">  1       21 0.21577995E+00 0.48747991E+03</pdfrwt>
<pdfrwt beam="2">  1       21 0.28830557E-01 0.48747991E+03</pdfrwt>
<totfact> 0.10045077E+03</totfact>
</mgrwt>
</event>
<event>
 4    1  0.4676529E-002  0.4849945E+03  0.7818608E-02  0.1017772E+00
         21   -1    0    0  501  502  0.00000000000E+00  0.00000000000E+00  0.20561125826E+04  0.20561125826E+04  0.00000000000E+00 0.  1.
         21   -1    0    0  502  503 -0.00000000000E+00 -0.00000000000E+00 -0.54570931437E+03  0.54570931437E+03  0.00000000000E+00 0.  1.
    9000007    1    1    2  501    0 -0.24152782577E+03 -0.12993820529E+03  0.19117431277E+04  0.19723035806E+04  0.40000000000E+03 0.  1.
   -9000007    1    1    2    0  503  0.24152782577E+03  0.12993820529E+03 -0.40133985947E+03  0.62951831635E+03  0.40000000000E+03 0.  1.
<mgrwt>
<rscale>  2 0.48499446E+03</rscale>
<asrwt>0</asrwt>
<pdfrwt beam="1">  1       21 0.31632501E+00 0.48499446E+03</pdfrwt>
<pdfrwt beam="2">  1       21 0.83955280E-01 0.48499446E+03</pdfrwt>
<totfact> 0.24708322E+01</totfact>
</mgrwt>
</event>
<event>
 4    1  0.4676529E-002  0.4120701E+03  0.7818608E-02  0.1039679E+00
         21   -1    0    0  501  502  0.00000000000E+00  0.00000000000E+00  0.14951805204E+04  0.14951805204E+04  0.00000000000E+00 0.  1.
         21   -1    0    0  502  503 -0.00000000000E+00 -0.00000000000E+00 -0.16994283216E+03  0.16994283216E+03  0.00000000000E+00 0.  1.
    9000007    1    1    2  501    0  0.54418124241E+02  0.82707098920E+02  0.11421479818E+04  0.12142091290E+04  0.40000000000E+03 0.  1.
   -9000007    1    1    2    0  503 -0.54418124241E+02 -0.82707098920E+02  0.18308970642E+03  0.45091422361E+03  0.40000000000E+03 0.  1.
<mgrwt>
<rscale>  2 0.41207014E+03</rscale>
<asrwt>0</asrwt>
<pdfrwt beam="1">  1       21 0.23002776E+00 0.41207014E+03</pdfrwt>
<pdfrwt beam="2">  1       21 0.26145052E-01 0.41207014E+03</pdfrwt>
<totfact> 0.10242893E+03</totfact>
</mgrwt>
</event>
<event>
 4    1  0.4676529E-002  0.5183702E+03  0.7818608E-02  0.1009092E+00
         21   -1    0    0  501  502  0.00000000000E+00  0.00000000000E+00  0.21450409050E+03  0.21450409050E+03  0.00000000000E+00 0. -1.
         21   -1    0    0  502  503 -0.00000000000E+00 -0.00000000000E+00 -0.15504058651E+04  0.15504058651E+04  0.00000000000E+00 0.  1.
    9000007    1    1    2  501    0 -0.26873700849E+03  0.19101850190E+03 -0.28125541989E+03  0.58975610130E+03  0.40000000000E+03 0. -1.
   -9000007    1    1    2    0  503  0.26873700849E+03 -0.19101850190E+03 -0.10546463547E+04  0.11751538543E+04  0.40000000000E+03 0.  1.
<mgrwt>
<rscale>  2 0.51837018E+03</rscale>
<asrwt>0</asrwt>
<pdfrwt beam="1">  1       21 0.33000630E-01 0.51837018E+03</pdfrwt>
<pdfrwt beam="2">  1       21 0.23852397E+00 0.51837018E+03</pdfrwt>
<totfact> 0.54245061E+02</totfact>
</mgrwt>
</event>
<event>
 4    1  0.4676529E-002  0.4437903E+03  0.7818608E-02  0.1029590E+00
         21   -1    0    0  501  502  0.00000000000E+00  0.00000000000E+00  0.27421644159E+03  0.27421644159E+03  0.00000000000E+00 0. -1.
         21   -1    0    0  502  503 -0.00000000000E+00 -0.00000000000E+00 -0.99410334818E+03  0.99410334818E+03  0.00000000000E+00 0.  1.
    9000007    1    1    2  501    0  0.19201225415E+03 -0.90091653393E+01 -0.25871811296E+02  0.44454383521E+03  0.40000000000E+03 0. -1.
   -9000007    1    1    2    0  503 -0.19201225415E+03  0.90091653393E+01 -0.69401509529E+03  0.82377595455E+03  0.40000000000E+03 0.  1.
<mgrwt>
<rscale>  2 0.44379035E+03</rscale>
<asrwt>0</asrwt>
<pdfrwt beam="1">  1       21 0.42187145E-01 0.44379035E+03</pdfrwt>
<pdfrwt beam="2">  1       21 0.15293898E+00 0.44379035E+03</pdfrwt>
<totfact> 0.13064020E+03</totfact>
</mgrwt>
</event>
<event>
 4    1  0.4676529E-002  0.4679784E+03  0.7818608E-02  0.1022492E+00
         21   -1    0    0  501  502  0.00000000000E+00  0.00000000000E+00  0.16747472809E+04  0.16747472809E+04  0.00000000000E+00 0.  1.
         21   -1    0    0  502  503 -0.00000000000E+00 -0.00000000000E+00 -0.27441732171E+03  0.27441732171E+03  0.00000000000E+00 0. -1.
    9000007    1    1    2  501    0  0.12179705071E+03 -0.21016487046E+03  0.14052867936E+04  0.14811599396E+04  0.40000000000E+03 0.  1.
   -9000007    1    1    2    0  503 -0.12179705071E+03  0.21016487046E+03 -0.49568345008E+01  0.46800466295E+03  0.40000000000E+03 0. -1.
<mgrwt>
<rscale>  2 0.46797841E+03</rscale>
<asrwt>0</asrwt>
<pdfrwt beam="1">  1       21 0.25765342E+00 0.46797841E+03</pdfrwt>
<pdfrwt beam="2">  1       21 0.42218051E-01 0.46797841E+03</pdfrwt>
<totfact> 0.25591019E+02</totfact>
</mgrwt>
</event>
<event>
 4    1  0.4676529E-002  0.6395855E+03  0.7818608E-02  0.9826520E-01
         21   -1    0    0  503  502  0.00000000000E+00  0.00000000000E+00  0.16229969171E+04  0.16229969171E+04  0.00000000000E+00 0.  1.
         21   -1    0    0  501  503 -0.00000000000E+00 -0.00000000000E+00 -0.25564342100E+03  0.25564342100E+03  0.00000000000E+00 0. -1.
    9000007    1    1    2  501    0  0.26267557900E+03  0.42434787435E+03  0.57224646658E+03  0.85821652092E+03  0.40000000000E+03 0.  1.
   -9000007    1    1    2    0  502 -0.26267557900E+03 -0.42434787435E+03  0.79510702952E+03  0.10204238172E+04  0.40000000000E+03 0.  1.
<mgrwt>
<rscale>  2 0.63958547E+03</rscale>
<asrwt>0</asrwt>
<pdfrwt beam="1">  1       21 0.24969183E+00 0.63958547E+03</pdfrwt>
<pdfrwt beam="2">  1       21 0.39329758E-01 0.63958547E+03</pdfrwt>
<totfact> 0.30735613E+02</totfact>
</mgrwt>
</event>
<event>
 4    1  0.4676529E-002  0.4826977E+03  0.7818608E-02  0.1018396E+00
         21   -1    0    0  503  502  0.00000000000E+00  0.00000000000E+00  0.25133178749E+03  0.25133178749E+03  0.00000000000E+00 0.  1.
         21   -1    0    0  501  503 -0.00000000000E+00 -0.00000000000E+00 -0.25217133780E+04  0.25217133780E+04  0.00000000000E+00 0.  1.
    9000007    1    1    2  501    0  0.25085162203E+03  0.10035183814E+03 -0.22377797915E+04  0.22892477854E+04  0.40000000000E+03 0.  1.
   -9000007    1    1    2    0  502 -0.25085162203E+03 -0.10035183814E+03 -0.32601799030E+02  0.48379738010E+03  0.40000000000E+03 0.  1.
<mgrwt>
<rscale>  2 0.48269766E+03</rscale>
<asrwt>0</asrwt>
<pdfrwt beam="1">  1       21 0.38666428E-01 0.48269766E+03</pdfrwt>
<pdfrwt beam="2">  1       21 0.38795591E+00 0.48269766E+03</pdfrwt>
<totfact> 0.48521291E+01</totfact>
</mgrwt>
</event>
<event>
 4    1  0.4676529E-002  0.4604952E+03  0.7818608E-02  0.1024638E+00
         21   -1    0    0  501  502  0.00000000000E+00  0.00000000000E+00  0.21752974047E+04  0.21752974047E+04  0.00000000000E+00 0. -1.
         21   -1    0    0  502  503 -0.00000000000E+00 -0.00000000000E+00 -0.11168077883E+03  0.11168077883E+03  0.00000000000E+00 0. -1.
    9000007    1    1    2  501    0  0.51772659609E+02 -0.22220576573E+03  0.14395113215E+04  0.15113731026E+04  0.40000000000E+03 0. -1.
   -9000007    1    1    2    0  503 -0.51772659609E+02  0.22220576573E+03  0.62410530445E+03  0.77560508098E+03  0.40000000000E+03 0. -1.
<mgrwt>
<rscale>  2 0.46049518E+03</rscale>
<asrwt>0</asrwt>
<pdfrwt beam="1">  1       21 0.33466111E+00 0.46049518E+03</pdfrwt>
<pdfrwt beam="2">  1       21 0.17181660E-01 0.46049518E+03</pdfrwt>
<totfact> 0.51607527E+02</totfact>
</mgrwt>
</event>
<event>
 4    1  0.4676529E-002  0.4852672E+03  0.7818608E-02  0.1017698E+00
         21   -1    0    0  501  502  0.00000000000E+00  0.00000000000E+00  0.12336513327E+04  0.12336513327E+04  0.00000000000E+00 0. -1.
         21   -1    0    0  502  503 -0.00000000000E+00 -0.00000000000E+00 -0.23973475221E+03  0.23973475221E+03  0.00000000000E+00 0. -1.
    9000007    1    1    2  501    0 -0.24642632527E+03 -0.12148392755E+03  0.82950815842E+03  0.96102448633E+03  0.40000000000E+03 0. -1.
   -9000007    1    1    2    0  503  0.24642632527E+03  0.12148392755E+03  0.16440842204E+03  0.51236159856E+03  0.40000000000E+03 0. -1.
<mgrwt>
<rscale>  2 0.48526722E+03</rscale>
<asrwt>0</asrwt>
<pdfrwt beam="1">  1       21 0.18979251E+00 0.48526722E+03</pdfrwt>
<pdfrwt beam="2">  1       21 0.36882270E-01 0.48526722E+03</pdfrwt>
<totfact> 0.91264418E+02</totfact>
</mgrwt>
</event>
<event>
 4    1  0.4676529E-002  0.4515347E+03  0.7818608E-02  0.1027265E+00
         21   -1    0    0  501  502  0.00000000000E+00  0.00000000000E+00  0.22321482128E+03  0.22321482128E+03  0.00000000000E+00 0. -1.
         21   -1    0    0  502  503 -0.00000000000E+00 -0.00000000000E+00 -0.17729391399E+04  0.17729391399E+04  0.00000000000E+00 0. -1.
    9000007    1    1    2  501    0  0.20947060135E+03  0.23836603428E+01 -0.79916473731E+02  0.45855234973E+03  0.40000000000E+03 0. -1.
   -9000007    1    1    2    0  503 -0.20947060135E+03 -0.23836603428E+01 -0.14698078448E+04  0.15376016114E+04  0.40000000000E+03 0. -1.
<mgrwt>
<rscale>  2 0.45153473E+03</rscale>
<asrwt>0</asrwt>
<pdfrwt beam="1">  1       21 0.34340739E-01 0.45153473E+03</pdfrwt>
<pdfrwt beam="2">  1       21 0.27275989E+00 0.45153473E+03</pdfrwt>
<totfact> 0.31908930E+02</totfact>
</mgrwt>
</event>
<event>
 4    1  0.4676529E-002  0.4541420E+03  0.7818608E-02  0.1026494E+00
         21   -1    0    0  503  502  0.00000000000E+00  0.00000000000E+00  0.10131092450E+04  0.10131092450E+04  0.00000000000E+00 0.  1.
         21   -1    0    0  501  503 -0.00000000000E+00 -0.00000000000E+00 -0.20463206378E+03  0.20463206378E+03  0.00000000000E+00 0.  1.
    9000007    1    1    2  501    0  0.17059228135E+03  0.13093225095E+03  0.36050331250E+03  0.57983413069E+03  0.40000000000E+03 0.  1.
   -9000007    1    1    2    0  502 -0.17059228135E+03 -0.13093225095E+03  0.44797386874E+03  0.63790717810E+03  0.40000000000E+03 0.  1.
<mgrwt>
<rscale>  2 0.45414203E+03</rscale>
<asrwt>0</asrwt>
<pdfrwt beam="1">  1       21 0.15586296E+00 0.45414203E+03</pdfrwt>
<pdfrwt beam="2">  1       21 0.31481857E-01 0.45414203E+03</pdfrwt>
<totfact> 0.22406823E+03</totfact>
</mgrwt>
</event>
<event>
 4    1  0.4676529E-002  0.4285133E+03  0.7818608E-02  0.1034331E+00
         21   -1    0    0  503  502  0.00000000000E+00  0.00000000000E+00  0.18987395257E+04  0.18987395257E+04  0.00000000000E+00 0.  1.
         21   -1    0    0  501  503 -0.00000000000E+00 -0.00000000000E+00 -0.43255171289E+03  0.43255171289E+03  0.00000000000E+00 0.  1.
    9000007    1    1    2  501    0  0.37212161377E+01 -0.15365486778E+03 -0.29401384126E+03  0.51968048327E+03  0.40000000000E+03 0.  1.
   -9000007    1    1    2    0  502 -0.37212161377E+01  0.15365486778E+03  0.17602016541E+04  0.18116107553E+04  0.40000000000E+03 0.  1.
<mgrwt>
<rscale>  2 0.42851332E+03</rscale>
<asrwt>0</asrwt>
<pdfrwt beam="1">  1       21 0.29211377E+00 0.42851332E+03</pdfrwt>
<pdfrwt beam="2">  1       21 0.66546419E-01 0.42851332E+03</pdfrwt>
<totfact> 0.61056885E+01</totfact>
</mgrwt>
</event>
<event>
 4    1  0.4676529E-002  0.4201327E+03  0.7818608E-02  0.1037023E+00
         21   -1    0    0  501  502  0.00000000000E+00  0.00000000000E+00  0.46896677085E+03  0.46896677085E+03  0.00000000000E+00 0.  1.
         21   -1    0    0  502  503 -0.00000000000E+00 -0.00000000000E+00 -0.47279112896E+03  0.47279112896E+03  0.00000000000E+00 0.  1.
    9000007    1    1    2  501    0 -0.38687549466E+02 -0.12253479052E+03  0.21072030494E+03  0.47001547664E+03  0.40000000000E+03 0. -1.
   -9000007    1    1    2    0  503  0.38687549466E+02  0.12253479052E+03 -0.21454466305E+03  0.47174242317E+03  0.40000000000E+03 0. -1.
<mgrwt>
<rscale>  2 0.42013272E+03</rscale>
<asrwt>0</asrwt>
<pdfrwt beam="1">  1       21 0.72148734E-01 0.42013272E+03</pdfrwt>
<pdfrwt beam="2">  1       21 0.72737097E-01 0.42013272E+03</pdfrwt>
<totfact> 0.25893794E+03</totfact>
</mgrwt>
</event>
<event>
 4    1  0.4676529E-002  0.5332256E+03  0.7818608E-02  0.1005453E+00
         21   -1    0    0  501  502  0.00000000000E+00  0.00000000000E+00  0.46370292388E+03  0.46370292388E+03  0.00000000000E+00 0.  1.
         21   -1    0    0  502  503 -0.00000000000E+00 -0.00000000000E+00 -0.12836946360E+04  0.12836946360E+04  0.00000000000E+00 0. -1.
    9000007    1    1    2  501    0  0.18953162314E+03 -0.29733365407E+03  0.22145225079E+03  0.57738257455E+03  0.40000000000E+03 0.  1.
   -9000007    1    1    2    0  503 -0.18953162314E+03  0.29733365407E+03 -0.10414439629E+04  0.11700149853E+04  0.40000000000E+03 0. -1.
<mgrwt>
<rscale>  2 0.53322560E+03</rscale>
<asrwt>0</asrwt>
<pdfrwt beam="1">  1       21 0.71338911E-01 0.53322560E+03</pdfrwt>
<pdfrwt beam="2">  1       21 0.19749148E+00 0.53322560E+03</pdfrwt>
<totfact> 0.19230263E+02</totfact>
</mgrwt>
</event>
<event>
 4    1  0.4676529E-002  0.4338014E+03  0.7818608E-02  0.1032666E+00
         21   -1    0    0  503  502  0.00000000000E+00  0.00000000000E+00  0.74186184752E+03  0.74186184752E+03  0.00000000000E+00 0. -1.
         21   -1    0    0  501  503 -0.00000000000E+00 -0.00000000000E+00 -0.33612617612E+03  0.33612617612E+03  0.00000000000E+00 0.  1.
    9000007    1    1    2  501    0 -0.69982814030E+02 -0.15259770825E+03  0.46983640185E+03  0.63947626956E+03  0.40000000000E+03 0. -1.
   -9000007    1    1    2    0  502  0.69982814030E+02  0.15259770825E+03 -0.64100730447E+02  0.43851175408E+03  0.40000000000E+03 0.  1.
<mgrwt>
<rscale>  2 0.43380140E+03</rscale>
<asrwt>0</asrwt>
<pdfrwt beam="1">  1       21 0.11413259E+00 0.43380140E+03</pdfrwt>
<pdfrwt beam="2">  1       21 0.51711719E-01 0.43380140E+03</pdfrwt>
<totfact> 0.18347911E+03</totfact>
</mgrwt>
</event>
<event>
 4    1  0.4676529E-002  0.4730358E+03  0.7818608E-02  0.1021067E+00
         21   -1    0    0  501  502  0.00000000000E+00  0.00000000000E+00  0.29084370993E+03  0.29084370993E+03  0.00000000000E+00 0. -1.
         21   -1    0    0  502  503 -0.00000000000E+00 -0.00000000000E+00 -0.21426853136E+04  0.21426853136E+04  0.00000000000E+00 0. -1.
    9000007    1    1    2  501    0 -0.23567140279E+03 -0.90674396160E+02 -0.19000451750E+04  0.19580435448E+04  0.40000000000E+03 0. -1.
   -9000007    1    1    2    0  503  0.23567140279E+03  0.90674396160E+02  0.48203571324E+02  0.47548547875E+03  0.40000000000E+03 0. -1.
<mgrwt>
<rscale>  2 0.47303579E+03</rscale>
<asrwt>0</asrwt>
<pdfrwt beam="1">  1       21 0.44745186E-01 0.47303579E+03</pdfrwt>
<pdfrwt beam="2">  1       21 0.32964389E+00 0.47303579E+03</pdfrwt>
<totfact> 0.82928627E+01</totfact>
</mgrwt>
</event>
<event>
 4    1  0.4676529E-002  0.4298325E+03  0.7818608E-02  0.1033913E+00
         21   -1    0    0  503  502  0.00000000000E+00  0.00000000000E+00  0.79761070026E+03  0.79761070026E+03  0.00000000000E+00 0. -1.
         21   -1    0    0  501  503 -0.00000000000E+00 -0.00000000000E+00 -0.27716952141E+03  0.27716952141E+03  0.00000000000E+00 0. -1.
    9000007    1    1    2  501    0  0.11221361915E+03 -0.11029091188E+03  0.42410100331E+02  0.43191966635E+03  0.40000000000E+03 0. -1.
   -9000007    1    1    2    0  502 -0.11221361915E+03  0.11029091188E+03  0.47803107852E+03  0.64286055532E+03  0.40000000000E+03 0. -1.
<mgrwt>
<rscale>  2 0.42983250E+03</rscale>
<asrwt>0</asrwt>
<pdfrwt beam="1">  1       21 0.12270934E+00 0.42983250E+03</pdfrwt>
<pdfrwt beam="2">  1       21 0.42641465E-01 0.42983250E+03</pdfrwt>
<totfact> 0.22972740E+03</totfact>
</mgrwt>
</event>
<event>
 4    1  0.4676529E-002  0.4398254E+03  0.7818608E-02  0.1030800E+00
         21   -1    0    0  501  502  0.00000000000E+00  0.00000000000E+00  0.41019725494E+03  0.41019725494E+03  0.00000000000E+00 0. -1.
         21   -1    0    0  502  503 -0.00000000000E+00 -0.00000000000E+00 -0.55338302180E+03  0.55338302180E+03  0.00000000000E+00 0. -1.
    9000007    1    1    2  501    0 -0.51463310956E+02  0.17549326251E+03  0.11362965671E+03  0.45426650377E+03  0.40000000000E+03 0. -1.
   -9000007    1    1    2    0  503  0.51463310956E+02 -0.17549326251E+03 -0.25681542357E+03  0.50931377298E+03  0.40000000000E+03 0. -1.
<mgrwt>
<rscale>  2 0.43982537E+03</rscale>
<asrwt>0</asrwt>
<pdfrwt beam="1">  1       21 0.63107269E-01 0.43982537E+03</pdfrwt>
<pdfrwt beam="2">  1       21 0.85135850E-01 0.43982537E+03</pdfrwt>
<totfact> 0.24134681E+03</totfact>
</mgrwt>
</event>
<event>
 4    1  0.4676529E-002  0.4002128E+03  0.7818608E-02  0.1043706E+00
         21   -1    0    0  503  502  0.00000000000E+00  0.00000000000E+00  0.11181018983E+03  0.11181018983E+03  0.00000000000E+00 0.  1.
         21   -1    0    0  501  503 -0.00000000000E+00 -0.00000000000E+00 -0.19983338269E+04  0.19983338269E+04  0.00000000000E+00 0.  1.
    9000007    1    1    2  501    0  0.57146360912E+01 -0.11731520507E+02 -0.38184551262E+03  0.55315122810E+03  0.40000000000E+03 0.  1.
   -9000007    1    1    2    0  502 -0.57146360912E+01  0.11731520507E+02 -0.15046781245E+04  0.15569927887E+04  0.40000000000E+03 0.  1.
<mgrwt>
<rscale>  2 0.40021280E+03</rscale>
<asrwt>0</asrwt>
<pdfrwt beam="1">  1       21 0.17201570E-01 0.40021280E+03</pdfrwt>
<pdfrwt beam="2">  1       21 0.30743594E+00 0.40021280E+03</pdfrwt>
<totfact> 0.77926324E+02</totfact>
</mgrwt>
</event>
<event>
 4    1  0.4676529E-002  0.4623745E+03  0.7818608E-02  0.1024095E+00
         21   -1    0    0  503  502  0.00000000000E+00  0.00000000000E+00  0.66353252651E+03  0.66353252651E+03  0.00000000000E+00 0. -1.
         21   -1    0    0  501  503 -0.00000000000E+00 -0.00000000000E+00 -0.66284359887E+03  0.66284359887E+03  0.00000000000E+00 0.  1.
    9000007    1    1    2  501    0  0.14122438337E+03 -0.18397249437E+03 -0.47507970855E+03  0.66294112455E+03  0.40000000000E+03 0.  1.
   -9000007    1    1    2    0  502 -0.14122438337E+03  0.18397249437E+03  0.47576863619E+03  0.66343500083E+03  0.40000000000E+03 0. -1.
<mgrwt>
<rscale>  2 0.46237453E+03</rscale>
<asrwt>0</asrwt>
<pdfrwt beam="1">  1       21 0.10208193E+00 0.46237453E+03</pdfrwt>
<pdfrwt beam="2">  1       21 0.10197594E+00 0.46237453E+03</pdfrwt>
<totfact> 0.50997484E+02</totfact>
</mgrwt>
</event>
<event>
 4    1  0.4676529E-002  0.5576892E+03  0.7818608E-02  0.9997297E-01
         21   -1    0    0  503  502  0.00000000000E+00  0.00000000000E+00  0.10302309882E+04  0.10302309882E+04  0.00000000000E+00 0.  1.
         21   -1    0    0  501  503 -0.00000000000E+00 -0.00000000000E+00 -0.32195518111E+03  0.32195518111E+03  0.00000000000E+00 0. -1.
    9000007    1    1    2  501    0 -0.25790110252E+02 -0.38775270063E+03  0.18535775698E+03  0.58768595755E+03  0.40000000000E+03 0. -1.
   -9000007    1    1    2    0  502  0.25790110252E+02  0.38775270063E+03  0.52291805009E+03  0.76450021174E+03  0.40000000000E+03 0.  1.
<mgrwt>
<rscale>  2 0.55768924E+03</rscale>
<asrwt>0</asrwt>
<pdfrwt beam="1">  1       21 0.15849707E+00 0.55768924E+03</pdfrwt>
<pdfrwt beam="2">  1       21 0.49531567E-01 0.55768924E+03</pdfrwt>
<totfact> 0.80809605E+02</totfact>
</mgrwt>
</event>
<event>
 4    1  0.4676529E-002  0.5782169E+03  0.7818608E-02  0.9951659E-01
         21   -1    0    0  503  502  0.00000000000E+00  0.00000000000E+00  0.15571140220E+03  0.15571140220E+03  0.00000000000E+00 0.  1.
         21   -1    0    0  501  503 -0.00000000000E+00 -0.00000000000E+00 -0.21794241778E+04  0.21794241778E+04  0.00000000000E+00 0. -1.
    9000007    1    1    2  501    0 -0.25583792311E+03 -0.32997231067E+03 -0.11539519981E+04  0.12907129745E+04  0.40000000000E+03 0.  1.
   -9000007    1    1    2    0  502  0.25583792311E+03  0.32997231067E+03 -0.86976077750E+03  0.10444226055E+04  0.40000000000E+03 0. -1.
<mgrwt>
<rscale>  2 0.57821689E+03</rscale>
<asrwt>0</asrwt>
<pdfrwt beam="1">  1       21 0.23955599E-01 0.57821689E+03</pdfrwt>
<pdfrwt beam="2">  1       21 0.33529605E+00 0.57821689E+03</pdfrwt>
<totfact> 0.25477565E+02</totfact>
</mgrwt>
</event>
<event>
 4    1  0.4676529E-002  0.4236404E+03  0.7818608E-02  0.1035888E+00
         21   -1    0    0  503  502  0.00000000000E+00  0.00000000000E+00  0.85052587283E+03  0.85052587283E+03  0.00000000000E+00 0. -1.
         21   -1    0    0  501  503 -0.00000000000E+00 -0.00000000000E+00 -0.22723974543E+03  0.22723974543E+03  0.00000000000E+00 0. -1.
    9000007    1    1    2  501    0  0.13607813599E+03 -0.30885911963E+02  0.16763700859E+03  0.45560220072E+03  0.40000000000E+03 0. -1.
   -9000007    1    1    2    0  502 -0.13607813599E+03  0.30885911963E+02  0.45564911881E+03  0.62216341754E+03  0.40000000000E+03 0. -1.
<mgrwt>
<rscale>  2 0.42364041E+03</rscale>
<asrwt>0</asrwt>
<pdfrwt beam="1">  1       21 0.13085013E+00 0.42364041E+03</pdfrwt>
<pdfrwt beam="2">  1       21 0.34959961E-01 0.42364041E+03</pdfrwt>
<totfact> 0.29314477E+03</totfact>
</mgrwt>
</event>
<event>
 4    1  0.4676529E-002  0.5896369E+03  0.7818608E-02  0.9927143E-01
         21   -1    0    0  501  502  0.00000000000E+00  0.00000000000E+00  0.38213143242E+03  0.38213143242E+03  0.00000000000E+00 0.  1.
         21   -1    0    0  502  503 -0.00000000000E+00 -0.00000000000E+00 -0.10824822364E+04  0.10824822364E+04  0.00000000000E+00 0.  1.
    9000007    1    1    2  501    0 -0.41988625413E+03 -0.10661691897E+03 -0.57707169713E+02  0.59245400771E+03  0.40000000000E+03 0.  1.
   -9000007    1    1    2    0  503  0.41988625413E+03  0.10661691897E+03 -0.64264363431E+03  0.87215966115E+03  0.40000000000E+03 0.  1.
<mgrwt>
<rscale>  2 0.58963687E+03</rscale>
<asrwt>0</asrwt>
<pdfrwt beam="1">  1       21 0.58789451E-01 0.58963687E+03</pdfrwt>
<pdfrwt beam="2">  1       21 0.16653573E+00 0.58963687E+03</pdfrwt>
<totfact> 0.47946878E+02</totfact>
</mgrwt>
</event>
<event>
 4    1  0.4676529E-002  0.5552810E+03  0.7818608E-02  0.1000279E+00
         21   -1    0    0  501  502  0.00000000000E+00  0.00000000000E+00  0.27118545696E+04  0.27118545696E+04  0.00000000000E+00 0.  1.
         21   -1    0    0  502  503 -0.00000000000E+00 -0.00000000000E+00 -0.27211980059E+03  0.27211980059E+03  0.00000000000E+00 0.  1.
    9000007    1    1    2  501    0 -0.18751786608E+03 -0.33641348985E+03  0.23582550880E+04  0.24227472106E+04  0.40000000000E+03 0.  1.
   -9000007    1    1    2    0  503  0.18751786608E+03  0.33641348985E+03  0.81479680995E+02  0.56122715959E+03  0.40000000000E+03 0.  1.
<mgrwt>
<rscale>  2 0.55528100E+03</rscale>
<asrwt>0</asrwt>
<pdfrwt beam="1">  1       21 0.41720838E+00 0.55528100E+03</pdfrwt>
<pdfrwt beam="2">  1       21 0.41864587E-01 0.55528100E+03</pdfrwt>
<totfact> 0.25437664E+01</totfact>
</mgrwt>
</event>
<event>
 4    1  0.4676529E-002  0.4162424E+03  0.7818608E-02  0.1038296E+00
         21   -1    0    0  501  502  0.00000000000E+00  0.00000000000E+00  0.15434952094E+03  0.15434952094E+03  0.00000000000E+00 0. -1.
         21   -1    0    0  502  503 -0.00000000000E+00 -0.00000000000E+00 -0.11405030734E+04  0.11405030734E+04  0.00000000000E+00 0. -1.
    9000007    1    1    2  501    0  0.81898185545E+02 -0.80934886435E+02 -0.41174098070E+03  0.58548134370E+03  0.40000000000E+03 0. -1.
   -9000007    1    1    2    0  503 -0.81898185545E+02  0.80934886435E+02 -0.57441257175E+03  0.70937125063E+03  0.40000000000E+03 0. -1.
<mgrwt>
<rscale>  2 0.41624244E+03</rscale>
<asrwt>0</asrwt>
<pdfrwt beam="1">  1       21 0.23746081E-01 0.41624244E+03</pdfrwt>
<pdfrwt beam="2">  1       21 0.17546201E+00 0.41624244E+03</pdfrwt>
<totfact> 0.28363265E+03</totfact>
</mgrwt>
</event>
<event>
 4    1  0.4676529E-002  0.4391141E+03  0.7818608E-02  0.1031019E+00
         21   -1    0    0  501  502  0.00000000000E+00  0.00000000000E+00  0.51737155748E+03  0.51737155748E+03  0.00000000000E+00 0. -1.
         21   -1    0    0  502  503 -0.00000000000E+00 -0.00000000000E+00 -0.37688246337E+03  0.37688246337E+03  0.00000000000E+00 0. -1.
    9000007    1    1    2  501    0  0.13279788745E+03 -0.12323096922E+03  0.23106912770E+02  0.43972159386E+03  0.40000000000E+03 0. -1.
   -9000007    1    1    2    0  503 -0.13279788745E+03  0.12323096922E+03  0.11738218134E+03  0.45453242699E+03  0.40000000000E+03 0. -1.
<mgrwt>
<rscale>  2 0.43911405E+03</rscale>
<asrwt>0</asrwt>
<pdfrwt beam="1">  1       21 0.79595624E-01 0.43911405E+03</pdfrwt>
<pdfrwt beam="2">  1       21 0.57981917E-01 0.43911405E+03</pdfrwt>
<totfact> 0.33988515E+03</totfact>
</mgrwt>
</event>
<event>
 4    1  0.4676529E-002  0.4110877E+03  0.7818608E-02  0.1040007E+00
         21   -1    0    0  501  502  0.00000000000E+00  0.00000000000E+00  0.33547640519E+03  0.33547640519E+03  0.00000000000E+00 0. -1.
         21   -1    0    0  502  503 -0.00000000000E+00 -0.00000000000E+00 -0.90002575674E+03  0.90002575674E+03  0.00000000000E+00 0. -1.
    9000007    1    1    2  501    0 -0.15981402078E+02  0.93475601946E+02  0.12763666623E+03  0.43044652622E+03  0.40000000000E+03 0. -1.
   -9000007    1    1    2    0  503  0.15981402078E+02 -0.93475601946E+02 -0.69218601778E+03  0.80505563571E+03  0.40000000000E+03 0. -1.
<mgrwt>
<rscale>  2 0.41108770E+03</rscale>
<asrwt>0</asrwt>
<pdfrwt beam="1">  1       21 0.51611756E-01 0.41108770E+03</pdfrwt>
<pdfrwt beam="2">  1       21 0.13846550E+00 0.41108770E+03</pdfrwt>
<totfact> 0.11326975E+03</totfact>
</mgrwt>
</event>
<event>
 4    1  0.4676529E-002  0.4749336E+03  0.7818608E-02  0.1020537E+00
         21   -1    0    0  503  502  0.00000000000E+00  0.00000000000E+00  0.94115463296E+03  0.94115463296E+03  0.00000000000E+00 0.  1.
         21   -1    0    0  501  503 -0.00000000000E+00 -0.00000000000E+00 -0.25237809309E+03  0.25237809309E+03  0.00000000000E+00 0. -1.
    9000007    1    1    2  501    0  0.73183905804E+01  0.25594604075E+03  0.21045078649E+03  0.51947229777E+03  0.40000000000E+03 0. -1.
   -9000007    1    1    2    0  502 -0.73183905804E+01 -0.25594604075E+03  0.47832575339E+03  0.67406042828E+03  0.40000000000E+03 0.  1.
<mgrwt>
<rscale>  2 0.47493361E+03</rscale>
<asrwt>0</asrwt>
<pdfrwt beam="1">  1       21 0.14479302E+00 0.47493361E+03</pdfrwt>
<pdfrwt beam="2">  1       21 0.38827399E-01 0.47493361E+03</pdfrwt>
<totfact> 0.17762192E+03</totfact>
</mgrwt>
</event>
<event>
 4    1  0.4676529E-002  0.7151135E+03  0.7818608E-02  0.9691730E-01
         21   -1    0    0  503  502  0.00000000000E+00  0.00000000000E+00  0.72469675806E+03  0.72469675806E+03  0.00000000000E+00 0. -1.
         21   -1    0    0  501  503 -0.00000000000E+00 -0.00000000000E+00 -0.99153988964E+03  0.99153988964E+03  0.00000000000E+00 0.  1.
    9000007    1    1    2  501    0 -0.44328004937E+03  0.39356087599E+03 -0.59419362483E+03  0.92975987710E+03  0.40000000000E+03 0. -1.
   -9000007    1    1    2    0  502  0.44328004937E+03 -0.39356087599E+03  0.32735049324E+03  0.78647677060E+03  0.40000000000E+03 0.  1.
<mgrwt>
<rscale>  2 0.71511353E+03</rscale>
<asrwt>0</asrwt>
<pdfrwt beam="1">  1       21 0.11149181E+00 0.71511353E+03</pdfrwt>
<pdfrwt beam="2">  1       21 0.15254460E+00 0.71511353E+03</pdfrwt>
<totfact> 0.13120792E+02</totfact>
</mgrwt>
</event>
<event>
 4    1  0.4676529E-002  0.4501920E+03  0.7818608E-02  0.1027665E+00
         21   -1    0    0  501  502  0.00000000000E+00  0.00000000000E+00  0.24069019764E+03  0.24069019764E+03  0.00000000000E+00 0. -1.
         21   -1    0    0  502  503 -0.00000000000E+00 -0.00000000000E+00 -0.94137228567E+03  0.94137228567E+03  0.00000000000E+00 0.  1.
    9000007    1    1    2  501    0  0.14482968773E+02 -0.20606581691E+03 -0.15836110711E+03  0.47723277080E+03  0.40000000000E+03 0. -1.
   -9000007    1    1    2    0  503 -0.14482968773E+02  0.20606581691E+03 -0.54232098092E+03  0.70482971250E+03  0.40000000000E+03 0.  1.
<mgrwt>
<rscale>  2 0.45019204E+03</rscale>
<asrwt>0</asrwt>
<pdfrwt beam="1">  1       21 0.37029262E-01 0.45019204E+03</pdfrwt>
<pdfrwt beam="2">  1       21 0.14482650E+00 0.45019204E+03</pdfrwt>
<totfact> 0.19747479E+03</totfact>
</mgrwt>
</event>
<event>
 4    1  0.4676529E-002  0.4246270E+03  0.7818608E-02  0.1035571E+00
         21   -1    0    0  503  502  0.00000000000E+00  0.00000000000E+00  0.41049791178E+03  0.41049791178E+03  0.00000000000E+00 0.  1.
         21   -1    0    0  501  503 -0.00000000000E+00 -0.00000000000E+00 -0.45842006422E+03  0.45842006422E+03  0.00000000000E+00 0.  1.
    9000007    1    1    2  501    0  0.68620113753E+02  0.12489740702E+03 -0.11282285226E+03  0.43935985056E+03  0.40000000000E+03 0.  1.
   -9000007    1    1    2    0  502 -0.68620113753E+02 -0.12489740702E+03  0.64900699813E+02  0.42955812544E+03  0.40000000000E+03 0.  1.
<mgrwt>
<rscale>  2 0.42462699E+03</rscale>
<asrwt>0</asrwt>
<pdfrwt beam="1">  1       21 0.63153525E-01 0.42462699E+03</pdfrwt>
<pdfrwt beam="2">  1       21 0.70526164E-01 0.42462699E+03</pdfrwt>
<totfact> 0.37319914E+03</totfact>
</mgrwt>
</event>
<event>
 4    1  0.4676529E-002  0.5264236E+03  0.7818608E-02  0.1007103E+00
         21   -1    0    0  501  502  0.00000000000E+00  0.00000000000E+00  0.12075645183E+04  0.12075645183E+04  0.00000000000E+00 0. -1.
         21   -1    0    0  502  503 -0.00000000000E+00 -0.00000000000E+00 -0.23059401187E+03  0.23059401187E+03  0.00000000000E+00 0. -1.
    9000007    1    1    2  501    0 -0.28409279934E+03 -0.19082217603E+03  0.53828087139E+03  0.75290644705E+03  0.40000000000E+03 0. -1.
   -9000007    1    1    2    0  503  0.28409279934E+03  0.19082217603E+03  0.43868963500E+03  0.68525208308E+03  0.40000000000E+03 0. -1.
<mgrwt>
<rscale>  2 0.52642361E+03</rscale>
<asrwt>0</asrwt>
<pdfrwt beam="1">  1       21 0.18577915E+00 0.52642361E+03</pdfrwt>
<pdfrwt beam="2">  1       21 0.35476002E-01 0.52642361E+03</pdfrwt>
<totfact> 0.10359719E+03</totfact>
</mgrwt>
</event>
<event>
 4    1  0.4676529E-002  0.4309279E+03  0.7818608E-02  0.1033567E+00
         21   -1    0    0  501  502  0.00000000000E+00  0.00000000000E+00  0.11087418253E+03  0.11087418253E+03  0.00000000000E+00 0. -1.
         21   -1    0    0  502  503 -0.00000000000E+00 -0.00000000000E+00 -0.17900719216E+04  0.17900719216E+04  0.00000000000E+00 0. -1.
    9000007    1    1    2  501    0  0.15820739704E+03  0.25869846281E+02 -0.59846864811E+03  0.73747105177E+03  0.40000000000E+03 0. -1.
   -9000007    1    1    2    0  503 -0.15820739704E+03 -0.25869846281E+02 -0.10807290910E+04  0.11634750524E+04  0.40000000000E+03 0. -1.
<mgrwt>
<rscale>  2 0.43092787E+03</rscale>
<asrwt>0</asrwt>
<pdfrwt beam="1">  1       21 0.17057565E-01 0.43092787E+03</pdfrwt>
<pdfrwt beam="2">  1       21 0.27539570E+00 0.43092787E+03</pdfrwt>
<totfact> 0.12103504E+03</totfact>
</mgrwt>
</event>
<event>
 4    1  0.4676529E-002  0.5890738E+03  0.7818608E-02  0.9928337E-01
         21   -1    0    0  501  502  0.00000000000E+00  0.00000000000E+00  0.60219369075E+03  0.60219369075E+03  0.00000000000E+00 0.  1.
         21   -1    0    0  502  503 -0.00000000000E+00 -0.00000000000E+00 -0.58478432523E+03  0.58478432523E+03  0.00000000000E+00 0. -1.
    9000007    1    1    2  501    0  0.26582837947E+03  0.34109119618E+03  0.80444537793E+02  0.59454121396E+03  0.40000000000E+03 0.  1.
   -9000007    1    1    2    0  503 -0.26582837947E+03 -0.34109119618E+03 -0.63035172276E+02  0.59243680202E+03  0.40000000000E+03 0. -1.
<mgrwt>
<rscale>  2 0.58907379E+03</rscale>
<asrwt>0</asrwt>
<pdfrwt beam="1">  1       21 0.92645184E-01 0.58907379E+03</pdfrwt>
<pdfrwt beam="2">  1       21 0.89966819E-01 0.58907379E+03</pdfrwt>
<totfact> 0.83253086E+02</totfact>
</mgrwt>
</event>
<event>
 4    1  0.4676529E-002  0.5546381E+03  0.7818608E-02  0.1000426E+00
         21   -1    0    0  503  502  0.00000000000E+00  0.00000000000E+00  0.19122909528E+03  0.19122909528E+03  0.00000000000E+00 0.  1.
         21   -1    0    0  501  503 -0.00000000000E+00 -0.00000000000E+00 -0.16486518053E+04  0.16486518053E+04  0.00000000000E+00 0.  1.
    9000007    1    1    2  501    0 -0.12703144958E+03 -0.36261059571E+03 -0.58544078632E+03  0.80645170196E+03  0.40000000000E+03 0. -1.
   -9000007    1    1    2    0  502  0.12703144958E+03  0.36261059571E+03 -0.87198192371E+03  0.10334291986E+04  0.40000000000E+03 0. -1.
<mgrwt>
<rscale>  2 0.55463811E+03</rscale>
<asrwt>0</asrwt>
<pdfrwt beam="1">  1       21 0.29419860E-01 0.55463811E+03</pdfrwt>
<pdfrwt beam="2">  1       21 0.25363875E+00 0.55463811E+03</pdfrwt>
<totfact> 0.54143579E+02</totfact>
</mgrwt>
</event>
<event>
 4    1  0.4676529E-002  0.4216668E+03  0.7818608E-02  0.1036525E+00
         21   -1    0    0  503  502  0.00000000000E+00  0.00000000000E+00  0.74233649527E+03  0.74233649527E+03  0.00000000000E+00 0. -1.
         21   -1    0    0  501  503 -0.00000000000E+00 -0.00000000000E+00 -0.26858866530E+03  0.26858866530E+03  0.00000000000E+00 0. -1.
    9000007    1    1    2  501    0 -0.11256571445E+03  0.71637066973E+02  0.70581251249E+02  0.42753318288E+03  0.40000000000E+03 0. -1.
   -9000007    1    1    2    0  502  0.11256571445E+03 -0.71637066973E+02  0.40316657872E+03  0.58339197769E+03  0.40000000000E+03 0. -1.
<mgrwt>
<rscale>  2 0.42166682E+03</rscale>
<asrwt>0</asrwt>
<pdfrwt beam="1">  1       21 0.11420561E+00 0.42166682E+03</pdfrwt>
<pdfrwt beam="2">  1       21 0.41321333E-01 0.42166682E+03</pdfrwt>
<totfact> 0.29486572E+03</totfact>
</mgrwt>
</event>
<event>
 4    1  0.4676529E-002  0.4166748E+03  0.7818608E-02  0.1038154E+00
         21   -1    0    0  503  502  0.00000000000E+00  0.00000000000E+00  0.19653368774E+03  0.19653368774E+03  0.00000000000E+00 0.  1.
         21   -1    0    0  501  503 -0.00000000000E+00 -0.00000000000E+00 -0.88381862698E+03  0.88381862698E+03  0.00000000000E+00 0.  1.
    9000007    1    1    2  501    0 -0.10974619890E+03  0.39669627552E+02 -0.33188967062E+03  0.53269940960E+03  0.40000000000E+03 0.  1.
   -9000007    1    1    2    0  502  0.10974619890E+03 -0.39669627552E+02 -0.35539526862E+03  0.54765290512E+03  0.40000000000E+03 0.  1.
<mgrwt>
<rscale>  2 0.41667482E+03</rscale>
<asrwt>0</asrwt>
<pdfrwt beam="1">  1       21 0.30235952E-01 0.41667482E+03</pdfrwt>
<pdfrwt beam="2">  1       21 0.13597210E+00 0.41667482E+03</pdfrwt>
<totfact> 0.35572182E+03</totfact>
</mgrwt>
</event>
<event>
 4    1  0.4676529E-002  0.4840897E+03  0.7818608E-02  0.1018017E+00
         21   -1    0    0  503  502  0.00000000000E+00  0.00000000000E+00  0.56141106458E+03  0.56141106458E+03  0.00000000000E+00 0. -1.
         21   -1    0    0  501  503 -0.00000000000E+00 -0.00000000000E+00 -0.42705249170E+03  0.42705249170E+03  0.00000000000E+00 0.  1.
    9000007    1    1    2  501    0  0.23575110201E+03  0.13698265730E+03 -0.70567209887E+01  0.48414112386E+03  0.40000000000E+03 0.  1.
   -9000007    1    1    2    0  502 -0.23575110201E+03 -0.13698265730E+03  0.14141529388E+03  0.50432243242E+03  0.40000000000E+03 0. -1.
<mgrwt>
<rscale>  2 0.48408969E+03</rscale>
<asrwt>0</asrwt>
<pdfrwt beam="1">  1       21 0.86370933E-01 0.48408969E+03</pdfrwt>
<pdfrwt beam="2">  1       21 0.65700383E-01 0.48408969E+03</pdfrwt>
<totfact> 0.20999746E+03</totfact>
</mgrwt>
</event>
<event>
 4    1  0.4676529E-002  0.5169889E+03  0.7818608E-02  0.1009437E+00
         21   -1    0    0  503  502  0.00000000000E+00  0.00000000000E+00  0.23663611054E+03  0.23663611054E+03  0.00000000000E+00 0.  1.
         21   -1    0    0  501  503 -0.00000000000E+00 -0.00000000000E+00 -0.14630939254E+04  0.14630939254E+04  0.00000000000E+00 0.  1.
    9000007    1    1    2  501    0  0.25640727784E+03 -0.20379614901E+03 -0.10190465845E+04  0.11426869667E+04  0.40000000000E+03 0.  1.
   -9000007    1    1    2    0  502 -0.25640727784E+03  0.20379614901E+03 -0.20741123029E+03  0.55704306919E+03  0.40000000000E+03 0.  1.
<mgrwt>
<rscale>  2 0.51698894E+03</rscale>
<asrwt>0</asrwt>
<pdfrwt beam="1">  1       21 0.36405556E-01 0.51698894E+03</pdfrwt>
<pdfrwt beam="2">  1       21 0.22509137E+00 0.51698894E+03</pdfrwt>
<totfact> 0.54078349E+02</totfact>
</mgrwt>
</event>
<event>
 4    1  0.4676529E-002  0.4205422E+03  0.7818608E-02  0.1036890E+00
         21   -1    0    0  503  502  0.00000000000E+00  0.00000000000E+00  0.35287845390E+03  0.35287845390E+03  0.00000000000E+00 0. -1.
         21   -1    0    0  501  503 -0.00000000000E+00 -0.00000000000E+00 -0.94168937849E+03  0.94168937849E+03  0.00000000000E+00 0. -1.
    9000007    1    1    2  501    0 -0.63959676952E+02 -0.11298192904E+03 -0.73711448515E+03  0.84864216298E+03  0.40000000000E+03 0. -1.
   -9000007    1    1    2    0  502  0.63959676952E+02  0.11298192904E+03  0.14830356056E+03  0.44592566941E+03  0.40000000000E+03 0. -1.
<mgrwt>
<rscale>  2 0.42054222E+03</rscale>
<asrwt>0</asrwt>
<pdfrwt beam="1">  1       21 0.54288993E-01 0.42054222E+03</pdfrwt>
<pdfrwt beam="2">  1       21 0.14487529E+00 0.42054222E+03</pdfrwt>
<totfact> 0.89707807E+02</totfact>
</mgrwt>
</event>
<event>
 4    1  0.4676529E-002  0.4477376E+03  0.7818608E-02  0.1028399E+00
         21   -1    0    0  501  502  0.00000000000E+00  0.00000000000E+00  0.12000192829E+04  0.12000192829E+04  0.00000000000E+00 0. -1.
         21   -1    0    0  502  503 -0.00000000000E+00 -0.00000000000E+00 -0.42526453959E+03  0.42526453959E+03  0.00000000000E+00 0. -1.
    9000007    1    1    2  501    0 -0.67971758536E+02 -0.18933786639E+03  0.10205992868E+04  0.11144917639E+04  0.40000000000E+03 0. -1.
   -9000007    1    1    2    0  503  0.67971758536E+02  0.18933786639E+03 -0.24584454344E+03  0.51079205862E+03  0.40000000000E+03 0. -1.
<mgrwt>
<rscale>  2 0.44773763E+03</rscale>
<asrwt>0</asrwt>
<pdfrwt beam="1">  1       21 0.18461835E+00 0.44773763E+03</pdfrwt>
<pdfrwt beam="2">  1       21 0.65425314E-01 0.44773763E+03</pdfrwt>
<totfact> 0.29804199E+02</totfact>
</mgrwt>
</event>
<event>
 4    1  0.4676529E-002  0.5238316E+03  0.7818608E-02  0.1007739E+00
         21   -1    0    0  501  502  0.00000000000E+00  0.00000000000E+00  0.17753225056E+03  0.17753225056E+03  0.00000000000E+00 0.  1.
         21   -1    0    0  502  503 -0.00000000000E+00 -0.00000000000E+00 -0.19962988811E+04  0.19962988811E+04  0.00000000000E+00 0.  1.
    9000007    1    1    2  501    0  0.28706939869E+01 -0.33821787203E+03 -0.39295418266E+03  0.65483781161E+03  0.40000000000E+03 0.  1.
   -9000007    1    1    2    0  503 -0.28706939869E+01  0.33821787203E+03 -0.14258124479E+04  0.15189933201E+04  0.40000000000E+03 0.  1.
<mgrwt>
<rscale>  2 0.52383162E+03</rscale>
<asrwt>0</asrwt>
<pdfrwt beam="1">  1       21 0.27312654E-01 0.52383162E+03</pdfrwt>
<pdfrwt beam="2">  1       21 0.30712290E+00 0.52383162E+03</pdfrwt>
<totfact> 0.30053320E+02</totfact>
</mgrwt>
</event>
<event>
 4    1  0.4676529E-002  0.4040675E+03  0.7818608E-02  0.1042380E+00
         21   -1    0    0  501  502  0.00000000000E+00  0.00000000000E+00  0.44018944839E+03  0.44018944839E+03  0.00000000000E+00 0. -1.
         21   -1    0    0  502  503 -0.00000000000E+00 -0.00000000000E+00 -0.37252126450E+03  0.37252126450E+03  0.00000000000E+00 0. -1.
    9000007    1    1    2  501    0 -0.50901050038E+02  0.26069462864E+02  0.60561389739E+02  0.40858073341E+03  0.40000000000E+03 0. -1.
   -9000007    1    1    2    0  503  0.50901050038E+02 -0.26069462864E+02  0.71067941554E+01  0.40412997948E+03  0.40000000000E+03 0. -1.
<mgrwt>
<rscale>  2 0.40406749E+03</rscale>
<asrwt>0</asrwt>
<pdfrwt beam="1">  1       21 0.67721453E-01 0.40406749E+03</pdfrwt>
<pdfrwt beam="2">  1       21 0.57310964E-01 0.40406749E+03</pdfrwt>
<totfact> 0.50932673E+03</totfact>
</mgrwt>
</event>
<event>
 4    1  0.4676529E-002  0.5385095E+03  0.7818608E-02  0.1004189E+00
         21   -1    0    0  503  502  0.00000000000E+00  0.00000000000E+00  0.98767963837E+03  0.98767963837E+03  0.00000000000E+00 0. -1.
         21   -1    0    0  501  503 -0.00000000000E+00 -0.00000000000E+00 -0.42627830494E+03  0.42627830494E+03  0.00000000000E+00 0.  1.
    9000007    1    1    2  501    0  0.24447450628E+03 -0.26499944939E+03 -0.11370548539E+03  0.55038298466E+03  0.40000000000E+03 0.  1.
   -9000007    1    1    2    0  502 -0.24447450628E+03  0.26499944939E+03  0.67510681882E+03  0.86357495866E+03  0.40000000000E+03 0. -1.
<mgrwt>
<rscale>  2 0.53850951E+03</rscale>
<asrwt>0</asrwt>
<pdfrwt beam="1">  1       21 0.15195071E+00 0.53850951E+03</pdfrwt>
<pdfrwt beam="2">  1       21 0.65581278E-01 0.53850951E+03</pdfrwt>
<totfact> 0.49569496E+02</totfact>
</mgrwt>
</event>
<event>
 4    1  0.4676529E-002  0.4921683E+03  0.7818608E-02  0.1015844E+00
         21   -1    0    0  503  502  0.00000000000E+00  0.00000000000E+00  0.71590190152E+03  0.71590190152E+03  0.00000000000E+00 0. -1.
         21   -1    0    0  501  503 -0.00000000000E+00 -0.00000000000E+00 -0.50817142993E+03  0.50817142993E+03  0.00000000000E+00 0. -1.
    9000007    1    1    2  501    0 -0.22745975419E+03  0.17461863237E+03 -0.24993740185E+03  0.55199484725E+03  0.40000000000E+03 0. -1.
   -9000007    1    1    2    0  502  0.22745975419E+03 -0.17461863237E+03  0.45766787344E+03  0.67207848420E+03  0.40000000000E+03 0. -1.
<mgrwt>
<rscale>  2 0.49216827E+03</rscale>
<asrwt>0</asrwt>
<pdfrwt beam="1">  1       21 0.11013875E+00 0.49216827E+03</pdfrwt>
<pdfrwt beam="2">  1       21 0.78180220E-01 0.49216827E+03</pdfrwt>
<totfact> 0.78376400E+02</totfact>
</mgrwt>
</event>
<event>
 4    1  0.4676529E-002  0.1032826E+04  0.7818608E-02  0.9273257E-01
         21   -1    0    0  501  502  0.00000000000E+00  0.00000000000E+00  0.41347766452E+04  0.41347766452E+04  0.00000000000E+00 0. -1.
         21   -1    0    0  502  503 -0.00000000000E+00 -0.00000000000E+00 -0.26740791510E+03  0.26740791510E+03  0.00000000000E+00 0.  1.
    9000007    1    1    2  501    0 -0.36277289271E+03 -0.88041234950E+03  0.23467640183E+04  0.25639874091E+04  0.40000000000E+03 0. -1.
   -9000007    1    1    2    0  503  0.36277289271E+03  0.88041234950E+03  0.15206047118E+04  0.18381971511E+04  0.40000000000E+03 0.  1.
<mgrwt>
<rscale>  2 0.10328263E+04</rscale>
<asrwt>0</asrwt>
<pdfrwt beam="1">  1       21 0.63611944E+00 0.10328263E+04</pdfrwt>
<pdfrwt beam="2">  1       21 0.41139682E-01 0.10328263E+04</pdfrwt>
<totfact> 0.52063138E-01</totfact>
</mgrwt>
</event>
<event>
 4    1  0.4676529E-002  0.6184224E+03  0.7818608E-02  0.9867906E-01
         21   -1    0    0  501  502  0.00000000000E+00  0.00000000000E+00  0.48814973022E+03  0.48814973022E+03  0.00000000000E+00 0.  1.
         21   -1    0    0  502  503 -0.00000000000E+00 -0.00000000000E+00 -0.78723114012E+03  0.78723114012E+03  0.00000000000E+00 0.  1.
    9000007    1    1    2  501    0 -0.31911045895E+02  0.47056127731E+03 -0.19367161190E+03  0.64803929187E+03  0.40000000000E+03 0.  1.
   -9000007    1    1    2    0  503  0.31911045895E+02 -0.47056127731E+03 -0.10540979801E+03  0.62734157847E+03  0.40000000000E+03 0.  1.
<mgrwt>
<rscale>  2 0.61842237E+03</rscale>
<asrwt>0</asrwt>
<pdfrwt beam="1">  1       21 0.75099959E-01 0.61842237E+03</pdfrwt>
<pdfrwt beam="2">  1       21 0.12111248E+00 0.61842237E+03</pdfrwt>
<totfact> 0.64757371E+02</totfact>
</mgrwt>
</event>
<event>
 4    1  0.4676529E-002  0.4263007E+03  0.7818608E-02  0.1035035E+00
         21   -1    0    0  503  502  0.00000000000E+00  0.00000000000E+00  0.10731064945E+03  0.10731064945E+03  0.00000000000E+00 0. -1.
         21   -1    0    0  501  503 -0.00000000000E+00 -0.00000000000E+00 -0.16938662195E+04  0.16938662195E+04  0.00000000000E+00 0. -1.
    9000007    1    1    2  501    0  0.14593518697E+03  0.20862277422E+02 -0.78033016430E+03  0.88918360237E+03  0.40000000000E+03 0. -1.
   -9000007    1    1    2    0  502 -0.14593518697E+03 -0.20862277422E+02 -0.80622540572E+03  0.91199326656E+03  0.40000000000E+03 0. -1.
<mgrwt>
<rscale>  2 0.42630073E+03</rscale>
<asrwt>0</asrwt>
<pdfrwt beam="1">  1       21 0.16509332E-01 0.42630073E+03</pdfrwt>
<pdfrwt beam="2">  1       21 0.26059478E+00 0.42630073E+03</pdfrwt>
<totfact> 0.15848703E+03</totfact>
</mgrwt>
</event>
<event>
 4    1  0.4676529E-002  0.4200579E+03  0.7818608E-02  0.1037047E+00
         21   -1    0    0  503  502  0.00000000000E+00  0.00000000000E+00  0.94885727745E+03  0.94885727745E+03  0.00000000000E+00 0. -1.
         21   -1    0    0  501  503 -0.00000000000E+00 -0.00000000000E+00 -0.20983461010E+03  0.20983461010E+03  0.00000000000E+00 0. -1.
    9000007    1    1    2  501    0  0.34253207761E+02  0.12359352856E+03  0.56493437413E+03  0.70398827378E+03  0.40000000000E+03 0. -1.
   -9000007    1    1    2    0  502 -0.34253207761E+02 -0.12359352856E+03  0.17408829322E+03  0.45470361378E+03  0.40000000000E+03 0. -1.
<mgrwt>
<rscale>  2 0.42005790E+03</rscale>
<asrwt>0</asrwt>
<pdfrwt beam="1">  1       21 0.14597804E+00 0.42005790E+03</pdfrwt>
<pdfrwt beam="2">  1       21 0.32282248E-01 0.42005790E+03</pdfrwt>
<totfact> 0.25812445E+03</totfact>
</mgrwt>
</event>
<event>
 4    1  0.4676529E-002  0.4100477E+03  0.7818608E-02  0.1040355E+00
         21   -1    0    0  501  502  0.00000000000E+00  0.00000000000E+00  0.27659977864E+03  0.27659977864E+03  0.00000000000E+00 0. -1.
         21   -1    0    0  502  503 -0.00000000000E+00 -0.00000000000E+00 -0.88412107934E+03  0.88412107934E+03  0.00000000000E+00 0. -1.
    9000007    1    1    2  501    0 -0.54847661944E+02 -0.71629708233E+02  0.20644071191E+02  0.41056699672E+03  0.40000000000E+03 0. -1.
   -9000007    1    1    2    0  503  0.54847661944E+02  0.71629708233E+02 -0.62816537189E+03  0.75015386126E+03  0.40000000000E+03 0. -1.
<mgrwt>
<rscale>  2 0.41004766E+03</rscale>
<asrwt>0</asrwt>
<pdfrwt beam="1">  1       21 0.42553812E-01 0.41004766E+03</pdfrwt>
<pdfrwt beam="2">  1       21 0.13601863E+00 0.41004766E+03</pdfrwt>
<totfact> 0.17822770E+03</totfact>
</mgrwt>
</event>
<event>
 4    1  0.4676529E-002  0.4427976E+03  0.7818608E-02  0.1029892E+00
         21   -1    0    0  503  502  0.00000000000E+00  0.00000000000E+00  0.77937415247E+03  0.77937415247E+03  0.00000000000E+00 0.  1.
         21   -1    0    0  501  503 -0.00000000000E+00 -0.00000000000E+00 -0.27258863549E+03  0.27258863549E+03  0.00000000000E+00 0. -1.
    9000007    1    1    2  501    0  0.16820209615E+03  0.88191913510E+02  0.10734857740E+03  0.45562427046E+03  0.40000000000E+03 0. -1.
   -9000007    1    1    2    0  502 -0.16820209615E+03 -0.88191913510E+02  0.39943693958E+03  0.59633851750E+03  0.40000000000E+03 0. -1.
<mgrwt>
<rscale>  2 0.44279765E+03</rscale>
<asrwt>0</asrwt>
<pdfrwt beam="1">  1       21 0.11990372E+00 0.44279765E+03</pdfrwt>
<pdfrwt beam="2">  1       21 0.41936713E-01 0.44279765E+03</pdfrwt>
<totfact> 0.25100947E+03</totfact>
</mgrwt>
</event>
<event>
 4    1  0.4676529E-002  0.4531192E+03  0.7818608E-02  0.1026796E+00
         21   -1    0    0  503  502  0.00000000000E+00  0.00000000000E+00  0.13139198608E+04  0.13139198608E+04  0.00000000000E+00 0.  1.
         21   -1    0    0  501  503 -0.00000000000E+00 -0.00000000000E+00 -0.33017190430E+03  0.33017190430E+03  0.00000000000E+00 0.  1.
    9000007    1    1    2  501    0 -0.20980503837E+03  0.36039455304E+02 -0.10473113358E+03  0.46506516404E+03  0.40000000000E+03 0.  1.
   -9000007    1    1    2    0  502  0.20980503837E+03 -0.36039455304E+02  0.10884790901E+04  0.11790266011E+04  0.40000000000E+03 0.  1.
<mgrwt>
<rscale>  2 0.45311919E+03</rscale>
<asrwt>0</asrwt>
<pdfrwt beam="1">  1       21 0.20214151E+00 0.45311919E+03</pdfrwt>
<pdfrwt beam="2">  1       21 0.50795678E-01 0.45311919E+03</pdfrwt>
<totfact> 0.39219385E+02</totfact>
</mgrwt>
</event>
<event>
 4    1  0.4676529E-002  0.4896931E+03  0.7818608E-02  0.1016505E+00
         21   -1    0    0  501  502  0.00000000000E+00  0.00000000000E+00  0.10577794975E+04  0.10577794975E+04  0.00000000000E+00 0. -1.
         21   -1    0    0  502  503 -0.00000000000E+00 -0.00000000000E+00 -0.30626259673E+03  0.30626259673E+03  0.00000000000E+00 0. -1.
    9000007    1    1    2  501    0 -0.22413227764E+03 -0.17194208287E+03  0.72337732360E+03  0.87354113242E+03  0.40000000000E+03 0. -1.
   -9000007    1    1    2    0  503  0.22413227764E+03  0.17194208287E+03  0.28139577198E+02  0.49050096182E+03  0.40000000000E+03 0. -1.
<mgrwt>
<rscale>  2 0.48969313E+03</rscale>
<asrwt>0</asrwt>
<pdfrwt beam="1">  1       21 0.16273531E+00 0.48969313E+03</pdfrwt>
<pdfrwt beam="2">  1       21 0.47117323E-01 0.48969313E+03</pdfrwt>
<totfact> 0.85598854E+02</totfact>
</mgrwt>
</event>
<event>
 4    1  0.4676529E-002  0.8084931E+03  0.7818608E-02  0.9547804E-01
         21   -1    0    0  501  502  0.00000000000E+00  0.00000000000E+00  0.60611900400E+03  0.60611900400E+03  0.00000000000E+00 0. -1.
         21   -1    0    0  502  503 -0.00000000000E+00 -0.00000000000E+00 -0.10791134323E+04  0.10791134323E+04  0.00000000000E+00 0.  1.
    9000007    1    1    2  501    0  0.60722000155E+03  0.35347556937E+03 -0.25759495346E+03  0.84853772366E+03  0.40000000000E+03 0.  1.
   -9000007    1    1    2    0  503 -0.60722000155E+03 -0.35347556937E+03 -0.21539947487E+03  0.83669471266E+03  0.40000000000E+03 0. -1.
<mgrwt>
<rscale>  2 0.80849311E+03</rscale>
<asrwt>0</asrwt>
<pdfrwt beam="1">  1       21 0.93249078E-01 0.80849311E+03</pdfrwt>
<pdfrwt beam="2">  1       21 0.16601745E+00 0.80849311E+03</pdfrwt>
<totfact> 0.15626065E+02</totfact>
</mgrwt>
</event>
<event>
 4    1  0.4676529E-002  0.4391106E+03  0.7818608E-02  0.1031020E+00
         21   -1    0    0  503  502  0.00000000000E+00  0.00000000000E+00  0.11805540206E+04  0.11805540206E+04  0.00000000000E+00 0. -1.
         21   -1    0    0  501  503 -0.00000000000E+00 -0.00000000000E+00 -0.24188082586E+03  0.24188082586E+03  0.00000000000E+00 0. -1.
    9000007    1    1    2  501    0 -0.91126160366E+02  0.15656989962E+03  0.64032302205E+02  0.44375471411E+03  0.40000000000E+03 0. -1.
   -9000007    1    1    2    0  502  0.91126160366E+02 -0.15656989962E+03  0.87464089254E+03  0.97868013236E+03  0.40000000000E+03 0. -1.
<mgrwt>
<rscale>  2 0.43911059E+03</rscale>
<asrwt>0</asrwt>
<pdfrwt beam="1">  1       21 0.18162369E+00 0.43911059E+03</pdfrwt>
<pdfrwt beam="2">  1       21 0.37212435E-01 0.43911059E+03</pdfrwt>
<totfact> 0.10420112E+03</totfact>
</mgrwt>
</event>
<event>
 4    1  0.4676529E-002  0.5082748E+03  0.7818608E-02  0.1011641E+00
         21   -1    0    0  503  502  0.00000000000E+00  0.00000000000E+00  0.26174918302E+03  0.26174918302E+03  0.00000000000E+00 0.  1.
         21   -1    0    0  501  503 -0.00000000000E+00 -0.00000000000E+00 -0.11945764534E+04  0.11945764534E+04  0.00000000000E+00 0.  1.
    9000007    1    1    2  501    0 -0.27968410166E+03  0.14184509338E+03 -0.76995887179E+03  0.92259410982E+03  0.40000000000E+03 0.  1.
   -9000007    1    1    2    0  502  0.27968410166E+03 -0.14184509338E+03 -0.16286839862E+03  0.53373152662E+03  0.40000000000E+03 0.  1.
<mgrwt>
<rscale>  2 0.50827476E+03</rscale>
<asrwt>0</asrwt>
<pdfrwt beam="1">  1       21 0.40269106E-01 0.50827476E+03</pdfrwt>
<pdfrwt beam="2">  1       21 0.18378099E+00 0.50827476E+03</pdfrwt>
<totfact> 0.83082868E+02</totfact>
</mgrwt>
</event>
<event>
 4    1  0.4676529E-002  0.4235638E+03  0.7818608E-02  0.1035913E+00
         21   -1    0    0  503  502  0.00000000000E+00  0.00000000000E+00  0.91295194111E+03  0.91295194111E+03  0.00000000000E+00 0.  1.
         21   -1    0    0  501  503 -0.00000000000E+00 -0.00000000000E+00 -0.19686611518E+03  0.19686611518E+03  0.00000000000E+00 0.  1.
    9000007    1    1    2  501    0 -0.87861596007E+02  0.10810476463E+03  0.38156711055E+03  0.57008750209E+03  0.40000000000E+03 0.  1.
   -9000007    1    1    2    0  502  0.87861596007E+02 -0.10810476463E+03  0.33451871538E+03  0.53973055419E+03  0.40000000000E+03 0.  1.
<mgrwt>
<rscale>  2 0.42356381E+03</rscale>
<asrwt>0</asrwt>
<pdfrwt beam="1">  1       21 0.14045414E+00 0.42356381E+03</pdfrwt>
<pdfrwt beam="2">  1       21 0.30287095E-01 0.42356381E+03</pdfrwt>
<totfact> 0.32452971E+03</totfact>
</mgrwt>
</event>
<event>
 4    1  0.4676529E-002  0.4362338E+03  0.7818608E-02  0.1031909E+00
         21   -1    0    0  503  502  0.00000000000E+00  0.00000000000E+00  0.18235706703E+03  0.18235706703E+03  0.00000000000E+00 0. -1.
         21   -1    0    0  501  503 -0.00000000000E+00 -0.00000000000E+00 -0.13777202927E+04  0.13777202927E+04  0.00000000000E+00 0. -1.
    9000007    1    1    2  501    0  0.12276327695E+03  0.12340612013E+03 -0.98184444307E+03  0.10743921086E+04  0.40000000000E+03 0. -1.
   -9000007    1    1    2    0  502 -0.12276327695E+03 -0.12340612013E+03 -0.21351878265E+03  0.48568525116E+03  0.40000000000E+03 0. -1.
<mgrwt>
<rscale>  2 0.43623376E+03</rscale>
<asrwt>0</asrwt>
<pdfrwt beam="1">  1       21 0.28054935E-01 0.43623376E+03</pdfrwt>
<pdfrwt beam="2">  1       21 0.21195696E+00 0.43623376E+03</pdfrwt>
<totfact> 0.11489209E+03</totfact>
</mgrwt>
</event>
<event>
 4    1  0.4676529E-002  0.5120009E+03  0.7818608E-02  0.1010693E+00
         21   -1    0    0  503  502  0.00000000000E+00  0.00000000000E+00  0.10042810293E+04  0.10042810293E+04  0.00000000000E+00 0.  1.
         21   -1    0    0  501  503 -0.00000000000E+00 -0.00000000000E+00 -0.34020682424E+03  0.34020682424E+03  0.00000000000E+00 0.  1.
    9000007    1    1    2  501    0 -0.20440008178E+03 -0.24569406476E+03  0.77264074965E+01  0.51205923902E+03  0.40000000000E+03 0. -1.
   -9000007    1    1    2    0  502  0.20440008178E+03  0.24569406476E+03  0.65634779753E+03  0.83242861448E+03  0.40000000000E+03 0. -1.
<mgrwt>
<rscale>  2 0.51200094E+03</rscale>
<asrwt>0</asrwt>
<pdfrwt beam="1">  1       21 0.15450477E+00 0.51200094E+03</pdfrwt>
<pdfrwt beam="2">  1       21 0.52339512E-01 0.51200094E+03</pdfrwt>
<totfact> 0.78391160E+02</totfact>
</mgrwt>
</event>
<event>
 4    1  0.4676529E-002  0.6088348E+03  0.7818608E-02  0.9887244E-01
         21   -1    0    0  501  502  0.00000000000E+00  0.00000000000E+00  0.65261055309E+03  0.65261055309E+03  0.00000000000E+00 0.  1.
         21   -1    0    0  502  503 -0.00000000000E+00 -0.00000000000E+00 -0.72711752483E+03  0.72711752483E+03  0.00000000000E+00 0. -1.
    9000007    1    1    2  501    0  0.11905672606E+03 -0.44328921549E+03  0.28546690057E+03  0.67243675086E+03  0.40000000000E+03 0.  1.
   -9000007    1    1    2    0  503 -0.11905672606E+03  0.44328921549E+03 -0.35997387231E+03  0.70729132706E+03  0.40000000000E+03 0. -1.
<mgrwt>
<rscale>  2 0.60883482E+03</rscale>
<asrwt>0</asrwt>
<pdfrwt beam="1">  1       21 0.10040162E+00 0.60883482E+03</pdfrwt>
<pdfrwt beam="2">  1       21 0.11186423E+00 0.60883482E+03</pdfrwt>
<totfact> 0.39927844E+02</totfact>
</mgrwt>
</event>
<event>
 4    1  0.4676529E-002  0.4032236E+03  0.7818608E-02  0.1042669E+00
         21   -1    0    0  503  502  0.00000000000E+00  0.00000000000E+00  0.13713108919E+04  0.13713108919E+04  0.00000000000E+00 0. -1.
         21   -1    0    0  501  503 -0.00000000000E+00 -0.00000000000E+00 -0.21985689165E+03  0.21985689165E+03  0.00000000000E+00 0. -1.
    9000007    1    1    2  501    0  0.45733188772E+02 -0.22309640913E+02  0.35714712549E+02  0.40480215578E+03  0.40000000000E+03 0. -1.
   -9000007    1    1    2    0  502 -0.45733188772E+02  0.22309640913E+02  0.11157392877E+04  0.11863656277E+04  0.40000000000E+03 0. -1.
<mgrwt>
<rscale>  2 0.40322357E+03</rscale>
<asrwt>0</asrwt>
<pdfrwt beam="1">  1       21 0.21097090E+00 0.40322357E+03</pdfrwt>
<pdfrwt beam="2">  1       21 0.33824138E-01 0.40322357E+03</pdfrwt>
<totfact> 0.81707065E+02</totfact>
</mgrwt>
</event>
<event>
 4    1  0.4676529E-002  0.4214618E+03  0.7818608E-02  0.1036592E+00
         21   -1    0    0  503  502  0.00000000000E+00  0.00000000000E+00  0.48598233757E+03  0.48598233757E+03  0.00000000000E+00 0. -1.
         21   -1    0    0  501  503 -0.00000000000E+00 -0.00000000000E+00 -0.36838583498E+03  0.36838583498E+03  0.00000000000E+00 0. -1.
    9000007    1    1    2  501    0 -0.77955649323E+02  0.10748475724E+03  0.21036258055E+02  0.42198646951E+03  0.40000000000E+03 0. -1.
   -9000007    1    1    2    0  502  0.77955649323E+02 -0.10748475724E+03  0.96560244530E+02  0.43238170304E+03  0.40000000000E+03 0. -1.
<mgrwt>
<rscale>  2 0.42146181E+03</rscale>
<asrwt>0</asrwt>
<pdfrwt beam="1">  1       21 0.74766514E-01 0.42146181E+03</pdfrwt>
<pdfrwt beam="2">  1       21 0.56674744E-01 0.42146181E+03</pdfrwt>
<totfact> 0.41482538E+03</totfact>
</mgrwt>
</event>
<event>
 4    1  0.4676529E-002  0.4023153E+03  0.7818608E-02  0.1042981E+00
         21   -1    0    0  503  502  0.00000000000E+00  0.00000000000E+00  0.62876659279E+03  0.62876659279E+03  0.00000000000E+00 0.  1.
         21   -1    0    0  501  503 -0.00000000000E+00 -0.00000000000E+00 -0.84695716659E+03  0.84695716659E+03  0.00000000000E+00 0.  1.
    9000007    1    1    2  501    0 -0.24386076592E+02  0.35537565822E+02 -0.72469676018E+03  0.82888056651E+03  0.40000000000E+03 0.  1.
   -9000007    1    1    2    0  502  0.24386076592E+02 -0.35537565822E+02  0.50650618638E+03  0.64684319287E+03  0.40000000000E+03 0.  1.
<mgrwt>
<rscale>  2 0.40231530E+03</rscale>
<asrwt>0</asrwt>
<pdfrwt beam="1">  1       21 0.96733322E-01 0.40231530E+03</pdfrwt>
<pdfrwt beam="2">  1       21 0.13030110E+00 0.40231530E+03</pdfrwt>
<totfact> 0.32321107E+02</totfact>
</mgrwt>
</event>
<event>
 4    1  0.4676529E-002  0.4438426E+03  0.7818608E-02  0.1029574E+00
         21   -1    0    0  501  502  0.00000000000E+00  0.00000000000E+00  0.43623864656E+03  0.43623864656E+03  0.00000000000E+00 0.  1.
         21   -1    0    0  502  503 -0.00000000000E+00 -0.00000000000E+00 -0.48093438747E+03  0.48093438747E+03  0.00000000000E+00 0.  1.
    9000007    1    1    2  501    0 -0.92758411797E+02 -0.16849964205E+03  0.90949958347E+02  0.45306527924E+03  0.40000000000E+03 0. -1.
   -9000007    1    1    2    0  503  0.92758411797E+02  0.16849964205E+03 -0.13564569925E+03  0.46410775479E+03  0.40000000000E+03 0. -1.
<mgrwt>
<rscale>  2 0.44384260E+03</rscale>
<asrwt>0</asrwt>
<pdfrwt beam="1">  1       21 0.67113638E-01 0.44384260E+03</pdfrwt>
<pdfrwt beam="2">  1       21 0.73989906E-01 0.44384260E+03</pdfrwt>
<totfact> 0.29049419E+03</totfact>
</mgrwt>
</event>
<event>
 4    1  0.4676529E-002  0.4284265E+03  0.7818608E-02  0.1034358E+00
         21   -1    0    0  501  502  0.00000000000E+00  0.00000000000E+00  0.29754264932E+03  0.29754264932E+03  0.00000000000E+00 0. -1.
         21   -1    0    0  502  503 -0.00000000000E+00 -0.00000000000E+00 -0.63745701635E+03  0.63745701635E+03  0.00000000000E+00 0. -1.
    9000007    1    1    2  501    0  0.85643203504E+02  0.12733612134E+03 -0.85971184341E+02  0.43696715053E+03  0.40000000000E+03 0. -1.
   -9000007    1    1    2    0  503 -0.85643203504E+02 -0.12733612134E+03 -0.25394318270E+03  0.49803251514E+03  0.40000000000E+03 0. -1.
<mgrwt>
<rscale>  2 0.42842648E+03</rscale>
<asrwt>0</asrwt>
<pdfrwt beam="1">  1       21 0.45775793E-01 0.42842648E+03</pdfrwt>
<pdfrwt beam="2">  1       21 0.98070309E-01 0.42842648E+03</pdfrwt>
<totfact> 0.34558867E+03</totfact>
</mgrwt>
</event>
<event>
 4    1  0.4676529E-002  0.4022947E+03  0.7818608E-02  0.1042988E+00
         21   -1    0    0  503  502  0.00000000000E+00  0.00000000000E+00  0.56059012059E+02  0.56059012059E+02  0.00000000000E+00 0. -1.
         21   -1    0    0  501  503 -0.00000000000E+00 -0.00000000000E+00 -0.41959849491E+04  0.41959849491E+04  0.00000000000E+00 0. -1.
    9000007    1    1    2  501    0 -0.34069787818E+02  0.26082531214E+02 -0.32574312525E+04  0.32821790648E+04  0.40000000000E+03 0. -1.
   -9000007    1    1    2    0  502  0.34069787818E+02 -0.26082531214E+02 -0.88249468453E+03  0.96986489631E+03  0.40000000000E+03 0. -1.
<mgrwt>
<rscale>  2 0.40229473E+03</rscale>
<asrwt>0</asrwt>
<pdfrwt beam="1">  1       21 0.86244608E-02 0.40229473E+03</pdfrwt>
<pdfrwt beam="2">  1       21 0.64553634E+00 0.40229473E+03</pdfrwt>
<totfact> 0.11922597E+01</totfact>
</mgrwt>
</event>
<event>
 4    1  0.4676529E-002  0.4806422E+03  0.7818608E-02  0.1018959E+00
         21   -1    0    0  501  502  0.00000000000E+00  0.00000000000E+00  0.63955659118E+03  0.63955659118E+03  0.00000000000E+00 0.  1.
         21   -1    0    0  502  503 -0.00000000000E+00 -0.00000000000E+00 -0.41490636992E+03  0.41490636992E+03  0.00000000000E+00 0.  1.
    9000007    1    1    2  501    0  0.19658355612E+03 -0.17992160957E+03  0.30198785397E+03  0.56763856817E+03  0.40000000000E+03 0. -1.
   -9000007    1    1    2    0  503 -0.19658355612E+03  0.17992160957E+03 -0.77337632711E+02  0.48682439294E+03  0.40000000000E+03 0. -1.
<mgrwt>
<rscale>  2 0.48064215E+03</rscale>
<asrwt>0</asrwt>
<pdfrwt beam="1">  1       21 0.98393322E-01 0.48064215E+03</pdfrwt>
<pdfrwt beam="2">  1       21 0.63831749E-01 0.48064215E+03</pdfrwt>
<totfact> 0.16428739E+03</totfact>
</mgrwt>
</event>
<event>
 4    1  0.4676529E-002  0.4898388E+03  0.7818608E-02  0.1016466E+00
         21   -1    0    0  501  502  0.00000000000E+00  0.00000000000E+00  0.67102188857E+03  0.67102188857E+03  0.00000000000E+00 0.  1.
         21   -1    0    0  502  503 -0.00000000000E+00 -0.00000000000E+00 -0.35760439455E+03  0.35760439455E+03  0.00000000000E+00 0.  1.
    9000007    1    1    2  501    0  0.21268886748E+03  0.18629405451E+03  0.15221155425E+03  0.51294286850E+03  0.40000000000E+03 0.  1.
   -9000007    1    1    2    0  503 -0.21268886748E+03 -0.18629405451E+03  0.16120593977E+03  0.51568341462E+03  0.40000000000E+03 0.  1.
<mgrwt>
<rscale>  2 0.48983878E+03</rscale>
<asrwt>0</asrwt>
<pdfrwt beam="1">  1       21 0.10323414E+00 0.48983878E+03</pdfrwt>
<pdfrwt beam="2">  1       21 0.55016061E-01 0.48983878E+03</pdfrwt>
<totfact> 0.20167511E+03</totfact>
</mgrwt>
</event>
<event>
 4    1  0.4676529E-002  0.4174231E+03  0.7818608E-02  0.1037908E+00
         21   -1    0    0  503  502  0.00000000000E+00  0.00000000000E+00  0.40839451443E+03  0.40839451443E+03  0.00000000000E+00 0. -1.
         21   -1    0    0  501  503 -0.00000000000E+00 -0.00000000000E+00 -0.94233261859E+03  0.94233261859E+03  0.00000000000E+00 0. -1.
    9000007    1    1    2  501    0 -0.35246133778E+02  0.11401633401E+03 -0.76657344993E+03  0.87285558284E+03  0.40000000000E+03 0. -1.
   -9000007    1    1    2    0  502  0.35246133778E+02 -0.11401633401E+03  0.23263534577E+03  0.47787155018E+03  0.40000000000E+03 0. -1.
<mgrwt>
<rscale>  2 0.41742306E+03</rscale>
<asrwt>0</asrwt>
<pdfrwt beam="1">  1       21 0.62829925E-01 0.41742306E+03</pdfrwt>
<pdfrwt beam="2">  1       21 0.14497425E+00 0.41742306E+03</pdfrwt>
<totfact> 0.65233065E+02</totfact>
</mgrwt>
</event>
<event>
 4    1  0.4676529E-002  0.4010433E+03  0.7818608E-02  0.1043419E+00
         21   -1    0    0  501  502  0.00000000000E+00  0.00000000000E+00  0.16645143707E+04  0.16645143707E+04  0.00000000000E+00 0.  1.
         21   -1    0    0  502  503 -0.00000000000E+00 -0.00000000000E+00 -0.10494490208E+03  0.10494490208E+03  0.00000000000E+00 0.  1.
    9000007    1    1    2  501    0  0.26838198944E+02  0.10744812702E+02  0.10288751618E+04  0.11042734437E+04  0.40000000000E+03 0. -1.
   -9000007    1    1    2    0  503 -0.26838198944E+02 -0.10744812702E+02  0.53069430689E+03  0.66518582914E+03  0.40000000000E+03 0. -1.
<mgrwt>
<rscale>  2 0.40104331E+03</rscale>
<asrwt>0</asrwt>
<pdfrwt beam="1">  1       21 0.25607912E+00 0.40104331E+03</pdfrwt>
<pdfrwt beam="2">  1       21 0.16145371E-01 0.40104331E+03</pdfrwt>
<totfact> 0.17833603E+03</totfact>
</mgrwt>
</event>
<event>
 4    1  0.4676529E-002  0.4067766E+03  0.7818608E-02  0.1041458E+00
         21   -1    0    0  503  502  0.00000000000E+00  0.00000000000E+00  0.13887626331E+03  0.13887626331E+03  0.00000000000E+00 0. -1.
         21   -1    0    0  501  503 -0.00000000000E+00 -0.00000000000E+00 -0.14150433030E+04  0.14150433030E+04  0.00000000000E+00 0. -1.
    9000007    1    1    2  501    0  0.18495712289E+01 -0.73917581774E+02 -0.32925219152E+03  0.52332994891E+03  0.40000000000E+03 0. -1.
   -9000007    1    1    2    0  502 -0.18495712289E+01  0.73917581774E+02 -0.94691484815E+03  0.10305896174E+04  0.40000000000E+03 0. -1.
<mgrwt>
<rscale>  2 0.40677663E+03</rscale>
<asrwt>0</asrwt>
<pdfrwt beam="1">  1       21 0.21365578E-01 0.40677663E+03</pdfrwt>
<pdfrwt beam="2">  1       21 0.21769898E+00 0.40677663E+03</pdfrwt>
<totfact> 0.18151125E+03</totfact>
</mgrwt>
</event>
<event>
 4    1  0.4676529E-002  0.4587479E+03  0.7818608E-02  0.1025145E+00
         21   -1    0    0  503  502  0.00000000000E+00  0.00000000000E+00  0.22240123618E+04  0.22240123618E+04  0.00000000000E+00 0. -1.
         21   -1    0    0  501  503 -0.00000000000E+00 -0.00000000000E+00 -0.18650447462E+03  0.18650447462E+03  0.00000000000E+00 0.  1.
    9000007    1    1    2  501    0 -0.20011548247E+03 -0.10199702477E+03  0.17280877335E+03  0.49021675974E+03  0.40000000000E+03 0.  1.
   -9000007    1    1    2    0  502  0.20011548247E+03  0.10199702477E+03  0.18646991138E+04  0.19203000767E+04  0.40000000000E+03 0. -1.
<mgrwt>
<rscale>  2 0.45874786E+03</rscale>
<asrwt>0</asrwt>
<pdfrwt beam="1">  1       21 0.34215573E+00 0.45874786E+03</pdfrwt>
<pdfrwt beam="2">  1       21 0.28692998E-01 0.45874786E+03</pdfrwt>
<totfact> 0.17332202E+02</totfact>
</mgrwt>
</event>
<event>
 4    1  0.4676529E-002  0.4261989E+03  0.7818608E-02  0.1035067E+00
         21   -1    0    0  503  502  0.00000000000E+00  0.00000000000E+00  0.32536622205E+03  0.32536622205E+03  0.00000000000E+00 0. -1.
         21   -1    0    0  501  503 -0.00000000000E+00 -0.00000000000E+00 -0.76613256680E+03  0.76613256680E+03  0.00000000000E+00 0. -1.
    9000007    1    1    2  501    0 -0.14527452582E+03  0.23254751673E+02 -0.50464526081E+03  0.66053940881E+03  0.40000000000E+03 0. -1.
   -9000007    1    1    2    0  502  0.14527452582E+03 -0.23254751673E+02  0.63878916065E+02  0.43095938004E+03  0.40000000000E+03 0. -1.
<mgrwt>
<rscale>  2 0.42619886E+03</rscale>
<asrwt>0</asrwt>
<pdfrwt beam="1">  1       21 0.50056342E-01 0.42619886E+03</pdfrwt>
<pdfrwt beam="2">  1       21 0.11786655E+00 0.42619886E+03</pdfrwt>
<totfact> 0.18199012E+03</totfact>
</mgrwt>
</event>
<event>
 4    1  0.4676529E-002  0.4841133E+03  0.7818608E-02  0.1018011E+00
         21   -1    0    0  503  502  0.00000000000E+00  0.00000000000E+00  0.15661957012E+03  0.15661957012E+03  0.00000000000E+00 0.  1.
         21   -1    0    0  501  503 -0.00000000000E+00 -0.00000000000E+00 -0.31420396283E+04  0.31420396283E+04  0.00000000000E+00 0.  1.
    9000007    1    1    2  501    0 -0.62749348419E+02  0.26538315209E+03 -0.26863376124E+04  0.27296108635E+04  0.40000000000E+03 0.  1.
   -9000007    1    1    2    0  502  0.62749348419E+02 -0.26538315209E+03 -0.29908244579E+03  0.56904833496E+03  0.40000000000E+03 0.  1.
<mgrwt>
<rscale>  2 0.48411331E+03</rscale>
<asrwt>0</asrwt>
<pdfrwt beam="1">  1       21 0.24095320E-01 0.48411331E+03</pdfrwt>
<pdfrwt beam="2">  1       21 0.48339068E+00 0.48411331E+03</pdfrwt>
<totfact> 0.28690692E+01</totfact>
</mgrwt>
</event>
<event>
 4    1  0.4676529E-002  0.5255624E+03  0.7818608E-02  0.1007314E+00
         21   -1    0    0  503  502  0.00000000000E+00  0.00000000000E+00  0.28634587557E+03  0.28634587557E+03  0.00000000000E+00 0. -1.
         21   -1    0    0  501  503 -0.00000000000E+00 -0.00000000000E+00 -0.11188942103E+04  0.11188942103E+04  0.00000000000E+00 0.  1.
    9000007    1    1    2  501    0  0.33993180378E+03 -0.25733328604E+02 -0.15537759319E+03  0.54804929695E+03  0.40000000000E+03 0. -1.
   -9000007    1    1    2    0  502 -0.33993180378E+03  0.25733328604E+02 -0.67717074153E+03  0.85719078892E+03  0.40000000000E+03 0.  1.
<mgrwt>
<rscale>  2 0.52556240E+03</rscale>
<asrwt>0</asrwt>
<pdfrwt beam="1">  1       21 0.44053212E-01 0.52556240E+03</pdfrwt>
<pdfrwt beam="2">  1       21 0.17213757E+00 0.52556240E+03</pdfrwt>
<totfact> 0.82887813E+02</totfact>
</mgrwt>
</event>
<event>
 4    1  0.4676529E-002  0.4133392E+03  0.7818608E-02  0.1039256E+00
         21   -1    0    0  503  502  0.00000000000E+00  0.00000000000E+00  0.15675189073E+03  0.15675189073E+03  0.00000000000E+00 0.  1.
         21   -1    0    0  501  503 -0.00000000000E+00 -0.00000000000E+00 -0.11079262579E+04  0.11079262579E+04  0.00000000000E+00 0.  1.
    9000007    1    1    2  501    0  0.42965588027E+02 -0.94885260945E+02 -0.55616850862E+03  0.69294492168E+03  0.40000000000E+03 0.  1.
   -9000007    1    1    2    0  502 -0.42965588027E+02  0.94885260945E+02 -0.39500585853E+03  0.57173322693E+03  0.40000000000E+03 0.  1.
<mgrwt>
<rscale>  2 0.41333915E+03</rscale>
<asrwt>0</asrwt>
<pdfrwt beam="1">  1       21 0.24115674E-01 0.41333915E+03</pdfrwt>
<pdfrwt beam="2">  1       21 0.17045020E+00 0.41333915E+03</pdfrwt>
<totfact> 0.29944754E+03</totfact>
</mgrwt>
</event>
<event>
 4    1  0.4676529E-002  0.6223542E+03  0.7818608E-02  0.9860084E-01
         21   -1    0    0  503  502  0.00000000000E+00  0.00000000000E+00  0.10046905558E+04  0.10046905558E+04  0.00000000000E+00 0.  1.
         21   -1    0    0  501  503 -0.00000000000E+00 -0.00000000000E+00 -0.51730652464E+03  0.51730652464E+03  0.00000000000E+00 0.  1.
    9000007    1    1    2  501    0  0.46977285730E+03  0.81475214592E+02 -0.14041406170E+03  0.63799753665E+03  0.40000000000E+03 0.  1.
   -9000007    1    1    2    0  502 -0.46977285730E+03 -0.81475214592E+02  0.62779809290E+03  0.88399954383E+03  0.40000000000E+03 0.  1.
<mgrwt>
<rscale>  2 0.62235420E+03</rscale>
<asrwt>0</asrwt>
<pdfrwt beam="1">  1       21 0.15456778E+00 0.62235420E+03</pdfrwt>
<pdfrwt beam="2">  1       21 0.79585620E-01 0.62235420E+03</pdfrwt>
<totfact> 0.29511379E+02</totfact>
</mgrwt>
</event>
<event>
 4    1  0.4676529E-002  0.4609301E+03  0.7818608E-02  0.1024512E+00
         21   -1    0    0  503  502  0.00000000000E+00  0.00000000000E+00  0.86402032701E+03  0.86402032701E+03  0.00000000000E+00 0.  1.
         21   -1    0    0  501  503 -0.00000000000E+00 -0.00000000000E+00 -0.45327527129E+03  0.45327527129E+03  0.00000000000E+00 0.  1.
    9000007    1    1    2  501    0 -0.65616146311E+02 -0.21943360233E+03 -0.24013803312E+03  0.51973345037E+03  0.40000000000E+03 0.  1.
   -9000007    1    1    2    0  502  0.65616146311E+02  0.21943360233E+03  0.65088308883E+03  0.79756214793E+03  0.40000000000E+03 0.  1.
<mgrwt>
<rscale>  2 0.46093013E+03</rscale>
<asrwt>0</asrwt>
<pdfrwt beam="1">  1       21 0.13292620E+00 0.46093013E+03</pdfrwt>
<pdfrwt beam="2">  1       21 0.69734657E-01 0.46093013E+03</pdfrwt>
<totfact> 0.63784785E+02</totfact>
</mgrwt>
</event>
<event>
 4    1  0.4676529E-002  0.4074413E+03  0.7818608E-02  0.1041233E+00
         21   -1    0    0  501  502  0.00000000000E+00  0.00000000000E+00  0.22798085177E+03  0.22798085177E+03  0.00000000000E+00 0.  1.
         21   -1    0    0  502  503 -0.00000000000E+00 -0.00000000000E+00 -0.11549553163E+04  0.11549553163E+04  0.00000000000E+00 0.  1.
    9000007    1    1    2  501    0 -0.57952373052E+02  0.51477389460E+02 -0.43152560510E+02  0.40972007840E+03  0.40000000000E+03 0.  1.
   -9000007    1    1    2    0  503  0.57952373052E+02 -0.51477389460E+02 -0.88382190404E+03  0.97321608968E+03  0.40000000000E+03 0.  1.
<mgrwt>
<rscale>  2 0.40744128E+03</rscale>
<asrwt>0</asrwt>
<pdfrwt beam="1">  1       21 0.35073977E-01 0.40744128E+03</pdfrwt>
<pdfrwt beam="2">  1       21 0.17768543E+00 0.40744128E+03</pdfrwt>
<totfact> 0.12710733E+03</totfact>
</mgrwt>
</event>
<event>
 4    1  0.4676529E-002  0.4323717E+03  0.7818608E-02  0.1033113E+00
         21   -1    0    0  501  502  0.00000000000E+00  0.00000000000E+00  0.22058695681E+03  0.22058695681E+03  0.00000000000E+00 0.  1.
         21   -1    0    0  502  503 -0.00000000000E+00 -0.00000000000E+00 -0.11131257834E+04  0.11131257834E+04  0.00000000000E+00 0. -1.
    9000007    1    1    2  501    0 -0.15825026757E+03 -0.43614003209E+02 -0.12050537196E+03  0.44885061338E+03  0.40000000000E+03 0.  1.
   -9000007    1    1    2    0  503  0.15825026757E+03  0.43614003209E+02 -0.77203345467E+03  0.88486212688E+03  0.40000000000E+03 0. -1.
<mgrwt>
<rscale>  2 0.43237175E+03</rscale>
<asrwt>0</asrwt>
<pdfrwt beam="1">  1       21 0.33936455E-01 0.43237175E+03</pdfrwt>
<pdfrwt beam="2">  1       21 0.17125012E+00 0.43237175E+03</pdfrwt>
<totfact> 0.14933355E+03</totfact>
</mgrwt>
</event>
<event>
 4    1  0.4676529E-002  0.4007536E+03  0.7818608E-02  0.1043519E+00
         21   -1    0    0  503  502  0.00000000000E+00  0.00000000000E+00  0.16757373246E+04  0.16757373246E+04  0.00000000000E+00 0.  1.
         21   -1    0    0  501  503 -0.00000000000E+00 -0.00000000000E+00 -0.12273638046E+03  0.12273638046E+03  0.00000000000E+00 0.  1.
    9000007    1    1    2  501    0 -0.13426369213E+02  0.20570780269E+02  0.35555028873E+03  0.53574194554E+03  0.40000000000E+03 0.  1.
   -9000007    1    1    2    0  502  0.13426369213E+02 -0.20570780269E+02  0.11974506554E+04  0.12627317595E+04  0.40000000000E+03 0.  1.
<mgrwt>
<rscale>  2 0.40075357E+03</rscale>
<asrwt>0</asrwt>
<pdfrwt beam="1">  1       21 0.25780573E+00 0.40075357E+03</pdfrwt>
<pdfrwt beam="2">  1       21 0.18882521E-01 0.40075357E+03</pdfrwt>
<totfact> 0.12981785E+03</totfact>
</mgrwt>
</event>
<event>
 4    1  0.4676529E-002  0.4265766E+03  0.7818608E-02  0.1034947E+00
         21   -1    0    0  501  502  0.00000000000E+00  0.00000000000E+00  0.53949666551E+03  0.53949666551E+03  0.00000000000E+00 0.  1.
         21   -1    0    0  502  503 -0.00000000000E+00 -0.00000000000E+00 -0.36096862925E+03  0.36096862925E+03  0.00000000000E+00 0.  1.
    9000007    1    1    2  501    0 -0.65402567731E+02  0.13300419812E+03 -0.26046051483E+02  0.42737104415E+03  0.40000000000E+03 0.  1.
   -9000007    1    1    2    0  503  0.65402567731E+02 -0.13300419812E+03  0.20457408775E+03  0.47309425061E+03  0.40000000000E+03 0.  1.
<mgrwt>
<rscale>  2 0.42657662E+03</rscale>
<asrwt>0</asrwt>
<pdfrwt beam="1">  1       21 0.82999487E-01 0.42657662E+03</pdfrwt>
<pdfrwt beam="2">  1       21 0.55533635E-01 0.42657662E+03</pdfrwt>
<totfact> 0.34026432E+03</totfact>
</mgrwt>
</event>
<event>
 4    1  0.4676529E-002  0.4095926E+03  0.7818608E-02  0.1040508E+00
         21   -1    0    0  501  502  0.00000000000E+00  0.00000000000E+00  0.10987241700E+04  0.10987241700E+04  0.00000000000E+00 0.  1.
         21   -1    0    0  502  503 -0.00000000000E+00 -0.00000000000E+00 -0.32940987006E+03  0.32940987006E+03  0.00000000000E+00 0.  1.
    9000007    1    1    2  501    0  0.35478735340E+02  0.80668396976E+02  0.90766859952E+03  0.99580541146E+03  0.40000000000E+03 0.  1.
   -9000007    1    1    2    0  503 -0.35478735340E+02 -0.80668396976E+02 -0.13835429956E+03  0.43232862864E+03  0.40000000000E+03 0.  1.
<mgrwt>
<rscale>  2 0.40959264E+03</rscale>
<asrwt>0</asrwt>
<pdfrwt beam="1">  1       21 0.16903449E+00 0.40959264E+03</pdfrwt>
<pdfrwt beam="2">  1       21 0.50678442E-01 0.40959264E+03</pdfrwt>
<totfact> 0.68328055E+02</totfact>
</mgrwt>
</event>
<event>
 4    1  0.4676529E-002  0.5005430E+03  0.7818608E-02  0.1013637E+00
         21   -1    0    0  503  502  0.00000000000E+00  0.00000000000E+00  0.58452116562E+03  0.58452116562E+03  0.00000000000E+00 0.  1.
         21   -1    0    0  501  503 -0.00000000000E+00 -0.00000000000E+00 -0.75667126597E+03  0.75667126597E+03  0.00000000000E+00 0.  1.
    9000007    1    1    2  501    0 -0.14697076413E+02  0.30054503121E+03 -0.52761672694E+03  0.72727074078E+03  0.40000000000E+03 0.  1.
   -9000007    1    1    2    0  502  0.14697076413E+02 -0.30054503121E+03  0.35546662658E+03  0.61392169082E+03  0.40000000000E+03 0.  1.
<mgrwt>
<rscale>  2 0.50054302E+03</rscale>
<asrwt>0</asrwt>
<pdfrwt beam="1">  1       21 0.89926334E-01 0.50054302E+03</pdfrwt>
<pdfrwt beam="2">  1       21 0.11641096E+00 0.50054302E+03</pdfrwt>
<totfact> 0.49024804E+02</totfact>
</mgrwt>
</event>
<event>
 4    1  0.4676529E-002  0.4101987E+03  0.7818608E-02  0.1040304E+00
         21   -1    0    0  501  502  0.00000000000E+00  0.00000000000E+00  0.14797460646E+04  0.14797460646E+04  0.00000000000E+00 0. -1.
         21   -1    0    0  502  503 -0.00000000000E+00 -0.00000000000E+00 -0.15818869316E+03  0.15818869316E+03  0.00000000000E+00 0. -1.
    9000007    1    1    2  501    0 -0.32208884362E+02  0.85003373483E+02  0.10950402514E+04  0.11693485956E+04  0.40000000000E+03 0. -1.
   -9000007    1    1    2    0  503  0.32208884362E+02 -0.85003373483E+02  0.22651712004E+03  0.46858616220E+03  0.40000000000E+03 0. -1.
<mgrwt>
<rscale>  2 0.41019871E+03</rscale>
<asrwt>0</asrwt>
<pdfrwt beam="1">  1       21 0.22765323E+00 0.41019871E+03</pdfrwt>
<pdfrwt beam="2">  1       21 0.24336723E-01 0.41019871E+03</pdfrwt>
<totfact> 0.12197227E+03</totfact>
</mgrwt>
</event>
<event>
 4    1  0.4676529E-002  0.4008043E+03  0.7818608E-02  0.1043502E+00
         21   -1    0    0  501  502  0.00000000000E+00  0.00000000000E+00  0.25385932005E+03  0.25385932005E+03  0.00000000000E+00 0. -1.
         21   -1    0    0  502  503 -0.00000000000E+00 -0.00000000000E+00 -0.71046586431E+03  0.71046586431E+03  0.00000000000E+00 0. -1.
    9000007    1    1    2  501    0  0.12204964544E+02 -0.22250992597E+02 -0.68893046265E+02  0.40668208671E+03  0.40000000000E+03 0. -1.
   -9000007    1    1    2    0  503 -0.12204964544E+02  0.22250992597E+02 -0.38771349799E+03  0.55764309765E+03  0.40000000000E+03 0. -1.
<mgrwt>
<rscale>  2 0.40080428E+03</rscale>
<asrwt>0</asrwt>
<pdfrwt beam="1">  1       21 0.39055280E-01 0.40080428E+03</pdfrwt>
<pdfrwt beam="2">  1       21 0.10930244E+00 0.40080428E+03</pdfrwt>
<totfact> 0.37229171E+03</totfact>
</mgrwt>
</event>
<event>
 4    1  0.4676529E-002  0.4247963E+03  0.7818608E-02  0.1035516E+00
         21   -1    0    0  503  502  0.00000000000E+00  0.00000000000E+00  0.16535164138E+03  0.16535164138E+03  0.00000000000E+00 0.  1.
         21   -1    0    0  501  503 -0.00000000000E+00 -0.00000000000E+00 -0.11305262674E+04  0.11305262674E+04  0.00000000000E+00 0. -1.
    9000007    1    1    2  501    0 -0.13827154627E+03 -0.36508657891E+02 -0.60324633723E+03  0.73780623879E+03  0.40000000000E+03 0. -1.
   -9000007    1    1    2    0  502  0.13827154627E+03  0.36508657891E+02 -0.36192828878E+03  0.55807166997E+03  0.40000000000E+03 0.  1.
<mgrwt>
<rscale>  2 0.42479631E+03</rscale>
<asrwt>0</asrwt>
<pdfrwt beam="1">  1       21 0.25438714E-01 0.42479631E+03</pdfrwt>
<pdfrwt beam="2">  1       21 0.17392712E+00 0.42479631E+03</pdfrwt>
<totfact> 0.25361486E+03</totfact>
</mgrwt>
</event>
<event>
 4    1  0.4676529E-002  0.4393828E+03  0.7818608E-02  0.1030936E+00
         21   -1    0    0  501  502  0.00000000000E+00  0.00000000000E+00  0.18923890521E+03  0.18923890521E+03  0.00000000000E+00 0. -1.
         21   -1    0    0  502  503 -0.00000000000E+00 -0.00000000000E+00 -0.11555026474E+04  0.11555026474E+04  0.00000000000E+00 0. -1.
    9000007    1    1    2  501    0 -0.62844188511E+02 -0.17061034949E+03 -0.25303404001E+03  0.50703403119E+03  0.40000000000E+03 0. -1.
   -9000007    1    1    2    0  503  0.62844188511E+02  0.17061034949E+03 -0.71322970220E+03  0.83770752144E+03  0.40000000000E+03 0. -1.
<mgrwt>
<rscale>  2 0.43938284E+03</rscale>
<asrwt>0</asrwt>
<pdfrwt beam="1">  1       21 0.29113678E-01 0.43938284E+03</pdfrwt>
<pdfrwt beam="2">  1       21 0.17776964E+00 0.43938284E+03</pdfrwt>
<totfact> 0.18156667E+03</totfact>
</mgrwt>
</event>
<event>
 4    1  0.4676529E-002  0.4310833E+03  0.7818608E-02  0.1033518E+00
         21   -1    0    0  501  502  0.00000000000E+00  0.00000000000E+00  0.46224007397E+03  0.46224007397E+03  0.00000000000E+00 0. -1.
         21   -1    0    0  502  503 -0.00000000000E+00 -0.00000000000E+00 -0.44739102403E+03  0.44739102403E+03  0.00000000000E+00 0. -1.
    9000007    1    1    2  501    0 -0.15544461470E+03  0.40863282539E+02  0.15225136412E+03  0.45717973924E+03  0.40000000000E+03 0. -1.
   -9000007    1    1    2    0  503  0.15544461470E+03 -0.40863282539E+02 -0.13740231417E+03  0.45245135875E+03  0.40000000000E+03 0. -1.
<mgrwt>
<rscale>  2 0.43108333E+03</rscale>
<asrwt>0</asrwt>
<pdfrwt beam="1">  1       21 0.71113858E-01 0.43108333E+03</pdfrwt>
<pdfrwt beam="2">  1       21 0.68829388E-01 0.43108333E+03</pdfrwt>
<totfact> 0.30173052E+03</totfact>
</mgrwt>
</event>
<event>
 4    1  0.4676529E-002  0.4420852E+03  0.7818608E-02  0.1030109E+00
         21   -1    0    0  501  502  0.00000000000E+00  0.00000000000E+00  0.57606576923E+03  0.57606576923E+03  0.00000000000E+00 0. -1.
         21   -1    0    0  502  503 -0.00000000000E+00 -0.00000000000E+00 -0.34095392527E+03  0.34095392527E+03  0.00000000000E+00 0. -1.
    9000007    1    1    2  501    0 -0.12391575453E+03 -0.14171879885E+03  0.85291682089E+02  0.45023771855E+03  0.40000000000E+03 0. -1.
   -9000007    1    1    2    0  503  0.12391575453E+03  0.14171879885E+03  0.14982016188E+03  0.46678197595E+03  0.40000000000E+03 0. -1.
<mgrwt>
<rscale>  2 0.44208521E+03</rscale>
<asrwt>0</asrwt>
<pdfrwt beam="1">  1       21 0.88625503E-01 0.44208521E+03</pdfrwt>
<pdfrwt beam="2">  1       21 0.52454450E-01 0.44208521E+03</pdfrwt>
<totfact> 0.32805166E+03</totfact>
</mgrwt>
</event>
<event>
 4    1  0.4676529E-002  0.5945141E+03  0.7818608E-02  0.9916853E-01
         21   -1    0    0  501  502  0.00000000000E+00  0.00000000000E+00  0.45349646265E+03  0.45349646265E+03  0.00000000000E+00 0.  1.
         21   -1    0    0  502  503 -0.00000000000E+00 -0.00000000000E+00 -0.78607734533E+03  0.78607734533E+03  0.00000000000E+00 0.  1.
    9000007    1    1    2  501    0  0.27230754914E+03 -0.34539203888E+03 -0.10909118308E+03  0.60444019395E+03  0.40000000000E+03 0.  1.
   -9000007    1    1    2    0  503 -0.27230754914E+03  0.34539203888E+03 -0.22348969960E+03  0.63513361403E+03  0.40000000000E+03 0.  1.
<mgrwt>
<rscale>  2 0.59451414E+03</rscale>
<asrwt>0</asrwt>
<pdfrwt beam="1">  1       21 0.69768687E-01 0.59451414E+03</pdfrwt>
<pdfrwt beam="2">  1       21 0.12093498E+00 0.59451414E+03</pdfrwt>
<totfact> 0.77467546E+02</totfact>
</mgrwt>
</event>
<event>
 4    1  0.4676529E-002  0.5744142E+03  0.7818608E-02  0.9959958E-01
         21   -1    0    0  503  502  0.00000000000E+00  0.00000000000E+00  0.66226682953E+03  0.66226682953E+03  0.00000000000E+00 0. -1.
         21   -1    0    0  501  503 -0.00000000000E+00 -0.00000000000E+00 -0.16176960043E+04  0.16176960043E+04  0.00000000000E+00 0.  1.
    9000007    1    1    2  501    0  0.38728334269E+03  0.14129148482E+03 -0.14260403783E+04  0.15373818106E+04  0.40000000000E+03 0.  1.
   -9000007    1    1    2    0  502 -0.38728334269E+03 -0.14129148482E+03  0.47061120347E+03  0.74258102322E+03  0.40000000000E+03 0. -1.
<mgrwt>
<rscale>  2 0.57441420E+03</rscale>
<asrwt>0</asrwt>
<pdfrwt beam="1">  1       21 0.10188720E+00 0.57441420E+03</pdfrwt>
<pdfrwt beam="2">  1       21 0.24887631E+00 0.57441420E+03</pdfrwt>
<totfact> 0.38003344E+01</totfact>
</mgrwt>
</event>
<event>
 4    1  0.4676529E-002  0.4296284E+03  0.7818608E-02  0.1033977E+00
         21   -1    0    0  503  502  0.00000000000E+00  0.00000000000E+00  0.19595165094E+03  0.19595165094E+03  0.00000000000E+00 0.  1.
         21   -1    0    0  501  503 -0.00000000000E+00 -0.00000000000E+00 -0.94216054457E+03  0.94216054457E+03  0.00000000000E+00 0.  1.
    9000007    1    1    2  501    0  0.46885219112E+02  0.14960717422E+03 -0.38120211406E+03  0.57436537336E+03  0.40000000000E+03 0.  1.
   -9000007    1    1    2    0  502 -0.46885219112E+02 -0.14960717422E+03 -0.36500677957E+03  0.56374682215E+03  0.40000000000E+03 0.  1.
<mgrwt>
<rscale>  2 0.42962836E+03</rscale>
<asrwt>0</asrwt>
<pdfrwt beam="1">  1       21 0.30146407E-01 0.42962836E+03</pdfrwt>
<pdfrwt beam="2">  1       21 0.14494778E+00 0.42962836E+03</pdfrwt>
<totfact> 0.30039848E+03</totfact>
</mgrwt>
</event>
<event>
 4    1  0.4676529E-002  0.4192338E+03  0.7818608E-02  0.1037316E+00
         21   -1    0    0  503  502  0.00000000000E+00  0.00000000000E+00  0.17923708701E+03  0.17923708701E+03  0.00000000000E+00 0.  1.
         21   -1    0    0  501  503 -0.00000000000E+00 -0.00000000000E+00 -0.10003528471E+04  0.10003528471E+04  0.00000000000E+00 0.  1.
    9000007    1    1    2  501    0 -0.88342492599E+02 -0.89177159515E+02 -0.49347012588E+03  0.64751040680E+03  0.40000000000E+03 0.  1.
   -9000007    1    1    2    0  502  0.88342492599E+02  0.89177159515E+02 -0.32764563425E+03  0.53207952735E+03  0.40000000000E+03 0.  1.
<mgrwt>
<rscale>  2 0.41923378E+03</rscale>
<asrwt>0</asrwt>
<pdfrwt beam="1">  1       21 0.27574936E-01 0.41923378E+03</pdfrwt>
<pdfrwt beam="2">  1       21 0.15390044E+00 0.41923378E+03</pdfrwt>
<totfact> 0.30587524E+03</totfact>
</mgrwt>
</event>
<event>
 4    1  0.4676529E-002  0.4722485E+03  0.7818608E-02  0.1021288E+00
         21   -1    0    0  501  502  0.00000000000E+00  0.00000000000E+00  0.18238559274E+04  0.18238559274E+04  0.00000000000E+00 0.  1.
         21   -1    0    0  502  503 -0.00000000000E+00 -0.00000000000E+00 -0.15213152071E+03  0.15213152071E+03  0.00000000000E+00 0.  1.
    9000007    1    1    2  501    0 -0.12233765087E+03 -0.21920801397E+03  0.12735229313E+04  0.13582633437E+04  0.40000000000E+03 0.  1.
   -9000007    1    1    2    0  503  0.12233765087E+03  0.21920801397E+03  0.39820147539E+03  0.61772410444E+03  0.40000000000E+03 0.  1.
<mgrwt>
<rscale>  2 0.47224851E+03</rscale>
<asrwt>0</asrwt>
<pdfrwt beam="1">  1       21 0.28059320E+00 0.47224851E+03</pdfrwt>
<pdfrwt beam="2">  1       21 0.23404851E-01 0.47224851E+03</pdfrwt>
<totfact> 0.60338334E+02</totfact>
</mgrwt>
</event>
<event>
 4    1  0.4676529E-002  0.4456317E+03  0.7818608E-02  0.1029033E+00
         21   -1    0    0  503  502  0.00000000000E+00  0.00000000000E+00  0.18766507932E+03  0.18766507932E+03  0.00000000000E+00 0. -1.
         21   -1    0    0  501  503 -0.00000000000E+00 -0.00000000000E+00 -0.12216901638E+04  0.12216901638E+04  0.00000000000E+00 0. -1.
    9000007    1    1    2  501    0 -0.86199560851E+01 -0.19624800611E+03 -0.77479475580E+03  0.89380898248E+03  0.40000000000E+03 0. -1.
   -9000007    1    1    2    0  502  0.86199560851E+01  0.19624800611E+03 -0.25923032868E+03  0.51554626063E+03  0.40000000000E+03 0. -1.
<mgrwt>
<rscale>  2 0.44563167E+03</rscale>
<asrwt>0</asrwt>
<pdfrwt beam="1">  1       21 0.28871551E-01 0.44563167E+03</pdfrwt>
<pdfrwt beam="2">  1       21 0.18795233E+00 0.44563167E+03</pdfrwt>
<totfact> 0.15629302E+03</totfact>
</mgrwt>
</event>
<event>
 4    1  0.4676529E-002  0.7266928E+03  0.7818608E-02  0.9672642E-01
         21   -1    0    0  503  502  0.00000000000E+00  0.00000000000E+00  0.31761212175E+03  0.31761212175E+03  0.00000000000E+00 0. -1.
         21   -1    0    0  501  503 -0.00000000000E+00 -0.00000000000E+00 -0.20958680177E+04  0.20958680177E+04  0.00000000000E+00 0.  1.
    9000007    1    1    2  501    0 -0.63486050470E+02  0.60336717903E+03 -0.14377556156E+04  0.16109697830E+04  0.40000000000E+03 0.  1.
   -9000007    1    1    2    0  502  0.63486050470E+02 -0.60336717903E+03 -0.34050028029E+03  0.80251035645E+03  0.40000000000E+03 0. -1.
<mgrwt>
<rscale>  2 0.72669280E+03</rscale>
<asrwt>0</asrwt>
<pdfrwt beam="1">  1       21 0.48863403E-01 0.72669280E+03</pdfrwt>
<pdfrwt beam="2">  1       21 0.32244124E+00 0.72669280E+03</pdfrwt>
<totfact> 0.67092165E+01</totfact>
</mgrwt>
</event>
<event>
 4    1  0.4676529E-002  0.4953136E+03  0.7818608E-02  0.1015009E+00
         21   -1    0    0  501  502  0.00000000000E+00  0.00000000000E+00  0.50939979697E+03  0.50939979697E+03  0.00000000000E+00 0. -1.
         21   -1    0    0  502  503 -0.00000000000E+00 -0.00000000000E+00 -0.61214950399E+03  0.61214950399E+03  0.00000000000E+00 0. -1.
    9000007    1    1    2  501    0 -0.25906241232E+03 -0.13498971914E+03  0.20757704624E+03  0.53705101050E+03  0.40000000000E+03 0. -1.
   -9000007    1    1    2    0  503  0.25906241232E+03  0.13498971914E+03 -0.31032675326E+03  0.58449829045E+03  0.40000000000E+03 0. -1.
<mgrwt>
<rscale>  2 0.49531360E+03</rscale>
<asrwt>0</asrwt>
<pdfrwt beam="1">  1       21 0.78369199E-01 0.49531360E+03</pdfrwt>
<pdfrwt beam="2">  1       21 0.94176847E-01 0.49531360E+03</pdfrwt>
<totfact> 0.11418590E+03</totfact>
</mgrwt>
</event>
<event>
 4    1  0.4676529E-002  0.5219490E+03  0.7818608E-02  0.1008204E+00
         21   -1    0    0  501  502  0.00000000000E+00  0.00000000000E+00  0.19007077103E+03  0.19007077103E+03  0.00000000000E+00 0.  1.
         21   -1    0    0  502  503 -0.00000000000E+00 -0.00000000000E+00 -0.16159428839E+04  0.16159428839E+04  0.00000000000E+00 0.  1.
    9000007    1    1    2  501    0  0.29833757270E+03 -0.15305375717E+03 -0.40936184689E+03  0.66333089899E+03  0.40000000000E+03 0.  1.
   -9000007    1    1    2    0  503 -0.29833757270E+03  0.15305375717E+03 -0.10165102660E+04  0.11426827559E+04  0.40000000000E+03 0.  1.
<mgrwt>
<rscale>  2 0.52194900E+03</rscale>
<asrwt>0</asrwt>
<pdfrwt beam="1">  1       21 0.29241657E-01 0.52194900E+03</pdfrwt>
<pdfrwt beam="2">  1       21 0.24860660E+00 0.52194900E+03</pdfrwt>
<totfact> 0.59709019E+02</totfact>
</mgrwt>
</event>
<event>
 4    1  0.4676529E-002  0.4927488E+03  0.7818608E-02  0.1015689E+00
         21   -1    0    0  503  502  0.00000000000E+00  0.00000000000E+00  0.14593499775E+04  0.14593499775E+04  0.00000000000E+00 0.  1.
         21   -1    0    0  501  503 -0.00000000000E+00 -0.00000000000E+00 -0.16839144611E+03  0.16839144611E+03  0.00000000000E+00 0.  1.
    9000007    1    1    2  501    0 -0.26052891447E+03 -0.12217237602E+03  0.73450944049E+03  0.88448036886E+03  0.40000000000E+03 0.  1.
   -9000007    1    1    2    0  502  0.26052891447E+03  0.12217237602E+03  0.55644909091E+03  0.74326105475E+03  0.40000000000E+03 0.  1.
<mgrwt>
<rscale>  2 0.49274883E+03</rscale>
<asrwt>0</asrwt>
<pdfrwt beam="1">  1       21 0.22451537E+00 0.49274883E+03</pdfrwt>
<pdfrwt beam="2">  1       21 0.25906377E-01 0.49274883E+03</pdfrwt>
<totfact> 0.10872569E+03</totfact>
</mgrwt>
</event>
<event>
 4    1  0.4676529E-002  0.5195807E+03  0.7818608E-02  0.1008791E+00
         21   -1    0    0  501  502  0.00000000000E+00  0.00000000000E+00  0.34139359164E+03  0.34139359164E+03  0.00000000000E+00 0.  1.
         21   -1    0    0  502  503 -0.00000000000E+00 -0.00000000000E+00 -0.86226143948E+03  0.86226143948E+03  0.00000000000E+00 0. -1.
    9000007    1    1    2  501    0 -0.19165988914E+03  0.27061159014E+03 -0.87142689836E+02  0.52683773044E+03  0.40000000000E+03 0.  1.
   -9000007    1    1    2    0  503  0.19165988914E+03 -0.27061159014E+03 -0.43372515800E+03  0.67681730068E+03  0.40000000000E+03 0. -1.
<mgrwt>
<rscale>  2 0.51958074E+03</rscale>
<asrwt>0</asrwt>
<pdfrwt beam="1">  1       21 0.52522092E-01 0.51958074E+03</pdfrwt>
<pdfrwt beam="2">  1       21 0.13265560E+00 0.51958074E+03</pdfrwt>
<totfact> 0.11689751E+03</totfact>
</mgrwt>
</event>
<event>
 4    1  0.4676529E-002  0.4778669E+03  0.7818608E-02  0.1019723E+00
         21   -1    0    0  503  502  0.00000000000E+00  0.00000000000E+00  0.16532803623E+04  0.16532803623E+04  0.00000000000E+00 0.  1.
         21   -1    0    0  501  503 -0.00000000000E+00 -0.00000000000E+00 -0.23982211954E+03  0.23982211954E+03  0.00000000000E+00 0.  1.
    9000007    1    1    2  501    0  0.18694223351E+03 -0.18278219978E+03  0.90336801277E+02  0.48633061686E+03  0.40000000000E+03 0.  1.
   -9000007    1    1    2    0  502 -0.18694223351E+03  0.18278219978E+03  0.13231214415E+04  0.14067718650E+04  0.40000000000E+03 0.  1.
<mgrwt>
<rscale>  2 0.47786686E+03</rscale>
<asrwt>0</asrwt>
<pdfrwt beam="1">  1       21 0.25435082E+00 0.47786686E+03</pdfrwt>
<pdfrwt beam="2">  1       21 0.36895712E-01 0.47786686E+03</pdfrwt>
<totfact> 0.35194823E+02</totfact>
</mgrwt>
</event>
<event>
 4    1  0.4676529E-002  0.4081550E+03  0.7818608E-02  0.1040992E+00
         21   -1    0    0  501  502  0.00000000000E+00  0.00000000000E+00  0.58645415639E+03  0.58645415639E+03  0.00000000000E+00 0.  1.
         21   -1    0    0  502  503 -0.00000000000E+00 -0.00000000000E+00 -0.32333965653E+03  0.32333965653E+03  0.00000000000E+00 0.  1.
    9000007    1    1    2  501    0 -0.22390755680E+02 -0.78033128170E+02  0.29009956996E+03  0.50074771644E+03  0.40000000000E+03 0. -1.
   -9000007    1    1    2    0  503  0.22390755680E+02  0.78033128170E+02 -0.26985070102E+02  0.40904609647E+03  0.40000000000E+03 0. -1.
<mgrwt>
<rscale>  2 0.40815501E+03</rscale>
<asrwt>0</asrwt>
<pdfrwt beam="1">  1       21 0.90223716E-01 0.40815501E+03</pdfrwt>
<pdfrwt beam="2">  1       21 0.49744563E-01 0.40815501E+03</pdfrwt>
<totfact> 0.35657358E+03</totfact>
</mgrwt>
</event>
<event>
 4    1  0.4676529E-002  0.5770797E+03  0.7818608E-02  0.9954133E-01
         21   -1    0    0  503  502  0.00000000000E+00  0.00000000000E+00  0.72374557310E+03  0.72374557310E+03  0.00000000000E+00 0.  1.
         21   -1    0    0  501  503 -0.00000000000E+00 -0.00000000000E+00 -0.62819946183E+03  0.62819946183E+03  0.00000000000E+00 0. -1.
    9000007    1    1    2  501    0  0.21812339716E+03 -0.35417959999E+03 -0.30186412048E+03  0.65126258350E+03  0.40000000000E+03 0. -1.
   -9000007    1    1    2    0  502 -0.21812339716E+03  0.35417959999E+03  0.39741023175E+03  0.70068245143E+03  0.40000000000E+03 0.  1.
<mgrwt>
<rscale>  2 0.57707972E+03</rscale>
<asrwt>0</asrwt>
<pdfrwt beam="1">  1       21 0.11134547E+00 0.57707972E+03</pdfrwt>
<pdfrwt beam="2">  1       21 0.96646071E-01 0.57707972E+03</pdfrwt>
<totfact> 0.44810593E+02</totfact>
</mgrwt>
</event>
<event>
 4    1  0.4676529E-002  0.4248407E+03  0.7818608E-02  0.1035502E+00
         21   -1    0    0  503  502  0.00000000000E+00  0.00000000000E+00  0.54303089060E+03  0.54303089060E+03  0.00000000000E+00 0.  1.
         21   -1    0    0  501  503 -0.00000000000E+00 -0.00000000000E+00 -0.37230477144E+03  0.37230477144E+03  0.00000000000E+00 0. -1.
    9000007    1    1    2  501    0 -0.89773654020E+02 -0.11149119396E+03  0.23524609249E+03  0.48562363958E+03  0.40000000000E+03 0.  1.
   -9000007    1    1    2    0  502  0.89773654020E+02  0.11149119396E+03 -0.64519973324E+02  0.42971202246E+03  0.40000000000E+03 0. -1.
<mgrwt>
<rscale>  2 0.42484067E+03</rscale>
<asrwt>0</asrwt>
<pdfrwt beam="1">  1       21 0.83543214E-01 0.42484067E+03</pdfrwt>
<pdfrwt beam="2">  1       21 0.57277657E-01 0.42484067E+03</pdfrwt>
<totfact> 0.31363546E+03</totfact>
</mgrwt>
</event>
<event>
 4    1  0.4676529E-002  0.4220311E+03  0.7818608E-02  0.1036407E+00
         21   -1    0    0  501  502  0.00000000000E+00  0.00000000000E+00  0.68448490499E+03  0.68448490499E+03  0.00000000000E+00 0. -1.
         21   -1    0    0  502  503 -0.00000000000E+00 -0.00000000000E+00 -0.42355590239E+03  0.42355590239E+03  0.00000000000E+00 0. -1.
    9000007    1    1    2  501    0 -0.96014072290E+02 -0.94295181755E+02  0.47451612123E+03  0.63504002448E+03  0.40000000000E+03 0. -1.
   -9000007    1    1    2    0  503  0.96014072290E+02  0.94295181755E+02 -0.21358711863E+03  0.47300078290E+03  0.40000000000E+03 0. -1.
<mgrwt>
<rscale>  2 0.42203114E+03</rscale>
<asrwt>0</asrwt>
<pdfrwt beam="1">  1       21 0.10530537E+00 0.42203114E+03</pdfrwt>
<pdfrwt beam="2">  1       21 0.65162447E-01 0.42203114E+03</pdfrwt>
<totfact> 0.13604164E+03</totfact>
</mgrwt>
</event>
<event>
 4    1  0.4676529E-002  0.5364996E+03  0.7818608E-02  0.1004668E+00
         21   -1    0    0  503  502  0.00000000000E+00  0.00000000000E+00  0.57992152052E+03  0.57992152052E+03  0.00000000000E+00 0.  1.
         21   -1    0    0  501  503 -0.00000000000E+00 -0.00000000000E+00 -0.54826539977E+03  0.54826539977E+03  0.00000000000E+00 0. -1.
    9000007    1    1    2  501    0  0.11249634265E+02 -0.35735867812E+03 -0.15778892428E+03  0.55922189132E+03  0.40000000000E+03 0.  1.
   -9000007    1    1    2    0  502 -0.11249634265E+02  0.35735867812E+03  0.18944504503E+03  0.56896502897E+03  0.40000000000E+03 0.  1.
<mgrwt>
<rscale>  2 0.53649956E+03</rscale>
<asrwt>0</asrwt>
<pdfrwt beam="1">  1       21 0.89218695E-01 0.53649956E+03</pdfrwt>
<pdfrwt beam="2">  1       21 0.84348523E-01 0.53649956E+03</pdfrwt>
<totfact> 0.10793921E+03</totfact>
</mgrwt>
</event>
<event>
 4    1  0.4676529E-002  0.4986622E+03  0.7818608E-02  0.1014129E+00
         21   -1    0    0  501  502  0.00000000000E+00  0.00000000000E+00  0.78959586735E+03  0.78959586735E+03  0.00000000000E+00 0. -1.
         21   -1    0    0  502  503 -0.00000000000E+00 -0.00000000000E+00 -0.31611044662E+03  0.31611044662E+03  0.00000000000E+00 0.  1.
    9000007    1    1    2  501    0 -0.56951250869E+02 -0.29226797917E+03  0.20289677650E+03  0.53835965538E+03  0.40000000000E+03 0.  1.
   -9000007    1    1    2    0  503  0.56951250869E+02  0.29226797917E+03  0.27058864424E+03  0.56734665859E+03  0.40000000000E+03 0. -1.
<mgrwt>
<rscale>  2 0.49866223E+03</rscale>
<asrwt>0</asrwt>
<pdfrwt beam="1">  1       21 0.12147629E+00 0.49866223E+03</pdfrwt>
<pdfrwt beam="2">  1       21 0.48632377E-01 0.49866223E+03</pdfrwt>
<totfact> 0.17434114E+03</totfact>
</mgrwt>
</event>
<event>
 4    1  0.4676529E-002  0.5027170E+03  0.7818608E-02  0.1013072E+00
         21   -1    0    0  501  502  0.00000000000E+00  0.00000000000E+00  0.20266272317E+04  0.20266272317E+04  0.00000000000E+00 0. -1.
         21   -1    0    0  502  503 -0.00000000000E+00 -0.00000000000E+00 -0.12614224174E+03  0.12614224174E+03  0.00000000000E+00 0. -1.
    9000007    1    1    2  501    0 -0.23659088919E+01  0.30449755122E+03  0.83522514710E+03  0.97484634819E+03  0.40000000000E+03 0. -1.
   -9000007    1    1    2    0  503  0.23659088919E+01 -0.30449755122E+03  0.10652598429E+04  0.11779231253E+04  0.40000000000E+03 0. -1.
<mgrwt>
<rscale>  2 0.50271697E+03</rscale>
<asrwt>0</asrwt>
<pdfrwt beam="1">  1       21 0.31178878E+00 0.50271697E+03</pdfrwt>
<pdfrwt beam="2">  1       21 0.19406500E-01 0.50271697E+03</pdfrwt>
<totfact> 0.55137156E+02</totfact>
</mgrwt>
</event>
<event>
 4    1  0.4676529E-002  0.5776581E+03  0.7818608E-02  0.9952874E-01
         21   -1    0    0  501  502  0.00000000000E+00  0.00000000000E+00  0.27550661667E+04  0.27550661667E+04  0.00000000000E+00 0.  1.
         21   -1    0    0  502  503 -0.00000000000E+00 -0.00000000000E+00 -0.14406935412E+03  0.14406935412E+03  0.00000000000E+00 0.  1.
    9000007    1    1    2  501    0  0.62139631430E+02 -0.41210135203E+03  0.18840662387E+04  0.19706330074E+04  0.40000000000E+03 0.  1.
   -9000007    1    1    2    0  503 -0.62139631430E+02  0.41210135203E+03  0.72693057387E+03  0.92850251339E+03  0.40000000000E+03 0.  1.
<mgrwt>
<rscale>  2 0.57765808E+03</rscale>
<asrwt>0</asrwt>
<pdfrwt beam="1">  1       21 0.42385629E+00 0.57765808E+03</pdfrwt>
<pdfrwt beam="2">  1       21 0.22164518E-01 0.57765808E+03</pdfrwt>
<totfact> 0.81073769E+01</totfact>
</mgrwt>
</event>
<event>
 4    1  0.4676529E-002  0.4079915E+03  0.7818608E-02  0.1041047E+00
         21   -1    0    0  501  502  0.00000000000E+00  0.00000000000E+00  0.52079024087E+03  0.52079024087E+03  0.00000000000E+00 0. -1.
         21   -1    0    0  502  503 -0.00000000000E+00 -0.00000000000E+00 -0.68652865238E+03  0.68652865238E+03  0.00000000000E+00 0. -1.
    9000007    1    1    2  501    0 -0.80290264506E+02 -0.32438336721E+01  0.35843624269E+03  0.54307788493E+03  0.40000000000E+03 0. -1.
   -9000007    1    1    2    0  503  0.80290264506E+02  0.32438336721E+01 -0.52417465420E+03  0.66424100832E+03  0.40000000000E+03 0. -1.
<mgrwt>
<rscale>  2 0.40799148E+03</rscale>
<asrwt>0</asrwt>
<pdfrwt beam="1">  1       21 0.80121576E-01 0.40799148E+03</pdfrwt>
<pdfrwt beam="2">  1       21 0.10561979E+00 0.40799148E+03</pdfrwt>
<totfact> 0.85157585E+02</totfact>
</mgrwt>
</event>
<event>
 4    1  0.4676529E-002  0.4392471E+03  0.7818608E-02  0.1030978E+00
         21   -1    0    0  501  502  0.00000000000E+00  0.00000000000E+00  0.16842068208E+03  0.16842068208E+03  0.00000000000E+00 0.  1.
         21   -1    0    0  502  503 -0.00000000000E+00 -0.00000000000E+00 -0.15872692475E+04  0.15872692475E+04  0.00000000000E+00 0. -1.
    9000007    1    1    2  501    0  0.11483393368E+03  0.14053901348E+03 -0.24634560651E+03  0.50361116397E+03  0.40000000000E+03 0.  1.
   -9000007    1    1    2    0  503 -0.11483393368E+03 -0.14053901348E+03 -0.11725029589E+04  0.12520787656E+04  0.40000000000E+03 0. -1.
<mgrwt>
<rscale>  2 0.43924714E+03</rscale>
<asrwt>0</asrwt>
<pdfrwt beam="1">  1       21 0.25910875E-01 0.43924714E+03</pdfrwt>
<pdfrwt beam="2">  1       21 0.24419526E+00 0.43924714E+03</pdfrwt>
<totfact> 0.83923729E+02</totfact>
</mgrwt>
</event>
<event>
 4    1  0.4676529E-002  0.5720582E+03  0.7818608E-02  0.9965134E-01
         21   -1    0    0  503  502  0.00000000000E+00  0.00000000000E+00  0.63350060389E+03  0.63350060389E+03  0.00000000000E+00 0.  1.
         21   -1    0    0  501  503 -0.00000000000E+00 -0.00000000000E+00 -0.52225454484E+03  0.52225454484E+03  0.00000000000E+00 0.  1.
    9000007    1    1    2  501    0  0.30695290188E+03 -0.27024165526E+03 -0.46395567689E+01  0.57207705923E+03  0.40000000000E+03 0.  1.
   -9000007    1    1    2    0  502 -0.30695290188E+03  0.27024165526E+03  0.11588561583E+03  0.58367808950E+03  0.40000000000E+03 0.  1.
<mgrwt>
<rscale>  2 0.57205825E+03</rscale>
<asrwt>0</asrwt>
<pdfrwt beam="1">  1       21 0.97461631E-01 0.57205825E+03</pdfrwt>
<pdfrwt beam="2">  1       21 0.80346853E-01 0.57205825E+03</pdfrwt>
<totfact> 0.96673049E+02</totfact>
</mgrwt>
</event>
<event>
 4    1  0.4676529E-002  0.4714386E+03  0.7818608E-02  0.1021515E+00
         21   -1    0    0  503  502  0.00000000000E+00  0.00000000000E+00  0.25462388371E+03  0.25462388371E+03  0.00000000000E+00 0. -1.
         21   -1    0    0  501  503 -0.00000000000E+00 -0.00000000000E+00 -0.13029904557E+04  0.13029904557E+04  0.00000000000E+00 0. -1.
    9000007    1    1    2  501    0  0.22170447259E+03  0.11446188317E+03 -0.97164171546E+03  0.10799731567E+04  0.40000000000E+03 0. -1.
   -9000007    1    1    2    0  502 -0.22170447259E+03 -0.11446188317E+03 -0.76724856543E+02  0.47764118277E+03  0.40000000000E+03 0. -1.
<mgrwt>
<rscale>  2 0.47143864E+03</rscale>
<asrwt>0</asrwt>
<pdfrwt beam="1">  1       21 0.39172905E-01 0.47143864E+03</pdfrwt>
<pdfrwt beam="2">  1       21 0.20046007E+00 0.47143864E+03</pdfrwt>
<totfact> 0.68729343E+02</totfact>
</mgrwt>
</event>
<event>
 4    1  0.4676529E-002  0.4007708E+03  0.7818608E-02  0.1043513E+00
         21   -1    0    0  503  502  0.00000000000E+00  0.00000000000E+00  0.52844620250E+03  0.52844620250E+03  0.00000000000E+00 0. -1.
         21   -1    0    0  501  503 -0.00000000000E+00 -0.00000000000E+00 -0.46612263594E+03  0.46612263594E+03  0.00000000000E+00 0. -1.
    9000007    1    1    2  501    0  0.22955997942E+02 -0.95001627172E+01 -0.26216630976E+03  0.47890333566E+03  0.40000000000E+03 0. -1.
   -9000007    1    1    2    0  502 -0.22955997942E+02  0.95001627172E+01  0.32448987632E+03  0.51566550279E+03  0.40000000000E+03 0. -1.
<mgrwt>
<rscale>  2 0.40077080E+03</rscale>
<asrwt>0</asrwt>
<pdfrwt beam="1">  1       21 0.81299416E-01 0.40077080E+03</pdfrwt>
<pdfrwt beam="2">  1       21 0.71711175E-01 0.40077080E+03</pdfrwt>
<totfact> 0.20512666E+03</totfact>
</mgrwt>
</event>
<event>
 4    1  0.4676529E-002  0.4296924E+03  0.7818608E-02  0.1033957E+00
         21   -1    0    0  503  502  0.00000000000E+00  0.00000000000E+00  0.74804021632E+03  0.74804021632E+03  0.00000000000E+00 0.  1.
         21   -1    0    0  501  503 -0.00000000000E+00 -0.00000000000E+00 -0.25996507640E+03  0.25996507640E+03  0.00000000000E+00 0.  1.
    9000007    1    1    2  501    0 -0.12107528061E+03 -0.99881522851E+02  0.13072897286E+03  0.44913873862E+03  0.40000000000E+03 0.  1.
   -9000007    1    1    2    0  502  0.12107528061E+03  0.99881522851E+02  0.35734616706E+03  0.55886655410E+03  0.40000000000E+03 0.  1.
<mgrwt>
<rscale>  2 0.42969238E+03</rscale>
<asrwt>0</asrwt>
<pdfrwt beam="1">  1       21 0.11508311E+00 0.42969238E+03</pdfrwt>
<pdfrwt beam="2">  1       21 0.39994627E-01 0.42969238E+03</pdfrwt>
<totfact> 0.30848704E+03</totfact>
</mgrwt>
</event>
<event>
 4    1  0.4676529E-002  0.4597588E+03  0.7818608E-02  0.1024851E+00
         21   -1    0    0  501  502  0.00000000000E+00  0.00000000000E+00  0.12143909274E+04  0.12143909274E+04  0.00000000000E+00 0. -1.
         21   -1    0    0  502  503 -0.00000000000E+00 -0.00000000000E+00 -0.28011625928E+03  0.28011625928E+03  0.00000000000E+00 0. -1.
    9000007    1    1    2  501    0  0.18781940803E+03 -0.12689374038E+03  0.92693299671E+03  0.10346897756E+04  0.40000000000E+03 0. -1.
   -9000007    1    1    2    0  503 -0.18781940803E+03  0.12689374038E+03  0.73416714084E+01  0.45981741107E+03  0.40000000000E+03 0. -1.
<mgrwt>
<rscale>  2 0.45975880E+03</rscale>
<asrwt>0</asrwt>
<pdfrwt beam="1">  1       21 0.18682937E+00 0.45975880E+03</pdfrwt>
<pdfrwt beam="2">  1       21 0.43094810E-01 0.45975880E+03</pdfrwt>
<totfact> 0.70183273E+02</totfact>
</mgrwt>
</event>
<event>
 4    1  0.4676529E-002  0.4136431E+03  0.7818608E-02  0.1039155E+00
         21   -1    0    0  503  502  0.00000000000E+00  0.00000000000E+00  0.11212151493E+03  0.11212151493E+03  0.00000000000E+00 0.  1.
         21   -1    0    0  501  503 -0.00000000000E+00 -0.00000000000E+00 -0.18682579226E+04  0.18682579226E+04  0.00000000000E+00 0.  1.
    9000007    1    1    2  501    0 -0.57000585990E+02 -0.88608967009E+02 -0.13018660383E+04  0.13659999259E+04  0.40000000000E+03 0.  1.
   -9000007    1    1    2    0  502  0.57000585990E+02  0.88608967009E+02 -0.45427036934E+03  0.61437951162E+03  0.40000000000E+03 0.  1.
<mgrwt>
<rscale>  2 0.41364310E+03</rscale>
<asrwt>0</asrwt>
<pdfrwt beam="1">  1       21 0.17249465E-01 0.41364310E+03</pdfrwt>
<pdfrwt beam="2">  1       21 0.28742427E+00 0.41364310E+03</pdfrwt>
<totfact> 0.10130912E+03</totfact>
</mgrwt>
</event>
<event>
 4    1  0.4676529E-002  0.4281681E+03  0.7818608E-02  0.1034440E+00
         21   -1    0    0  503  502  0.00000000000E+00  0.00000000000E+00  0.20405780672E+03  0.20405780672E+03  0.00000000000E+00 0.  1.
         21   -1    0    0  501  503 -0.00000000000E+00 -0.00000000000E+00 -0.18477080450E+04  0.18477080450E+04  0.00000000000E+00 0.  1.
    9000007    1    1    2  501    0 -0.13593826889E+03  0.69632764557E+02 -0.15571546638E+04  0.16149484765E+04  0.40000000000E+03 0.  1.
   -9000007    1    1    2    0  502  0.13593826889E+03 -0.69632764557E+02 -0.86495574452E+02  0.43681737517E+03  0.40000000000E+03 0.  1.
<mgrwt>
<rscale>  2 0.42816812E+03</rscale>
<asrwt>0</asrwt>
<pdfrwt beam="1">  1       21 0.31393508E-01 0.42816812E+03</pdfrwt>
<pdfrwt beam="2">  1       21 0.28426278E+00 0.42816812E+03</pdfrwt>
<totfact> 0.33019523E+02</totfact>
</mgrwt>
</event>
<event>
 4    1  0.4676529E-002  0.4205638E+03  0.7818608E-02  0.1036883E+00
         21   -1    0    0  501  502  0.00000000000E+00  0.00000000000E+00  0.21593875465E+03  0.21593875465E+03  0.00000000000E+00 0.  1.
         21   -1    0    0  502  503 -0.00000000000E+00 -0.00000000000E+00 -0.83149969281E+03  0.83149969281E+03  0.00000000000E+00 0.  1.
    9000007    1    1    2  501    0  0.14045831344E+02 -0.12913804124E+03 -0.37175332658E+03  0.56131493379E+03  0.40000000000E+03 0. -1.
   -9000007    1    1    2    0  503 -0.14045831344E+02  0.12913804124E+03 -0.24380761158E+03  0.48612351367E+03  0.40000000000E+03 0. -1.
<mgrwt>
<rscale>  2 0.42056381E+03</rscale>
<asrwt>0</asrwt>
<pdfrwt beam="1">  1       21 0.33221347E-01 0.42056381E+03</pdfrwt>
<pdfrwt beam="2">  1       21 0.12792303E+00 0.42056381E+03</pdfrwt>
<totfact> 0.34485889E+03</totfact>
</mgrwt>
</event>
<event>
 4    1  0.4676529E-002  0.4770597E+03  0.7818608E-02  0.1019946E+00
         21   -1    0    0  503  502  0.00000000000E+00  0.00000000000E+00  0.43645179602E+03  0.43645179602E+03  0.00000000000E+00 0.  1.
         21   -1    0    0  501  503 -0.00000000000E+00 -0.00000000000E+00 -0.11646691446E+04  0.11646691446E+04  0.00000000000E+00 0. -1.
    9000007    1    1    2  501    0  0.22903947127E+03  0.12299134434E+03 -0.95904948430E+03  0.10711497858E+04  0.40000000000E+03 0. -1.
   -9000007    1    1    2    0  502 -0.22903947127E+03 -0.12299134434E+03  0.23083213567E+03  0.52997115491E+03  0.40000000000E+03 0.  1.
<mgrwt>
<rscale>  2 0.47705969E+03</rscale>
<asrwt>0</asrwt>
<pdfrwt beam="1">  1       21 0.67146431E-01 0.47705969E+03</pdfrwt>
<pdfrwt beam="2">  1       21 0.17917987E+00 0.47705969E+03</pdfrwt>
<totfact> 0.30267249E+02</totfact>
</mgrwt>
</event>
<event>
 4    1  0.4676529E-002  0.4093436E+03  0.7818608E-02  0.1040592E+00
         21   -1    0    0  501  502  0.00000000000E+00  0.00000000000E+00  0.20682460842E+03  0.20682460842E+03  0.00000000000E+00 0. -1.
         21   -1    0    0  502  503 -0.00000000000E+00 -0.00000000000E+00 -0.10578402281E+04  0.10578402281E+04  0.00000000000E+00 0. -1.
    9000007    1    1    2  501    0  0.77439520750E+02 -0.39563755900E+02 -0.11953965850E+03  0.42644096908E+03  0.40000000000E+03 0. -1.
   -9000007    1    1    2    0  503 -0.77439520750E+02  0.39563755900E+02 -0.73147596117E+03  0.83822386743E+03  0.40000000000E+03 0. -1.
<mgrwt>
<rscale>  2 0.40934358E+03</rscale>
<asrwt>0</asrwt>
<pdfrwt beam="1">  1       21 0.31819171E-01 0.40934358E+03</pdfrwt>
<pdfrwt beam="2">  1       21 0.16274465E+00 0.40934358E+03</pdfrwt>
<totfact> 0.19818778E+03</totfact>
</mgrwt>
</event>
<event>
 4    1  0.4676529E-002  0.4856607E+03  0.7818608E-02  0.1017591E+00
         21   -1    0    0  501  502  0.00000000000E+00  0.00000000000E+00  0.29106737053E+04  0.29106737053E+04  0.00000000000E+00 0. -1.
         21   -1    0    0  502  503 -0.00000000000E+00 -0.00000000000E+00 -0.90503699127E+02  0.90503699127E+02  0.00000000000E+00 0.  1.
    9000007    1    1    2  501    0  0.15928572418E+03 -0.22470948806E+03  0.18954571267E+04  0.19566869997E+04  0.40000000000E+03 0. -1.
   -9000007    1    1    2    0  503 -0.15928572418E+03  0.22470948806E+03  0.92471287955E+03  0.10444904047E+04  0.40000000000E+03 0.  1.
<mgrwt>
<rscale>  2 0.48566068E+03</rscale>
<asrwt>0</asrwt>
<pdfrwt beam="1">  1       21 0.44779588E+00 0.48566068E+03</pdfrwt>
<pdfrwt beam="2">  1       21 0.13923648E-01 0.48566068E+03</pdfrwt>
<totfact> 0.14230241E+02</totfact>
</mgrwt>
</event>
<event>
 4    1  0.4676529E-002  0.5264559E+03  0.7818608E-02  0.1007095E+00
         21   -1    0    0  503  502  0.00000000000E+00  0.00000000000E+00  0.14029682170E+04  0.14029682170E+04  0.00000000000E+00 0.  1.
         21   -1    0    0  501  503 -0.00000000000E+00 -0.00000000000E+00 -0.27958656539E+03  0.27958656539E+03  0.00000000000E+00 0.  1.
    9000007    1    1    2  501    0 -0.17718904065E+03  0.29284781647E+03  0.10598363533E+03  0.53701799849E+03  0.40000000000E+03 0.  1.
   -9000007    1    1    2    0  502  0.17718904065E+03 -0.29284781647E+03  0.10173980162E+04  0.11455367839E+04  0.40000000000E+03 0.  1.
<mgrwt>
<rscale>  2 0.52645589E+03</rscale>
<asrwt>0</asrwt>
<pdfrwt beam="1">  1       21 0.21584126E+00 0.52645589E+03</pdfrwt>
<pdfrwt beam="2">  1       21 0.43013318E-01 0.52645589E+03</pdfrwt>
<totfact> 0.43780343E+02</totfact>
</mgrwt>
</event>
<event>
 4    1  0.4676529E-002  0.4243715E+03  0.7818608E-02  0.1035653E+00
         21   -1    0    0  501  502  0.00000000000E+00  0.00000000000E+00  0.57050218088E+03  0.57050218088E+03  0.00000000000E+00 0. -1.
         21   -1    0    0  502  503 -0.00000000000E+00 -0.00000000000E+00 -0.32287819450E+03  0.32287819450E+03  0.00000000000E+00 0. -1.
    9000007    1    1    2  501    0  0.19896809710E+02 -0.14033983191E+03  0.19054825199E+03  0.46518790590E+03  0.40000000000E+03 0. -1.
   -9000007    1    1    2    0  503 -0.19896809710E+02  0.14033983191E+03  0.57075734390E+02  0.42819246947E+03  0.40000000000E+03 0. -1.
<mgrwt>
<rscale>  2 0.42437148E+03</rscale>
<asrwt>0</asrwt>
<pdfrwt beam="1">  1       21 0.87769566E-01 0.42437148E+03</pdfrwt>
<pdfrwt beam="2">  1       21 0.49673569E-01 0.42437148E+03</pdfrwt>
<totfact> 0.37938690E+03</totfact>
</mgrwt>
</event>
<event>
 4    1  0.4676529E-002  0.4091101E+03  0.7818608E-02  0.1040670E+00
         21   -1    0    0  503  502  0.00000000000E+00  0.00000000000E+00  0.16382555236E+04  0.16382555236E+04  0.00000000000E+00 0. -1.
         21   -1    0    0  501  503 -0.00000000000E+00 -0.00000000000E+00 -0.10307571016E+03  0.10307571016E+03  0.00000000000E+00 0. -1.
    9000007    1    1    2  501    0 -0.30924470993E+02 -0.80092124955E+02  0.68571457910E+03  0.79848328434E+03  0.40000000000E+03 0.  1.
   -9000007    1    1    2    0  502  0.30924470993E+02  0.80092124955E+02  0.84946523437E+03  0.94284794945E+03  0.40000000000E+03 0.  1.
<mgrwt>
<rscale>  2 0.40911010E+03</rscale>
<asrwt>0</asrwt>
<pdfrwt beam="1">  1       21 0.25203929E+00 0.40911010E+03</pdfrwt>
<pdfrwt beam="2">  1       21 0.15857803E-01 0.40911010E+03</pdfrwt>
<totfact> 0.19429763E+03</totfact>
</mgrwt>
</event>
<event>
 4    1  0.4676529E-002  0.4784261E+03  0.7818608E-02  0.1019569E+00
         21   -1    0    0  501  502  0.00000000000E+00  0.00000000000E+00  0.19197986392E+04  0.19197986392E+04  0.00000000000E+00 0.  1.
         21   -1    0    0  502  503 -0.00000000000E+00 -0.00000000000E+00 -0.12670846128E+03  0.12670846128E+03  0.00000000000E+00 0.  1.
    9000007    1    1    2  501    0  0.14658881939E+03  0.21772287627E+03  0.11451892106E+04  0.12411083196E+04  0.40000000000E+03 0.  1.
   -9000007    1    1    2    0  503 -0.14658881939E+03 -0.21772287627E+03  0.64790096726E+03  0.80539878085E+03  0.40000000000E+03 0.  1.
<mgrwt>
<rscale>  2 0.47842610E+03</rscale>
<asrwt>0</asrwt>
<pdfrwt beam="1">  1       21 0.29535362E+00 0.47842610E+03</pdfrwt>
<pdfrwt beam="2">  1       21 0.19493611E-01 0.47842610E+03</pdfrwt>
<totfact> 0.69570941E+02</totfact>
</mgrwt>
</event>
<event>
 4    1  0.4676529E-002  0.4227855E+03  0.7818608E-02  0.1036164E+00
         21   -1    0    0  501  502  0.00000000000E+00  0.00000000000E+00  0.48866224005E+03  0.48866224005E+03  0.00000000000E+00 0.  1.
         21   -1    0    0  502  503 -0.00000000000E+00 -0.00000000000E+00 -0.36858936228E+03  0.36858936228E+03  0.00000000000E+00 0.  1.
    9000007    1    1    2  501    0 -0.29895529960E+02  0.13361839099E+03  0.97392344487E+02  0.43385814028E+03  0.40000000000E+03 0.  1.
   -9000007    1    1    2    0  503  0.29895529960E+02 -0.13361839099E+03  0.22680533282E+02  0.42339346206E+03  0.40000000000E+03 0.  1.
<mgrwt>
<rscale>  2 0.42278555E+03</rscale>
<asrwt>0</asrwt>
<pdfrwt beam="1">  1       21 0.75178806E-01 0.42278555E+03</pdfrwt>
<pdfrwt beam="2">  1       21 0.56706056E-01 0.42278555E+03</pdfrwt>
<totfact> 0.40897784E+03</totfact>
</mgrwt>
</event>
<event>
 4    1  0.4676529E-002  0.4141147E+03  0.7818608E-02  0.1038999E+00
         21   -1    0    0  503  502  0.00000000000E+00  0.00000000000E+00  0.75837789433E+03  0.75837789433E+03  0.00000000000E+00 0. -1.
         21   -1    0    0  501  503 -0.00000000000E+00 -0.00000000000E+00 -0.40866920626E+03  0.40866920626E+03  0.00000000000E+00 0. -1.
    9000007    1    1    2  501    0 -0.10849140018E+02  0.10664547278E+03 -0.21513445137E+03  0.46666239711E+03  0.40000000000E+03 0. -1.
   -9000007    1    1    2    0  502  0.10849140018E+02 -0.10664547278E+03  0.56484313945E+03  0.70038470349E+03  0.40000000000E+03 0. -1.
<mgrwt>
<rscale>  2 0.41411467E+03</rscale>
<asrwt>0</asrwt>
<pdfrwt beam="1">  1       21 0.11667352E+00 0.41411467E+03</pdfrwt>
<pdfrwt beam="2">  1       21 0.62872186E-01 0.41411467E+03</pdfrwt>
<totfact> 0.11458708E+03</totfact>
</mgrwt>
</event>
<event>
 4    1  0.4676529E-002  0.5389220E+03  0.7818608E-02  0.1004091E+00
         21   -1    0    0  501  502  0.00000000000E+00  0.00000000000E+00  0.49377784586E+03  0.49377784586E+03  0.00000000000E+00 0.  1.
         21   -1    0    0  502  503 -0.00000000000E+00 -0.00000000000E+00 -0.66316709452E+03  0.66316709452E+03  0.00000000000E+00 0. -1.
    9000007    1    1    2  501    0  0.27307597595E+03  0.23636080855E+03 -0.27919720646E+03  0.60694975126E+03  0.40000000000E+03 0. -1.
   -9000007    1    1    2    0  503 -0.27307597595E+03 -0.23636080855E+03  0.10980795780E+03  0.54999518912E+03  0.40000000000E+03 0.  1.
<mgrwt>
<rscale>  2 0.53892200E+03</rscale>
<asrwt>0</asrwt>
<pdfrwt beam="1">  1       21 0.75965823E-01 0.53892200E+03</pdfrwt>
<pdfrwt beam="2">  1       21 0.10202571E+00 0.53892200E+03</pdfrwt>
<totfact> 0.99493127E+02</totfact>
</mgrwt>
</event>
<event>
 4    1  0.4676529E-002  0.4135470E+03  0.7818608E-02  0.1039187E+00
         21   -1    0    0  501  502  0.00000000000E+00  0.00000000000E+00  0.16344462381E+04  0.16344462381E+04  0.00000000000E+00 0. -1.
         21   -1    0    0  502  503 -0.00000000000E+00 -0.00000000000E+00 -0.10980408307E+03  0.10980408307E+03  0.00000000000E+00 0. -1.
    9000007    1    1    2  501    0 -0.21170116853E+01  0.10496024166E+03  0.95153558377E+03  0.10375167956E+04  0.40000000000E+03 0. -1.
   -9000007    1    1    2    0  503  0.21170116853E+01 -0.10496024166E+03  0.57310657127E+03  0.70673352553E+03  0.40000000000E+03 0. -1.
<mgrwt>
<rscale>  2 0.41354702E+03</rscale>
<asrwt>0</asrwt>
<pdfrwt beam="1">  1       21 0.25145325E+00 0.41354702E+03</pdfrwt>
<pdfrwt beam="2">  1       21 0.16892937E-01 0.41354702E+03</pdfrwt>
<totfact> 0.17371750E+03</totfact>
</mgrwt>
</event>
<event>
 4    1  0.4676529E-002  0.4156596E+03  0.7818608E-02  0.1038488E+00
         21   -1    0    0  503  502  0.00000000000E+00  0.00000000000E+00  0.47775333694E+03  0.47775333694E+03  0.00000000000E+00 0.  1.
         21   -1    0    0  501  503 -0.00000000000E+00 -0.00000000000E+00 -0.43381386290E+03  0.43381386290E+03  0.00000000000E+00 0.  1.
    9000007    1    1    2  501    0 -0.86602432086E+02  0.72614801625E+02 -0.16394270524E+03  0.44682222557E+03  0.40000000000E+03 0.  1.
   -9000007    1    1    2    0  502  0.86602432086E+02 -0.72614801625E+02  0.20788217928E+03  0.46474497428E+03  0.40000000000E+03 0.  1.
<mgrwt>
<rscale>  2 0.41565959E+03</rscale>
<asrwt>0</asrwt>
<pdfrwt beam="1">  1       21 0.73500513E-01 0.41565959E+03</pdfrwt>
<pdfrwt beam="2">  1       21 0.66740595E-01 0.41565959E+03</pdfrwt>
<totfact> 0.30172958E+03</totfact>
</mgrwt>
</event>
<event>
 4    1  0.4676529E-002  0.4418092E+03  0.7818608E-02  0.1030193E+00
         21   -1    0    0  503  502  0.00000000000E+00  0.00000000000E+00  0.51258108052E+03  0.51258108052E+03  0.00000000000E+00 0. -1.
         21   -1    0    0  501  503 -0.00000000000E+00 -0.00000000000E+00 -0.64646678727E+03  0.64646678727E+03  0.00000000000E+00 0. -1.
    9000007    1    1    2  501    0  0.13640721520E+03 -0.12879623637E+03 -0.43844359634E+03  0.62243729486E+03  0.40000000000E+03 0. -1.
   -9000007    1    1    2    0  502 -0.13640721520E+03  0.12879623637E+03  0.30455788959E+03  0.53661057293E+03  0.40000000000E+03 0. -1.
<mgrwt>
<rscale>  2 0.44180923E+03</rscale>
<asrwt>0</asrwt>
<pdfrwt beam="1">  1       21 0.78858627E-01 0.44180923E+03</pdfrwt>
<pdfrwt beam="2">  1       21 0.99456429E-01 0.44180923E+03</pdfrwt>
<totfact> 0.10080103E+03</totfact>
</mgrwt>
</event>
<event>
 4    1  0.4676529E-002  0.4214770E+03  0.7818608E-02  0.1036587E+00
         21   -1    0    0  503  502  0.00000000000E+00  0.00000000000E+00  0.26779470686E+03  0.26779470686E+03  0.00000000000E+00 0. -1.
         21   -1    0    0  501  503 -0.00000000000E+00 -0.00000000000E+00 -0.82066682943E+03  0.82066682943E+03  0.00000000000E+00 0. -1.
    9000007    1    1    2  501    0 -0.50851925932E+02 -0.12270680417E+03 -0.51471230890E+03  0.66526057984E+03  0.40000000000E+03 0. -1.
   -9000007    1    1    2    0  502  0.50851925932E+02  0.12270680417E+03 -0.38159813667E+02  0.42320095645E+03  0.40000000000E+03 0. -1.
<mgrwt>
<rscale>  2 0.42147702E+03</rscale>
<asrwt>0</asrwt>
<pdfrwt beam="1">  1       21 0.41199186E-01 0.42147702E+03</pdfrwt>
<pdfrwt beam="2">  1       21 0.12625644E+00 0.42147702E+03</pdfrwt>
<totfact> 0.23007554E+03</totfact>
</mgrwt>
</event>
<event>
 4    1  0.4676529E-002  0.6031273E+03  0.7818608E-02  0.9898939E-01
         21   -1    0    0  503  502  0.00000000000E+00  0.00000000000E+00  0.14919089558E+04  0.14919089558E+04  0.00000000000E+00 0. -1.
         21   -1    0    0  501  503 -0.00000000000E+00 -0.00000000000E+00 -0.28521037450E+03  0.28521037450E+03  0.00000000000E+00 0.  1.
    9000007    1    1    2  501    0  0.21593810358E+03  0.39640035092E+03  0.94183092706E+03  0.11183952780E+04  0.40000000000E+03 0. -1.
   -9000007    1    1    2    0  502 -0.21593810358E+03 -0.39640035092E+03  0.26486765429E+03  0.65872405230E+03  0.40000000000E+03 0.  1.
<mgrwt>
<rscale>  2 0.60312727E+03</rscale>
<asrwt>0</asrwt>
<pdfrwt beam="1">  1       21 0.22952445E+00 0.60312727E+03</pdfrwt>
<pdfrwt beam="2">  1       21 0.43878520E-01 0.60312727E+03</pdfrwt>
<totfact> 0.33234874E+02</totfact>
</mgrwt>
</event>
<event>
 4    1  0.4676529E-002  0.5012935E+03  0.7818608E-02  0.1013442E+00
         21   -1    0    0  501  502  0.00000000000E+00  0.00000000000E+00  0.25703963879E+04  0.25703963879E+04  0.00000000000E+00 0. -1.
         21   -1    0    0  502  503 -0.00000000000E+00 -0.00000000000E+00 -0.97790848174E+02  0.97790848174E+02  0.00000000000E+00 0. -1.
    9000007    1    1    2  501    0  0.11684891199E+03 -0.27864228965E+03  0.12579284907E+04  0.13541341446E+04  0.40000000000E+03 0. -1.
   -9000007    1    1    2    0  503 -0.11684891199E+03  0.27864228965E+03  0.12146770490E+04  0.13140530914E+04  0.40000000000E+03 0. -1.
<mgrwt>
<rscale>  2 0.50129352E+03</rscale>
<asrwt>0</asrwt>
<pdfrwt beam="1">  1       21 0.39544555E+00 0.50129352E+03</pdfrwt>
<pdfrwt beam="2">  1       21 0.15044748E-01 0.50129352E+03</pdfrwt>
<totfact> 0.26993729E+02</totfact>
</mgrwt>
</event>
<event>
 4    1  0.4676529E-002  0.5365051E+03  0.7818608E-02  0.1004667E+00
         21   -1    0    0  501  502  0.00000000000E+00  0.00000000000E+00  0.67040701112E+03  0.67040701112E+03  0.00000000000E+00 0.  1.
         21   -1    0    0  502  503 -0.00000000000E+00 -0.00000000000E+00 -0.43022187653E+03  0.43022187653E+03  0.00000000000E+00 0. -1.
    9000007    1    1    2  501    0 -0.31169605630E+03 -0.17516658523E+03  0.14489781448E+03  0.55572757781E+03  0.40000000000E+03 0.  1.
   -9000007    1    1    2    0  503  0.31169605630E+03  0.17516658523E+03  0.95287320111E+02  0.54490130984E+03  0.40000000000E+03 0. -1.
<mgrwt>
<rscale>  2 0.53650514E+03</rscale>
<asrwt>0</asrwt>
<pdfrwt beam="1">  1       21 0.10313954E+00 0.53650514E+03</pdfrwt>
<pdfrwt beam="2">  1       21 0.66187981E-01 0.53650514E+03</pdfrwt>
<totfact> 0.13248857E+03</totfact>
</mgrwt>
</event>
<event>
 4    1  0.4676529E-002  0.4884716E+03  0.7818608E-02  0.1016833E+00
         21   -1    0    0  501  502  0.00000000000E+00  0.00000000000E+00  0.51354884393E+03  0.51354884393E+03  0.00000000000E+00 0.  1.
         21   -1    0    0  502  503 -0.00000000000E+00 -0.00000000000E+00 -0.72358021636E+03  0.72358021636E+03  0.00000000000E+00 0.  1.
    9000007    1    1    2  501    0 -0.67321549798E+01 -0.28028413993E+03  0.26503318340E+03  0.55574014549E+03  0.40000000000E+03 0.  1.
   -9000007    1    1    2    0  503  0.67321549798E+01  0.28028413993E+03 -0.47506455582E+03  0.68138891480E+03  0.40000000000E+03 0.  1.
<mgrwt>
<rscale>  2 0.48847162E+03</rscale>
<asrwt>0</asrwt>
<pdfrwt beam="1">  1       21 0.79007515E-01 0.48847162E+03</pdfrwt>
<pdfrwt beam="2">  1       21 0.11132003E+00 0.48847162E+03</pdfrwt>
<totfact> 0.74600036E+02</totfact>
</mgrwt>
</event>
<event>
 4    1  0.4676529E-002  0.7455719E+03  0.7818608E-02  0.9642323E-01
         21   -1    0    0  501  502  0.00000000000E+00  0.00000000000E+00  0.91741675077E+03  0.91741675077E+03  0.00000000000E+00 0.  1.
         21   -1    0    0  502  503 -0.00000000000E+00 -0.00000000000E+00 -0.68570390027E+03  0.68570390027E+03  0.00000000000E+00 0. -1.
    9000007    1    1    2  501    0 -0.86837528249E+02 -0.62316664653E+03  0.38928040861E+03  0.84108065142E+03  0.40000000000E+03 0.  1.
   -9000007    1    1    2    0  503  0.86837528249E+02  0.62316664653E+03 -0.15756755811E+03  0.76203999962E+03  0.40000000000E+03 0. -1.
<mgrwt>
<rscale>  2 0.74557188E+03</rscale>
<asrwt>0</asrwt>
<pdfrwt beam="1">  1       21 0.14114104E+00 0.74557188E+03</pdfrwt>
<pdfrwt beam="2">  1       21 0.10549291E+00 0.74557188E+03</pdfrwt>
<totfact> 0.18476157E+02</totfact>
</mgrwt>
</event>
<event>
 4    1  0.4676529E-002  0.5032111E+03  0.7818608E-02  0.1012944E+00
         21   -1    0    0  503  502  0.00000000000E+00  0.00000000000E+00  0.31601631800E+03  0.31601631800E+03  0.00000000000E+00 0. -1.
         21   -1    0    0  501  503 -0.00000000000E+00 -0.00000000000E+00 -0.99793530986E+03  0.99793530986E+03  0.00000000000E+00 0. -1.
    9000007    1    1    2  501    0 -0.17316285223E+03 -0.25146783622E+03 -0.49325982325E+02  0.50562288178E+03  0.40000000000E+03 0. -1.
   -9000007    1    1    2    0  502  0.17316285223E+03  0.25146783622E+03 -0.63259300953E+03  0.80832874608E+03  0.40000000000E+03 0. -1.
<mgrwt>
<rscale>  2 0.50321113E+03</rscale>
<asrwt>0</asrwt>
<pdfrwt beam="1">  1       21 0.48617896E-01 0.50321113E+03</pdfrwt>
<pdfrwt beam="2">  1       21 0.15352851E+00 0.50321113E+03</pdfrwt>
<totfact> 0.93691198E+02</totfact>
</mgrwt>
</event>
<event>
 4    1  0.4676529E-002  0.6045370E+03  0.7818608E-02  0.9896038E-01
         21   -1    0    0  501  502  0.00000000000E+00  0.00000000000E+00  0.90400619348E+03  0.90400619348E+03  0.00000000000E+00 0. -1.
         21   -1    0    0  502  503 -0.00000000000E+00 -0.00000000000E+00 -0.43423795114E+03  0.43423795114E+03  0.00000000000E+00 0.  1.
    9000007    1    1    2  501    0  0.44725530375E+03  0.73672748337E+02  0.41065656140E+03  0.73082404996E+03  0.40000000000E+03 0. -1.
   -9000007    1    1    2    0  503 -0.44725530375E+03 -0.73672748337E+02  0.59111680936E+02  0.60742009466E+03  0.40000000000E+03 0.  1.
<mgrwt>
<rscale>  2 0.60453700E+03</rscale>
<asrwt>0</asrwt>
<pdfrwt beam="1">  1       21 0.13907788E+00 0.60453700E+03</pdfrwt>
<pdfrwt beam="2">  1       21 0.66805839E-01 0.60453700E+03</pdfrwt>
<totfact> 0.59059713E+02</totfact>
</mgrwt>
</event>
<event>
 4    1  0.4676529E-002  0.5549697E+03  0.7818608E-02  0.1000350E+00
         21   -1    0    0  503  502  0.00000000000E+00  0.00000000000E+00  0.80807597016E+03  0.80807597016E+03  0.00000000000E+00 0.  1.
         21   -1    0    0  501  503 -0.00000000000E+00 -0.00000000000E+00 -0.38220367319E+03  0.38220367319E+03  0.00000000000E+00 0. -1.
    9000007    1    1    2  501    0  0.31425004403E+03  0.22189696098E+03  0.24430893088E+03  0.60636474598E+03  0.40000000000E+03 0.  1.
   -9000007    1    1    2    0  502 -0.31425004403E+03 -0.22189696098E+03  0.18156336609E+03  0.58391489737E+03  0.40000000000E+03 0. -1.
<mgrwt>
<rscale>  2 0.55496969E+03</rscale>
<asrwt>0</asrwt>
<pdfrwt beam="1">  1       21 0.12431938E+00 0.55496969E+03</pdfrwt>
<pdfrwt beam="2">  1       21 0.58800565E-01 0.55496969E+03</pdfrwt>
<totfact> 0.10700306E+03</totfact>
</mgrwt>
</event>
