<event>
 4    1  0.4689683E-002  0.4004974E+03  0.7818608E-02  0.1043608E+00
         21   -1    0    0  503  502  0.00000000000E+00  0.00000000000E+00  0.11031913585E+03  0.11031913585E+03  0.00000000000E+00 0.  1.
         21   -1    0    0  501  503 -0.00000000000E+00 -0.00000000000E+00 -0.15249459943E+04  0.15249459943E+04  0.00000000000E+00 0.  1.
    9000007    1    1    2  501    0 -0.17501323805E+02 -0.95838224527E+01 -0.53088933503E+03  0.66501250517E+03  0.40000000000E+03 0. -1.
   -9000007    1    1    2    0  502  0.17501323805E+02  0.95838224527E+01 -0.88373752340E+03  0.97025262496E+03  0.40000000000E+03 0. -1.
<mgrwt>
<rscale>  2 0.40049737E+03</rscale>
<asrwt>0</asrwt>
<pdfrwt beam="1">  1       21 0.16972175E-01 0.40049737E+03</pdfrwt>
<pdfrwt beam="2">  1       21 0.23460707E+00 0.40049737E+03</pdfrwt>
<totfact> 0.22016904E+03</totfact>
</mgrwt>
</event>
<event>
 4    1  0.4689683E-002  0.4679328E+03  0.7818608E-02  0.1022505E+00
         21   -1    0    0  501  502  0.00000000000E+00  0.00000000000E+00  0.19694278465E+03  0.19694278465E+03  0.00000000000E+00 0.  1.
         21   -1    0    0  502  503 -0.00000000000E+00 -0.00000000000E+00 -0.11921612107E+04  0.11921612107E+04  0.00000000000E+00 0.  1.
    9000007    1    1    2  501    0  0.24113766804E+03 -0.28525910182E+02 -0.31728296961E+03  0.56535792672E+03  0.40000000000E+03 0.  1.
   -9000007    1    1    2    0  503 -0.24113766804E+03  0.28525910182E+02 -0.67793545645E+03  0.82374606864E+03  0.40000000000E+03 0.  1.
<mgrwt>
<rscale>  2 0.46793280E+03</rscale>
<asrwt>0</asrwt>
<pdfrwt beam="1">  1       21 0.30298890E-01 0.46793280E+03</pdfrwt>
<pdfrwt beam="2">  1       21 0.18340942E+00 0.46793280E+03</pdfrwt>
<totfact> 0.15125877E+03</totfact>
</mgrwt>
</event>
<event>
 4    1  0.4689683E-002  0.4559299E+03  0.7818608E-02  0.1025968E+00
         21   -1    0    0  503  502  0.00000000000E+00  0.00000000000E+00  0.15616199684E+03  0.15616199684E+03  0.00000000000E+00 0. -1.
         21   -1    0    0  501  503 -0.00000000000E+00 -0.00000000000E+00 -0.16560044015E+04  0.16560044015E+04  0.00000000000E+00 0. -1.
    9000007    1    1    2  501    0 -0.72845437785E+02 -0.20631430410E+03 -0.11512446363E+04  0.12382391782E+04  0.40000000000E+03 0. -1.
   -9000007    1    1    2    0  502  0.72845437785E+02  0.20631430410E+03 -0.34859776836E+03  0.57392722012E+03  0.40000000000E+03 0. -1.
<mgrwt>
<rscale>  2 0.45592987E+03</rscale>
<asrwt>0</asrwt>
<pdfrwt beam="1">  1       21 0.24024923E-01 0.45592987E+03</pdfrwt>
<pdfrwt beam="2">  1       21 0.25476991E+00 0.45592987E+03</pdfrwt>
<totfact> 0.82996995E+02</totfact>
</mgrwt>
</event>
<event>
 4    1  0.4689683E-002  0.4019021E+03  0.7818608E-02  0.1043123E+00
         21   -1    0    0  503  502  0.00000000000E+00  0.00000000000E+00  0.40466030859E+03  0.40466030859E+03  0.00000000000E+00 0.  1.
         21   -1    0    0  501  503 -0.00000000000E+00 -0.00000000000E+00 -0.67632769272E+03  0.67632769272E+03  0.00000000000E+00 0.  1.
    9000007    1    1    2  501    0 -0.53967625554E+01  0.38680549856E+02 -0.48183796642E+03  0.62744970784E+03  0.40000000000E+03 0.  1.
   -9000007    1    1    2    0  502  0.53967625554E+01 -0.38680549856E+02  0.21017058229E+03  0.45353829347E+03  0.40000000000E+03 0.  1.
<mgrwt>
<rscale>  2 0.40190211E+03</rscale>
<asrwt>0</asrwt>
<pdfrwt beam="1">  1       21 0.62255433E-01 0.40190211E+03</pdfrwt>
<pdfrwt beam="2">  1       21 0.10405041E+00 0.40190211E+03</pdfrwt>
<totfact> 0.15632900E+03</totfact>
</mgrwt>
</event>
<event>
 4    1  0.4689683E-002  0.4129964E+03  0.7818608E-02  0.1039370E+00
         21   -1    0    0  503  502  0.00000000000E+00  0.00000000000E+00  0.19876934804E+03  0.19876934804E+03  0.00000000000E+00 0. -1.
         21   -1    0    0  501  503 -0.00000000000E+00 -0.00000000000E+00 -0.16696326175E+04  0.16696326175E+04  0.00000000000E+00 0. -1.
    9000007    1    1    2  501    0  0.10055268728E+03  0.21334838841E+02 -0.13867301714E+04  0.14469231447E+04  0.40000000000E+03 0. -1.
   -9000007    1    1    2    0  502 -0.10055268728E+03 -0.21334838841E+02 -0.84133098068E+02  0.42147882089E+03  0.40000000000E+03 0. -1.
<mgrwt>
<rscale>  2 0.41299639E+03</rscale>
<asrwt>0</asrwt>
<pdfrwt beam="1">  1       21 0.30579899E-01 0.41299639E+03</pdfrwt>
<pdfrwt beam="2">  1       21 0.25686656E+00 0.41299639E+03</pdfrwt>
<totfact> 0.51370101E+02</totfact>
</mgrwt>
</event>
<event>
 4    1  0.4689683E-002  0.4043023E+03  0.7818608E-02  0.1042300E+00
         21   -1    0    0  503  502  0.00000000000E+00  0.00000000000E+00  0.89599927442E+03  0.89599927442E+03  0.00000000000E+00 0. -1.
         21   -1    0    0  501  503 -0.00000000000E+00 -0.00000000000E+00 -0.20447470584E+03  0.20447470584E+03  0.00000000000E+00 0. -1.
    9000007    1    1    2  501    0 -0.26755385567E+01  0.58763644752E+02  0.16510843776E+03  0.43671629311E+03  0.40000000000E+03 0. -1.
   -9000007    1    1    2    0  502  0.26755385567E+01 -0.58763644752E+02  0.52641613082E+03  0.66375768714E+03  0.40000000000E+03 0. -1.
<mgrwt>
<rscale>  2 0.40430227E+03</rscale>
<asrwt>0</asrwt>
<pdfrwt beam="1">  1       21 0.13784604E+00 0.40430227E+03</pdfrwt>
<pdfrwt beam="2">  1       21 0.31457648E-01 0.40430227E+03</pdfrwt>
<totfact> 0.31872602E+03</totfact>
</mgrwt>
</event>
<event>
 4    1  0.4689683E-002  0.4768080E+03  0.7818608E-02  0.1020016E+00
         21   -1    0    0  501  502  0.00000000000E+00  0.00000000000E+00  0.60145478581E+03  0.60145478581E+03  0.00000000000E+00 0. -1.
         21   -1    0    0  502  503 -0.00000000000E+00 -0.00000000000E+00 -0.40050243316E+03  0.40050243316E+03  0.00000000000E+00 0. -1.
    9000007    1    1    2  501    0  0.20142741826E+03  0.16362425522E+03 -0.18290780552E+02  0.47715873080E+03  0.40000000000E+03 0. -1.
   -9000007    1    1    2    0  503 -0.20142741826E+03 -0.16362425522E+03  0.21924313320E+03  0.52479848817E+03  0.40000000000E+03 0. -1.
<mgrwt>
<rscale>  2 0.47680803E+03</rscale>
<asrwt>0</asrwt>
<pdfrwt beam="1">  1       21 0.92531506E-01 0.47680803E+03</pdfrwt>
<pdfrwt beam="2">  1       21 0.61615759E-01 0.47680803E+03</pdfrwt>
<totfact> 0.20618051E+03</totfact>
</mgrwt>
</event>
<event>
 4    1  0.4689683E-002  0.4226524E+03  0.7818608E-02  0.1036206E+00
         21   -1    0    0  503  502  0.00000000000E+00  0.00000000000E+00  0.71491836771E+03  0.71491836771E+03  0.00000000000E+00 0. -1.
         21   -1    0    0  501  503 -0.00000000000E+00 -0.00000000000E+00 -0.31703190557E+03  0.31703190557E+03  0.00000000000E+00 0. -1.
    9000007    1    1    2  501    0 -0.22575563142E+02  0.13463060888E+03 -0.38547142260E+02  0.42440657285E+03  0.40000000000E+03 0. -1.
   -9000007    1    1    2    0  502  0.22575563142E+02 -0.13463060888E+03  0.43643360439E+03  0.60754370044E+03  0.40000000000E+03 0. -1.
<mgrwt>
<rscale>  2 0.42265241E+03</rscale>
<asrwt>0</asrwt>
<pdfrwt beam="1">  1       21 0.10998744E+00 0.42265241E+03</pdfrwt>
<pdfrwt beam="2">  1       21 0.48774139E-01 0.42265241E+03</pdfrwt>
<totfact> 0.22880308E+03</totfact>
</mgrwt>
</event>
<event>
 4    1  0.4689683E-002  0.8132858E+03  0.7818608E-02  0.9540983E-01
         21   -1    0    0  501  502  0.00000000000E+00  0.00000000000E+00  0.18846196794E+04  0.18846196794E+04  0.00000000000E+00 0.  1.
         21   -1    0    0  502  503 -0.00000000000E+00 -0.00000000000E+00 -0.80887112390E+03  0.80887112390E+03  0.00000000000E+00 0.  1.
    9000007    1    1    2  501    0  0.58047628832E+03  0.40556266257E+03  0.15511660167E+04  0.17514422075E+04  0.40000000000E+03 0.  1.
   -9000007    1    1    2    0  503 -0.58047628832E+03 -0.40556266257E+03 -0.47541746121E+03  0.94204859588E+03  0.40000000000E+03 0.  1.
<mgrwt>
<rscale>  2 0.81328580E+03</rscale>
<asrwt>0</asrwt>
<pdfrwt beam="1">  1       21 0.28994149E+00 0.81328580E+03</pdfrwt>
<pdfrwt beam="2">  1       21 0.12444171E+00 0.81328580E+03</pdfrwt>
<totfact> 0.11506087E+01</totfact>
</mgrwt>
</event>
<event>
 4    1  0.4689683E-002  0.4995875E+03  0.7818608E-02  0.1013887E+00
         21   -1    0    0  503  502  0.00000000000E+00  0.00000000000E+00  0.70235661950E+03  0.70235661950E+03  0.00000000000E+00 0. -1.
         21   -1    0    0  501  503 -0.00000000000E+00 -0.00000000000E+00 -0.39061614603E+03  0.39061614603E+03  0.00000000000E+00 0. -1.
    9000007    1    1    2  501    0  0.27835334833E+03  0.11003197007E+03 -0.83163563802E+01  0.49965666487E+03  0.40000000000E+03 0. -1.
   -9000007    1    1    2    0  502 -0.27835334833E+03 -0.11003197007E+03  0.32005682985E+03  0.59331610066E+03  0.40000000000E+03 0. -1.
<mgrwt>
<rscale>  2 0.49958745E+03</rscale>
<asrwt>0</asrwt>
<pdfrwt beam="1">  1       21 0.10805486E+00 0.49958745E+03</pdfrwt>
<pdfrwt beam="2">  1       21 0.60094792E-01 0.49958745E+03</pdfrwt>
<totfact> 0.14812114E+03</totfact>
</mgrwt>
</event>
<event>
 4    1  0.4689683E-002  0.5811377E+03  0.7818608E-02  0.9945331E-01
         21   -1    0    0  501  502  0.00000000000E+00  0.00000000000E+00  0.53172218830E+03  0.53172218830E+03  0.00000000000E+00 0. -1.
         21   -1    0    0  502  503 -0.00000000000E+00 -0.00000000000E+00 -0.64285594496E+03  0.64285594496E+03  0.00000000000E+00 0. -1.
    9000007    1    1    2  501    0 -0.11505156312E+03 -0.40556646951E+03 -0.11988467988E+03  0.59337455274E+03  0.40000000000E+03 0.  1.
   -9000007    1    1    2    0  503  0.11505156312E+03  0.40556646951E+03  0.87509232161E+01  0.58120358053E+03  0.40000000000E+03 0.  1.
<mgrwt>
<rscale>  2 0.58113770E+03</rscale>
<asrwt>0</asrwt>
<pdfrwt beam="1">  1       21 0.81803414E-01 0.58113770E+03</pdfrwt>
<pdfrwt beam="2">  1       21 0.98900914E-01 0.58113770E+03</pdfrwt>
<totfact> 0.89204164E+02</totfact>
</mgrwt>
</event>
<event>
 4    1  0.4689683E-002  0.4307696E+03  0.7818608E-02  0.1033617E+00
         21   -1    0    0  503  502  0.00000000000E+00  0.00000000000E+00  0.51744959585E+03  0.51744959585E+03  0.00000000000E+00 0.  1.
         21   -1    0    0  501  503 -0.00000000000E+00 -0.00000000000E+00 -0.40982658398E+03  0.40982658398E+03  0.00000000000E+00 0.  1.
    9000007    1    1    2  501    0 -0.14369126714E+03  0.70109235912E+02  0.21771389587E+03  0.48266119138E+03  0.40000000000E+03 0. -1.
   -9000007    1    1    2    0  502  0.14369126714E+03 -0.70109235912E+02 -0.11009088401E+03  0.44461498845E+03  0.40000000000E+03 0. -1.
<mgrwt>
<rscale>  2 0.43076964E+03</rscale>
<asrwt>0</asrwt>
<pdfrwt beam="1">  1       21 0.79607630E-01 0.43076964E+03</pdfrwt>
<pdfrwt beam="2">  1       21 0.63050244E-01 0.43076964E+03</pdfrwt>
<totfact> 0.28358573E+03</totfact>
</mgrwt>
</event>
<event>
 4    1  0.4689683E-002  0.4322462E+03  0.7818608E-02  0.1033153E+00
         21   -1    0    0  501  502  0.00000000000E+00  0.00000000000E+00  0.79095862407E+03  0.79095862407E+03  0.00000000000E+00 0.  1.
         21   -1    0    0  502  503 -0.00000000000E+00 -0.00000000000E+00 -0.36819779499E+03  0.36819779499E+03  0.00000000000E+00 0.  1.
    9000007    1    1    2  501    0 -0.16381881117E+03 -0.44204511153E+00  0.55838008581E+03  0.70613392393E+03  0.40000000000E+03 0. -1.
   -9000007    1    1    2    0  503  0.16381881117E+03  0.44204511153E+00 -0.13561925674E+03  0.45302249513E+03  0.40000000000E+03 0. -1.
<mgrwt>
<rscale>  2 0.43224622E+03</rscale>
<asrwt>0</asrwt>
<pdfrwt beam="1">  1       21 0.12168594E+00 0.43224622E+03</pdfrwt>
<pdfrwt beam="2">  1       21 0.56645815E-01 0.43224622E+03</pdfrwt>
<totfact> 0.12839410E+03</totfact>
</mgrwt>
</event>
<event>
 4    1  0.4689683E-002  0.4572635E+03  0.7818608E-02  0.1025578E+00
         21   -1    0    0  501  502  0.00000000000E+00  0.00000000000E+00  0.51847832571E+03  0.51847832571E+03  0.00000000000E+00 0.  1.
         21   -1    0    0  502  503 -0.00000000000E+00 -0.00000000000E+00 -0.66289979816E+03  0.66289979816E+03  0.00000000000E+00 0. -1.
    9000007    1    1    2  501    0  0.13924803831E+03 -0.17233667288E+03  0.29745321946E+03  0.54549827017E+03  0.40000000000E+03 0.  1.
   -9000007    1    1    2    0  503 -0.13924803831E+03  0.17233667288E+03 -0.44187469191E+03  0.63587985370E+03  0.40000000000E+03 0. -1.
<mgrwt>
<rscale>  2 0.45726354E+03</rscale>
<asrwt>0</asrwt>
<pdfrwt beam="1">  1       21 0.79765897E-01 0.45726354E+03</pdfrwt>
<pdfrwt beam="2">  1       21 0.10198458E+00 0.45726354E+03</pdfrwt>
<totfact> 0.91756938E+02</totfact>
</mgrwt>
</event>
<event>
 4    1  0.4689683E-002  0.4180917E+03  0.7818608E-02  0.1037689E+00
         21   -1    0    0  503  502  0.00000000000E+00  0.00000000000E+00  0.85876898545E+03  0.85876898545E+03  0.00000000000E+00 0. -1.
         21   -1    0    0  501  503 -0.00000000000E+00 -0.00000000000E+00 -0.43604630937E+03  0.43604630937E+03  0.00000000000E+00 0. -1.
    9000007    1    1    2  501    0 -0.85642353498E+02  0.86406568382E+02 -0.26137764766E+03  0.49307097103E+03  0.40000000000E+03 0. -1.
   -9000007    1    1    2    0  502  0.85642353498E+02 -0.86406568382E+02  0.68410032375E+03  0.80174432379E+03  0.40000000000E+03 0. -1.
<mgrwt>
<rscale>  2 0.41809175E+03</rscale>
<asrwt>0</asrwt>
<pdfrwt beam="1">  1       21 0.13211831E+00 0.41809175E+03</pdfrwt>
<pdfrwt beam="2">  1       21 0.67084048E-01 0.41809175E+03</pdfrwt>
<totfact> 0.72066264E+02</totfact>
</mgrwt>
</event>
<event>
 4    1  0.4689683E-002  0.4183261E+03  0.7818608E-02  0.1037612E+00
         21   -1    0    0  503  502  0.00000000000E+00  0.00000000000E+00  0.10862246632E+04  0.10862246632E+04  0.00000000000E+00 0. -1.
         21   -1    0    0  501  503 -0.00000000000E+00 -0.00000000000E+00 -0.24575020563E+03  0.24575020563E+03  0.00000000000E+00 0. -1.
    9000007    1    1    2  501    0  0.65920059637E+02  0.10320501044E+03  0.29379159981E+02  0.41935648735E+03  0.40000000000E+03 0. -1.
   -9000007    1    1    2    0  502 -0.65920059637E+02 -0.10320501044E+03  0.81109529757E+03  0.91261838146E+03  0.40000000000E+03 0. -1.
<mgrwt>
<rscale>  2 0.41832610E+03</rscale>
<asrwt>0</asrwt>
<pdfrwt beam="1">  1       21 0.16711148E+00 0.41832610E+03</pdfrwt>
<pdfrwt beam="2">  1       21 0.37807725E-01 0.41832610E+03</pdfrwt>
<totfact> 0.12939089E+03</totfact>
</mgrwt>
</event>
<event>
 4    1  0.4689683E-002  0.6264022E+03  0.7818608E-02  0.9852095E-01
         21   -1    0    0  501  502  0.00000000000E+00  0.00000000000E+00  0.20192494554E+04  0.20192494554E+04  0.00000000000E+00 0. -1.
         21   -1    0    0  502  503 -0.00000000000E+00 -0.00000000000E+00 -0.25308002271E+03  0.25308002271E+03  0.00000000000E+00 0. -1.
    9000007    1    1    2  501    0 -0.47788021911E+03 -0.63326583090E+02  0.14305477573E+04  0.15616807119E+04  0.40000000000E+03 0. -1.
   -9000007    1    1    2    0  503  0.47788021911E+03  0.63326583090E+02  0.33562167536E+03  0.71064876621E+03  0.40000000000E+03 0. -1.
<mgrwt>
<rscale>  2 0.62640223E+03</rscale>
<asrwt>0</asrwt>
<pdfrwt beam="1">  1       21 0.31065375E+00 0.62640223E+03</pdfrwt>
<pdfrwt beam="2">  1       21 0.38935389E-01 0.62640223E+03</pdfrwt>
<totfact> 0.13328237E+02</totfact>
</mgrwt>
</event>
<event>
 4    1  0.4689683E-002  0.4088253E+03  0.7818608E-02  0.1040766E+00
         21   -1    0    0  503  502  0.00000000000E+00  0.00000000000E+00  0.20600374099E+04  0.20600374099E+04  0.00000000000E+00 0.  1.
         21   -1    0    0  501  503 -0.00000000000E+00 -0.00000000000E+00 -0.10084562890E+03  0.10084562890E+03  0.00000000000E+00 0.  1.
    9000007    1    1    2  501    0 -0.30093580846E+02 -0.78946029920E+02  0.50191353276E+03  0.64734480273E+03  0.40000000000E+03 0.  1.
   -9000007    1    1    2    0  502  0.30093580846E+02  0.78946029920E+02  0.14572782483E+04  0.15135382361E+04  0.40000000000E+03 0.  1.
<mgrwt>
<rscale>  2 0.40882527E+03</rscale>
<asrwt>0</asrwt>
<pdfrwt beam="1">  1       21 0.31692880E+00 0.40882527E+03</pdfrwt>
<pdfrwt beam="2">  1       21 0.15514714E-01 0.40882527E+03</pdfrwt>
<totfact> 0.82400035E+02</totfact>
</mgrwt>
</event>
<event>
 4    1  0.4689683E-002  0.4124681E+03  0.7818608E-02  0.1039546E+00
         21   -1    0    0  501  502  0.00000000000E+00  0.00000000000E+00  0.77101777003E+03  0.77101777003E+03  0.00000000000E+00 0. -1.
         21   -1    0    0  502  503 -0.00000000000E+00 -0.00000000000E+00 -0.24796897580E+03  0.24796897580E+03  0.00000000000E+00 0. -1.
    9000007    1    1    2  501    0  0.77570446218E+02 -0.64130854823E+02  0.43061593084E+03  0.59628853801E+03  0.40000000000E+03 0. -1.
   -9000007    1    1    2    0  503 -0.77570446218E+02  0.64130854823E+02  0.92432863391E+02  0.42269820783E+03  0.40000000000E+03 0. -1.
<mgrwt>
<rscale>  2 0.41246811E+03</rscale>
<asrwt>0</asrwt>
<pdfrwt beam="1">  1       21 0.11861812E+00 0.41246811E+03</pdfrwt>
<pdfrwt beam="2">  1       21 0.38149074E-01 0.41246811E+03</pdfrwt>
<totfact> 0.31713889E+03</totfact>
</mgrwt>
</event>
<event>
 4    1  0.4689683E-002  0.4670323E+03  0.7818608E-02  0.1022761E+00
         21   -1    0    0  503  502  0.00000000000E+00  0.00000000000E+00  0.50630195912E+03  0.50630195912E+03  0.00000000000E+00 0. -1.
         21   -1    0    0  501  503 -0.00000000000E+00 -0.00000000000E+00 -0.52820914470E+03  0.52820914470E+03  0.00000000000E+00 0.  1.
    9000007    1    1    2  501    0  0.82209230658E+02 -0.22662924316E+03 -0.23307130395E+03  0.52195919782E+03  0.40000000000E+03 0.  1.
   -9000007    1    1    2    0  502 -0.82209230658E+02  0.22662924316E+03  0.21116411837E+03  0.51255190600E+03  0.40000000000E+03 0. -1.
<mgrwt>
<rscale>  2 0.46703230E+03</rscale>
<asrwt>0</asrwt>
<pdfrwt beam="1">  1       21 0.77892609E-01 0.46703230E+03</pdfrwt>
<pdfrwt beam="2">  1       21 0.81262945E-01 0.46703230E+03</pdfrwt>
<totfact> 0.16570140E+03</totfact>
</mgrwt>
</event>
<event>
 4    1  0.4689683E-002  0.4386662E+03  0.7818608E-02  0.1031157E+00
         21   -1    0    0  503  502  0.00000000000E+00  0.00000000000E+00  0.69243945799E+03  0.69243945799E+03  0.00000000000E+00 0.  1.
         21   -1    0    0  501  503 -0.00000000000E+00 -0.00000000000E+00 -0.31538841904E+03  0.31538841904E+03  0.00000000000E+00 0.  1.
    9000007    1    1    2  501    0 -0.17996677426E+03 -0.63243764275E+01  0.14789650973E+02  0.43891544898E+03  0.40000000000E+03 0.  1.
   -9000007    1    1    2    0  502  0.17996677426E+03  0.63243764275E+01  0.36226138798E+03  0.56891242806E+03  0.40000000000E+03 0.  1.
<mgrwt>
<rscale>  2 0.43866620E+03</rscale>
<asrwt>0</asrwt>
<pdfrwt beam="1">  1       21 0.10652915E+00 0.43866620E+03</pdfrwt>
<pdfrwt beam="2">  1       21 0.48521295E-01 0.43866620E+03</pdfrwt>
<totfact> 0.24879423E+03</totfact>
</mgrwt>
</event>
<event>
 4    1  0.4689683E-002  0.5493881E+03  0.7818608E-02  0.1001636E+00
         21   -1    0    0  503  502  0.00000000000E+00  0.00000000000E+00  0.62785689264E+03  0.62785689264E+03  0.00000000000E+00 0. -1.
         21   -1    0    0  501  503 -0.00000000000E+00 -0.00000000000E+00 -0.55907473191E+03  0.55907473191E+03  0.00000000000E+00 0. -1.
    9000007    1    1    2  501    0 -0.35112342930E+03  0.13616021723E+03 -0.18777418738E+03  0.58059143363E+03  0.40000000000E+03 0. -1.
   -9000007    1    1    2    0  502  0.35112342930E+03 -0.13616021723E+03  0.25655634812E+03  0.60634019092E+03  0.40000000000E+03 0. -1.
<mgrwt>
<rscale>  2 0.54938808E+03</rscale>
<asrwt>0</asrwt>
<pdfrwt beam="1">  1       21 0.96593367E-01 0.54938808E+03</pdfrwt>
<pdfrwt beam="2">  1       21 0.86011498E-01 0.54938808E+03</pdfrwt>
<totfact> 0.84859721E+02</totfact>
</mgrwt>
</event>
<event>
 4    1  0.4689683E-002  0.4655655E+03  0.7818608E-02  0.1023179E+00
         21   -1    0    0  503  502  0.00000000000E+00  0.00000000000E+00  0.40063559460E+03  0.40063559460E+03  0.00000000000E+00 0.  1.
         21   -1    0    0  501  503 -0.00000000000E+00 -0.00000000000E+00 -0.67696359049E+03  0.67696359049E+03  0.00000000000E+00 0.  1.
    9000007    1    1    2  501    0  0.20497194233E+03  0.12139912822E+03 -0.37961358030E+03  0.60071433795E+03  0.40000000000E+03 0.  1.
   -9000007    1    1    2    0  502 -0.20497194233E+03 -0.12139912822E+03  0.10328558441E+03  0.47688484713E+03  0.40000000000E+03 0.  1.
<mgrwt>
<rscale>  2 0.46556551E+03</rscale>
<asrwt>0</asrwt>
<pdfrwt beam="1">  1       21 0.61636245E-01 0.46556551E+03</pdfrwt>
<pdfrwt beam="2">  1       21 0.10414824E+00 0.46556551E+03</pdfrwt>
<totfact> 0.15535995E+03</totfact>
</mgrwt>
</event>
<event>
 4    1  0.4689683E-002  0.4085336E+03  0.7818608E-02  0.1040864E+00
         21   -1    0    0  501  502  0.00000000000E+00  0.00000000000E+00  0.28263040478E+03  0.28263040478E+03  0.00000000000E+00 0.  1.
         21   -1    0    0  502  503 -0.00000000000E+00 -0.00000000000E+00 -0.79745812352E+03  0.79745812352E+03  0.00000000000E+00 0.  1.
    9000007    1    1    2  501    0 -0.76463315602E+02 -0.32450431965E+02  0.17687563560E+02  0.40891627391E+03  0.40000000000E+03 0.  1.
   -9000007    1    1    2    0  503  0.76463315602E+02  0.32450431965E+02 -0.53251528230E+03  0.67117225438E+03  0.40000000000E+03 0.  1.
<mgrwt>
<rscale>  2 0.40853356E+03</rscale>
<asrwt>0</asrwt>
<pdfrwt beam="1">  1       21 0.43481601E-01 0.40853356E+03</pdfrwt>
<pdfrwt beam="2">  1       21 0.12268586E+00 0.40853356E+03</pdfrwt>
<totfact> 0.22261693E+03</totfact>
</mgrwt>
</event>
<event>
 4    1  0.4689683E-002  0.6804512E+03  0.7818608E-02  0.9751260E-01
         21   -1    0    0  501  502  0.00000000000E+00  0.00000000000E+00  0.14140215656E+04  0.14140215656E+04  0.00000000000E+00 0.  1.
         21   -1    0    0  502  503 -0.00000000000E+00 -0.00000000000E+00 -0.33078734077E+03  0.33078734077E+03  0.00000000000E+00 0.  1.
    9000007    1    1    2  501    0 -0.54352961684E+03  0.87117487953E+02  0.45391970871E+03  0.81795904729E+03  0.40000000000E+03 0.  1.
   -9000007    1    1    2    0  503  0.54352961684E+03 -0.87117487953E+02  0.62931451611E+03  0.92684985908E+03  0.40000000000E+03 0.  1.
<mgrwt>
<rscale>  2 0.68045125E+03</rscale>
<asrwt>0</asrwt>
<pdfrwt beam="1">  1       21 0.21754178E+00 0.68045125E+03</pdfrwt>
<pdfrwt beam="2">  1       21 0.50890361E-01 0.68045125E+03</pdfrwt>
<totfact> 0.28185342E+02</totfact>
</mgrwt>
</event>
<event>
 4    1  0.4689683E-002  0.4974037E+03  0.7818608E-02  0.1014459E+00
         21   -1    0    0  503  502  0.00000000000E+00  0.00000000000E+00  0.81364185939E+03  0.81364185939E+03  0.00000000000E+00 0. -1.
         21   -1    0    0  501  503 -0.00000000000E+00 -0.00000000000E+00 -0.30454527954E+03  0.30454527954E+03  0.00000000000E+00 0.  1.
    9000007    1    1    2  501    0  0.25442662084E+03 -0.15059066151E+03  0.27645236620E+03  0.56906622067E+03  0.40000000000E+03 0. -1.
   -9000007    1    1    2    0  502 -0.25442662084E+03  0.15059066151E+03  0.23264421365E+03  0.54912091826E+03  0.40000000000E+03 0.  1.
<mgrwt>
<rscale>  2 0.49740371E+03</rscale>
<asrwt>0</asrwt>
<pdfrwt beam="1">  1       21 0.12517567E+00 0.49740371E+03</pdfrwt>
<pdfrwt beam="2">  1       21 0.46853120E-01 0.49740371E+03</pdfrwt>
<totfact> 0.17472626E+03</totfact>
</mgrwt>
</event>
<event>
 4    1  0.4689683E-002  0.7564818E+03  0.7818608E-02  0.9625236E-01
         21   -1    0    0  503  502  0.00000000000E+00  0.00000000000E+00  0.15185789058E+04  0.15185789058E+04  0.00000000000E+00 0. -1.
         21   -1    0    0  501  503 -0.00000000000E+00 -0.00000000000E+00 -0.38163298566E+03  0.38163298566E+03  0.00000000000E+00 0.  1.
    9000007    1    1    2  501    0  0.37283284685E+03  0.52274309326E+03  0.46202171702E+03  0.88641341384E+03  0.40000000000E+03 0. -1.
   -9000007    1    1    2    0  502 -0.37283284685E+03 -0.52274309326E+03  0.67492420307E+03  0.10137984776E+04  0.40000000000E+03 0.  1.
<mgrwt>
<rscale>  2 0.75648177E+03</rscale>
<asrwt>0</asrwt>
<pdfrwt beam="1">  1       21 0.23362752E+00 0.75648177E+03</pdfrwt>
<pdfrwt beam="2">  1       21 0.58712768E-01 0.75648177E+03</pdfrwt>
<totfact> 0.15843988E+02</totfact>
</mgrwt>
</event>
<event>
 4    1  0.4689683E-002  0.5112951E+03  0.7818608E-02  0.1010872E+00
         21   -1    0    0  501  502  0.00000000000E+00  0.00000000000E+00  0.95393928285E+02  0.95393928285E+02  0.00000000000E+00 0.  1.
         21   -1    0    0  502  503 -0.00000000000E+00 -0.00000000000E+00 -0.28382165034E+04  0.28382165034E+04  0.00000000000E+00 0.  1.
    9000007    1    1    2  501    0  0.36093410805E+02  0.31641730067E+03 -0.10991809399E+04  0.12122794155E+04  0.40000000000E+03 0.  1.
   -9000007    1    1    2    0  503 -0.36093410805E+02 -0.31641730067E+03 -0.16436416352E+04  0.17213310162E+04  0.40000000000E+03 0.  1.
<mgrwt>
<rscale>  2 0.51129506E+03</rscale>
<asrwt>0</asrwt>
<pdfrwt beam="1">  1       21 0.14675992E-01 0.51129506E+03</pdfrwt>
<pdfrwt beam="2">  1       21 0.43664861E+00 0.51129506E+03</pdfrwt>
<totfact> 0.15102337E+02</totfact>
</mgrwt>
</event>
<event>
 4    1  0.4689683E-002  0.5601653E+03  0.7818608E-02  0.9991681E-01
         21   -1    0    0  503  502  0.00000000000E+00  0.00000000000E+00  0.80213426878E+03  0.80213426878E+03  0.00000000000E+00 0.  1.
         21   -1    0    0  501  503 -0.00000000000E+00 -0.00000000000E+00 -0.43729414932E+03  0.43729414932E+03  0.00000000000E+00 0. -1.
    9000007    1    1    2  501    0 -0.32716046970E+03  0.21622028086E+03  0.38364635748E+03  0.67894750195E+03  0.40000000000E+03 0. -1.
   -9000007    1    1    2    0  502  0.32716046970E+03 -0.21622028086E+03 -0.18806238019E+02  0.56048091616E+03  0.40000000000E+03 0.  1.
<mgrwt>
<rscale>  2 0.56016532E+03</rscale>
<asrwt>0</asrwt>
<pdfrwt beam="1">  1       21 0.12340527E+00 0.56016532E+03</pdfrwt>
<pdfrwt beam="2">  1       21 0.67276023E-01 0.56016532E+03</pdfrwt>
<totfact> 0.80737001E+02</totfact>
</mgrwt>
</event>
<event>
 4    1  0.4689683E-002  0.4642754E+03  0.7818608E-02  0.1023548E+00
         21   -1    0    0  501  502  0.00000000000E+00  0.00000000000E+00  0.71997853065E+03  0.71997853065E+03  0.00000000000E+00 0. -1.
         21   -1    0    0  502  503 -0.00000000000E+00 -0.00000000000E+00 -0.47346741803E+03  0.47346741803E+03  0.00000000000E+00 0. -1.
    9000007    1    1    2  501    0 -0.15683713540E+03 -0.17593676672E+03  0.48508480813E+03  0.67146027731E+03  0.40000000000E+03 0. -1.
   -9000007    1    1    2    0  503  0.15683713540E+03  0.17593676672E+03 -0.23857369551E+03  0.52198567137E+03  0.40000000000E+03 0. -1.
<mgrwt>
<rscale>  2 0.46427538E+03</rscale>
<asrwt>0</asrwt>
<pdfrwt beam="1">  1       21 0.11076593E+00 0.46427538E+03</pdfrwt>
<pdfrwt beam="2">  1       21 0.72841141E-01 0.46427538E+03</pdfrwt>
<totfact> 0.91869312E+02</totfact>
</mgrwt>
</event>
<event>
 4    1  0.4689683E-002  0.4084183E+03  0.7818608E-02  0.1040903E+00
         21   -1    0    0  503  502  0.00000000000E+00  0.00000000000E+00  0.28496971675E+03  0.28496971675E+03  0.00000000000E+00 0.  1.
         21   -1    0    0  501  503 -0.00000000000E+00 -0.00000000000E+00 -0.63068238246E+03  0.63068238246E+03  0.00000000000E+00 0.  1.
    9000007    1    1    2  501    0 -0.53282937298E+02 -0.62979338795E+02 -0.29560748067E+03  0.50417184685E+03  0.40000000000E+03 0. -1.
   -9000007    1    1    2    0  502  0.53282937298E+02  0.62979338795E+02 -0.50105185034E+02  0.41148025237E+03  0.40000000000E+03 0. -1.
<mgrwt>
<rscale>  2 0.40841825E+03</rscale>
<asrwt>0</asrwt>
<pdfrwt beam="1">  1       21 0.43841496E-01 0.40841825E+03</pdfrwt>
<pdfrwt beam="2">  1       21 0.97028057E-01 0.40841825E+03</pdfrwt>
<totfact> 0.39098295E+03</totfact>
</mgrwt>
</event>
<event>
 4    1  0.4689683E-002  0.8561402E+03  0.7818608E-02  0.9482133E-01
         21   -1    0    0  503  502  0.00000000000E+00  0.00000000000E+00  0.11122718471E+04  0.11122718471E+04  0.00000000000E+00 0.  1.
         21   -1    0    0  501  503 -0.00000000000E+00 -0.00000000000E+00 -0.86349219572E+03  0.86349219572E+03  0.00000000000E+00 0. -1.
    9000007    1    1    2  501    0  0.71171770286E+02 -0.75359845527E+03 -0.35636630832E+03  0.92734729114E+03  0.40000000000E+03 0. -1.
   -9000007    1    1    2    0  502 -0.71171770286E+02  0.75359845527E+03  0.60514595972E+03  0.10484167517E+04  0.40000000000E+03 0.  1.
<mgrwt>
<rscale>  2 0.85614021E+03</rscale>
<asrwt>0</asrwt>
<pdfrwt beam="1">  1       21 0.17111875E+00 0.85614021E+03</pdfrwt>
<pdfrwt beam="2">  1       21 0.13284495E+00 0.85614021E+03</pdfrwt>
<totfact> 0.57548355E+01</totfact>
</mgrwt>
</event>
<event>
 4    1  0.4689683E-002  0.5049069E+03  0.7818608E-02  0.1012506E+00
         21   -1    0    0  503  502  0.00000000000E+00  0.00000000000E+00  0.10573271012E+04  0.10573271012E+04  0.00000000000E+00 0.  1.
         21   -1    0    0  501  503 -0.00000000000E+00 -0.00000000000E+00 -0.29086777713E+03  0.29086777713E+03  0.00000000000E+00 0. -1.
    9000007    1    1    2  501    0  0.17943833257E+03 -0.25046523286E+03  0.10441843013E+03  0.51559107500E+03  0.40000000000E+03 0. -1.
   -9000007    1    1    2    0  502 -0.17943833257E+03  0.25046523286E+03  0.66204089394E+03  0.83260380332E+03  0.40000000000E+03 0.  1.
<mgrwt>
<rscale>  2 0.50490687E+03</rscale>
<asrwt>0</asrwt>
<pdfrwt beam="1">  1       21 0.16266571E+00 0.50490687E+03</pdfrwt>
<pdfrwt beam="2">  1       21 0.44748889E-01 0.50490687E+03</pdfrwt>
<totfact> 0.94961875E+02</totfact>
</mgrwt>
</event>
<event>
 4    1  0.4689683E-002  0.4022799E+03  0.7818608E-02  0.1042993E+00
         21   -1    0    0  503  502  0.00000000000E+00  0.00000000000E+00  0.26708336402E+03  0.26708336402E+03  0.00000000000E+00 0.  1.
         21   -1    0    0  501  503 -0.00000000000E+00 -0.00000000000E+00 -0.12273911573E+04  0.12273911573E+04  0.00000000000E+00 0.  1.
    9000007    1    1    2  501    0 -0.18038773082E+02  0.38777857021E+02 -0.10118704395E+04  0.10889035337E+04  0.40000000000E+03 0.  1.
   -9000007    1    1    2    0  502  0.18038773082E+02 -0.38777857021E+02  0.51562646139E+02  0.40557098763E+03  0.40000000000E+03 0.  1.
<mgrwt>
<rscale>  2 0.40227990E+03</rscale>
<asrwt>0</asrwt>
<pdfrwt beam="1">  1       21 0.41089749E-01 0.40227990E+03</pdfrwt>
<pdfrwt beam="2">  1       21 0.18882940E+00 0.40227990E+03</pdfrwt>
<totfact> 0.77190961E+02</totfact>
</mgrwt>
</event>
<event>
 4    1  0.4689683E-002  0.5271143E+03  0.7818608E-02  0.1006934E+00
         21   -1    0    0  501  502  0.00000000000E+00  0.00000000000E+00  0.18783664741E+03  0.18783664741E+03  0.00000000000E+00 0.  1.
         21   -1    0    0  502  503 -0.00000000000E+00 -0.00000000000E+00 -0.17520933142E+04  0.17520933142E+04  0.00000000000E+00 0. -1.
    9000007    1    1    2  501    0  0.29825681856E+03  0.16997740304E+03 -0.39933212874E+03  0.66129841706E+03  0.40000000000E+03 0.  1.
   -9000007    1    1    2    0  503 -0.29825681856E+03 -0.16997740304E+03 -0.11649245381E+04  0.12786315446E+04  0.40000000000E+03 0. -1.
<mgrwt>
<rscale>  2 0.52711426E+03</rscale>
<asrwt>0</asrwt>
<pdfrwt beam="1">  1       21 0.28897947E-01 0.52711426E+03</pdfrwt>
<pdfrwt beam="2">  1       21 0.26955280E+00 0.52711426E+03</pdfrwt>
<totfact> 0.45353315E+02</totfact>
</mgrwt>
</event>
<event>
 4    1  0.4689683E-002  0.5665193E+03  0.7818608E-02  0.9977411E-01
         21   -1    0    0  501  502  0.00000000000E+00  0.00000000000E+00  0.28308269644E+04  0.28308269644E+04  0.00000000000E+00 0. -1.
         21   -1    0    0  502  503 -0.00000000000E+00 -0.00000000000E+00 -0.19254546371E+03  0.19254546371E+03  0.00000000000E+00 0. -1.
    9000007    1    1    2  501    0  0.37443791983E+03  0.14401514791E+03  0.22884837137E+04  0.23575626877E+04  0.40000000000E+03 0. -1.
   -9000007    1    1    2    0  503 -0.37443791983E+03 -0.14401514791E+03  0.34979778700E+03  0.66580974041E+03  0.40000000000E+03 0. -1.
<mgrwt>
<rscale>  2 0.56651930E+03</rscale>
<asrwt>0</asrwt>
<pdfrwt beam="1">  1       21 0.43551181E+00 0.56651930E+03</pdfrwt>
<pdfrwt beam="2">  1       21 0.29622381E-01 0.56651930E+03</pdfrwt>
<totfact> 0.38633408E+01</totfact>
</mgrwt>
</event>
<event>
 4    1  0.4689683E-002  0.4311890E+03  0.7818608E-02  0.1033485E+00
         21   -1    0    0  503  502  0.00000000000E+00  0.00000000000E+00  0.10643962921E+04  0.10643962921E+04  0.00000000000E+00 0.  1.
         21   -1    0    0  501  503 -0.00000000000E+00 -0.00000000000E+00 -0.20370702232E+03  0.20370702232E+03  0.00000000000E+00 0.  1.
    9000007    1    1    2  501    0 -0.21217423533E+02 -0.15960511705E+03  0.19098196496E+03  0.47159101284E+03  0.40000000000E+03 0.  1.
   -9000007    1    1    2    0  502  0.21217423533E+02  0.15960511705E+03  0.66970730486E+03  0.79651230162E+03  0.40000000000E+03 0.  1.
<mgrwt>
<rscale>  2 0.43118902E+03</rscale>
<asrwt>0</asrwt>
<pdfrwt beam="1">  1       21 0.16375327E+00 0.43118902E+03</pdfrwt>
<pdfrwt beam="2">  1       21 0.31339542E-01 0.43118902E+03</pdfrwt>
<totfact> 0.19890709E+03</totfact>
</mgrwt>
</event>
<event>
 4    1  0.4689683E-002  0.5709125E+03  0.7818608E-02  0.9967661E-01
         21   -1    0    0  501  502  0.00000000000E+00  0.00000000000E+00  0.82823688474E+03  0.82823688474E+03  0.00000000000E+00 0.  1.
         21   -1    0    0  502  503 -0.00000000000E+00 -0.00000000000E+00 -0.56888520385E+03  0.56888520385E+03  0.00000000000E+00 0. -1.
    9000007    1    1    2  501    0 -0.32839202786E+03 -0.24103901917E+03 -0.25815629427E+03  0.62656668041E+03  0.40000000000E+03 0. -1.
   -9000007    1    1    2    0  503  0.32839202786E+03  0.24103901917E+03  0.51750797516E+03  0.77055540818E+03  0.40000000000E+03 0.  1.
<mgrwt>
<rscale>  2 0.57091254E+03</rscale>
<asrwt>0</asrwt>
<pdfrwt beam="1">  1       21 0.12742106E+00 0.57091254E+03</pdfrwt>
<pdfrwt beam="2">  1       21 0.87520801E-01 0.57091254E+03</pdfrwt>
<totfact> 0.40369787E+02</totfact>
</mgrwt>
</event>
<event>
 4    1  0.4689683E-002  0.4655975E+03  0.7818608E-02  0.1023170E+00
         21   -1    0    0  503  502  0.00000000000E+00  0.00000000000E+00  0.27236762089E+04  0.27236762089E+04  0.00000000000E+00 0.  1.
         21   -1    0    0  501  503 -0.00000000000E+00 -0.00000000000E+00 -0.79606984575E+02  0.79606984575E+02  0.00000000000E+00 0. -1.
    9000007    1    1    2  501    0  0.15145687639E+03 -0.18396158143E+03  0.13416815136E+04  0.14201726419E+04  0.40000000000E+03 0. -1.
   -9000007    1    1    2    0  502 -0.15145687639E+03  0.18396158143E+03  0.13023877107E+04  0.13831105516E+04  0.40000000000E+03 0. -1.
<mgrwt>
<rscale>  2 0.46559752E+03</rscale>
<asrwt>0</asrwt>
<pdfrwt beam="1">  1       21 0.41902704E+00 0.46559752E+03</pdfrwt>
<pdfrwt beam="2">  1       21 0.12247230E-01 0.46559752E+03</pdfrwt>
<totfact> 0.28361989E+02</totfact>
</mgrwt>
</event>
<event>
 4    1  0.4689683E-002  0.6830984E+03  0.7818608E-02  0.9746581E-01
         21   -1    0    0  501  502  0.00000000000E+00  0.00000000000E+00  0.22054004817E+04  0.22054004817E+04  0.00000000000E+00 0. -1.
         21   -1    0    0  502  503 -0.00000000000E+00 -0.00000000000E+00 -0.21963817265E+03  0.21963817265E+03  0.00000000000E+00 0.  1.
    9000007    1    1    2  501    0 -0.40558450884E+03  0.37699425544E+03  0.12250981684E+04  0.14026720874E+04  0.40000000000E+03 0.  1.
   -9000007    1    1    2    0  503  0.40558450884E+03 -0.37699425544E+03  0.76066414066E+03  0.10223665670E+04  0.40000000000E+03 0.  1.
<mgrwt>
<rscale>  2 0.68309843E+03</rscale>
<asrwt>0</asrwt>
<pdfrwt beam="1">  1       21 0.33929237E+00 0.68309843E+03</pdfrwt>
<pdfrwt beam="2">  1       21 0.33790490E-01 0.68309843E+03</pdfrwt>
<totfact> 0.11596410E+02</totfact>
</mgrwt>
</event>
<event>
 4    1  0.4689683E-002  0.4584803E+03  0.7818608E-02  0.1025223E+00
         21   -1    0    0  503  502  0.00000000000E+00  0.00000000000E+00  0.46737426723E+03  0.46737426723E+03  0.00000000000E+00 0.  1.
         21   -1    0    0  501  503 -0.00000000000E+00 -0.00000000000E+00 -0.77822934972E+03  0.77822934972E+03  0.00000000000E+00 0.  1.
    9000007    1    1    2  501    0  0.12454577655E+03  0.18625923589E+03 -0.56004671019E+03  0.72377929716E+03  0.40000000000E+03 0.  1.
   -9000007    1    1    2    0  502 -0.12454577655E+03 -0.18625923589E+03  0.24919162769E+03  0.52182431979E+03  0.40000000000E+03 0.  1.
<mgrwt>
<rscale>  2 0.45848027E+03</rscale>
<asrwt>0</asrwt>
<pdfrwt beam="1">  1       21 0.71903733E-01 0.45848027E+03</pdfrwt>
<pdfrwt beam="2">  1       21 0.11972759E+00 0.45848027E+03</pdfrwt>
<totfact> 0.78028406E+02</totfact>
</mgrwt>
</event>
<event>
 4    1  0.4689683E-002  0.4728618E+03  0.7818608E-02  0.1021116E+00
         21   -1    0    0  501  502  0.00000000000E+00  0.00000000000E+00  0.87490350206E+03  0.87490350206E+03  0.00000000000E+00 0.  1.
         21   -1    0    0  502  503 -0.00000000000E+00 -0.00000000000E+00 -0.28810763572E+03  0.28810763572E+03  0.00000000000E+00 0.  1.
    9000007    1    1    2  501    0 -0.19719156819E+03 -0.15720609121E+03  0.48882095857E+03  0.68010602057E+03  0.40000000000E+03 0.  1.
   -9000007    1    1    2    0  503  0.19719156819E+03  0.15720609121E+03  0.97974907765E+02  0.48290511721E+03  0.40000000000E+03 0.  1.
<mgrwt>
<rscale>  2 0.47286179E+03</rscale>
<asrwt>0</asrwt>
<pdfrwt beam="1">  1       21 0.13460054E+00 0.47286179E+03</pdfrwt>
<pdfrwt beam="2">  1       21 0.44324252E-01 0.47286179E+03</pdfrwt>
<totfact> 0.16404624E+03</totfact>
</mgrwt>
</event>
<event>
 4    1  0.4689683E-002  0.5102269E+03  0.7818608E-02  0.1011143E+00
         21   -1    0    0  501  502  0.00000000000E+00  0.00000000000E+00  0.83454614738E+03  0.83454614738E+03  0.00000000000E+00 0. -1.
         21   -1    0    0  502  503 -0.00000000000E+00 -0.00000000000E+00 -0.41158713545E+03  0.41158713545E+03  0.00000000000E+00 0. -1.
    9000007    1    1    2  501    0 -0.28811324742E+03 -0.13161390647E+03  0.51804820997E+03  0.72712131833E+03  0.40000000000E+03 0. -1.
   -9000007    1    1    2    0  503  0.28811324742E+03  0.13161390647E+03 -0.95089198049E+02  0.51901196450E+03  0.40000000000E+03 0. -1.
<mgrwt>
<rscale>  2 0.51022687E+03</rscale>
<asrwt>0</asrwt>
<pdfrwt beam="1">  1       21 0.12839172E+00 0.51022687E+03</pdfrwt>
<pdfrwt beam="2">  1       21 0.63321098E-01 0.51022687E+03</pdfrwt>
<totfact> 0.84910397E+02</totfact>
</mgrwt>
</event>
<event>
 4    1  0.4689683E-002  0.4557131E+03  0.7818608E-02  0.1026032E+00
         21   -1    0    0  503  502  0.00000000000E+00  0.00000000000E+00  0.19122859942E+04  0.19122859942E+04  0.00000000000E+00 0. -1.
         21   -1    0    0  501  503 -0.00000000000E+00 -0.00000000000E+00 -0.11374204096E+03  0.11374204096E+03  0.00000000000E+00 0. -1.
    9000007    1    1    2  501    0  0.36431266149E+02  0.21528388213E+03  0.68388477997E+03  0.82181067122E+03  0.40000000000E+03 0. -1.
   -9000007    1    1    2    0  502 -0.36431266149E+02 -0.21528388213E+03  0.11146591733E+04  0.12042173640E+04  0.40000000000E+03 0. -1.
<mgrwt>
<rscale>  2 0.45571305E+03</rscale>
<asrwt>0</asrwt>
<pdfrwt beam="1">  1       21 0.29419782E+00 0.45571305E+03</pdfrwt>
<pdfrwt beam="2">  1       21 0.17498777E-01 0.45571305E+03</pdfrwt>
<totfact> 0.87746903E+02</totfact>
</mgrwt>
</event>
<event>
 4    1  0.4689683E-002  0.4067639E+03  0.7818608E-02  0.1041462E+00
         21   -1    0    0  503  502  0.00000000000E+00  0.00000000000E+00  0.23467773542E+03  0.23467773542E+03  0.00000000000E+00 0.  1.
         21   -1    0    0  501  503 -0.00000000000E+00 -0.00000000000E+00 -0.98667864351E+03  0.98667864351E+03  0.00000000000E+00 0.  1.
    9000007    1    1    2  501    0  0.73870796263E+02  0.89736373426E-01 -0.70226629992E+03  0.81156321910E+03  0.40000000000E+03 0.  1.
   -9000007    1    1    2    0  502 -0.73870796263E+02 -0.89736373426E-01 -0.49734608166E+02  0.40979315983E+03  0.40000000000E+03 0.  1.
<mgrwt>
<rscale>  2 0.40676394E+03</rscale>
<asrwt>0</asrwt>
<pdfrwt beam="1">  1       21 0.36104267E-01 0.40676394E+03</pdfrwt>
<pdfrwt beam="2">  1       21 0.15179671E+00 0.40676394E+03</pdfrwt>
<totfact> 0.18645085E+03</totfact>
</mgrwt>
</event>
<event>
 4    1  0.4689683E-002  0.4053929E+03  0.7818608E-02  0.1041928E+00
         21   -1    0    0  501  502  0.00000000000E+00  0.00000000000E+00  0.42763010806E+03  0.42763010806E+03  0.00000000000E+00 0.  1.
         21   -1    0    0  502  503 -0.00000000000E+00 -0.00000000000E+00 -0.38595626274E+03  0.38595626274E+03  0.00000000000E+00 0.  1.
    9000007    1    1    2  501    0  0.55769948581E+02 -0.35115364296E+02  0.47388609584E+02  0.40815322649E+03  0.40000000000E+03 0. -1.
   -9000007    1    1    2    0  503 -0.55769948581E+02  0.35115364296E+02 -0.57147642577E+01  0.40543314431E+03  0.40000000000E+03 0. -1.
<mgrwt>
<rscale>  2 0.40539287E+03</rscale>
<asrwt>0</asrwt>
<pdfrwt beam="1">  1       21 0.65789247E-01 0.40539287E+03</pdfrwt>
<pdfrwt beam="2">  1       21 0.59377887E-01 0.40539287E+03</pdfrwt>
<totfact> 0.50268376E+03</totfact>
</mgrwt>
</event>
<event>
 4    1  0.4689683E-002  0.5249305E+03  0.7818608E-02  0.1007469E+00
         21   -1    0    0  503  502  0.00000000000E+00  0.00000000000E+00  0.14476815350E+04  0.14476815350E+04  0.00000000000E+00 0.  1.
         21   -1    0    0  501  503 -0.00000000000E+00 -0.00000000000E+00 -0.19051829092E+03  0.19051829092E+03  0.00000000000E+00 0. -1.
    9000007    1    1    2  501    0  0.17893363531E+03  0.28902388208E+03  0.65362201418E+03  0.83831604284E+03  0.40000000000E+03 0.  1.
   -9000007    1    1    2    0  502 -0.17893363531E+03 -0.28902388208E+03  0.60354122991E+03  0.79988378310E+03  0.40000000000E+03 0. -1.
<mgrwt>
<rscale>  2 0.52493052E+03</rscale>
<asrwt>0</asrwt>
<pdfrwt beam="1">  1       21 0.22272023E+00 0.52493052E+03</pdfrwt>
<pdfrwt beam="2">  1       21 0.29310507E-01 0.52493052E+03</pdfrwt>
<totfact> 0.86352313E+02</totfact>
</mgrwt>
</event>
<event>
 4    1  0.4689683E-002  0.4480369E+03  0.7818608E-02  0.1028309E+00
         21   -1    0    0  501  502  0.00000000000E+00  0.00000000000E+00  0.58401777999E+03  0.58401777999E+03  0.00000000000E+00 0. -1.
         21   -1    0    0  502  503 -0.00000000000E+00 -0.00000000000E+00 -0.50347880912E+03  0.50347880912E+03  0.00000000000E+00 0.  1.
    9000007    1    1    2  501    0  0.76611368697E+02  0.18672913354E+03  0.34656684641E+03  0.56643238798E+03  0.40000000000E+03 0. -1.
   -9000007    1    1    2    0  503 -0.76611368697E+02 -0.18672913354E+03 -0.26602787555E+03  0.52106420113E+03  0.40000000000E+03 0.  1.
<mgrwt>
<rscale>  2 0.44803691E+03</rscale>
<asrwt>0</asrwt>
<pdfrwt beam="1">  1       21 0.89848889E-01 0.44803691E+03</pdfrwt>
<pdfrwt beam="2">  1       21 0.77458278E-01 0.44803691E+03</pdfrwt>
<totfact> 0.13361609E+03</totfact>
</mgrwt>
</event>
<event>
 4    1  0.4689683E-002  0.5325901E+03  0.7818608E-02  0.1005606E+00
         21   -1    0    0  501  502  0.00000000000E+00  0.00000000000E+00  0.35232638433E+03  0.35232638433E+03  0.00000000000E+00 0. -1.
         21   -1    0    0  502  503 -0.00000000000E+00 -0.00000000000E+00 -0.13819914076E+04  0.13819914076E+04  0.00000000000E+00 0. -1.
    9000007    1    1    2  501    0  0.32733649108E+03  0.12846423147E+03  0.45439818015E+02  0.53452503611E+03  0.40000000000E+03 0. -1.
   -9000007    1    1    2    0  503 -0.32733649108E+03 -0.12846423147E+03 -0.10751048413E+04  0.11997927559E+04  0.40000000000E+03 0. -1.
<mgrwt>
<rscale>  2 0.53259012E+03</rscale>
<asrwt>0</asrwt>
<pdfrwt beam="1">  1       21 0.54204059E-01 0.53259012E+03</pdfrwt>
<pdfrwt beam="2">  1       21 0.21261406E+00 0.53259012E+03</pdfrwt>
<totfact> 0.28043289E+02</totfact>
</mgrwt>
</event>
<event>
 4    1  0.4689683E-002  0.4197442E+03  0.7818608E-02  0.1037150E+00
         21   -1    0    0  503  502  0.00000000000E+00  0.00000000000E+00  0.41355209275E+03  0.41355209275E+03  0.00000000000E+00 0. -1.
         21   -1    0    0  501  503 -0.00000000000E+00 -0.00000000000E+00 -0.52576175389E+03  0.52576175389E+03  0.00000000000E+00 0. -1.
    9000007    1    1    2  501    0 -0.11738047423E+03 -0.49061052421E+02  0.14844788742E+03  0.44522122352E+03  0.40000000000E+03 0. -1.
   -9000007    1    1    2    0  502  0.11738047423E+03  0.49061052421E+02 -0.26065754856E+03  0.49409262311E+03  0.40000000000E+03 0. -1.
<mgrwt>
<rscale>  2 0.41974416E+03</rscale>
<asrwt>0</asrwt>
<pdfrwt beam="1">  1       21 0.63623399E-01 0.41974416E+03</pdfrwt>
<pdfrwt beam="2">  1       21 0.80886423E-01 0.41974416E+03</pdfrwt>
<totfact> 0.26905112E+03</totfact>
</mgrwt>
</event>
<event>
 4    1  0.4689683E-002  0.6172421E+03  0.7818608E-02  0.9870266E-01
         21   -1    0    0  501  502  0.00000000000E+00  0.00000000000E+00  0.62697231925E+03  0.62697231925E+03  0.00000000000E+00 0. -1.
         21   -1    0    0  502  503 -0.00000000000E+00 -0.00000000000E+00 -0.11618198987E+04  0.11618198987E+04  0.00000000000E+00 0. -1.
    9000007    1    1    2  501    0  0.35645889008E+03  0.30647169961E+03  0.35027520057E+03  0.70970455762E+03  0.40000000000E+03 0. -1.
   -9000007    1    1    2    0  503 -0.35645889008E+03 -0.30647169961E+03 -0.88512278001E+03  0.10790876603E+04  0.40000000000E+03 0. -1.
<mgrwt>
<rscale>  2 0.61724213E+03</rscale>
<asrwt>0</asrwt>
<pdfrwt beam="1">  1       21 0.96457281E-01 0.61724213E+03</pdfrwt>
<pdfrwt beam="2">  1       21 0.17874152E+00 0.61724213E+03</pdfrwt>
<totfact> 0.12362431E+02</totfact>
</mgrwt>
</event>
<event>
 4    1  0.4689683E-002  0.4369881E+03  0.7818608E-02  0.1031675E+00
         21   -1    0    0  501  502  0.00000000000E+00  0.00000000000E+00  0.16685297814E+03  0.16685297814E+03  0.00000000000E+00 0. -1.
         21   -1    0    0  502  503 -0.00000000000E+00 -0.00000000000E+00 -0.13909903650E+04  0.13909903650E+04  0.00000000000E+00 0. -1.
    9000007    1    1    2  501    0 -0.11418725753E+03  0.13386512154E+03 -0.28415756175E+03  0.52125245366E+03  0.40000000000E+03 0. -1.
   -9000007    1    1    2    0  503  0.11418725753E+03 -0.13386512154E+03 -0.93997982515E+03  0.10365908895E+04  0.40000000000E+03 0. -1.
<mgrwt>
<rscale>  2 0.43698810E+03</rscale>
<asrwt>0</asrwt>
<pdfrwt beam="1">  1       21 0.25669690E-01 0.43698810E+03</pdfrwt>
<pdfrwt beam="2">  1       21 0.21399851E+00 0.43698810E+03</pdfrwt>
<totfact> 0.13259960E+03</totfact>
</mgrwt>
</event>
<event>
 4    1  0.4689683E-002  0.4318162E+03  0.7818608E-02  0.1033288E+00
         21   -1    0    0  501  502  0.00000000000E+00  0.00000000000E+00  0.13719531717E+03  0.13719531717E+03  0.00000000000E+00 0. -1.
         21   -1    0    0  502  503 -0.00000000000E+00 -0.00000000000E+00 -0.13789532981E+04  0.13789532981E+04  0.00000000000E+00 0. -1.
    9000007    1    1    2  501    0  0.16219117149E+03  0.12618837321E+02 -0.52996942246E+03  0.68361743681E+03  0.40000000000E+03 0. -1.
   -9000007    1    1    2    0  503 -0.16219117149E+03 -0.12618837321E+02 -0.71178855851E+03  0.83253117851E+03  0.40000000000E+03 0. -1.
<mgrwt>
<rscale>  2 0.43181618E+03</rscale>
<asrwt>0</asrwt>
<pdfrwt beam="1">  1       21 0.21106972E-01 0.43181618E+03</pdfrwt>
<pdfrwt beam="2">  1       21 0.21214666E+00 0.43181618E+03</pdfrwt>
<totfact> 0.19936475E+03</totfact>
</mgrwt>
</event>
<event>
 4    1  0.4689683E-002  0.4519917E+03  0.7818608E-02  0.1027130E+00
         21   -1    0    0  501  502  0.00000000000E+00  0.00000000000E+00  0.17701890962E+03  0.17701890962E+03  0.00000000000E+00 0.  1.
         21   -1    0    0  502  503 -0.00000000000E+00 -0.00000000000E+00 -0.13457099768E+04  0.13457099768E+04  0.00000000000E+00 0.  1.
    9000007    1    1    2  501    0 -0.14954872610E+03  0.14809356844E+03 -0.87164333148E+03  0.98186487044E+03  0.40000000000E+03 0.  1.
   -9000007    1    1    2    0  503  0.14954872610E+03 -0.14809356844E+03 -0.29704773571E+03  0.54086401598E+03  0.40000000000E+03 0.  1.
<mgrwt>
<rscale>  2 0.45199173E+03</rscale>
<asrwt>0</asrwt>
<pdfrwt beam="1">  1       21 0.27233679E-01 0.45199173E+03</pdfrwt>
<pdfrwt beam="2">  1       21 0.20703230E+00 0.45199173E+03</pdfrwt>
<totfact> 0.13020716E+03</totfact>
</mgrwt>
</event>
<event>
 4    1  0.4689683E-002  0.4041441E+03  0.7818608E-02  0.1042354E+00
         21   -1    0    0  503  502  0.00000000000E+00  0.00000000000E+00  0.66128636891E+03  0.66128636891E+03  0.00000000000E+00 0. -1.
         21   -1    0    0  501  503 -0.00000000000E+00 -0.00000000000E+00 -0.24709634579E+03  0.24709634579E+03  0.00000000000E+00 0. -1.
    9000007    1    1    2  501    0 -0.57683555944E+02 -0.22562014876E+01  0.21642576044E+03  0.45844584506E+03  0.40000000000E+03 0. -1.
   -9000007    1    1    2    0  502  0.57683555944E+02  0.22562014876E+01  0.19776426268E+03  0.44993686964E+03  0.40000000000E+03 0. -1.
<mgrwt>
<rscale>  2 0.40414414E+03</rscale>
<asrwt>0</asrwt>
<pdfrwt beam="1">  1       21 0.10173636E+00 0.40414414E+03</pdfrwt>
<pdfrwt beam="2">  1       21 0.38014823E-01 0.40414414E+03</pdfrwt>
<totfact> 0.46856816E+03</totfact>
</mgrwt>
</event>
<event>
 4    1  0.4689683E-002  0.4799190E+03  0.7818608E-02  0.1019157E+00
         21   -1    0    0  503  502  0.00000000000E+00  0.00000000000E+00  0.46188297342E+03  0.46188297342E+03  0.00000000000E+00 0. -1.
         21   -1    0    0  501  503 -0.00000000000E+00 -0.00000000000E+00 -0.13156777852E+04  0.13156777852E+04  0.00000000000E+00 0. -1.
    9000007    1    1    2  501    0  0.11872079924E+03 -0.23712365634E+03 -0.11272804437E+04  0.12251871103E+04  0.40000000000E+03 0. -1.
   -9000007    1    1    2    0  502 -0.11872079924E+03  0.23712365634E+03  0.27348563186E+03  0.55237364836E+03  0.40000000000E+03 0. -1.
<mgrwt>
<rscale>  2 0.47991901E+03</rscale>
<asrwt>0</asrwt>
<pdfrwt beam="1">  1       21 0.71058919E-01 0.47991901E+03</pdfrwt>
<pdfrwt beam="2">  1       21 0.20241197E+00 0.47991901E+03</pdfrwt>
<totfact> 0.18442689E+02</totfact>
</mgrwt>
</event>
<event>
 4    1  0.4689683E-002  0.5014614E+03  0.7818608E-02  0.1013398E+00
         21   -1    0    0  503  502  0.00000000000E+00  0.00000000000E+00  0.50944273971E+03  0.50944273971E+03  0.00000000000E+00 0.  1.
         21   -1    0    0  501  503 -0.00000000000E+00 -0.00000000000E+00 -0.52140680970E+03  0.52140680970E+03  0.00000000000E+00 0.  1.
    9000007    1    1    2  501    0 -0.30184454751E+03 -0.18799250899E+02  0.11303594265E+03  0.51404344858E+03  0.40000000000E+03 0.  1.
   -9000007    1    1    2    0  502  0.30184454751E+03  0.18799250899E+02 -0.12500001265E+03  0.51680610083E+03  0.40000000000E+03 0.  1.
<mgrwt>
<rscale>  2 0.50146141E+03</rscale>
<asrwt>0</asrwt>
<pdfrwt beam="1">  1       21 0.78375806E-01 0.50146141E+03</pdfrwt>
<pdfrwt beam="2">  1       21 0.80216432E-01 0.50146141E+03</pdfrwt>
<totfact> 0.16628369E+03</totfact>
</mgrwt>
</event>
<event>
 4    1  0.4689683E-002  0.4225778E+03  0.7818608E-02  0.1036231E+00
         21   -1    0    0  501  502  0.00000000000E+00  0.00000000000E+00  0.46644717989E+03  0.46644717989E+03  0.00000000000E+00 0.  1.
         21   -1    0    0  502  503 -0.00000000000E+00 -0.00000000000E+00 -0.54994313961E+03  0.54994313961E+03  0.00000000000E+00 0.  1.
    9000007    1    1    2  501    0  0.10056642446E+03 -0.91969304569E+02  0.23838961776E+03  0.48518199530E+03  0.40000000000E+03 0.  1.
   -9000007    1    1    2    0  503 -0.10056642446E+03  0.91969304569E+02 -0.32188557748E+03  0.53120832420E+03  0.40000000000E+03 0.  1.
<mgrwt>
<rscale>  2 0.42257775E+03</rscale>
<asrwt>0</asrwt>
<pdfrwt beam="1">  1       21 0.71761105E-01 0.42257775E+03</pdfrwt>
<pdfrwt beam="2">  1       21 0.84606637E-01 0.42257775E+03</pdfrwt>
<totfact> 0.18501152E+03</totfact>
</mgrwt>
</event>
<event>
 4    1  0.4689683E-002  0.4471726E+03  0.7818608E-02  0.1028569E+00
         21   -1    0    0  501  502  0.00000000000E+00  0.00000000000E+00  0.15181962257E+04  0.15181962257E+04  0.00000000000E+00 0. -1.
         21   -1    0    0  502  503 -0.00000000000E+00 -0.00000000000E+00 -0.13315236655E+03  0.13315236655E+03  0.00000000000E+00 0. -1.
    9000007    1    1    2  501    0  0.19077251409E+03 -0.59742358837E+02  0.77842443135E+03  0.89772373083E+03  0.40000000000E+03 0. -1.
   -9000007    1    1    2    0  503 -0.19077251409E+03  0.59742358837E+02  0.60661942781E+03  0.75362486144E+03  0.40000000000E+03 0. -1.
<mgrwt>
<rscale>  2 0.44717256E+03</rscale>
<asrwt>0</asrwt>
<pdfrwt beam="1">  1       21 0.23356864E+00 0.44717256E+03</pdfrwt>
<pdfrwt beam="2">  1       21 0.20484981E-01 0.44717256E+03</pdfrwt>
<totfact> 0.15314637E+03</totfact>
</mgrwt>
</event>
<event>
 4    1  0.4689683E-002  0.8180598E+03  0.7818608E-02  0.9534238E-01
         21   -1    0    0  501  502  0.00000000000E+00  0.00000000000E+00  0.16093129241E+04  0.16093129241E+04  0.00000000000E+00 0.  1.
         21   -1    0    0  502  503 -0.00000000000E+00 -0.00000000000E+00 -0.45016585339E+03  0.45016585339E+03  0.00000000000E+00 0. -1.
    9000007    1    1    2  501    0  0.53497838254E+03 -0.47224982020E+03  0.86390948171E+03  0.11897736571E+04  0.40000000000E+03 0.  1.
   -9000007    1    1    2    0  503 -0.53497838254E+03  0.47224982020E+03  0.29523758894E+03  0.86970512037E+03  0.40000000000E+03 0. -1.
<mgrwt>
<rscale>  2 0.81805975E+03</rscale>
<asrwt>0</asrwt>
<pdfrwt beam="1">  1       21 0.24758660E+00 0.81805975E+03</pdfrwt>
<pdfrwt beam="2">  1       21 0.69256286E-01 0.81805975E+03</pdfrwt>
<totfact> 0.87459879E+01</totfact>
</mgrwt>
</event>
<event>
 4    1  0.4689683E-002  0.4110688E+03  0.7818608E-02  0.1040013E+00
         21   -1    0    0  503  502  0.00000000000E+00  0.00000000000E+00  0.85194526820E+03  0.85194526820E+03  0.00000000000E+00 0. -1.
         21   -1    0    0  501  503 -0.00000000000E+00 -0.00000000000E+00 -0.23519670580E+03  0.23519670580E+03  0.00000000000E+00 0. -1.
    9000007    1    1    2  501    0 -0.94022193231E+02  0.11722472317E+02  0.52354332449E+03  0.66563894252E+03  0.40000000000E+03 0. -1.
   -9000007    1    1    2    0  502  0.94022193231E+02 -0.11722472317E+02  0.93205237910E+02  0.42150303148E+03  0.40000000000E+03 0. -1.
<mgrwt>
<rscale>  2 0.41106884E+03</rscale>
<asrwt>0</asrwt>
<pdfrwt beam="1">  1       21 0.13106850E+00 0.41106884E+03</pdfrwt>
<pdfrwt beam="2">  1       21 0.36184109E-01 0.41106884E+03</pdfrwt>
<totfact> 0.27360036E+03</totfact>
</mgrwt>
</event>
<event>
 4    1  0.4689683E-002  0.4238935E+03  0.7818608E-02  0.1035807E+00
         21   -1    0    0  501  502  0.00000000000E+00  0.00000000000E+00  0.60647788673E+03  0.60647788673E+03  0.00000000000E+00 0. -1.
         21   -1    0    0  502  503 -0.00000000000E+00 -0.00000000000E+00 -0.29653624317E+03  0.29653624317E+03  0.00000000000E+00 0. -1.
    9000007    1    1    2  501    0  0.91591163537E+02  0.10628607282E+03  0.16831134798E+03  0.45608593529E+03  0.40000000000E+03 0. -1.
   -9000007    1    1    2    0  503 -0.91591163537E+02 -0.10628607282E+03  0.14163029557E+03  0.44692819461E+03  0.40000000000E+03 0. -1.
<mgrwt>
<rscale>  2 0.42389347E+03</rscale>
<asrwt>0</asrwt>
<pdfrwt beam="1">  1       21 0.93304290E-01 0.42389347E+03</pdfrwt>
<pdfrwt beam="2">  1       21 0.45620961E-01 0.42389347E+03</pdfrwt>
<totfact> 0.39285417E+03</totfact>
</mgrwt>
</event>
<event>
 4    1  0.4689683E-002  0.7288180E+03  0.7818608E-02  0.9669180E-01
         21   -1    0    0  503  502  0.00000000000E+00  0.00000000000E+00  0.15282325048E+04  0.15282325048E+04  0.00000000000E+00 0.  1.
         21   -1    0    0  501  503 -0.00000000000E+00 -0.00000000000E+00 -0.55287217613E+03  0.55287217613E+03  0.00000000000E+00 0. -1.
    9000007    1    1    2  501    0  0.23032992593E+03 -0.56402465725E+03 -0.14639809122E+03  0.74337614293E+03  0.40000000000E+03 0. -1.
   -9000007    1    1    2    0  502 -0.23032992593E+03  0.56402465725E+03  0.11217584198E+04  0.13377285380E+04  0.40000000000E+03 0.  1.
<mgrwt>
<rscale>  2 0.72881801E+03</rscale>
<asrwt>0</asrwt>
<pdfrwt beam="1">  1       21 0.23511269E+00 0.72881801E+03</pdfrwt>
<pdfrwt beam="2">  1       21 0.85057259E-01 0.72881801E+03</pdfrwt>
<totfact> 0.67115621E+01</totfact>
</mgrwt>
</event>
<event>
 4    1  0.4689683E-002  0.4306468E+03  0.7818608E-02  0.1033656E+00
         21   -1    0    0  503  502  0.00000000000E+00  0.00000000000E+00  0.15499732382E+03  0.15499732382E+03  0.00000000000E+00 0. -1.
         21   -1    0    0  501  503 -0.00000000000E+00 -0.00000000000E+00 -0.13714460441E+04  0.13714460441E+04  0.00000000000E+00 0. -1.
    9000007    1    1    2  501    0 -0.12005561988E+03 -0.10508719661E+03 -0.33564410193E+03  0.54599783325E+03  0.40000000000E+03 0. -1.
   -9000007    1    1    2    0  502  0.12005561988E+03  0.10508719661E+03 -0.88080461836E+03  0.98044553468E+03  0.40000000000E+03 0. -1.
<mgrwt>
<rscale>  2 0.43064681E+03</rscale>
<asrwt>0</asrwt>
<pdfrwt beam="1">  1       21 0.23845744E-01 0.43064681E+03</pdfrwt>
<pdfrwt beam="2">  1       21 0.21099169E+00 0.43064681E+03</pdfrwt>
<totfact> 0.16050480E+03</totfact>
</mgrwt>
</event>
<event>
 4    1  0.4689683E-002  0.4122125E+03  0.7818608E-02  0.1039631E+00
         21   -1    0    0  501  502  0.00000000000E+00  0.00000000000E+00  0.42850040595E+03  0.42850040595E+03  0.00000000000E+00 0. -1.
         21   -1    0    0  502  503 -0.00000000000E+00 -0.00000000000E+00 -0.68371087011E+03  0.68371087011E+03  0.00000000000E+00 0. -1.
    9000007    1    1    2  501    0  0.33525376815E+02 -0.93782770839E+02  0.23279777855E+03  0.47340676452E+03  0.40000000000E+03 0. -1.
   -9000007    1    1    2    0  503 -0.33525376815E+02  0.93782770839E+02 -0.48800824271E+03  0.63880451153E+03  0.40000000000E+03 0. -1.
<mgrwt>
<rscale>  2 0.41221252E+03</rscale>
<asrwt>0</asrwt>
<pdfrwt beam="1">  1       21 0.65923140E-01 0.41221252E+03</pdfrwt>
<pdfrwt beam="2">  1       21 0.10518629E+00 0.41221252E+03</pdfrwt>
<totfact> 0.13350781E+03</totfact>
</mgrwt>
</event>
<event>
 4    1  0.4689683E-002  0.4918995E+03  0.7818608E-02  0.1015915E+00
         21   -1    0    0  503  502  0.00000000000E+00  0.00000000000E+00  0.14537800164E+03  0.14537800164E+03  0.00000000000E+00 0.  1.
         21   -1    0    0  501  503 -0.00000000000E+00 -0.00000000000E+00 -0.17062118215E+04  0.17062118215E+04  0.00000000000E+00 0.  1.
    9000007    1    1    2  501    0  0.12147916044E+03  0.25924491851E+03 -0.92536764721E+03  0.10479839678E+04  0.40000000000E+03 0.  1.
   -9000007    1    1    2    0  502 -0.12147916044E+03 -0.25924491851E+03 -0.63546617264E+03  0.80360585536E+03  0.40000000000E+03 0.  1.
<mgrwt>
<rscale>  2 0.49189950E+03</rscale>
<asrwt>0</asrwt>
<pdfrwt beam="1">  1       21 0.22365846E-01 0.49189950E+03</pdfrwt>
<pdfrwt beam="2">  1       21 0.26249413E+00 0.49189950E+03</pdfrwt>
<totfact> 0.83994426E+02</totfact>
</mgrwt>
</event>
<event>
 4    1  0.4689683E-002  0.4238253E+03  0.7818608E-02  0.1035828E+00
         21   -1    0    0  503  502  0.00000000000E+00  0.00000000000E+00  0.76123912206E+03  0.76123912206E+03  0.00000000000E+00 0.  1.
         21   -1    0    0  501  503 -0.00000000000E+00 -0.00000000000E+00 -0.63405133460E+03  0.63405133460E+03  0.00000000000E+00 0.  1.
    9000007    1    1    2  501    0  0.13832530255E+03 -0.22226108387E+02 -0.48919530401E+03  0.64725569498E+03  0.40000000000E+03 0.  1.
   -9000007    1    1    2    0  502 -0.13832530255E+03  0.22226108387E+02  0.61638309148E+03  0.74803476168E+03  0.40000000000E+03 0.  1.
<mgrwt>
<rscale>  2 0.42382531E+03</rscale>
<asrwt>0</asrwt>
<pdfrwt beam="1">  1       21 0.11711371E+00 0.42382531E+03</pdfrwt>
<pdfrwt beam="2">  1       21 0.97546359E-01 0.42382531E+03</pdfrwt>
<totfact> 0.41147439E+02</totfact>
</mgrwt>
</event>
<event>
 4    1  0.4689683E-002  0.7935344E+03  0.7818608E-02  0.9569423E-01
         21   -1    0    0  503  502  0.00000000000E+00  0.00000000000E+00  0.12845033059E+04  0.12845033059E+04  0.00000000000E+00 0.  1.
         21   -1    0    0  501  503 -0.00000000000E+00 -0.00000000000E+00 -0.58737867025E+03  0.58737867025E+03  0.00000000000E+00 0. -1.
    9000007    1    1    2  501    0 -0.48827223935E+03  0.48092313595E+03 -0.32079836609E+02  0.79418257242E+03  0.40000000000E+03 0. -1.
   -9000007    1    1    2    0  502  0.48827223935E+03 -0.48092313595E+03  0.72920447223E+03  0.10776994037E+04  0.40000000000E+03 0.  1.
<mgrwt>
<rscale>  2 0.79353440E+03</rscale>
<asrwt>0</asrwt>
<pdfrwt beam="1">  1       21 0.19761589E+00 0.79353440E+03</pdfrwt>
<pdfrwt beam="2">  1       21 0.90365950E-01 0.79353440E+03</pdfrwt>
<totfact> 0.10047712E+02</totfact>
</mgrwt>
</event>
<event>
 4    1  0.4689683E-002  0.4421204E+03  0.7818608E-02  0.1030098E+00
         21   -1    0    0  503  502  0.00000000000E+00  0.00000000000E+00  0.85746272814E+03  0.85746272814E+03  0.00000000000E+00 0.  1.
         21   -1    0    0  501  503 -0.00000000000E+00 -0.00000000000E+00 -0.34733053511E+03  0.34733053511E+03  0.00000000000E+00 0.  1.
    9000007    1    1    2  501    0  0.81222166031E+02  0.16992172880E+03 -0.98078665073E+02  0.45286847839E+03  0.40000000000E+03 0. -1.
   -9000007    1    1    2    0  502 -0.81222166031E+02 -0.16992172880E+03  0.60821085811E+03  0.75192478486E+03  0.40000000000E+03 0. -1.
<mgrwt>
<rscale>  2 0.44212038E+03</rscale>
<asrwt>0</asrwt>
<pdfrwt beam="1">  1       21 0.13191734E+00 0.44212038E+03</pdfrwt>
<pdfrwt beam="2">  1       21 0.53435467E-01 0.44212038E+03</pdfrwt>
<totfact> 0.11777194E+03</totfact>
</mgrwt>
</event>
<event>
 4    1  0.4689683E-002  0.4531082E+03  0.7818608E-02  0.1026799E+00
         21   -1    0    0  503  502  0.00000000000E+00  0.00000000000E+00  0.10281641451E+04  0.10281641451E+04  0.00000000000E+00 0.  1.
         21   -1    0    0  501  503 -0.00000000000E+00 -0.00000000000E+00 -0.30735418301E+03  0.30735418301E+03  0.00000000000E+00 0.  1.
    9000007    1    1    2  501    0 -0.12481480370E+03  0.17241888797E+03 -0.34824948484E+02  0.45444447977E+03  0.40000000000E+03 0.  1.
   -9000007    1    1    2    0  502  0.12481480370E+03 -0.17241888797E+03  0.75563491054E+03  0.88107384831E+03  0.40000000000E+03 0.  1.
<mgrwt>
<rscale>  2 0.45310816E+03</rscale>
<asrwt>0</asrwt>
<pdfrwt beam="1">  1       21 0.15817910E+00 0.45310816E+03</pdfrwt>
<pdfrwt beam="2">  1       21 0.47285259E-01 0.45310816E+03</pdfrwt>
<totfact> 0.93406403E+02</totfact>
</mgrwt>
</event>
<event>
 4    1  0.4689683E-002  0.5097400E+03  0.7818608E-02  0.1011267E+00
         21   -1    0    0  501  502  0.00000000000E+00  0.00000000000E+00  0.18542651909E+03  0.18542651909E+03  0.00000000000E+00 0.  1.
         21   -1    0    0  502  503 -0.00000000000E+00 -0.00000000000E+00 -0.21122013491E+04  0.21122013491E+04  0.00000000000E+00 0.  1.
    9000007    1    1    2  501    0 -0.37936542346E+02  0.31368080724E+03 -0.29689958116E+03  0.58990184892E+03  0.40000000000E+03 0.  1.
   -9000007    1    1    2    0  503  0.37936542346E+02 -0.31368080724E+03 -0.16298752489E+04  0.17077260193E+04  0.40000000000E+03 0.  1.
<mgrwt>
<rscale>  2 0.50973996E+03</rscale>
<asrwt>0</asrwt>
<pdfrwt beam="1">  1       21 0.28527158E-01 0.50973996E+03</pdfrwt>
<pdfrwt beam="2">  1       21 0.32495404E+00 0.50973996E+03</pdfrwt>
<totfact> 0.21653698E+02</totfact>
</mgrwt>
</event>
<event>
 4    1  0.4689683E-002  0.4131196E+03  0.7818608E-02  0.1039329E+00
         21   -1    0    0  503  502  0.00000000000E+00  0.00000000000E+00  0.78660570847E+03  0.78660570847E+03  0.00000000000E+00 0.  1.
         21   -1    0    0  501  503 -0.00000000000E+00 -0.00000000000E+00 -0.54430352989E+03  0.54430352989E+03  0.00000000000E+00 0.  1.
    9000007    1    1    2  501    0  0.56102916340E+02  0.86719607464E+02 -0.39490251210E+03  0.57150312476E+03  0.40000000000E+03 0.  1.
   -9000007    1    1    2    0  502 -0.56102916340E+02 -0.86719607464E+02  0.63720469069E+03  0.75940611360E+03  0.40000000000E+03 0.  1.
<mgrwt>
<rscale>  2 0.41311963E+03</rscale>
<asrwt>0</asrwt>
<pdfrwt beam="1">  1       21 0.12101626E+00 0.41311963E+03</pdfrwt>
<pdfrwt beam="2">  1       21 0.83739004E-01 0.41311963E+03</pdfrwt>
<totfact> 0.54636102E+02</totfact>
</mgrwt>
</event>
<event>
 4    1  0.4689683E-002  0.6288239E+03  0.7818608E-02  0.9847347E-01
         21   -1    0    0  501  502  0.00000000000E+00  0.00000000000E+00  0.29416711393E+03  0.29416711393E+03  0.00000000000E+00 0. -1.
         21   -1    0    0  502  503 -0.00000000000E+00 -0.00000000000E+00 -0.14030169216E+04  0.14030169216E+04  0.00000000000E+00 0.  1.
    9000007    1    1    2  501    0  0.33839396985E+03  0.34771978412E+03 -0.38067784116E+03  0.73507492533E+03  0.40000000000E+03 0. -1.
   -9000007    1    1    2    0  503 -0.33839396985E+03 -0.34771978412E+03 -0.72817196647E+03  0.96210911016E+03  0.40000000000E+03 0.  1.
<mgrwt>
<rscale>  2 0.62882392E+03</rscale>
<asrwt>0</asrwt>
<pdfrwt beam="1">  1       21 0.45256479E-01 0.62882392E+03</pdfrwt>
<pdfrwt beam="2">  1       21 0.21584876E+00 0.62882392E+03</pdfrwt>
<totfact> 0.37798213E+02</totfact>
</mgrwt>
</event>
<event>
 4    1  0.4689683E-002  0.4080927E+03  0.7818608E-02  0.1041013E+00
         21   -1    0    0  501  502  0.00000000000E+00  0.00000000000E+00  0.37053617928E+03  0.37053617928E+03  0.00000000000E+00 0.  1.
         21   -1    0    0  502  503 -0.00000000000E+00 -0.00000000000E+00 -0.47983900681E+03  0.47983900681E+03  0.00000000000E+00 0.  1.
    9000007    1    1    2  501    0 -0.41720020157E+02 -0.69275609110E+02 -0.16164282953E+03  0.43893971618E+03  0.40000000000E+03 0.  1.
   -9000007    1    1    2    0  503  0.41720020157E+02  0.69275609110E+02  0.52340001992E+02  0.41143546992E+03  0.40000000000E+03 0.  1.
<mgrwt>
<rscale>  2 0.40809272E+03</rscale>
<asrwt>0</asrwt>
<pdfrwt beam="1">  1       21 0.57005566E-01 0.40809272E+03</pdfrwt>
<pdfrwt beam="2">  1       21 0.73821385E-01 0.40809272E+03</pdfrwt>
<totfact> 0.42370704E+03</totfact>
</mgrwt>
</event>
<event>
 4    1  0.4689683E-002  0.4720373E+03  0.7818608E-02  0.1021347E+00
         21   -1    0    0  503  502  0.00000000000E+00  0.00000000000E+00  0.74326018213E+03  0.74326018213E+03  0.00000000000E+00 0. -1.
         21   -1    0    0  501  503 -0.00000000000E+00 -0.00000000000E+00 -0.72873253162E+03  0.72873253162E+03  0.00000000000E+00 0. -1.
    9000007    1    1    2  501    0 -0.91904968175E+02 -0.23317949304E+03 -0.55740398192E+03  0.73042343761E+03  0.40000000000E+03 0. -1.
   -9000007    1    1    2    0  502  0.91904968175E+02  0.23317949304E+03  0.57193163243E+03  0.74156927614E+03  0.40000000000E+03 0. -1.
<mgrwt>
<rscale>  2 0.47203729E+03</rscale>
<asrwt>0</asrwt>
<pdfrwt beam="1">  1       21 0.11434772E+00 0.47203729E+03</pdfrwt>
<pdfrwt beam="2">  1       21 0.11211270E+00 0.47203729E+03</pdfrwt>
<totfact> 0.30333409E+02</totfact>
</mgrwt>
</event>
<event>
 4    1  0.4689683E-002  0.4718360E+03  0.7818608E-02  0.1021403E+00
         21   -1    0    0  501  502  0.00000000000E+00  0.00000000000E+00  0.21577586999E+03  0.21577586999E+03  0.00000000000E+00 0.  1.
         21   -1    0    0  502  503 -0.00000000000E+00 -0.00000000000E+00 -0.11436973799E+04  0.11436973799E+04  0.00000000000E+00 0.  1.
    9000007    1    1    2  501    0  0.19871461051E+03 -0.15212406943E+03 -0.25130858261E+03  0.53458884446E+03  0.40000000000E+03 0.  1.
   -9000007    1    1    2    0  503 -0.19871461051E+03  0.15212406943E+03 -0.67661292730E+03  0.82488440543E+03  0.40000000000E+03 0.  1.
<mgrwt>
<rscale>  2 0.47183602E+03</rscale>
<asrwt>0</asrwt>
<pdfrwt beam="1">  1       21 0.33196288E-01 0.47183602E+03</pdfrwt>
<pdfrwt beam="2">  1       21 0.17595344E+00 0.47183602E+03</pdfrwt>
<totfact> 0.14202078E+03</totfact>
</mgrwt>
</event>
<event>
 4    1  0.4689683E-002  0.5312365E+03  0.7818608E-02  0.1005933E+00
         21   -1    0    0  503  502  0.00000000000E+00  0.00000000000E+00  0.16529359196E+04  0.16529359196E+04  0.00000000000E+00 0. -1.
         21   -1    0    0  501  503 -0.00000000000E+00 -0.00000000000E+00 -0.17085424342E+03  0.17085424342E+03  0.00000000000E+00 0. -1.
    9000007    1    1    2  501    0  0.29346954020E+03 -0.18996811296E+03  0.71684287594E+03  0.89223089151E+03  0.40000000000E+03 0. -1.
   -9000007    1    1    2    0  502 -0.29346954020E+03  0.18996811296E+03  0.76523880029E+03  0.93155927156E+03  0.40000000000E+03 0. -1.
<mgrwt>
<rscale>  2 0.53123653E+03</rscale>
<asrwt>0</asrwt>
<pdfrwt beam="1">  1       21 0.25429782E+00 0.53123653E+03</pdfrwt>
<pdfrwt beam="2">  1       21 0.26285269E-01 0.53123653E+03</pdfrwt>
<totfact> 0.67693205E+02</totfact>
</mgrwt>
</event>
<event>
 4    1  0.4689683E-002  0.5525218E+03  0.7818608E-02  0.1000912E+00
         21   -1    0    0  503  502  0.00000000000E+00  0.00000000000E+00  0.23924121130E+03  0.23924121130E+03  0.00000000000E+00 0. -1.
         21   -1    0    0  501  503 -0.00000000000E+00 -0.00000000000E+00 -0.14340363039E+04  0.14340363039E+04  0.00000000000E+00 0. -1.
    9000007    1    1    2  501    0  0.83673143005E+02  0.37185909179E+03 -0.87510464320E+03  0.10349340634E+04  0.40000000000E+03 0. -1.
   -9000007    1    1    2    0  502 -0.83673143005E+02 -0.37185909179E+03 -0.31969044935E+03  0.63834345177E+03  0.40000000000E+03 0. -1.
<mgrwt>
<rscale>  2 0.55252184E+03</rscale>
<asrwt>0</asrwt>
<pdfrwt beam="1">  1       21 0.36806340E-01 0.55252184E+03</pdfrwt>
<pdfrwt beam="2">  1       21 0.22062097E+00 0.55252184E+03</pdfrwt>
<totfact> 0.55660324E+02</totfact>
</mgrwt>
</event>
<event>
 4    1  0.4689683E-002  0.4005034E+03  0.7818608E-02  0.1043606E+00
         21   -1    0    0  503  502  0.00000000000E+00  0.00000000000E+00  0.70095548937E+03  0.70095548937E+03  0.00000000000E+00 0.  1.
         21   -1    0    0  501  503 -0.00000000000E+00 -0.00000000000E+00 -0.44321385421E+03  0.44321385421E+03  0.00000000000E+00 0.  1.
    9000007    1    1    2  501    0 -0.50019202497E+01 -0.19440993435E+02 -0.26900255737E+03  0.48245761193E+03  0.40000000000E+03 0.  1.
   -9000007    1    1    2    0  502  0.50019202497E+01  0.19440993435E+02  0.52674419254E+03  0.66171173165E+03  0.40000000000E+03 0.  1.
<mgrwt>
<rscale>  2 0.40050340E+03</rscale>
<asrwt>0</asrwt>
<pdfrwt beam="1">  1       21 0.10783931E+00 0.40050340E+03</pdfrwt>
<pdfrwt beam="2">  1       21 0.68186747E-01 0.40050340E+03</pdfrwt>
<totfact> 0.11708731E+03</totfact>
</mgrwt>
</event>
<event>
 4    1  0.4689683E-002  0.6329622E+03  0.7818608E-02  0.9839285E-01
         21   -1    0    0  501  502  0.00000000000E+00  0.00000000000E+00  0.13374470920E+04  0.13374470920E+04  0.00000000000E+00 0.  1.
         21   -1    0    0  502  503 -0.00000000000E+00 -0.00000000000E+00 -0.68037493140E+03  0.68037493140E+03  0.00000000000E+00 0. -1.
    9000007    1    1    2  501    0  0.19587217887E+03 -0.44975014872E+03  0.10833460572E+04  0.12547030670E+04  0.40000000000E+03 0.  1.
   -9000007    1    1    2    0  503 -0.19587217887E+03  0.44975014872E+03 -0.42627389657E+03  0.76311895641E+03  0.40000000000E+03 0.  1.
<mgrwt>
<rscale>  2 0.63296217E+03</rscale>
<asrwt>0</asrwt>
<pdfrwt beam="1">  1       21 0.20576109E+00 0.63296217E+03</pdfrwt>
<pdfrwt beam="2">  1       21 0.10467307E+00 0.63296217E+03</pdfrwt>
<totfact> 0.65439977E+01</totfact>
</mgrwt>
</event>
<event>
 4    1  0.4689683E-002  0.4050980E+03  0.7818608E-02  0.1042029E+00
         21   -1    0    0  501  502  0.00000000000E+00  0.00000000000E+00  0.17691342742E+03  0.17691342742E+03  0.00000000000E+00 0.  1.
         21   -1    0    0  502  503 -0.00000000000E+00 -0.00000000000E+00 -0.92783922806E+03  0.92783922806E+03  0.00000000000E+00 0.  1.
    9000007    1    1    2  501    0  0.58334514794E+02  0.26485564923E+02 -0.38438418237E+03  0.55844032843E+03  0.40000000000E+03 0.  1.
   -9000007    1    1    2    0  503 -0.58334514794E+02 -0.26485564923E+02 -0.36654161827E+03  0.54631232705E+03  0.40000000000E+03 0.  1.
<mgrwt>
<rscale>  2 0.40509801E+03</rscale>
<asrwt>0</asrwt>
<pdfrwt beam="1">  1       21 0.27217450E-01 0.40509801E+03</pdfrwt>
<pdfrwt beam="2">  1       21 0.14274450E+00 0.40509801E+03</pdfrwt>
<totfact> 0.38665827E+03</totfact>
</mgrwt>
</event>
<event>
 4    1  0.4689683E-002  0.4186852E+03  0.7818608E-02  0.1037495E+00
         21   -1    0    0  501  502  0.00000000000E+00  0.00000000000E+00  0.17294735720E+04  0.17294735720E+04  0.00000000000E+00 0.  1.
         21   -1    0    0  502  503 -0.00000000000E+00 -0.00000000000E+00 -0.26703272582E+03  0.26703272582E+03  0.00000000000E+00 0.  1.
    9000007    1    1    2  501    0  0.12329232483E+03 -0.98137461042E+01  0.15175155257E+04  0.15742143049E+04  0.40000000000E+03 0.  1.
   -9000007    1    1    2    0  503 -0.12329232483E+03  0.98137461042E+01 -0.55074679524E+02  0.42229199294E+03  0.40000000000E+03 0.  1.
<mgrwt>
<rscale>  2 0.41868521E+03</rscale>
<asrwt>0</asrwt>
<pdfrwt beam="1">  1       21 0.26607285E+00 0.41868521E+03</pdfrwt>
<pdfrwt beam="2">  1       21 0.41081959E-01 0.41868521E+03</pdfrwt>
<totfact> 0.24767674E+02</totfact>
</mgrwt>
</event>
<event>
 4    1  0.4689683E-002  0.4216614E+03  0.7818608E-02  0.1036527E+00
         21   -1    0    0  503  502  0.00000000000E+00  0.00000000000E+00  0.88635736001E+03  0.88635736001E+03  0.00000000000E+00 0.  1.
         21   -1    0    0  501  503 -0.00000000000E+00 -0.00000000000E+00 -0.30223342569E+03  0.30223342569E+03  0.00000000000E+00 0. -1.
    9000007    1    1    2  501    0  0.10262955537E+03  0.85237943385E+02 -0.52574587202E+02  0.42492636991E+03  0.40000000000E+03 0. -1.
   -9000007    1    1    2    0  502 -0.10262955537E+03 -0.85237943385E+02  0.63669852153E+03  0.76366441579E+03  0.40000000000E+03 0.  1.
<mgrwt>
<rscale>  2 0.42166140E+03</rscale>
<asrwt>0</asrwt>
<pdfrwt beam="1">  1       21 0.13636267E+00 0.42166140E+03</pdfrwt>
<pdfrwt beam="2">  1       21 0.46497450E-01 0.42166140E+03</pdfrwt>
<totfact> 0.14641009E+03</totfact>
</mgrwt>
</event>
<event>
 4    1  0.4689683E-002  0.5346157E+03  0.7818608E-02  0.1005119E+00
         21   -1    0    0  501  502  0.00000000000E+00  0.00000000000E+00  0.32089158069E+03  0.32089158069E+03  0.00000000000E+00 0.  1.
         21   -1    0    0  502  503 -0.00000000000E+00 -0.00000000000E+00 -0.89355690334E+03  0.89355690334E+03  0.00000000000E+00 0.  1.
    9000007    1    1    2  501    0 -0.33545730146E+03 -0.11524883115E+03 -0.32074680676E+03  0.62345200956E+03  0.40000000000E+03 0.  1.
   -9000007    1    1    2    0  503  0.33545730146E+03  0.11524883115E+03 -0.25191851589E+03  0.59099647447E+03  0.40000000000E+03 0.  1.
<mgrwt>
<rscale>  2 0.53461565E+03</rscale>
<asrwt>0</asrwt>
<pdfrwt beam="1">  1       21 0.49367937E-01 0.53461565E+03</pdfrwt>
<pdfrwt beam="2">  1       21 0.13747029E+00 0.53461565E+03</pdfrwt>
<totfact> 0.12087406E+03</totfact>
</mgrwt>
</event>
<event>
 4    1  0.4689683E-002  0.4153714E+03  0.7818608E-02  0.1038583E+00
         21   -1    0    0  501  502  0.00000000000E+00  0.00000000000E+00  0.51070444094E+03  0.51070444094E+03  0.00000000000E+00 0.  1.
         21   -1    0    0  502  503 -0.00000000000E+00 -0.00000000000E+00 -0.37868607504E+03  0.37868607504E+03  0.00000000000E+00 0.  1.
    9000007    1    1    2  501    0 -0.94060977847E+02  0.60712003668E+02 -0.80050026448E+02  0.42301468258E+03  0.40000000000E+03 0.  1.
   -9000007    1    1    2    0  503  0.94060977847E+02 -0.60712003668E+02  0.21206839235E+03  0.46637583340E+03  0.40000000000E+03 0.  1.
<mgrwt>
<rscale>  2 0.41537142E+03</rscale>
<asrwt>0</asrwt>
<pdfrwt beam="1">  1       21 0.78569914E-01 0.41537142E+03</pdfrwt>
<pdfrwt beam="2">  1       21 0.58259396E-01 0.41537142E+03</pdfrwt>
<totfact> 0.34957795E+03</totfact>
</mgrwt>
</event>
<event>
 4    1  0.4689683E-002  0.5033320E+03  0.7818608E-02  0.1012913E+00
         21   -1    0    0  503  502  0.00000000000E+00  0.00000000000E+00  0.10911521167E+04  0.10911521167E+04  0.00000000000E+00 0.  1.
         21   -1    0    0  501  503 -0.00000000000E+00 -0.00000000000E+00 -0.23544937874E+03  0.23544937874E+03  0.00000000000E+00 0. -1.
    9000007    1    1    2  501    0  0.29720065108E+03  0.70815850783E+02  0.34968318162E+03  0.61287962867E+03  0.40000000000E+03 0. -1.
   -9000007    1    1    2    0  502 -0.29720065108E+03 -0.70815850783E+02  0.50601955636E+03  0.71372186680E+03  0.40000000000E+03 0.  1.
<mgrwt>
<rscale>  2 0.50333201E+03</rscale>
<asrwt>0</asrwt>
<pdfrwt beam="1">  1       21 0.16786955E+00 0.50333201E+03</pdfrwt>
<pdfrwt beam="2">  1       21 0.36222982E-01 0.50333201E+03</pdfrwt>
<totfact> 0.13454768E+03</totfact>
</mgrwt>
</event>
<event>
 4    1  0.4689683E-002  0.4440140E+03  0.7818608E-02  0.1029522E+00
         21   -1    0    0  501  502  0.00000000000E+00  0.00000000000E+00  0.61014709419E+03  0.61014709419E+03  0.00000000000E+00 0. -1.
         21   -1    0    0  502  503 -0.00000000000E+00 -0.00000000000E+00 -0.33452074653E+03  0.33452074653E+03  0.00000000000E+00 0. -1.
    9000007    1    1    2  501    0  0.10559619817E+02 -0.19244976586E+03  0.50601145878E+02  0.44688801048E+03  0.40000000000E+03 0. -1.
   -9000007    1    1    2    0  503 -0.10559619817E+02  0.19244976586E+03  0.22502520178E+03  0.49777983023E+03  0.40000000000E+03 0. -1.
<mgrwt>
<rscale>  2 0.44401398E+03</rscale>
<asrwt>0</asrwt>
<pdfrwt beam="1">  1       21 0.93868784E-01 0.44401398E+03</pdfrwt>
<pdfrwt beam="2">  1       21 0.51464730E-01 0.44401398E+03</pdfrwt>
<totfact> 0.29789459E+03</totfact>
</mgrwt>
</event>
<event>
 4    1  0.4689683E-002  0.6677420E+03  0.7818608E-02  0.9774046E-01
         21   -1    0    0  503  502  0.00000000000E+00  0.00000000000E+00  0.20420841643E+04  0.20420841643E+04  0.00000000000E+00 0. -1.
         21   -1    0    0  501  503 -0.00000000000E+00 -0.00000000000E+00 -0.33004628303E+03  0.33004628303E+03  0.00000000000E+00 0.  1.
    9000007    1    1    2  501    0  0.28882004588E+02  0.53389621066E+03  0.16601783710E+03  0.68807067674E+03  0.40000000000E+03 0.  1.
   -9000007    1    1    2    0  502 -0.28882004588E+02 -0.53389621066E+03  0.15460200441E+04  0.16840597706E+04  0.40000000000E+03 0. -1.
<mgrwt>
<rscale>  2 0.66774197E+03</rscale>
<asrwt>0</asrwt>
<pdfrwt beam="1">  1       21 0.31416679E+00 0.66774197E+03</pdfrwt>
<pdfrwt beam="2">  1       21 0.50776352E-01 0.66774197E+03</pdfrwt>
<totfact> 0.71192802E+01</totfact>
</mgrwt>
</event>
<event>
 4    1  0.4689683E-002  0.4466063E+03  0.7818608E-02  0.1028739E+00
         21   -1    0    0  503  502  0.00000000000E+00  0.00000000000E+00  0.16600737708E+03  0.16600737708E+03  0.00000000000E+00 0.  1.
         21   -1    0    0  501  503 -0.00000000000E+00 -0.00000000000E+00 -0.13354922077E+04  0.13354922077E+04  0.00000000000E+00 0. -1.
    9000007    1    1    2  501    0  0.18105402537E+03 -0.81710388232E+02 -0.82254759060E+03  0.93597098590E+03  0.40000000000E+03 0. -1.
   -9000007    1    1    2    0  502 -0.18105402537E+03  0.81710388232E+02 -0.34693724006E+03  0.56552859891E+03  0.40000000000E+03 0. -1.
<mgrwt>
<rscale>  2 0.44660626E+03</rscale>
<asrwt>0</asrwt>
<pdfrwt beam="1">  1       21 0.25539597E-01 0.44660626E+03</pdfrwt>
<pdfrwt beam="2">  1       21 0.20546033E+00 0.44660626E+03</pdfrwt>
<totfact> 0.15156163E+03</totfact>
</mgrwt>
</event>
<event>
 4    1  0.4689683E-002  0.5083502E+03  0.7818608E-02  0.1011622E+00
         21   -1    0    0  503  502  0.00000000000E+00  0.00000000000E+00  0.10111212226E+04  0.10111212226E+04  0.00000000000E+00 0. -1.
         21   -1    0    0  501  503 -0.00000000000E+00 -0.00000000000E+00 -0.27175675006E+03  0.27175675006E+03  0.00000000000E+00 0. -1.
    9000007    1    1    2  501    0  0.12964852993E+03  0.28567665902E+03  0.21317170254E+03  0.55123685434E+03  0.40000000000E+03 0. -1.
   -9000007    1    1    2    0  502 -0.12964852993E+03 -0.28567665902E+03  0.52619277005E+03  0.73164111836E+03  0.40000000000E+03 0. -1.
<mgrwt>
<rscale>  2 0.50835017E+03</rscale>
<asrwt>0</asrwt>
<pdfrwt beam="1">  1       21 0.15555711E+00 0.50835017E+03</pdfrwt>
<pdfrwt beam="2">  1       21 0.41808731E-01 0.50835017E+03</pdfrwt>
<totfact> 0.12383170E+03</totfact>
</mgrwt>
</event>
<event>
 4    1  0.4689683E-002  0.5230746E+03  0.7818608E-02  0.1007926E+00
         21   -1    0    0  503  502  0.00000000000E+00  0.00000000000E+00  0.37421909230E+03  0.37421909230E+03  0.00000000000E+00 0.  1.
         21   -1    0    0  501  503 -0.00000000000E+00 -0.00000000000E+00 -0.84500196627E+03  0.84500196627E+03  0.00000000000E+00 0.  1.
    9000007    1    1    2  501    0 -0.22119247122E+03 -0.25432447446E+03 -0.45916583056E+03  0.69601746213E+03  0.40000000000E+03 0.  1.
   -9000007    1    1    2    0  502  0.22119247122E+03  0.25432447446E+03 -0.11617043411E+02  0.52320359645E+03  0.40000000000E+03 0.  1.
<mgrwt>
<rscale>  2 0.52307461E+03</rscale>
<asrwt>0</asrwt>
<pdfrwt beam="1">  1       21 0.57572169E-01 0.52307461E+03</pdfrwt>
<pdfrwt beam="2">  1       21 0.13000030E+00 0.52307461E+03</pdfrwt>
<totfact> 0.10089164E+03</totfact>
</mgrwt>
</event>
<event>
 4    1  0.4689683E-002  0.5201657E+03  0.7818608E-02  0.1008645E+00
         21   -1    0    0  501  502  0.00000000000E+00  0.00000000000E+00  0.14153421099E+04  0.14153421099E+04  0.00000000000E+00 0. -1.
         21   -1    0    0  502  503 -0.00000000000E+00 -0.00000000000E+00 -0.29286658890E+03  0.29286658890E+03  0.00000000000E+00 0. -1.
    9000007    1    1    2  501    0  0.18429732465E+03 -0.27677934053E+03  0.10645380338E+04  0.11848263724E+04  0.40000000000E+03 0. -1.
   -9000007    1    1    2    0  503 -0.18429732465E+03  0.27677934053E+03  0.57937487212E+02  0.52338232645E+03  0.40000000000E+03 0. -1.
<mgrwt>
<rscale>  2 0.52016565E+03</rscale>
<asrwt>0</asrwt>
<pdfrwt beam="1">  1       21 0.21774494E+00 0.52016565E+03</pdfrwt>
<pdfrwt beam="2">  1       21 0.45056399E-01 0.52016565E+03</pdfrwt>
<totfact> 0.38717104E+02</totfact>
</mgrwt>
</event>
<event>
 4    1  0.4689683E-002  0.4771347E+03  0.7818608E-02  0.1019926E+00
         21   -1    0    0  501  502  0.00000000000E+00  0.00000000000E+00  0.67878482435E+03  0.67878482435E+03  0.00000000000E+00 0. -1.
         21   -1    0    0  502  503 -0.00000000000E+00 -0.00000000000E+00 -0.40912251173E+03  0.40912251173E+03  0.00000000000E+00 0. -1.
    9000007    1    1    2  501    0 -0.24815771824E+03  0.77943861348E+02  0.36575318198E+03  0.60119288816E+03  0.40000000000E+03 0. -1.
   -9000007    1    1    2    0  503  0.24815771824E+03 -0.77943861348E+02 -0.96090869365E+02  0.48671444792E+03  0.40000000000E+03 0. -1.
<mgrwt>
<rscale>  2 0.47713468E+03</rscale>
<asrwt>0</asrwt>
<pdfrwt beam="1">  1       21 0.10442843E+00 0.47713468E+03</pdfrwt>
<pdfrwt beam="2">  1       21 0.62941925E-01 0.47713468E+03</pdfrwt>
<totfact> 0.14671477E+03</totfact>
</mgrwt>
</event>
<event>
 4    1  0.4689683E-002  0.4060002E+03  0.7818608E-02  0.1041722E+00
         21   -1    0    0  501  502  0.00000000000E+00  0.00000000000E+00  0.37318151886E+03  0.37318151886E+03  0.00000000000E+00 0. -1.
         21   -1    0    0  502  503 -0.00000000000E+00 -0.00000000000E+00 -0.74460152149E+03  0.74460152149E+03  0.00000000000E+00 0. -1.
    9000007    1    1    2  501    0 -0.34633818726E+02  0.60305035900E+02  0.17075147060E+03  0.44044552838E+03  0.40000000000E+03 0. -1.
   -9000007    1    1    2    0  503  0.34633818726E+02 -0.60305035900E+02 -0.54217147322E+03  0.67733751198E+03  0.40000000000E+03 0. -1.
<mgrwt>
<rscale>  2 0.40600024E+03</rscale>
<asrwt>0</asrwt>
<pdfrwt beam="1">  1       21 0.57412541E-01 0.40600024E+03</pdfrwt>
<pdfrwt beam="2">  1       21 0.11455408E+00 0.40600024E+03</pdfrwt>
<totfact> 0.14685891E+03</totfact>
</mgrwt>
</event>
<event>
 4    1  0.4689683E-002  0.6276054E+03  0.7818608E-02  0.9849733E-01
         21   -1    0    0  501  502  0.00000000000E+00  0.00000000000E+00  0.66319292301E+03  0.66319292301E+03  0.00000000000E+00 0. -1.
         21   -1    0    0  502  503 -0.00000000000E+00 -0.00000000000E+00 -0.71579286656E+03  0.71579286656E+03  0.00000000000E+00 0.  1.
    9000007    1    1    2  501    0 -0.39536620772E+03 -0.27852126219E+03  0.25819606206E+03  0.67864109673E+03  0.40000000000E+03 0. -1.
   -9000007    1    1    2    0  503  0.39536620772E+03  0.27852126219E+03 -0.31079600561E+03  0.70034469285E+03  0.40000000000E+03 0.  1.
<mgrwt>
<rscale>  2 0.62760539E+03</rscale>
<asrwt>0</asrwt>
<pdfrwt beam="1">  1       21 0.10202968E+00 0.62760539E+03</pdfrwt>
<pdfrwt beam="2">  1       21 0.11012198E+00 0.62760539E+03</pdfrwt>
<totfact> 0.39673692E+02</totfact>
</mgrwt>
</event>
<event>
 4    1  0.4689683E-002  0.4837671E+03  0.7818608E-02  0.1018105E+00
         21   -1    0    0  501  502  0.00000000000E+00  0.00000000000E+00  0.16667407854E+03  0.16667407854E+03  0.00000000000E+00 0. -1.
         21   -1    0    0  502  503 -0.00000000000E+00 -0.00000000000E+00 -0.15445442256E+04  0.15445442256E+04  0.00000000000E+00 0. -1.
    9000007    1    1    2  501    0 -0.25212302035E+03  0.10229634503E+03 -0.43094983814E+03  0.64787986740E+03  0.40000000000E+03 0. -1.
   -9000007    1    1    2    0  503  0.25212302035E+03 -0.10229634503E+03 -0.94692030891E+03  0.10633384367E+04  0.40000000000E+03 0. -1.
<mgrwt>
<rscale>  2 0.48376705E+03</rscale>
<asrwt>0</asrwt>
<pdfrwt beam="1">  1       21 0.25642166E-01 0.48376705E+03</pdfrwt>
<pdfrwt beam="2">  1       21 0.23762219E+00 0.48376705E+03</pdfrwt>
<totfact> 0.92070257E+02</totfact>
</mgrwt>
</event>
<event>
 4    1  0.4689683E-002  0.5596947E+03  0.7818608E-02  0.9992746E-01
         21   -1    0    0  503  502  0.00000000000E+00  0.00000000000E+00  0.60282586411E+03  0.60282586411E+03  0.00000000000E+00 0. -1.
         21   -1    0    0  501  503 -0.00000000000E+00 -0.00000000000E+00 -0.86696518541E+03  0.86696518541E+03  0.00000000000E+00 0. -1.
    9000007    1    1    2  501    0  0.37605261760E+03 -0.10882373620E+03 -0.59721315786E+03  0.81848746642E+03  0.40000000000E+03 0. -1.
   -9000007    1    1    2    0  502 -0.37605261760E+03  0.10882373620E+03  0.33307383656E+03  0.65130358310E+03  0.40000000000E+03 0. -1.
<mgrwt>
<rscale>  2 0.55969472E+03</rscale>
<asrwt>0</asrwt>
<pdfrwt beam="1">  1       21 0.92742441E-01 0.55969472E+03</pdfrwt>
<pdfrwt beam="2">  1       21 0.13337926E+00 0.55969472E+03</pdfrwt>
<totfact> 0.31334669E+02</totfact>
</mgrwt>
</event>
<event>
 4    1  0.4689683E-002  0.5182690E+03  0.7818608E-02  0.1009117E+00
         21   -1    0    0  501  502  0.00000000000E+00  0.00000000000E+00  0.34759448654E+03  0.34759448654E+03  0.00000000000E+00 0. -1.
         21   -1    0    0  502  503 -0.00000000000E+00 -0.00000000000E+00 -0.12269399296E+04  0.12269399296E+04  0.00000000000E+00 0. -1.
    9000007    1    1    2  501    0  0.25915698134E+03 -0.20356913270E+03  0.39321759497E+02  0.51975853388E+03  0.40000000000E+03 0. -1.
   -9000007    1    1    2    0  503 -0.25915698134E+03  0.20356913270E+03 -0.91866720256E+03  0.10547758823E+04  0.40000000000E+03 0. -1.
<mgrwt>
<rscale>  2 0.51826898E+03</rscale>
<asrwt>0</asrwt>
<pdfrwt beam="1">  1       21 0.53476075E-01 0.51826898E+03</pdfrwt>
<pdfrwt beam="2">  1       21 0.18875999E+00 0.51826898E+03</pdfrwt>
<totfact> 0.41990005E+02</totfact>
</mgrwt>
</event>
<event>
 4    1  0.4689683E-002  0.5746880E+03  0.7818608E-02  0.9959358E-01
         21   -1    0    0  503  502  0.00000000000E+00  0.00000000000E+00  0.15998412695E+04  0.15998412695E+04  0.00000000000E+00 0. -1.
         21   -1    0    0  501  503 -0.00000000000E+00 -0.00000000000E+00 -0.21285147353E+03  0.21285147353E+03  0.00000000000E+00 0.  1.
    9000007    1    1    2  501    0 -0.15842308337E+03 -0.38100973573E+03  0.53615482662E+03  0.78595692641E+03  0.40000000000E+03 0. -1.
   -9000007    1    1    2    0  502  0.15842308337E+03  0.38100973573E+03  0.85083496931E+03  0.10267358166E+04  0.40000000000E+03 0. -1.
<mgrwt>
<rscale>  2 0.57468800E+03</rscale>
<asrwt>0</asrwt>
<pdfrwt beam="1">  1       21 0.24612942E+00 0.57468800E+03</pdfrwt>
<pdfrwt beam="2">  1       21 0.32746382E-01 0.57468800E+03</pdfrwt>
<totfact> 0.48229051E+02</totfact>
</mgrwt>
</event>
<event>
 4    1  0.4689683E-002  0.4304630E+03  0.7818608E-02  0.1033714E+00
         21   -1    0    0  503  502  0.00000000000E+00  0.00000000000E+00  0.13429660922E+04  0.13429660922E+04  0.00000000000E+00 0. -1.
         21   -1    0    0  501  503 -0.00000000000E+00 -0.00000000000E+00 -0.25909323765E+03  0.25909323765E+03  0.00000000000E+00 0. -1.
    9000007    1    1    2  501    0  0.15506426892E+03  0.35404115851E+02 -0.57371870141E+01  0.43050121281E+03  0.40000000000E+03 0. -1.
   -9000007    1    1    2    0  502 -0.15506426892E+03 -0.35404115851E+02  0.10896100415E+04  0.11715581170E+04  0.40000000000E+03 0. -1.
<mgrwt>
<rscale>  2 0.43046298E+03</rscale>
<asrwt>0</asrwt>
<pdfrwt beam="1">  1       21 0.20661016E+00 0.43046298E+03</pdfrwt>
<pdfrwt beam="2">  1       21 0.39860499E-01 0.43046298E+03</pdfrwt>
<totfact> 0.61589804E+02</totfact>
</mgrwt>
</event>
<event>
 4    1  0.4689683E-002  0.4017666E+03  0.7818608E-02  0.1043170E+00
         21   -1    0    0  503  502  0.00000000000E+00  0.00000000000E+00  0.20024222317E+04  0.20024222317E+04  0.00000000000E+00 0.  1.
         21   -1    0    0  501  503 -0.00000000000E+00 -0.00000000000E+00 -0.30536569591E+03  0.30536569591E+03  0.00000000000E+00 0.  1.
    9000007    1    1    2  501    0 -0.29247820523E+02  0.23685390405E+02 -0.14141558508E+03  0.42592816346E+03  0.40000000000E+03 0.  1.
   -9000007    1    1    2    0  502  0.29247820523E+02 -0.23685390405E+02  0.18384721208E+04  0.18818597641E+04  0.40000000000E+03 0.  1.
<mgrwt>
<rscale>  2 0.40176664E+03</rscale>
<asrwt>0</asrwt>
<pdfrwt beam="1">  1       21 0.30806495E+00 0.40176664E+03</pdfrwt>
<pdfrwt beam="2">  1       21 0.46979339E-01 0.40176664E+03</pdfrwt>
<totfact> 0.10605443E+02</totfact>
</mgrwt>
</event>
<event>
 4    1  0.4689683E-002  0.4515026E+03  0.7818608E-02  0.1027275E+00
         21   -1    0    0  503  502  0.00000000000E+00  0.00000000000E+00  0.19430947122E+04  0.19430947122E+04  0.00000000000E+00 0. -1.
         21   -1    0    0  501  503 -0.00000000000E+00 -0.00000000000E+00 -0.43944315238E+03  0.43944315238E+03  0.00000000000E+00 0. -1.
    9000007    1    1    2  501    0  0.89791344321E+02 -0.18918794933E+03 -0.28755945577E+03  0.53529898775E+03  0.40000000000E+03 0. -1.
   -9000007    1    1    2    0  502 -0.89791344321E+02  0.18918794933E+03  0.17912110156E+04  0.18472388769E+04  0.40000000000E+03 0. -1.
<mgrwt>
<rscale>  2 0.45150256E+03</rscale>
<asrwt>0</asrwt>
<pdfrwt beam="1">  1       21 0.29893764E+00 0.45150256E+03</pdfrwt>
<pdfrwt beam="2">  1       21 0.67606640E-01 0.45150256E+03</pdfrwt>
<totfact> 0.52795397E+01</totfact>
</mgrwt>
</event>
<event>
 4    1  0.4689683E-002  0.4945281E+03  0.7818608E-02  0.1015217E+00
         21   -1    0    0  503  502  0.00000000000E+00  0.00000000000E+00  0.56176225229E+03  0.56176225229E+03  0.00000000000E+00 0. -1.
         21   -1    0    0  501  503 -0.00000000000E+00 -0.00000000000E+00 -0.75693032027E+03  0.75693032027E+03  0.00000000000E+00 0. -1.
    9000007    1    1    2  501    0 -0.26366819883E+03 -0.12262602365E+03 -0.52735445151E+03  0.72295281885E+03  0.40000000000E+03 0. -1.
   -9000007    1    1    2    0  502  0.26366819883E+03  0.12262602365E+03  0.33218638353E+03  0.59573975371E+03  0.40000000000E+03 0. -1.
<mgrwt>
<rscale>  2 0.49452812E+03</rscale>
<asrwt>0</asrwt>
<pdfrwt beam="1">  1       21 0.86424962E-01 0.49452812E+03</pdfrwt>
<pdfrwt beam="2">  1       21 0.11645082E+00 0.49452812E+03</pdfrwt>
<totfact> 0.53933410E+02</totfact>
</mgrwt>
</event>
<event>
 4    1  0.4689683E-002  0.4170313E+03  0.7818608E-02  0.1038037E+00
         21   -1    0    0  501  502  0.00000000000E+00  0.00000000000E+00  0.37765534459E+04  0.37765534459E+04  0.00000000000E+00 0.  1.
         21   -1    0    0  502  503 -0.00000000000E+00 -0.00000000000E+00 -0.91889069439E+02  0.91889069439E+02  0.00000000000E+00 0.  1.
    9000007    1    1    2  501    0  0.84811583703E+01 -0.11765688042E+03  0.32084435990E+04  0.32354327994E+04  0.40000000000E+03 0.  1.
   -9000007    1    1    2    0  503 -0.84811583703E+01  0.11765688042E+03  0.47622077742E+03  0.63300971588E+03  0.40000000000E+03 0.  1.
<mgrwt>
<rscale>  2 0.41703126E+03</rscale>
<asrwt>0</asrwt>
<pdfrwt beam="1">  1       21 0.58100810E+00 0.41703126E+03</pdfrwt>
<pdfrwt beam="2">  1       21 0.14136783E-01 0.41703126E+03</pdfrwt>
<totfact> 0.15794848E+01</totfact>
</mgrwt>
</event>
<event>
 4    1  0.4689683E-002  0.4866541E+03  0.7818608E-02  0.1017322E+00
         21   -1    0    0  503  502  0.00000000000E+00  0.00000000000E+00  0.59519324304E+03  0.59519324304E+03  0.00000000000E+00 0. -1.
         21   -1    0    0  501  503 -0.00000000000E+00 -0.00000000000E+00 -0.42753265909E+03  0.42753265909E+03  0.00000000000E+00 0.  1.
    9000007    1    1    2  501    0  0.99829360423E+02  0.25858528926E+03 -0.50777456446E+02  0.48929602809E+03  0.40000000000E+03 0.  1.
   -9000007    1    1    2    0  502 -0.99829360423E+02 -0.25858528926E+03  0.21843804040E+03  0.53342987404E+03  0.40000000000E+03 0. -1.
<mgrwt>
<rscale>  2 0.48665414E+03</rscale>
<asrwt>0</asrwt>
<pdfrwt beam="1">  1       21 0.91568191E-01 0.48665414E+03</pdfrwt>
<pdfrwt beam="2">  1       21 0.65774255E-01 0.48665414E+03</pdfrwt>
<totfact> 0.18224938E+03</totfact>
</mgrwt>
</event>
<event>
 4    1  0.4689683E-002  0.5326807E+03  0.7818608E-02  0.1005584E+00
         21   -1    0    0  501  502  0.00000000000E+00  0.00000000000E+00  0.24492681290E+03  0.24492681290E+03  0.00000000000E+00 0. -1.
         21   -1    0    0  502  503 -0.00000000000E+00 -0.00000000000E+00 -0.11684207010E+04  0.11684207010E+04  0.00000000000E+00 0.  1.
    9000007    1    1    2  501    0 -0.44878585349E+02 -0.34890490149E+03 -0.39664399010E+03  0.66413490541E+03  0.40000000000E+03 0. -1.
   -9000007    1    1    2    0  503  0.44878585349E+02  0.34890490149E+03 -0.52684989802E+03  0.74921260851E+03  0.40000000000E+03 0.  1.
<mgrwt>
<rscale>  2 0.53268069E+03</rscale>
<asrwt>0</asrwt>
<pdfrwt beam="1">  1       21 0.37681049E-01 0.53268069E+03</pdfrwt>
<pdfrwt beam="2">  1       21 0.17975703E+00 0.53268069E+03</pdfrwt>
<totfact> 0.10074357E+03</totfact>
</mgrwt>
</event>
<event>
 4    1  0.4689683E-002  0.4201622E+03  0.7818608E-02  0.1037014E+00
         21   -1    0    0  503  502  0.00000000000E+00  0.00000000000E+00  0.54273155284E+03  0.54273155284E+03  0.00000000000E+00 0.  1.
         21   -1    0    0  501  503 -0.00000000000E+00 -0.00000000000E+00 -0.34700862065E+03  0.34700862065E+03  0.00000000000E+00 0.  1.
    9000007    1    1    2  501    0  0.12682065185E+03 -0.21278625165E+02  0.20919933073E+03  0.46936192603E+03  0.40000000000E+03 0.  1.
   -9000007    1    1    2    0  502 -0.12682065185E+03  0.21278625165E+02 -0.13476398542E+02  0.42037824747E+03  0.40000000000E+03 0.  1.
<mgrwt>
<rscale>  2 0.42016218E+03</rscale>
<asrwt>0</asrwt>
<pdfrwt beam="1">  1       21 0.83497162E-01 0.42016218E+03</pdfrwt>
<pdfrwt beam="2">  1       21 0.53385942E-01 0.42016218E+03</pdfrwt>
<totfact> 0.36615713E+03</totfact>
</mgrwt>
</event>
<event>
 4    1  0.4689683E-002  0.6066896E+03  0.7818608E-02  0.9891624E-01
         21   -1    0    0  501  502  0.00000000000E+00  0.00000000000E+00  0.14821772625E+04  0.14821772625E+04  0.00000000000E+00 0. -1.
         21   -1    0    0  502  503 -0.00000000000E+00 -0.00000000000E+00 -0.28014852562E+03  0.28014852562E+03  0.00000000000E+00 0. -1.
    9000007    1    1    2  501    0 -0.23138163634E+03  0.39310908352E+03  0.89796730687E+03  0.10837054477E+04  0.40000000000E+03 0. -1.
   -9000007    1    1    2    0  503  0.23138163634E+03 -0.39310908352E+03  0.30406142997E+03  0.67862034038E+03  0.40000000000E+03 0. -1.
<mgrwt>
<rscale>  2 0.60668955E+03</rscale>
<asrwt>0</asrwt>
<pdfrwt beam="1">  1       21 0.22802727E+00 0.60668955E+03</pdfrwt>
<pdfrwt beam="2">  1       21 0.43099774E-01 0.60668955E+03</pdfrwt>
<totfact> 0.35228111E+02</totfact>
</mgrwt>
</event>
<event>
 4    1  0.4689683E-002  0.4300299E+03  0.7818608E-02  0.1033851E+00
         21   -1    0    0  501  502  0.00000000000E+00  0.00000000000E+00  0.64953234497E+03  0.64953234497E+03  0.00000000000E+00 0. -1.
         21   -1    0    0  502  503 -0.00000000000E+00 -0.00000000000E+00 -0.28627890526E+03  0.28627890526E+03  0.00000000000E+00 0. -1.
    9000007    1    1    2  501    0  0.63490512770E+02  0.14454996585E+03  0.21630988254E+03  0.48136857306E+03  0.40000000000E+03 0. -1.
   -9000007    1    1    2    0  503 -0.63490512770E+02 -0.14454996585E+03  0.14694355716E+03  0.45444267717E+03  0.40000000000E+03 0. -1.
<mgrwt>
<rscale>  2 0.43002993E+03</rscale>
<asrwt>0</asrwt>
<pdfrwt beam="1">  1       21 0.99928053E-01 0.43002993E+03</pdfrwt>
<pdfrwt beam="2">  1       21 0.44042909E-01 0.43002993E+03</pdfrwt>
<totfact> 0.35782594E+03</totfact>
</mgrwt>
</event>
<event>
 4    1  0.4689683E-002  0.4460347E+03  0.7818608E-02  0.1028911E+00
         21   -1    0    0  501  502  0.00000000000E+00  0.00000000000E+00  0.45492735629E+03  0.45492735629E+03  0.00000000000E+00 0. -1.
         21   -1    0    0  502  503 -0.00000000000E+00 -0.00000000000E+00 -0.53011178758E+03  0.53011178758E+03  0.00000000000E+00 0. -1.
    9000007    1    1    2  501    0 -0.17579971941E+03  0.89673743495E+02 -0.24365727443E+03  0.50824776340E+03  0.40000000000E+03 0. -1.
   -9000007    1    1    2    0  503  0.17579971941E+03 -0.89673743495E+02  0.16847284314E+03  0.47679138047E+03  0.40000000000E+03 0. -1.
<mgrwt>
<rscale>  2 0.44603466E+03</rscale>
<asrwt>0</asrwt>
<pdfrwt beam="1">  1       21 0.69988824E-01 0.44603466E+03</pdfrwt>
<pdfrwt beam="2">  1       21 0.81555659E-01 0.44603466E+03</pdfrwt>
<totfact> 0.21127069E+03</totfact>
</mgrwt>
</event>
<event>
 4    1  0.4689683E-002  0.4384577E+03  0.7818608E-02  0.1031221E+00
         21   -1    0    0  503  502  0.00000000000E+00  0.00000000000E+00  0.31308396168E+03  0.31308396168E+03  0.00000000000E+00 0. -1.
         21   -1    0    0  501  503 -0.00000000000E+00 -0.00000000000E+00 -0.96943129847E+03  0.96943129847E+03  0.00000000000E+00 0. -1.
    9000007    1    1    2  501    0  0.17384173411E+03  0.44991093874E+02 -0.71643955512E+03  0.83995879851E+03  0.40000000000E+03 0. -1.
   -9000007    1    1    2    0  502 -0.17384173411E+03 -0.44991093874E+02  0.60092218331E+02  0.44255646165E+03  0.40000000000E+03 0. -1.
<mgrwt>
<rscale>  2 0.43845769E+03</rscale>
<asrwt>0</asrwt>
<pdfrwt beam="1">  1       21 0.48166764E-01 0.43845769E+03</pdfrwt>
<pdfrwt beam="2">  1       21 0.14914327E+00 0.43845769E+03</pdfrwt>
<totfact> 0.10621094E+03</totfact>
</mgrwt>
</event>
<event>
 4    1  0.4689683E-002  0.4504061E+03  0.7818608E-02  0.1027601E+00
         21   -1    0    0  501  502  0.00000000000E+00  0.00000000000E+00  0.49420139001E+03  0.49420139001E+03  0.00000000000E+00 0. -1.
         21   -1    0    0  502  503 -0.00000000000E+00 -0.00000000000E+00 -0.10771006000E+04  0.10771006000E+04  0.00000000000E+00 0. -1.
    9000007    1    1    2  501    0  0.16950515247E+03 -0.11888507162E+03  0.32661948761E+03  0.55636853492E+03  0.40000000000E+03 0. -1.
   -9000007    1    1    2    0  503 -0.16950515247E+03  0.11888507162E+03 -0.90951869761E+03  0.10149334551E+04  0.40000000000E+03 0. -1.
<mgrwt>
<rscale>  2 0.45040610E+03</rscale>
<asrwt>0</asrwt>
<pdfrwt beam="1">  1       21 0.76030983E-01 0.45040610E+03</pdfrwt>
<pdfrwt beam="2">  1       21 0.16570778E+00 0.45040610E+03</pdfrwt>
<totfact> 0.28970551E+02</totfact>
</mgrwt>
</event>
<event>
 4    1  0.4689683E-002  0.4414820E+03  0.7818608E-02  0.1030293E+00
         21   -1    0    0  501  502  0.00000000000E+00  0.00000000000E+00  0.45334230912E+03  0.45334230912E+03  0.00000000000E+00 0.  1.
         21   -1    0    0  502  503 -0.00000000000E+00 -0.00000000000E+00 -0.43096947855E+03  0.43096947855E+03  0.00000000000E+00 0.  1.
    9000007    1    1    2  501    0  0.34063082377E+02  0.18370093932E+03 -0.10508541360E+02  0.44160701775E+03  0.40000000000E+03 0.  1.
   -9000007    1    1    2    0  503 -0.34063082377E+02 -0.18370093932E+03  0.32881371938E+02  0.44270476992E+03  0.40000000000E+03 0.  1.
<mgrwt>
<rscale>  2 0.44148197E+03</rscale>
<asrwt>0</asrwt>
<pdfrwt beam="1">  1       21 0.69744970E-01 0.44148197E+03</pdfrwt>
<pdfrwt beam="2">  1       21 0.66302997E-01 0.44148197E+03</pdfrwt>
<totfact> 0.34144432E+03</totfact>
</mgrwt>
</event>
<event>
 4    1  0.4689683E-002  0.4989967E+03  0.7818608E-02  0.1014041E+00
         21   -1    0    0  503  502  0.00000000000E+00  0.00000000000E+00  0.17355964251E+03  0.17355964251E+03  0.00000000000E+00 0. -1.
         21   -1    0    0  501  503 -0.00000000000E+00 -0.00000000000E+00 -0.14610335717E+04  0.14610335717E+04  0.00000000000E+00 0. -1.
    9000007    1    1    2  501    0  0.59071668363E+02  0.29241800668E+03 -0.53391306075E+03  0.73079471062E+03  0.40000000000E+03 0. -1.
   -9000007    1    1    2    0  502 -0.59071668363E+02 -0.29241800668E+03 -0.75356086841E+03  0.90379850355E+03  0.40000000000E+03 0. -1.
<mgrwt>
<rscale>  2 0.49899675E+03</rscale>
<asrwt>0</asrwt>
<pdfrwt beam="1">  1       21 0.26701484E-01 0.49899675E+03</pdfrwt>
<pdfrwt beam="2">  1       21 0.22477439E+00 0.49899675E+03</pdfrwt>
<totfact> 0.10181235E+03</totfact>
</mgrwt>
</event>
<event>
 4    1  0.4689683E-002  0.4876214E+03  0.7818608E-02  0.1017061E+00
         21   -1    0    0  501  502  0.00000000000E+00  0.00000000000E+00  0.13099769179E+04  0.13099769179E+04  0.00000000000E+00 0. -1.
         21   -1    0    0  502  503 -0.00000000000E+00 -0.00000000000E+00 -0.19203915170E+03  0.19203915170E+03  0.00000000000E+00 0. -1.
    9000007    1    1    2  501    0  0.24403364843E+03  0.13498975085E+03  0.38312200138E+03  0.62012669862E+03  0.40000000000E+03 0. -1.
   -9000007    1    1    2    0  503 -0.24403364843E+03 -0.13498975085E+03  0.73481576478E+03  0.88188937094E+03  0.40000000000E+03 0. -1.
<mgrwt>
<rscale>  2 0.48762143E+03</rscale>
<asrwt>0</asrwt>
<pdfrwt beam="1">  1       21 0.20153490E+00 0.48762143E+03</pdfrwt>
<pdfrwt beam="2">  1       21 0.29544486E-01 0.48762143E+03</pdfrwt>
<totfact> 0.11866955E+03</totfact>
</mgrwt>
</event>
<event>
 4    1  0.4689683E-002  0.5767379E+03  0.7818608E-02  0.9954879E-01
         21   -1    0    0  503  502  0.00000000000E+00  0.00000000000E+00  0.17677751632E+03  0.17677751632E+03  0.00000000000E+00 0.  1.
         21   -1    0    0  501  503 -0.00000000000E+00 -0.00000000000E+00 -0.25433879293E+04  0.25433879293E+04  0.00000000000E+00 0. -1.
    9000007    1    1    2  501    0 -0.21387994524E+03  0.35620491495E+03 -0.48953645656E+03  0.75648695608E+03  0.40000000000E+03 0.  1.
   -9000007    1    1    2    0  502  0.21387994524E+03 -0.35620491495E+03 -0.18770739564E+04  0.19636784895E+04  0.40000000000E+03 0. -1.
<mgrwt>
<rscale>  2 0.57673787E+03</rscale>
<asrwt>0</asrwt>
<pdfrwt beam="1">  1       21 0.27196542E-01 0.57673787E+03</pdfrwt>
<pdfrwt beam="2">  1       21 0.39129043E+00 0.57673787E+03</pdfrwt>
<totfact> 0.88663796E+01</totfact>
</mgrwt>
</event>
<event>
 4    1  0.4689683E-002  0.4150183E+03  0.7818608E-02  0.1038700E+00
         21   -1    0    0  503  502  0.00000000000E+00  0.00000000000E+00  0.10311357458E+03  0.10311357458E+03  0.00000000000E+00 0.  1.
         21   -1    0    0  501  503 -0.00000000000E+00 -0.00000000000E+00 -0.17303208668E+04  0.17303208668E+04  0.00000000000E+00 0.  1.
    9000007    1    1    2  501    0 -0.40737951205E+02  0.10286211312E+03 -0.98420654770E+03  0.10681304806E+04  0.40000000000E+03 0.  1.
   -9000007    1    1    2    0  502  0.40737951205E+02 -0.10286211312E+03 -0.64300074448E+03  0.76530396078E+03  0.40000000000E+03 0.  1.
<mgrwt>
<rscale>  2 0.41501831E+03</rscale>
<asrwt>0</asrwt>
<pdfrwt beam="1">  1       21 0.15863629E-01 0.41501831E+03</pdfrwt>
<pdfrwt beam="2">  1       21 0.26620318E+00 0.41501831E+03</pdfrwt>
<totfact> 0.15880485E+03</totfact>
</mgrwt>
</event>
<event>
 4    1  0.4689683E-002  0.4031912E+03  0.7818608E-02  0.1042680E+00
         21   -1    0    0  501  502  0.00000000000E+00  0.00000000000E+00  0.98928601396E+02  0.98928601396E+02  0.00000000000E+00 0.  1.
         21   -1    0    0  502  503 -0.00000000000E+00 -0.00000000000E+00 -0.21713121123E+04  0.21713121123E+04  0.00000000000E+00 0.  1.
    9000007    1    1    2  501    0 -0.14846111394E+02  0.48401629992E+02 -0.47639717411E+03  0.62411328484E+03  0.40000000000E+03 0.  1.
   -9000007    1    1    2    0  503  0.14846111394E+02 -0.48401629992E+02 -0.15959863368E+04  0.16461274288E+04  0.40000000000E+03 0.  1.
<mgrwt>
<rscale>  2 0.40319118E+03</rscale>
<asrwt>0</asrwt>
<pdfrwt beam="1">  1       21 0.15219785E-01 0.40319118E+03</pdfrwt>
<pdfrwt beam="2">  1       21 0.33404802E+00 0.40319118E+03</pdfrwt>
<totfact> 0.67589937E+02</totfact>
</mgrwt>
</event>
<event>
 4    1  0.4689683E-002  0.4118800E+03  0.7818608E-02  0.1039742E+00
         21   -1    0    0  503  502  0.00000000000E+00  0.00000000000E+00  0.14595842918E+03  0.14595842918E+03  0.00000000000E+00 0. -1.
         21   -1    0    0  501  503 -0.00000000000E+00 -0.00000000000E+00 -0.22939751457E+04  0.22939751457E+04  0.00000000000E+00 0. -1.
    9000007    1    1    2  501    0  0.69328305874E+02 -0.69560873617E+02 -0.19308836812E+04  0.19743244210E+04  0.40000000000E+03 0. -1.
   -9000007    1    1    2    0  502 -0.69328305874E+02  0.69560873617E+02 -0.21713303532E+03  0.46560915386E+03  0.40000000000E+03 0. -1.
<mgrwt>
<rscale>  2 0.41187999E+03</rscale>
<asrwt>0</asrwt>
<pdfrwt beam="1">  1       21 0.22455143E-01 0.41187999E+03</pdfrwt>
<pdfrwt beam="2">  1       21 0.35291925E+00 0.41187999E+03</pdfrwt>
<totfact> 0.24768105E+02</totfact>
</mgrwt>
</event>
<event>
 4    1  0.4689683E-002  0.5142781E+03  0.7818608E-02  0.1010118E+00
         21   -1    0    0  501  502  0.00000000000E+00  0.00000000000E+00  0.13350927997E+04  0.13350927997E+04  0.00000000000E+00 0.  1.
         21   -1    0    0  502  503 -0.00000000000E+00 -0.00000000000E+00 -0.19845308615E+03  0.19845308615E+03  0.00000000000E+00 0. -1.
    9000007    1    1    2  501    0 -0.23433193121E+03 -0.22264442810E+03  0.60065886697E+03  0.79074210070E+03  0.40000000000E+03 0. -1.
   -9000007    1    1    2    0  503  0.23433193121E+03  0.22264442810E+03  0.53598084659E+03  0.74280378517E+03  0.40000000000E+03 0.  1.
<mgrwt>
<rscale>  2 0.51427813E+03</rscale>
<asrwt>0</asrwt>
<pdfrwt beam="1">  1       21 0.20539889E+00 0.51427813E+03</pdfrwt>
<pdfrwt beam="2">  1       21 0.30531245E-01 0.51427813E+03</pdfrwt>
<totfact> 0.10365219E+03</totfact>
</mgrwt>
</event>
<event>
 4    1  0.4689683E-002  0.4592071E+03  0.7818608E-02  0.1025011E+00
         21   -1    0    0  501  502  0.00000000000E+00  0.00000000000E+00  0.36623252955E+03  0.36623252955E+03  0.00000000000E+00 0.  1.
         21   -1    0    0  502  503 -0.00000000000E+00 -0.00000000000E+00 -0.57580125184E+03  0.57580125184E+03  0.00000000000E+00 0.  1.
    9000007    1    1    2  501    0 -0.38378214458E+02  0.22225722394E+03 -0.10227441724E+03  0.47045851822E+03  0.40000000000E+03 0.  1.
   -9000007    1    1    2    0  503  0.38378214458E+02 -0.22225722394E+03 -0.10729430506E+03  0.47157526317E+03  0.40000000000E+03 0.  1.
<mgrwt>
<rscale>  2 0.45920710E+03</rscale>
<asrwt>0</asrwt>
<pdfrwt beam="1">  1       21 0.56343466E-01 0.45920710E+03</pdfrwt>
<pdfrwt beam="2">  1       21 0.88584808E-01 0.45920710E+03</pdfrwt>
<totfact> 0.27979812E+03</totfact>
</mgrwt>
</event>
<event>
 4    1  0.4689683E-002  0.4143230E+03  0.7818608E-02  0.1038930E+00
         21   -1    0    0  503  502  0.00000000000E+00  0.00000000000E+00  0.45174585554E+03  0.45174585554E+03  0.00000000000E+00 0.  1.
         21   -1    0    0  501  503 -0.00000000000E+00 -0.00000000000E+00 -0.42484036613E+03  0.42484036613E+03  0.00000000000E+00 0.  1.
    9000007    1    1    2  501    0 -0.56008871125E+02 -0.92339167974E+02 -0.12893918059E+03  0.43392260586E+03  0.40000000000E+03 0.  1.
   -9000007    1    1    2    0  502  0.56008871125E+02  0.92339167974E+02  0.15584467000E+03  0.44266361580E+03  0.40000000000E+03 0.  1.
<mgrwt>
<rscale>  2 0.41432296E+03</rscale>
<asrwt>0</asrwt>
<pdfrwt beam="1">  1       21 0.69499363E-01 0.41432296E+03</pdfrwt>
<pdfrwt beam="2">  1       21 0.65360056E-01 0.41432296E+03</pdfrwt>
<totfact> 0.35882306E+03</totfact>
</mgrwt>
</event>
<event>
 4    1  0.4689683E-002  0.4750217E+03  0.7818608E-02  0.1020512E+00
         21   -1    0    0  501  502  0.00000000000E+00  0.00000000000E+00  0.10054479138E+04  0.10054479138E+04  0.00000000000E+00 0. -1.
         21   -1    0    0  502  503 -0.00000000000E+00 -0.00000000000E+00 -0.38313980285E+03  0.38313980285E+03  0.00000000000E+00 0. -1.
    9000007    1    1    2  501    0  0.24465620348E+03 -0.76084928295E+02  0.75801893838E+03  0.89456038654E+03  0.40000000000E+03 0. -1.
   -9000007    1    1    2    0  503 -0.24465620348E+03  0.76084928295E+02 -0.13571082743E+03  0.49402733011E+03  0.40000000000E+03 0. -1.
<mgrwt>
<rscale>  2 0.47502166E+03</rscale>
<asrwt>0</asrwt>
<pdfrwt beam="1">  1       21 0.15468429E+00 0.47502166E+03</pdfrwt>
<pdfrwt beam="2">  1       21 0.58944585E-01 0.47502166E+03</pdfrwt>
<totfact> 0.61314531E+02</totfact>
</mgrwt>
</event>
<event>
 4    1  0.4689683E-002  0.5453106E+03  0.7818608E-02  0.1002585E+00
         21   -1    0    0  503  502  0.00000000000E+00  0.00000000000E+00  0.24322650998E+03  0.24322650998E+03  0.00000000000E+00 0. -1.
         21   -1    0    0  501  503 -0.00000000000E+00 -0.00000000000E+00 -0.15053737317E+04  0.15053737317E+04  0.00000000000E+00 0.  1.
    9000007    1    1    2  501    0  0.25323543369E+03  0.27062057926E+03 -0.10100165692E+04  0.11478227881E+04  0.40000000000E+03 0.  1.
   -9000007    1    1    2    0  502 -0.25323543369E+03 -0.27062057926E+03 -0.25213065249E+03  0.60077745357E+03  0.40000000000E+03 0. -1.
<mgrwt>
<rscale>  2 0.54531063E+03</rscale>
<asrwt>0</asrwt>
<pdfrwt beam="1">  1       21 0.37419463E-01 0.54531063E+03</pdfrwt>
<pdfrwt beam="2">  1       21 0.23159596E+00 0.54531063E+03</pdfrwt>
<totfact> 0.45927688E+02</totfact>
</mgrwt>
</event>
<event>
 4    1  0.4689683E-002  0.5137541E+03  0.7818608E-02  0.1010250E+00
         21   -1    0    0  501  502  0.00000000000E+00  0.00000000000E+00  0.16699277284E+04  0.16699277284E+04  0.00000000000E+00 0. -1.
         21   -1    0    0  502  503 -0.00000000000E+00 -0.00000000000E+00 -0.23271262531E+03  0.23271262531E+03  0.00000000000E+00 0. -1.
    9000007    1    1    2  501    0 -0.90204560676E+02  0.30952613729E+03  0.17978119572E+03  0.54430191141E+03  0.40000000000E+03 0. -1.
   -9000007    1    1    2    0  503  0.90204560676E+02 -0.30952613729E+03  0.12574339074E+04  0.13583384423E+04  0.40000000000E+03 0. -1.
<mgrwt>
<rscale>  2 0.51375412E+03</rscale>
<asrwt>0</asrwt>
<pdfrwt beam="1">  1       21 0.25691195E+00 0.51375412E+03</pdfrwt>
<pdfrwt beam="2">  1       21 0.35801943E-01 0.51375412E+03</pdfrwt>
<totfact> 0.35454555E+02</totfact>
</mgrwt>
</event>
<event>
 4    1  0.4689683E-002  0.4869714E+03  0.7818608E-02  0.1017237E+00
         21   -1    0    0  501  502  0.00000000000E+00  0.00000000000E+00  0.35284404084E+03  0.35284404084E+03  0.00000000000E+00 0. -1.
         21   -1    0    0  502  503 -0.00000000000E+00 -0.00000000000E+00 -0.11117507730E+04  0.11117507730E+04  0.00000000000E+00 0.  1.
    9000007    1    1    2  501    0  0.27539058646E+03  0.36071578194E+02  0.81063117630E+02  0.49367232341E+03  0.40000000000E+03 0. -1.
   -9000007    1    1    2    0  503 -0.27539058646E+03 -0.36071578194E+02 -0.83996984983E+03  0.97092249046E+03  0.40000000000E+03 0.  1.
<mgrwt>
<rscale>  2 0.48697139E+03</rscale>
<asrwt>0</asrwt>
<pdfrwt beam="1">  1       21 0.54283698E-01 0.48697139E+03</pdfrwt>
<pdfrwt beam="2">  1       21 0.17103858E+00 0.48697139E+03</pdfrwt>
<totfact> 0.55004843E+02</totfact>
</mgrwt>
</event>
<event>
 4    1  0.4689683E-002  0.7083001E+03  0.7818608E-02  0.9703142E-01
         21   -1    0    0  501  502  0.00000000000E+00  0.00000000000E+00  0.18117541985E+04  0.18117541985E+04  0.00000000000E+00 0. -1.
         21   -1    0    0  502  503 -0.00000000000E+00 -0.00000000000E+00 -0.27823567668E+03  0.27823567668E+03  0.00000000000E+00 0.  1.
    9000007    1    1    2  501    0 -0.43674790445E+03  0.38851044208E+03  0.69457106082E+03  0.99202724468E+03  0.40000000000E+03 0. -1.
   -9000007    1    1    2    0  503  0.43674790445E+03 -0.38851044208E+03  0.83894746096E+03  0.10979626305E+04  0.40000000000E+03 0.  1.
<mgrwt>
<rscale>  2 0.70830015E+03</rscale>
<asrwt>0</asrwt>
<pdfrwt beam="1">  1       21 0.27873141E+00 0.70830015E+03</pdfrwt>
<pdfrwt beam="2">  1       21 0.42805490E-01 0.70830015E+03</pdfrwt>
<totfact> 0.16601018E+02</totfact>
</mgrwt>
</event>
<event>
 4    1  0.4689683E-002  0.4118564E+03  0.7818608E-02  0.1039750E+00
         21   -1    0    0  503  502  0.00000000000E+00  0.00000000000E+00  0.21999060560E+03  0.21999060560E+03  0.00000000000E+00 0.  1.
         21   -1    0    0  501  503 -0.00000000000E+00 -0.00000000000E+00 -0.92235479940E+03  0.92235479940E+03  0.00000000000E+00 0.  1.
    9000007    1    1    2  501    0  0.58636869175E+02 -0.78660305604E+02 -0.11985210662E+03  0.42894085089E+03  0.40000000000E+03 0.  1.
   -9000007    1    1    2    0  502 -0.58636869175E+02  0.78660305604E+02 -0.58251208718E+03  0.71340455411E+03  0.40000000000E+03 0.  1.
<mgrwt>
<rscale>  2 0.41185644E+03</rscale>
<asrwt>0</asrwt>
<pdfrwt beam="1">  1       21 0.33844709E-01 0.41185644E+03</pdfrwt>
<pdfrwt beam="2">  1       21 0.14190074E+00 0.41185644E+03</pdfrwt>
<totfact> 0.25411583E+03</totfact>
</mgrwt>
</event>
<event>
 4    1  0.4689683E-002  0.4319104E+03  0.7818608E-02  0.1033258E+00
         21   -1    0    0  501  502  0.00000000000E+00  0.00000000000E+00  0.14877414734E+04  0.14877414734E+04  0.00000000000E+00 0.  1.
         21   -1    0    0  502  503 -0.00000000000E+00 -0.00000000000E+00 -0.17902692791E+03  0.17902692791E+03  0.00000000000E+00 0.  1.
    9000007    1    1    2  501    0  0.12475739671E+03 -0.10479573225E+03  0.11105220036E+04  0.11915559886E+04  0.40000000000E+03 0.  1.
   -9000007    1    1    2    0  503 -0.12475739671E+03  0.10479573225E+03  0.19819254193E+03  0.47521241273E+03  0.40000000000E+03 0.  1.
<mgrwt>
<rscale>  2 0.43191035E+03</rscale>
<asrwt>0</asrwt>
<pdfrwt beam="1">  1       21 0.22888330E+00 0.43191035E+03</pdfrwt>
<pdfrwt beam="2">  1       21 0.27542605E-01 0.43191035E+03</pdfrwt>
<totfact> 0.93095428E+02</totfact>
</mgrwt>
</event>
<event>
 4    1  0.4689683E-002  0.5600517E+03  0.7818608E-02  0.9991938E-01
         21   -1    0    0  503  502  0.00000000000E+00  0.00000000000E+00  0.71597933492E+03  0.71597933492E+03  0.00000000000E+00 0.  1.
         21   -1    0    0  501  503 -0.00000000000E+00 -0.00000000000E+00 -0.69236483579E+03  0.69236483579E+03  0.00000000000E+00 0.  1.
    9000007    1    1    2  501    0  0.36658133582E+03 -0.13883831582E+03 -0.41493876622E+03  0.69701659480E+03  0.40000000000E+03 0.  1.
   -9000007    1    1    2    0  502 -0.36658133582E+03  0.13883831582E+03  0.43855326535E+03  0.71132757592E+03  0.40000000000E+03 0.  1.
<mgrwt>
<rscale>  2 0.56005174E+03</rscale>
<asrwt>0</asrwt>
<pdfrwt beam="1">  1       21 0.11015067E+00 0.56005174E+03</pdfrwt>
<pdfrwt beam="2">  1       21 0.10651767E+00 0.56005174E+03</pdfrwt>
<totfact> 0.36483308E+02</totfact>
</mgrwt>
</event>
<event>
 4    1  0.4689683E-002  0.6386660E+03  0.7818608E-02  0.9828282E-01
         21   -1    0    0  503  502  0.00000000000E+00  0.00000000000E+00  0.36512970471E+03  0.36512970471E+03  0.00000000000E+00 0. -1.
         21   -1    0    0  501  503 -0.00000000000E+00 -0.00000000000E+00 -0.13937012317E+04  0.13937012317E+04  0.00000000000E+00 0.  1.
    9000007    1    1    2  501    0  0.36705808572E+03  0.33639649166E+03 -0.90604518142E+03  0.11085179785E+04  0.40000000000E+03 0.  1.
   -9000007    1    1    2    0  502 -0.36705808572E+03 -0.33639649166E+03 -0.12252634560E+03  0.65031295794E+03  0.40000000000E+03 0.  1.
<mgrwt>
<rscale>  2 0.63866598E+03</rscale>
<asrwt>0</asrwt>
<pdfrwt beam="1">  1       21 0.56173801E-01 0.63866598E+03</pdfrwt>
<pdfrwt beam="2">  1       21 0.21441557E+00 0.63866598E+03</pdfrwt>
<totfact> 0.24206127E+02</totfact>
</mgrwt>
</event>
<event>
 4    1  0.4689683E-002  0.5557850E+03  0.7818608E-02  0.1000164E+00
         21   -1    0    0  501  502  0.00000000000E+00  0.00000000000E+00  0.15100817594E+04  0.15100817594E+04  0.00000000000E+00 0.  1.
         21   -1    0    0  502  503 -0.00000000000E+00 -0.00000000000E+00 -0.83219537424E+03  0.83219537424E+03  0.00000000000E+00 0.  1.
    9000007    1    1    2  501    0 -0.33691070310E+03 -0.18811723634E+03  0.13560125731E+04  0.14654920727E+04  0.40000000000E+03 0.  1.
   -9000007    1    1    2    0  503  0.33691070310E+03  0.18811723634E+03 -0.67812618794E+03  0.87678506103E+03  0.40000000000E+03 0.  1.
<mgrwt>
<rscale>  2 0.55578496E+03</rscale>
<asrwt>0</asrwt>
<pdfrwt beam="1">  1       21 0.23232027E+00 0.55578496E+03</pdfrwt>
<pdfrwt beam="2">  1       21 0.12803006E+00 0.55578496E+03</pdfrwt>
<totfact> 0.27377273E+01</totfact>
</mgrwt>
</event>
<event>
 4    1  0.4689683E-002  0.4997125E+03  0.7818608E-02  0.1013854E+00
         21   -1    0    0  503  502  0.00000000000E+00  0.00000000000E+00  0.24122361001E+03  0.24122361001E+03  0.00000000000E+00 0. -1.
         21   -1    0    0  501  503 -0.00000000000E+00 -0.00000000000E+00 -0.11142728185E+04  0.11142728185E+04  0.00000000000E+00 0. -1.
    9000007    1    1    2  501    0 -0.76650129940E+01  0.29942250057E+03 -0.25596937541E+03  0.56145606010E+03  0.40000000000E+03 0. -1.
   -9000007    1    1    2    0  502  0.76650129940E+01 -0.29942250057E+03 -0.61707983303E+03  0.79404036837E+03  0.40000000000E+03 0. -1.
<mgrwt>
<rscale>  2 0.49971250E+03</rscale>
<asrwt>0</asrwt>
<pdfrwt beam="1">  1       21 0.37111325E-01 0.49971250E+03</pdfrwt>
<pdfrwt beam="2">  1       21 0.17142658E+00 0.49971250E+03</pdfrwt>
<totfact> 0.12077927E+03</totfact>
</mgrwt>
</event>
<event>
 4    1  0.4689683E-002  0.4237868E+03  0.7818608E-02  0.1035841E+00
         21   -1    0    0  503  502  0.00000000000E+00  0.00000000000E+00  0.13636391415E+04  0.13636391415E+04  0.00000000000E+00 0. -1.
         21   -1    0    0  501  503 -0.00000000000E+00 -0.00000000000E+00 -0.13226533743E+03  0.13226533743E+03  0.00000000000E+00 0.  1.
    9000007    1    1    2  501    0  0.97689396380E+02  0.10025990764E+03  0.56691415024E+03  0.70780429568E+03  0.40000000000E+03 0.  1.
   -9000007    1    1    2    0  502 -0.97689396380E+02 -0.10025990764E+03  0.66445965380E+03  0.78810018321E+03  0.40000000000E+03 0. -1.
<mgrwt>
<rscale>  2 0.42378682E+03</rscale>
<asrwt>0</asrwt>
<pdfrwt beam="1">  1       21 0.20979063E+00 0.42378682E+03</pdfrwt>
<pdfrwt beam="2">  1       21 0.20348514E-01 0.42378682E+03</pdfrwt>
<totfact> 0.22225843E+03</totfact>
</mgrwt>
</event>
<event>
 4    1  0.4689683E-002  0.4399804E+03  0.7818608E-02  0.1030753E+00
         21   -1    0    0  503  502  0.00000000000E+00  0.00000000000E+00  0.21141461860E+04  0.21141461860E+04  0.00000000000E+00 0. -1.
         21   -1    0    0  501  503 -0.00000000000E+00 -0.00000000000E+00 -0.16494022196E+03  0.16494022196E+03  0.00000000000E+00 0. -1.
    9000007    1    1    2  501    0 -0.10109224823E+03  0.15285007454E+03  0.21455531043E+03  0.48950665897E+03  0.40000000000E+03 0. -1.
   -9000007    1    1    2    0  502  0.10109224823E+03 -0.15285007454E+03  0.17346506536E+04  0.17895797490E+04  0.40000000000E+03 0. -1.
<mgrwt>
<rscale>  2 0.43998044E+03</rscale>
<asrwt>0</asrwt>
<pdfrwt beam="1">  1       21 0.32525324E+00 0.43998044E+03</pdfrwt>
<pdfrwt beam="2">  1       21 0.25375420E-01 0.43998044E+03</pdfrwt>
<totfact> 0.28274879E+02</totfact>
</mgrwt>
</event>
<event>
 4    1  0.4689683E-002  0.4307038E+03  0.7818608E-02  0.1033638E+00
         21   -1    0    0  503  502  0.00000000000E+00  0.00000000000E+00  0.15102719769E+04  0.15102719769E+04  0.00000000000E+00 0.  1.
         21   -1    0    0  501  503 -0.00000000000E+00 -0.00000000000E+00 -0.12980725834E+03  0.12980725834E+03  0.00000000000E+00 0.  1.
    9000007    1    1    2  501    0 -0.79051911105E+02 -0.13876806487E+03  0.88036069120E+03  0.98007179691E+03  0.40000000000E+03 0.  1.
   -9000007    1    1    2    0  502  0.79051911105E+02  0.13876806487E+03  0.50010402735E+03  0.66000743833E+03  0.40000000000E+03 0.  1.
<mgrwt>
<rscale>  2 0.43070382E+03</rscale>
<asrwt>0</asrwt>
<pdfrwt beam="1">  1       21 0.23234952E+00 0.43070382E+03</pdfrwt>
<pdfrwt beam="2">  1       21 0.19970348E-01 0.43070382E+03</pdfrwt>
<totfact> 0.16488122E+03</totfact>
</mgrwt>
</event>
<event>
 4    1  0.4689683E-002  0.5721574E+03  0.7818608E-02  0.9964916E-01
         21   -1    0    0  503  502  0.00000000000E+00  0.00000000000E+00  0.79846212945E+03  0.79846212945E+03  0.00000000000E+00 0.  1.
         21   -1    0    0  501  503 -0.00000000000E+00 -0.00000000000E+00 -0.55195865551E+03  0.55195865551E+03  0.00000000000E+00 0. -1.
    9000007    1    1    2  501    0 -0.28219700164E+03 -0.29619081259E+03 -0.21918235017E+03  0.61270306660E+03  0.40000000000E+03 0. -1.
   -9000007    1    1    2    0  502  0.28219700164E+03  0.29619081259E+03  0.46568582411E+03  0.73771771835E+03  0.40000000000E+03 0.  1.
<mgrwt>
<rscale>  2 0.57215745E+03</rscale>
<asrwt>0</asrwt>
<pdfrwt beam="1">  1       21 0.12284033E+00 0.57215745E+03</pdfrwt>
<pdfrwt beam="2">  1       21 0.84916717E-01 0.57215745E+03</pdfrwt>
<totfact> 0.47645396E+02</totfact>
</mgrwt>
</event>
<event>
 4    1  0.4689683E-002  0.4183575E+03  0.7818608E-02  0.1037602E+00
         21   -1    0    0  503  502  0.00000000000E+00  0.00000000000E+00  0.44135180006E+03  0.44135180006E+03  0.00000000000E+00 0.  1.
         21   -1    0    0  501  503 -0.00000000000E+00 -0.00000000000E+00 -0.57107168182E+03  0.57107168182E+03  0.00000000000E+00 0.  1.
    9000007    1    1    2  501    0  0.12240599484E+03  0.63043534997E+01 -0.34469217274E+03  0.54206610888E+03  0.40000000000E+03 0.  1.
   -9000007    1    1    2    0  502 -0.12240599484E+03 -0.63043534997E+01  0.21497229098E+03  0.47035737300E+03  0.40000000000E+03 0.  1.
<mgrwt>
<rscale>  2 0.41835747E+03</rscale>
<asrwt>0</asrwt>
<pdfrwt beam="1">  1       21 0.67900278E-01 0.41835747E+03</pdfrwt>
<pdfrwt beam="2">  1       21 0.87857181E-01 0.41835747E+03</pdfrwt>
<totfact> 0.19211051E+03</totfact>
</mgrwt>
</event>
<event>
 4    1  0.4689683E-002  0.4292142E+03  0.7818608E-02  0.1034108E+00
         21   -1    0    0  503  502  0.00000000000E+00  0.00000000000E+00  0.17282532407E+03  0.17282532407E+03  0.00000000000E+00 0. -1.
         21   -1    0    0  501  503 -0.00000000000E+00 -0.00000000000E+00 -0.10752846452E+04  0.10752846452E+04  0.00000000000E+00 0. -1.
    9000007    1    1    2  501    0 -0.14898642214E+03  0.45031928700E+02 -0.50934416646E+03  0.66607530242E+03  0.40000000000E+03 0. -1.
   -9000007    1    1    2    0  502  0.14898642214E+03 -0.45031928700E+02 -0.39311515465E+03  0.58203466684E+03  0.40000000000E+03 0. -1.
<mgrwt>
<rscale>  2 0.42921420E+03</rscale>
<asrwt>0</asrwt>
<pdfrwt beam="1">  1       21 0.26588511E-01 0.42921420E+03</pdfrwt>
<pdfrwt beam="2">  1       21 0.16542841E+00 0.42921420E+03</pdfrwt>
<totfact> 0.26772616E+03</totfact>
</mgrwt>
</event>
<event>
 4    1  0.4689683E-002  0.4675634E+03  0.7818608E-02  0.1022610E+00
         21   -1    0    0  501  502  0.00000000000E+00  0.00000000000E+00  0.18754825666E+03  0.18754825666E+03  0.00000000000E+00 0.  1.
         21   -1    0    0  502  503 -0.00000000000E+00 -0.00000000000E+00 -0.12540875293E+04  0.12540875293E+04  0.00000000000E+00 0.  1.
    9000007    1    1    2  501    0 -0.19831208117E+03 -0.13888069256E+03 -0.34185232782E+03  0.57920509523E+03  0.40000000000E+03 0.  1.
   -9000007    1    1    2    0  503  0.19831208117E+03  0.13888069256E+03 -0.72468694483E+03  0.86243069073E+03  0.40000000000E+03 0.  1.
<mgrwt>
<rscale>  2 0.46756339E+03</rscale>
<asrwt>0</asrwt>
<pdfrwt beam="1">  1       21 0.28853577E-01 0.46756339E+03</pdfrwt>
<pdfrwt beam="2">  1       21 0.19293655E+00 0.46756339E+03</pdfrwt>
<totfact> 0.14332619E+03</totfact>
</mgrwt>
</event>
<event>
 4    1  0.4689683E-002  0.4105703E+03  0.7818608E-02  0.1040180E+00
         21   -1    0    0  501  502  0.00000000000E+00  0.00000000000E+00  0.13590728698E+04  0.13590728698E+04  0.00000000000E+00 0. -1.
         21   -1    0    0  502  503 -0.00000000000E+00 -0.00000000000E+00 -0.16358012431E+03  0.16358012431E+03  0.00000000000E+00 0. -1.
    9000007    1    1    2  501    0 -0.18684157454E+02 -0.90657877420E+02  0.97209044243E+03  0.10552382559E+04  0.40000000000E+03 0. -1.
   -9000007    1    1    2    0  503  0.18684157454E+02  0.90657877420E+02  0.22340230306E+03  0.46741473820E+03  0.40000000000E+03 0. -1.
<mgrwt>
<rscale>  2 0.41057027E+03</rscale>
<asrwt>0</asrwt>
<pdfrwt beam="1">  1       21 0.20908813E+00 0.41057027E+03</pdfrwt>
<pdfrwt beam="2">  1       21 0.25166174E-01 0.41057027E+03</pdfrwt>
<totfact> 0.15017759E+03</totfact>
</mgrwt>
</event>
<event>
 4    1  0.4689683E-002  0.4004462E+03  0.7818608E-02  0.1043625E+00
         21   -1    0    0  501  502  0.00000000000E+00  0.00000000000E+00  0.97655795464E+03  0.97655795464E+03  0.00000000000E+00 0.  1.
         21   -1    0    0  502  503 -0.00000000000E+00 -0.00000000000E+00 -0.16643892262E+03  0.16643892262E+03  0.00000000000E+00 0.  1.
    9000007    1    1    2  501    0  0.17859644714E+02  0.61795102364E+01  0.33887188215E+03  0.52458679526E+03  0.40000000000E+03 0. -1.
   -9000007    1    1    2    0  503 -0.17859644714E+02 -0.61795102364E+01  0.47124714986E+03  0.61841008199E+03  0.40000000000E+03 0. -1.
<mgrwt>
<rscale>  2 0.40044619E+03</rscale>
<asrwt>0</asrwt>
<pdfrwt beam="1">  1       21 0.15023968E+00 0.40044619E+03</pdfrwt>
<pdfrwt beam="2">  1       21 0.25605989E-01 0.40044619E+03</pdfrwt>
<totfact> 0.38037808E+03</totfact>
</mgrwt>
</event>
<event>
 4    1  0.4689683E-002  0.6273824E+03  0.7818608E-02  0.9850170E-01
         21   -1    0    0  501  502  0.00000000000E+00  0.00000000000E+00  0.47130968111E+03  0.47130968111E+03  0.00000000000E+00 0. -1.
         21   -1    0    0  502  503 -0.00000000000E+00 -0.00000000000E+00 -0.97225565396E+03  0.97225565396E+03  0.00000000000E+00 0. -1.
    9000007    1    1    2  501    0  0.31750231830E+03 -0.36441858859E+03  0.20585419035E+02  0.62771999276E+03  0.40000000000E+03 0. -1.
   -9000007    1    1    2    0  503 -0.31750231830E+03  0.36441858859E+03 -0.52153139189E+03  0.81584534231E+03  0.40000000000E+03 0. -1.
<mgrwt>
<rscale>  2 0.62738236E+03</rscale>
<asrwt>0</asrwt>
<pdfrwt beam="1">  1       21 0.72509182E-01 0.62738236E+03</pdfrwt>
<pdfrwt beam="2">  1       21 0.14957779E+00 0.62738236E+03</pdfrwt>
<totfact> 0.39969605E+02</totfact>
</mgrwt>
</event>
<event>
 4    1  0.4689683E-002  0.4469070E+03  0.7818608E-02  0.1028648E+00
         21   -1    0    0  501  502  0.00000000000E+00  0.00000000000E+00  0.22320915403E+04  0.22320915403E+04  0.00000000000E+00 0.  1.
         21   -1    0    0  502  503 -0.00000000000E+00 -0.00000000000E+00 -0.13656751225E+03  0.13656751225E+03  0.00000000000E+00 0.  1.
    9000007    1    1    2  501    0  0.84396065176E+02 -0.18056355263E+03  0.17431947936E+04  0.17995704990E+04  0.40000000000E+03 0.  1.
   -9000007    1    1    2    0  503 -0.84396065176E+02  0.18056355263E+03  0.35232923446E+03  0.56908855358E+03  0.40000000000E+03 0.  1.
<mgrwt>
<rscale>  2 0.44690703E+03</rscale>
<asrwt>0</asrwt>
<pdfrwt beam="1">  1       21 0.34339867E+00 0.44690703E+03</pdfrwt>
<pdfrwt beam="2">  1       21 0.21010388E-01 0.44690703E+03</pdfrwt>
<totfact> 0.31442832E+02</totfact>
</mgrwt>
</event>
<event>
 4    1  0.4689683E-002  0.5581800E+03  0.7818608E-02  0.9996181E-01
         21   -1    0    0  501  502  0.00000000000E+00  0.00000000000E+00  0.42472201013E+03  0.42472201013E+03  0.00000000000E+00 0. -1.
         21   -1    0    0  502  503 -0.00000000000E+00 -0.00000000000E+00 -0.73680844955E+03  0.73680844955E+03  0.00000000000E+00 0.  1.
    9000007    1    1    2  501    0 -0.32556886662E+03 -0.21347089019E+03 -0.19452381945E+03  0.59110441058E+03  0.40000000000E+03 0.  1.
   -9000007    1    1    2    0  503  0.32556886662E+03  0.21347089019E+03 -0.11756261997E+03  0.57042604909E+03  0.40000000000E+03 0. -1.
<mgrwt>
<rscale>  2 0.55818000E+03</rscale>
<asrwt>0</asrwt>
<pdfrwt beam="1">  1       21 0.65341848E-01 0.55818000E+03</pdfrwt>
<pdfrwt beam="2">  1       21 0.11335515E+00 0.55818000E+03</pdfrwt>
<totfact> 0.10704772E+03</totfact>
</mgrwt>
</event>
<event>
 4    1  0.4689683E-002  0.4227531E+03  0.7818608E-02  0.1036174E+00
         21   -1    0    0  501  502  0.00000000000E+00  0.00000000000E+00  0.64822320120E+03  0.64822320120E+03  0.00000000000E+00 0. -1.
         21   -1    0    0  502  503 -0.00000000000E+00 -0.00000000000E+00 -0.48755005964E+03  0.48755005964E+03  0.00000000000E+00 0. -1.
    9000007    1    1    2  501    0 -0.13670109530E+03 -0.57409466245E+01  0.45466982377E+03  0.62084200613E+03  0.40000000000E+03 0. -1.
   -9000007    1    1    2    0  503  0.13670109530E+03  0.57409466245E+01 -0.29399668221E+03  0.51493125471E+03  0.40000000000E+03 0. -1.
<mgrwt>
<rscale>  2 0.42275306E+03</rscale>
<asrwt>0</asrwt>
<pdfrwt beam="1">  1       21 0.99726646E-01 0.42275306E+03</pdfrwt>
<pdfrwt beam="2">  1       21 0.75007702E-01 0.42275306E+03</pdfrwt>
<totfact> 0.11322149E+03</totfact>
</mgrwt>
</event>
<event>
 4    1  0.4689683E-002  0.5677956E+03  0.7818608E-02  0.9974568E-01
         21   -1    0    0  501  502  0.00000000000E+00  0.00000000000E+00  0.46943347392E+03  0.46943347392E+03  0.00000000000E+00 0.  1.
         21   -1    0    0  502  503 -0.00000000000E+00 -0.00000000000E+00 -0.74606257139E+03  0.74606257139E+03  0.00000000000E+00 0.  1.
    9000007    1    1    2  501    0 -0.40072774049E+03  0.42534379964E+02  0.33019365600E+02  0.56875493315E+03  0.40000000000E+03 0.  1.
   -9000007    1    1    2    0  503  0.40072774049E+03 -0.42534379964E+02 -0.30964846307E+03  0.64674111216E+03  0.40000000000E+03 0.  1.
<mgrwt>
<rscale>  2 0.56779565E+03</rscale>
<asrwt>0</asrwt>
<pdfrwt beam="1">  1       21 0.72220536E-01 0.56779565E+03</pdfrwt>
<pdfrwt beam="2">  1       21 0.11477886E+00 0.56779565E+03</pdfrwt>
<totfact> 0.82512547E+02</totfact>
</mgrwt>
</event>
<event>
 4    1  0.4689683E-002  0.4781333E+03  0.7818608E-02  0.1019649E+00
         21   -1    0    0  501  502  0.00000000000E+00  0.00000000000E+00  0.10978021189E+04  0.10978021189E+04  0.00000000000E+00 0.  1.
         21   -1    0    0  502  503 -0.00000000000E+00 -0.00000000000E+00 -0.20892807949E+03  0.20892807949E+03  0.00000000000E+00 0.  1.
    9000007    1    1    2  501    0  0.60003549264E+02  0.25497256061E+03  0.40706899295E+03  0.62794633338E+03  0.40000000000E+03 0.  1.
   -9000007    1    1    2    0  503 -0.60003549264E+02 -0.25497256061E+03  0.48180504645E+03  0.67878386499E+03  0.40000000000E+03 0.  1.
<mgrwt>
<rscale>  2 0.47813328E+03</rscale>
<asrwt>0</asrwt>
<pdfrwt beam="1">  1       21 0.16889263E+00 0.47813328E+03</pdfrwt>
<pdfrwt beam="2">  1       21 0.32142782E-01 0.47813328E+03</pdfrwt>
<totfact> 0.17000743E+03</totfact>
</mgrwt>
</event>
<event>
 4    1  0.4689683E-002  0.4415686E+03  0.7818608E-02  0.1030267E+00
         21   -1    0    0  501  502  0.00000000000E+00  0.00000000000E+00  0.63799657416E+02  0.63799657416E+02  0.00000000000E+00 0. -1.
         21   -1    0    0  502  503 -0.00000000000E+00 -0.00000000000E+00 -0.39765700593E+04  0.39765700593E+04  0.00000000000E+00 0. -1.
    9000007    1    1    2  501    0  0.13881275682E+03  0.12535488338E+03 -0.98447919961E+03  0.10789727164E+04  0.40000000000E+03 0. -1.
   -9000007    1    1    2    0  503 -0.13881275682E+03 -0.12535488338E+03 -0.29282912023E+04  0.29613970004E+04  0.40000000000E+03 0. -1.
<mgrwt>
<rscale>  2 0.44156860E+03</rscale>
<asrwt>0</asrwt>
<pdfrwt beam="1">  1       21 0.98153299E-02 0.44156860E+03</pdfrwt>
<pdfrwt beam="2">  1       21 0.61178014E+00 0.44156860E+03</pdfrwt>
<totfact> 0.17282604E+01</totfact>
</mgrwt>
</event>
<event>
 4    1  0.4689683E-002  0.5461784E+03  0.7818608E-02  0.1002382E+00
         21   -1    0    0  503  502  0.00000000000E+00  0.00000000000E+00  0.43787570816E+03  0.43787570816E+03  0.00000000000E+00 0. -1.
         21   -1    0    0  501  503 -0.00000000000E+00 -0.00000000000E+00 -0.79249334000E+03  0.79249334000E+03  0.00000000000E+00 0. -1.
    9000007    1    1    2  501    0  0.34586680786E+03 -0.13670043420E+03 -0.40777584066E+03  0.68160985447E+03  0.40000000000E+03 0. -1.
   -9000007    1    1    2    0  502 -0.34586680786E+03  0.13670043420E+03  0.53158208832E+02  0.54875919368E+03  0.40000000000E+03 0. -1.
<mgrwt>
<rscale>  2 0.54617841E+03</rscale>
<asrwt>0</asrwt>
<pdfrwt beam="1">  1       21 0.67365494E-01 0.54617841E+03</pdfrwt>
<pdfrwt beam="2">  1       21 0.12192205E+00 0.54617841E+03</pdfrwt>
<totfact> 0.83442782E+02</totfact>
</mgrwt>
</event>
<event>
 4    1  0.4689683E-002  0.4267871E+03  0.7818608E-02  0.1034880E+00
         21   -1    0    0  503  502  0.00000000000E+00  0.00000000000E+00  0.84084904452E+03  0.84084904452E+03  0.00000000000E+00 0.  1.
         21   -1    0    0  501  503 -0.00000000000E+00 -0.00000000000E+00 -0.26480180198E+03  0.26480180198E+03  0.00000000000E+00 0.  1.
    9000007    1    1    2  501    0 -0.37511685006E+02  0.14401415862E+03  0.52217137731E+02  0.42996957319E+03  0.40000000000E+03 0.  1.
   -9000007    1    1    2    0  502  0.37511685006E+02 -0.14401415862E+03  0.52383010481E+03  0.67568127331E+03  0.40000000000E+03 0.  1.
<mgrwt>
<rscale>  2 0.42678707E+03</rscale>
<asrwt>0</asrwt>
<pdfrwt beam="1">  1       21 0.12936139E+00 0.42678707E+03</pdfrwt>
<pdfrwt beam="2">  1       21 0.40738739E-01 0.42678707E+03</pdfrwt>
<totfact> 0.22069915E+03</totfact>
</mgrwt>
</event>
<event>
 4    1  0.4689683E-002  0.5298128E+03  0.7818608E-02  0.1006278E+00
         21   -1    0    0  503  502  0.00000000000E+00  0.00000000000E+00  0.10498523679E+04  0.10498523679E+04  0.00000000000E+00 0.  1.
         21   -1    0    0  501  503 -0.00000000000E+00 -0.00000000000E+00 -0.37948556093E+03  0.37948556093E+03  0.00000000000E+00 0. -1.
    9000007    1    1    2  501    0  0.25935904841E+03 -0.23115908790E+03 -0.53266861722E+02  0.53248380113E+03  0.40000000000E+03 0. -1.
   -9000007    1    1    2    0  502 -0.25935904841E+03  0.23115908790E+03  0.72363366869E+03  0.89685412770E+03  0.40000000000E+03 0.  1.
<mgrwt>
<rscale>  2 0.52981283E+03</rscale>
<asrwt>0</asrwt>
<pdfrwt beam="1">  1       21 0.16151575E+00 0.52981283E+03</pdfrwt>
<pdfrwt beam="2">  1       21 0.58382395E-01 0.52981283E+03</pdfrwt>
<totfact> 0.54287469E+02</totfact>
</mgrwt>
</event>
<event>
 4    1  0.4689683E-002  0.5249579E+03  0.7818608E-02  0.1007462E+00
         21   -1    0    0  501  502  0.00000000000E+00  0.00000000000E+00  0.81879661464E+03  0.81879661464E+03  0.00000000000E+00 0. -1.
         21   -1    0    0  502  503 -0.00000000000E+00 -0.00000000000E+00 -0.35739579928E+03  0.35739579928E+03  0.00000000000E+00 0. -1.
    9000007    1    1    2  501    0  0.33288245856E+03 -0.69065337363E+02  0.37266995001E+03  0.64378850850E+03  0.40000000000E+03 0. -1.
   -9000007    1    1    2    0  503 -0.33288245856E+03  0.69065337363E+02  0.88730865357E+02  0.53240390542E+03  0.40000000000E+03 0. -1.
<mgrwt>
<rscale>  2 0.52495786E+03</rscale>
<asrwt>0</asrwt>
<pdfrwt beam="1">  1       21 0.12596871E+00 0.52495786E+03</pdfrwt>
<pdfrwt beam="2">  1       21 0.54983969E-01 0.52495786E+03</pdfrwt>
<totfact> 0.12092980E+03</totfact>
</mgrwt>
</event>
<event>
 4    1  0.4689683E-002  0.4316933E+03  0.7818608E-02  0.1033326E+00
         21   -1    0    0  503  502  0.00000000000E+00  0.00000000000E+00  0.13838708405E+04  0.13838708405E+04  0.00000000000E+00 0.  1.
         21   -1    0    0  501  503 -0.00000000000E+00 -0.00000000000E+00 -0.23731065458E+03  0.23731065458E+03  0.00000000000E+00 0.  1.
    9000007    1    1    2  501    0  0.11730789008E+03  0.11224079183E+03  0.40174733722E+02  0.43355869920E+03  0.40000000000E+03 0.  1.
   -9000007    1    1    2    0  502 -0.11730789008E+03 -0.11224079183E+03  0.11063854522E+04  0.11876227958E+04  0.40000000000E+03 0.  1.
<mgrwt>
<rscale>  2 0.43169334E+03</rscale>
<asrwt>0</asrwt>
<pdfrwt beam="1">  1       21 0.21290320E+00 0.43169334E+03</pdfrwt>
<pdfrwt beam="2">  1       21 0.36509332E-01 0.43169334E+03</pdfrwt>
<totfact> 0.67024797E+02</totfact>
</mgrwt>
</event>
<event>
 4    1  0.4689683E-002  0.7544103E+03  0.7818608E-02  0.9628457E-01
         21   -1    0    0  503  502  0.00000000000E+00  0.00000000000E+00  0.24280456895E+04  0.24280456895E+04  0.00000000000E+00 0. -1.
         21   -1    0    0  501  503 -0.00000000000E+00 -0.00000000000E+00 -0.23482024081E+03  0.23482024081E+03  0.00000000000E+00 0.  1.
    9000007    1    1    2  501    0  0.56005098272E+03  0.30899474861E+03  0.10403139743E+04  0.12850634315E+04  0.40000000000E+03 0.  1.
   -9000007    1    1    2    0  502 -0.56005098272E+03 -0.30899474861E+03  0.11529114744E+04  0.13778024988E+04  0.40000000000E+03 0. -1.
<mgrwt>
<rscale>  2 0.75441027E+03</rscale>
<asrwt>0</asrwt>
<pdfrwt beam="1">  1       21 0.37354547E+00 0.75441027E+03</pdfrwt>
<pdfrwt beam="2">  1       21 0.36126193E-01 0.75441027E+03</pdfrwt>
<totfact> 0.59902513E+01</totfact>
</mgrwt>
</event>
<event>
 4    1  0.4689683E-002  0.4052359E+03  0.7818608E-02  0.1041982E+00
         21   -1    0    0  501  502  0.00000000000E+00  0.00000000000E+00  0.16640773797E+03  0.16640773797E+03  0.00000000000E+00 0.  1.
         21   -1    0    0  502  503 -0.00000000000E+00 -0.00000000000E+00 -0.10939963433E+04  0.10939963433E+04  0.00000000000E+00 0.  1.
    9000007    1    1    2  501    0  0.63372800144E+02  0.14143654821E+02 -0.26655157748E+03  0.48504216129E+03  0.40000000000E+03 0.  1.
   -9000007    1    1    2    0  503 -0.63372800144E+02 -0.14143654821E+02 -0.66103702783E+03  0.77536191997E+03  0.40000000000E+03 0.  1.
<mgrwt>
<rscale>  2 0.40523592E+03</rscale>
<asrwt>0</asrwt>
<pdfrwt beam="1">  1       21 0.25601190E-01 0.40523592E+03</pdfrwt>
<pdfrwt beam="2">  1       21 0.16830714E+00 0.40523592E+03</pdfrwt>
<totfact> 0.27734999E+03</totfact>
</mgrwt>
</event>
<event>
 4    1  0.4689683E-002  0.4909722E+03  0.7818608E-02  0.1016163E+00
         21   -1    0    0  503  502  0.00000000000E+00  0.00000000000E+00  0.20045298421E+04  0.20045298421E+04  0.00000000000E+00 0. -1.
         21   -1    0    0  501  503 -0.00000000000E+00 -0.00000000000E+00 -0.12930799051E+03  0.12930799051E+03  0.00000000000E+00 0. -1.
    9000007    1    1    2  501    0 -0.28091310120E+03  0.46276730161E+02  0.65530038711E+03  0.81882373166E+03  0.40000000000E+03 0. -1.
   -9000007    1    1    2    0  502  0.28091310120E+03 -0.46276730161E+02  0.12199214644E+04  0.13150141009E+04  0.40000000000E+03 0. -1.
<mgrwt>
<rscale>  2 0.49097221E+03</rscale>
<asrwt>0</asrwt>
<pdfrwt beam="1">  1       21 0.30838918E+00 0.49097221E+03</pdfrwt>
<pdfrwt beam="2">  1       21 0.19893538E-01 0.49097221E+03</pdfrwt>
<totfact> 0.55474517E+02</totfact>
</mgrwt>
</event>
<event>
 4    1  0.4689683E-002  0.4122490E+03  0.7818608E-02  0.1039619E+00
         21   -1    0    0  503  502  0.00000000000E+00  0.00000000000E+00  0.28210032708E+03  0.28210032708E+03  0.00000000000E+00 0. -1.
         21   -1    0    0  501  503 -0.00000000000E+00 -0.00000000000E+00 -0.72594284200E+03  0.72594284200E+03  0.00000000000E+00 0. -1.
    9000007    1    1    2  501    0  0.94269632223E+02  0.32595414198E+02 -0.42981049789E+03  0.59555544552E+03  0.40000000000E+03 0. -1.
   -9000007    1    1    2    0  502 -0.94269632223E+02 -0.32595414198E+02 -0.14032017034E+02  0.41248772356E+03  0.40000000000E+03 0. -1.
<mgrwt>
<rscale>  2 0.41224898E+03</rscale>
<asrwt>0</asrwt>
<pdfrwt beam="1">  1       21 0.43400051E-01 0.41224898E+03</pdfrwt>
<pdfrwt beam="2">  1       21 0.11168351E+00 0.41224898E+03</pdfrwt>
<totfact> 0.28258238E+03</totfact>
</mgrwt>
</event>
<event>
 4    1  0.4689683E-002  0.4249164E+03  0.7818608E-02  0.1035478E+00
         21   -1    0    0  501  502  0.00000000000E+00  0.00000000000E+00  0.15091878893E+03  0.15091878893E+03  0.00000000000E+00 0. -1.
         21   -1    0    0  502  503 -0.00000000000E+00 -0.00000000000E+00 -0.13287701189E+04  0.13287701189E+04  0.00000000000E+00 0. -1.
    9000007    1    1    2  501    0 -0.23364105207E+01 -0.14334733874E+03 -0.35538188609E+03  0.55394061351E+03  0.40000000000E+03 0. -1.
   -9000007    1    1    2    0  503  0.23364105207E+01  0.14334733874E+03 -0.82246944393E+03  0.92574829437E+03  0.40000000000E+03 0. -1.
<mgrwt>
<rscale>  2 0.42491637E+03</rscale>
<asrwt>0</asrwt>
<pdfrwt beam="1">  1       21 0.23218275E-01 0.42491637E+03</pdfrwt>
<pdfrwt beam="2">  1       21 0.20442617E+00 0.42491637E+03</pdfrwt>
<totfact> 0.18702712E+03</totfact>
</mgrwt>
</event>
<event>
 4    1  0.4689683E-002  0.6173134E+03  0.7818608E-02  0.9870123E-01
         21   -1    0    0  501  502  0.00000000000E+00  0.00000000000E+00  0.23210824127E+03  0.23210824127E+03  0.00000000000E+00 0. -1.
         21   -1    0    0  502  503 -0.00000000000E+00 -0.00000000000E+00 -0.18412809230E+04  0.18412809230E+04  0.00000000000E+00 0. -1.
    9000007    1    1    2  501    0  0.23355594040E+03  0.40807782794E+03 -0.46336297358E+03  0.77186860037E+03  0.40000000000E+03 0. -1.
   -9000007    1    1    2    0  503 -0.23355594040E+03 -0.40807782794E+03 -0.11458097082E+04  0.13015205639E+04  0.40000000000E+03 0. -1.
<mgrwt>
<rscale>  2 0.61731345E+03</rscale>
<asrwt>0</asrwt>
<pdfrwt beam="1">  1       21 0.35708959E-01 0.61731345E+03</pdfrwt>
<pdfrwt beam="2">  1       21 0.28327400E+00 0.61731345E+03</pdfrwt>
<totfact> 0.23478924E+02</totfact>
</mgrwt>
</event>
<event>
 4    1  0.4689683E-002  0.6545877E+03  0.7818608E-02  0.9798209E-01
         21   -1    0    0  501  502  0.00000000000E+00  0.00000000000E+00  0.36587657173E+03  0.36587657173E+03  0.00000000000E+00 0. -1.
         21   -1    0    0  502  503 -0.00000000000E+00 -0.00000000000E+00 -0.13416871488E+04  0.13416871488E+04  0.00000000000E+00 0.  1.
    9000007    1    1    2  501    0 -0.39072774457E+03  0.34031871124E+03 -0.79232326414E+03  0.10277456643E+04  0.40000000000E+03 0. -1.
   -9000007    1    1    2    0  503  0.39072774457E+03 -0.34031871124E+03 -0.18348731297E+03  0.67981805626E+03  0.40000000000E+03 0. -1.
<mgrwt>
<rscale>  2 0.65458765E+03</rscale>
<asrwt>0</asrwt>
<pdfrwt beam="1">  1       21 0.56288704E-01 0.65458765E+03</pdfrwt>
<pdfrwt beam="2">  1       21 0.20641340E+00 0.65458765E+03</pdfrwt>
<totfact> 0.27067931E+02</totfact>
</mgrwt>
</event>
<event>
 4    1  0.4689683E-002  0.4255853E+03  0.7818608E-02  0.1035264E+00
         21   -1    0    0  503  502  0.00000000000E+00  0.00000000000E+00  0.19005097571E+03  0.19005097571E+03  0.00000000000E+00 0. -1.
         21   -1    0    0  501  503 -0.00000000000E+00 -0.00000000000E+00 -0.95307983359E+03  0.95307983359E+03  0.00000000000E+00 0.  1.
    9000007    1    1    2  501    0 -0.28380222904E+02  0.14253923366E+03 -0.38594462631E+03  0.57452251893E+03  0.40000000000E+03 0. -1.
   -9000007    1    1    2    0  502  0.28380222904E+02 -0.14253923366E+03 -0.37708423158E+03  0.56860829038E+03  0.40000000000E+03 0.  1.
<mgrwt>
<rscale>  2 0.42558533E+03</rscale>
<asrwt>0</asrwt>
<pdfrwt beam="1">  1       21 0.29238611E-01 0.42558533E+03</pdfrwt>
<pdfrwt beam="2">  1       21 0.14662767E+00 0.42558533E+03</pdfrwt>
<totfact> 0.30992637E+03</totfact>
</mgrwt>
</event>
<event>
 4    1  0.4689683E-002  0.4090732E+03  0.7818608E-02  0.1040682E+00
         21   -1    0    0  501  502  0.00000000000E+00  0.00000000000E+00  0.14270254575E+04  0.14270254575E+04  0.00000000000E+00 0. -1.
         21   -1    0    0  502  503 -0.00000000000E+00 -0.00000000000E+00 -0.12125138055E+03  0.12125138055E+03  0.00000000000E+00 0. -1.
    9000007    1    1    2  501    0  0.80451961120E+02 -0.29468608973E+02  0.79324433779E+03  0.89251190267E+03  0.40000000000E+03 0. -1.
   -9000007    1    1    2    0  503 -0.80451961120E+02  0.29468608973E+02  0.51252973914E+03  0.65576493538E+03  0.40000000000E+03 0. -1.
<mgrwt>
<rscale>  2 0.40907324E+03</rscale>
<asrwt>0</asrwt>
<pdfrwt beam="1">  1       21 0.21954237E+00 0.40907324E+03</pdfrwt>
<pdfrwt beam="2">  1       21 0.18654060E-01 0.40907324E+03</pdfrwt>
<totfact> 0.22834345E+03</totfact>
</mgrwt>
</event>
<event>
 4    1  0.4689683E-002  0.5420697E+03  0.7818608E-02  0.1003346E+00
         21   -1    0    0  501  502  0.00000000000E+00  0.00000000000E+00  0.62105767940E+03  0.62105767940E+03  0.00000000000E+00 0. -1.
         21   -1    0    0  502  503 -0.00000000000E+00 -0.00000000000E+00 -0.11016882847E+04  0.11016882847E+04  0.00000000000E+00 0. -1.
    9000007    1    1    2  501    0  0.24290092057E+02 -0.36503362007E+03  0.41031677877E+03  0.67985249230E+03  0.40000000000E+03 0. -1.
   -9000007    1    1    2    0  503 -0.24290092057E+02  0.36503362007E+03 -0.89094738410E+03  0.10428934718E+04  0.40000000000E+03 0. -1.
<mgrwt>
<rscale>  2 0.54206969E+03</rscale>
<asrwt>0</asrwt>
<pdfrwt beam="1">  1       21 0.95547336E-01 0.54206969E+03</pdfrwt>
<pdfrwt beam="2">  1       21 0.16949050E+00 0.54206969E+03</pdfrwt>
<totfact> 0.15227004E+02</totfact>
</mgrwt>
</event>
<event>
 4    1  0.4689683E-002  0.4009255E+03  0.7818608E-02  0.1043460E+00
         21   -1    0    0  503  502  0.00000000000E+00  0.00000000000E+00  0.28812842404E+03  0.28812842404E+03  0.00000000000E+00 0. -1.
         21   -1    0    0  501  503 -0.00000000000E+00 -0.00000000000E+00 -0.10329763065E+04  0.10329763065E+04  0.00000000000E+00 0. -1.
    9000007    1    1    2  501    0  0.12036824803E+02 -0.24419942567E+02 -0.82039781589E+03  0.91312309962E+03  0.40000000000E+03 0. -1.
   -9000007    1    1    2    0  502 -0.12036824803E+02  0.24419942567E+02  0.75549933407E+02  0.40798163094E+03  0.40000000000E+03 0. -1.
<mgrwt>
<rscale>  2 0.40092545E+03</rscale>
<asrwt>0</asrwt>
<pdfrwt beam="1">  1       21 0.44327450E-01 0.40092545E+03</pdfrwt>
<pdfrwt beam="2">  1       21 0.15891943E+00 0.40092545E+03</pdfrwt>
<totfact> 0.10813884E+03</totfact>
</mgrwt>
</event>
<event>
 4    1  0.4689683E-002  0.4199345E+03  0.7818608E-02  0.1037088E+00
         21   -1    0    0  501  502  0.00000000000E+00  0.00000000000E+00  0.67268647458E+03  0.67268647458E+03  0.00000000000E+00 0. -1.
         21   -1    0    0  502  503 -0.00000000000E+00 -0.00000000000E+00 -0.28623553602E+03  0.28623553602E+03  0.00000000000E+00 0. -1.
    9000007    1    1    2  501    0 -0.12255700966E+02  0.12725872131E+03  0.33230610219E+03  0.53551127897E+03  0.40000000000E+03 0. -1.
   -9000007    1    1    2    0  503  0.12255700966E+02 -0.12725872131E+03  0.54144836365E+02  0.42341073163E+03  0.40000000000E+03 0. -1.
<mgrwt>
<rscale>  2 0.41993450E+03</rscale>
<asrwt>0</asrwt>
<pdfrwt beam="1">  1       21 0.10349023E+00 0.41993450E+03</pdfrwt>
<pdfrwt beam="2">  1       21 0.44036236E-01 0.41993450E+03</pdfrwt>
<totfact> 0.32983545E+03</totfact>
</mgrwt>
</event>
<event>
 4    1  0.4689683E-002  0.4869736E+03  0.7818608E-02  0.1017236E+00
         21   -1    0    0  501  502  0.00000000000E+00  0.00000000000E+00  0.39588869289E+03  0.39588869289E+03  0.00000000000E+00 0.  1.
         21   -1    0    0  502  503 -0.00000000000E+00 -0.00000000000E+00 -0.84808464632E+03  0.84808464632E+03  0.00000000000E+00 0. -1.
    9000007    1    1    2  501    0  0.27194826224E+03  0.56457459081E+02  0.11097334028E+03  0.49945809061E+03  0.40000000000E+03 0.  1.
   -9000007    1    1    2    0  503 -0.27194826224E+03 -0.56457459081E+02 -0.56316929371E+03  0.74451524860E+03  0.40000000000E+03 0. -1.
<mgrwt>
<rscale>  2 0.48697362E+03</rscale>
<asrwt>0</asrwt>
<pdfrwt beam="1">  1       21 0.60905953E-01 0.48697362E+03</pdfrwt>
<pdfrwt beam="2">  1       21 0.13047456E+00 0.48697362E+03</pdfrwt>
<totfact> 0.89527583E+02</totfact>
</mgrwt>
</event>
<event>
 4    1  0.4689683E-002  0.4928745E+03  0.7818608E-02  0.1015656E+00
         21   -1    0    0  501  502  0.00000000000E+00  0.00000000000E+00  0.65981607876E+03  0.65981607876E+03  0.00000000000E+00 0.  1.
         21   -1    0    0  502  503 -0.00000000000E+00 -0.00000000000E+00 -0.38498672209E+03  0.38498672209E+03  0.00000000000E+00 0. -1.
    9000007    1    1    2  501    0  0.19109705355E+03  0.21542338119E+03  0.24659286099E+03  0.55112009230E+03  0.40000000000E+03 0.  1.
   -9000007    1    1    2    0  503 -0.19109705355E+03 -0.21542338119E+03  0.28236495681E+02  0.49368270856E+03  0.40000000000E+03 0. -1.
<mgrwt>
<rscale>  2 0.49287454E+03</rscale>
<asrwt>0</asrwt>
<pdfrwt beam="1">  1       21 0.10151017E+00 0.49287454E+03</pdfrwt>
<pdfrwt beam="2">  1       21 0.59228726E-01 0.49287454E+03</pdfrwt>
<totfact> 0.17880775E+03</totfact>
</mgrwt>
</event>
<event>
 4    1  0.4689683E-002  0.4184539E+03  0.7818608E-02  0.1037571E+00
         21   -1    0    0  503  502  0.00000000000E+00  0.00000000000E+00  0.40452874316E+03  0.40452874316E+03  0.00000000000E+00 0.  1.
         21   -1    0    0  501  503 -0.00000000000E+00 -0.00000000000E+00 -0.49729548848E+03  0.49729548848E+03  0.00000000000E+00 0.  1.
    9000007    1    1    2  501    0  0.95270437150E+02  0.77635005965E+02 -0.20869615324E+03  0.46760852721E+03  0.40000000000E+03 0. -1.
   -9000007    1    1    2    0  502 -0.95270437150E+02 -0.77635005965E+02  0.11592940792E+03  0.43421570442E+03  0.40000000000E+03 0. -1.
<mgrwt>
<rscale>  2 0.41845388E+03</rscale>
<asrwt>0</asrwt>
<pdfrwt beam="1">  1       21 0.62235191E-01 0.41845388E+03</pdfrwt>
<pdfrwt beam="2">  1       21 0.76506999E-01 0.41845388E+03</pdfrwt>
<totfact> 0.32118258E+03</totfact>
</mgrwt>
</event>
<event>
 4    1  0.4689683E-002  0.4431847E+03  0.7818608E-02  0.1029774E+00
         21   -1    0    0  501  502  0.00000000000E+00  0.00000000000E+00  0.25134835947E+03  0.25134835947E+03  0.00000000000E+00 0.  1.
         21   -1    0    0  502  503 -0.00000000000E+00 -0.00000000000E+00 -0.13296302015E+04  0.13296302015E+04  0.00000000000E+00 0.  1.
    9000007    1    1    2  501    0 -0.17175163963E+03  0.83150886517E+02 -0.31568862281E+02  0.44430765097E+03  0.40000000000E+03 0.  1.
   -9000007    1    1    2    0  503  0.17175163963E+03 -0.83150886517E+02 -0.10467129797E+04  0.11366709100E+04  0.40000000000E+03 0.  1.
<mgrwt>
<rscale>  2 0.44318472E+03</rscale>
<asrwt>0</asrwt>
<pdfrwt beam="1">  1       21 0.38668978E-01 0.44318472E+03</pdfrwt>
<pdfrwt beam="2">  1       21 0.20455850E+00 0.44318472E+03</pdfrwt>
<totfact> 0.67189346E+02</totfact>
</mgrwt>
</event>
<event>
 4    1  0.4689683E-002  0.5020379E+03  0.7818608E-02  0.1013248E+00
         21   -1    0    0  501  502  0.00000000000E+00  0.00000000000E+00  0.32420701156E+03  0.32420701156E+03  0.00000000000E+00 0.  1.
         21   -1    0    0  502  503 -0.00000000000E+00 -0.00000000000E+00 -0.80336401176E+03  0.80336401176E+03  0.00000000000E+00 0.  1.
    9000007    1    1    2  501    0 -0.28280652096E+03  0.10982967083E+03 -0.34091173812E+03  0.60684668417E+03  0.40000000000E+03 0.  1.
   -9000007    1    1    2    0  503  0.28280652096E+03 -0.10982967083E+03 -0.13824526208E+03  0.52072433915E+03  0.40000000000E+03 0.  1.
<mgrwt>
<rscale>  2 0.50203793E+03</rscale>
<asrwt>0</asrwt>
<pdfrwt beam="1">  1       21 0.49878002E-01 0.50203793E+03</pdfrwt>
<pdfrwt beam="2">  1       21 0.12359446E+00 0.50203793E+03</pdfrwt>
<totfact> 0.15785031E+03</totfact>
</mgrwt>
</event>
<event>
 4    1  0.4689683E-002  0.4775955E+03  0.7818608E-02  0.1019798E+00
         21   -1    0    0  503  502  0.00000000000E+00  0.00000000000E+00  0.10183749083E+04  0.10183749083E+04  0.00000000000E+00 0.  1.
         21   -1    0    0  501  503 -0.00000000000E+00 -0.00000000000E+00 -0.24818399627E+03  0.24818399627E+03  0.00000000000E+00 0. -1.
    9000007    1    1    2  501    0  0.23984220521E+03 -0.10282599269E+03  0.58285420022E+03  0.75353598911E+03  0.40000000000E+03 0.  1.
   -9000007    1    1    2    0  502 -0.23984220521E+03  0.10282599269E+03  0.18733671178E+03  0.51302291542E+03  0.40000000000E+03 0.  1.
<mgrwt>
<rscale>  2 0.47759551E+03</rscale>
<asrwt>0</asrwt>
<pdfrwt beam="1">  1       21 0.15667306E+00 0.47759551E+03</pdfrwt>
<pdfrwt beam="2">  1       21 0.38182154E-01 0.47759551E+03</pdfrwt>
<totfact> 0.14812294E+03</totfact>
</mgrwt>
</event>
<event>
 4    1  0.4689683E-002  0.4950339E+03  0.7818608E-02  0.1015083E+00
         21   -1    0    0  501  502  0.00000000000E+00  0.00000000000E+00  0.21581124615E+03  0.21581124615E+03  0.00000000000E+00 0.  1.
         21   -1    0    0  502  503 -0.00000000000E+00 -0.00000000000E+00 -0.15500982396E+04  0.15500982396E+04  0.00000000000E+00 0.  1.
    9000007    1    1    2  501    0 -0.26585498713E+03  0.11991524685E+03 -0.21051738952E+03  0.53793690327E+03  0.40000000000E+03 0.  1.
   -9000007    1    1    2    0  503  0.26585498713E+03 -0.11991524685E+03 -0.11237696040E+04  0.12279725825E+04  0.40000000000E+03 0.  1.
<mgrwt>
<rscale>  2 0.49503388E+03</rscale>
<asrwt>0</asrwt>
<pdfrwt beam="1">  1       21 0.33201731E-01 0.49503388E+03</pdfrwt>
<pdfrwt beam="2">  1       21 0.23847665E+00 0.49503388E+03</pdfrwt>
<totfact> 0.54182972E+02</totfact>
</mgrwt>
</event>
<event>
 4    1  0.4689683E-002  0.4335100E+03  0.7818608E-02  0.1032757E+00
         21   -1    0    0  503  502  0.00000000000E+00  0.00000000000E+00  0.72379936258E+03  0.72379936258E+03  0.00000000000E+00 0. -1.
         21   -1    0    0  501  503 -0.00000000000E+00 -0.00000000000E+00 -0.64245331120E+03  0.64245331120E+03  0.00000000000E+00 0. -1.
    9000007    1    1    2  501    0 -0.13059182161E+03 -0.10429129399E+03 -0.48664293022E+03  0.65173018912E+03  0.40000000000E+03 0. -1.
   -9000007    1    1    2    0  502  0.13059182161E+03  0.10429129399E+03  0.56798898160E+03  0.71452248467E+03  0.40000000000E+03 0. -1.
<mgrwt>
<rscale>  2 0.43350997E+03</rscale>
<asrwt>0</asrwt>
<pdfrwt beam="1">  1       21 0.11135375E+00 0.43350997E+03</pdfrwt>
<pdfrwt beam="2">  1       21 0.98838971E-01 0.43350997E+03</pdfrwt>
<totfact> 0.44994185E+02</totfact>
</mgrwt>
</event>
<event>
 4    1  0.4689683E-002  0.6356441E+03  0.7818608E-02  0.9834096E-01
         21   -1    0    0  503  502  0.00000000000E+00  0.00000000000E+00  0.14278562502E+04  0.14278562502E+04  0.00000000000E+00 0.  1.
         21   -1    0    0  501  503 -0.00000000000E+00 -0.00000000000E+00 -0.29572583131E+03  0.29572583131E+03  0.00000000000E+00 0. -1.
    9000007    1    1    2  501    0  0.48682753470E+03  0.83918693501E+02  0.74503387525E+03  0.97934614459E+03  0.40000000000E+03 0. -1.
   -9000007    1    1    2    0  502 -0.48682753470E+03 -0.83918693501E+02  0.38709654361E+03  0.74423593688E+03  0.40000000000E+03 0. -1.
<mgrwt>
<rscale>  2 0.63564408E+03</rscale>
<asrwt>0</asrwt>
<pdfrwt beam="1">  1       21 0.21967019E+00 0.63564408E+03</pdfrwt>
<pdfrwt beam="2">  1       21 0.45496283E-01 0.63564408E+03</pdfrwt>
<totfact> 0.35210238E+02</totfact>
</mgrwt>
</event>
<event>
 4    1  0.4689683E-002  0.4392870E+03  0.7818608E-02  0.1030966E+00
         21   -1    0    0  501  502  0.00000000000E+00  0.00000000000E+00  0.83384443654E+02  0.83384443654E+02  0.00000000000E+00 0. -1.
         21   -1    0    0  502  503 -0.00000000000E+00 -0.00000000000E+00 -0.23177029835E+04  0.23177029835E+04  0.00000000000E+00 0. -1.
    9000007    1    1    2  501    0  0.14524911912E+03  0.10897576869E+03 -0.10708666815E+04  0.11574664031E+04  0.40000000000E+03 0. -1.
   -9000007    1    1    2    0  503 -0.14524911912E+03 -0.10897576869E+03 -0.11634518583E+04  0.12436210240E+04  0.40000000000E+03 0. -1.
<mgrwt>
<rscale>  2 0.43928695E+03</rscale>
<asrwt>0</asrwt>
<pdfrwt beam="1">  1       21 0.12828379E-01 0.43928695E+03</pdfrwt>
<pdfrwt beam="2">  1       21 0.35656961E+00 0.43928695E+03</pdfrwt>
<totfact> 0.65976160E+02</totfact>
</mgrwt>
</event>
<event>
 4    1  0.4689683E-002  0.4142065E+03  0.7818608E-02  0.1038969E+00
         21   -1    0    0  501  502  0.00000000000E+00  0.00000000000E+00  0.28794696039E+03  0.28794696039E+03  0.00000000000E+00 0. -1.
         21   -1    0    0  502  503 -0.00000000000E+00 -0.00000000000E+00 -0.76576354620E+03  0.76576354620E+03  0.00000000000E+00 0. -1.
    9000007    1    1    2  501    0 -0.95225328992E+02  0.49991899728E+02  0.92822536347E+01  0.41431052793E+03  0.40000000000E+03 0. -1.
   -9000007    1    1    2    0  503  0.95225328992E+02 -0.49991899728E+02 -0.48709883944E+03  0.63939997866E+03  0.40000000000E+03 0. -1.
<mgrwt>
<rscale>  2 0.41420653E+03</rscale>
<asrwt>0</asrwt>
<pdfrwt beam="1">  1       21 0.44299533E-01 0.41420653E+03</pdfrwt>
<pdfrwt beam="2">  1       21 0.11780978E+00 0.41420653E+03</pdfrwt>
<totfact> 0.23681239E+03</totfact>
</mgrwt>
</event>
<event>
 4    1  0.4689683E-002  0.4480383E+03  0.7818608E-02  0.1028309E+00
         21   -1    0    0  501  502  0.00000000000E+00  0.00000000000E+00  0.15399563833E+04  0.15399563833E+04  0.00000000000E+00 0. -1.
         21   -1    0    0  502  503 -0.00000000000E+00 -0.00000000000E+00 -0.14260782240E+03  0.14260782240E+03  0.00000000000E+00 0.  1.
    9000007    1    1    2  501    0  0.18136092497E+03 -0.88580898937E+02  0.45205979565E+03  0.63647185296E+03  0.40000000000E+03 0.  1.
   -9000007    1    1    2    0  503 -0.18136092497E+03  0.88580898937E+02  0.94528876522E+03  0.10460923527E+04  0.40000000000E+03 0. -1.
<mgrwt>
<rscale>  2 0.44803835E+03</rscale>
<asrwt>0</asrwt>
<pdfrwt beam="1">  1       21 0.23691636E+00 0.44803835E+03</pdfrwt>
<pdfrwt beam="2">  1       21 0.21939666E-01 0.44803835E+03</pdfrwt>
<totfact> 0.12793581E+03</totfact>
</mgrwt>
</event>
<event>
 4    1  0.4689683E-002  0.5073608E+03  0.7818608E-02  0.1011875E+00
         21   -1    0    0  503  502  0.00000000000E+00  0.00000000000E+00  0.28098588654E+03  0.28098588654E+03  0.00000000000E+00 0.  1.
         21   -1    0    0  501  503 -0.00000000000E+00 -0.00000000000E+00 -0.15544540454E+04  0.15544540454E+04  0.00000000000E+00 0.  1.
    9000007    1    1    2  501    0 -0.30771523317E+03  0.52214318549E+02 -0.12248289730E+04  0.13257529984E+04  0.40000000000E+03 0.  1.
   -9000007    1    1    2    0  502  0.30771523317E+03 -0.52214318549E+02 -0.48639185885E+02  0.50968693351E+03  0.40000000000E+03 0.  1.
<mgrwt>
<rscale>  2 0.50736082E+03</rscale>
<asrwt>0</asrwt>
<pdfrwt beam="1">  1       21 0.43228597E-01 0.50736082E+03</pdfrwt>
<pdfrwt beam="2">  1       21 0.23914678E+00 0.50736082E+03</pdfrwt>
<totfact> 0.31062768E+02</totfact>
</mgrwt>
</event>
<event>
 4    1  0.4689683E-002  0.5909472E+03  0.7818608E-02  0.9924368E-01
         21   -1    0    0  501  502  0.00000000000E+00  0.00000000000E+00  0.28641938986E+03  0.28641938986E+03  0.00000000000E+00 0. -1.
         21   -1    0    0  502  503 -0.00000000000E+00 -0.00000000000E+00 -0.15460354720E+04  0.15460354720E+04  0.00000000000E+00 0. -1.
    9000007    1    1    2  501    0  0.36953123723E+03  0.22948910989E+03 -0.20857649985E+03  0.62667594747E+03  0.40000000000E+03 0. -1.
   -9000007    1    1    2    0  503 -0.36953123723E+03 -0.22948910989E+03 -0.10510395823E+04  0.12057789144E+04  0.40000000000E+03 0. -1.
<mgrwt>
<rscale>  2 0.59094719E+03</rscale>
<asrwt>0</asrwt>
<pdfrwt beam="1">  1       21 0.44064520E-01 0.59094719E+03</pdfrwt>
<pdfrwt beam="2">  1       21 0.23785162E+00 0.59094719E+03</pdfrwt>
<totfact> 0.29309540E+02</totfact>
</mgrwt>
</event>
<event>
 4    1  0.4689683E-002  0.4589651E+03  0.7818608E-02  0.1025082E+00
         21   -1    0    0  503  502  0.00000000000E+00  0.00000000000E+00  0.89498156839E+03  0.89498156839E+03  0.00000000000E+00 0. -1.
         21   -1    0    0  501  503 -0.00000000000E+00 -0.00000000000E+00 -0.25156782982E+03  0.25156782982E+03  0.00000000000E+00 0.  1.
    9000007    1    1    2  501    0 -0.20039939265E+03 -0.10241600445E+03  0.17622581714E+03  0.49163451177E+03  0.40000000000E+03 0.  1.
   -9000007    1    1    2    0  502  0.20039939265E+03  0.10241600445E+03  0.46718792143E+03  0.65491488643E+03  0.40000000000E+03 0. -1.
<mgrwt>
<rscale>  2 0.45896509E+03</rscale>
<asrwt>0</asrwt>
<pdfrwt beam="1">  1       21 0.13768947E+00 0.45896509E+03</pdfrwt>
<pdfrwt beam="2">  1       21 0.38702743E-01 0.45896509E+03</pdfrwt>
<totfact> 0.20576853E+03</totfact>
</mgrwt>
</event>
<event>
 4    1  0.4689683E-002  0.4223634E+03  0.7818608E-02  0.1036300E+00
         21   -1    0    0  503  502  0.00000000000E+00  0.00000000000E+00  0.18552916212E+04  0.18552916212E+04  0.00000000000E+00 0.  1.
         21   -1    0    0  501  503 -0.00000000000E+00 -0.00000000000E+00 -0.15728501179E+03  0.15728501179E+03  0.00000000000E+00 0. -1.
    9000007    1    1    2  501    0 -0.11377517353E+02  0.13513481682E+03  0.22164594434E+03  0.47698825066E+03  0.40000000000E+03 0. -1.
   -9000007    1    1    2    0  502  0.11377517353E+02 -0.13513481682E+03  0.14763606651E+04  0.15355883824E+04  0.40000000000E+03 0.  1.
<mgrwt>
<rscale>  2 0.42236343E+03</rscale>
<asrwt>0</asrwt>
<pdfrwt beam="1">  1       21 0.28542947E+00 0.42236343E+03</pdfrwt>
<pdfrwt beam="2">  1       21 0.24197695E-01 0.42236343E+03</pdfrwt>
<totfact> 0.54383650E+02</totfact>
</mgrwt>
</event>
<event>
 4    1  0.4689683E-002  0.4818944E+03  0.7818608E-02  0.1018616E+00
         21   -1    0    0  501  502  0.00000000000E+00  0.00000000000E+00  0.11533868077E+04  0.11533868077E+04  0.00000000000E+00 0. -1.
         21   -1    0    0  502  503 -0.00000000000E+00 -0.00000000000E+00 -0.48864858167E+03  0.48864858167E+03  0.00000000000E+00 0.  1.
    9000007    1    1    2  501    0  0.24704502533E+03 -0.10578743595E+03  0.96191724048E+03  0.10758749944E+04  0.40000000000E+03 0. -1.
   -9000007    1    1    2    0  503 -0.24704502533E+03  0.10578743595E+03 -0.29717901445E+03  0.56616039492E+03  0.40000000000E+03 0.  1.
<mgrwt>
<rscale>  2 0.48189441E+03</rscale>
<asrwt>0</asrwt>
<pdfrwt beam="1">  1       21 0.17744412E+00 0.48189441E+03</pdfrwt>
<pdfrwt beam="2">  1       21 0.75176705E-01 0.48189441E+03</pdfrwt>
<totfact> 0.24062671E+02</totfact>
</mgrwt>
</event>
<event>
 4    1  0.4689683E-002  0.5720605E+03  0.7818608E-02  0.9965129E-01
         21   -1    0    0  501  502  0.00000000000E+00  0.00000000000E+00  0.68554700609E+03  0.68554700609E+03  0.00000000000E+00 0.  1.
         21   -1    0    0  502  503 -0.00000000000E+00 -0.00000000000E+00 -0.50828475769E+03  0.50828475769E+03  0.00000000000E+00 0.  1.
    9000007    1    1    2  501    0 -0.36010381402E+03  0.19385174971E+03  0.23586482340E+03  0.61877740154E+03  0.40000000000E+03 0.  1.
   -9000007    1    1    2    0  503  0.36010381402E+03 -0.19385174971E+03 -0.58602575003E+02  0.57505436224E+03  0.40000000000E+03 0.  1.
<mgrwt>
<rscale>  2 0.57206054E+03</rscale>
<asrwt>0</asrwt>
<pdfrwt beam="1">  1       21 0.10546877E+00 0.57206054E+03</pdfrwt>
<pdfrwt beam="2">  1       21 0.78197656E-01 0.57206054E+03</pdfrwt>
<totfact> 0.84804581E+02</totfact>
</mgrwt>
</event>
<event>
 4    1  0.4689683E-002  0.4253768E+03  0.7818608E-02  0.1035330E+00
         21   -1    0    0  503  502  0.00000000000E+00  0.00000000000E+00  0.11274452503E+04  0.11274452503E+04  0.00000000000E+00 0. -1.
         21   -1    0    0  501  503 -0.00000000000E+00 -0.00000000000E+00 -0.24990858248E+03  0.24990858248E+03  0.00000000000E+00 0. -1.
    9000007    1    1    2  501    0  0.14445775383E+03  0.87974213589E+01  0.26827291419E+02  0.42622193847E+03  0.40000000000E+03 0. -1.
   -9000007    1    1    2    0  502 -0.14445775383E+03 -0.87974213589E+01  0.85070937636E+03  0.95113189427E+03  0.40000000000E+03 0. -1.
<mgrwt>
<rscale>  2 0.42537682E+03</rscale>
<asrwt>0</asrwt>
<pdfrwt beam="1">  1       21 0.17345311E+00 0.42537682E+03</pdfrwt>
<pdfrwt beam="2">  1       21 0.38447475E-01 0.42537682E+03</pdfrwt>
<totfact> 0.11211140E+03</totfact>
</mgrwt>
</event>
<event>
 4    1  0.4689683E-002  0.6210134E+03  0.7818608E-02  0.9862744E-01
         21   -1    0    0  501  502  0.00000000000E+00  0.00000000000E+00  0.20433413147E+03  0.20433413147E+03  0.00000000000E+00 0. -1.
         21   -1    0    0  502  503 -0.00000000000E+00 -0.00000000000E+00 -0.20382582862E+04  0.20382582862E+04  0.00000000000E+00 0.  1.
    9000007    1    1    2  501    0 -0.38022437612E+03 -0.28475792854E+03 -0.61189626246E+03  0.87182262535E+03  0.40000000000E+03 0. -1.
   -9000007    1    1    2    0  503  0.38022437612E+03  0.28475792854E+03 -0.12220278922E+04  0.13707697923E+04  0.40000000000E+03 0.  1.
<mgrwt>
<rscale>  2 0.62101341E+03</rscale>
<asrwt>0</asrwt>
<pdfrwt beam="1">  1       21 0.31436020E-01 0.62101341E+03</pdfrwt>
<pdfrwt beam="2">  1       21 0.31357820E+00 0.62101341E+03</pdfrwt>
<totfact> 0.19826484E+02</totfact>
</mgrwt>
</event>
<event>
 4    1  0.4689683E-002  0.4012771E+03  0.7818608E-02  0.1043338E+00
         21   -1    0    0  501  502  0.00000000000E+00  0.00000000000E+00  0.42242034477E+03  0.42242034477E+03  0.00000000000E+00 0.  1.
         21   -1    0    0  502  503 -0.00000000000E+00 -0.00000000000E+00 -0.40641699664E+03  0.40641699664E+03  0.00000000000E+00 0.  1.
    9000007    1    1    2  501    0  0.30929057483E+02  0.81688360289E+01  0.11124626361E+03  0.41641213677E+03  0.40000000000E+03 0.  1.
   -9000007    1    1    2    0  503 -0.30929057483E+02 -0.81688360289E+01 -0.95242915480E+02  0.41242520465E+03  0.40000000000E+03 0.  1.
<mgrwt>
<rscale>  2 0.40127713E+03</rscale>
<asrwt>0</asrwt>
<pdfrwt beam="1">  1       21 0.64987745E-01 0.40127713E+03</pdfrwt>
<pdfrwt beam="2">  1       21 0.62525692E-01 0.40127713E+03</pdfrwt>
<totfact> 0.46195367E+03</totfact>
</mgrwt>
</event>
<event>
 4    1  0.4689683E-002  0.4922218E+03  0.7818608E-02  0.1015829E+00
         21   -1    0    0  503  502  0.00000000000E+00  0.00000000000E+00  0.60266853248E+03  0.60266853248E+03  0.00000000000E+00 0.  1.
         21   -1    0    0  501  503 -0.00000000000E+00 -0.00000000000E+00 -0.55615206028E+03  0.55615206028E+03  0.00000000000E+00 0. -1.
    9000007    1    1    2  501    0  0.21138201975E+03  0.19390714748E+03 -0.28177115197E+03  0.56716604465E+03  0.40000000000E+03 0. -1.
   -9000007    1    1    2    0  502 -0.21138201975E+03 -0.19390714748E+03  0.32828762417E+03  0.59165454811E+03  0.40000000000E+03 0.  1.
<mgrwt>
<rscale>  2 0.49222184E+03</rscale>
<asrwt>0</asrwt>
<pdfrwt beam="1">  1       21 0.92718236E-01 0.49222184E+03</pdfrwt>
<pdfrwt beam="2">  1       21 0.85561856E-01 0.49222184E+03</pdfrwt>
<totfact> 0.96740045E+02</totfact>
</mgrwt>
</event>
<event>
 4    1  0.4689683E-002  0.4291402E+03  0.7818608E-02  0.1034132E+00
         21   -1    0    0  501  502  0.00000000000E+00  0.00000000000E+00  0.44322130608E+03  0.44322130608E+03  0.00000000000E+00 0. -1.
         21   -1    0    0  502  503 -0.00000000000E+00 -0.00000000000E+00 -0.45340107216E+03  0.45340107216E+03  0.00000000000E+00 0. -1.
    9000007    1    1    2  501    0  0.14755771325E+03  0.48867584621E+02  0.12451667960E+03  0.44683970623E+03  0.40000000000E+03 0. -1.
   -9000007    1    1    2    0  503 -0.14755771325E+03 -0.48867584621E+02 -0.13469644567E+03  0.44978267201E+03  0.40000000000E+03 0. -1.
<mgrwt>
<rscale>  2 0.42914021E+03</rscale>
<asrwt>0</asrwt>
<pdfrwt beam="1">  1       21 0.68187893E-01 0.42914021E+03</pdfrwt>
<pdfrwt beam="2">  1       21 0.69754011E-01 0.42914021E+03</pdfrwt>
<totfact> 0.32205165E+03</totfact>
</mgrwt>
</event>
<event>
 4    1  0.4689683E-002  0.4343990E+03  0.7818608E-02  0.1032479E+00
         21   -1    0    0  503  502  0.00000000000E+00  0.00000000000E+00  0.32708774152E+03  0.32708774152E+03  0.00000000000E+00 0. -1.
         21   -1    0    0  501  503 -0.00000000000E+00 -0.00000000000E+00 -0.86922706705E+03  0.86922706705E+03  0.00000000000E+00 0.  1.
    9000007    1    1    2  501    0  0.16941485641E+03  0.10297674472E+01 -0.61794290875E+03  0.75535150259E+03  0.40000000000E+03 0.  1.
   -9000007    1    1    2    0  502 -0.16941485641E+03 -0.10297674472E+01  0.75803583213E+02  0.44096330598E+03  0.40000000000E+03 0. -1.
<mgrwt>
<rscale>  2 0.43439896E+03</rscale>
<asrwt>0</asrwt>
<pdfrwt beam="1">  1       21 0.50321192E-01 0.43439896E+03</pdfrwt>
<pdfrwt beam="2">  1       21 0.13372724E+00 0.43439896E+03</pdfrwt>
<totfact> 0.12965525E+03</totfact>
</mgrwt>
</event>
<event>
 4    1  0.4689683E-002  0.4484636E+03  0.7818608E-02  0.1028181E+00
         21   -1    0    0  501  502  0.00000000000E+00  0.00000000000E+00  0.16053178800E+04  0.16053178800E+04  0.00000000000E+00 0.  1.
         21   -1    0    0  502  503 -0.00000000000E+00 -0.00000000000E+00 -0.37806722322E+03  0.37806722322E+03  0.00000000000E+00 0.  1.
    9000007    1    1    2  501    0 -0.12728574025E+03 -0.15785412745E+03  0.14245251939E+04  0.14934495684E+04  0.40000000000E+03 0.  1.
   -9000007    1    1    2    0  503  0.12728574025E+03  0.15785412745E+03 -0.19727453718E+03  0.48993553478E+03  0.40000000000E+03 0.  1.
<mgrwt>
<rscale>  2 0.44846358E+03</rscale>
<asrwt>0</asrwt>
<pdfrwt beam="1">  1       21 0.24697198E+00 0.44846358E+03</pdfrwt>
<pdfrwt beam="2">  1       21 0.58164189E-01 0.44846358E+03</pdfrwt>
<totfact> 0.15225233E+02</totfact>
</mgrwt>
</event>
<event>
 4    1  0.4689683E-002  0.4381233E+03  0.7818608E-02  0.1031324E+00
         21   -1    0    0  503  502  0.00000000000E+00  0.00000000000E+00  0.24922798920E+03  0.24922798920E+03  0.00000000000E+00 0.  1.
         21   -1    0    0  501  503 -0.00000000000E+00 -0.00000000000E+00 -0.82145586757E+03  0.82145586757E+03  0.00000000000E+00 0.  1.
    9000007    1    1    2  501    0  0.15260619416E+03 -0.93077453643E+02 -0.41985587604E+03  0.60682041785E+03  0.40000000000E+03 0.  1.
   -9000007    1    1    2    0  502 -0.15260619416E+03  0.93077453643E+02 -0.15237200232E+03  0.46386343892E+03  0.40000000000E+03 0.  1.
<mgrwt>
<rscale>  2 0.43812334E+03</rscale>
<asrwt>0</asrwt>
<pdfrwt beam="1">  1       21 0.38342768E-01 0.43812334E+03</pdfrwt>
<pdfrwt beam="2">  1       21 0.12637783E+00 0.43812334E+03</pdfrwt>
<totfact> 0.26431836E+03</totfact>
</mgrwt>
</event>
<event>
 4    1  0.4689683E-002  0.4544142E+03  0.7818608E-02  0.1026414E+00
         21   -1    0    0  503  502  0.00000000000E+00  0.00000000000E+00  0.15738779339E+04  0.15738779339E+04  0.00000000000E+00 0.  1.
         21   -1    0    0  501  503 -0.00000000000E+00 -0.00000000000E+00 -0.14949479289E+03  0.14949479289E+03  0.00000000000E+00 0.  1.
    9000007    1    1    2  501    0 -0.17538278579E+03 -0.12543183028E+03  0.10136336328E+04  0.11108309535E+04  0.40000000000E+03 0.  1.
   -9000007    1    1    2    0  502  0.17538278579E+03  0.12543183028E+03  0.41074950820E+03  0.61254177334E+03  0.40000000000E+03 0.  1.
<mgrwt>
<rscale>  2 0.45441420E+03</rscale>
<asrwt>0</asrwt>
<pdfrwt beam="1">  1       21 0.24213506E+00 0.45441420E+03</pdfrwt>
<pdfrwt beam="2">  1       21 0.22999200E-01 0.45441420E+03</pdfrwt>
<totfact> 0.10809652E+03</totfact>
</mgrwt>
</event>
<event>
 4    1  0.4689683E-002  0.7406921E+03  0.7818608E-02  0.9650067E-01
         21   -1    0    0  503  502  0.00000000000E+00  0.00000000000E+00  0.10930331911E+04  0.10930331911E+04  0.00000000000E+00 0. -1.
         21   -1    0    0  501  503 -0.00000000000E+00 -0.00000000000E+00 -0.51376916333E+03  0.51376916333E+03  0.00000000000E+00 0. -1.
    9000007    1    1    2  501    0 -0.38482727835E+03 -0.49044140196E+03  0.41159598287E+03  0.84737008210E+03  0.40000000000E+03 0. -1.
   -9000007    1    1    2    0  502  0.38482727835E+03  0.49044140196E+03  0.16766804485E+03  0.75943227229E+03  0.40000000000E+03 0. -1.
<mgrwt>
<rscale>  2 0.74069211E+03</rscale>
<asrwt>0</asrwt>
<pdfrwt beam="1">  1       21 0.16815895E+00 0.74069211E+03</pdfrwt>
<pdfrwt beam="2">  1       21 0.79041410E-01 0.74069211E+03</pdfrwt>
<totfact> 0.22739359E+02</totfact>
</mgrwt>
</event>
<event>
 4    1  0.4689683E-002  0.6183504E+03  0.7818608E-02  0.9868049E-01
         21   -1    0    0  503  502  0.00000000000E+00  0.00000000000E+00  0.10864185077E+04  0.10864185077E+04  0.00000000000E+00 0. -1.
         21   -1    0    0  501  503 -0.00000000000E+00 -0.00000000000E+00 -0.36112187979E+03  0.36112187979E+03  0.00000000000E+00 0. -1.
    9000007    1    1    2  501    0  0.42796937678E+03 -0.19798856536E+03  0.47803918475E+03  0.78158730903E+03  0.40000000000E+03 0. -1.
   -9000007    1    1    2    0  502 -0.42796937678E+03  0.19798856536E+03  0.24725744312E+03  0.66595307842E+03  0.40000000000E+03 0. -1.
<mgrwt>
<rscale>  2 0.61835043E+03</rscale>
<asrwt>0</asrwt>
<pdfrwt beam="1">  1       21 0.16714131E+00 0.61835043E+03</pdfrwt>
<pdfrwt beam="2">  1       21 0.55557213E-01 0.61835043E+03</pdfrwt>
<totfact> 0.53178731E+02</totfact>
</mgrwt>
</event>
<event>
 4    1  0.4689683E-002  0.4065027E+03  0.7818608E-02  0.1041551E+00
         21   -1    0    0  503  502  0.00000000000E+00  0.00000000000E+00  0.10519619265E+04  0.10519619265E+04  0.00000000000E+00 0. -1.
         21   -1    0    0  501  503 -0.00000000000E+00 -0.00000000000E+00 -0.32781039344E+03  0.32781039344E+03  0.00000000000E+00 0. -1.
    9000007    1    1    2  501    0 -0.31407812254E+02 -0.65253280955E+02 -0.13579744434E+03  0.42858533250E+03  0.40000000000E+03 0. -1.
   -9000007    1    1    2    0  502  0.31407812254E+02  0.65253280955E+02  0.85994897740E+03  0.95118698744E+03  0.40000000000E+03 0. -1.
<mgrwt>
<rscale>  2 0.40650270E+03</rscale>
<asrwt>0</asrwt>
<pdfrwt beam="1">  1       21 0.16184029E+00 0.40650270E+03</pdfrwt>
<pdfrwt beam="2">  1       21 0.50432369E-01 0.40650270E+03</pdfrwt>
<totfact> 0.78133995E+02</totfact>
</mgrwt>
</event>
<event>
 4    1  0.4689683E-002  0.5190043E+03  0.7818608E-02  0.1008934E+00
         21   -1    0    0  501  502  0.00000000000E+00  0.00000000000E+00  0.97254550397E+03  0.97254550397E+03  0.00000000000E+00 0.  1.
         21   -1    0    0  502  503 -0.00000000000E+00 -0.00000000000E+00 -0.60384577662E+03  0.60384577662E+03  0.00000000000E+00 0.  1.
    9000007    1    1    2  501    0  0.31114109684E+03 -0.11205651348E+03  0.76426268584E+03  0.92383055661E+03  0.40000000000E+03 0.  1.
   -9000007    1    1    2    0  503 -0.31114109684E+03  0.11205651348E+03 -0.39556295849E+03  0.65256072398E+03  0.40000000000E+03 0.  1.
<mgrwt>
<rscale>  2 0.51900428E+03</rscale>
<asrwt>0</asrwt>
<pdfrwt beam="1">  1       21 0.14962238E+00 0.51900428E+03</pdfrwt>
<pdfrwt beam="2">  1       21 0.92899351E-01 0.51900428E+03</pdfrwt>
<totfact> 0.23313820E+02</totfact>
</mgrwt>
</event>
<event>
 4    1  0.4689683E-002  0.4433502E+03  0.7818608E-02  0.1029724E+00
         21   -1    0    0  501  502  0.00000000000E+00  0.00000000000E+00  0.11155997021E+04  0.11155997021E+04  0.00000000000E+00 0.  1.
         21   -1    0    0  502  503 -0.00000000000E+00 -0.00000000000E+00 -0.18118344883E+03  0.18118344883E+03  0.00000000000E+00 0.  1.
    9000007    1    1    2  501    0  0.11999657374E+03  0.14886302038E+03  0.35958497826E+03  0.57084212628E+03  0.40000000000E+03 0.  1.
   -9000007    1    1    2    0  503 -0.11999657374E+03 -0.14886302038E+03  0.57483127505E+03  0.72594102468E+03  0.40000000000E+03 0.  1.
<mgrwt>
<rscale>  2 0.44335017E+03</rscale>
<asrwt>0</asrwt>
<pdfrwt beam="1">  1       21 0.17163072E+00 0.44335017E+03</pdfrwt>
<pdfrwt beam="2">  1       21 0.27874377E-01 0.44335017E+03</pdfrwt>
<totfact> 0.21857625E+03</totfact>
</mgrwt>
</event>
<event>
 4    1  0.4689683E-002  0.4021159E+03  0.7818608E-02  0.1043049E+00
         21   -1    0    0  501  502  0.00000000000E+00  0.00000000000E+00  0.18645059658E+04  0.18645059658E+04  0.00000000000E+00 0. -1.
         21   -1    0    0  502  503 -0.00000000000E+00 -0.00000000000E+00 -0.17478232367E+03  0.17478232367E+03  0.00000000000E+00 0. -1.
    9000007    1    1    2  501    0  0.13655049260E+02  0.38867726179E+02  0.15686065590E+04  0.16193281624E+04  0.40000000000E+03 0. -1.
   -9000007    1    1    2    0  503 -0.13655049260E+02 -0.38867726179E+02  0.12111708309E+03  0.41996012707E+03  0.40000000000E+03 0. -1.
<mgrwt>
<rscale>  2 0.40211585E+03</rscale>
<asrwt>0</asrwt>
<pdfrwt beam="1">  1       21 0.28684706E+00 0.40211585E+03</pdfrwt>
<pdfrwt beam="2">  1       21 0.26889590E-01 0.40211585E+03</pdfrwt>
<totfact> 0.43975574E+02</totfact>
</mgrwt>
</event>
<event>
 4    1  0.4689683E-002  0.5176503E+03  0.7818608E-02  0.1009272E+00
         21   -1    0    0  503  502  0.00000000000E+00  0.00000000000E+00  0.40503364090E+03  0.40503364090E+03  0.00000000000E+00 0. -1.
         21   -1    0    0  501  503 -0.00000000000E+00 -0.00000000000E+00 -0.15846702153E+04  0.15846702153E+04  0.00000000000E+00 0. -1.
    9000007    1    1    2  501    0 -0.30459065958E+03  0.12323278538E+03 -0.13491145900E+04  0.14450162512E+04  0.40000000000E+03 0. -1.
   -9000007    1    1    2    0  502  0.30459065958E+03 -0.12323278538E+03  0.16947801557E+03  0.54468760501E+03  0.40000000000E+03 0. -1.
<mgrwt>
<rscale>  2 0.51765026E+03</rscale>
<asrwt>0</asrwt>
<pdfrwt beam="1">  1       21 0.62312869E-01 0.51765026E+03</pdfrwt>
<pdfrwt beam="2">  1       21 0.24379541E+00 0.51765026E+03</pdfrwt>
<totfact> 0.13185867E+02</totfact>
</mgrwt>
</event>
<event>
 4    1  0.4689683E-002  0.4179333E+03  0.7818608E-02  0.1037741E+00
         21   -1    0    0  503  502  0.00000000000E+00  0.00000000000E+00  0.43488441445E+03  0.43488441445E+03  0.00000000000E+00 0.  1.
         21   -1    0    0  501  503 -0.00000000000E+00 -0.00000000000E+00 -0.50671353040E+03  0.50671353040E+03  0.00000000000E+00 0.  1.
    9000007    1    1    2  501    0 -0.81983840525E+02 -0.89145115632E+02  0.17847078683E+03  0.45444474197E+03  0.40000000000E+03 0.  1.
   -9000007    1    1    2    0  502  0.81983840525E+02  0.89145115632E+02 -0.25029990278E+03  0.48715320288E+03  0.40000000000E+03 0.  1.
<mgrwt>
<rscale>  2 0.41793325E+03</rscale>
<asrwt>0</asrwt>
<pdfrwt beam="1">  1       21 0.66905295E-01 0.41793325E+03</pdfrwt>
<pdfrwt beam="2">  1       21 0.77955928E-01 0.41793325E+03</pdfrwt>
<totfact> 0.26214956E+03</totfact>
</mgrwt>
</event>
<event>
 4    1  0.4689683E-002  0.4339196E+03  0.7818608E-02  0.1032629E+00
         21   -1    0    0  501  502  0.00000000000E+00  0.00000000000E+00  0.17379165404E+03  0.17379165404E+03  0.00000000000E+00 0.  1.
         21   -1    0    0  502  503 -0.00000000000E+00 -0.00000000000E+00 -0.17845607869E+04  0.17845607869E+04  0.00000000000E+00 0. -1.
    9000007    1    1    2  501    0  0.22314545633E+02  0.16669822658E+03 -0.19161782127E+03  0.47434547233E+03  0.40000000000E+03 0.  1.
   -9000007    1    1    2    0  503 -0.22314545633E+02 -0.16669822658E+03 -0.14191513116E+04  0.14840069686E+04  0.40000000000E+03 0. -1.
<mgrwt>
<rscale>  2 0.43391962E+03</rscale>
<asrwt>0</asrwt>
<pdfrwt beam="1">  1       21 0.26737177E-01 0.43391962E+03</pdfrwt>
<pdfrwt beam="2">  1       21 0.27454782E+00 0.43391962E+03</pdfrwt>
<totfact> 0.51715219E+02</totfact>
</mgrwt>
</event>
<event>
 4    1  0.4689683E-002  0.4241443E+03  0.7818608E-02  0.1035726E+00
         21   -1    0    0  501  502  0.00000000000E+00  0.00000000000E+00  0.22190810601E+03  0.22190810601E+03  0.00000000000E+00 0. -1.
         21   -1    0    0  502  503 -0.00000000000E+00 -0.00000000000E+00 -0.15231425466E+04  0.15231425466E+04  0.00000000000E+00 0. -1.
    9000007    1    1    2  501    0 -0.12998384341E+03 -0.54795674375E+02 -0.53875813257E+02  0.42755229941E+03  0.40000000000E+03 0. -1.
   -9000007    1    1    2    0  503  0.12998384341E+03  0.54795674375E+02 -0.12473586273E+04  0.13174983532E+04  0.40000000000E+03 0. -1.
<mgrwt>
<rscale>  2 0.42414427E+03</rscale>
<asrwt>0</asrwt>
<pdfrwt beam="1">  1       21 0.34139711E-01 0.42414427E+03</pdfrwt>
<pdfrwt beam="2">  1       21 0.23432961E+00 0.42414427E+03</pdfrwt>
<totfact> 0.56358409E+02</totfact>
</mgrwt>
</event>
<event>
 4    1  0.4689683E-002  0.4214163E+03  0.7818608E-02  0.1036606E+00
         21   -1    0    0  503  502  0.00000000000E+00  0.00000000000E+00  0.10369854596E+03  0.10369854596E+03  0.00000000000E+00 0.  1.
         21   -1    0    0  501  503 -0.00000000000E+00 -0.00000000000E+00 -0.21608380948E+04  0.21608380948E+04  0.00000000000E+00 0.  1.
    9000007    1    1    2  501    0  0.62557503722E+02  0.11695424145E+03 -0.15442777023E+04  0.16007452507E+04  0.40000000000E+03 0.  1.
   -9000007    1    1    2    0  502 -0.62557503722E+02 -0.11695424145E+03 -0.51286184652E+03  0.66379139003E+03  0.40000000000E+03 0.  1.
<mgrwt>
<rscale>  2 0.42141635E+03</rscale>
<asrwt>0</asrwt>
<pdfrwt beam="1">  1       21 0.15953622E-01 0.42141635E+03</pdfrwt>
<pdfrwt beam="2">  1       21 0.33243664E+00 0.42141635E+03</pdfrwt>
<totfact> 0.62601031E+02</totfact>
</mgrwt>
</event>
<event>
 4    1  0.4689683E-002  0.4871045E+03  0.7818608E-02  0.1017201E+00
         21   -1    0    0  501  502  0.00000000000E+00  0.00000000000E+00  0.48082686013E+03  0.48082686013E+03  0.00000000000E+00 0.  1.
         21   -1    0    0  502  503 -0.00000000000E+00 -0.00000000000E+00 -0.93199430242E+03  0.93199430242E+03  0.00000000000E+00 0. -1.
    9000007    1    1    2  501    0  0.47601436148E+02 -0.27387020759E+03  0.25897936713E+03  0.55167118824E+03  0.40000000000E+03 0.  1.
   -9000007    1    1    2    0  503 -0.47601436148E+02  0.27387020759E+03 -0.71014680942E+03  0.86114997432E+03  0.40000000000E+03 0. -1.
<mgrwt>
<rscale>  2 0.48710449E+03</rscale>
<asrwt>0</asrwt>
<pdfrwt beam="1">  1       21 0.73973363E-01 0.48710449E+03</pdfrwt>
<pdfrwt beam="2">  1       21 0.14338374E+00 0.48710449E+03</pdfrwt>
<totfact> 0.45141038E+02</totfact>
</mgrwt>
</event>
<event>
 4    1  0.4689683E-002  0.7241161E+03  0.7818608E-02  0.9676857E-01
         21   -1    0    0  501  502  0.00000000000E+00  0.00000000000E+00  0.18579110575E+04  0.18579110575E+04  0.00000000000E+00 0.  1.
         21   -1    0    0  502  503 -0.00000000000E+00 -0.00000000000E+00 -0.51328033650E+03  0.51328033650E+03  0.00000000000E+00 0. -1.
    9000007    1    1    2  501    0 -0.23036432490E+03 -0.55792155281E+03  0.14677778663E+04  0.16366783575E+04  0.40000000000E+03 0.  1.
   -9000007    1    1    2    0  503  0.23036432490E+03  0.55792155281E+03 -0.12314714531E+03  0.73451303642E+03  0.40000000000E+03 0. -1.
<mgrwt>
<rscale>  2 0.72411614E+03</rscale>
<asrwt>0</asrwt>
<pdfrwt beam="1">  1       21 0.28583247E+00 0.72411614E+03</pdfrwt>
<pdfrwt beam="2">  1       21 0.78966206E-01 0.72411614E+03</pdfrwt>
<totfact> 0.38654057E+01</totfact>
</mgrwt>
</event>
<event>
 4    1  0.4689683E-002  0.4137039E+03  0.7818608E-02  0.1039135E+00
         21   -1    0    0  501  502  0.00000000000E+00  0.00000000000E+00  0.44527286024E+03  0.44527286024E+03  0.00000000000E+00 0.  1.
         21   -1    0    0  502  503 -0.00000000000E+00 -0.00000000000E+00 -0.61814591220E+03  0.61814591220E+03  0.00000000000E+00 0. -1.
    9000007    1    1    2  501    0  0.74256905757E+02  0.75078863450E+02 -0.41341999518E+03  0.58486495553E+03  0.40000000000E+03 0. -1.
   -9000007    1    1    2    0  503 -0.74256905757E+02 -0.75078863450E+02  0.24054694322E+03  0.47855381691E+03  0.40000000000E+03 0.  1.
<mgrwt>
<rscale>  2 0.41370391E+03</rscale>
<asrwt>0</asrwt>
<pdfrwt beam="1">  1       21 0.68503517E-01 0.41370391E+03</pdfrwt>
<pdfrwt beam="2">  1       21 0.95099371E-01 0.41370391E+03</pdfrwt>
<totfact> 0.15638596E+03</totfact>
</mgrwt>
</event>
<event>
 4    1  0.4689683E-002  0.4862225E+03  0.7818608E-02  0.1017439E+00
         21   -1    0    0  501  502  0.00000000000E+00  0.00000000000E+00  0.15093398336E+03  0.15093398336E+03  0.00000000000E+00 0.  1.
         21   -1    0    0  502  503 -0.00000000000E+00 -0.00000000000E+00 -0.15993942217E+04  0.15993942217E+04  0.00000000000E+00 0.  1.
    9000007    1    1    2  501    0 -0.44930147113E+01 -0.27639128992E+03 -0.59839699797E+03  0.77103261896E+03  0.40000000000E+03 0.  1.
   -9000007    1    1    2    0  503  0.44930147113E+01  0.27639128992E+03 -0.85006324039E+03  0.97929558612E+03  0.40000000000E+03 0.  1.
<mgrwt>
<rscale>  2 0.48622251E+03</rscale>
<asrwt>0</asrwt>
<pdfrwt beam="1">  1       21 0.23220613E-01 0.48622251E+03</pdfrwt>
<pdfrwt beam="2">  1       21 0.24606065E+00 0.48622251E+03</pdfrwt>
<totfact> 0.98840641E+02</totfact>
</mgrwt>
</event>
<event>
 4    1  0.4689683E-002  0.4624183E+03  0.7818608E-02  0.1024082E+00
         21   -1    0    0  503  502  0.00000000000E+00  0.00000000000E+00  0.12234252731E+04  0.12234252731E+04  0.00000000000E+00 0.  1.
         21   -1    0    0  501  503 -0.00000000000E+00 -0.00000000000E+00 -0.12478658446E+04  0.12478658446E+04  0.00000000000E+00 0.  1.
    9000007    1    1    2  501    0  0.20870460521E+03 -0.10135604871E+03 -0.11580686047E+04  0.12469777680E+04  0.40000000000E+03 0.  1.
   -9000007    1    1    2    0  502 -0.20870460521E+03  0.10135604871E+03  0.11336280332E+04  0.12243133498E+04  0.40000000000E+03 0.  1.
<mgrwt>
<rscale>  2 0.46241827E+03</rscale>
<asrwt>0</asrwt>
<pdfrwt beam="1">  1       21 0.18821927E+00 0.46241827E+03</pdfrwt>
<pdfrwt beam="2">  1       21 0.19197936E+00 0.46241827E+03</pdfrwt>
<totfact> 0.18254076E+01</totfact>
</mgrwt>
</event>
<event>
 4    1  0.4689683E-002  0.4401057E+03  0.7818608E-02  0.1030714E+00
         21   -1    0    0  501  502  0.00000000000E+00  0.00000000000E+00  0.11045118963E+04  0.11045118963E+04  0.00000000000E+00 0. -1.
         21   -1    0    0  502  503 -0.00000000000E+00 -0.00000000000E+00 -0.19513802952E+03  0.19513802952E+03  0.00000000000E+00 0. -1.
    9000007    1    1    2  501    0 -0.25426306309E+02 -0.18178705654E+03  0.66153860503E+03  0.79456048035E+03  0.40000000000E+03 0. -1.
   -9000007    1    1    2    0  503  0.25426306309E+02  0.18178705654E+03  0.24783526177E+03  0.50508944550E+03  0.40000000000E+03 0. -1.
<mgrwt>
<rscale>  2 0.44010570E+03</rscale>
<asrwt>0</asrwt>
<pdfrwt beam="1">  1       21 0.16992490E+00 0.44010570E+03</pdfrwt>
<pdfrwt beam="2">  1       21 0.30021236E-01 0.44010570E+03</pdfrwt>
<totfact> 0.19445072E+03</totfact>
</mgrwt>
</event>
<event>
 4    1  0.4689683E-002  0.5398928E+03  0.7818608E-02  0.1003861E+00
         21   -1    0    0  501  502  0.00000000000E+00  0.00000000000E+00  0.43805549409E+03  0.43805549409E+03  0.00000000000E+00 0.  1.
         21   -1    0    0  502  503 -0.00000000000E+00 -0.00000000000E+00 -0.67011277581E+03  0.67011277581E+03  0.00000000000E+00 0.  1.
    9000007    1    1    2  501    0 -0.15736545569E+03  0.32668077255E+03 -0.16247165727E+03  0.56380958950E+03  0.40000000000E+03 0.  1.
   -9000007    1    1    2    0  503  0.15736545569E+03 -0.32668077255E+03 -0.69585624448E+02  0.54435868040E+03  0.40000000000E+03 0.  1.
<mgrwt>
<rscale>  2 0.53989278E+03</rscale>
<asrwt>0</asrwt>
<pdfrwt beam="1">  1       21 0.67393153E-01 0.53989278E+03</pdfrwt>
<pdfrwt beam="2">  1       21 0.10309427E+00 0.53989278E+03</pdfrwt>
<totfact> 0.12723151E+03</totfact>
</mgrwt>
</event>
<event>
 4    1  0.4689683E-002  0.4121154E+03  0.7818608E-02  0.1039663E+00
         21   -1    0    0  503  502  0.00000000000E+00  0.00000000000E+00  0.38042877122E+03  0.38042877122E+03  0.00000000000E+00 0.  1.
         21   -1    0    0  501  503 -0.00000000000E+00 -0.00000000000E+00 -0.45028360349E+03  0.45028360349E+03  0.00000000000E+00 0.  1.
    9000007    1    1    2  501    0  0.71393472206E+02  0.68862983939E+02  0.34406576461E+01  0.41212980547E+03  0.40000000000E+03 0. -1.
   -9000007    1    1    2    0  502 -0.71393472206E+02 -0.68862983939E+02 -0.73295489911E+02  0.41858256924E+03  0.40000000000E+03 0. -1.
<mgrwt>
<rscale>  2 0.41211544E+03</rscale>
<asrwt>0</asrwt>
<pdfrwt beam="1">  1       21 0.58527503E-01 0.41211544E+03</pdfrwt>
<pdfrwt beam="2">  1       21 0.69274401E-01 0.41211544E+03</pdfrwt>
<totfact> 0.46115037E+03</totfact>
</mgrwt>
</event>
<event>
 4    1  0.4689683E-002  0.4228836E+03  0.7818608E-02  0.1036132E+00
         21   -1    0    0  503  502  0.00000000000E+00  0.00000000000E+00  0.10804795929E+04  0.10804795929E+04  0.00000000000E+00 0.  1.
         21   -1    0    0  501  503 -0.00000000000E+00 -0.00000000000E+00 -0.43437665171E+03  0.43437665171E+03  0.00000000000E+00 0.  1.
    9000007    1    1    2  501    0 -0.32499879819E+02  0.13332032326E+03 -0.27285263764E+03  0.50326843001E+03  0.40000000000E+03 0.  1.
   -9000007    1    1    2    0  502  0.32499879819E+02 -0.13332032326E+03  0.91895557883E+03  0.10115878146E+04  0.40000000000E+03 0.  1.
<mgrwt>
<rscale>  2 0.42288361E+03</rscale>
<asrwt>0</asrwt>
<pdfrwt beam="1">  1       21 0.16622763E+00 0.42288361E+03</pdfrwt>
<pdfrwt beam="2">  1       21 0.66827177E-01 0.42288361E+03</pdfrwt>
<totfact> 0.38967911E+02</totfact>
</mgrwt>
</event>
<event>
 4    1  0.4689683E-002  0.4834489E+03  0.7818608E-02  0.1018192E+00
         21   -1    0    0  503  502  0.00000000000E+00  0.00000000000E+00  0.10052639452E+04  0.10052639452E+04  0.00000000000E+00 0. -1.
         21   -1    0    0  501  503 -0.00000000000E+00 -0.00000000000E+00 -0.23451961883E+03  0.23451961883E+03  0.00000000000E+00 0. -1.
    9000007    1    1    2  501    0  0.26435041632E+03  0.61981178615E+02  0.32783159581E+03  0.58412016257E+03  0.40000000000E+03 0. -1.
   -9000007    1    1    2    0  502 -0.26435041632E+03 -0.61981178615E+02  0.44291273052E+03  0.65566340142E+03  0.40000000000E+03 0. -1.
<mgrwt>
<rscale>  2 0.48344887E+03</rscale>
<asrwt>0</asrwt>
<pdfrwt beam="1">  1       21 0.15465599E+00 0.48344887E+03</pdfrwt>
<pdfrwt beam="2">  1       21 0.36079942E-01 0.48344887E+03</pdfrwt>
<totfact> 0.17195083E+03</totfact>
</mgrwt>
</event>
<event>
 4    1  0.4689683E-002  0.5037481E+03  0.7818608E-02  0.1012805E+00
         21   -1    0    0  501  502  0.00000000000E+00  0.00000000000E+00  0.15908214591E+04  0.15908214591E+04  0.00000000000E+00 0. -1.
         21   -1    0    0  502  503 -0.00000000000E+00 -0.00000000000E+00 -0.28472152087E+03  0.28472152087E+03  0.00000000000E+00 0. -1.
    9000007    1    1    2  501    0 -0.68116398171E+02  0.29853366191E+03  0.12749174369E+04  0.13708306466E+04  0.40000000000E+03 0. -1.
   -9000007    1    1    2    0  503  0.68116398171E+02 -0.29853366191E+03  0.31182501354E+02  0.50471233330E+03  0.40000000000E+03 0. -1.
<mgrwt>
<rscale>  2 0.50374814E+03</rscale>
<asrwt>0</asrwt>
<pdfrwt beam="1">  1       21 0.24474176E+00 0.50374814E+03</pdfrwt>
<pdfrwt beam="2">  1       21 0.43803312E-01 0.50374814E+03</pdfrwt>
<totfact> 0.27936191E+02</totfact>
</mgrwt>
</event>
<event>
 4    1  0.4689683E-002  0.6321335E+03  0.7818608E-02  0.9840894E-01
         21   -1    0    0  501  502  0.00000000000E+00  0.00000000000E+00  0.48588852914E+03  0.48588852914E+03  0.00000000000E+00 0. -1.
         21   -1    0    0  502  503 -0.00000000000E+00 -0.00000000000E+00 -0.88045906440E+03  0.88045906440E+03  0.00000000000E+00 0. -1.
    9000007    1    1    2  501    0  0.27592847157E+03  0.40429715889E+03 -0.21845872512E+02  0.63251083489E+03  0.40000000000E+03 0. -1.
   -9000007    1    1    2    0  503 -0.27592847157E+03 -0.40429715889E+03 -0.37272466275E+03  0.73383675864E+03  0.40000000000E+03 0. -1.
<mgrwt>
<rscale>  2 0.63213346E+03</rscale>
<asrwt>0</asrwt>
<pdfrwt beam="1">  1       21 0.74752082E-01 0.63213346E+03</pdfrwt>
<pdfrwt beam="2">  1       21 0.13545524E+00 0.63213346E+03</pdfrwt>
<totfact> 0.48656258E+02</totfact>
</mgrwt>
</event>
<event>
 4    1  0.4689683E-002  0.6256322E+03  0.7818608E-02  0.9853610E-01
         21   -1    0    0  501  502  0.00000000000E+00  0.00000000000E+00  0.11397234024E+04  0.11397234024E+04  0.00000000000E+00 0.  1.
         21   -1    0    0  502  503 -0.00000000000E+00 -0.00000000000E+00 -0.44048093154E+03  0.44048093154E+03  0.00000000000E+00 0.  1.
    9000007    1    1    2  501    0  0.41889877160E+03 -0.23651513147E+03  0.72048875915E+03  0.95421152808E+03  0.40000000000E+03 0.  1.
   -9000007    1    1    2    0  503 -0.41889877160E+03  0.23651513147E+03 -0.21246288258E+02  0.62599280589E+03  0.40000000000E+03 0.  1.
<mgrwt>
<rscale>  2 0.62563215E+03</rscale>
<asrwt>0</asrwt>
<pdfrwt beam="1">  1       21 0.17534206E+00 0.62563215E+03</pdfrwt>
<pdfrwt beam="2">  1       21 0.67766298E-01 0.62563215E+03</pdfrwt>
<totfact> 0.29741120E+02</totfact>
</mgrwt>
</event>
<event>
 4    1  0.4689683E-002  0.5711581E+03  0.7818608E-02  0.9967119E-01
         21   -1    0    0  503  502  0.00000000000E+00  0.00000000000E+00  0.97003299729E+03  0.97003299729E+03  0.00000000000E+00 0.  1.
         21   -1    0    0  501  503 -0.00000000000E+00 -0.00000000000E+00 -0.33638612014E+03  0.33638612014E+03  0.00000000000E+00 0.  1.
    9000007    1    1    2  501    0 -0.39970771492E+03 -0.80344668919E+02  0.32731094546E+03  0.65829626932E+03  0.40000000000E+03 0.  1.
   -9000007    1    1    2    0  502  0.39970771492E+03  0.80344668919E+02  0.30633593170E+03  0.64812284811E+03  0.40000000000E+03 0.  1.
<mgrwt>
<rscale>  2 0.57115805E+03</rscale>
<asrwt>0</asrwt>
<pdfrwt beam="1">  1       21 0.14923584E+00 0.57115805E+03</pdfrwt>
<pdfrwt beam="2">  1       21 0.51751711E-01 0.57115805E+03</pdfrwt>
<totfact> 0.86474397E+02</totfact>
</mgrwt>
</event>
<event>
 4    1  0.4689683E-002  0.4468026E+03  0.7818608E-02  0.1028680E+00
         21   -1    0    0  503  502  0.00000000000E+00  0.00000000000E+00  0.30755885526E+03  0.30755885526E+03  0.00000000000E+00 0.  1.
         21   -1    0    0  501  503 -0.00000000000E+00 -0.00000000000E+00 -0.10457734555E+04  0.10457734555E+04  0.00000000000E+00 0. -1.
    9000007    1    1    2  501    0 -0.13509432374E+03 -0.14622611390E+03 -0.78586070782E+03  0.90399646282E+03  0.40000000000E+03 0. -1.
   -9000007    1    1    2    0  502  0.13509432374E+03  0.14622611390E+03  0.47646107571E+02  0.44933584796E+03  0.40000000000E+03 0.  1.
<mgrwt>
<rscale>  2 0.44680259E+03</rscale>
<asrwt>0</asrwt>
<pdfrwt beam="1">  1       21 0.47316748E-01 0.44680259E+03</pdfrwt>
<pdfrwt beam="2">  1       21 0.16088822E+00 0.44680259E+03</pdfrwt>
<totfact> 0.89214912E+02</totfact>
</mgrwt>
</event>
<event>
 4    1  0.4689683E-002  0.4099659E+03  0.7818608E-02  0.1040382E+00
         21   -1    0    0  501  502  0.00000000000E+00  0.00000000000E+00  0.38740593886E+03  0.38740593886E+03  0.00000000000E+00 0.  1.
         21   -1    0    0  502  503 -0.00000000000E+00 -0.00000000000E+00 -0.56664859537E+03  0.56664859537E+03  0.00000000000E+00 0. -1.
    9000007    1    1    2  501    0  0.39129452717E+02 -0.80876014275E+02  0.14131912590E+03  0.43363941138E+03  0.40000000000E+03 0.  1.
   -9000007    1    1    2    0  503 -0.39129452717E+02  0.80876014275E+02 -0.32056178241E+03  0.52041512285E+03  0.40000000000E+03 0. -1.
<mgrwt>
<rscale>  2 0.40996591E+03</rscale>
<asrwt>0</asrwt>
<pdfrwt beam="1">  1       21 0.59600914E-01 0.40996591E+03</pdfrwt>
<pdfrwt beam="2">  1       21 0.87176707E-01 0.40996591E+03</pdfrwt>
<totfact> 0.26185719E+03</totfact>
</mgrwt>
</event>
<event>
 4    1  0.4689683E-002  0.5491722E+03  0.7818608E-02  0.1001686E+00
         21   -1    0    0  501  502  0.00000000000E+00  0.00000000000E+00  0.17179501137E+04  0.17179501137E+04  0.00000000000E+00 0. -1.
         21   -1    0    0  502  503 -0.00000000000E+00 -0.00000000000E+00 -0.17588887313E+03  0.17588887313E+03  0.00000000000E+00 0. -1.
    9000007    1    1    2  501    0 -0.28462437891E+03  0.24612825212E+03  0.81245071922E+03  0.98064587121E+03  0.40000000000E+03 0. -1.
   -9000007    1    1    2    0  503  0.28462437891E+03 -0.24612825212E+03  0.72961052135E+03  0.91319311563E+03  0.40000000000E+03 0. -1.
<mgrwt>
<rscale>  2 0.54917224E+03</rscale>
<asrwt>0</asrwt>
<pdfrwt beam="1">  1       21 0.26430001E+00 0.54917224E+03</pdfrwt>
<pdfrwt beam="2">  1       21 0.27059828E-01 0.54917224E+03</pdfrwt>
<totfact> 0.55072372E+02</totfact>
</mgrwt>
</event>
<event>
 4    1  0.4689683E-002  0.4005041E+03  0.7818608E-02  0.1043605E+00
         21   -1    0    0  503  502  0.00000000000E+00  0.00000000000E+00  0.13865588856E+03  0.13865588856E+03  0.00000000000E+00 0. -1.
         21   -1    0    0  501  503 -0.00000000000E+00 -0.00000000000E+00 -0.20340386074E+04  0.20340386074E+04  0.00000000000E+00 0. -1.
    9000007    1    1    2  501    0 -0.13979372257E+02 -0.14425067370E+02 -0.16610970387E+04  0.17086974212E+04  0.40000000000E+03 0. -1.
   -9000007    1    1    2    0  502  0.13979372257E+02  0.14425067370E+02 -0.23428568013E+03  0.46399707470E+03  0.40000000000E+03 0. -1.
<mgrwt>
<rscale>  2 0.40050406E+03</rscale>
<asrwt>0</asrwt>
<pdfrwt beam="1">  1       21 0.21331675E-01 0.40050406E+03</pdfrwt>
<pdfrwt beam="2">  1       21 0.31292902E+00 0.40050406E+03</pdfrwt>
<totfact> 0.48081350E+02</totfact>
</mgrwt>
</event>
<event>
 4    1  0.4689683E-002  0.4281173E+03  0.7818608E-02  0.1034456E+00
         21   -1    0    0  501  502  0.00000000000E+00  0.00000000000E+00  0.64213150319E+03  0.64213150319E+03  0.00000000000E+00 0. -1.
         21   -1    0    0  502  503 -0.00000000000E+00 -0.00000000000E+00 -0.29688008655E+03  0.29688008655E+03  0.00000000000E+00 0. -1.
    9000007    1    1    2  501    0  0.73488533325E+02  0.13373068289E+03  0.80426061843E+02  0.43560625742E+03  0.40000000000E+03 0. -1.
   -9000007    1    1    2    0  503 -0.73488533325E+02 -0.13373068289E+03  0.26482535480E+03  0.50340533233E+03  0.40000000000E+03 0. -1.
<mgrwt>
<rscale>  2 0.42811734E+03</rscale>
<asrwt>0</asrwt>
<pdfrwt beam="1">  1       21 0.98789462E-01 0.42811734E+03</pdfrwt>
<pdfrwt beam="2">  1       21 0.45673860E-01 0.42811734E+03</pdfrwt>
<totfact> 0.34117889E+03</totfact>
</mgrwt>
</event>
<event>
 4    1  0.4689683E-002  0.4119771E+03  0.7818608E-02  0.1039710E+00
         21   -1    0    0  501  502  0.00000000000E+00  0.00000000000E+00  0.28598474392E+03  0.28598474392E+03  0.00000000000E+00 0.  1.
         21   -1    0    0  502  503 -0.00000000000E+00 -0.00000000000E+00 -0.59456266087E+03  0.59456266087E+03  0.00000000000E+00 0.  1.
    9000007    1    1    2  501    0 -0.23582453372E+02  0.95754710689E+02 -0.17311073328E+03  0.44686958131E+03  0.40000000000E+03 0. -1.
   -9000007    1    1    2    0  503  0.23582453372E+02 -0.95754710689E+02 -0.13546718367E+03  0.43367782348E+03  0.40000000000E+03 0. -1.
<mgrwt>
<rscale>  2 0.41197706E+03</rscale>
<asrwt>0</asrwt>
<pdfrwt beam="1">  1       21 0.43997653E-01 0.41197706E+03</pdfrwt>
<pdfrwt beam="2">  1       21 0.91471178E-01 0.41197706E+03</pdfrwt>
<totfact> 0.44616395E+03</totfact>
</mgrwt>
</event>
<event>
 4    1  0.4689683E-002  0.4744092E+03  0.7818608E-02  0.1020683E+00
         21   -1    0    0  503  502  0.00000000000E+00  0.00000000000E+00  0.59633407549E+03  0.59633407549E+03  0.00000000000E+00 0.  1.
         21   -1    0    0  501  503 -0.00000000000E+00 -0.00000000000E+00 -0.38932367329E+03  0.38932367329E+03  0.00000000000E+00 0.  1.
    9000007    1    1    2  501    0  0.56913966819E+02  0.24864613211E+03  0.17304065853E+02  0.47472468793E+03  0.40000000000E+03 0.  1.
   -9000007    1    1    2    0  502 -0.56913966819E+02 -0.24864613211E+03  0.18970633635E+03  0.51093306086E+03  0.40000000000E+03 0.  1.
<mgrwt>
<rscale>  2 0.47440921E+03</rscale>
<asrwt>0</asrwt>
<pdfrwt beam="1">  1       21 0.91743704E-01 0.47440921E+03</pdfrwt>
<pdfrwt beam="2">  1       21 0.59895950E-01 0.47440921E+03</pdfrwt>
<totfact> 0.22413365E+03</totfact>
</mgrwt>
</event>
<event>
 4    1  0.4689683E-002  0.4342147E+03  0.7818608E-02  0.1032537E+00
         21   -1    0    0  501  502  0.00000000000E+00  0.00000000000E+00  0.94043483354E+02  0.94043483354E+02  0.00000000000E+00 0.  1.
         21   -1    0    0  502  503 -0.00000000000E+00 -0.00000000000E+00 -0.24851467476E+04  0.24851467476E+04  0.00000000000E+00 0.  1.
    9000007    1    1    2  501    0 -0.11486579826E+03 -0.12388807571E+03 -0.62861384105E+03  0.76400115712E+03  0.40000000000E+03 0.  1.
   -9000007    1    1    2    0  503  0.11486579826E+03  0.12388807571E+03 -0.17624894232E+04  0.18151890738E+04  0.40000000000E+03 0.  1.
<mgrwt>
<rscale>  2 0.43421470E+03</rscale>
<asrwt>0</asrwt>
<pdfrwt beam="1">  1       21 0.14468232E-01 0.43421470E+03</pdfrwt>
<pdfrwt beam="2">  1       21 0.38233018E+00 0.43421470E+03</pdfrwt>
<totfact> 0.36665248E+02</totfact>
</mgrwt>
</event>
<event>
 4    1  0.4689683E-002  0.4207915E+03  0.7818608E-02  0.1036809E+00
         21   -1    0    0  503  502  0.00000000000E+00  0.00000000000E+00  0.25781116055E+03  0.25781116055E+03  0.00000000000E+00 0. -1.
         21   -1    0    0  501  503 -0.00000000000E+00 -0.00000000000E+00 -0.12681483964E+04  0.12681483964E+04  0.00000000000E+00 0. -1.
    9000007    1    1    2  501    0 -0.38205583165E+02 -0.12492335640E+03 -0.10217575062E+04  0.11050130828E+04  0.40000000000E+03 0. -1.
   -9000007    1    1    2    0  502  0.38205583165E+02  0.12492335640E+03  0.11420270365E+02  0.42094647419E+03  0.40000000000E+03 0. -1.
<mgrwt>
<rscale>  2 0.42079153E+03</rscale>
<asrwt>0</asrwt>
<pdfrwt beam="1">  1       21 0.39663256E-01 0.42079153E+03</pdfrwt>
<pdfrwt beam="2">  1       21 0.19509975E+00 0.42079153E+03</pdfrwt>
<totfact> 0.74560142E+02</totfact>
</mgrwt>
</event>
<event>
 4    1  0.4689683E-002  0.4853370E+03  0.7818608E-02  0.1017679E+00
         21   -1    0    0  503  502  0.00000000000E+00  0.00000000000E+00  0.35049253405E+03  0.35049253405E+03  0.00000000000E+00 0. -1.
         21   -1    0    0  501  503 -0.00000000000E+00 -0.00000000000E+00 -0.11160184259E+04  0.11160184259E+04  0.00000000000E+00 0.  1.
    9000007    1    1    2  501    0 -0.25012930664E+03 -0.11396179558E+03 -0.84524071164E+03  0.97467113505E+03  0.40000000000E+03 0.  1.
   -9000007    1    1    2    0  502  0.25012930664E+03  0.11396179558E+03  0.79714819768E+02  0.49183982493E+03  0.40000000000E+03 0. -1.
<mgrwt>
<rscale>  2 0.48533696E+03</rscale>
<asrwt>0</asrwt>
<pdfrwt beam="1">  1       21 0.53921928E-01 0.48533696E+03</pdfrwt>
<pdfrwt beam="2">  1       21 0.17169514E+00 0.48533696E+03</pdfrwt>
<totfact> 0.55234576E+02</totfact>
</mgrwt>
</event>
<event>
 4    1  0.4689683E-002  0.4708294E+03  0.7818608E-02  0.1021686E+00
         21   -1    0    0  503  502  0.00000000000E+00  0.00000000000E+00  0.60517172011E+03  0.60517172011E+03  0.00000000000E+00 0.  1.
         21   -1    0    0  501  503 -0.00000000000E+00 -0.00000000000E+00 -0.62068818397E+03  0.62068818397E+03  0.00000000000E+00 0.  1.
    9000007    1    1    2  501    0  0.26517222718E+02 -0.24693550882E+03 -0.40014489740E+03  0.61789663175E+03  0.40000000000E+03 0. -1.
   -9000007    1    1    2    0  502 -0.26517222718E+02  0.24693550882E+03  0.38462843353E+03  0.60796327233E+03  0.40000000000E+03 0. -1.
<mgrwt>
<rscale>  2 0.47082938E+03</rscale>
<asrwt>0</asrwt>
<pdfrwt beam="1">  1       21 0.93103342E-01 0.47082938E+03</pdfrwt>
<pdfrwt beam="2">  1       21 0.95490490E-01 0.47082938E+03</pdfrwt>
<totfact> 0.74429388E+02</totfact>
</mgrwt>
</event>
<event>
 4    1  0.4689683E-002  0.5166865E+03  0.7818608E-02  0.1009513E+00
         21   -1    0    0  503  502  0.00000000000E+00  0.00000000000E+00  0.22829894942E+03  0.22829894942E+03  0.00000000000E+00 0.  1.
         21   -1    0    0  501  503 -0.00000000000E+00 -0.00000000000E+00 -0.18775575399E+04  0.18775575399E+04  0.00000000000E+00 0.  1.
    9000007    1    1    2  501    0 -0.31266488568E+03  0.95945642098E+02 -0.17796677136E+03  0.54647696080E+03  0.40000000000E+03 0.  1.
   -9000007    1    1    2    0  502  0.31266488568E+03 -0.95945642098E+02 -0.14712918191E+04  0.15593795285E+04  0.40000000000E+03 0.  1.
<mgrwt>
<rscale>  2 0.51668646E+03</rscale>
<asrwt>0</asrwt>
<pdfrwt beam="1">  1       21 0.35122916E-01 0.51668646E+03</pdfrwt>
<pdfrwt beam="2">  1       21 0.28885500E+00 0.51668646E+03</pdfrwt>
<totfact> 0.23523506E+02</totfact>
</mgrwt>
</event>
<event>
 4    1  0.4689683E-002  0.4064889E+03  0.7818608E-02  0.1041556E+00
         21   -1    0    0  501  502  0.00000000000E+00  0.00000000000E+00  0.45832146238E+03  0.45832146238E+03  0.00000000000E+00 0.  1.
         21   -1    0    0  502  503 -0.00000000000E+00 -0.00000000000E+00 -0.89029063317E+03  0.89029063317E+03  0.00000000000E+00 0.  1.
    9000007    1    1    2  501    0  0.28180476439E+02  0.66626521888E+02  0.30417406714E+03  0.50769586938E+03  0.40000000000E+03 0.  1.
   -9000007    1    1    2    0  503 -0.28180476439E+02 -0.66626521888E+02 -0.73614323793E+03  0.84091622616E+03  0.40000000000E+03 0.  1.
<mgrwt>
<rscale>  2 0.40648891E+03</rscale>
<asrwt>0</asrwt>
<pdfrwt beam="1">  1       21 0.70510995E-01 0.40648891E+03</pdfrwt>
<pdfrwt beam="2">  1       21 0.13696779E+00 0.40648891E+03</pdfrwt>
<totfact> 0.59000944E+02</totfact>
</mgrwt>
</event>
<event>
 4    1  0.4689683E-002  0.4978135E+03  0.7818608E-02  0.1014351E+00
         21   -1    0    0  503  502  0.00000000000E+00  0.00000000000E+00  0.18035028722E+04  0.18035028722E+04  0.00000000000E+00 0. -1.
         21   -1    0    0  501  503 -0.00000000000E+00 -0.00000000000E+00 -0.22413182571E+03  0.22413182571E+03  0.00000000000E+00 0. -1.
    9000007    1    1    2  501    0  0.10251769178E+03  0.27804387608E+03  0.15905697665E+03  0.52260634896E+03  0.40000000000E+03 0. -1.
   -9000007    1    1    2    0  502 -0.10251769178E+03 -0.27804387608E+03  0.14203140699E+04  0.15050283490E+04  0.40000000000E+03 0. -1.
<mgrwt>
<rscale>  2 0.49781349E+03</rscale>
<asrwt>0</asrwt>
<pdfrwt beam="1">  1       21 0.27746197E+00 0.49781349E+03</pdfrwt>
<pdfrwt beam="2">  1       21 0.34481820E-01 0.49781349E+03</pdfrwt>
<totfact> 0.28897236E+02</totfact>
</mgrwt>
</event>
<event>
 4    1  0.4689683E-002  0.4626785E+03  0.7818608E-02  0.1024007E+00
         21   -1    0    0  503  502  0.00000000000E+00  0.00000000000E+00  0.23359889343E+03  0.23359889343E+03  0.00000000000E+00 0.  1.
         21   -1    0    0  501  503 -0.00000000000E+00 -0.00000000000E+00 -0.95647741596E+03  0.95647741596E+03  0.00000000000E+00 0.  1.
    9000007    1    1    2  501    0  0.97656034935E+02 -0.21103251971E+03 -0.48323296712E+03  0.66901833012E+03  0.40000000000E+03 0.  1.
   -9000007    1    1    2    0  502 -0.97656034935E+02  0.21103251971E+03 -0.23964555541E+03  0.52105797927E+03  0.40000000000E+03 0.  1.
<mgrwt>
<rscale>  2 0.46267853E+03</rscale>
<asrwt>0</asrwt>
<pdfrwt beam="1">  1       21 0.35938292E-01 0.46267853E+03</pdfrwt>
<pdfrwt beam="2">  1       21 0.14715037E+00 0.46267853E+03</pdfrwt>
<totfact> 0.20007505E+03</totfact>
</mgrwt>
</event>
<event>
 4    1  0.4689683E-002  0.4194380E+03  0.7818608E-02  0.1037249E+00
         21   -1    0    0  501  502  0.00000000000E+00  0.00000000000E+00  0.11061017222E+04  0.11061017222E+04  0.00000000000E+00 0. -1.
         21   -1    0    0  502  503 -0.00000000000E+00 -0.00000000000E+00 -0.17900701488E+03  0.17900701488E+03  0.00000000000E+00 0. -1.
    9000007    1    1    2  501    0 -0.13071970936E+02 -0.12552832654E+03  0.24901365954E+03  0.48778687951E+03  0.40000000000E+03 0. -1.
   -9000007    1    1    2    0  503  0.13071970936E+02  0.12552832654E+03  0.67808104776E+03  0.79732185755E+03  0.40000000000E+03 0. -1.
<mgrwt>
<rscale>  2 0.41943800E+03</rscale>
<asrwt>0</asrwt>
<pdfrwt beam="1">  1       21 0.17016949E+00 0.41943800E+03</pdfrwt>
<pdfrwt beam="2">  1       21 0.27539542E-01 0.41943800E+03</pdfrwt>
<totfact> 0.23165915E+03</totfact>
</mgrwt>
</event>
<event>
 4    1  0.4689683E-002  0.7132117E+03  0.7818608E-02  0.9694902E-01
         21   -1    0    0  501  502  0.00000000000E+00  0.00000000000E+00  0.11173902926E+04  0.11173902926E+04  0.00000000000E+00 0. -1.
         21   -1    0    0  502  503 -0.00000000000E+00 -0.00000000000E+00 -0.45524773677E+03  0.45524773677E+03  0.00000000000E+00 0. -1.
    9000007    1    1    2  501    0 -0.58288018728E+03 -0.94453954979E+02  0.33581829383E+03  0.78831769536E+03  0.40000000000E+03 0. -1.
   -9000007    1    1    2    0  503  0.58288018728E+03  0.94453954979E+02  0.32632426195E+03  0.78432033397E+03  0.40000000000E+03 0. -1.
<mgrwt>
<rscale>  2 0.71321165E+03</rscale>
<asrwt>0</asrwt>
<pdfrwt beam="1">  1       21 0.17190620E+00 0.71321165E+03</pdfrwt>
<pdfrwt beam="2">  1       21 0.70038114E-01 0.71321165E+03</pdfrwt>
<totfact> 0.28415795E+02</totfact>
</mgrwt>
</event>
<event>
 4    1  0.4689683E-002  0.4375855E+03  0.7818608E-02  0.1031490E+00
         21   -1    0    0  501  502  0.00000000000E+00  0.00000000000E+00  0.56126997015E+03  0.56126997015E+03  0.00000000000E+00 0.  1.
         21   -1    0    0  502  503 -0.00000000000E+00 -0.00000000000E+00 -0.34203364472E+03  0.34203364472E+03  0.00000000000E+00 0.  1.
    9000007    1    1    2  501    0 -0.10355223218E+02  0.17712660222E+03  0.86749959189E+02  0.44610157955E+03  0.40000000000E+03 0.  1.
   -9000007    1    1    2    0  503  0.10355223218E+02 -0.17712660222E+03  0.13248636624E+03  0.45720203532E+03  0.40000000000E+03 0.  1.
<mgrwt>
<rscale>  2 0.43758549E+03</rscale>
<asrwt>0</asrwt>
<pdfrwt beam="1">  1       21 0.86349227E-01 0.43758549E+03</pdfrwt>
<pdfrwt beam="2">  1       21 0.52620560E-01 0.43758549E+03</pdfrwt>
<totfact> 0.34696515E+03</totfact>
</mgrwt>
</event>
<event>
 4    1  0.4689683E-002  0.4535095E+03  0.7818608E-02  0.1026681E+00
         21   -1    0    0  501  502  0.00000000000E+00  0.00000000000E+00  0.46289380542E+03  0.46289380542E+03  0.00000000000E+00 0. -1.
         21   -1    0    0  502  503 -0.00000000000E+00 -0.00000000000E+00 -0.45443547951E+03  0.45443547951E+03  0.00000000000E+00 0. -1.
    9000007    1    1    2  501    0  0.81873823704E+02  0.19740209702E+03  0.72675169515E+02  0.45929575567E+03  0.40000000000E+03 0. -1.
   -9000007    1    1    2    0  503 -0.81873823704E+02 -0.19740209702E+03 -0.64216843606E+02  0.45803352925E+03  0.40000000000E+03 0. -1.
<mgrwt>
<rscale>  2 0.45350955E+03</rscale>
<asrwt>0</asrwt>
<pdfrwt beam="1">  1       21 0.71214431E-01 0.45350955E+03</pdfrwt>
<pdfrwt beam="2">  1       21 0.69913151E-01 0.45350955E+03</pdfrwt>
<totfact> 0.28805425E+03</totfact>
</mgrwt>
</event>
<event>
 4    1  0.4689683E-002  0.4460884E+03  0.7818608E-02  0.1028895E+00
         21   -1    0    0  503  502  0.00000000000E+00  0.00000000000E+00  0.69860551682E+03  0.69860551682E+03  0.00000000000E+00 0.  1.
         21   -1    0    0  501  503 -0.00000000000E+00 -0.00000000000E+00 -0.40545935105E+03  0.40545935105E+03  0.00000000000E+00 0.  1.
    9000007    1    1    2  501    0 -0.71209244576E+02 -0.18418497619E+03 -0.15451179861E+03  0.47208977735E+03  0.40000000000E+03 0.  1.
   -9000007    1    1    2    0  502  0.71209244576E+02  0.18418497619E+03  0.44765796437E+03  0.63197509052E+03  0.40000000000E+03 0.  1.
<mgrwt>
<rscale>  2 0.44608840E+03</rscale>
<asrwt>0</asrwt>
<pdfrwt beam="1">  1       21 0.10747777E+00 0.44608840E+03</pdfrwt>
<pdfrwt beam="2">  1       21 0.62378362E-01 0.44608840E+03</pdfrwt>
<totfact> 0.14108531E+03</totfact>
</mgrwt>
</event>
<event>
 4    1  0.4689683E-002  0.4049924E+03  0.7818608E-02  0.1042065E+00
         21   -1    0    0  501  502  0.00000000000E+00  0.00000000000E+00  0.61056435737E+03  0.61056435737E+03  0.00000000000E+00 0. -1.
         21   -1    0    0  502  503 -0.00000000000E+00 -0.00000000000E+00 -0.38111022114E+03  0.38111022114E+03  0.00000000000E+00 0. -1.
    9000007    1    1    2  501    0 -0.92571583865E+01  0.62714776388E+02  0.38409301237E+03  0.55816330972E+03  0.40000000000E+03 0. -1.
   -9000007    1    1    2    0  503  0.92571583865E+01 -0.62714776388E+02 -0.15463887614E+03  0.43351126879E+03  0.40000000000E+03 0. -1.
<mgrwt>
<rscale>  2 0.40499239E+03</rscale>
<asrwt>0</asrwt>
<pdfrwt beam="1">  1       21 0.93932978E-01 0.40499239E+03</pdfrwt>
<pdfrwt beam="2">  1       21 0.58632342E-01 0.40499239E+03</pdfrwt>
<totfact> 0.22792679E+03</totfact>
</mgrwt>
</event>
<event>
 4    1  0.4689683E-002  0.4292025E+03  0.7818608E-02  0.1034112E+00
         21   -1    0    0  503  502  0.00000000000E+00  0.00000000000E+00  0.59639074396E+03  0.59639074396E+03  0.00000000000E+00 0. -1.
         21   -1    0    0  501  503 -0.00000000000E+00 -0.00000000000E+00 -0.39797673948E+03  0.39797673948E+03  0.00000000000E+00 0.  1.
    9000007    1    1    2  501    0 -0.62396828920E+02  0.14255334269E+03 -0.13603358203E+03  0.45024432835E+03  0.40000000000E+03 0.  1.
   -9000007    1    1    2    0  502  0.62396828920E+02 -0.14255334269E+03  0.33444758652E+03  0.54412315508E+03  0.40000000000E+03 0. -1.
<mgrwt>
<rscale>  2 0.42920254E+03</rscale>
<asrwt>0</asrwt>
<pdfrwt beam="1">  1       21 0.91752421E-01 0.42920254E+03</pdfrwt>
<pdfrwt beam="2">  1       21 0.61227191E-01 0.42920254E+03</pdfrwt>
<totfact> 0.21712860E+03</totfact>
</mgrwt>
</event>
<event>
 4    1  0.4689683E-002  0.4299180E+03  0.7818608E-02  0.1033886E+00
         21   -1    0    0  503  502  0.00000000000E+00  0.00000000000E+00  0.10299913160E+04  0.10299913160E+04  0.00000000000E+00 0. -1.
         21   -1    0    0  501  503 -0.00000000000E+00 -0.00000000000E+00 -0.20710971435E+03  0.20710971435E+03  0.00000000000E+00 0. -1.
    9000007    1    1    2  501    0 -0.51182351161E+02  0.14902966961E+03  0.18538399859E+03  0.46818447478E+03  0.40000000000E+03 0. -1.
   -9000007    1    1    2    0  502  0.51182351161E+02 -0.14902966961E+03  0.63749760302E+03  0.76891655552E+03  0.40000000000E+03 0. -1.
<mgrwt>
<rscale>  2 0.42991799E+03</rscale>
<asrwt>0</asrwt>
<pdfrwt beam="1">  1       21 0.15846020E+00 0.42991799E+03</pdfrwt>
<pdfrwt beam="2">  1       21 0.31863034E-01 0.42991799E+03</pdfrwt>
<totfact> 0.21101283E+03</totfact>
</mgrwt>
</event>
<event>
 4    1  0.4689683E-002  0.4212232E+03  0.7818608E-02  0.1036669E+00
         21   -1    0    0  501  502  0.00000000000E+00  0.00000000000E+00  0.32931677159E+03  0.32931677159E+03  0.00000000000E+00 0. -1.
         21   -1    0    0  502  503 -0.00000000000E+00 -0.00000000000E+00 -0.71926887803E+03  0.71926887803E+03  0.00000000000E+00 0. -1.
    9000007    1    1    2  501    0  0.12015334100E+03 -0.54700508582E+02  0.67660196553E+02  0.42662263558E+03  0.40000000000E+03 0. -1.
   -9000007    1    1    2    0  503 -0.12015334100E+03  0.54700508582E+02 -0.45761230299E+03  0.62196301405E+03  0.40000000000E+03 0. -1.
<mgrwt>
<rscale>  2 0.42122318E+03</rscale>
<asrwt>0</asrwt>
<pdfrwt beam="1">  1       21 0.50664119E-01 0.42122318E+03</pdfrwt>
<pdfrwt beam="2">  1       21 0.11065675E+00 0.42122318E+03</pdfrwt>
<totfact> 0.20803531E+03</totfact>
</mgrwt>
</event>
<event>
 4    1  0.4689683E-002  0.6503513E+03  0.7818608E-02  0.9806120E-01
         21   -1    0    0  503  502  0.00000000000E+00  0.00000000000E+00  0.26843812383E+03  0.26843812383E+03  0.00000000000E+00 0.  1.
         21   -1    0    0  501  503 -0.00000000000E+00 -0.00000000000E+00 -0.20195044731E+04  0.20195044731E+04  0.00000000000E+00 0. -1.
    9000007    1    1    2  501    0 -0.39025589763E+03  0.33265160650E+03 -0.14118571168E+04  0.15544443622E+04  0.40000000000E+03 0. -1.
   -9000007    1    1    2    0  502  0.39025589763E+03 -0.33265160650E+03 -0.33920923246E+03  0.73349823471E+03  0.40000000000E+03 0.  1.
<mgrwt>
<rscale>  2 0.65035126E+03</rscale>
<asrwt>0</asrwt>
<pdfrwt beam="1">  1       21 0.41298174E-01 0.65035126E+03</pdfrwt>
<pdfrwt beam="2">  1       21 0.31069299E+00 0.65035126E+03</pdfrwt>
<totfact> 0.11666299E+02</totfact>
</mgrwt>
</event>
<event>
 4    1  0.4689683E-002  0.6736031E+03  0.7818608E-02  0.9763471E-01
         21   -1    0    0  501  502  0.00000000000E+00  0.00000000000E+00  0.21065947012E+03  0.21065947012E+03  0.00000000000E+00 0.  1.
         21   -1    0    0  502  503 -0.00000000000E+00 -0.00000000000E+00 -0.41914181402E+04  0.41914181402E+04  0.00000000000E+00 0.  1.
    9000007    1    1    2  501    0  0.53715992615E+03  0.72113857512E+02 -0.45577275634E+03  0.81330805980E+03  0.40000000000E+03 0.  1.
   -9000007    1    1    2    0  503 -0.53715992615E+03 -0.72113857512E+02 -0.35249859138E+04  0.35887695505E+04  0.40000000000E+03 0.  1.
<mgrwt>
<rscale>  2 0.67360314E+03</rscale>
<asrwt>0</asrwt>
<pdfrwt beam="1">  1       21 0.32409151E-01 0.67360314E+03</pdfrwt>
<pdfrwt beam="2">  1       21 0.64483352E+00 0.67360314E+03</pdfrwt>
<totfact> 0.83590518E-01</totfact>
</mgrwt>
</event>
<event>
 4    1  0.4689683E-002  0.4513150E+03  0.7818608E-02  0.1027331E+00
         21   -1    0    0  501  502  0.00000000000E+00  0.00000000000E+00  0.41480791632E+03  0.41480791632E+03  0.00000000000E+00 0. -1.
         21   -1    0    0  502  503 -0.00000000000E+00 -0.00000000000E+00 -0.13721075827E+04  0.13721075827E+04  0.00000000000E+00 0. -1.
    9000007    1    1    2  501    0  0.58611183341E+02 -0.20062383859E+03  0.23730526706E+03  0.50990095626E+03  0.40000000000E+03 0. -1.
   -9000007    1    1    2    0  503 -0.58611183341E+02  0.20062383859E+03 -0.11946049335E+04  0.12770145428E+04  0.40000000000E+03 0. -1.
<mgrwt>
<rscale>  2 0.45131496E+03</rscale>
<asrwt>0</asrwt>
<pdfrwt beam="1">  1       21 0.63816603E-01 0.45131496E+03</pdfrwt>
<pdfrwt beam="2">  1       21 0.21109347E+00 0.45131496E+03</pdfrwt>
<totfact> 0.20883537E+02</totfact>
</mgrwt>
</event>
<event>
 4    1  0.4689683E-002  0.6363896E+03  0.7818608E-02  0.9832659E-01
         21   -1    0    0  501  502  0.00000000000E+00  0.00000000000E+00  0.22532737190E+04  0.22532737190E+04  0.00000000000E+00 0. -1.
         21   -1    0    0  502  503 -0.00000000000E+00 -0.00000000000E+00 -0.17977523862E+03  0.17977523862E+03  0.00000000000E+00 0.  1.
    9000007    1    1    2  501    0 -0.43216471379E+02 -0.49307612666E+03  0.10549917789E+04  0.12320711764E+04  0.40000000000E+03 0.  1.
   -9000007    1    1    2    0  503  0.43216471379E+02  0.49307612666E+03  0.10185067014E+04  0.12009777812E+04  0.40000000000E+03 0.  1.
<mgrwt>
<rscale>  2 0.63638961E+03</rscale>
<asrwt>0</asrwt>
<pdfrwt beam="1">  1       21 0.34665748E+00 0.63638961E+03</pdfrwt>
<pdfrwt beam="2">  1       21 0.27657731E-01 0.63638961E+03</pdfrwt>
<totfact> 0.15919927E+02</totfact>
</mgrwt>
</event>
<event>
 4    1  0.4689683E-002  0.4005042E+03  0.7818608E-02  0.1043605E+00
         21   -1    0    0  501  502  0.00000000000E+00  0.00000000000E+00  0.23257946196E+03  0.23257946196E+03  0.00000000000E+00 0.  1.
         21   -1    0    0  502  503 -0.00000000000E+00 -0.00000000000E+00 -0.84218243625E+03  0.84218243625E+03  0.00000000000E+00 0.  1.
    9000007    1    1    2  501    0 -0.61322880336E+01  0.19131980893E+02 -0.76121385593E+02  0.40767401560E+03  0.40000000000E+03 0.  1.
   -9000007    1    1    2    0  503  0.61322880336E+01 -0.19131980893E+02 -0.53348158870E+03  0.66708788261E+03  0.40000000000E+03 0.  1.
<mgrwt>
<rscale>  2 0.40050423E+03</rscale>
<asrwt>0</asrwt>
<pdfrwt beam="1">  1       21 0.35781456E-01 0.40050423E+03</pdfrwt>
<pdfrwt beam="2">  1       21 0.12956653E+00 0.40050423E+03</pdfrwt>
<totfact> 0.28962702E+03</totfact>
</mgrwt>
</event>
<event>
 4    1  0.4689683E-002  0.5340950E+03  0.7818608E-02  0.1005244E+00
         21   -1    0    0  503  502  0.00000000000E+00  0.00000000000E+00  0.27740843717E+03  0.27740843717E+03  0.00000000000E+00 0.  1.
         21   -1    0    0  501  503 -0.00000000000E+00 -0.00000000000E+00 -0.14906934757E+04  0.14906934757E+04  0.00000000000E+00 0. -1.
    9000007    1    1    2  501    0 -0.13234874847E+03  0.32823963913E+03 -0.10990127135E+04  0.12219191447E+04  0.40000000000E+03 0. -1.
   -9000007    1    1    2    0  502  0.13234874847E+03 -0.32823963913E+03 -0.11427232505E+03  0.54618276812E+03  0.40000000000E+03 0.  1.
<mgrwt>
<rscale>  2 0.53409498E+03</rscale>
<asrwt>0</asrwt>
<pdfrwt beam="1">  1       21 0.42678221E-01 0.53409498E+03</pdfrwt>
<pdfrwt beam="2">  1       21 0.22933746E+00 0.53409498E+03</pdfrwt>
<totfact> 0.36340969E+02</totfact>
</mgrwt>
</event>
<event>
 4    1  0.4689683E-002  0.4091781E+03  0.7818608E-02  0.1040647E+00
         21   -1    0    0  501  502  0.00000000000E+00  0.00000000000E+00  0.61395820639E+03  0.61395820639E+03  0.00000000000E+00 0.  1.
         21   -1    0    0  502  503 -0.00000000000E+00 -0.00000000000E+00 -0.46734745952E+03  0.46734745952E+03  0.00000000000E+00 0.  1.
    9000007    1    1    2  501    0  0.72676027507E+02 -0.46313223802E+02  0.42222253766E+03  0.58796138562E+03  0.40000000000E+03 0.  1.
   -9000007    1    1    2    0  503 -0.72676027507E+02  0.46313223802E+02 -0.27561179079E+03  0.49334428029E+03  0.40000000000E+03 0.  1.
<mgrwt>
<rscale>  2 0.40917810E+03</rscale>
<asrwt>0</asrwt>
<pdfrwt beam="1">  1       21 0.94455109E-01 0.40917810E+03</pdfrwt>
<pdfrwt beam="2">  1       21 0.71899609E-01 0.40917810E+03</pdfrwt>
<totfact> 0.14283870E+03</totfact>
</mgrwt>
</event>
<event>
 4    1  0.4689683E-002  0.6324757E+03  0.7818608E-02  0.9840229E-01
         21   -1    0    0  501  502  0.00000000000E+00  0.00000000000E+00  0.23112755804E+03  0.23112755804E+03  0.00000000000E+00 0.  1.
         21   -1    0    0  502  503 -0.00000000000E+00 -0.00000000000E+00 -0.24086830713E+04  0.24086830713E+04  0.00000000000E+00 0.  1.
    9000007    1    1    2  501    0 -0.21340898094E+03  0.44100128866E+03 -0.38854202718E+03  0.74228730060E+03  0.40000000000E+03 0.  1.
   -9000007    1    1    2    0  503  0.21340898094E+03 -0.44100128866E+03 -0.17890134861E+04  0.18975233287E+04  0.40000000000E+03 0.  1.
<mgrwt>
<rscale>  2 0.63247571E+03</rscale>
<asrwt>0</asrwt>
<pdfrwt beam="1">  1       21 0.35558087E-01 0.63247571E+03</pdfrwt>
<pdfrwt beam="2">  1       21 0.37056661E+00 0.63247571E+03</pdfrwt>
<totfact> 0.68171602E+01</totfact>
</mgrwt>
</event>
<event>
 4    1  0.4689683E-002  0.4782537E+03  0.7818608E-02  0.1019616E+00
         21   -1    0    0  503  502  0.00000000000E+00  0.00000000000E+00  0.11277607382E+03  0.11277607382E+03  0.00000000000E+00 0. -1.
         21   -1    0    0  501  503 -0.00000000000E+00 -0.00000000000E+00 -0.22574027417E+04  0.22574027417E+04  0.00000000000E+00 0. -1.
    9000007    1    1    2  501    0 -0.15848396262E+03  0.20882867551E+03 -0.69464928750E+03  0.84336481712E+03  0.40000000000E+03 0. -1.
   -9000007    1    1    2    0  502  0.15848396262E+03 -0.20882867551E+03 -0.14499773804E+04  0.15268139984E+04  0.40000000000E+03 0. -1.
<mgrwt>
<rscale>  2 0.47825368E+03</rscale>
<asrwt>0</asrwt>
<pdfrwt beam="1">  1       21 0.17350164E-01 0.47825368E+03</pdfrwt>
<pdfrwt beam="2">  1       21 0.34729276E+00 0.47825368E+03</pdfrwt>
<totfact> 0.41981632E+02</totfact>
</mgrwt>
</event>
<event>
 4    1  0.4689683E-002  0.4057124E+03  0.7818608E-02  0.1041819E+00
         21   -1    0    0  503  502  0.00000000000E+00  0.00000000000E+00  0.48899978793E+03  0.48899978793E+03  0.00000000000E+00 0. -1.
         21   -1    0    0  501  503 -0.00000000000E+00 -0.00000000000E+00 -0.62522976626E+03  0.62522976626E+03  0.00000000000E+00 0. -1.
    9000007    1    1    2  501    0 -0.44578340506E+02  0.51140016514E+02 -0.44663375173E+03  0.60339393261E+03  0.40000000000E+03 0. -1.
   -9000007    1    1    2    0  502  0.44578340506E+02 -0.51140016514E+02  0.31040377340E+03  0.51083562158E+03  0.40000000000E+03 0. -1.
<mgrwt>
<rscale>  2 0.40571237E+03</rscale>
<asrwt>0</asrwt>
<pdfrwt beam="1">  1       21 0.75230736E-01 0.40571237E+03</pdfrwt>
<pdfrwt beam="2">  1       21 0.96189195E-01 0.40571237E+03</pdfrwt>
<totfact> 0.12360082E+03</totfact>
</mgrwt>
</event>
<event>
 4    1  0.4689683E-002  0.5342089E+03  0.7818608E-02  0.1005216E+00
         21   -1    0    0  501  502  0.00000000000E+00  0.00000000000E+00  0.26505969213E+04  0.26505969213E+04  0.00000000000E+00 0. -1.
         21   -1    0    0  502  503 -0.00000000000E+00 -0.00000000000E+00 -0.15860543553E+03  0.15860543553E+03  0.00000000000E+00 0.  1.
    9000007    1    1    2  501    0 -0.35115453040E+03  0.45492929643E+02  0.20420105589E+04  0.21107312082E+04  0.40000000000E+03 0.  1.
   -9000007    1    1    2    0  503  0.35115453040E+03 -0.45492929643E+02  0.44998092693E+03  0.69847114863E+03  0.40000000000E+03 0.  1.
<mgrwt>
<rscale>  2 0.53420886E+03</rscale>
<asrwt>0</asrwt>
<pdfrwt beam="1">  1       21 0.40778411E+00 0.53420886E+03</pdfrwt>
<pdfrwt beam="2">  1       21 0.24400838E-01 0.53420886E+03</pdfrwt>
<totfact> 0.87910260E+01</totfact>
</mgrwt>
</event>
<event>
 4    1  0.4689683E-002  0.4717951E+03  0.7818608E-02  0.1021415E+00
         21   -1    0    0  503  502  0.00000000000E+00  0.00000000000E+00  0.59128138318E+03  0.59128138318E+03  0.00000000000E+00 0.  1.
         21   -1    0    0  501  503 -0.00000000000E+00 -0.00000000000E+00 -0.55062573649E+03  0.55062573649E+03  0.00000000000E+00 0.  1.
    9000007    1    1    2  501    0 -0.17798162810E+03  0.17582135270E+03 -0.30078718230E+03  0.55952081019E+03  0.40000000000E+03 0.  1.
   -9000007    1    1    2    0  502  0.17798162810E+03 -0.17582135270E+03  0.34144282899E+03  0.58238630948E+03  0.40000000000E+03 0.  1.
<mgrwt>
<rscale>  2 0.47179509E+03</rscale>
<asrwt>0</asrwt>
<pdfrwt beam="1">  1       21 0.90966366E-01 0.47179509E+03</pdfrwt>
<pdfrwt beam="2">  1       21 0.84711652E-01 0.47179509E+03</pdfrwt>
<totfact> 0.10445993E+03</totfact>
</mgrwt>
</event>
<event>
 4    1  0.4689683E-002  0.4596704E+03  0.7818608E-02  0.1024877E+00
         21   -1    0    0  501  502  0.00000000000E+00  0.00000000000E+00  0.58082403925E+03  0.58082403925E+03  0.00000000000E+00 0.  1.
         21   -1    0    0  502  503 -0.00000000000E+00 -0.00000000000E+00 -0.67162860275E+03  0.67162860275E+03  0.00000000000E+00 0.  1.
    9000007    1    1    2  501    0 -0.10235512060E+03 -0.20204035711E+03  0.37856232469E+03  0.59548829568E+03  0.40000000000E+03 0.  1.
   -9000007    1    1    2    0  503  0.10235512060E+03  0.20204035711E+03 -0.46936688818E+03  0.65696434632E+03  0.40000000000E+03 0.  1.
<mgrwt>
<rscale>  2 0.45967040E+03</rscale>
<asrwt>0</asrwt>
<pdfrwt beam="1">  1       21 0.89357544E-01 0.45967040E+03</pdfrwt>
<pdfrwt beam="2">  1       21 0.10332748E+00 0.45967040E+03</pdfrwt>
<totfact> 0.68076263E+02</totfact>
</mgrwt>
</event>
<event>
 4    1  0.4689683E-002  0.4284477E+03  0.7818608E-02  0.1034351E+00
         21   -1    0    0  503  502  0.00000000000E+00  0.00000000000E+00  0.94457399703E+02  0.94457399703E+02  0.00000000000E+00 0. -1.
         21   -1    0    0  501  503 -0.00000000000E+00 -0.00000000000E+00 -0.21256827720E+04  0.21256827720E+04  0.00000000000E+00 0. -1.
    9000007    1    1    2  501    0  0.29808306222E+02 -0.15059521932E+03 -0.13406904734E+04  0.14074865544E+04  0.40000000000E+03 0. -1.
   -9000007    1    1    2    0  502 -0.29808306222E+02  0.15059521932E+03 -0.69053489887E+03  0.81265361733E+03  0.40000000000E+03 0. -1.
<mgrwt>
<rscale>  2 0.42844773E+03</rscale>
<asrwt>0</asrwt>
<pdfrwt beam="1">  1       21 0.14531909E-01 0.42844773E+03</pdfrwt>
<pdfrwt beam="2">  1       21 0.32702809E+00 0.42844773E+03</pdfrwt>
<totfact> 0.79918548E+02</totfact>
</mgrwt>
</event>
<event>
 4    1  0.4689683E-002  0.4200766E+03  0.7818608E-02  0.1037041E+00
         21   -1    0    0  503  502  0.00000000000E+00  0.00000000000E+00  0.23164979152E+03  0.23164979152E+03  0.00000000000E+00 0.  1.
         21   -1    0    0  501  503 -0.00000000000E+00 -0.00000000000E+00 -0.16195084000E+04  0.16195084000E+04  0.00000000000E+00 0.  1.
    9000007    1    1    2  501    0 -0.73229076513E+02 -0.10536547870E+03 -0.13675242089E+04  0.14305896839E+04  0.40000000000E+03 0.  1.
   -9000007    1    1    2    0  502  0.73229076513E+02  0.10536547870E+03 -0.20334399522E+02  0.42056850756E+03  0.40000000000E+03 0.  1.
<mgrwt>
<rscale>  2 0.42007664E+03</rscale>
<asrwt>0</asrwt>
<pdfrwt beam="1">  1       21 0.35638430E-01 0.42007664E+03</pdfrwt>
<pdfrwt beam="2">  1       21 0.24915514E+00 0.42007664E+03</pdfrwt>
<totfact> 0.41942024E+02</totfact>
</mgrwt>
</event>
<event>
 4    1  0.4689683E-002  0.4161092E+03  0.7818608E-02  0.1038340E+00
         21   -1    0    0  503  502  0.00000000000E+00  0.00000000000E+00  0.23982423430E+03  0.23982423430E+03  0.00000000000E+00 0.  1.
         21   -1    0    0  501  503 -0.00000000000E+00 -0.00000000000E+00 -0.72655692422E+03  0.72655692422E+03  0.00000000000E+00 0. -1.
    9000007    1    1    2  501    0 -0.10826347450E+03 -0.37761245810E+02 -0.28174140554E+03  0.50251876700E+03  0.40000000000E+03 0.  1.
   -9000007    1    1    2    0  502  0.10826347450E+03  0.37761245810E+02 -0.20499128438E+03  0.46386239152E+03  0.40000000000E+03 0.  1.
<mgrwt>
<rscale>  2 0.41610923E+03</rscale>
<asrwt>0</asrwt>
<pdfrwt beam="1">  1       21 0.36896037E-01 0.41610923E+03</pdfrwt>
<pdfrwt beam="2">  1       21 0.11177799E+00 0.41610923E+03</pdfrwt>
<totfact> 0.39319467E+03</totfact>
</mgrwt>
</event>
<event>
 4    1  0.4689683E-002  0.4894768E+03  0.7818608E-02  0.1016563E+00
         21   -1    0    0  503  502  0.00000000000E+00  0.00000000000E+00  0.11557436855E+04  0.11557436855E+04  0.00000000000E+00 0. -1.
         21   -1    0    0  501  503 -0.00000000000E+00 -0.00000000000E+00 -0.20737889267E+03  0.20737889267E+03  0.00000000000E+00 0.  1.
    9000007    1    1    2  501    0  0.21217857880E+03 -0.18592418670E+03  0.46102708689E+03  0.67240875020E+03  0.40000000000E+03 0. -1.
   -9000007    1    1    2    0  502 -0.21217857880E+03  0.18592418670E+03  0.48733770591E+03  0.69071382794E+03  0.40000000000E+03 0. -1.
<mgrwt>
<rscale>  2 0.48947682E+03</rscale>
<asrwt>0</asrwt>
<pdfrwt beam="1">  1       21 0.17780672E+00 0.48947682E+03</pdfrwt>
<pdfrwt beam="2">  1       21 0.31904446E-01 0.48947682E+03</pdfrwt>
<totfact> 0.14813484E+03</totfact>
</mgrwt>
</event>
<event>
 4    1  0.4689683E-002  0.4226540E+03  0.7818608E-02  0.1036206E+00
         21   -1    0    0  503  502  0.00000000000E+00  0.00000000000E+00  0.20715401702E+03  0.20715401702E+03  0.00000000000E+00 0. -1.
         21   -1    0    0  501  503 -0.00000000000E+00 -0.00000000000E+00 -0.87576194565E+03  0.87576194565E+03  0.00000000000E+00 0. -1.
    9000007    1    1    2  501    0  0.40039566914E+02 -0.13051153398E+03 -0.40134479780E+03  0.58284995852E+03  0.40000000000E+03 0. -1.
   -9000007    1    1    2    0  502 -0.40039566914E+02  0.13051153398E+03 -0.26726313083E+03  0.50006600416E+03  0.40000000000E+03 0. -1.
<mgrwt>
<rscale>  2 0.42265403E+03</rscale>
<asrwt>0</asrwt>
<pdfrwt beam="1">  1       21 0.31869848E-01 0.42265403E+03</pdfrwt>
<pdfrwt beam="2">  1       21 0.13473261E+00 0.42265403E+03</pdfrwt>
<totfact> 0.32731696E+03</totfact>
</mgrwt>
</event>
<event>
 4    1  0.4689683E-002  0.4592034E+03  0.7818608E-02  0.1025013E+00
         21   -1    0    0  501  502  0.00000000000E+00  0.00000000000E+00  0.12728347131E+04  0.12728347131E+04  0.00000000000E+00 0.  1.
         21   -1    0    0  502  503 -0.00000000000E+00 -0.00000000000E+00 -0.17139956349E+03  0.17139956349E+03  0.00000000000E+00 0.  1.
    9000007    1    1    2  501    0 -0.14516356297E+03  0.17261312969E+03  0.41866521778E+03  0.62140833366E+03  0.40000000000E+03 0.  1.
   -9000007    1    1    2    0  503  0.14516356297E+03 -0.17261312969E+03  0.68276993178E+03  0.82282594289E+03  0.40000000000E+03 0.  1.
<mgrwt>
<rscale>  2 0.45920339E+03</rscale>
<asrwt>0</asrwt>
<pdfrwt beam="1">  1       21 0.19582072E+00 0.45920339E+03</pdfrwt>
<pdfrwt beam="2">  1       21 0.26369164E-01 0.45920339E+03</pdfrwt>
<totfact> 0.16417372E+03</totfact>
</mgrwt>
</event>
<event>
 4    1  0.4689683E-002  0.5404692E+03  0.7818608E-02  0.1003724E+00
         21   -1    0    0  503  502  0.00000000000E+00  0.00000000000E+00  0.10523313666E+04  0.10523313666E+04  0.00000000000E+00 0. -1.
         21   -1    0    0  501  503 -0.00000000000E+00 -0.00000000000E+00 -0.60562076805E+03  0.60562076805E+03  0.00000000000E+00 0. -1.
    9000007    1    1    2  501    0  0.52955023179E+02  0.35958688553E+03 -0.38675029291E+03  0.66459216952E+03  0.40000000000E+03 0. -1.
   -9000007    1    1    2    0  502 -0.52955023179E+02 -0.35958688553E+03  0.83346089148E+03  0.99335996514E+03  0.40000000000E+03 0. -1.
<mgrwt>
<rscale>  2 0.54046921E+03</rscale>
<asrwt>0</asrwt>
<pdfrwt beam="1">  1       21 0.16189713E+00 0.54046921E+03</pdfrwt>
<pdfrwt beam="2">  1       21 0.93172426E-01 0.54046921E+03</pdfrwt>
<totfact> 0.18438118E+02</totfact>
</mgrwt>
</event>
<event>
 4    1  0.4689683E-002  0.4879807E+03  0.7818608E-02  0.1016965E+00
         21   -1    0    0  501  502  0.00000000000E+00  0.00000000000E+00  0.19511637671E+03  0.19511637671E+03  0.00000000000E+00 0. -1.
         21   -1    0    0  502  503 -0.00000000000E+00 -0.00000000000E+00 -0.12299957614E+04  0.12299957614E+04  0.00000000000E+00 0. -1.
    9000007    1    1    2  501    0  0.10614052072E+03  0.25857183507E+03 -0.45458964710E+03  0.66691600017E+03  0.40000000000E+03 0. -1.
   -9000007    1    1    2    0  503 -0.10614052072E+03 -0.25857183507E+03 -0.58028973758E+03  0.75819613793E+03  0.40000000000E+03 0. -1.
<mgrwt>
<rscale>  2 0.48798074E+03</rscale>
<asrwt>0</asrwt>
<pdfrwt beam="1">  1       21 0.30017904E-01 0.48798074E+03</pdfrwt>
<pdfrwt beam="2">  1       21 0.18923012E+00 0.48798074E+03</pdfrwt>
<totfact> 0.13927654E+03</totfact>
</mgrwt>
</event>
<event>
 4    1  0.4689683E-002  0.4031174E+03  0.7818608E-02  0.1042706E+00
         21   -1    0    0  501  502  0.00000000000E+00  0.00000000000E+00  0.23362482045E+03  0.23362482045E+03  0.00000000000E+00 0.  1.
         21   -1    0    0  502  503 -0.00000000000E+00 -0.00000000000E+00 -0.10701729668E+04  0.10701729668E+04  0.00000000000E+00 0.  1.
    9000007    1    1    2  501    0  0.10740426746E+02  0.48870299560E+02 -0.32586390816E+02  0.40443236247E+03  0.40000000000E+03 0. -1.
   -9000007    1    1    2    0  503 -0.10740426746E+02 -0.48870299560E+02 -0.80396175554E+03  0.89936542479E+03  0.40000000000E+03 0. -1.
<mgrwt>
<rscale>  2 0.40311743E+03</rscale>
<asrwt>0</asrwt>
<pdfrwt beam="1">  1       21 0.35942280E-01 0.40311743E+03</pdfrwt>
<pdfrwt beam="2">  1       21 0.16464200E+00 0.40311743E+03</pdfrwt>
<totfact> 0.15060434E+03</totfact>
</mgrwt>
</event>
<event>
 4    1  0.4689683E-002  0.4549419E+03  0.7818608E-02  0.1026258E+00
         21   -1    0    0  503  502  0.00000000000E+00  0.00000000000E+00  0.11697908768E+04  0.11697908768E+04  0.00000000000E+00 0. -1.
         21   -1    0    0  501  503 -0.00000000000E+00 -0.00000000000E+00 -0.18115304771E+03  0.18115304771E+03  0.00000000000E+00 0. -1.
    9000007    1    1    2  501    0 -0.13414922613E+03 -0.17022377829E+03  0.59744092012E+03  0.75093794857E+03  0.40000000000E+03 0. -1.
   -9000007    1    1    2    0  502  0.13414922613E+03  0.17022377829E+03  0.39119690894E+03  0.60000597591E+03  0.40000000000E+03 0. -1.
<mgrwt>
<rscale>  2 0.45494192E+03</rscale>
<asrwt>0</asrwt>
<pdfrwt beam="1">  1       21 0.17996782E+00 0.45494192E+03</pdfrwt>
<pdfrwt beam="2">  1       21 0.27869700E-01 0.45494192E+03</pdfrwt>
<totfact> 0.18971634E+03</totfact>
</mgrwt>
</event>
<event>
 4    1  0.4689683E-002  0.5963279E+03  0.7818608E-02  0.9913054E-01
         21   -1    0    0  501  502  0.00000000000E+00  0.00000000000E+00  0.33341955884E+03  0.33341955884E+03  0.00000000000E+00 0.  1.
         21   -1    0    0  502  503 -0.00000000000E+00 -0.00000000000E+00 -0.10666407110E+04  0.10666407110E+04  0.00000000000E+00 0.  1.
    9000007    1    1    2  501    0 -0.11308836963E+03  0.42757226749E+03 -0.37323549741E+03  0.70349965160E+03  0.40000000000E+03 0.  1.
   -9000007    1    1    2    0  503  0.11308836963E+03 -0.42757226749E+03 -0.35998565477E+03  0.69656061826E+03  0.40000000000E+03 0.  1.
<mgrwt>
<rscale>  2 0.59632795E+03</rscale>
<asrwt>0</asrwt>
<pdfrwt beam="1">  1       21 0.51295316E-01 0.59632795E+03</pdfrwt>
<pdfrwt beam="2">  1       21 0.16409857E+00 0.59632795E+03</pdfrwt>
<totfact> 0.67078494E+02</totfact>
</mgrwt>
</event>
<event>
 4    1  0.4689683E-002  0.4976042E+03  0.7818608E-02  0.1014406E+00
         21   -1    0    0  503  502  0.00000000000E+00  0.00000000000E+00  0.15901034740E+03  0.15901034740E+03  0.00000000000E+00 0.  1.
         21   -1    0    0  501  503 -0.00000000000E+00 -0.00000000000E+00 -0.18312002202E+04  0.18312002202E+04  0.00000000000E+00 0.  1.
    9000007    1    1    2  501    0 -0.89706645905E+02 -0.28206857918E+03 -0.45116534959E+03  0.67168455271E+03  0.40000000000E+03 0.  1.
   -9000007    1    1    2    0  502  0.89706645905E+02  0.28206857918E+03 -0.12210245232E+04  0.13185260149E+04  0.40000000000E+03 0.  1.
<mgrwt>
<rscale>  2 0.49760423E+03</rscale>
<asrwt>0</asrwt>
<pdfrwt beam="1">  1       21 0.24463131E-01 0.49760423E+03</pdfrwt>
<pdfrwt beam="2">  1       21 0.28172310E+00 0.49760423E+03</pdfrwt>
<totfact> 0.53808988E+02</totfact>
</mgrwt>
</event>
<event>
 4    1  0.4689683E-002  0.4432498E+03  0.7818608E-02  0.1029754E+00
         21   -1    0    0  503  502  0.00000000000E+00  0.00000000000E+00  0.54327106017E+03  0.54327106017E+03  0.00000000000E+00 0. -1.
         21   -1    0    0  501  503 -0.00000000000E+00 -0.00000000000E+00 -0.12979979270E+04  0.12979979270E+04  0.00000000000E+00 0. -1.
    9000007    1    1    2  501    0  0.93153410043E+01  0.19074483736E+03 -0.11592979979E+04  0.12411455259E+04  0.40000000000E+03 0. -1.
   -9000007    1    1    2    0  502 -0.93153410043E+01 -0.19074483736E+03  0.40457113112E+03  0.60012346120E+03  0.40000000000E+03 0. -1.
<mgrwt>
<rscale>  2 0.44324978E+03</rscale>
<asrwt>0</asrwt>
<pdfrwt beam="1">  1       21 0.83580163E-01 0.44324978E+03</pdfrwt>
<pdfrwt beam="2">  1       21 0.19969199E+00 0.44324978E+03</pdfrwt>
<totfact> 0.13513403E+02</totfact>
</mgrwt>
</event>
<event>
 4    1  0.4689683E-002  0.4990218E+03  0.7818608E-02  0.1014035E+00
         21   -1    0    0  503  502  0.00000000000E+00  0.00000000000E+00  0.27927995440E+03  0.27927995440E+03  0.00000000000E+00 0. -1.
         21   -1    0    0  501  503 -0.00000000000E+00 -0.00000000000E+00 -0.94977848927E+03  0.94977848927E+03  0.00000000000E+00 0.  1.
    9000007    1    1    2  501    0  0.13088864188E+02  0.29807956606E+03 -0.48726508325E+03  0.69745968158E+03  0.40000000000E+03 0.  1.
   -9000007    1    1    2    0  502 -0.13088864188E+02 -0.29807956606E+03 -0.18323345161E+03  0.53159876209E+03  0.40000000000E+03 0.  1.
<mgrwt>
<rscale>  2 0.49902179E+03</rscale>
<asrwt>0</asrwt>
<pdfrwt beam="1">  1       21 0.42966148E-01 0.49902179E+03</pdfrwt>
<pdfrwt beam="2">  1       21 0.14611977E+00 0.49902179E+03</pdfrwt>
<totfact> 0.13926101E+03</totfact>
</mgrwt>
</event>
<event>
 4    1  0.4689683E-002  0.4036752E+03  0.7818608E-02  0.1042514E+00
         21   -1    0    0  503  502  0.00000000000E+00  0.00000000000E+00  0.10010781718E+03  0.10010781718E+03  0.00000000000E+00 0.  1.
         21   -1    0    0  501  503 -0.00000000000E+00 -0.00000000000E+00 -0.26394977892E+04  0.26394977892E+04  0.00000000000E+00 0.  1.
    9000007    1    1    2  501    0  0.49493050855E+02  0.22452385068E+02 -0.21177552800E+04  0.21558852236E+04  0.40000000000E+03 0.  1.
   -9000007    1    1    2    0  502 -0.49493050855E+02 -0.22452385068E+02 -0.42163469205E+03  0.58372038273E+03  0.40000000000E+03 0.  1.
<mgrwt>
<rscale>  2 0.40367521E+03</rscale>
<asrwt>0</asrwt>
<pdfrwt beam="1">  1       21 0.15401202E-01 0.40367521E+03</pdfrwt>
<pdfrwt beam="2">  1       21 0.40607661E+00 0.40367521E+03</pdfrwt>
<totfact> 0.23559203E+02</totfact>
</mgrwt>
</event>
<event>
 4    1  0.4689683E-002  0.5462760E+03  0.7818608E-02  0.1002360E+00
         21   -1    0    0  501  502  0.00000000000E+00  0.00000000000E+00  0.51308947974E+03  0.51308947974E+03  0.00000000000E+00 0.  1.
         21   -1    0    0  502  503 -0.00000000000E+00 -0.00000000000E+00 -0.63285284493E+03  0.63285284493E+03  0.00000000000E+00 0. -1.
    9000007    1    1    2  501    0  0.36048740674E+03 -0.92012769258E+02 -0.22292452848E+03  0.59001090288E+03  0.40000000000E+03 0. -1.
   -9000007    1    1    2    0  503 -0.36048740674E+03  0.92012769258E+02  0.10316116328E+03  0.55593142179E+03  0.40000000000E+03 0.  1.
<mgrwt>
<rscale>  2 0.54627605E+03</rscale>
<asrwt>0</asrwt>
<pdfrwt beam="1">  1       21 0.78936843E-01 0.54627605E+03</pdfrwt>
<pdfrwt beam="2">  1       21 0.97361977E-01 0.54627605E+03</pdfrwt>
<totfact> 0.10183312E+03</totfact>
</mgrwt>
</event>
<event>
 4    1  0.4689683E-002  0.4188035E+03  0.7818608E-02  0.1037456E+00
         21   -1    0    0  503  502  0.00000000000E+00  0.00000000000E+00  0.14176329401E+03  0.14176329401E+03  0.00000000000E+00 0. -1.
         21   -1    0    0  501  503 -0.00000000000E+00 -0.00000000000E+00 -0.31561208951E+04  0.31561208951E+04  0.00000000000E+00 0. -1.
    9000007    1    1    2  501    0 -0.16965329607E+02  0.12291696163E+03 -0.27929143561E+04  0.28241400465E+04  0.40000000000E+03 0. -1.
   -9000007    1    1    2    0  502  0.16965329607E+02 -0.12291696163E+03 -0.22144324497E+03  0.47374414256E+03  0.40000000000E+03 0. -1.
<mgrwt>
<rscale>  2 0.41880354E+03</rscale>
<asrwt>0</asrwt>
<pdfrwt beam="1">  1       21 0.21809740E-01 0.41880354E+03</pdfrwt>
<pdfrwt beam="2">  1       21 0.48555700E+00 0.41880354E+03</pdfrwt>
<totfact> 0.35288186E+01</totfact>
</mgrwt>
</event>
<event>
 4    1  0.4689683E-002  0.4001627E+03  0.7818608E-02  0.1043723E+00
         21   -1    0    0  503  502  0.00000000000E+00  0.00000000000E+00  0.40571630904E+03  0.40571630904E+03  0.00000000000E+00 0. -1.
         21   -1    0    0  501  503 -0.00000000000E+00 -0.00000000000E+00 -0.42237699119E+03  0.42237699119E+03  0.00000000000E+00 0. -1.
    9000007    1    1    2  501    0 -0.10301331709E+02  0.49078350922E+01 -0.11434722298E+03  0.41617963872E+03  0.40000000000E+03 0. -1.
   -9000007    1    1    2    0  502  0.10301331709E+02 -0.49078350922E+01  0.97686540821E+02  0.41191366151E+03  0.40000000000E+03 0. -1.
<mgrwt>
<rscale>  2 0.40016272E+03</rscale>
<asrwt>0</asrwt>
<pdfrwt beam="1">  1       21 0.62417894E-01 0.40016272E+03</pdfrwt>
<pdfrwt beam="2">  1       21 0.64981075E-01 0.40016272E+03</pdfrwt>
<totfact> 0.46401312E+03</totfact>
</mgrwt>
</event>
<event>
 4    1  0.4689683E-002  0.4060876E+03  0.7818608E-02  0.1041692E+00
         21   -1    0    0  501  502  0.00000000000E+00  0.00000000000E+00  0.14177335818E+04  0.14177335818E+04  0.00000000000E+00 0.  1.
         21   -1    0    0  502  503 -0.00000000000E+00 -0.00000000000E+00 -0.28393492058E+03  0.28393492058E+03  0.00000000000E+00 0.  1.
    9000007    1    1    2  501    0 -0.64614234942E+02 -0.27058695334E+02  0.12206244689E+04  0.12864024512E+04  0.40000000000E+03 0.  1.
   -9000007    1    1    2    0  503  0.64614234942E+02  0.27058695334E+02 -0.86825807726E+02  0.41526605115E+03  0.40000000000E+03 0.  1.
<mgrwt>
<rscale>  2 0.40608764E+03</rscale>
<asrwt>0</asrwt>
<pdfrwt beam="1">  1       21 0.21811285E+00 0.40608764E+03</pdfrwt>
<pdfrwt beam="2">  1       21 0.43682296E-01 0.40608764E+03</pdfrwt>
<totfact> 0.43498003E+02</totfact>
</mgrwt>
</event>
<event>
 4    1  0.4689683E-002  0.4040466E+03  0.7818608E-02  0.1042387E+00
         21   -1    0    0  503  502  0.00000000000E+00  0.00000000000E+00  0.23491551100E+03  0.23491551100E+03  0.00000000000E+00 0.  1.
         21   -1    0    0  501  503 -0.00000000000E+00 -0.00000000000E+00 -0.78943011582E+03  0.78943011582E+03  0.00000000000E+00 0.  1.
    9000007    1    1    2  501    0  0.15231033091E+02 -0.54969415852E+02 -0.45444714439E+03  0.60809195694E+03  0.40000000000E+03 0.  1.
   -9000007    1    1    2    0  502 -0.15231033091E+02  0.54969415852E+02 -0.10006746043E+03  0.41625366988E+03  0.40000000000E+03 0.  1.
<mgrwt>
<rscale>  2 0.40404656E+03</rscale>
<asrwt>0</asrwt>
<pdfrwt beam="1">  1       21 0.36140848E-01 0.40404656E+03</pdfrwt>
<pdfrwt beam="2">  1       21 0.12145078E+00 0.40404656E+03</pdfrwt>
<totfact> 0.33455444E+03</totfact>
</mgrwt>
</event>
<event>
 4    1  0.4689683E-002  0.4701941E+03  0.7818608E-02  0.1021865E+00
         21   -1    0    0  503  502  0.00000000000E+00  0.00000000000E+00  0.14748807012E+03  0.14748807012E+03  0.00000000000E+00 0.  1.
         21   -1    0    0  501  503 -0.00000000000E+00 -0.00000000000E+00 -0.15194119416E+04  0.15194119416E+04  0.00000000000E+00 0. -1.
    9000007    1    1    2  501    0  0.20888037876E+03  0.13210418559E+03 -0.78259695651E+03  0.91298440557E+03  0.40000000000E+03 0. -1.
   -9000007    1    1    2    0  502 -0.20888037876E+03 -0.13210418559E+03 -0.58932691500E+03  0.75391560617E+03  0.40000000000E+03 0. -1.
<mgrwt>
<rscale>  2 0.47019414E+03</rscale>
<asrwt>0</asrwt>
<pdfrwt beam="1">  1       21 0.22690471E-01 0.47019414E+03</pdfrwt>
<pdfrwt beam="2">  1       21 0.23375570E+00 0.47019414E+03</pdfrwt>
<totfact> 0.12420313E+03</totfact>
</mgrwt>
</event>
<event>
 4    1  0.4689683E-002  0.4250339E+03  0.7818608E-02  0.1035440E+00
         21   -1    0    0  503  502  0.00000000000E+00  0.00000000000E+00  0.18796190988E+04  0.18796190988E+04  0.00000000000E+00 0.  1.
         21   -1    0    0  501  503 -0.00000000000E+00 -0.00000000000E+00 -0.36203967069E+03  0.36203967069E+03  0.00000000000E+00 0.  1.
    9000007    1    1    2  501    0  0.92729853188E+02  0.10979506480E+03 -0.20181179786E+03  0.47051225668E+03  0.40000000000E+03 0.  1.
   -9000007    1    1    2    0  502 -0.92729853188E+02 -0.10979506480E+03  0.17193912260E+04  0.17711465129E+04  0.40000000000E+03 0.  1.
<mgrwt>
<rscale>  2 0.42503386E+03</rscale>
<asrwt>0</asrwt>
<pdfrwt beam="1">  1       21 0.28917216E+00 0.42503386E+03</pdfrwt>
<pdfrwt beam="2">  1       21 0.55698412E-01 0.42503386E+03</pdfrwt>
<totfact> 0.94194540E+01</totfact>
</mgrwt>
</event>
<event>
 4    1  0.4689683E-002  0.4458045E+03  0.7818608E-02  0.1028981E+00
         21   -1    0    0  501  502  0.00000000000E+00  0.00000000000E+00  0.21203294849E+03  0.21203294849E+03  0.00000000000E+00 0. -1.
         21   -1    0    0  502  503 -0.00000000000E+00 -0.00000000000E+00 -0.95570798253E+03  0.95570798253E+03  0.00000000000E+00 0.  1.
    9000007    1    1    2  501    0  0.18876449721E+03  0.55763883663E+02 -0.29083828049E+03  0.53228615568E+03  0.40000000000E+03 0. -1.
   -9000007    1    1    2    0  503 -0.18876449721E+03 -0.55763883663E+02 -0.45283675355E+03  0.63545477533E+03  0.40000000000E+03 0.  1.
<mgrwt>
<rscale>  2 0.44580449E+03</rscale>
<asrwt>0</asrwt>
<pdfrwt beam="1">  1       21 0.32620453E-01 0.44580449E+03</pdfrwt>
<pdfrwt beam="2">  1       21 0.14703200E+00 0.44580449E+03</pdfrwt>
<totfact> 0.24541219E+03</totfact>
</mgrwt>
</event>
<event>
 4    1  0.4689683E-002  0.4211096E+03  0.7818608E-02  0.1036706E+00
         21   -1    0    0  503  502  0.00000000000E+00  0.00000000000E+00  0.77880266213E+02  0.77880266213E+02  0.00000000000E+00 0.  1.
         21   -1    0    0  501  503 -0.00000000000E+00 -0.00000000000E+00 -0.26841578296E+04  0.26841578296E+04  0.00000000000E+00 0.  1.
    9000007    1    1    2  501    0 -0.35384466815E+02  0.12681186200E+03 -0.18410089182E+04  0.18885568950E+04  0.40000000000E+03 0.  1.
   -9000007    1    1    2    0  502  0.35384466815E+02 -0.12681186200E+03 -0.76526864521E+03  0.87348120081E+03  0.40000000000E+03 0.  1.
<mgrwt>
<rscale>  2 0.42110962E+03</rscale>
<asrwt>0</asrwt>
<pdfrwt beam="1">  1       21 0.11981580E-01 0.42110962E+03</pdfrwt>
<pdfrwt beam="2">  1       21 0.41294732E+00 0.42110962E+03</pdfrwt>
<totfact> 0.33312855E+02</totfact>
</mgrwt>
</event>
<event>
 4    1  0.4689683E-002  0.4327874E+03  0.7818608E-02  0.1032983E+00
         21   -1    0    0  503  502  0.00000000000E+00  0.00000000000E+00  0.13175058885E+04  0.13175058885E+04  0.00000000000E+00 0.  1.
         21   -1    0    0  501  503 -0.00000000000E+00 -0.00000000000E+00 -0.30802553840E+03  0.30802553840E+03  0.00000000000E+00 0. -1.
    9000007    1    1    2  501    0  0.92135076102E+02 -0.13717166000E+03 -0.91665608318E+02  0.44238842696E+03  0.40000000000E+03 0. -1.
   -9000007    1    1    2    0  502 -0.92135076102E+02  0.13717166000E+03  0.11011459584E+04  0.11831429999E+04  0.40000000000E+03 0.  1.
<mgrwt>
<rscale>  2 0.43278740E+03</rscale>
<asrwt>0</asrwt>
<pdfrwt beam="1">  1       21 0.20269321E+00 0.43278740E+03</pdfrwt>
<pdfrwt beam="2">  1       21 0.47388545E-01 0.43278740E+03</pdfrwt>
<totfact> 0.45528910E+02</totfact>
</mgrwt>
</event>
<event>
 4    1  0.4689683E-002  0.7506246E+03  0.7818608E-02  0.9634371E-01
         21   -1    0    0  501  502  0.00000000000E+00  0.00000000000E+00  0.17325433616E+04  0.17325433616E+04  0.00000000000E+00 0.  1.
         21   -1    0    0  502  503 -0.00000000000E+00 -0.00000000000E+00 -0.56088410713E+03  0.56088410713E+03  0.00000000000E+00 0. -1.
    9000007    1    1    2  501    0  0.63175261265E+03  0.65771527342E+02  0.13291500541E+04  0.15264590148E+04  0.40000000000E+03 0.  1.
   -9000007    1    1    2    0  503 -0.63175261265E+03 -0.65771527342E+02 -0.15749079966E+03  0.76696845396E+03  0.40000000000E+03 0. -1.
<mgrwt>
<rscale>  2 0.75062458E+03</rscale>
<asrwt>0</asrwt>
<pdfrwt beam="1">  1       21 0.26654513E+00 0.75062458E+03</pdfrwt>
<pdfrwt beam="2">  1       21 0.86289864E-01 0.75062458E+03</pdfrwt>
<totfact> 0.40852376E+01</totfact>
</mgrwt>
</event>
<event>
 4    1  0.4689683E-002  0.4070997E+03  0.7818608E-02  0.1041349E+00
         21   -1    0    0  503  502  0.00000000000E+00  0.00000000000E+00  0.12114803463E+04  0.12114803463E+04  0.00000000000E+00 0. -1.
         21   -1    0    0  501  503 -0.00000000000E+00 -0.00000000000E+00 -0.24911442452E+03  0.24911442452E+03  0.00000000000E+00 0. -1.
    9000007    1    1    2  501    0  0.66594269732E+02  0.35991411564E+02 -0.91810712960E+01  0.40720323002E+03  0.40000000000E+03 0. -1.
   -9000007    1    1    2    0  502 -0.66594269732E+02 -0.35991411564E+02  0.97154699305E+03  0.10533915408E+04  0.40000000000E+03 0. -1.
<mgrwt>
<rscale>  2 0.40709972E+03</rscale>
<asrwt>0</asrwt>
<pdfrwt beam="1">  1       21 0.18638159E+00 0.40709972E+03</pdfrwt>
<pdfrwt beam="2">  1       21 0.38325297E-01 0.40709972E+03</pdfrwt>
<totfact> 0.92331746E+02</totfact>
</mgrwt>
</event>
<event>
 4    1  0.4689683E-002  0.4292825E+03  0.7818608E-02  0.1034087E+00
         21   -1    0    0  501  502  0.00000000000E+00  0.00000000000E+00  0.11905565667E+03  0.11905565667E+03  0.00000000000E+00 0. -1.
         21   -1    0    0  502  503 -0.00000000000E+00 -0.00000000000E+00 -0.22319572733E+04  0.22319572733E+04  0.00000000000E+00 0. -1.
    9000007    1    1    2  501    0 -0.10884711134E+03 -0.11151588833E+03 -0.40566857847E+03  0.59063565974E+03  0.40000000000E+03 0. -1.
   -9000007    1    1    2    0  503  0.10884711134E+03  0.11151588833E+03 -0.17072330382E+04  0.17603772703E+04  0.40000000000E+03 0. -1.
<mgrwt>
<rscale>  2 0.42928253E+03</rscale>
<asrwt>0</asrwt>
<pdfrwt beam="1">  1       21 0.18316256E-01 0.42928253E+03</pdfrwt>
<pdfrwt beam="2">  1       21 0.34337803E+00 0.42928253E+03</pdfrwt>
<totfact> 0.41270287E+02</totfact>
</mgrwt>
</event>
<event>
 4    1  0.4689683E-002  0.5210117E+03  0.7818608E-02  0.1008436E+00
         21   -1    0    0  503  502  0.00000000000E+00  0.00000000000E+00  0.48659598318E+03  0.48659598318E+03  0.00000000000E+00 0. -1.
         21   -1    0    0  501  503 -0.00000000000E+00 -0.00000000000E+00 -0.12244292747E+04  0.12244292747E+04  0.00000000000E+00 0.  1.
    9000007    1    1    2  501    0 -0.67974561676E+02 -0.32685258793E+03 -0.10001380777E+04  0.11277097720E+04  0.40000000000E+03 0.  1.
   -9000007    1    1    2    0  502  0.67974561676E+02  0.32685258793E+03  0.26230478618E+03  0.58331548593E+03  0.40000000000E+03 0. -1.
<mgrwt>
<rscale>  2 0.52101167E+03</rscale>
<asrwt>0</asrwt>
<pdfrwt beam="1">  1       21 0.74860921E-01 0.52101167E+03</pdfrwt>
<pdfrwt beam="2">  1       21 0.18837373E+00 0.52101167E+03</pdfrwt>
<totfact> 0.19997844E+02</totfact>
</mgrwt>
</event>
<event>
 4    1  0.4689683E-002  0.4008822E+03  0.7818608E-02  0.1043475E+00
         21   -1    0    0  501  502  0.00000000000E+00  0.00000000000E+00  0.26639955384E+03  0.26639955384E+03  0.00000000000E+00 0. -1.
         21   -1    0    0  502  503 -0.00000000000E+00 -0.00000000000E+00 -0.64577289499E+03  0.64577289499E+03  0.00000000000E+00 0. -1.
    9000007    1    1    2  501    0 -0.47071893240E+01 -0.26159923333E+02 -0.72655945037E+02  0.40741304050E+03  0.40000000000E+03 0. -1.
   -9000007    1    1    2    0  503  0.47071893240E+01  0.26159923333E+02 -0.30671739612E+03  0.50475940833E+03  0.40000000000E+03 0. -1.
<mgrwt>
<rscale>  2 0.40088215E+03</rscale>
<asrwt>0</asrwt>
<pdfrwt beam="1">  1       21 0.40984547E-01 0.40088215E+03</pdfrwt>
<pdfrwt beam="2">  1       21 0.99349675E-01 0.40088215E+03</pdfrwt>
<totfact> 0.42594466E+03</totfact>
</mgrwt>
</event>
<event>
 4    1  0.4689683E-002  0.7095432E+03  0.7818608E-02  0.9701050E-01
         21   -1    0    0  503  502  0.00000000000E+00  0.00000000000E+00  0.67308662090E+03  0.67308662090E+03  0.00000000000E+00 0. -1.
         21   -1    0    0  501  503 -0.00000000000E+00 -0.00000000000E+00 -0.93583976660E+03  0.93583976660E+03  0.00000000000E+00 0.  1.
    9000007    1    1    2  501    0  0.52878475949E+03 -0.25266225146E+03 -0.49181313452E+03  0.86332594915E+03  0.40000000000E+03 0.  1.
   -9000007    1    1    2    0  502 -0.52878475949E+03  0.25266225146E+03  0.22905998883E+03  0.74560043835E+03  0.40000000000E+03 0. -1.
<mgrwt>
<rscale>  2 0.70954319E+03</rscale>
<asrwt>0</asrwt>
<pdfrwt beam="1">  1       21 0.10355179E+00 0.70954319E+03</pdfrwt>
<pdfrwt beam="2">  1       21 0.14397535E+00 0.70954319E+03</pdfrwt>
<totfact> 0.18533696E+02</totfact>
</mgrwt>
</event>
<event>
 4    1  0.4689683E-002  0.5342104E+03  0.7818608E-02  0.1005216E+00
         21   -1    0    0  503  502  0.00000000000E+00  0.00000000000E+00  0.11727880272E+04  0.11727880272E+04  0.00000000000E+00 0.  1.
         21   -1    0    0  501  503 -0.00000000000E+00 -0.00000000000E+00 -0.27297580217E+03  0.27297580217E+03  0.00000000000E+00 0. -1.
    9000007    1    1    2  501    0  0.30271417320E+03 -0.18369779052E+03  0.21170273103E+03  0.57462926763E+03  0.40000000000E+03 0. -1.
   -9000007    1    1    2    0  502 -0.30271417320E+03  0.18369779052E+03  0.68810949400E+03  0.87113456173E+03  0.40000000000E+03 0.  1.
<mgrwt>
<rscale>  2 0.53421040E+03</rscale>
<asrwt>0</asrwt>
<pdfrwt beam="1">  1       21 0.18042892E+00 0.53421040E+03</pdfrwt>
<pdfrwt beam="2">  1       21 0.41996278E-01 0.53421040E+03</pdfrwt>
<totfact> 0.79601187E+02</totfact>
</mgrwt>
</event>
<event>
 4    1  0.4689683E-002  0.5429701E+03  0.7818608E-02  0.1003134E+00
         21   -1    0    0  501  502  0.00000000000E+00  0.00000000000E+00  0.90793485397E+03  0.90793485397E+03  0.00000000000E+00 0. -1.
         21   -1    0    0  502  503 -0.00000000000E+00 -0.00000000000E+00 -0.39568426450E+03  0.39568426450E+03  0.00000000000E+00 0.  1.
    9000007    1    1    2  501    0  0.31178049794E+03  0.19393147924E+03  0.53217895727E+03  0.76028346036E+03  0.40000000000E+03 0.  1.
   -9000007    1    1    2    0  503 -0.31178049794E+03 -0.19393147924E+03 -0.19928367796E+02  0.54333565812E+03  0.40000000000E+03 0.  1.
<mgrwt>
<rscale>  2 0.54297007E+03</rscale>
<asrwt>0</asrwt>
<pdfrwt beam="1">  1       21 0.13968228E+00 0.54297007E+03</pdfrwt>
<pdfrwt beam="2">  1       21 0.60874503E-01 0.54297007E+03</pdfrwt>
<totfact> 0.73342693E+02</totfact>
</mgrwt>
</event>
<event>
 4    1  0.4689683E-002  0.4530686E+03  0.7818608E-02  0.1026811E+00
         21   -1    0    0  503  502  0.00000000000E+00  0.00000000000E+00  0.49744300282E+03  0.49744300282E+03  0.00000000000E+00 0.  1.
         21   -1    0    0  501  503 -0.00000000000E+00 -0.00000000000E+00 -0.42084367266E+03  0.42084367266E+03  0.00000000000E+00 0.  1.
    9000007    1    1    2  501    0  0.99510427240E+02  0.18806607436E+03 -0.25755911321E+02  0.45380011065E+03  0.40000000000E+03 0.  1.
   -9000007    1    1    2    0  502 -0.99510427240E+02 -0.18806607436E+03  0.10235524148E+03  0.46448656484E+03  0.40000000000E+03 0.  1.
<mgrwt>
<rscale>  2 0.45306862E+03</rscale>
<asrwt>0</asrwt>
<pdfrwt beam="1">  1       21 0.76529693E-01 0.45306862E+03</pdfrwt>
<pdfrwt beam="2">  1       21 0.64745180E-01 0.45306862E+03</pdfrwt>
<totfact> 0.29040947E+03</totfact>
</mgrwt>
</event>
<event>
 4    1  0.4689683E-002  0.4130662E+03  0.7818608E-02  0.1039347E+00
         21   -1    0    0  501  502  0.00000000000E+00  0.00000000000E+00  0.25381262440E+03  0.25381262440E+03  0.00000000000E+00 0.  1.
         21   -1    0    0  502  503 -0.00000000000E+00 -0.00000000000E+00 -0.10194048738E+04  0.10194048738E+04  0.00000000000E+00 0.  1.
    9000007    1    1    2  501    0  0.96142835489E+02  0.37152039092E+02 -0.11290525510E+02  0.41322051594E+03  0.40000000000E+03 0.  1.
   -9000007    1    1    2    0  503 -0.96142835489E+02 -0.37152039092E+02 -0.75430172387E+03  0.85999698224E+03  0.40000000000E+03 0.  1.
<mgrwt>
<rscale>  2 0.41306624E+03</rscale>
<asrwt>0</asrwt>
<pdfrwt beam="1">  1       21 0.39048096E-01 0.41306624E+03</pdfrwt>
<pdfrwt beam="2">  1       21 0.15683152E+00 0.41306624E+03</pdfrwt>
<totfact> 0.14494740E+03</totfact>
</mgrwt>
</event>
<event>
 4    1  0.4689683E-002  0.4389290E+03  0.7818608E-02  0.1031076E+00
         21   -1    0    0  503  502  0.00000000000E+00  0.00000000000E+00  0.13505265450E+03  0.13505265450E+03  0.00000000000E+00 0. -1.
         21   -1    0    0  501  503 -0.00000000000E+00 -0.00000000000E+00 -0.16333781215E+04  0.16333781215E+04  0.00000000000E+00 0. -1.
    9000007    1    1    2  501    0  0.16416241372E+03  0.75560172055E+02 -0.10638108553E+04  0.11508050111E+04  0.40000000000E+03 0. -1.
   -9000007    1    1    2    0  502 -0.16416241372E+03 -0.75560172055E+02 -0.43451461163E+03  0.61762576485E+03  0.40000000000E+03 0. -1.
<mgrwt>
<rscale>  2 0.43892897E+03</rscale>
<asrwt>0</asrwt>
<pdfrwt beam="1">  1       21 0.20777332E-01 0.43892897E+03</pdfrwt>
<pdfrwt beam="2">  1       21 0.25128893E+00 0.43892897E+03</pdfrwt>
<totfact> 0.11626265E+03</totfact>
</mgrwt>
</event>
<event>
 4    1  0.4689683E-002  0.4580905E+03  0.7818608E-02  0.1025336E+00
         21   -1    0    0  503  502  0.00000000000E+00  0.00000000000E+00  0.12608799047E+04  0.12608799047E+04  0.00000000000E+00 0. -1.
         21   -1    0    0  501  503 -0.00000000000E+00 -0.00000000000E+00 -0.22776570292E+03  0.22776570292E+03  0.00000000000E+00 0. -1.
    9000007    1    1    2  501    0  0.71386449372E+02 -0.21154412777E+03  0.13029910548E+03  0.47626127287E+03  0.40000000000E+03 0. -1.
   -9000007    1    1    2    0  502 -0.71386449372E+02  0.21154412777E+03  0.90281509624E+03  0.10123843347E+04  0.40000000000E+03 0. -1.
<mgrwt>
<rscale>  2 0.45809054E+03</rscale>
<asrwt>0</asrwt>
<pdfrwt beam="1">  1       21 0.19398152E+00 0.45809054E+03</pdfrwt>
<pdfrwt beam="2">  1       21 0.35040878E-01 0.45809054E+03</pdfrwt>
<totfact> 0.95965372E+02</totfact>
</mgrwt>
</event>
<event>
 4    1  0.4689683E-002  0.4057517E+03  0.7818608E-02  0.1041806E+00
         21   -1    0    0  503  502  0.00000000000E+00  0.00000000000E+00  0.16453272335E+03  0.16453272335E+03  0.00000000000E+00 0.  1.
         21   -1    0    0  501  503 -0.00000000000E+00 -0.00000000000E+00 -0.10268224589E+04  0.10268224589E+04  0.00000000000E+00 0.  1.
    9000007    1    1    2  501    0  0.13538701240E+02 -0.66716815794E+02 -0.33598586027E+03  0.52680255148E+03  0.40000000000E+03 0.  1.
   -9000007    1    1    2    0  502 -0.13538701240E+02  0.66716815794E+02 -0.52630387531E+03  0.66455263081E+03  0.40000000000E+03 0.  1.
<mgrwt>
<rscale>  2 0.40575169E+03</rscale>
<asrwt>0</asrwt>
<pdfrwt beam="1">  1       21 0.25312727E-01 0.40575169E+03</pdfrwt>
<pdfrwt beam="2">  1       21 0.15797268E+00 0.40575169E+03</pdfrwt>
<totfact> 0.33838629E+03</totfact>
</mgrwt>
</event>
<event>
 4    1  0.4689683E-002  0.5465707E+03  0.7818608E-02  0.1002291E+00
         21   -1    0    0  501  502  0.00000000000E+00  0.00000000000E+00  0.68328801028E+03  0.68328801028E+03  0.00000000000E+00 0.  1.
         21   -1    0    0  502  503 -0.00000000000E+00 -0.00000000000E+00 -0.44192436621E+03  0.44192436621E+03  0.00000000000E+00 0.  1.
    9000007    1    1    2  501    0 -0.19924625816E+03 -0.31470695404E+03  0.17879798911E+03  0.57507239477E+03  0.40000000000E+03 0.  1.
   -9000007    1    1    2    0  503  0.19924625816E+03  0.31470695404E+03  0.62565654951E+02  0.55013998172E+03  0.40000000000E+03 0.  1.
<mgrwt>
<rscale>  2 0.54657071E+03</rscale>
<asrwt>0</asrwt>
<pdfrwt beam="1">  1       21 0.10512123E+00 0.54657071E+03</pdfrwt>
<pdfrwt beam="2">  1       21 0.67988364E-01 0.54657071E+03</pdfrwt>
<totfact> 0.11862501E+03</totfact>
</mgrwt>
</event>
<event>
 4    1  0.4689683E-002  0.4508056E+03  0.7818608E-02  0.1027482E+00
         21   -1    0    0  501  502  0.00000000000E+00  0.00000000000E+00  0.21931261194E+03  0.21931261194E+03  0.00000000000E+00 0.  1.
         21   -1    0    0  502  503 -0.00000000000E+00 -0.00000000000E+00 -0.93203509137E+03  0.93203509137E+03  0.00000000000E+00 0. -1.
    9000007    1    1    2  501    0 -0.67835100501E+01  0.20779726329E+03 -0.40012498594E+03  0.60276506452E+03  0.40000000000E+03 0.  1.
   -9000007    1    1    2    0  503  0.67835100501E+01 -0.20779726329E+03 -0.31259749350E+03  0.54858263879E+03  0.40000000000E+03 0.  1.
<mgrwt>
<rscale>  2 0.45080563E+03</rscale>
<asrwt>0</asrwt>
<pdfrwt beam="1">  1       21 0.33740402E-01 0.45080563E+03</pdfrwt>
<pdfrwt beam="2">  1       21 0.14339001E+00 0.45080563E+03</pdfrwt>
<totfact> 0.24483914E+03</totfact>
</mgrwt>
</event>
<event>
 4    1  0.4689683E-002  0.4490709E+03  0.7818608E-02  0.1027999E+00
         21   -1    0    0  503  502  0.00000000000E+00  0.00000000000E+00  0.94273282994E+03  0.94273282994E+03  0.00000000000E+00 0.  1.
         21   -1    0    0  501  503 -0.00000000000E+00 -0.00000000000E+00 -0.21774189094E+03  0.21774189094E+03  0.00000000000E+00 0.  1.
    9000007    1    1    2  501    0 -0.49697847264E+02  0.19797686476E+03  0.28557243093E+03  0.53218072899E+03  0.40000000000E+03 0.  1.
   -9000007    1    1    2    0  502  0.49697847264E+02 -0.19797686476E+03  0.43941850807E+03  0.62829399188E+03  0.40000000000E+03 0.  1.
<mgrwt>
<rscale>  2 0.44907095E+03</rscale>
<asrwt>0</asrwt>
<pdfrwt beam="1">  1       21 0.14503582E+00 0.44907095E+03</pdfrwt>
<pdfrwt beam="2">  1       21 0.33498753E-01 0.44907095E+03</pdfrwt>
<totfact> 0.24107425E+03</totfact>
</mgrwt>
</event>
<event>
 4    1  0.4689683E-002  0.4523960E+03  0.7818608E-02  0.1027010E+00
         21   -1    0    0  501  502  0.00000000000E+00  0.00000000000E+00  0.77759177743E+03  0.77759177743E+03  0.00000000000E+00 0. -1.
         21   -1    0    0  502  503 -0.00000000000E+00 -0.00000000000E+00 -0.47671417609E+03  0.47671417609E+03  0.00000000000E+00 0. -1.
    9000007    1    1    2  501    0 -0.19882489574E+03  0.71629718722E+02  0.57015701076E+03  0.72783320389E+03  0.40000000000E+03 0. -1.
   -9000007    1    1    2    0  503  0.19882489574E+03 -0.71629718722E+02 -0.26927940942E+03  0.52647274963E+03  0.40000000000E+03 0. -1.
<mgrwt>
<rscale>  2 0.45239602E+03</rscale>
<asrwt>0</asrwt>
<pdfrwt beam="1">  1       21 0.11962950E+00 0.45239602E+03</pdfrwt>
<pdfrwt beam="2">  1       21 0.73340643E-01 0.45239602E+03</pdfrwt>
<totfact> 0.74954482E+02</totfact>
</mgrwt>
</event>
<event>
 4    1  0.4689683E-002  0.4021969E+03  0.7818608E-02  0.1043022E+00
         21   -1    0    0  503  502  0.00000000000E+00  0.00000000000E+00  0.64428166133E+03  0.64428166133E+03  0.00000000000E+00 0.  1.
         21   -1    0    0  501  503 -0.00000000000E+00 -0.00000000000E+00 -0.10941609937E+04  0.10941609937E+04  0.00000000000E+00 0.  1.
    9000007    1    1    2  501    0  0.16519643877E+02 -0.38593163800E+02 -0.98794218477E+03  0.10666733761E+04  0.40000000000E+03 0.  1.
   -9000007    1    1    2    0  502 -0.16519643877E+02  0.38593163800E+02  0.53806285240E+03  0.67176927889E+03  0.40000000000E+03 0.  1.
<mgrwt>
<rscale>  2 0.40219688E+03</rscale>
<asrwt>0</asrwt>
<pdfrwt beam="1">  1       21 0.99120256E-01 0.40219688E+03</pdfrwt>
<pdfrwt beam="2">  1       21 0.16833246E+00 0.40219688E+03</pdfrwt>
<totfact> 0.15266667E+02</totfact>
</mgrwt>
</event>
<event>
 4    1  0.4689683E-002  0.4741667E+03  0.7818608E-02  0.1020751E+00
         21   -1    0    0  503  502  0.00000000000E+00  0.00000000000E+00  0.77562564527E+03  0.77562564527E+03  0.00000000000E+00 0.  1.
         21   -1    0    0  501  503 -0.00000000000E+00 -0.00000000000E+00 -0.55637626927E+03  0.55637626927E+03  0.00000000000E+00 0.  1.
    9000007    1    1    2  501    0 -0.13416815697E+03  0.21640915701E+03 -0.35131137193E+03  0.59013023785E+03  0.40000000000E+03 0.  1.
   -9000007    1    1    2    0  502  0.13416815697E+03 -0.21640915701E+03  0.57056074793E+03  0.74187167668E+03  0.40000000000E+03 0.  1.
<mgrwt>
<rscale>  2 0.47416666E+03</rscale>
<asrwt>0</asrwt>
<pdfrwt beam="1">  1       21 0.11932702E+00 0.47416666E+03</pdfrwt>
<pdfrwt beam="2">  1       21 0.85596348E-01 0.47416666E+03</pdfrwt>
<totfact> 0.52316879E+02</totfact>
</mgrwt>
</event>
<event>
 4    1  0.4689683E-002  0.4916381E+03  0.7818608E-02  0.1015985E+00
         21   -1    0    0  503  502  0.00000000000E+00  0.00000000000E+00  0.53845616454E+03  0.53845616454E+03  0.00000000000E+00 0. -1.
         21   -1    0    0  501  503 -0.00000000000E+00 -0.00000000000E+00 -0.86941400821E+03  0.86941400821E+03  0.00000000000E+00 0.  1.
    9000007    1    1    2  501    0 -0.27255965010E+03 -0.86135295771E+02  0.32409045913E+03  0.58884860341E+03  0.40000000000E+03 0. -1.
   -9000007    1    1    2    0  502  0.27255965010E+03  0.86135295771E+02 -0.65504830280E+03  0.81902156934E+03  0.40000000000E+03 0.  1.
<mgrwt>
<rscale>  2 0.49163813E+03</rscale>
<asrwt>0</asrwt>
<pdfrwt beam="1">  1       21 0.82839411E-01 0.49163813E+03</pdfrwt>
<pdfrwt beam="2">  1       21 0.13375600E+00 0.49163813E+03</pdfrwt>
<totfact> 0.41741332E+02</totfact>
</mgrwt>
</event>
<event>
 4    1  0.4689683E-002  0.5207671E+03  0.7818608E-02  0.1008496E+00
         21   -1    0    0  503  502  0.00000000000E+00  0.00000000000E+00  0.29269995323E+03  0.29269995323E+03  0.00000000000E+00 0.  1.
         21   -1    0    0  501  503 -0.00000000000E+00 -0.00000000000E+00 -0.93048220906E+03  0.93048220906E+03  0.00000000000E+00 0.  1.
    9000007    1    1    2  501    0  0.29869465569E+03  0.14825607891E+03 -0.27908507160E+03  0.59083571275E+03  0.40000000000E+03 0. -1.
   -9000007    1    1    2    0  502 -0.29869465569E+03 -0.14825607891E+03 -0.35869718422E+03  0.63234644954E+03  0.40000000000E+03 0. -1.
<mgrwt>
<rscale>  2 0.52076709E+03</rscale>
<asrwt>0</asrwt>
<pdfrwt beam="1">  1       21 0.45030762E-01 0.52076709E+03</pdfrwt>
<pdfrwt beam="2">  1       21 0.14315111E+00 0.52076709E+03</pdfrwt>
<totfact> 0.13238594E+03</totfact>
</mgrwt>
</event>
<event>
 4    1  0.4689683E-002  0.4200920E+03  0.7818608E-02  0.1037036E+00
         21   -1    0    0  501  502  0.00000000000E+00  0.00000000000E+00  0.11353700055E+03  0.11353700055E+03  0.00000000000E+00 0.  1.
         21   -1    0    0  502  503 -0.00000000000E+00 -0.00000000000E+00 -0.18032623338E+04  0.18032623338E+04  0.00000000000E+00 0.  1.
    9000007    1    1    2  501    0  0.12489037571E+03  0.29659996743E+02 -0.12009299519E+04  0.12722853732E+04  0.40000000000E+03 0.  1.
   -9000007    1    1    2    0  503 -0.12489037571E+03 -0.29659996743E+02 -0.48879538134E+03  0.64451396119E+03  0.40000000000E+03 0.  1.
<mgrwt>
<rscale>  2 0.42009204E+03</rscale>
<asrwt>0</asrwt>
<pdfrwt beam="1">  1       21 0.17467231E-01 0.42009204E+03</pdfrwt>
<pdfrwt beam="2">  1       21 0.27742497E+00 0.42009204E+03</pdfrwt>
<totfact> 0.11321366E+03</totfact>
</mgrwt>
</event>
<event>
 4    1  0.4689683E-002  0.5110139E+03  0.7818608E-02  0.1010943E+00
         21   -1    0    0  503  502  0.00000000000E+00  0.00000000000E+00  0.71252257774E+03  0.71252257774E+03  0.00000000000E+00 0.  1.
         21   -1    0    0  501  503 -0.00000000000E+00 -0.00000000000E+00 -0.36668547570E+03  0.36668547570E+03  0.00000000000E+00 0. -1.
    9000007    1    1    2  501    0  0.30109247507E+03  0.10236458208E+03  0.16058505937E+03  0.53565170354E+03  0.40000000000E+03 0. -1.
   -9000007    1    1    2    0  502 -0.30109247507E+03 -0.10236458208E+03  0.18525204267E+03  0.54355634991E+03  0.40000000000E+03 0.  1.
<mgrwt>
<rscale>  2 0.51101388E+03</rscale>
<asrwt>0</asrwt>
<pdfrwt beam="1">  1       21 0.10961886E+00 0.51101388E+03</pdfrwt>
<pdfrwt beam="2">  1       21 0.56413150E-01 0.51101388E+03</pdfrwt>
<totfact> 0.16346825E+03</totfact>
</mgrwt>
</event>
<event>
 4    1  0.4689683E-002  0.5474627E+03  0.7818608E-02  0.1002083E+00
         21   -1    0    0  501  502  0.00000000000E+00  0.00000000000E+00  0.14280555157E+04  0.14280555157E+04  0.00000000000E+00 0. -1.
         21   -1    0    0  502  503 -0.00000000000E+00 -0.00000000000E+00 -0.25116692832E+03  0.25116692832E+03  0.00000000000E+00 0. -1.
    9000007    1    1    2  501    0 -0.26372097576E+02  0.37285382269E+03  0.92886901113E+03  0.10781990078E+04  0.40000000000E+03 0. -1.
   -9000007    1    1    2    0  503  0.26372097576E+02 -0.37285382269E+03  0.24801957620E+03  0.60102343615E+03  0.40000000000E+03 0. -1.
<mgrwt>
<rscale>  2 0.54746275E+03</rscale>
<asrwt>0</asrwt>
<pdfrwt beam="1">  1       21 0.21970084E+00 0.54746275E+03</pdfrwt>
<pdfrwt beam="2">  1       21 0.38641067E-01 0.54746275E+03</pdfrwt>
<totfact> 0.51171666E+02</totfact>
</mgrwt>
</event>
<event>
 4    1  0.4689683E-002  0.4518553E+03  0.7818608E-02  0.1027170E+00
         21   -1    0    0  503  502  0.00000000000E+00  0.00000000000E+00  0.35592806774E+03  0.35592806774E+03  0.00000000000E+00 0. -1.
         21   -1    0    0  501  503 -0.00000000000E+00 -0.00000000000E+00 -0.82525213776E+03  0.82525213776E+03  0.00000000000E+00 0.  1.
    9000007    1    1    2  501    0 -0.10401683207E+03  0.18263004797E+03 -0.56077035645E+03  0.72016430656E+03  0.40000000000E+03 0.  1.
   -9000007    1    1    2    0  502  0.10401683207E+03 -0.18263004797E+03  0.91446286426E+02  0.46101589894E+03  0.40000000000E+03 0. -1.
<mgrwt>
<rscale>  2 0.45185533E+03</rscale>
<asrwt>0</asrwt>
<pdfrwt beam="1">  1       21 0.54758165E-01 0.45185533E+03</pdfrwt>
<pdfrwt beam="2">  1       21 0.12696187E+00 0.45185533E+03</pdfrwt>
<totfact> 0.12289088E+03</totfact>
</mgrwt>
</event>
<event>
 4    1  0.4689683E-002  0.4864961E+03  0.7818608E-02  0.1017365E+00
         21   -1    0    0  501  502  0.00000000000E+00  0.00000000000E+00  0.42128489490E+03  0.42128489490E+03  0.00000000000E+00 0. -1.
         21   -1    0    0  502  503 -0.00000000000E+00 -0.00000000000E+00 -0.56996365467E+03  0.56996365467E+03  0.00000000000E+00 0. -1.
    9000007    1    1    2  501    0  0.73925429385E+02 -0.26685861151E+03 -0.13364983909E+03  0.50452033372E+03  0.40000000000E+03 0. -1.
   -9000007    1    1    2    0  503 -0.73925429385E+02  0.26685861151E+03 -0.15028920681E+02  0.48672821585E+03  0.40000000000E+03 0. -1.
<mgrwt>
<rscale>  2 0.48649613E+03</rscale>
<asrwt>0</asrwt>
<pdfrwt beam="1">  1       21 0.64813061E-01 0.48649613E+03</pdfrwt>
<pdfrwt beam="2">  1       21 0.87686715E-01 0.48649613E+03</pdfrwt>
<totfact> 0.20870620E+03</totfact>
</mgrwt>
</event>
<event>
 4    1  0.4689683E-002  0.4428072E+03  0.7818608E-02  0.1029889E+00
         21   -1    0    0  501  502  0.00000000000E+00  0.00000000000E+00  0.22983536665E+03  0.22983536665E+03  0.00000000000E+00 0. -1.
         21   -1    0    0  502  503 -0.00000000000E+00 -0.00000000000E+00 -0.10555309248E+04  0.10555309248E+04  0.00000000000E+00 0. -1.
    9000007    1    1    2  501    0 -0.35792283679E+02  0.18653977320E+03 -0.13141569114E+03  0.46189637197E+03  0.40000000000E+03 0. -1.
   -9000007    1    1    2    0  503  0.35792283679E+02 -0.18653977320E+03 -0.69427986700E+03  0.82346991948E+03  0.40000000000E+03 0. -1.
<mgrwt>
<rscale>  2 0.44280715E+03</rscale>
<asrwt>0</asrwt>
<pdfrwt beam="1">  1       21 0.35359288E-01 0.44280715E+03</pdfrwt>
<pdfrwt beam="2">  1       21 0.16238937E+00 0.44280715E+03</pdfrwt>
<totfact> 0.15898235E+03</totfact>
</mgrwt>
</event>
<event>
 4    1  0.4689683E-002  0.5445676E+03  0.7818608E-02  0.1002759E+00
         21   -1    0    0  503  502  0.00000000000E+00  0.00000000000E+00  0.35819044953E+03  0.35819044953E+03  0.00000000000E+00 0. -1.
         21   -1    0    0  501  503 -0.00000000000E+00 -0.00000000000E+00 -0.82863360565E+03  0.82863360565E+03  0.00000000000E+00 0. -1.
    9000007    1    1    2  501    0  0.36852100895E+03 -0.27315127569E+02 -0.25260808041E+03  0.60030383350E+03  0.40000000000E+03 0. -1.
   -9000007    1    1    2    0  502 -0.36852100895E+03  0.27315127569E+02 -0.21783507571E+03  0.58652022168E+03  0.40000000000E+03 0. -1.
<mgrwt>
<rscale>  2 0.54456758E+03</rscale>
<asrwt>0</asrwt>
<pdfrwt beam="1">  1       21 0.55106223E-01 0.54456758E+03</pdfrwt>
<pdfrwt beam="2">  1       21 0.12748209E+00 0.54456758E+03</pdfrwt>
<totfact> 0.11590389E+03</totfact>
</mgrwt>
</event>
<event>
 4    1  0.4689683E-002  0.6197976E+03  0.7818608E-02  0.9865163E-01
         21   -1    0    0  503  502  0.00000000000E+00  0.00000000000E+00  0.92975004228E+03  0.92975004228E+03  0.00000000000E+00 0. -1.
         21   -1    0    0  501  503 -0.00000000000E+00 -0.00000000000E+00 -0.46592387837E+03  0.46592387837E+03  0.00000000000E+00 0.  1.
    9000007    1    1    2  501    0 -0.16874449635E+03 -0.44235097649E+03 -0.28905394387E+01  0.61980436161E+03  0.40000000000E+03 0.  1.
   -9000007    1    1    2    0  502  0.16874449635E+03  0.44235097649E+03  0.46671670335E+03  0.77586955904E+03  0.40000000000E+03 0. -1.
<mgrwt>
<rscale>  2 0.61979762E+03</rscale>
<asrwt>0</asrwt>
<pdfrwt beam="1">  1       21 0.14303847E+00 0.61979762E+03</pdfrwt>
<pdfrwt beam="2">  1       21 0.71680597E-01 0.61979762E+03</pdfrwt>
<totfact> 0.46459852E+02</totfact>
</mgrwt>
</event>
<event>
 4    1  0.4689683E-002  0.4171952E+03  0.7818608E-02  0.1037983E+00
         21   -1    0    0  503  502  0.00000000000E+00  0.00000000000E+00  0.20932622834E+04  0.20932622834E+04  0.00000000000E+00 0.  1.
         21   -1    0    0  501  503 -0.00000000000E+00 -0.00000000000E+00 -0.85726969098E+02  0.85726969098E+02  0.00000000000E+00 0.  1.
    9000007    1    1    2  501    0  0.11115654384E+03 -0.41183433108E+02  0.11927137570E+04  0.12635734876E+04  0.40000000000E+03 0.  1.
   -9000007    1    1    2    0  502 -0.11115654384E+03  0.41183433108E+02  0.81482155732E+03  0.91541576493E+03  0.40000000000E+03 0.  1.
<mgrwt>
<rscale>  2 0.41719522E+03</rscale>
<asrwt>0</asrwt>
<pdfrwt beam="1">  1       21 0.32204031E+00 0.41719522E+03</pdfrwt>
<pdfrwt beam="2">  1       21 0.13188766E-01 0.41719522E+03</pdfrwt>
<totfact> 0.10307639E+03</totfact>
</mgrwt>
</event>
<event>
 4    1  0.4689683E-002  0.7071860E+03  0.7818608E-02  0.9705021E-01
         21   -1    0    0  501  502  0.00000000000E+00  0.00000000000E+00  0.18166903711E+04  0.18166903711E+04  0.00000000000E+00 0.  1.
         21   -1    0    0  502  503 -0.00000000000E+00 -0.00000000000E+00 -0.33400788828E+03  0.33400788828E+03  0.00000000000E+00 0.  1.
    9000007    1    1    2  501    0  0.49995803469E+03 -0.30025664297E+03  0.11922261636E+04  0.13861873298E+04  0.40000000000E+03 0.  1.
   -9000007    1    1    2    0  503 -0.49995803469E+03  0.30025664297E+03  0.29045631924E+03  0.76451092960E+03  0.40000000000E+03 0.  1.
<mgrwt>
<rscale>  2 0.70718603E+03</rscale>
<asrwt>0</asrwt>
<pdfrwt beam="1">  1       21 0.27949082E+00 0.70718603E+03</pdfrwt>
<pdfrwt beam="2">  1       21 0.51385830E-01 0.70718603E+03</pdfrwt>
<totfact> 0.11138577E+02</totfact>
</mgrwt>
</event>
<event>
 4    1  0.4689683E-002  0.4546250E+03  0.7818608E-02  0.1026352E+00
         21   -1    0    0  503  502  0.00000000000E+00  0.00000000000E+00  0.92579121288E+02  0.92579121288E+02  0.00000000000E+00 0.  1.
         21   -1    0    0  501  503 -0.00000000000E+00 -0.00000000000E+00 -0.22568525364E+04  0.22568525364E+04  0.00000000000E+00 0.  1.
    9000007    1    1    2  501    0  0.10875271571E+02 -0.21579067094E+03 -0.12041359936E+04  0.12871003754E+04  0.40000000000E+03 0. -1.
   -9000007    1    1    2    0  502 -0.10875271571E+02  0.21579067094E+03 -0.96013742144E+03  0.10623312823E+04  0.40000000000E+03 0. -1.
<mgrwt>
<rscale>  2 0.45462499E+03</rscale>
<asrwt>0</asrwt>
<pdfrwt beam="1">  1       21 0.14242942E-01 0.45462499E+03</pdfrwt>
<pdfrwt beam="2">  1       21 0.34720809E+00 0.45462499E+03</pdfrwt>
<totfact> 0.61564251E+02</totfact>
</mgrwt>
</event>
<event>
 4    1  0.4689683E-002  0.4344095E+03  0.7818608E-02  0.1032476E+00
         21   -1    0    0  503  502  0.00000000000E+00  0.00000000000E+00  0.12037506855E+03  0.12037506855E+03  0.00000000000E+00 0.  1.
         21   -1    0    0  501  503 -0.00000000000E+00 -0.00000000000E+00 -0.15903886406E+04  0.15903886406E+04  0.00000000000E+00 0.  1.
    9000007    1    1    2  501    0  0.38926005504E+02 -0.16491324269E+03 -0.63283214429E+03  0.76758591334E+03  0.40000000000E+03 0.  1.
   -9000007    1    1    2    0  502 -0.38926005504E+02  0.16491324269E+03 -0.83718142779E+03  0.94317779583E+03  0.40000000000E+03 0.  1.
<mgrwt>
<rscale>  2 0.43440950E+03</rscale>
<asrwt>0</asrwt>
<pdfrwt beam="1">  1       21 0.18519243E-01 0.43440950E+03</pdfrwt>
<pdfrwt beam="2">  1       21 0.24467516E+00 0.43440950E+03</pdfrwt>
<totfact> 0.15919930E+03</totfact>
</mgrwt>
</event>
<event>
 4    1  0.4689683E-002  0.4653138E+03  0.7818608E-02  0.1023251E+00
         21   -1    0    0  503  502  0.00000000000E+00  0.00000000000E+00  0.68868597045E+03  0.68868597045E+03  0.00000000000E+00 0.  1.
         21   -1    0    0  501  503 -0.00000000000E+00 -0.00000000000E+00 -0.42781747043E+03  0.42781747043E+03  0.00000000000E+00 0.  1.
    9000007    1    1    2  501    0 -0.12365666962E+03  0.20304172112E+03 -0.15701246514E+03  0.49109044653E+03  0.40000000000E+03 0.  1.
   -9000007    1    1    2    0  502  0.12365666962E+03 -0.20304172112E+03  0.41788096516E+03  0.62541299435E+03  0.40000000000E+03 0.  1.
<mgrwt>
<rscale>  2 0.46531378E+03</rscale>
<asrwt>0</asrwt>
<pdfrwt beam="1">  1       21 0.10595169E+00 0.46531378E+03</pdfrwt>
<pdfrwt beam="2">  1       21 0.65818072E-01 0.46531378E+03</pdfrwt>
<totfact> 0.12877570E+03</totfact>
</mgrwt>
</event>
<event>
 4    1  0.4689683E-002  0.5509502E+03  0.7818608E-02  0.1001274E+00
         21   -1    0    0  503  502  0.00000000000E+00  0.00000000000E+00  0.60780766214E+03  0.60780766214E+03  0.00000000000E+00 0. -1.
         21   -1    0    0  501  503 -0.00000000000E+00 -0.00000000000E+00 -0.50444951491E+03  0.50444951491E+03  0.00000000000E+00 0. -1.
    9000007    1    1    2  501    0  0.34952501427E+03 -0.14621335347E+03  0.10725670794E+03  0.56129322260E+03  0.40000000000E+03 0. -1.
   -9000007    1    1    2    0  502 -0.34952501427E+03  0.14621335347E+03 -0.38985606997E+01  0.55096395446E+03  0.40000000000E+03 0. -1.
<mgrwt>
<rscale>  2 0.55095016E+03</rscale>
<asrwt>0</asrwt>
<pdfrwt beam="1">  1       21 0.93508871E-01 0.55095016E+03</pdfrwt>
<pdfrwt beam="2">  1       21 0.77607618E-01 0.55095016E+03</pdfrwt>
<totfact> 0.11656107E+03</totfact>
</mgrwt>
</event>
<event>
 4    1  0.4689683E-002  0.5381098E+03  0.7818608E-02  0.1004284E+00
         21   -1    0    0  503  502  0.00000000000E+00  0.00000000000E+00  0.77372731910E+03  0.77372731910E+03  0.00000000000E+00 0.  1.
         21   -1    0    0  501  503 -0.00000000000E+00 -0.00000000000E+00 -0.42229000033E+03  0.42229000033E+03  0.00000000000E+00 0.  1.
    9000007    1    1    2  501    0  0.35994690087E+03 -0.65319875155E+00 -0.25994508369E+02  0.53873733171E+03  0.40000000000E+03 0.  1.
   -9000007    1    1    2    0  502 -0.35994690087E+03  0.65319875155E+00  0.37743182714E+03  0.65727998772E+03  0.40000000000E+03 0.  1.
<mgrwt>
<rscale>  2 0.53810984E+03</rscale>
<asrwt>0</asrwt>
<pdfrwt beam="1">  1       21 0.11903497E+00 0.53810984E+03</pdfrwt>
<pdfrwt beam="2">  1       21 0.64967692E-01 0.53810984E+03</pdfrwt>
<totfact> 0.96497371E+02</totfact>
</mgrwt>
</event>
<event>
 4    1  0.4689683E-002  0.4053223E+03  0.7818608E-02  0.1041952E+00
         21   -1    0    0  503  502  0.00000000000E+00  0.00000000000E+00  0.28489727587E+03  0.28489727587E+03  0.00000000000E+00 0.  1.
         21   -1    0    0  501  503 -0.00000000000E+00 -0.00000000000E+00 -0.58011385066E+03  0.58011385066E+03  0.00000000000E+00 0.  1.
    9000007    1    1    2  501    0 -0.64357412984E+02  0.12013646991E+02 -0.18102569895E+03  0.44391047296E+03  0.40000000000E+03 0.  1.
   -9000007    1    1    2    0  502  0.64357412984E+02 -0.12013646991E+02 -0.11419087584E+03  0.42110065358E+03  0.40000000000E+03 0.  1.
<mgrwt>
<rscale>  2 0.40532235E+03</rscale>
<asrwt>0</asrwt>
<pdfrwt beam="1">  1       21 0.43830351E-01 0.40532235E+03</pdfrwt>
<pdfrwt beam="2">  1       21 0.89248284E-01 0.40532235E+03</pdfrwt>
<totfact> 0.47784145E+03</totfact>
</mgrwt>
</event>
<event>
 4    1  0.4689683E-002  0.6066426E+03  0.7818608E-02  0.9891720E-01
         21   -1    0    0  503  502  0.00000000000E+00  0.00000000000E+00  0.71451433415E+03  0.71451433415E+03  0.00000000000E+00 0. -1.
         21   -1    0    0  501  503 -0.00000000000E+00 -0.00000000000E+00 -0.87318047159E+03  0.87318047159E+03  0.00000000000E+00 0.  1.
    9000007    1    1    2  501    0  0.17188686024E+00  0.45608681115E+03 -0.58772863449E+03  0.84465386795E+03  0.40000000000E+03 0.  1.
   -9000007    1    1    2    0  502 -0.17188686024E+00 -0.45608681115E+03  0.42906249705E+03  0.74304093779E+03  0.40000000000E+03 0. -1.
<mgrwt>
<rscale>  2 0.60664257E+03</rscale>
<asrwt>0</asrwt>
<pdfrwt beam="1">  1       21 0.10992528E+00 0.60664257E+03</pdfrwt>
<pdfrwt beam="2">  1       21 0.13433546E+00 0.60664257E+03</pdfrwt>
<totfact> 0.19915899E+02</totfact>
</mgrwt>
</event>
<event>
 4    1  0.4689683E-002  0.4121191E+03  0.7818608E-02  0.1039662E+00
         21   -1    0    0  501  502  0.00000000000E+00  0.00000000000E+00  0.74819211557E+02  0.74819211557E+02  0.00000000000E+00 0.  1.
         21   -1    0    0  502  503 -0.00000000000E+00 -0.00000000000E+00 -0.23020528832E+04  0.23020528832E+04  0.00000000000E+00 0.  1.
    9000007    1    1    2  501    0  0.34170675835E+02  0.93137045678E+02 -0.97345746501E+03  0.10571005537E+04  0.40000000000E+03 0. -1.
   -9000007    1    1    2    0  503 -0.34170675835E+02 -0.93137045678E+02 -0.12537762066E+04  0.13197715410E+04  0.40000000000E+03 0. -1.
<mgrwt>
<rscale>  2 0.41211909E+03</rscale>
<asrwt>0</asrwt>
<pdfrwt beam="1">  1       21 0.11510648E-01 0.41211909E+03</pdfrwt>
<pdfrwt beam="2">  1       21 0.35416199E+00 0.41211909E+03</pdfrwt>
<totfact> 0.84571320E+02</totfact>
</mgrwt>
</event>
<event>
 4    1  0.4689683E-002  0.4322899E+03  0.7818608E-02  0.1033139E+00
         21   -1    0    0  501  502  0.00000000000E+00  0.00000000000E+00  0.34516706935E+03  0.34516706935E+03  0.00000000000E+00 0.  1.
         21   -1    0    0  502  503 -0.00000000000E+00 -0.00000000000E+00 -0.62153154838E+03  0.62153154838E+03  0.00000000000E+00 0. -1.
    9000007    1    1    2  501    0  0.15022367825E+03 -0.65630488606E+02  0.35367087160E+02  0.43373418749E+03  0.40000000000E+03 0.  1.
   -9000007    1    1    2    0  503 -0.15022367825E+03  0.65630488606E+02 -0.31173156619E+03  0.53296443024E+03  0.40000000000E+03 0. -1.
<mgrwt>
<rscale>  2 0.43228985E+03</rscale>
<asrwt>0</asrwt>
<pdfrwt beam="1">  1       21 0.53102626E-01 0.43228985E+03</pdfrwt>
<pdfrwt beam="2">  1       21 0.95620238E-01 0.43228985E+03</pdfrwt>
<totfact> 0.26766962E+03</totfact>
</mgrwt>
</event>
<event>
 4    1  0.4689683E-002  0.4404429E+03  0.7818608E-02  0.1030611E+00
         21   -1    0    0  503  502  0.00000000000E+00  0.00000000000E+00  0.18140801351E+03  0.18140801351E+03  0.00000000000E+00 0. -1.
         21   -1    0    0  501  503 -0.00000000000E+00 -0.00000000000E+00 -0.12246957529E+04  0.12246957529E+04  0.00000000000E+00 0.  1.
    9000007    1    1    2  501    0 -0.17807175349E+03 -0.47753406562E+02 -0.77203164097E+03  0.88883226307E+03  0.40000000000E+03 0.  1.
   -9000007    1    1    2    0  502  0.17807175349E+03  0.47753406562E+02 -0.27125609842E+03  0.51727150333E+03  0.40000000000E+03 0. -1.
<mgrwt>
<rscale>  2 0.44044289E+03</rscale>
<asrwt>0</asrwt>
<pdfrwt beam="1">  1       21 0.27908924E-01 0.44044289E+03</pdfrwt>
<pdfrwt beam="2">  1       21 0.18841474E+00 0.44044289E+03</pdfrwt>
<totfact> 0.16627016E+03</totfact>
</mgrwt>
</event>
<event>
 4    1  0.4689683E-002  0.4078704E+03  0.7818608E-02  0.1041088E+00
         21   -1    0    0  503  502  0.00000000000E+00  0.00000000000E+00  0.34013321810E+03  0.34013321810E+03  0.00000000000E+00 0. -1.
         21   -1    0    0  501  503 -0.00000000000E+00 -0.00000000000E+00 -0.69885304482E+03  0.69885304482E+03  0.00000000000E+00 0. -1.
    9000007    1    1    2  501    0 -0.11285326487E+02 -0.78936248735E+02 -0.46396565338E+03  0.61775595301E+03  0.40000000000E+03 0. -1.
   -9000007    1    1    2    0  502  0.11285326487E+02  0.78936248735E+02  0.10524582666E+03  0.42123030991E+03  0.40000000000E+03 0. -1.
<mgrwt>
<rscale>  2 0.40787043E+03</rscale>
<asrwt>0</asrwt>
<pdfrwt beam="1">  1       21 0.52328188E-01 0.40787043E+03</pdfrwt>
<pdfrwt beam="2">  1       21 0.10751585E+00 0.40787043E+03</pdfrwt>
<totfact> 0.20964999E+03</totfact>
</mgrwt>
</event>
<event>
 4    1  0.4689683E-002  0.4021790E+03  0.7818608E-02  0.1043028E+00
         21   -1    0    0  503  502  0.00000000000E+00  0.00000000000E+00  0.39573839668E+03  0.39573839668E+03  0.00000000000E+00 0. -1.
         21   -1    0    0  501  503 -0.00000000000E+00 -0.00000000000E+00 -0.54305421842E+03  0.54305421842E+03  0.00000000000E+00 0. -1.
    9000007    1    1    2  501    0 -0.33376097924E+02 -0.25178468026E+02 -0.30711354901E+03  0.50603028679E+03  0.40000000000E+03 0. -1.
   -9000007    1    1    2    0  502  0.33376097924E+02  0.25178468026E+02  0.15979772727E+03  0.43276232831E+03  0.40000000000E+03 0. -1.
<mgrwt>
<rscale>  2 0.40217896E+03</rscale>
<asrwt>0</asrwt>
<pdfrwt beam="1">  1       21 0.60882830E-01 0.40217896E+03</pdfrwt>
<pdfrwt beam="2">  1       21 0.83546803E-01 0.40217896E+03</pdfrwt>
<totfact> 0.27692634E+03</totfact>
</mgrwt>
</event>
<event>
 4    1  0.4689683E-002  0.4438557E+03  0.7818608E-02  0.1029570E+00
         21   -1    0    0  501  502  0.00000000000E+00  0.00000000000E+00  0.90028118394E+03  0.90028118394E+03  0.00000000000E+00 0. -1.
         21   -1    0    0  502  503 -0.00000000000E+00 -0.00000000000E+00 -0.32202158712E+03  0.32202158712E+03  0.00000000000E+00 0. -1.
    9000007    1    1    2  501    0 -0.32040355588E+02 -0.18968742998E+03  0.63509300749E+03  0.77482322735E+03  0.40000000000E+03 0. -1.
   -9000007    1    1    2    0  503  0.32040355588E+02  0.18968742998E+03 -0.56833410658E+02  0.44747954372E+03  0.40000000000E+03 0. -1.
<mgrwt>
<rscale>  2 0.44385573E+03</rscale>
<asrwt>0</asrwt>
<pdfrwt beam="1">  1       21 0.13850480E+00 0.44385573E+03</pdfrwt>
<pdfrwt beam="2">  1       21 0.49541783E-01 0.44385573E+03</pdfrwt>
<totfact> 0.12173260E+03</totfact>
</mgrwt>
</event>
<event>
 4    1  0.4689683E-002  0.4561044E+03  0.7818608E-02  0.1025917E+00
         21   -1    0    0  503  502  0.00000000000E+00  0.00000000000E+00  0.11737365769E+04  0.11737365769E+04  0.00000000000E+00 0. -1.
         21   -1    0    0  501  503 -0.00000000000E+00 -0.00000000000E+00 -0.17724354902E+03  0.17724354902E+03  0.00000000000E+00 0. -1.
    9000007    1    1    2  501    0 -0.71202661050E+01  0.21904448766E+03  0.50188946262E+03  0.67817712911E+03  0.40000000000E+03 0. -1.
   -9000007    1    1    2    0  502  0.71202661050E+01 -0.21904448766E+03  0.49460356531E+03  0.67280299686E+03  0.40000000000E+03 0. -1.
<mgrwt>
<rscale>  2 0.45610436E+03</rscale>
<asrwt>0</asrwt>
<pdfrwt beam="1">  1       21 0.18057485E+00 0.45610436E+03</pdfrwt>
<pdfrwt beam="2">  1       21 0.27268239E-01 0.45610436E+03</pdfrwt>
<totfact> 0.19600664E+03</totfact>
</mgrwt>
</event>
<event>
 4    1  0.4689683E-002  0.4235147E+03  0.7818608E-02  0.1035928E+00
         21   -1    0    0  503  502  0.00000000000E+00  0.00000000000E+00  0.27535623829E+03  0.27535623829E+03  0.00000000000E+00 0. -1.
         21   -1    0    0  501  503 -0.00000000000E+00 -0.00000000000E+00 -0.13231751759E+04  0.13231751759E+04  0.00000000000E+00 0.  1.
    9000007    1    1    2  501    0 -0.70246483270E+02  0.12012540072E+03 -0.10934141120E+04  0.11725694438E+04  0.40000000000E+03 0.  1.
   -9000007    1    1    2    0  502  0.70246483270E+02 -0.12012540072E+03  0.45595174320E+02  0.42596197041E+03  0.40000000000E+03 0. -1.
<mgrwt>
<rscale>  2 0.42351468E+03</rscale>
<asrwt>0</asrwt>
<pdfrwt beam="1">  1       21 0.42362497E-01 0.42351468E+03</pdfrwt>
<pdfrwt beam="2">  1       21 0.20356542E+00 0.42351468E+03</pdfrwt>
<totfact> 0.57073752E+02</totfact>
</mgrwt>
</event>
<event>
 4    1  0.4689683E-002  0.4007243E+03  0.7818608E-02  0.1043529E+00
         21   -1    0    0  501  502  0.00000000000E+00  0.00000000000E+00  0.17177598866E+04  0.17177598866E+04  0.00000000000E+00 0. -1.
         21   -1    0    0  502  503 -0.00000000000E+00 -0.00000000000E+00 -0.97143042190E+02  0.97143042190E+02  0.00000000000E+00 0. -1.
    9000007    1    1    2  501    0 -0.10742161344E+02 -0.21554167850E+02  0.98646868902E+03  0.10647537042E+04  0.40000000000E+03 0. -1.
   -9000007    1    1    2    0  503  0.10742161344E+02  0.21554167850E+02  0.63414815542E+03  0.75014922462E+03  0.40000000000E+03 0. -1.
<mgrwt>
<rscale>  2 0.40072431E+03</rscale>
<asrwt>0</asrwt>
<pdfrwt beam="1">  1       21 0.26427073E+00 0.40072431E+03</pdfrwt>
<pdfrwt beam="2">  1       21 0.14945085E-01 0.40072431E+03</pdfrwt>
<totfact> 0.18364636E+03</totfact>
</mgrwt>
</event>
<event>
 4    1  0.4689683E-002  0.4387508E+03  0.7818608E-02  0.1031131E+00
         21   -1    0    0  501  502  0.00000000000E+00  0.00000000000E+00  0.10145919634E+04  0.10145919634E+04  0.00000000000E+00 0.  1.
         21   -1    0    0  502  503 -0.00000000000E+00 -0.00000000000E+00 -0.20560635993E+03  0.20560635993E+03  0.00000000000E+00 0.  1.
    9000007    1    1    2  501    0  0.13042229655E+03 -0.12446796931E+03  0.57400755519E+03  0.72248662564E+03  0.40000000000E+03 0.  1.
   -9000007    1    1    2    0  503 -0.13042229655E+03  0.12446796931E+03  0.23497804823E+03  0.49771169764E+03  0.40000000000E+03 0.  1.
<mgrwt>
<rscale>  2 0.43875078E+03</rscale>
<asrwt>0</asrwt>
<pdfrwt beam="1">  1       21 0.15609107E+00 0.43875078E+03</pdfrwt>
<pdfrwt beam="2">  1       21 0.31631748E-01 0.43875078E+03</pdfrwt>
<totfact> 0.22241349E+03</totfact>
</mgrwt>
</event>
<event>
 4    1  0.4689683E-002  0.4594844E+03  0.7818608E-02  0.1024931E+00
         21   -1    0    0  503  502  0.00000000000E+00  0.00000000000E+00  0.88502887470E+03  0.88502887470E+03  0.00000000000E+00 0. -1.
         21   -1    0    0  501  503 -0.00000000000E+00 -0.00000000000E+00 -0.23984377712E+03  0.23984377712E+03  0.00000000000E+00 0. -1.
    9000007    1    1    2  501    0 -0.20058408197E+03 -0.10436438136E+03  0.28132488769E+03  0.53876673104E+03  0.40000000000E+03 0. -1.
   -9000007    1    1    2    0  502  0.20058408197E+03  0.10436438136E+03  0.36386020988E+03  0.58610592078E+03  0.40000000000E+03 0. -1.
<mgrwt>
<rscale>  2 0.45948438E+03</rscale>
<asrwt>0</asrwt>
<pdfrwt beam="1">  1       21 0.13615829E+00 0.45948438E+03</pdfrwt>
<pdfrwt beam="2">  1       21 0.36899043E-01 0.45948438E+03</pdfrwt>
<totfact> 0.23360807E+03</totfact>
</mgrwt>
</event>
<event>
 4    1  0.4689683E-002  0.4410913E+03  0.7818608E-02  0.1030413E+00
         21   -1    0    0  501  502  0.00000000000E+00  0.00000000000E+00  0.28887383804E+03  0.28887383804E+03  0.00000000000E+00 0. -1.
         21   -1    0    0  502  503 -0.00000000000E+00 -0.00000000000E+00 -0.89053342089E+03  0.89053342089E+03  0.00000000000E+00 0. -1.
    9000007    1    1    2  501    0 -0.13347572797E+03  0.12940541371E+03 -0.97214331823E+01  0.44119841038E+03  0.40000000000E+03 0. -1.
   -9000007    1    1    2    0  503  0.13347572797E+03 -0.12940541371E+03 -0.59193814967E+03  0.73820884855E+03  0.40000000000E+03 0. -1.
<mgrwt>
<rscale>  2 0.44109130E+03</rscale>
<asrwt>0</asrwt>
<pdfrwt beam="1">  1       21 0.44442129E-01 0.44109130E+03</pdfrwt>
<pdfrwt beam="2">  1       21 0.13700514E+00 0.44109130E+03</pdfrwt>
<totfact> 0.15769389E+03</totfact>
</mgrwt>
</event>
<event>
 4    1  0.4689683E-002  0.4541665E+03  0.7818608E-02  0.1026487E+00
         21   -1    0    0  501  502  0.00000000000E+00  0.00000000000E+00  0.91016896015E+03  0.91016896015E+03  0.00000000000E+00 0.  1.
         21   -1    0    0  502  503 -0.00000000000E+00 -0.00000000000E+00 -0.37795467314E+03  0.37795467314E+03  0.00000000000E+00 0.  1.
    9000007    1    1    2  501    0 -0.12134351857E+03  0.17760334387E+03  0.67364644146E+03  0.81244490604E+03  0.40000000000E+03 0.  1.
   -9000007    1    1    2    0  503  0.12134351857E+03 -0.17760334387E+03 -0.14143215446E+03  0.47567872726E+03  0.40000000000E+03 0.  1.
<mgrwt>
<rscale>  2 0.45416649E+03</rscale>
<asrwt>0</asrwt>
<pdfrwt beam="1">  1       21 0.14002599E+00 0.45416649E+03</pdfrwt>
<pdfrwt beam="2">  1       21 0.58146873E-01 0.45416649E+03</pdfrwt>
<totfact> 0.83424899E+02</totfact>
</mgrwt>
</event>
<event>
 4    1  0.4689683E-002  0.5443333E+03  0.7818608E-02  0.1002814E+00
         21   -1    0    0  503  502  0.00000000000E+00  0.00000000000E+00  0.24108260966E+03  0.24108260966E+03  0.00000000000E+00 0.  1.
         21   -1    0    0  501  503 -0.00000000000E+00 -0.00000000000E+00 -0.15735107750E+04  0.15735107750E+04  0.00000000000E+00 0. -1.
    9000007    1    1    2  501    0  0.36501474294E+03 -0.55343970696E+02 -0.10907304674E+04  0.12190125800E+04  0.40000000000E+03 0.  1.
   -9000007    1    1    2    0  502 -0.36501474294E+03  0.55343970696E+02 -0.24169769785E+03  0.59558080460E+03  0.40000000000E+03 0.  1.
<mgrwt>
<rscale>  2 0.54433328E+03</rscale>
<asrwt>0</asrwt>
<pdfrwt beam="1">  1       21 0.37089631E-01 0.54433328E+03</pdfrwt>
<pdfrwt beam="2">  1       21 0.24207859E+00 0.54433328E+03</pdfrwt>
<totfact> 0.40198649E+02</totfact>
</mgrwt>
</event>
<event>
 4    1  0.4689683E-002  0.4912450E+03  0.7818608E-02  0.1016090E+00
         21   -1    0    0  501  502  0.00000000000E+00  0.00000000000E+00  0.22817205838E+03  0.22817205838E+03  0.00000000000E+00 0.  1.
         21   -1    0    0  502  503 -0.00000000000E+00 -0.00000000000E+00 -0.11611493835E+04  0.11611493835E+04  0.00000000000E+00 0.  1.
    9000007    1    1    2  501    0 -0.14551978130E+03 -0.24524598788E+03 -0.25907390614E+03  0.55537454944E+03  0.40000000000E+03 0. -1.
   -9000007    1    1    2    0  503  0.14551978130E+03  0.24524598788E+03 -0.67390341902E+03  0.83394689249E+03  0.40000000000E+03 0. -1.
<mgrwt>
<rscale>  2 0.49124495E+03</rscale>
<asrwt>0</asrwt>
<pdfrwt beam="1">  1       21 0.35103393E-01 0.49124495E+03</pdfrwt>
<pdfrwt beam="2">  1       21 0.17863837E+00 0.49124495E+03</pdfrwt>
<totfact> 0.12043552E+03</totfact>
</mgrwt>
</event>
<event>
 4    1  0.4689683E-002  0.4185169E+03  0.7818608E-02  0.1037550E+00
         21   -1    0    0  501  502  0.00000000000E+00  0.00000000000E+00  0.98785325846E+03  0.98785325846E+03  0.00000000000E+00 0. -1.
         21   -1    0    0  502  503 -0.00000000000E+00 -0.00000000000E+00 -0.39511818827E+03  0.39511818827E+03  0.00000000000E+00 0. -1.
    9000007    1    1    2  501    0 -0.22773494298E+02 -0.12098648206E+03  0.80976853219E+03  0.91152698074E+03  0.40000000000E+03 0. -1.
   -9000007    1    1    2    0  503  0.22773494298E+02  0.12098648206E+03 -0.21703346200E+03  0.47144446599E+03  0.40000000000E+03 0. -1.
<mgrwt>
<rscale>  2 0.41851686E+03</rscale>
<asrwt>0</asrwt>
<pdfrwt beam="1">  1       21 0.15197742E+00 0.41851686E+03</pdfrwt>
<pdfrwt beam="2">  1       21 0.60787414E-01 0.41851686E+03</pdfrwt>
<totfact> 0.61728068E+02</totfact>
</mgrwt>
</event>
<event>
 4    1  0.4689683E-002  0.4363987E+03  0.7818608E-02  0.1031858E+00
         21   -1    0    0  503  502  0.00000000000E+00  0.00000000000E+00  0.25611665832E+03  0.25611665832E+03  0.00000000000E+00 0.  1.
         21   -1    0    0  501  503 -0.00000000000E+00 -0.00000000000E+00 -0.74662658315E+03  0.74662658315E+03  0.00000000000E+00 0.  1.
    9000007    1    1    2  501    0  0.11138934931E+03 -0.13429895426E+03 -0.21323981932E+03  0.48571083661E+03  0.40000000000E+03 0. -1.
   -9000007    1    1    2    0  502 -0.11138934931E+03  0.13429895426E+03 -0.27727010551E+03  0.51703240485E+03  0.40000000000E+03 0. -1.
<mgrwt>
<rscale>  2 0.43639867E+03</rscale>
<asrwt>0</asrwt>
<pdfrwt beam="1">  1       21 0.39402563E-01 0.43639867E+03</pdfrwt>
<pdfrwt beam="2">  1       21 0.11486563E+00 0.43639867E+03</pdfrwt>
<totfact> 0.31880450E+03</totfact>
</mgrwt>
</event>
<event>
 4    1  0.4689683E-002  0.4440500E+03  0.7818608E-02  0.1029511E+00
         21   -1    0    0  501  502  0.00000000000E+00  0.00000000000E+00  0.15717650517E+03  0.15717650517E+03  0.00000000000E+00 0. -1.
         21   -1    0    0  502  503 -0.00000000000E+00 -0.00000000000E+00 -0.13648768534E+04  0.13648768534E+04  0.00000000000E+00 0. -1.
    9000007    1    1    2  501    0 -0.18445404864E+02 -0.19193787710E+03 -0.38744810421E+03  0.58931860236E+03  0.40000000000E+03 0. -1.
   -9000007    1    1    2    0  503  0.18445404864E+02  0.19193787710E+03 -0.82025224406E+03  0.93273475625E+03  0.40000000000E+03 0. -1.
<mgrwt>
<rscale>  2 0.44404998E+03</rscale>
<asrwt>0</asrwt>
<pdfrwt beam="1">  1       21 0.24181000E-01 0.44404998E+03</pdfrwt>
<pdfrwt beam="2">  1       21 0.20998106E+00 0.44404998E+03</pdfrwt>
<totfact> 0.15763884E+03</totfact>
</mgrwt>
</event>
<event>
 4    1  0.4689683E-002  0.4034096E+03  0.7818608E-02  0.1042605E+00
         21   -1    0    0  503  502  0.00000000000E+00  0.00000000000E+00  0.71777783512E+03  0.71777783512E+03  0.00000000000E+00 0. -1.
         21   -1    0    0  501  503 -0.00000000000E+00 -0.00000000000E+00 -0.32993026092E+03  0.32993026092E+03  0.00000000000E+00 0. -1.
    9000007    1    1    2  501    0  0.51319760672E+02 -0.10274671367E+02 -0.99062235404E+02  0.41539452716E+03  0.40000000000E+03 0. -1.
   -9000007    1    1    2    0  502 -0.51319760672E+02  0.10274671367E+02  0.48690980960E+03  0.63231356888E+03  0.40000000000E+03 0. -1.
<mgrwt>
<rscale>  2 0.40340958E+03</rscale>
<asrwt>0</asrwt>
<pdfrwt beam="1">  1       21 0.11042736E+00 0.40340958E+03</pdfrwt>
<pdfrwt beam="2">  1       21 0.50758502E-01 0.40340958E+03</pdfrwt>
<totfact> 0.20982627E+03</totfact>
</mgrwt>
</event>
<event>
 4    1  0.4689683E-002  0.4680143E+03  0.7818608E-02  0.1022482E+00
         21   -1    0    0  501  502  0.00000000000E+00  0.00000000000E+00  0.56195165787E+03  0.56195165787E+03  0.00000000000E+00 0. -1.
         21   -1    0    0  502  503 -0.00000000000E+00 -0.00000000000E+00 -0.39636124219E+03  0.39636124219E+03  0.00000000000E+00 0.  1.
    9000007    1    1    2  501    0 -0.24086451299E+03 -0.31964086069E+02  0.14453875876E+03  0.48982534561E+03  0.40000000000E+03 0. -1.
   -9000007    1    1    2    0  503  0.24086451299E+03  0.31964086069E+02  0.21051656925E+02  0.46848755445E+03  0.40000000000E+03 0.  1.
<mgrwt>
<rscale>  2 0.46801433E+03</rscale>
<asrwt>0</asrwt>
<pdfrwt beam="1">  1       21 0.86454102E-01 0.46801433E+03</pdfrwt>
<pdfrwt beam="2">  1       21 0.60978652E-01 0.46801433E+03</pdfrwt>
<totfact> 0.24854927E+03</totfact>
</mgrwt>
</event>
<event>
 4    1  0.4689683E-002  0.4683678E+03  0.7818608E-02  0.1022382E+00
         21   -1    0    0  503  502  0.00000000000E+00  0.00000000000E+00  0.24146980221E+03  0.24146980221E+03  0.00000000000E+00 0. -1.
         21   -1    0    0  501  503 -0.00000000000E+00 -0.00000000000E+00 -0.12423458311E+04  0.12423458311E+04  0.00000000000E+00 0. -1.
    9000007    1    1    2  501    0 -0.19674207889E+03  0.14373909327E+03 -0.88504783807E+03  0.10013381288E+04  0.40000000000E+03 0. -1.
   -9000007    1    1    2    0  502  0.19674207889E+03 -0.14373909327E+03 -0.11582819078E+03  0.48247750447E+03  0.40000000000E+03 0. -1.
<mgrwt>
<rscale>  2 0.46836777E+03</rscale>
<asrwt>0</asrwt>
<pdfrwt beam="1">  1       21 0.37149201E-01 0.46836777E+03</pdfrwt>
<pdfrwt beam="2">  1       21 0.19113013E+00 0.46836777E+03</pdfrwt>
<totfact> 0.88706216E+02</totfact>
</mgrwt>
</event>
<event>
 4    1  0.4689683E-002  0.5738624E+03  0.7818608E-02  0.9961168E-01
         21   -1    0    0  501  502  0.00000000000E+00  0.00000000000E+00  0.11129702252E+04  0.11129702252E+04  0.00000000000E+00 0.  1.
         21   -1    0    0  502  503 -0.00000000000E+00 -0.00000000000E+00 -0.74047205276E+03  0.74047205276E+03  0.00000000000E+00 0.  1.
    9000007    1    1    2  501    0 -0.15345950835E+03  0.38179601346E+03  0.90432464619E+03  0.10710373860E+04  0.40000000000E+03 0.  1.
   -9000007    1    1    2    0  503  0.15345950835E+03 -0.38179601346E+03 -0.53182647379E+03  0.78240489187E+03  0.40000000000E+03 0.  1.
<mgrwt>
<rscale>  2 0.57386237E+03</rscale>
<asrwt>0</asrwt>
<pdfrwt beam="1">  1       21 0.17122619E+00 0.57386237E+03</pdfrwt>
<pdfrwt beam="2">  1       21 0.11391878E+00 0.57386237E+03</pdfrwt>
<totfact> 0.94495114E+01</totfact>
</mgrwt>
</event>
<event>
 4    1  0.4689683E-002  0.4664134E+03  0.7818608E-02  0.1022937E+00
         21   -1    0    0  503  502  0.00000000000E+00  0.00000000000E+00  0.44301402528E+03  0.44301402528E+03  0.00000000000E+00 0.  1.
         21   -1    0    0  501  503 -0.00000000000E+00 -0.00000000000E+00 -0.76591545918E+03  0.76591545918E+03  0.00000000000E+00 0.  1.
    9000007    1    1    2  501    0 -0.12086495861E+03 -0.20720317282E+03 -0.52356162750E+03  0.70118347873E+03  0.40000000000E+03 0.  1.
   -9000007    1    1    2    0  502  0.12086495861E+03  0.20720317282E+03  0.20066019360E+03  0.50774600574E+03  0.40000000000E+03 0.  1.
<mgrwt>
<rscale>  2 0.46641344E+03</rscale>
<asrwt>0</asrwt>
<pdfrwt beam="1">  1       21 0.68156004E-01 0.46641344E+03</pdfrwt>
<pdfrwt beam="2">  1       21 0.11783315E+00 0.46641344E+03</pdfrwt>
<totfact> 0.91364288E+02</totfact>
</mgrwt>
</event>
<event>
 4    1  0.4689683E-002  0.4385063E+03  0.7818608E-02  0.1031206E+00
         21   -1    0    0  501  502  0.00000000000E+00  0.00000000000E+00  0.57385448243E+03  0.57385448243E+03  0.00000000000E+00 0.  1.
         21   -1    0    0  502  503 -0.00000000000E+00 -0.00000000000E+00 -0.64848997764E+03  0.64848997764E+03  0.00000000000E+00 0.  1.
    9000007    1    1    2  501    0 -0.28384117993E+02  0.17743194200E+03  0.38756360680E+03  0.58522927260E+03  0.40000000000E+03 0.  1.
   -9000007    1    1    2    0  503  0.28384117993E+02 -0.17743194200E+03 -0.46219910201E+03  0.63711518746E+03  0.40000000000E+03 0.  1.
<mgrwt>
<rscale>  2 0.43850627E+03</rscale>
<asrwt>0</asrwt>
<pdfrwt beam="1">  1       21 0.88285306E-01 0.43850627E+03</pdfrwt>
<pdfrwt beam="2">  1       21 0.99767688E-01 0.43850627E+03</pdfrwt>
<totfact> 0.77011808E+02</totfact>
</mgrwt>
</event>
<event>
 4    1  0.4689683E-002  0.4122390E+03  0.7818608E-02  0.1039622E+00
         21   -1    0    0  501  502  0.00000000000E+00  0.00000000000E+00  0.40613532660E+03  0.40613532660E+03  0.00000000000E+00 0.  1.
         21   -1    0    0  502  503 -0.00000000000E+00 -0.00000000000E+00 -0.42953327324E+03  0.42953327324E+03  0.00000000000E+00 0. -1.
    9000007    1    1    2  501    0  0.86778736973E+02  0.49095881661E+02 -0.78864574542E+02  0.41971487453E+03  0.40000000000E+03 0.  1.
   -9000007    1    1    2    0  503 -0.86778736973E+02 -0.49095881661E+02  0.55466627895E+02  0.41595372531E+03  0.40000000000E+03 0. -1.
<mgrwt>
<rscale>  2 0.41223895E+03</rscale>
<asrwt>0</asrwt>
<pdfrwt beam="1">  1       21 0.62482358E-01 0.41223895E+03</pdfrwt>
<pdfrwt beam="2">  1       21 0.66082042E-01 0.41223895E+03</pdfrwt>
<totfact> 0.44400171E+03</totfact>
</mgrwt>
</event>
<event>
 4    1  0.4689683E-002  0.4192145E+03  0.7818608E-02  0.1037322E+00
         21   -1    0    0  501  502  0.00000000000E+00  0.00000000000E+00  0.59313347326E+02  0.59313347326E+02  0.00000000000E+00 0.  1.
         21   -1    0    0  502  503 -0.00000000000E+00 -0.00000000000E+00 -0.35609054468E+04  0.35609054468E+04  0.00000000000E+00 0.  1.
    9000007    1    1    2  501    0  0.93348227177E+02  0.83826592632E+02 -0.10090258491E+04  0.10926453923E+04  0.40000000000E+03 0.  1.
   -9000007    1    1    2    0  503 -0.93348227177E+02 -0.83826592632E+02 -0.24925662503E+04  0.25275734018E+04  0.40000000000E+03 0.  1.
<mgrwt>
<rscale>  2 0.41921449E+03</rscale>
<asrwt>0</asrwt>
<pdfrwt beam="1">  1       21 0.91251287E-02 0.41921449E+03</pdfrwt>
<pdfrwt beam="2">  1       21 0.54783171E+00 0.41921449E+03</pdfrwt>
<totfact> 0.62270292E+01</totfact>
</mgrwt>
</event>
<event>
 4    1  0.4689683E-002  0.6023383E+03  0.7818608E-02  0.9900567E-01
         21   -1    0    0  501  502  0.00000000000E+00  0.00000000000E+00  0.65903658112E+03  0.65903658112E+03  0.00000000000E+00 0.  1.
         21   -1    0    0  502  503 -0.00000000000E+00 -0.00000000000E+00 -0.92617599541E+03  0.92617599541E+03  0.00000000000E+00 0.  1.
    9000007    1    1    2  501    0 -0.28400663823E+01  0.45033693000E+03  0.37121611129E+03  0.70753997610E+03  0.40000000000E+03 0.  1.
   -9000007    1    1    2    0  503  0.28400663823E+01 -0.45033693000E+03 -0.63835552558E+03  0.87767260042E+03  0.40000000000E+03 0.  1.
<mgrwt>
<rscale>  2 0.60233829E+03</rscale>
<asrwt>0</asrwt>
<pdfrwt beam="1">  1       21 0.10139024E+00 0.60233829E+03</pdfrwt>
<pdfrwt beam="2">  1       21 0.14248861E+00 0.60233829E+03</pdfrwt>
<totfact> 0.20827270E+02</totfact>
</mgrwt>
</event>
<event>
 4    1  0.4689683E-002  0.4178287E+03  0.7818608E-02  0.1037775E+00
         21   -1    0    0  503  502  0.00000000000E+00  0.00000000000E+00  0.97525917434E+03  0.97525917434E+03  0.00000000000E+00 0. -1.
         21   -1    0    0  501  503 -0.00000000000E+00 -0.00000000000E+00 -0.22808082746E+03  0.22808082746E+03  0.00000000000E+00 0. -1.
    9000007    1    1    2  501    0 -0.97190810397E+02 -0.71657246495E+02  0.94510174041E+02  0.42838415890E+03  0.40000000000E+03 0. -1.
   -9000007    1    1    2    0  502  0.97190810397E+02  0.71657246495E+02  0.65266817284E+03  0.77495584289E+03  0.40000000000E+03 0. -1.
<mgrwt>
<rscale>  2 0.41782869E+03</rscale>
<asrwt>0</asrwt>
<pdfrwt beam="1">  1       21 0.15003987E+00 0.41782869E+03</pdfrwt>
<pdfrwt beam="2">  1       21 0.35089359E-01 0.41782869E+03</pdfrwt>
<totfact> 0.20288472E+03</totfact>
</mgrwt>
</event>
<event>
 4    1  0.4689683E-002  0.4047484E+03  0.7818608E-02  0.1042148E+00
         21   -1    0    0  503  502  0.00000000000E+00  0.00000000000E+00  0.42029976152E+03  0.42029976152E+03  0.00000000000E+00 0.  1.
         21   -1    0    0  501  503 -0.00000000000E+00 -0.00000000000E+00 -0.43110644032E+03  0.43110644032E+03  0.00000000000E+00 0.  1.
    9000007    1    1    2  501    0  0.48184870783E+02 -0.38723284033E+02 -0.13721934314E+03  0.42737620737E+03  0.40000000000E+03 0.  1.
   -9000007    1    1    2    0  502 -0.48184870783E+02  0.38723284033E+02  0.12641266434E+03  0.42402999446E+03  0.40000000000E+03 0.  1.
<mgrwt>
<rscale>  2 0.40474841E+03</rscale>
<asrwt>0</asrwt>
<pdfrwt beam="1">  1       21 0.64661502E-01 0.40474841E+03</pdfrwt>
<pdfrwt beam="2">  1       21 0.66324068E-01 0.40474841E+03</pdfrwt>
<totfact> 0.40943457E+03</totfact>
</mgrwt>
</event>
<event>
 4    1  0.4689683E-002  0.4083417E+03  0.7818608E-02  0.1040929E+00
         21   -1    0    0  501  502  0.00000000000E+00  0.00000000000E+00  0.26685391190E+04  0.26685391190E+04  0.00000000000E+00 0.  1.
         21   -1    0    0  502  503 -0.00000000000E+00 -0.00000000000E+00 -0.64078219109E+02  0.64078219109E+02  0.00000000000E+00 0.  1.
    9000007    1    1    2  501    0 -0.81841555577E+02  0.67031278304E+01  0.15176905414E+04  0.15716639436E+04  0.40000000000E+03 0.  1.
   -9000007    1    1    2    0  503  0.81841555577E+02 -0.67031278304E+01  0.10867703585E+04  0.11609533945E+04  0.40000000000E+03 0.  1.
<mgrwt>
<rscale>  2 0.40834173E+03</rscale>
<asrwt>0</asrwt>
<pdfrwt beam="1">  1       21 0.41054439E+00 0.40834173E+03</pdfrwt>
<pdfrwt beam="2">  1       21 0.98581896E-02 0.40834173E+03</pdfrwt>
<totfact> 0.49550626E+02</totfact>
</mgrwt>
</event>
<event>
 4    1  0.4689683E-002  0.4249740E+03  0.7818608E-02  0.1035459E+00
         21   -1    0    0  503  502  0.00000000000E+00  0.00000000000E+00  0.52175624626E+03  0.52175624626E+03  0.00000000000E+00 0.  1.
         21   -1    0    0  501  503 -0.00000000000E+00 -0.00000000000E+00 -0.46128077342E+03  0.46128077342E+03  0.00000000000E+00 0. -1.
    9000007    1    1    2  501    0 -0.98340005266E+01  0.14319993042E+03 -0.21532572437E+03  0.47641168669E+03  0.40000000000E+03 0. -1.
   -9000007    1    1    2    0  502  0.98340005266E+01 -0.14319993042E+03  0.27580119721E+03  0.50662533299E+03  0.40000000000E+03 0.  1.
<mgrwt>
<rscale>  2 0.42497403E+03</rscale>
<asrwt>0</asrwt>
<pdfrwt beam="1">  1       21 0.80270192E-01 0.42497403E+03</pdfrwt>
<pdfrwt beam="2">  1       21 0.70966273E-01 0.42497403E+03</pdfrwt>
<totfact> 0.21416047E+03</totfact>
</mgrwt>
</event>
<event>
 4    1  0.4689683E-002  0.4811820E+03  0.7818608E-02  0.1018811E+00
         21   -1    0    0  501  502  0.00000000000E+00  0.00000000000E+00  0.21765992142E+03  0.21765992142E+03  0.00000000000E+00 0.  1.
         21   -1    0    0  502  503 -0.00000000000E+00 -0.00000000000E+00 -0.12930952026E+04  0.12930952026E+04  0.00000000000E+00 0. -1.
    9000007    1    1    2  501    0 -0.26413184272E+03  0.42077138580E+02 -0.85583841499E+03  0.98183272939E+03  0.40000000000E+03 0. -1.
   -9000007    1    1    2    0  503  0.26413184272E+03 -0.42077138580E+02 -0.21959686624E+03  0.52892239468E+03  0.40000000000E+03 0.  1.
<mgrwt>
<rscale>  2 0.48118200E+03</rscale>
<asrwt>0</asrwt>
<pdfrwt beam="1">  1       21 0.33486143E-01 0.48118200E+03</pdfrwt>
<pdfrwt beam="2">  1       21 0.19893772E+00 0.48118200E+03</pdfrwt>
<totfact> 0.96398004E+02</totfact>
</mgrwt>
</event>
<event>
 4    1  0.4689683E-002  0.6135410E+03  0.7818608E-02  0.9877704E-01
         21   -1    0    0  501  502  0.00000000000E+00  0.00000000000E+00  0.89654036859E+03  0.89654036859E+03  0.00000000000E+00 0.  1.
         21   -1    0    0  502  503 -0.00000000000E+00 -0.00000000000E+00 -0.43663124417E+03  0.43663124417E+03  0.00000000000E+00 0.  1.
    9000007    1    1    2  501    0  0.13558852403E+03 -0.44502624541E+03  0.36054757945E+03  0.71163696081E+03  0.40000000000E+03 0.  1.
   -9000007    1    1    2    0  503 -0.13558852403E+03  0.44502624541E+03  0.99361544969E+02  0.62153465195E+03  0.40000000000E+03 0.  1.
<mgrwt>
<rscale>  2 0.61354104E+03</rscale>
<asrwt>0</asrwt>
<pdfrwt beam="1">  1       21 0.13792929E+00 0.61354104E+03</pdfrwt>
<pdfrwt beam="2">  1       21 0.67174038E-01 0.61354104E+03</pdfrwt>
<totfact> 0.59473591E+02</totfact>
</mgrwt>
</event>
<event>
 4    1  0.4689683E-002  0.4184322E+03  0.7818608E-02  0.1037578E+00
         21   -1    0    0  501  502  0.00000000000E+00  0.00000000000E+00  0.15326316325E+03  0.15326316325E+03  0.00000000000E+00 0. -1.
         21   -1    0    0  502  503 -0.00000000000E+00 -0.00000000000E+00 -0.11687403050E+04  0.11687403050E+04  0.00000000000E+00 0.  1.
    9000007    1    1    2  501    0 -0.95062606338E+02 -0.77772960755E+02 -0.60699941058E+03  0.73724745981E+03  0.40000000000E+03 0.  1.
   -9000007    1    1    2    0  503  0.95062606338E+02  0.77772960755E+02 -0.40847773115E+03  0.58475600843E+03  0.40000000000E+03 0. -1.
<mgrwt>
<rscale>  2 0.41843223E+03</rscale>
<asrwt>0</asrwt>
<pdfrwt beam="1">  1       21 0.23578949E-01 0.41843223E+03</pdfrwt>
<pdfrwt beam="2">  1       21 0.17980620E+00 0.41843223E+03</pdfrwt>
<totfact> 0.26760307E+03</totfact>
</mgrwt>
</event>
<event>
 4    1  0.4689683E-002  0.5445306E+03  0.7818608E-02  0.1002768E+00
         21   -1    0    0  503  502  0.00000000000E+00  0.00000000000E+00  0.54870619578E+03  0.54870619578E+03  0.00000000000E+00 0. -1.
         21   -1    0    0  501  503 -0.00000000000E+00 -0.00000000000E+00 -0.78136930303E+03  0.78136930303E+03  0.00000000000E+00 0.  1.
    9000007    1    1    2  501    0 -0.12957649533E+03 -0.34601089245E+03 -0.48565837372E+03  0.72964214640E+03  0.40000000000E+03 0.  1.
   -9000007    1    1    2    0  502  0.12957649533E+03  0.34601089245E+03  0.25299526648E+03  0.60043335242E+03  0.40000000000E+03 0.  1.
<mgrwt>
<rscale>  2 0.54453063E+03</rscale>
<asrwt>0</asrwt>
<pdfrwt beam="1">  1       21 0.84416337E-01 0.54453063E+03</pdfrwt>
<pdfrwt beam="2">  1       21 0.12021066E+00 0.54453063E+03</pdfrwt>
<totfact> 0.51587737E+02</totfact>
</mgrwt>
</event>
<event>
 4    1  0.4689683E-002  0.4981634E+03  0.7818608E-02  0.1014259E+00
         21   -1    0    0  501  502  0.00000000000E+00  0.00000000000E+00  0.18172342927E+03  0.18172342927E+03  0.00000000000E+00 0.  1.
         21   -1    0    0  502  503 -0.00000000000E+00 -0.00000000000E+00 -0.15432212005E+04  0.15432212005E+04  0.00000000000E+00 0.  1.
    9000007    1    1    2  501    0 -0.14689707337E+03  0.25804653493E+03 -0.97332788874E+03  0.10934047482E+04  0.40000000000E+03 0.  1.
   -9000007    1    1    2    0  503  0.14689707337E+03 -0.25804653493E+03 -0.38816988246E+03  0.63153988156E+03  0.40000000000E+03 0.  1.
<mgrwt>
<rscale>  2 0.49816339E+03</rscale>
<asrwt>0</asrwt>
<pdfrwt beam="1">  1       21 0.27957450E-01 0.49816339E+03</pdfrwt>
<pdfrwt beam="2">  1       21 0.23741865E+00 0.49816339E+03</pdfrwt>
<totfact> 0.77412085E+02</totfact>
</mgrwt>
</event>
<event>
 4    1  0.4689683E-002  0.4126700E+03  0.7818608E-02  0.1039479E+00
         21   -1    0    0  503  502  0.00000000000E+00  0.00000000000E+00  0.16174806744E+04  0.16174806744E+04  0.00000000000E+00 0.  1.
         21   -1    0    0  501  503 -0.00000000000E+00 -0.00000000000E+00 -0.12181058773E+03  0.12181058773E+03  0.00000000000E+00 0.  1.
    9000007    1    1    2  501    0  0.74660276375E+02 -0.68719286393E+02  0.42751958615E+03  0.59419651104E+03  0.40000000000E+03 0.  1.
   -9000007    1    1    2    0  502 -0.74660276375E+02  0.68719286393E+02  0.10681505005E+04  0.11450947510E+04  0.40000000000E+03 0.  1.
<mgrwt>
<rscale>  2 0.41266996E+03</rscale>
<asrwt>0</asrwt>
<pdfrwt beam="1">  1       21 0.24884317E+00 0.41266996E+03</pdfrwt>
<pdfrwt beam="2">  1       21 0.18740092E-01 0.41266996E+03</pdfrwt>
<totfact> 0.14837052E+03</totfact>
</mgrwt>
</event>
<event>
 4    1  0.4689683E-002  0.7681302E+03  0.7818608E-02  0.9607329E-01
         21   -1    0    0  501  502  0.00000000000E+00  0.00000000000E+00  0.89448239013E+03  0.89448239013E+03  0.00000000000E+00 0. -1.
         21   -1    0    0  502  503 -0.00000000000E+00 -0.00000000000E+00 -0.16860411799E+04  0.16860411799E+04  0.00000000000E+00 0.  1.
    9000007    1    1    2  501    0  0.57023099914E+03  0.32382178147E+03  0.61093262917E+03  0.98145943162E+03  0.40000000000E+03 0. -1.
   -9000007    1    1    2    0  503 -0.57023099914E+03 -0.32382178147E+03 -0.14024914189E+04  0.15990641384E+04  0.40000000000E+03 0.  1.
<mgrwt>
<rscale>  2 0.76813016E+03</rscale>
<asrwt>0</asrwt>
<pdfrwt beam="1">  1       21 0.13761268E+00 0.76813016E+03</pdfrwt>
<pdfrwt beam="2">  1       21 0.25939095E+00 0.76813016E+03</pdfrwt>
<totfact> 0.13881228E+01</totfact>
</mgrwt>
</event>
<event>
 4    1  0.4689683E-002  0.4357558E+03  0.7818608E-02  0.1032057E+00
         21   -1    0    0  501  502  0.00000000000E+00  0.00000000000E+00  0.38982240688E+03  0.38982240688E+03  0.00000000000E+00 0.  1.
         21   -1    0    0  502  503 -0.00000000000E+00 -0.00000000000E+00 -0.57980348252E+03  0.57980348252E+03  0.00000000000E+00 0.  1.
    9000007    1    1    2  501    0  0.13603205558E+03 -0.10666944739E+03 -0.28884608645E+03  0.52279551720E+03  0.40000000000E+03 0.  1.
   -9000007    1    1    2    0  503 -0.13603205558E+03  0.10666944739E+03  0.98865010810E+02  0.44683037219E+03  0.40000000000E+03 0.  1.
<mgrwt>
<rscale>  2 0.43575577E+03</rscale>
<asrwt>0</asrwt>
<pdfrwt beam="1">  1       21 0.59972678E-01 0.43575577E+03</pdfrwt>
<pdfrwt beam="2">  1       21 0.89200536E-01 0.43575577E+03</pdfrwt>
<totfact> 0.24230723E+03</totfact>
</mgrwt>
</event>
<event>
 4    1  0.4689683E-002  0.4090907E+03  0.7818608E-02  0.1040677E+00
         21   -1    0    0  501  502  0.00000000000E+00  0.00000000000E+00  0.44416707051E+03  0.44416707051E+03  0.00000000000E+00 0. -1.
         21   -1    0    0  502  503 -0.00000000000E+00 -0.00000000000E+00 -0.10126175505E+04  0.10126175505E+04  0.00000000000E+00 0. -1.
    9000007    1    1    2  501    0  0.79482261154E+02  0.32214899959E+02  0.29295865663E+03  0.50316995549E+03  0.40000000000E+03 0. -1.
   -9000007    1    1    2    0  503 -0.79482261154E+02 -0.32214899959E+02 -0.86140913662E+03  0.95361466551E+03  0.40000000000E+03 0. -1.
<mgrwt>
<rscale>  2 0.40909074E+03</rscale>
<asrwt>0</asrwt>
<pdfrwt beam="1">  1       21 0.68333395E-01 0.40909074E+03</pdfrwt>
<pdfrwt beam="2">  1       21 0.15578732E+00 0.40909074E+03</pdfrwt>
<totfact> 0.44731346E+02</totfact>
</mgrwt>
</event>
<event>
 4    1  0.4689683E-002  0.4909701E+03  0.7818608E-02  0.1016163E+00
         21   -1    0    0  501  502  0.00000000000E+00  0.00000000000E+00  0.69325143706E+03  0.69325143706E+03  0.00000000000E+00 0.  1.
         21   -1    0    0  502  503 -0.00000000000E+00 -0.00000000000E+00 -0.39453299710E+03  0.39453299710E+03  0.00000000000E+00 0.  1.
    9000007    1    1    2  501    0  0.21424303222E+03  0.18748747151E+03  0.33672615169E+03  0.59534538720E+03  0.40000000000E+03 0.  1.
   -9000007    1    1    2    0  503 -0.21424303222E+03 -0.18748747151E+03 -0.38007711731E+02  0.49243904697E+03  0.40000000000E+03 0.  1.
<mgrwt>
<rscale>  2 0.49097009E+03</rscale>
<asrwt>0</asrwt>
<pdfrwt beam="1">  1       21 0.10665407E+00 0.49097009E+03</pdfrwt>
<pdfrwt beam="2">  1       21 0.60697384E-01 0.49097009E+03</pdfrwt>
<totfact> 0.15012505E+03</totfact>
</mgrwt>
</event>
<event>
 4    1  0.4689683E-002  0.5455668E+03  0.7818608E-02  0.1002525E+00
         21   -1    0    0  501  502  0.00000000000E+00  0.00000000000E+00  0.71330075350E+03  0.71330075350E+03  0.00000000000E+00 0. -1.
         21   -1    0    0  502  503 -0.00000000000E+00 -0.00000000000E+00 -0.87982668406E+03  0.87982668406E+03  0.00000000000E+00 0. -1.
    9000007    1    1    2  501    0 -0.26277241514E+03 -0.26190415771E+03  0.49430317233E+03  0.73619206472E+03  0.40000000000E+03 0. -1.
   -9000007    1    1    2    0  503  0.26277241514E+03  0.26190415771E+03 -0.66082910289E+03  0.85693537283E+03  0.40000000000E+03 0. -1.
<mgrwt>
<rscale>  2 0.54556680E+03</rscale>
<asrwt>0</asrwt>
<pdfrwt beam="1">  1       21 0.10973858E+00 0.54556680E+03</pdfrwt>
<pdfrwt beam="2">  1       21 0.13535795E+00 0.54556680E+03</pdfrwt>
<totfact> 0.20078515E+02</totfact>
</mgrwt>
</event>
<event>
 4    1  0.4689683E-002  0.4037571E+03  0.7818608E-02  0.1042486E+00
         21   -1    0    0  503  502  0.00000000000E+00  0.00000000000E+00  0.13333658389E+03  0.13333658389E+03  0.00000000000E+00 0.  1.
         21   -1    0    0  501  503 -0.00000000000E+00 -0.00000000000E+00 -0.12955863186E+04  0.12955863186E+04  0.00000000000E+00 0.  1.
    9000007    1    1    2  501    0  0.40875557403E+02  0.36728448089E+02 -0.75068000416E+03  0.85237330950E+03  0.40000000000E+03 0.  1.
   -9000007    1    1    2    0  502 -0.40875557403E+02 -0.36728448089E+02 -0.41156973060E+03  0.57654959304E+03  0.40000000000E+03 0.  1.
<mgrwt>
<rscale>  2 0.40375709E+03</rscale>
<asrwt>0</asrwt>
<pdfrwt beam="1">  1       21 0.20513320E-01 0.40375709E+03</pdfrwt>
<pdfrwt beam="2">  1       21 0.19932098E+00 0.40375709E+03</pdfrwt>
<totfact> 0.25882666E+03</totfact>
</mgrwt>
</event>
<event>
 4    1  0.4689683E-002  0.4166312E+03  0.7818608E-02  0.1038168E+00
         21   -1    0    0  503  502  0.00000000000E+00  0.00000000000E+00  0.46128596259E+03  0.46128596259E+03  0.00000000000E+00 0. -1.
         21   -1    0    0  501  503 -0.00000000000E+00 -0.00000000000E+00 -0.95915084284E+03  0.95915084284E+03  0.00000000000E+00 0. -1.
    9000007    1    1    2  501    0 -0.99216067331E+02 -0.61137231707E+02 -0.80257241036E+03  0.90426990605E+03  0.40000000000E+03 0. -1.
   -9000007    1    1    2    0  502  0.99216067331E+02  0.61137231707E+02  0.30470753011E+03  0.51616689939E+03  0.40000000000E+03 0. -1.
<mgrwt>
<rscale>  2 0.41663124E+03</rscale>
<asrwt>0</asrwt>
<pdfrwt beam="1">  1       21 0.70967072E-01 0.41663124E+03</pdfrwt>
<pdfrwt beam="2">  1       21 0.14756167E+00 0.41663124E+03</pdfrwt>
<totfact> 0.47433082E+02</totfact>
</mgrwt>
</event>
<event>
 4    1  0.4689683E-002  0.4249905E+03  0.7818608E-02  0.1035454E+00
         21   -1    0    0  503  502  0.00000000000E+00  0.00000000000E+00  0.14038908939E+04  0.14038908939E+04  0.00000000000E+00 0.  1.
         21   -1    0    0  501  503 -0.00000000000E+00 -0.00000000000E+00 -0.38643388964E+03  0.38643388964E+03  0.00000000000E+00 0.  1.
    9000007    1    1    2  501    0  0.12425022598E+03  0.71964078167E+02 -0.22239085195E+03  0.47966096176E+03  0.40000000000E+03 0.  1.
   -9000007    1    1    2    0  502 -0.12425022598E+03 -0.71964078167E+02  0.12398478562E+04  0.13106638218E+04  0.40000000000E+03 0.  1.
<mgrwt>
<rscale>  2 0.42499053E+03</rscale>
<asrwt>0</asrwt>
<pdfrwt beam="1">  1       21 0.21598321E+00 0.42499053E+03</pdfrwt>
<pdfrwt beam="2">  1       21 0.59451368E-01 0.42499053E+03</pdfrwt>
<totfact> 0.23026174E+02</totfact>
</mgrwt>
</event>
<event>
 4    1  0.4689683E-002  0.5163093E+03  0.7818608E-02  0.1009607E+00
         21   -1    0    0  501  502  0.00000000000E+00  0.00000000000E+00  0.18303323446E+04  0.18303323446E+04  0.00000000000E+00 0.  1.
         21   -1    0    0  502  503 -0.00000000000E+00 -0.00000000000E+00 -0.15347895406E+03  0.15347895406E+03  0.00000000000E+00 0.  1.
    9000007    1    1    2  501    0  0.32637814241E+03  0.72548514775E+01  0.10625507086E+04  0.11813506393E+04  0.40000000000E+03 0.  1.
   -9000007    1    1    2    0  503 -0.32637814241E+03 -0.72548514775E+01  0.61430268193E+03  0.80246065931E+03  0.40000000000E+03 0.  1.
<mgrwt>
<rscale>  2 0.51630933E+03</rscale>
<asrwt>0</asrwt>
<pdfrwt beam="1">  1       21 0.28158958E+00 0.51630933E+03</pdfrwt>
<pdfrwt beam="2">  1       21 0.23612148E-01 0.51630933E+03</pdfrwt>
<totfact> 0.57238890E+02</totfact>
</mgrwt>
</event>
<event>
 4    1  0.4689683E-002  0.4109614E+03  0.7818608E-02  0.1040049E+00
         21   -1    0    0  501  502  0.00000000000E+00  0.00000000000E+00  0.98699978154E+03  0.98699978154E+03  0.00000000000E+00 0.  1.
         21   -1    0    0  502  503 -0.00000000000E+00 -0.00000000000E+00 -0.25967830895E+03  0.25967830895E+03  0.00000000000E+00 0.  1.
    9000007    1    1    2  501    0 -0.17226846214E+02 -0.92695961671E+02 -0.36852832107E+00  0.41096160569E+03  0.40000000000E+03 0.  1.
   -9000007    1    1    2    0  503  0.17226846214E+02  0.92695961671E+02  0.72769000091E+03  0.83571648480E+03  0.40000000000E+03 0.  1.
<mgrwt>
<rscale>  2 0.41096144E+03</rscale>
<asrwt>0</asrwt>
<pdfrwt beam="1">  1       21 0.15184612E+00 0.41096144E+03</pdfrwt>
<pdfrwt beam="2">  1       21 0.39950509E-01 0.41096144E+03</pdfrwt>
<totfact> 0.15122675E+03</totfact>
</mgrwt>
</event>
<event>
 4    1  0.4689683E-002  0.4089274E+03  0.7818608E-02  0.1040732E+00
         21   -1    0    0  501  502  0.00000000000E+00  0.00000000000E+00  0.50561617032E+03  0.50561617032E+03  0.00000000000E+00 0. -1.
         21   -1    0    0  502  503 -0.00000000000E+00 -0.00000000000E+00 -0.58869666706E+03  0.58869666706E+03  0.00000000000E+00 0. -1.
    9000007    1    1    2  501    0 -0.44223153834E+02  0.72566648875E+02  0.32066012038E+03  0.51965807861E+03  0.40000000000E+03 0. -1.
   -9000007    1    1    2    0  503  0.44223153834E+02 -0.72566648875E+02 -0.40374061712E+03  0.57465475877E+03  0.40000000000E+03 0. -1.
<mgrwt>
<rscale>  2 0.40892738E+03</rscale>
<asrwt>0</asrwt>
<pdfrwt beam="1">  1       21 0.77787104E-01 0.40892738E+03</pdfrwt>
<pdfrwt beam="2">  1       21 0.90568717E-01 0.40892738E+03</pdfrwt>
<totfact> 0.13197955E+03</totfact>
</mgrwt>
</event>
<event>
 4    1  0.4689683E-002  0.5029517E+03  0.7818608E-02  0.1013011E+00
         21   -1    0    0  501  502  0.00000000000E+00  0.00000000000E+00  0.75599138975E+03  0.75599138975E+03  0.00000000000E+00 0. -1.
         21   -1    0    0  502  503 -0.00000000000E+00 -0.00000000000E+00 -0.57425245537E+03  0.57425245537E+03  0.00000000000E+00 0. -1.
    9000007    1    1    2  501    0  0.17709678430E+03 -0.24818769810E+03  0.52053840589E+03  0.72382362251E+03  0.40000000000E+03 0. -1.
   -9000007    1    1    2    0  503 -0.17709678430E+03  0.24818769810E+03 -0.33879947151E+03  0.60642022261E+03  0.40000000000E+03 0. -1.
<mgrwt>
<rscale>  2 0.50295169E+03</rscale>
<asrwt>0</asrwt>
<pdfrwt beam="1">  1       21 0.11630637E+00 0.50295169E+03</pdfrwt>
<pdfrwt beam="2">  1       21 0.88346531E-01 0.50295169E+03</pdfrwt>
<totfact> 0.51194794E+02</totfact>
</mgrwt>
</event>
<event>
 4    1  0.4689683E-002  0.4084021E+03  0.7818608E-02  0.1040909E+00
         21   -1    0    0  503  502  0.00000000000E+00  0.00000000000E+00  0.12998420264E+04  0.12998420264E+04  0.00000000000E+00 0. -1.
         21   -1    0    0  501  503 -0.00000000000E+00 -0.00000000000E+00 -0.21120210405E+03  0.21120210405E+03  0.00000000000E+00 0. -1.
    9000007    1    1    2  501    0  0.48902544256E+02 -0.66338816927E+02  0.71021238698E+02  0.41453143887E+03  0.40000000000E+03 0. -1.
   -9000007    1    1    2    0  502 -0.48902544256E+02  0.66338816927E+02  0.10176186837E+04  0.10965126916E+04  0.40000000000E+03 0. -1.
<mgrwt>
<rscale>  2 0.40840213E+03</rscale>
<asrwt>0</asrwt>
<pdfrwt beam="1">  1       21 0.19997569E+00 0.40840213E+03</pdfrwt>
<pdfrwt beam="2">  1       21 0.32492632E-01 0.40840213E+03</pdfrwt>
<totfact> 0.10425942E+03</totfact>
</mgrwt>
</event>
<event>
 4    1  0.4689683E-002  0.4575609E+03  0.7818608E-02  0.1025491E+00
         21   -1    0    0  503  502  0.00000000000E+00  0.00000000000E+00  0.36288793456E+03  0.36288793456E+03  0.00000000000E+00 0.  1.
         21   -1    0    0  501  503 -0.00000000000E+00 -0.00000000000E+00 -0.57694408292E+03  0.57694408292E+03  0.00000000000E+00 0. -1.
    9000007    1    1    2  501    0 -0.10546655125E+03 -0.19554749082E+03 -0.10909026037E+03  0.47038569228E+03  0.40000000000E+03 0. -1.
   -9000007    1    1    2    0  502  0.10546655125E+03  0.19554749082E+03 -0.10496588799E+03  0.46944632520E+03  0.40000000000E+03 0. -1.
<mgrwt>
<rscale>  2 0.45756094E+03</rscale>
<asrwt>0</asrwt>
<pdfrwt beam="1">  1       21 0.55828913E-01 0.45756094E+03</pdfrwt>
<pdfrwt beam="2">  1       21 0.88760629E-01 0.45756094E+03</pdfrwt>
<totfact> 0.28424583E+03</totfact>
</mgrwt>
</event>
<event>
 4    1  0.4689683E-002  0.5443970E+03  0.7818608E-02  0.1002799E+00
         21   -1    0    0  501  502  0.00000000000E+00  0.00000000000E+00  0.11410573002E+04  0.11410573002E+04  0.00000000000E+00 0. -1.
         21   -1    0    0  502  503 -0.00000000000E+00 -0.00000000000E+00 -0.25997358829E+03  0.25997358829E+03  0.00000000000E+00 0. -1.
    9000007    1    1    2  501    0  0.31343656958E+03 -0.19525783502E+03  0.41914898724E+03  0.68706184495E+03  0.40000000000E+03 0. -1.
   -9000007    1    1    2    0  503 -0.31343656958E+03  0.19525783502E+03  0.46193472465E+03  0.71396904353E+03  0.40000000000E+03 0. -1.
<mgrwt>
<rscale>  2 0.54439701E+03</rscale>
<asrwt>0</asrwt>
<pdfrwt beam="1">  1       21 0.17554727E+00 0.54439701E+03</pdfrwt>
<pdfrwt beam="2">  1       21 0.39995937E-01 0.54439701E+03</pdfrwt>
<totfact> 0.95097078E+02</totfact>
</mgrwt>
</event>
<event>
 4    1  0.4689683E-002  0.4175214E+03  0.7818608E-02  0.1037876E+00
         21   -1    0    0  503  502  0.00000000000E+00  0.00000000000E+00  0.18297677201E+04  0.18297677201E+04  0.00000000000E+00 0. -1.
         21   -1    0    0  501  503 -0.00000000000E+00 -0.00000000000E+00 -0.21180870538E+03  0.21180870538E+03  0.00000000000E+00 0. -1.
    9000007    1    1    2  501    0  0.10946799745E+03  0.48382181220E+02  0.51803764342E+02  0.42072283979E+03  0.40000000000E+03 0. -1.
   -9000007    1    1    2    0  502 -0.10946799745E+03 -0.48382181220E+02  0.15661552504E+04  0.16208535857E+04  0.40000000000E+03 0. -1.
<mgrwt>
<rscale>  2 0.41752135E+03</rscale>
<asrwt>0</asrwt>
<pdfrwt beam="1">  1       21 0.28150272E+00 0.41752135E+03</pdfrwt>
<pdfrwt beam="2">  1       21 0.32585956E-01 0.41752135E+03</pdfrwt>
<totfact> 0.32046590E+02</totfact>
</mgrwt>
</event>
<event>
 4    1  0.4689683E-002  0.4820326E+03  0.7818608E-02  0.1018578E+00
         21   -1    0    0  503  502  0.00000000000E+00  0.00000000000E+00  0.13840087024E+03  0.13840087024E+03  0.00000000000E+00 0.  1.
         21   -1    0    0  501  503 -0.00000000000E+00 -0.00000000000E+00 -0.30120696386E+04  0.30120696386E+04  0.00000000000E+00 0.  1.
    9000007    1    1    2  501    0  0.26895913692E+03  0.40498709407E+01 -0.24848372117E+04  0.25311600873E+04  0.40000000000E+03 0.  1.
   -9000007    1    1    2    0  502 -0.26895913692E+03 -0.40498709407E+01 -0.38883155665E+03  0.61931042155E+03  0.40000000000E+03 0.  1.
<mgrwt>
<rscale>  2 0.48203259E+03</rscale>
<asrwt>0</asrwt>
<pdfrwt beam="1">  1       21 0.21292441E-01 0.48203259E+03</pdfrwt>
<pdfrwt beam="2">  1       21 0.46339533E+00 0.48203259E+03</pdfrwt>
<totfact> 0.50231204E+01</totfact>
</mgrwt>
</event>
<event>
 4    1  0.4689683E-002  0.5506496E+03  0.7818608E-02  0.1001344E+00
         21   -1    0    0  503  502  0.00000000000E+00  0.00000000000E+00  0.18303851305E+04  0.18303851305E+04  0.00000000000E+00 0.  1.
         21   -1    0    0  501  503 -0.00000000000E+00 -0.00000000000E+00 -0.17537573457E+03  0.17537573457E+03  0.00000000000E+00 0. -1.
    9000007    1    1    2  501    0 -0.37025751032E+02 -0.37662190391E+03  0.10635977688E+04  0.11976874294E+04  0.40000000000E+03 0. -1.
   -9000007    1    1    2    0  502  0.37025751032E+02  0.37662190391E+03  0.59141162714E+03  0.80807343569E+03  0.40000000000E+03 0. -1.
<mgrwt>
<rscale>  2 0.55064958E+03</rscale>
<asrwt>0</asrwt>
<pdfrwt beam="1">  1       21 0.28159770E+00 0.55064958E+03</pdfrwt>
<pdfrwt beam="2">  1       21 0.26980883E-01 0.55064958E+03</pdfrwt>
<totfact> 0.43411525E+02</totfact>
</mgrwt>
</event>
<event>
 4    1  0.4689683E-002  0.5186073E+03  0.7818608E-02  0.1009033E+00
         21   -1    0    0  501  502  0.00000000000E+00  0.00000000000E+00  0.60233339801E+03  0.60233339801E+03  0.00000000000E+00 0.  1.
         21   -1    0    0  502  503 -0.00000000000E+00 -0.00000000000E+00 -0.66977885892E+03  0.66977885892E+03  0.00000000000E+00 0. -1.
    9000007    1    1    2  501    0  0.32247012010E+03  0.70473522928E+02  0.33350438493E+03  0.61658630423E+03  0.40000000000E+03 0.  1.
   -9000007    1    1    2    0  503 -0.32247012010E+03 -0.70473522928E+02 -0.40094984584E+03  0.65552595271E+03  0.40000000000E+03 0. -1.
<mgrwt>
<rscale>  2 0.51860727E+03</rscale>
<asrwt>0</asrwt>
<pdfrwt beam="1">  1       21 0.92666677E-01 0.51860727E+03</pdfrwt>
<pdfrwt beam="2">  1       21 0.10304290E+00 0.51860727E+03</pdfrwt>
<totfact> 0.61392866E+02</totfact>
</mgrwt>
</event>
<event>
 4    1  0.4689683E-002  0.4428051E+03  0.7818608E-02  0.1029890E+00
         21   -1    0    0  503  502  0.00000000000E+00  0.00000000000E+00  0.21789342111E+04  0.21789342111E+04  0.00000000000E+00 0.  1.
         21   -1    0    0  501  503 -0.00000000000E+00 -0.00000000000E+00 -0.90204665239E+02  0.90204665239E+02  0.00000000000E+00 0.  1.
    9000007    1    1    2  501    0 -0.12105711275E+03  0.14636103662E+03  0.98866865850E+03  0.10833014788E+04  0.40000000000E+03 0.  1.
   -9000007    1    1    2    0  502  0.12105711275E+03 -0.14636103662E+03  0.11000608873E+04  0.11858373976E+04  0.40000000000E+03 0.  1.
<mgrwt>
<rscale>  2 0.44280512E+03</rscale>
<asrwt>0</asrwt>
<pdfrwt beam="1">  1       21 0.33522061E+00 0.44280512E+03</pdfrwt>
<pdfrwt beam="2">  1       21 0.13877642E-01 0.44280512E+03</pdfrwt>
<totfact> 0.76964772E+02</totfact>
</mgrwt>
</event>
<event>
 4    1  0.4689683E-002  0.4829886E+03  0.7818608E-02  0.1018317E+00
         21   -1    0    0  503  502  0.00000000000E+00  0.00000000000E+00  0.23985330322E+03  0.23985330322E+03  0.00000000000E+00 0. -1.
         21   -1    0    0  501  503 -0.00000000000E+00 -0.00000000000E+00 -0.10311304478E+04  0.10311304478E+04  0.00000000000E+00 0. -1.
    9000007    1    1    2  501    0 -0.27037552328E+03  0.13229688996E+02 -0.54706312851E+03  0.72976435569E+03  0.40000000000E+03 0. -1.
   -9000007    1    1    2    0  502  0.27037552328E+03 -0.13229688996E+02 -0.24421401612E+03  0.54121939538E+03  0.40000000000E+03 0. -1.
<mgrwt>
<rscale>  2 0.48298856E+03</rscale>
<asrwt>0</asrwt>
<pdfrwt beam="1">  1       21 0.36900508E-01 0.48298856E+03</pdfrwt>
<pdfrwt beam="2">  1       21 0.15863545E+00 0.48298856E+03</pdfrwt>
<totfact> 0.15310909E+03</totfact>
</mgrwt>
</event>
<event>
 4    1  0.4689683E-002  0.4001027E+03  0.7818608E-02  0.1043744E+00
         21   -1    0    0  501  502  0.00000000000E+00  0.00000000000E+00  0.21152590760E+03  0.21152590760E+03  0.00000000000E+00 0. -1.
         21   -1    0    0  502  503 -0.00000000000E+00 -0.00000000000E+00 -0.82073406571E+03  0.82073406571E+03  0.00000000000E+00 0. -1.
    9000007    1    1    2  501    0  0.76271889850E+01  0.48962403120E+01 -0.16054699629E+03  0.43111191725E+03  0.40000000000E+03 0. -1.
   -9000007    1    1    2    0  503 -0.76271889850E+01 -0.48962403120E+01 -0.44866116182E+03  0.60114805606E+03  0.40000000000E+03 0. -1.
<mgrwt>
<rscale>  2 0.40010267E+03</rscale>
<asrwt>0</asrwt>
<pdfrwt beam="1">  1       21 0.32542448E-01 0.40010267E+03</pdfrwt>
<pdfrwt beam="2">  1       21 0.12626678E+00 0.40010267E+03</pdfrwt>
<totfact> 0.37471519E+03</totfact>
</mgrwt>
</event>
<event>
 4    1  0.4689683E-002  0.4186372E+03  0.7818608E-02  0.1037511E+00
         21   -1    0    0  503  502  0.00000000000E+00  0.00000000000E+00  0.16192605823E+04  0.16192605823E+04  0.00000000000E+00 0.  1.
         21   -1    0    0  501  503 -0.00000000000E+00 -0.00000000000E+00 -0.11358691171E+03  0.11358691171E+03  0.00000000000E+00 0. -1.
    9000007    1    1    2  501    0 -0.79751465178E+02 -0.94323106307E+02  0.94094557241E+03  0.10298716982E+04  0.40000000000E+03 0.  1.
   -9000007    1    1    2    0  502  0.79751465178E+02  0.94323106307E+02  0.56472809820E+03  0.70297579580E+03  0.40000000000E+03 0.  1.
<mgrwt>
<rscale>  2 0.41863725E+03</rscale>
<asrwt>0</asrwt>
<pdfrwt beam="1">  1       21 0.24911700E+00 0.41863725E+03</pdfrwt>
<pdfrwt beam="2">  1       21 0.17474911E-01 0.41863725E+03</pdfrwt>
<totfact> 0.16806256E+03</totfact>
</mgrwt>
</event>
<event>
 4    1  0.4689683E-002  0.4794494E+03  0.7818608E-02  0.1019287E+00
         21   -1    0    0  503  502  0.00000000000E+00  0.00000000000E+00  0.10684859894E+04  0.10684859894E+04  0.00000000000E+00 0. -1.
         21   -1    0    0  501  503 -0.00000000000E+00 -0.00000000000E+00 -0.68969784472E+03  0.68969784472E+03  0.00000000000E+00 0.  1.
    9000007    1    1    2  501    0  0.26425197124E+03 -0.65282966061E+01 -0.53981227202E+03  0.72198962042E+03  0.40000000000E+03 0.  1.
   -9000007    1    1    2    0  502 -0.26425197124E+03  0.65282966061E+01  0.91860041673E+03  0.10361942137E+04  0.40000000000E+03 0. -1.
<mgrwt>
<rscale>  2 0.47944940E+03</rscale>
<asrwt>0</asrwt>
<pdfrwt beam="1">  1       21 0.16438246E+00 0.47944940E+03</pdfrwt>
<pdfrwt beam="2">  1       21 0.10610736E+00 0.47944940E+03</pdfrwt>
<totfact> 0.13240362E+02</totfact>
</mgrwt>
</event>
<event>
 4    1  0.4689683E-002  0.4900332E+03  0.7818608E-02  0.1016414E+00
         21   -1    0    0  503  502  0.00000000000E+00  0.00000000000E+00  0.92386848657E+03  0.92386848657E+03  0.00000000000E+00 0.  1.
         21   -1    0    0  501  503 -0.00000000000E+00 -0.00000000000E+00 -0.26038265388E+03  0.26038265388E+03  0.00000000000E+00 0.  1.
    9000007    1    1    2  501    0  0.17089320989E+03 -0.22567241522E+03  0.35668398277E+03  0.60609899500E+03  0.40000000000E+03 0.  1.
   -9000007    1    1    2    0  502 -0.17089320989E+03  0.22567241522E+03  0.30680184991E+03  0.57815214545E+03  0.40000000000E+03 0.  1.
<mgrwt>
<rscale>  2 0.49003319E+03</rscale>
<asrwt>0</asrwt>
<pdfrwt beam="1">  1       21 0.14213361E+00 0.49003319E+03</pdfrwt>
<pdfrwt beam="2">  1       21 0.40058870E-01 0.49003319E+03</pdfrwt>
<totfact> 0.17408062E+03</totfact>
</mgrwt>
</event>
<event>
 4    1  0.4689683E-002  0.4098770E+03  0.7818608E-02  0.1040412E+00
         21   -1    0    0  501  502  0.00000000000E+00  0.00000000000E+00  0.28213878985E+03  0.28213878985E+03  0.00000000000E+00 0.  1.
         21   -1    0    0  502  503 -0.00000000000E+00 -0.00000000000E+00 -0.11933000011E+04  0.11933000011E+04  0.00000000000E+00 0.  1.
    9000007    1    1    2  501    0  0.89342790710E+02 -0.41271717612E+01  0.66590673390E+02  0.41525111147E+03  0.40000000000E+03 0.  1.
   -9000007    1    1    2    0  503 -0.89342790710E+02  0.41271717612E+01 -0.97775188468E+03  0.10601876795E+04  0.40000000000E+03 0.  1.
<mgrwt>
<rscale>  2 0.40987702E+03</rscale>
<asrwt>0</asrwt>
<pdfrwt beam="1">  1       21 0.43405969E-01 0.40987702E+03</pdfrwt>
<pdfrwt beam="2">  1       21 0.18358461E+00 0.40987702E+03</pdfrwt>
<totfact> 0.74576553E+02</totfact>
</mgrwt>
</event>
<event>
 4    1  0.4689683E-002  0.5367456E+03  0.7818608E-02  0.1004609E+00
         21   -1    0    0  503  502  0.00000000000E+00  0.00000000000E+00  0.17792658522E+03  0.17792658522E+03  0.00000000000E+00 0.  1.
         21   -1    0    0  501  503 -0.00000000000E+00 -0.00000000000E+00 -0.19805227093E+04  0.19805227093E+04  0.00000000000E+00 0.  1.
    9000007    1    1    2  501    0  0.33744776989E+03  0.11926807300E+03 -0.44032110382E+03  0.69424674656E+03  0.40000000000E+03 0.  1.
   -9000007    1    1    2    0  502 -0.33744776989E+03 -0.11926807300E+03 -0.13622750202E+04  0.14642025479E+04  0.40000000000E+03 0.  1.
<mgrwt>
<rscale>  2 0.53674563E+03</rscale>
<asrwt>0</asrwt>
<pdfrwt beam="1">  1       21 0.27373320E-01 0.53674563E+03</pdfrwt>
<pdfrwt beam="2">  1       21 0.30469581E+00 0.53674563E+03</pdfrwt>
<totfact> 0.30756398E+02</totfact>
</mgrwt>
</event>
<event>
 4    1  0.4689683E-002  0.4777738E+03  0.7818608E-02  0.1019749E+00
         21   -1    0    0  501  502  0.00000000000E+00  0.00000000000E+00  0.89266342044E+03  0.89266342044E+03  0.00000000000E+00 0. -1.
         21   -1    0    0  502  503 -0.00000000000E+00 -0.00000000000E+00 -0.42119218106E+03  0.42119218106E+03  0.00000000000E+00 0. -1.
    9000007    1    1    2  501    0 -0.13210869414E+03 -0.22542196798E+03  0.64749740871E+03  0.80468668748E+03  0.40000000000E+03 0.  1.
   -9000007    1    1    2    0  503  0.13210869414E+03  0.22542196798E+03 -0.17602616933E+03  0.50916891402E+03  0.40000000000E+03 0.  1.
<mgrwt>
<rscale>  2 0.47777377E+03</rscale>
<asrwt>0</asrwt>
<pdfrwt beam="1">  1       21 0.13733283E+00 0.47777377E+03</pdfrwt>
<pdfrwt beam="2">  1       21 0.64798797E-01 0.47777377E+03</pdfrwt>
<totfact> 0.68512035E+02</totfact>
</mgrwt>
</event>
<event>
 4    1  0.4689683E-002  0.4964604E+03  0.7818608E-02  0.1014707E+00
         21   -1    0    0  501  502  0.00000000000E+00  0.00000000000E+00  0.94910796401E+03  0.94910796401E+03  0.00000000000E+00 0.  1.
         21   -1    0    0  502  503 -0.00000000000E+00 -0.00000000000E+00 -0.36405692590E+03  0.36405692590E+03  0.00000000000E+00 0.  1.
    9000007    1    1    2  501    0 -0.29343826587E+03 -0.19154147423E+02  0.64407636414E+03  0.81320800542E+03  0.40000000000E+03 0.  1.
   -9000007    1    1    2    0  503  0.29343826587E+03  0.19154147423E+02 -0.59025326030E+02  0.49995688449E+03  0.40000000000E+03 0.  1.
<mgrwt>
<rscale>  2 0.49646037E+03</rscale>
<asrwt>0</asrwt>
<pdfrwt beam="1">  1       21 0.14601661E+00 0.49646037E+03</pdfrwt>
<pdfrwt beam="2">  1       21 0.56008758E-01 0.49646037E+03</pdfrwt>
<totfact> 0.79479063E+02</totfact>
</mgrwt>
</event>
<event>
 4    1  0.4689683E-002  0.4673788E+03  0.7818608E-02  0.1022663E+00
         21   -1    0    0  503  502  0.00000000000E+00  0.00000000000E+00  0.81708641355E+03  0.81708641355E+03  0.00000000000E+00 0. -1.
         21   -1    0    0  501  503 -0.00000000000E+00 -0.00000000000E+00 -0.35864887934E+03  0.35864887934E+03  0.00000000000E+00 0.  1.
    9000007    1    1    2  501    0 -0.18073280027E+03 -0.16055723808E+03 -0.67395702195E+02  0.47221303716E+03  0.40000000000E+03 0.  1.
   -9000007    1    1    2    0  502  0.18073280027E+03  0.16055723808E+03  0.52583323640E+03  0.70352225572E+03  0.40000000000E+03 0. -1.
<mgrwt>
<rscale>  2 0.46737883E+03</rscale>
<asrwt>0</asrwt>
<pdfrwt beam="1">  1       21 0.12570560E+00 0.46737883E+03</pdfrwt>
<pdfrwt beam="2">  1       21 0.55176751E-01 0.46737883E+03</pdfrwt>
<totfact> 0.12325668E+03</totfact>
</mgrwt>
</event>
<event>
 4    1  0.4689683E-002  0.4358424E+03  0.7818608E-02  0.1032030E+00
         21   -1    0    0  503  502  0.00000000000E+00  0.00000000000E+00  0.31303335664E+03  0.31303335664E+03  0.00000000000E+00 0. -1.
         21   -1    0    0  501  503 -0.00000000000E+00 -0.00000000000E+00 -0.66824000815E+03  0.66824000815E+03  0.00000000000E+00 0. -1.
    9000007    1    1    2  501    0 -0.10374072552E+03  0.13855142373E+03 -0.32633605260E+03  0.54447576105E+03  0.40000000000E+03 0. -1.
   -9000007    1    1    2    0  502  0.10374072552E+03 -0.13855142373E+03 -0.28870598905E+02  0.43679760374E+03  0.40000000000E+03 0. -1.
<mgrwt>
<rscale>  2 0.43584244E+03</rscale>
<asrwt>0</asrwt>
<pdfrwt beam="1">  1       21 0.48158978E-01 0.43584244E+03</pdfrwt>
<pdfrwt beam="2">  1       21 0.10280616E+00 0.43584244E+03</pdfrwt>
<totfact> 0.27615573E+03</totfact>
</mgrwt>
</event>
<event>
 4    1  0.4689683E-002  0.5251273E+03  0.7818608E-02  0.1007421E+00
         21   -1    0    0  501  502  0.00000000000E+00  0.00000000000E+00  0.28816120672E+03  0.28816120672E+03  0.00000000000E+00 0.  1.
         21   -1    0    0  502  503 -0.00000000000E+00 -0.00000000000E+00 -0.10455411822E+04  0.10455411822E+04  0.00000000000E+00 0.  1.
    9000007    1    1    2  501    0 -0.32192514820E+03 -0.11010415377E+03 -0.18458830951E+03  0.55662516088E+03  0.40000000000E+03 0.  1.
   -9000007    1    1    2    0  503  0.32192514820E+03  0.11010415377E+03 -0.57279166592E+03  0.77707722799E+03  0.40000000000E+03 0.  1.
<mgrwt>
<rscale>  2 0.52512734E+03</rscale>
<asrwt>0</asrwt>
<pdfrwt beam="1">  1       21 0.44332494E-01 0.52512734E+03</pdfrwt>
<pdfrwt beam="2">  1       21 0.16085249E+00 0.52512734E+03</pdfrwt>
<totfact> 0.99190098E+02</totfact>
</mgrwt>
</event>
<event>
 4    1  0.4689683E-002  0.5954675E+03  0.7818608E-02  0.9914855E-01
         21   -1    0    0  503  502  0.00000000000E+00  0.00000000000E+00  0.23046010293E+03  0.23046010293E+03  0.00000000000E+00 0. -1.
         21   -1    0    0  501  503 -0.00000000000E+00 -0.00000000000E+00 -0.19270789430E+04  0.19270789430E+04  0.00000000000E+00 0.  1.
    9000007    1    1    2  501    0  0.18814333253E+03  0.39897816281E+03 -0.36394370715E+03  0.69788001113E+03  0.40000000000E+03 0.  1.
   -9000007    1    1    2    0  502 -0.18814333253E+03 -0.39897816281E+03 -0.13326751329E+04  0.14596590348E+04  0.40000000000E+03 0. -1.
<mgrwt>
<rscale>  2 0.59546745E+03</rscale>
<asrwt>0</asrwt>
<pdfrwt beam="1">  1       21 0.35455401E-01 0.59546745E+03</pdfrwt>
<pdfrwt beam="2">  1       21 0.29647368E+00 0.59546745E+03</pdfrwt>
<totfact> 0.19975886E+02</totfact>
</mgrwt>
</event>
<event>
 4    1  0.4689683E-002  0.4257945E+03  0.7818608E-02  0.1035197E+00
         21   -1    0    0  501  502  0.00000000000E+00  0.00000000000E+00  0.25642436276E+04  0.25642436276E+04  0.00000000000E+00 0. -1.
         21   -1    0    0  502  503 -0.00000000000E+00 -0.00000000000E+00 -0.15908266763E+03  0.15908266763E+03  0.00000000000E+00 0.  1.
    9000007    1    1    2  501    0  0.13423563258E+03 -0.57286561131E+02  0.22175038366E+04  0.22580133349E+04  0.40000000000E+03 0. -1.
   -9000007    1    1    2    0  503 -0.13423563258E+03  0.57286561131E+02  0.18765712340E+03  0.46531296039E+03  0.40000000000E+03 0.  1.
<mgrwt>
<rscale>  2 0.42579450E+03</rscale>
<asrwt>0</asrwt>
<pdfrwt beam="1">  1       21 0.39449899E+00 0.42579450E+03</pdfrwt>
<pdfrwt beam="2">  1       21 0.24474258E-01 0.42579450E+03</pdfrwt>
<totfact> 0.11425950E+02</totfact>
</mgrwt>
</event>
<event>
 4    1  0.4689683E-002  0.4017371E+03  0.7818608E-02  0.1043180E+00
         21   -1    0    0  501  502  0.00000000000E+00  0.00000000000E+00  0.11535260711E+03  0.11535260711E+03  0.00000000000E+00 0.  1.
         21   -1    0    0  502  503 -0.00000000000E+00 -0.00000000000E+00 -0.19924868544E+04  0.19924868544E+04  0.00000000000E+00 0.  1.
    9000007    1    1    2  501    0 -0.95267878539E+01  0.36082336254E+02 -0.36343227481E+03  0.54173398735E+03  0.40000000000E+03 0.  1.
   -9000007    1    1    2    0  503  0.95267878539E+01 -0.36082336254E+02 -0.15137019725E+04  0.15661054741E+04  0.40000000000E+03 0.  1.
<mgrwt>
<rscale>  2 0.40173710E+03</rscale>
<asrwt>0</asrwt>
<pdfrwt beam="1">  1       21 0.17746556E-01 0.40173710E+03</pdfrwt>
<pdfrwt beam="2">  1       21 0.30653643E+00 0.40173710E+03</pdfrwt>
<totfact> 0.74344426E+02</totfact>
</mgrwt>
</event>
<event>
 4    1  0.4689683E-002  0.4155300E+03  0.7818608E-02  0.1038531E+00
         21   -1    0    0  503  502  0.00000000000E+00  0.00000000000E+00  0.20994615121E+03  0.20994615121E+03  0.00000000000E+00 0. -1.
         21   -1    0    0  501  503 -0.00000000000E+00 -0.00000000000E+00 -0.98082218991E+03  0.98082218991E+03  0.00000000000E+00 0. -1.
    9000007    1    1    2  501    0 -0.52057852498E+02 -0.99775682351E+02 -0.62470032837E+03  0.75027708686E+03  0.40000000000E+03 0. -1.
   -9000007    1    1    2    0  502  0.52057852498E+02  0.99775682351E+02 -0.14617571034E+03  0.44049125427E+03  0.40000000000E+03 0. -1.
<mgrwt>
<rscale>  2 0.41553003E+03</rscale>
<asrwt>0</asrwt>
<pdfrwt beam="1">  1       21 0.32299408E-01 0.41553003E+03</pdfrwt>
<pdfrwt beam="2">  1       21 0.15089572E+00 0.41553003E+03</pdfrwt>
<totfact> 0.23622680E+03</totfact>
</mgrwt>
</event>
<event>
 4    1  0.4689683E-002  0.4154641E+03  0.7818608E-02  0.1038553E+00
         21   -1    0    0  501  502  0.00000000000E+00  0.00000000000E+00  0.37121864238E+03  0.37121864238E+03  0.00000000000E+00 0.  1.
         21   -1    0    0  502  503 -0.00000000000E+00 -0.00000000000E+00 -0.12645373268E+04  0.12645373268E+04  0.00000000000E+00 0.  1.
    9000007    1    1    2  501    0  0.93806811569E+02 -0.61730593656E+02  0.20368993397E+03  0.46270938319E+03  0.40000000000E+03 0.  1.
   -9000007    1    1    2    0  503 -0.93806811569E+02  0.61730593656E+02 -0.10970086183E+04  0.11730465860E+04  0.40000000000E+03 0.  1.
<mgrwt>
<rscale>  2 0.41546406E+03</rscale>
<asrwt>0</asrwt>
<pdfrwt beam="1">  1       21 0.57110560E-01 0.41546406E+03</pdfrwt>
<pdfrwt beam="2">  1       21 0.19454421E+00 0.41546406E+03</pdfrwt>
<totfact> 0.34951345E+02</totfact>
</mgrwt>
</event>
<event>
 4    1  0.4689683E-002  0.6543094E+03  0.7818608E-02  0.9798726E-01
         21   -1    0    0  503  502  0.00000000000E+00  0.00000000000E+00  0.27206070085E+04  0.27206070085E+04  0.00000000000E+00 0. -1.
         21   -1    0    0  501  503 -0.00000000000E+00 -0.00000000000E+00 -0.17428256002E+03  0.17428256002E+03  0.00000000000E+00 0. -1.
    9000007    1    1    2  501    0  0.45781326722E+03 -0.24192507124E+03  0.82215891454E+03  0.10507454537E+04  0.40000000000E+03 0. -1.
   -9000007    1    1    2    0  502 -0.45781326722E+03  0.24192507124E+03  0.17241655340E+04  0.18441441148E+04  0.40000000000E+03 0. -1.
<mgrwt>
<rscale>  2 0.65430935E+03</rscale>
<asrwt>0</asrwt>
<pdfrwt beam="1">  1       21 0.41855489E+00 0.65430935E+03</pdfrwt>
<pdfrwt beam="2">  1       21 0.26812704E-01 0.65430935E+03</pdfrwt>
<totfact> 0.58293541E+01</totfact>
</mgrwt>
</event>
<event>
 4    1  0.4689683E-002  0.4001380E+03  0.7818608E-02  0.1043732E+00
         21   -1    0    0  501  502  0.00000000000E+00  0.00000000000E+00  0.37131769818E+03  0.37131769818E+03  0.00000000000E+00 0.  1.
         21   -1    0    0  502  503 -0.00000000000E+00 -0.00000000000E+00 -0.13537178936E+04  0.13537178936E+04  0.00000000000E+00 0.  1.
    9000007    1    1    2  501    0 -0.88594443025E+01 -0.56527166633E+01  0.22082038539E+03  0.45702525703E+03  0.40000000000E+03 0.  1.
   -9000007    1    1    2    0  503  0.88594443025E+01  0.56527166633E+01 -0.12032205808E+04  0.12680103348E+04  0.40000000000E+03 0.  1.
<mgrwt>
<rscale>  2 0.40013803E+03</rscale>
<asrwt>0</asrwt>
<pdfrwt beam="1">  1       21 0.57125799E-01 0.40013803E+03</pdfrwt>
<pdfrwt beam="2">  1       21 0.20826429E+00 0.40013803E+03</pdfrwt>
<totfact> 0.28589767E+02</totfact>
</mgrwt>
</event>
<event>
 4    1  0.4689683E-002  0.4625236E+03  0.7818608E-02  0.1024052E+00
         21   -1    0    0  501  502  0.00000000000E+00  0.00000000000E+00  0.37501235455E+03  0.37501235455E+03  0.00000000000E+00 0. -1.
         21   -1    0    0  502  503 -0.00000000000E+00 -0.00000000000E+00 -0.64380067265E+03  0.64380067265E+03  0.00000000000E+00 0.  1.
    9000007    1    1    2  501    0 -0.14769995047E+03  0.17920037444E+03  0.37544309239E+02  0.46404485206E+03  0.40000000000E+03 0. -1.
   -9000007    1    1    2    0  503  0.14769995047E+03 -0.17920037444E+03 -0.30633262734E+03  0.55476817513E+03  0.40000000000E+03 0.  1.
<mgrwt>
<rscale>  2 0.46252357E+03</rscale>
<asrwt>0</asrwt>
<pdfrwt beam="1">  1       21 0.57694209E-01 0.46252357E+03</pdfrwt>
<pdfrwt beam="2">  1       21 0.99046257E-01 0.46252357E+03</pdfrwt>
<totfact> 0.20326012E+03</totfact>
</mgrwt>
</event>
<event>
 4    1  0.4689683E-002  0.4168100E+03  0.7818608E-02  0.1038110E+00
         21   -1    0    0  503  502  0.00000000000E+00  0.00000000000E+00  0.44519994431E+03  0.44519994431E+03  0.00000000000E+00 0. -1.
         21   -1    0    0  501  503 -0.00000000000E+00 -0.00000000000E+00 -0.11814949992E+04  0.11814949992E+04  0.00000000000E+00 0. -1.
    9000007    1    1    2  501    0  0.92336366517E+01 -0.11681304509E+03 -0.10337593819E+04  0.11146250523E+04  0.40000000000E+03 0. -1.
   -9000007    1    1    2    0  502 -0.92336366517E+01  0.11681304509E+03  0.29746432706E+03  0.51206989115E+03  0.40000000000E+03 0. -1.
<mgrwt>
<rscale>  2 0.41680997E+03</rscale>
<asrwt>0</asrwt>
<pdfrwt beam="1">  1       21 0.68492299E-01 0.41680997E+03</pdfrwt>
<pdfrwt beam="2">  1       21 0.18176846E+00 0.41680997E+03</pdfrwt>
<totfact> 0.28629747E+02</totfact>
</mgrwt>
</event>
<event>
 4    1  0.4689683E-002  0.5991412E+03  0.7818608E-02  0.9907189E-01
         21   -1    0    0  501  502  0.00000000000E+00  0.00000000000E+00  0.13957142753E+04  0.13957142753E+04  0.00000000000E+00 0.  1.
         21   -1    0    0  502  503 -0.00000000000E+00 -0.00000000000E+00 -0.32845991046E+03  0.32845991046E+03  0.00000000000E+00 0.  1.
    9000007    1    1    2  501    0 -0.13684815457E+03 -0.42455001295E+03  0.93518597926E+03  0.11106497858E+04  0.40000000000E+03 0.  1.
   -9000007    1    1    2    0  503  0.13684815457E+03  0.42455001295E+03  0.13206838562E+03  0.61352439999E+03  0.40000000000E+03 0.  1.
<mgrwt>
<rscale>  2 0.59914116E+03</rscale>
<asrwt>0</asrwt>
<pdfrwt beam="1">  1       21 0.21472527E+00 0.59914116E+03</pdfrwt>
<pdfrwt beam="2">  1       21 0.50532295E-01 0.59914116E+03</pdfrwt>
<totfact> 0.30736144E+02</totfact>
</mgrwt>
</event>
<event>
 4    1  0.4689683E-002  0.6122661E+03  0.7818608E-02  0.9880280E-01
         21   -1    0    0  503  502  0.00000000000E+00  0.00000000000E+00  0.10596111426E+04  0.10596111426E+04  0.00000000000E+00 0.  1.
         21   -1    0    0  501  503 -0.00000000000E+00 -0.00000000000E+00 -0.37724208041E+03  0.37724208041E+03  0.00000000000E+00 0.  1.
    9000007    1    1    2  501    0  0.32601419532E+02 -0.46239254872E+03  0.16202029991E+03  0.63334058708E+03  0.40000000000E+03 0.  1.
   -9000007    1    1    2    0  502 -0.32601419532E+02  0.46239254872E+03  0.52034876223E+03  0.80351263588E+03  0.40000000000E+03 0.  1.
<mgrwt>
<rscale>  2 0.61226605E+03</rscale>
<asrwt>0</asrwt>
<pdfrwt beam="1">  1       21 0.16301710E+00 0.61226605E+03</pdfrwt>
<pdfrwt beam="2">  1       21 0.58037243E-01 0.61226605E+03</pdfrwt>
<totfact> 0.52007537E+02</totfact>
</mgrwt>
</event>
<event>
 4    1  0.4689683E-002  0.4845943E+03  0.7818608E-02  0.1017880E+00
         21   -1    0    0  503  502  0.00000000000E+00  0.00000000000E+00  0.74563401396E+03  0.74563401396E+03  0.00000000000E+00 0.  1.
         21   -1    0    0  501  503 -0.00000000000E+00 -0.00000000000E+00 -0.31546859947E+03  0.31546859947E+03  0.00000000000E+00 0.  1.
    9000007    1    1    2  501    0  0.45906266959E+02 -0.26967442686E+03  0.19341210275E+03  0.52176615771E+03  0.40000000000E+03 0.  1.
   -9000007    1    1    2    0  502 -0.45906266959E+02  0.26967442686E+03  0.23675331175E+03  0.53933645572E+03  0.40000000000E+03 0.  1.
<mgrwt>
<rscale>  2 0.48459435E+03</rscale>
<asrwt>0</asrwt>
<pdfrwt beam="1">  1       21 0.11471292E+00 0.48459435E+03</pdfrwt>
<pdfrwt beam="2">  1       21 0.48533631E-01 0.48459435E+03</pdfrwt>
<totfact> 0.20342795E+03</totfact>
</mgrwt>
</event>
<event>
 4    1  0.4689683E-002  0.4416382E+03  0.7818608E-02  0.1030245E+00
         21   -1    0    0  503  502  0.00000000000E+00  0.00000000000E+00  0.11245515068E+03  0.11245515068E+03  0.00000000000E+00 0. -1.
         21   -1    0    0  501  503 -0.00000000000E+00 -0.00000000000E+00 -0.17949951765E+04  0.17949951765E+04  0.00000000000E+00 0. -1.
    9000007    1    1    2  501    0  0.43330692598E+02  0.18211728835E+03 -0.66606540053E+03  0.79917918730E+03  0.40000000000E+03 0. -1.
   -9000007    1    1    2    0  502 -0.43330692598E+02 -0.18211728835E+03 -0.10164746253E+04  0.11082711399E+04  0.40000000000E+03 0. -1.
<mgrwt>
<rscale>  2 0.44163815E+03</rscale>
<asrwt>0</asrwt>
<pdfrwt beam="1">  1       21 0.17300791E-01 0.44163815E+03</pdfrwt>
<pdfrwt beam="2">  1       21 0.27615313E+00 0.44163815E+03</pdfrwt>
<totfact> 0.11597803E+03</totfact>
</mgrwt>
</event>
<event>
 4    1  0.4689683E-002  0.4407435E+03  0.7818608E-02  0.1030519E+00
         21   -1    0    0  501  502  0.00000000000E+00  0.00000000000E+00  0.46589520188E+03  0.46589520188E+03  0.00000000000E+00 0.  1.
         21   -1    0    0  502  503 -0.00000000000E+00 -0.00000000000E+00 -0.53878543669E+03  0.53878543669E+03  0.00000000000E+00 0.  1.
    9000007    1    1    2  501    0  0.83663926668E+00 -0.18507865572E+03  0.20243371838E+03  0.48500950414E+03  0.40000000000E+03 0.  1.
   -9000007    1    1    2    0  503 -0.83663926668E+00  0.18507865572E+03 -0.27532395318E+03  0.51967113443E+03  0.40000000000E+03 0.  1.
<mgrwt>
<rscale>  2 0.44074347E+03</rscale>
<asrwt>0</asrwt>
<pdfrwt beam="1">  1       21 0.71676185E-01 0.44074347E+03</pdfrwt>
<pdfrwt beam="2">  1       21 0.82890067E-01 0.44074347E+03</pdfrwt>
<totfact> 0.19319823E+03</totfact>
</mgrwt>
</event>
<event>
 4    1  0.4689683E-002  0.5044519E+03  0.7818608E-02  0.1012623E+00
         21   -1    0    0  503  502  0.00000000000E+00  0.00000000000E+00  0.91905347828E+03  0.91905347828E+03  0.00000000000E+00 0. -1.
         21   -1    0    0  501  503 -0.00000000000E+00 -0.00000000000E+00 -0.45521177279E+03  0.45521177279E+03  0.00000000000E+00 0.  1.
    9000007    1    1    2  501    0 -0.29126495960E+03  0.98165311610E+02 -0.19815261908E+03  0.54197432185E+03  0.40000000000E+03 0.  1.
   -9000007    1    1    2    0  502  0.29126495960E+03 -0.98165311610E+02  0.66199432458E+03  0.83229092922E+03  0.40000000000E+03 0. -1.
<mgrwt>
<rscale>  2 0.50445189E+03</rscale>
<asrwt>0</asrwt>
<pdfrwt beam="1">  1       21 0.14139284E+00 0.50445189E+03</pdfrwt>
<pdfrwt beam="2">  1       21 0.70032580E-01 0.50445189E+03</pdfrwt>
<totfact> 0.52684415E+02</totfact>
</mgrwt>
</event>
<event>
 4    1  0.4689683E-002  0.6484879E+03  0.7818608E-02  0.9809621E-01
         21   -1    0    0  503  502  0.00000000000E+00  0.00000000000E+00  0.11638029651E+04  0.11638029651E+04  0.00000000000E+00 0.  1.
         21   -1    0    0  501  503 -0.00000000000E+00 -0.00000000000E+00 -0.36710953596E+03  0.36710953596E+03  0.00000000000E+00 0. -1.
    9000007    1    1    2  501    0  0.15380245753E+03 -0.48670452803E+03  0.30244279117E+03  0.71554743762E+03  0.40000000000E+03 0. -1.
   -9000007    1    1    2    0  502 -0.15380245753E+03  0.48670452803E+03  0.49425063800E+03  0.81536506346E+03  0.40000000000E+03 0.  1.
<mgrwt>
<rscale>  2 0.64848785E+03</rscale>
<asrwt>0</asrwt>
<pdfrwt beam="1">  1       21 0.17904661E+00 0.64848785E+03</pdfrwt>
<pdfrwt beam="2">  1       21 0.56478391E-01 0.64848785E+03</pdfrwt>
<totfact> 0.41592589E+02</totfact>
</mgrwt>
</event>
<event>
 4    1  0.4689683E-002  0.5284737E+03  0.7818608E-02  0.1006603E+00
         21   -1    0    0  501  502  0.00000000000E+00  0.00000000000E+00  0.85218379310E+03  0.85218379310E+03  0.00000000000E+00 0.  1.
         21   -1    0    0  502  503 -0.00000000000E+00 -0.00000000000E+00 -0.39931454988E+03  0.39931454988E+03  0.00000000000E+00 0. -1.
    9000007    1    1    2  501    0 -0.12429655358E+03  0.32223416340E+03 -0.38512029740E+02  0.52987514164E+03  0.40000000000E+03 0. -1.
   -9000007    1    1    2    0  503  0.12429655358E+03 -0.32223416340E+03  0.49138127297E+03  0.72162320134E+03  0.40000000000E+03 0.  1.
<mgrwt>
<rscale>  2 0.52847374E+03</rscale>
<asrwt>0</asrwt>
<pdfrwt beam="1">  1       21 0.13110520E+00 0.52847374E+03</pdfrwt>
<pdfrwt beam="2">  1       21 0.61433008E-01 0.52847374E+03</pdfrwt>
<totfact> 0.85411982E+02</totfact>
</mgrwt>
</event>
<event>
 4    1  0.4689683E-002  0.4332151E+03  0.7818608E-02  0.1032849E+00
         21   -1    0    0  501  502  0.00000000000E+00  0.00000000000E+00  0.86931888985E+03  0.86931888985E+03  0.00000000000E+00 0.  1.
         21   -1    0    0  502  503 -0.00000000000E+00 -0.00000000000E+00 -0.23483357937E+03  0.23483357937E+03  0.00000000000E+00 0.  1.
    9000007    1    1    2  501    0 -0.15472848285E+03 -0.61109674686E+02  0.47405339707E+03  0.64218526846E+03  0.40000000000E+03 0.  1.
   -9000007    1    1    2    0  503  0.15472848285E+03  0.61109674686E+02  0.16043191341E+03  0.46196720077E+03  0.40000000000E+03 0.  1.
<mgrwt>
<rscale>  2 0.43321507E+03</rscale>
<asrwt>0</asrwt>
<pdfrwt beam="1">  1       21 0.13374137E+00 0.43321507E+03</pdfrwt>
<pdfrwt beam="2">  1       21 0.36128243E-01 0.43321507E+03</pdfrwt>
<totfact> 0.25814045E+03</totfact>
</mgrwt>
</event>
<event>
 4    1  0.4689683E-002  0.4825116E+03  0.7818608E-02  0.1018447E+00
         21   -1    0    0  501  502  0.00000000000E+00  0.00000000000E+00  0.35714033548E+03  0.35714033548E+03  0.00000000000E+00 0.  1.
         21   -1    0    0  502  503 -0.00000000000E+00 -0.00000000000E+00 -0.68362300599E+03  0.68362300599E+03  0.00000000000E+00 0.  1.
    9000007    1    1    2  501    0 -0.13162136451E+03 -0.23556998268E+03 -0.51130776310E+02  0.48521310434E+03  0.40000000000E+03 0.  1.
   -9000007    1    1    2    0  503  0.13162136451E+03  0.23556998268E+03 -0.27535189420E+03  0.55555023713E+03  0.40000000000E+03 0.  1.
<mgrwt>
<rscale>  2 0.48251155E+03</rscale>
<asrwt>0</asrwt>
<pdfrwt beam="1">  1       21 0.54944668E-01 0.48251155E+03</pdfrwt>
<pdfrwt beam="2">  1       21 0.10517277E+00 0.48251155E+03</pdfrwt>
<totfact> 0.19368535E+03</totfact>
</mgrwt>
</event>
<event>
 4    1  0.4689683E-002  0.4582031E+03  0.7818608E-02  0.1025304E+00
         21   -1    0    0  501  502  0.00000000000E+00  0.00000000000E+00  0.10864754106E+04  0.10864754106E+04  0.00000000000E+00 0.  1.
         21   -1    0    0  502  503 -0.00000000000E+00 -0.00000000000E+00 -0.24432952505E+03  0.24432952505E+03  0.00000000000E+00 0.  1.
    9000007    1    1    2  501    0 -0.55546939819E+02 -0.21648238539E+03  0.72534636413E+03  0.85794955193E+03  0.40000000000E+03 0.  1.
   -9000007    1    1    2    0  503  0.55546939819E+02  0.21648238539E+03  0.11679952143E+03  0.47285538372E+03  0.40000000000E+03 0.  1.
<mgrwt>
<rscale>  2 0.45820311E+03</rscale>
<asrwt>0</asrwt>
<pdfrwt beam="1">  1       21 0.16715006E+00 0.45820311E+03</pdfrwt>
<pdfrwt beam="2">  1       21 0.37589158E-01 0.45820311E+03</pdfrwt>
<totfact> 0.12858431E+03</totfact>
</mgrwt>
</event>
<event>
 4    1  0.4689683E-002  0.4576174E+03  0.7818608E-02  0.1025475E+00
         21   -1    0    0  503  502  0.00000000000E+00  0.00000000000E+00  0.13719371424E+03  0.13719371424E+03  0.00000000000E+00 0.  1.
         21   -1    0    0  501  503 -0.00000000000E+00 -0.00000000000E+00 -0.17668714527E+04  0.17668714527E+04  0.00000000000E+00 0.  1.
    9000007    1    1    2  501    0  0.19205411830E+03 -0.11193246512E+03 -0.11660541155E+04  0.12526355661E+04  0.40000000000E+03 0.  1.
   -9000007    1    1    2    0  502 -0.19205411830E+03  0.11193246512E+03 -0.46362362288E+03  0.65142960080E+03  0.40000000000E+03 0.  1.
<mgrwt>
<rscale>  2 0.45761737E+03</rscale>
<asrwt>0</asrwt>
<pdfrwt beam="1">  1       21 0.21106727E-01 0.45761737E+03</pdfrwt>
<pdfrwt beam="2">  1       21 0.27182636E+00 0.45761737E+03</pdfrwt>
<totfact> 0.83804660E+02</totfact>
</mgrwt>
</event>
<event>
 4    1  0.4689683E-002  0.4470113E+03  0.7818608E-02  0.1028617E+00
         21   -1    0    0  503  502  0.00000000000E+00  0.00000000000E+00  0.19300735150E+04  0.19300735150E+04  0.00000000000E+00 0.  1.
         21   -1    0    0  501  503 -0.00000000000E+00 -0.00000000000E+00 -0.22889368466E+03  0.22889368466E+03  0.00000000000E+00 0.  1.
    9000007    1    1    2  501    0  0.19835576341E+03  0.21773732055E+02  0.51701211786E+02  0.44999124390E+03  0.40000000000E+03 0.  1.
   -9000007    1    1    2    0  502 -0.19835576341E+03 -0.21773732055E+02  0.16494786185E+04  0.17089759557E+04  0.40000000000E+03 0.  1.
<mgrwt>
<rscale>  2 0.44701130E+03</rscale>
<asrwt>0</asrwt>
<pdfrwt beam="1">  1       21 0.29693438E+00 0.44701130E+03</pdfrwt>
<pdfrwt beam="2">  1       21 0.35214414E-01 0.44701130E+03</pdfrwt>
<totfact> 0.21747895E+02</totfact>
</mgrwt>
</event>
<event>
 4    1  0.4689683E-002  0.5667707E+03  0.7818608E-02  0.9976850E-01
         21   -1    0    0  503  502  0.00000000000E+00  0.00000000000E+00  0.10399793075E+04  0.10399793075E+04  0.00000000000E+00 0. -1.
         21   -1    0    0  501  503 -0.00000000000E+00 -0.00000000000E+00 -0.36403037273E+03  0.36403037273E+03  0.00000000000E+00 0. -1.
    9000007    1    1    2  501    0 -0.38607551558E+03  0.11033905567E+03  0.61121476887E+03  0.83355414019E+03  0.40000000000E+03 0. -1.
   -9000007    1    1    2    0  502  0.38607551558E+03 -0.11033905567E+03  0.64734165913E+02  0.57045554005E+03  0.40000000000E+03 0. -1.
<mgrwt>
<rscale>  2 0.56677069E+03</rscale>
<asrwt>0</asrwt>
<pdfrwt beam="1">  1       21 0.15999682E+00 0.56677069E+03</pdfrwt>
<pdfrwt beam="2">  1       21 0.56004673E-01 0.56677069E+03</pdfrwt>
<totfact> 0.60208519E+02</totfact>
</mgrwt>
</event>
<event>
 4    1  0.4689683E-002  0.7045510E+03  0.7818608E-02  0.9709481E-01
         21   -1    0    0  503  502  0.00000000000E+00  0.00000000000E+00  0.15653683561E+04  0.15653683561E+04  0.00000000000E+00 0.  1.
         21   -1    0    0  501  503 -0.00000000000E+00 -0.00000000000E+00 -0.35223573625E+03  0.35223573625E+03  0.00000000000E+00 0. -1.
    9000007    1    1    2  501    0 -0.20526980785E+03 -0.54245403863E+03  0.90934994063E+03  0.11503518560E+04  0.40000000000E+03 0.  1.
   -9000007    1    1    2    0  502  0.20526980785E+03  0.54245403863E+03  0.30378267927E+03  0.76725223641E+03  0.40000000000E+03 0.  1.
<mgrwt>
<rscale>  2 0.70455098E+03</rscale>
<asrwt>0</asrwt>
<pdfrwt beam="1">  1       21 0.24082590E+00 0.70455098E+03</pdfrwt>
<pdfrwt beam="2">  1       21 0.54190114E-01 0.70455098E+03</pdfrwt>
<totfact> 0.17291491E+02</totfact>
</mgrwt>
</event>
<event>
 4    1  0.4689683E-002  0.5464119E+03  0.7818608E-02  0.1002328E+00
         21   -1    0    0  503  502  0.00000000000E+00  0.00000000000E+00  0.28531759614E+03  0.28531759614E+03  0.00000000000E+00 0.  1.
         21   -1    0    0  501  503 -0.00000000000E+00 -0.00000000000E+00 -0.12370772176E+04  0.12370772176E+04  0.00000000000E+00 0. -1.
    9000007    1    1    2  501    0  0.90355945141E+02  0.36111184073E+03 -0.17705966381E+03  0.57438321954E+03  0.40000000000E+03 0.  1.
   -9000007    1    1    2    0  502 -0.90355945141E+02 -0.36111184073E+03 -0.77469995765E+03  0.94801159419E+03  0.40000000000E+03 0. -1.
<mgrwt>
<rscale>  2 0.54641189E+03</rscale>
<asrwt>0</asrwt>
<pdfrwt beam="1">  1       21 0.43895014E-01 0.54641189E+03</pdfrwt>
<pdfrwt beam="2">  1       21 0.19031957E+00 0.54641189E+03</pdfrwt>
<totfact> 0.61620530E+02</totfact>
</mgrwt>
</event>
<event>
 4    1  0.4689683E-002  0.4685922E+03  0.7818608E-02  0.1022318E+00
         21   -1    0    0  501  502  0.00000000000E+00  0.00000000000E+00  0.38721451220E+03  0.38721451220E+03  0.00000000000E+00 0. -1.
         21   -1    0    0  502  503 -0.00000000000E+00 -0.00000000000E+00 -0.63845923827E+03  0.63845923827E+03  0.00000000000E+00 0. -1.
    9000007    1    1    2  501    0 -0.83618241380E+02 -0.22931784147E+03  0.45860835117E+02  0.47083107258E+03  0.40000000000E+03 0.  1.
   -9000007    1    1    2    0  503  0.83618241380E+02  0.22931784147E+03 -0.29710556119E+03  0.55484267788E+03  0.40000000000E+03 0.  1.
<mgrwt>
<rscale>  2 0.46859224E+03</rscale>
<asrwt>0</asrwt>
<pdfrwt beam="1">  1       21 0.59571464E-01 0.46859224E+03</pdfrwt>
<pdfrwt beam="2">  1       21 0.98224497E-01 0.46859224E+03</pdfrwt>
<totfact> 0.19295531E+03</totfact>
</mgrwt>
</event>
<event>
 4    1  0.4689683E-002  0.4714672E+03  0.7818608E-02  0.1021507E+00
         21   -1    0    0  503  502  0.00000000000E+00  0.00000000000E+00  0.35115018292E+03  0.35115018292E+03  0.00000000000E+00 0. -1.
         21   -1    0    0  501  503 -0.00000000000E+00 -0.00000000000E+00 -0.64853161387E+03  0.64853161387E+03  0.00000000000E+00 0. -1.
    9000007    1    1    2  501    0 -0.24334971913E+03 -0.55337421865E+02 -0.71361241170E+02  0.47683722883E+03  0.40000000000E+03 0. -1.
   -9000007    1    1    2    0  502  0.24334971913E+03  0.55337421865E+02 -0.22602018977E+03  0.52284456796E+03  0.40000000000E+03 0. -1.
<mgrwt>
<rscale>  2 0.47146720E+03</rscale>
<asrwt>0</asrwt>
<pdfrwt beam="1">  1       21 0.54023106E-01 0.47146720E+03</pdfrwt>
<pdfrwt beam="2">  1       21 0.99774092E-01 0.47146720E+03</pdfrwt>
<totfact> 0.22950058E+03</totfact>
</mgrwt>
</event>
<event>
 4    1  0.4689683E-002  0.4919895E+03  0.7818608E-02  0.1015891E+00
         21   -1    0    0  503  502  0.00000000000E+00  0.00000000000E+00  0.12060319197E+04  0.12060319197E+04  0.00000000000E+00 0. -1.
         21   -1    0    0  501  503 -0.00000000000E+00 -0.00000000000E+00 -0.10126868542E+04  0.10126868542E+04  0.00000000000E+00 0.  1.
    9000007    1    1    2  501    0 -0.22324925403E+02 -0.28557875542E+03 -0.89669166979E+03  0.10227949836E+04  0.40000000000E+03 0.  1.
   -9000007    1    1    2    0  502  0.22324925403E+02  0.28557875542E+03  0.10900367353E+04  0.11959237903E+04  0.40000000000E+03 0. -1.
<mgrwt>
<rscale>  2 0.49198946E+03</rscale>
<asrwt>0</asrwt>
<pdfrwt beam="1">  1       21 0.18554337E+00 0.49198946E+03</pdfrwt>
<pdfrwt beam="2">  1       21 0.15579798E+00 0.49198946E+03</pdfrwt>
<totfact> 0.34120977E+01</totfact>
</mgrwt>
</event>
<event>
 4    1  0.4689683E-002  0.5318279E+03  0.7818608E-02  0.1005790E+00
         21   -1    0    0  503  502  0.00000000000E+00  0.00000000000E+00  0.36269273421E+03  0.36269273421E+03  0.00000000000E+00 0. -1.
         21   -1    0    0  501  503 -0.00000000000E+00 -0.00000000000E+00 -0.78137789350E+03  0.78137789350E+03  0.00000000000E+00 0. -1.
    9000007    1    1    2  501    0 -0.33071049236E+03  0.11606690957E+03 -0.23475103344E+03  0.58133381542E+03  0.40000000000E+03 0. -1.
   -9000007    1    1    2    0  502  0.33071049236E+03 -0.11606690957E+03 -0.18393412585E+03  0.56273681229E+03  0.40000000000E+03 0. -1.
<mgrwt>
<rscale>  2 0.53182794E+03</rscale>
<asrwt>0</asrwt>
<pdfrwt beam="1">  1       21 0.55798883E-01 0.53182794E+03</pdfrwt>
<pdfrwt beam="2">  1       21 0.12021198E+00 0.53182794E+03</pdfrwt>
<totfact> 0.13181561E+03</totfact>
</mgrwt>
</event>
<event>
 4    1  0.4689683E-002  0.4861482E+03  0.7818608E-02  0.1017459E+00
         21   -1    0    0  503  502  0.00000000000E+00  0.00000000000E+00  0.11501876534E+04  0.11501876534E+04  0.00000000000E+00 0.  1.
         21   -1    0    0  501  503 -0.00000000000E+00 -0.00000000000E+00 -0.29429691763E+03  0.29429691763E+03  0.00000000000E+00 0. -1.
    9000007    1    1    2  501    0  0.83394260271E+02  0.26341115247E+03  0.31175200009E+02  0.48714672429E+03  0.40000000000E+03 0. -1.
   -9000007    1    1    2    0  502 -0.83394260271E+02 -0.26341115247E+03  0.82471553579E+03  0.95733784678E+03  0.40000000000E+03 0.  1.
<mgrwt>
<rscale>  2 0.48614816E+03</rscale>
<asrwt>0</asrwt>
<pdfrwt beam="1">  1       21 0.17695194E+00 0.48614816E+03</pdfrwt>
<pdfrwt beam="2">  1       21 0.45276450E-01 0.48614816E+03</pdfrwt>
<totfact> 0.73393997E+02</totfact>
</mgrwt>
</event>
<event>
 4    1  0.4689683E-002  0.5757400E+03  0.7818608E-02  0.9957057E-01
         21   -1    0    0  503  502  0.00000000000E+00  0.00000000000E+00  0.31590184627E+03  0.31590184627E+03  0.00000000000E+00 0. -1.
         21   -1    0    0  501  503 -0.00000000000E+00 -0.00000000000E+00 -0.11116103985E+04  0.11116103985E+04  0.00000000000E+00 0.  1.
    9000007    1    1    2  501    0 -0.40635649247E+03 -0.79692849065E+02 -0.56683829173E+03  0.80794937845E+03  0.40000000000E+03 0. -1.
   -9000007    1    1    2    0  502  0.40635649247E+03  0.79692849065E+02 -0.22887026047E+03  0.61956286630E+03  0.40000000000E+03 0.  1.
<mgrwt>
<rscale>  2 0.57574000E+03</rscale>
<asrwt>0</asrwt>
<pdfrwt beam="1">  1       21 0.48600285E-01 0.57574000E+03</pdfrwt>
<pdfrwt beam="2">  1       21 0.17101698E+00 0.57574000E+03</pdfrwt>
<totfact> 0.67384416E+02</totfact>
</mgrwt>
</event>
<event>
 4    1  0.4689683E-002  0.4174058E+03  0.7818608E-02  0.1037914E+00
         21   -1    0    0  503  502  0.00000000000E+00  0.00000000000E+00  0.58657827799E+03  0.58657827799E+03  0.00000000000E+00 0. -1.
         21   -1    0    0  501  503 -0.00000000000E+00 -0.00000000000E+00 -0.30190065835E+03  0.30190065835E+03  0.00000000000E+00 0. -1.
    9000007    1    1    2  501    0 -0.10085536082E+03  0.63684954045E+02  0.19880197202E+03  0.46233083529E+03  0.40000000000E+03 0. -1.
   -9000007    1    1    2    0  502  0.10085536082E+03 -0.63684954045E+02  0.85875647623E+02  0.42614810105E+03  0.40000000000E+03 0. -1.
<mgrwt>
<rscale>  2 0.41740577E+03</rscale>
<asrwt>0</asrwt>
<pdfrwt beam="1">  1       21 0.90242812E-01 0.41740577E+03</pdfrwt>
<pdfrwt beam="2">  1       21 0.46446255E-01 0.41740577E+03</pdfrwt>
<totfact> 0.41050788E+03</totfact>
</mgrwt>
</event>
<event>
 4    1  0.4689683E-002  0.6136292E+03  0.7818608E-02  0.9877526E-01
         21   -1    0    0  503  502  0.00000000000E+00  0.00000000000E+00  0.54105812948E+03  0.54105812948E+03  0.00000000000E+00 0. -1.
         21   -1    0    0  501  503 -0.00000000000E+00 -0.00000000000E+00 -0.11333274342E+04  0.11333274342E+04  0.00000000000E+00 0.  1.
    9000007    1    1    2  501    0  0.28327744434E+03  0.36918106615E+03 -0.81623109594E+03  0.10211630487E+04  0.40000000000E+03 0.  1.
   -9000007    1    1    2    0  502 -0.28327744434E+03 -0.36918106615E+03  0.22396179126E+03  0.65322251494E+03  0.40000000000E+03 0. -1.
<mgrwt>
<rscale>  2 0.61362918E+03</rscale>
<asrwt>0</asrwt>
<pdfrwt beam="1">  1       21 0.83239713E-01 0.61362918E+03</pdfrwt>
<pdfrwt beam="2">  1       21 0.17435807E+00 0.61362918E+03</pdfrwt>
<totfact> 0.18922962E+02</totfact>
</mgrwt>
</event>
<event>
 4    1  0.4689683E-002  0.4182317E+03  0.7818608E-02  0.1037643E+00
         21   -1    0    0  501  502  0.00000000000E+00  0.00000000000E+00  0.33073215949E+03  0.33073215949E+03  0.00000000000E+00 0.  1.
         21   -1    0    0  502  503 -0.00000000000E+00 -0.00000000000E+00 -0.57411548217E+03  0.57411548217E+03  0.00000000000E+00 0.  1.
    9000007    1    1    2  501    0  0.12127939379E+03  0.14457670002E+02 -0.24868593076E+03  0.48658237508E+03  0.40000000000E+03 0.  1.
   -9000007    1    1    2    0  503 -0.12127939379E+03 -0.14457670002E+02  0.53026080823E+01  0.41826526659E+03  0.40000000000E+03 0.  1.
<mgrwt>
<rscale>  2 0.41823165E+03</rscale>
<asrwt>0</asrwt>
<pdfrwt beam="1">  1       21 0.50881871E-01 0.41823165E+03</pdfrwt>
<pdfrwt beam="2">  1       21 0.88325458E-01 0.41823165E+03</pdfrwt>
<totfact> 0.35597505E+03</totfact>
</mgrwt>
</event>
<event>
 4    1  0.4689683E-002  0.4905959E+03  0.7818608E-02  0.1016263E+00
         21   -1    0    0  503  502  0.00000000000E+00  0.00000000000E+00  0.81613394933E+03  0.81613394933E+03  0.00000000000E+00 0. -1.
         21   -1    0    0  501  503 -0.00000000000E+00 -0.00000000000E+00 -0.33319221377E+03  0.33319221377E+03  0.00000000000E+00 0. -1.
    9000007    1    1    2  501    0 -0.22549259331E+03 -0.17273526370E+03  0.43626509732E+03  0.65651474934E+03  0.40000000000E+03 0. -1.
   -9000007    1    1    2    0  502  0.22549259331E+03  0.17273526370E+03  0.46676638235E+02  0.49281141375E+03  0.40000000000E+03 0. -1.
<mgrwt>
<rscale>  2 0.49059594E+03</rscale>
<asrwt>0</asrwt>
<pdfrwt beam="1">  1       21 0.12555907E+00 0.49059594E+03</pdfrwt>
<pdfrwt beam="2">  1       21 0.51260341E-01 0.49059594E+03</pdfrwt>
<totfact> 0.14355351E+03</totfact>
</mgrwt>
</event>
<event>
 4    1  0.4689683E-002  0.4482590E+03  0.7818608E-02  0.1028242E+00
         21   -1    0    0  503  502  0.00000000000E+00  0.00000000000E+00  0.35689305599E+03  0.35689305599E+03  0.00000000000E+00 0.  1.
         21   -1    0    0  501  503 -0.00000000000E+00 -0.00000000000E+00 -0.12186495754E+04  0.12186495754E+04  0.00000000000E+00 0.  1.
    9000007    1    1    2  501    0 -0.13911387365E+02 -0.20184797163E+03 -0.10086970747E+04  0.11038142592E+04  0.40000000000E+03 0.  1.
   -9000007    1    1    2    0  502  0.13911387365E+02  0.20184797163E+03  0.14694055526E+03  0.47172837219E+03  0.40000000000E+03 0.  1.
<mgrwt>
<rscale>  2 0.44825900E+03</rscale>
<asrwt>0</asrwt>
<pdfrwt beam="1">  1       21 0.54906625E-01 0.44825900E+03</pdfrwt>
<pdfrwt beam="2">  1       21 0.18748455E+00 0.44825900E+03</pdfrwt>
<totfact> 0.41795521E+02</totfact>
</mgrwt>
</event>
<event>
 4    1  0.4689683E-002  0.4228133E+03  0.7818608E-02  0.1036155E+00
         21   -1    0    0  503  502  0.00000000000E+00  0.00000000000E+00  0.27888159307E+03  0.27888159307E+03  0.00000000000E+00 0.  1.
         21   -1    0    0  501  503 -0.00000000000E+00 -0.00000000000E+00 -0.10100263934E+04  0.10100263934E+04  0.00000000000E+00 0.  1.
    9000007    1    1    2  501    0  0.94320288961E+02  0.99372033473E+02 -0.75509921190E+03  0.86541662669E+03  0.40000000000E+03 0.  1.
   -9000007    1    1    2    0  502 -0.94320288961E+02 -0.99372033473E+02  0.23954411599E+02  0.42349135975E+03  0.40000000000E+03 0.  1.
<mgrwt>
<rscale>  2 0.42281334E+03</rscale>
<asrwt>0</asrwt>
<pdfrwt beam="1">  1       21 0.42904861E-01 0.42281334E+03</pdfrwt>
<pdfrwt beam="2">  1       21 0.15538868E+00 0.42281334E+03</pdfrwt>
<totfact> 0.12188469E+03</totfact>
</mgrwt>
</event>
<event>
 4    1  0.4689683E-002  0.4974452E+03  0.7818608E-02  0.1014448E+00
         21   -1    0    0  501  502  0.00000000000E+00  0.00000000000E+00  0.49594772276E+03  0.49594772276E+03  0.00000000000E+00 0.  1.
         21   -1    0    0  502  503 -0.00000000000E+00 -0.00000000000E+00 -0.10571697862E+04  0.10571697862E+04  0.00000000000E+00 0.  1.
    9000007    1    1    2  501    0 -0.62751893682E+02  0.28898783553E+03  0.28368320972E+03  0.57264992161E+03  0.40000000000E+03 0.  1.
   -9000007    1    1    2    0  503  0.62751893682E+02 -0.28898783553E+03 -0.84490527310E+03  0.98046758731E+03  0.40000000000E+03 0.  1.
<mgrwt>
<rscale>  2 0.49744524E+03</rscale>
<asrwt>0</asrwt>
<pdfrwt beam="1">  1       21 0.76299649E-01 0.49744524E+03</pdfrwt>
<pdfrwt beam="2">  1       21 0.16264151E+00 0.49744524E+03</pdfrwt>
<totfact> 0.29620693E+02</totfact>
</mgrwt>
</event>
<event>
 4    1  0.4689683E-002  0.4294136E+03  0.7818608E-02  0.1034045E+00
         21   -1    0    0  501  502  0.00000000000E+00  0.00000000000E+00  0.81206464871E+03  0.81206464871E+03  0.00000000000E+00 0. -1.
         21   -1    0    0  502  503 -0.00000000000E+00 -0.00000000000E+00 -0.61022957108E+03  0.61022957108E+03  0.00000000000E+00 0. -1.
    9000007    1    1    2  501    0  0.14364878688E+03 -0.61327794639E+02 -0.46259330580E+03  0.63118035373E+03  0.40000000000E+03 0. -1.
   -9000007    1    1    2    0  503 -0.14364878688E+03  0.61327794639E+02  0.66442838343E+03  0.79111386606E+03  0.40000000000E+03 0. -1.
<mgrwt>
<rscale>  2 0.42941364E+03</rscale>
<asrwt>0</asrwt>
<pdfrwt beam="1">  1       21 0.12493302E+00 0.42941364E+03</pdfrwt>
<pdfrwt beam="2">  1       21 0.93881473E-01 0.42941364E+03</pdfrwt>
<totfact> 0.38159687E+02</totfact>
</mgrwt>
</event>
<event>
 4    1  0.4689683E-002  0.6886994E+03  0.7818608E-02  0.9736755E-01
         21   -1    0    0  503  502  0.00000000000E+00  0.00000000000E+00  0.97343522367E+03  0.97343522367E+03  0.00000000000E+00 0. -1.
         21   -1    0    0  501  503 -0.00000000000E+00 -0.00000000000E+00 -0.49556139492E+03  0.49556139492E+03  0.00000000000E+00 0.  1.
    9000007    1    1    2  501    0 -0.27215018032E+03  0.49014400779E+03  0.33405521778E+03  0.76544089096E+03  0.40000000000E+03 0. -1.
   -9000007    1    1    2    0  502  0.27215018032E+03 -0.49014400779E+03  0.14381861098E+03  0.70355572763E+03  0.40000000000E+03 0.  1.
<mgrwt>
<rscale>  2 0.68869940E+03</rscale>
<asrwt>0</asrwt>
<pdfrwt beam="1">  1       21 0.14975926E+00 0.68869940E+03</pdfrwt>
<pdfrwt beam="2">  1       21 0.76240215E-01 0.68869940E+03</pdfrwt>
<totfact> 0.34818677E+02</totfact>
</mgrwt>
</event>
<event>
 4    1  0.4689683E-002  0.5031925E+03  0.7818608E-02  0.1012949E+00
         21   -1    0    0  503  502  0.00000000000E+00  0.00000000000E+00  0.79010662120E+03  0.79010662120E+03  0.00000000000E+00 0. -1.
         21   -1    0    0  501  503 -0.00000000000E+00 -0.00000000000E+00 -0.78384006838E+03  0.78384006838E+03  0.00000000000E+00 0. -1.
    9000007    1    1    2  501    0  0.24511483730E+03 -0.18199274659E+03 -0.60194555181E+03  0.78456426800E+03  0.40000000000E+03 0. -1.
   -9000007    1    1    2    0  502 -0.24511483730E+03  0.18199274659E+03  0.60821210464E+03  0.78938242158E+03  0.40000000000E+03 0. -1.
<mgrwt>
<rscale>  2 0.50319245E+03</rscale>
<asrwt>0</asrwt>
<pdfrwt beam="1">  1       21 0.12155487E+00 0.50319245E+03</pdfrwt>
<pdfrwt beam="2">  1       21 0.12059078E+00 0.50319245E+03</pdfrwt>
<totfact> 0.21324340E+02</totfact>
</mgrwt>
</event>
<event>
 4    1  0.4689683E-002  0.4215938E+03  0.7818608E-02  0.1036549E+00
         21   -1    0    0  503  502  0.00000000000E+00  0.00000000000E+00  0.16505729406E+04  0.16505729406E+04  0.00000000000E+00 0.  1.
         21   -1    0    0  501  503 -0.00000000000E+00 -0.00000000000E+00 -0.41875664790E+03  0.41875664790E+03  0.00000000000E+00 0.  1.
    9000007    1    1    2  501    0 -0.11486736193E+03  0.67430228802E+02 -0.27585451354E+03  0.50382244812E+03  0.40000000000E+03 0.  1.
   -9000007    1    1    2    0  502  0.11486736193E+03 -0.67430228802E+02  0.15076708063E+04  0.15655071404E+04  0.40000000000E+03 0.  1.
<mgrwt>
<rscale>  2 0.42159382E+03</rscale>
<asrwt>0</asrwt>
<pdfrwt beam="1">  1       21 0.25393430E+00 0.42159382E+03</pdfrwt>
<pdfrwt beam="2">  1       21 0.64424100E-01 0.42159382E+03</pdfrwt>
<totfact> 0.11206171E+02</totfact>
</mgrwt>
</event>
<event>
 4    1  0.4689683E-002  0.4007215E+03  0.7818608E-02  0.1043530E+00
         21   -1    0    0  501  502  0.00000000000E+00  0.00000000000E+00  0.93124944803E+03  0.93124944803E+03  0.00000000000E+00 0.  1.
         21   -1    0    0  502  503 -0.00000000000E+00 -0.00000000000E+00 -0.18899281568E+03  0.18899281568E+03  0.00000000000E+00 0.  1.
    9000007    1    1    2  501    0  0.18774831929E+02 -0.15007659295E+02  0.53693149757E+03  0.66997996778E+03  0.40000000000E+03 0.  1.
   -9000007    1    1    2    0  503 -0.18774831929E+02  0.15007659295E+02  0.20532513478E+03  0.45026229592E+03  0.40000000000E+03 0.  1.
<mgrwt>
<rscale>  2 0.40072150E+03</rscale>
<asrwt>0</asrwt>
<pdfrwt beam="1">  1       21 0.14326914E+00 0.40072150E+03</pdfrwt>
<pdfrwt beam="2">  1       21 0.29075818E-01 0.40072150E+03</pdfrwt>
<totfact> 0.33683624E+03</totfact>
</mgrwt>
</event>
<event>
 4    1  0.4689683E-002  0.4154879E+03  0.7818608E-02  0.1038545E+00
         21   -1    0    0  503  502  0.00000000000E+00  0.00000000000E+00  0.10773701941E+04  0.10773701941E+04  0.00000000000E+00 0. -1.
         21   -1    0    0  501  503 -0.00000000000E+00 -0.00000000000E+00 -0.17008697105E+03  0.17008697105E+03  0.00000000000E+00 0. -1.
    9000007    1    1    2  501    0 -0.11138722330E+03  0.14936510406E+02  0.30351188506E+03  0.51453831464E+03  0.40000000000E+03 0. -1.
   -9000007    1    1    2    0  502  0.11138722330E+03 -0.14936510406E+02  0.60377133803E+03  0.73291885054E+03  0.40000000000E+03 0. -1.
<mgrwt>
<rscale>  2 0.41548792E+03</rscale>
<asrwt>0</asrwt>
<pdfrwt beam="1">  1       21 0.16574926E+00 0.41548792E+03</pdfrwt>
<pdfrwt beam="2">  1       21 0.26167227E-01 0.41548792E+03</pdfrwt>
<totfact> 0.27627789E+03</totfact>
</mgrwt>
</event>
<event>
 4    1  0.4689683E-002  0.4742847E+03  0.7818608E-02  0.1020718E+00
         21   -1    0    0  503  502  0.00000000000E+00  0.00000000000E+00  0.18830382245E+03  0.18830382245E+03  0.00000000000E+00 0. -1.
         21   -1    0    0  501  503 -0.00000000000E+00 -0.00000000000E+00 -0.12057730988E+04  0.12057730988E+04  0.00000000000E+00 0.  1.
    9000007    1    1    2  501    0 -0.24648773770E+03  0.64728152298E+02 -0.57586164251E+03  0.74603121238E+03  0.40000000000E+03 0. -1.
   -9000007    1    1    2    0  502  0.24648773770E+03 -0.64728152298E+02 -0.44160763386E+03  0.64804570890E+03  0.40000000000E+03 0.  1.
<mgrwt>
<rscale>  2 0.47428466E+03</rscale>
<asrwt>0</asrwt>
<pdfrwt beam="1">  1       21 0.28969819E-01 0.47428466E+03</pdfrwt>
<pdfrwt beam="2">  1       21 0.18550355E+00 0.47428466E+03</pdfrwt>
<totfact> 0.15947504E+03</totfact>
</mgrwt>
</event>
<event>
 4    1  0.4689683E-002  0.4412831E+03  0.7818608E-02  0.1030354E+00
         21   -1    0    0  503  502  0.00000000000E+00  0.00000000000E+00  0.60830519297E+03  0.60830519297E+03  0.00000000000E+00 0. -1.
         21   -1    0    0  501  503 -0.00000000000E+00 -0.00000000000E+00 -0.41679064225E+03  0.41679064225E+03  0.00000000000E+00 0. -1.
    9000007    1    1    2  501    0  0.84924592393E+02  0.16588725798E+03 -0.15108661813E+03  0.46643106128E+03  0.40000000000E+03 0. -1.
   -9000007    1    1    2    0  502 -0.84924592393E+02 -0.16588725798E+03  0.34260116884E+03  0.55866477394E+03  0.40000000000E+03 0. -1.
<mgrwt>
<rscale>  2 0.44128309E+03</rscale>
<asrwt>0</asrwt>
<pdfrwt beam="1">  1       21 0.93585413E-01 0.44128309E+03</pdfrwt>
<pdfrwt beam="2">  1       21 0.64121638E-01 0.44128309E+03</pdfrwt>
<totfact> 0.18619142E+03</totfact>
</mgrwt>
</event>
<event>
 4    1  0.4689683E-002  0.4083868E+03  0.7818608E-02  0.1040914E+00
         21   -1    0    0  503  502  0.00000000000E+00  0.00000000000E+00  0.54780007542E+03  0.54780007542E+03  0.00000000000E+00 0.  1.
         21   -1    0    0  501  503 -0.00000000000E+00 -0.00000000000E+00 -0.31535567861E+03  0.31535567861E+03  0.00000000000E+00 0.  1.
    9000007    1    1    2  501    0  0.78792553099E+02 -0.23905971872E+02  0.35978408315E+02  0.40996854487E+03  0.40000000000E+03 0. -1.
   -9000007    1    1    2    0  502 -0.78792553099E+02  0.23905971872E+02  0.19646598850E+03  0.45318720916E+03  0.40000000000E+03 0. -1.
<mgrwt>
<rscale>  2 0.40838678E+03</rscale>
<asrwt>0</asrwt>
<pdfrwt beam="1">  1       21 0.84276934E-01 0.40838678E+03</pdfrwt>
<pdfrwt beam="2">  1       21 0.48516258E-01 0.40838678E+03</pdfrwt>
<totfact> 0.44115991E+03</totfact>
</mgrwt>
</event>
<event>
 4    1  0.4689683E-002  0.5463222E+03  0.7818608E-02  0.1002349E+00
         21   -1    0    0  501  502  0.00000000000E+00  0.00000000000E+00  0.72302344687E+03  0.72302344687E+03  0.00000000000E+00 0.  1.
         21   -1    0    0  502  503 -0.00000000000E+00 -0.00000000000E+00 -0.45871644971E+03  0.45871644971E+03  0.00000000000E+00 0. -1.
    9000007    1    1    2  501    0 -0.36288295359E+03  0.82364738106E+02  0.31908320519E+03  0.63267849650E+03  0.40000000000E+03 0.  1.
   -9000007    1    1    2    0  503  0.36288295359E+03 -0.82364738106E+02 -0.54776208033E+02  0.54906140008E+03  0.40000000000E+03 0. -1.
<mgrwt>
<rscale>  2 0.54632224E+03</rscale>
<asrwt>0</asrwt>
<pdfrwt beam="1">  1       21 0.11123438E+00 0.54632224E+03</pdfrwt>
<pdfrwt beam="2">  1       21 0.70571761E-01 0.54632224E+03</pdfrwt>
<totfact> 0.94752772E+02</totfact>
</mgrwt>
</event>
<event>
 4    1  0.4689683E-002  0.4263959E+03  0.7818608E-02  0.1035005E+00
         21   -1    0    0  501  502  0.00000000000E+00  0.00000000000E+00  0.12257359415E+04  0.12257359415E+04  0.00000000000E+00 0. -1.
         21   -1    0    0  502  503 -0.00000000000E+00 -0.00000000000E+00 -0.27563509220E+03  0.27563509220E+03  0.00000000000E+00 0. -1.
    9000007    1    1    2  501    0  0.21843010929E+02 -0.14606971348E+03  0.98521885266E+03  0.10735313996E+04  0.40000000000E+03 0. -1.
   -9000007    1    1    2    0  503 -0.21843010929E+02  0.14606971348E+03 -0.35118003368E+02  0.42783963407E+03  0.40000000000E+03 0. -1.
<mgrwt>
<rscale>  2 0.42639592E+03</rscale>
<asrwt>0</asrwt>
<pdfrwt beam="1">  1       21 0.18857476E+00 0.42639592E+03</pdfrwt>
<pdfrwt beam="2">  1       21 0.42405399E-01 0.42639592E+03</pdfrwt>
<totfact> 0.71724213E+02</totfact>
</mgrwt>
</event>
<event>
 4    1  0.4689683E-002  0.4211603E+03  0.7818608E-02  0.1036689E+00
         21   -1    0    0  501  502  0.00000000000E+00  0.00000000000E+00  0.38916215569E+03  0.38916215569E+03  0.00000000000E+00 0.  1.
         21   -1    0    0  502  503 -0.00000000000E+00 -0.00000000000E+00 -0.53365592344E+03  0.53365592344E+03  0.00000000000E+00 0.  1.
    9000007    1    1    2  501    0 -0.12936779166E+03 -0.25298352510E+02  0.10400366945E+03  0.43381193554E+03  0.40000000000E+03 0. -1.
   -9000007    1    1    2    0  503  0.12936779166E+03  0.25298352510E+02 -0.24849743720E+03  0.48900614358E+03  0.40000000000E+03 0. -1.
<mgrwt>
<rscale>  2 0.42116034E+03</rscale>
<asrwt>0</asrwt>
<pdfrwt beam="1">  1       21 0.59871101E-01 0.42116034E+03</pdfrwt>
<pdfrwt beam="2">  1       21 0.82100911E-01 0.42116034E+03</pdfrwt>
<totfact> 0.29694173E+03</totfact>
</mgrwt>
</event>
<event>
 4    1  0.4689683E-002  0.4836476E+03  0.7818608E-02  0.1018138E+00
         21   -1    0    0  501  502  0.00000000000E+00  0.00000000000E+00  0.11357863709E+04  0.11357863709E+04  0.00000000000E+00 0. -1.
         21   -1    0    0  502  503 -0.00000000000E+00 -0.00000000000E+00 -0.23318604181E+03  0.23318604181E+03  0.00000000000E+00 0.  1.
    9000007    1    1    2  501    0  0.26724151054E+03  0.49969476508E+02  0.68523076351E+03  0.83872294162E+03  0.40000000000E+03 0. -1.
   -9000007    1    1    2    0  503 -0.26724151054E+03 -0.49969476508E+02  0.21736956555E+03  0.53024947107E+03  0.40000000000E+03 0.  1.
<mgrwt>
<rscale>  2 0.48364757E+03</rscale>
<asrwt>0</asrwt>
<pdfrwt beam="1">  1       21 0.17473636E+00 0.48364757E+03</pdfrwt>
<pdfrwt beam="2">  1       21 0.35874776E-01 0.48364757E+03</pdfrwt>
<totfact> 0.12326150E+03</totfact>
</mgrwt>
</event>
<event>
 4    1  0.4689683E-002  0.4227122E+03  0.7818608E-02  0.1036187E+00
         21   -1    0    0  503  502  0.00000000000E+00  0.00000000000E+00  0.16111635620E+03  0.16111635620E+03  0.00000000000E+00 0.  1.
         21   -1    0    0  501  503 -0.00000000000E+00 -0.00000000000E+00 -0.12393820604E+04  0.12393820604E+04  0.00000000000E+00 0.  1.
    9000007    1    1    2  501    0 -0.32933460189E+01  0.13665571311E+03 -0.31205202854E+03  0.52541611944E+03  0.40000000000E+03 0.  1.
   -9000007    1    1    2    0  502  0.32933460189E+01 -0.13665571311E+03 -0.76621367567E+03  0.87508229718E+03  0.40000000000E+03 0.  1.
<mgrwt>
<rscale>  2 0.42271223E+03</rscale>
<asrwt>0</asrwt>
<pdfrwt beam="1">  1       21 0.24787132E-01 0.42271223E+03</pdfrwt>
<pdfrwt beam="2">  1       21 0.19067416E+00 0.42271223E+03</pdfrwt>
<totfact> 0.20393066E+03</totfact>
</mgrwt>
</event>
<event>
 4    1  0.4689683E-002  0.4413496E+03  0.7818608E-02  0.1030334E+00
         21   -1    0    0  501  502  0.00000000000E+00  0.00000000000E+00  0.82478564098E+03  0.82478564098E+03  0.00000000000E+00 0.  1.
         21   -1    0    0  502  503 -0.00000000000E+00 -0.00000000000E+00 -0.25968503535E+03  0.25968503535E+03  0.00000000000E+00 0.  1.
    9000007    1    1    2  501    0 -0.10778753051E+03  0.15222140066E+03  0.11938098489E+03  0.45721037401E+03  0.40000000000E+03 0.  1.
   -9000007    1    1    2    0  503  0.10778753051E+03 -0.15222140066E+03  0.44571962073E+03  0.62726030231E+03  0.40000000000E+03 0.  1.
<mgrwt>
<rscale>  2 0.44134964E+03</rscale>
<asrwt>0</asrwt>
<pdfrwt beam="1">  1       21 0.12689010E+00 0.44134964E+03</pdfrwt>
<pdfrwt beam="2">  1       21 0.39951544E-01 0.44134964E+03</pdfrwt>
<totfact> 0.24011866E+03</totfact>
</mgrwt>
</event>
<event>
 4    1  0.4689683E-002  0.4836902E+03  0.7818608E-02  0.1018126E+00
         21   -1    0    0  501  502  0.00000000000E+00  0.00000000000E+00  0.13544395664E+04  0.13544395664E+04  0.00000000000E+00 0.  1.
         21   -1    0    0  502  503 -0.00000000000E+00 -0.00000000000E+00 -0.17789650001E+03  0.17789650001E+03  0.00000000000E+00 0.  1.
    9000007    1    1    2  501    0 -0.14802512998E+03  0.22813324388E+03  0.71880396447E+03  0.86639214875E+03  0.40000000000E+03 0.  1.
   -9000007    1    1    2    0  503  0.14802512998E+03 -0.22813324388E+03  0.45773910195E+03  0.66594391770E+03  0.40000000000E+03 0.  1.
<mgrwt>
<rscale>  2 0.48369021E+03</rscale>
<asrwt>0</asrwt>
<pdfrwt beam="1">  1       21 0.20837531E+00 0.48369021E+03</pdfrwt>
<pdfrwt beam="2">  1       21 0.27368693E-01 0.48369021E+03</pdfrwt>
<totfact> 0.12461247E+03</totfact>
</mgrwt>
</event>
<event>
 4    1  0.4689683E-002  0.5051059E+03  0.7818608E-02  0.1012455E+00
         21   -1    0    0  503  502  0.00000000000E+00  0.00000000000E+00  0.24950972271E+03  0.24950972271E+03  0.00000000000E+00 0.  1.
         21   -1    0    0  501  503 -0.00000000000E+00 -0.00000000000E+00 -0.18982848341E+04  0.18982848341E+04  0.00000000000E+00 0.  1.
    9000007    1    1    2  501    0 -0.77102354985E+02  0.29864228494E+03 -0.15537989088E+04  0.16338369063E+04  0.40000000000E+03 0.  1.
   -9000007    1    1    2    0  502  0.77102354985E+02 -0.29864228494E+03 -0.94976202669E+02  0.51395765056E+03  0.40000000000E+03 0.  1.
<mgrwt>
<rscale>  2 0.50510592E+03</rscale>
<asrwt>0</asrwt>
<pdfrwt beam="1">  1       21 0.38386110E-01 0.50510592E+03</pdfrwt>
<pdfrwt beam="2">  1       21 0.29204383E+00 0.50510592E+03</pdfrwt>
<totfact> 0.18881074E+02</totfact>
</mgrwt>
</event>
<event>
 4    1  0.4689683E-002  0.5897999E+03  0.7818608E-02  0.9926797E-01
         21   -1    0    0  501  502  0.00000000000E+00  0.00000000000E+00  0.95134008826E+03  0.95134008826E+03  0.00000000000E+00 0.  1.
         21   -1    0    0  502  503 -0.00000000000E+00 -0.00000000000E+00 -0.76754489462E+03  0.76754489462E+03  0.00000000000E+00 0.  1.
    9000007    1    1    2  501    0  0.19075418001E+03 -0.38920023198E+03 -0.52999801946E+03  0.79294506645E+03  0.40000000000E+03 0.  1.
   -9000007    1    1    2    0  503 -0.19075418001E+03  0.38920023198E+03  0.71379321311E+03  0.92593991643E+03  0.40000000000E+03 0.  1.
<mgrwt>
<rscale>  2 0.58979995E+03</rscale>
<asrwt>0</asrwt>
<pdfrwt beam="1">  1       21 0.14636001E+00 0.58979995E+03</pdfrwt>
<pdfrwt beam="2">  1       21 0.11808383E+00 0.58979995E+03</pdfrwt>
<totfact> 0.13298859E+02</totfact>
</mgrwt>
</event>
<event>
 4    1  0.4689683E-002  0.4983121E+03  0.7818608E-02  0.1014220E+00
         21   -1    0    0  503  502  0.00000000000E+00  0.00000000000E+00  0.15933942758E+03  0.15933942758E+03  0.00000000000E+00 0.  1.
         21   -1    0    0  501  503 -0.00000000000E+00 -0.00000000000E+00 -0.15954783738E+04  0.15954783738E+04  0.00000000000E+00 0.  1.
    9000007    1    1    2  501    0 -0.10830200549E+03 -0.27674102822E+03 -0.58431639476E+03  0.76794568186E+03  0.40000000000E+03 0.  1.
   -9000007    1    1    2    0  502  0.10830200549E+03  0.27674102822E+03 -0.85182255141E+03  0.98687211947E+03  0.40000000000E+03 0.  1.
<mgrwt>
<rscale>  2 0.49831207E+03</rscale>
<asrwt>0</asrwt>
<pdfrwt beam="1">  1       21 0.24513759E-01 0.49831207E+03</pdfrwt>
<pdfrwt beam="2">  1       21 0.24545821E+00 0.49831207E+03</pdfrwt>
<totfact> 0.89251919E+02</totfact>
</mgrwt>
</event>
<event>
 4    1  0.4689683E-002  0.8215712E+03  0.7818608E-02  0.9529308E-01
         21   -1    0    0  503  502  0.00000000000E+00  0.00000000000E+00  0.88457667864E+03  0.88457667864E+03  0.00000000000E+00 0.  1.
         21   -1    0    0  501  503 -0.00000000000E+00 -0.00000000000E+00 -0.88837813454E+03  0.88837813454E+03  0.00000000000E+00 0. -1.
    9000007    1    1    2  501    0 -0.67898473141E+03 -0.23229076082E+03 -0.33485692063E+03  0.88719130989E+03  0.40000000000E+03 0. -1.
   -9000007    1    1    2    0  502  0.67898473141E+03  0.23229076082E+03  0.33105546473E+03  0.88576350330E+03  0.40000000000E+03 0.  1.
<mgrwt>
<rscale>  2 0.82157122E+03</rscale>
<asrwt>0</asrwt>
<pdfrwt beam="1">  1       21 0.13608872E+00 0.82157122E+03</pdfrwt>
<pdfrwt beam="2">  1       21 0.13667356E+00 0.82157122E+03</pdfrwt>
<totfact> 0.10224008E+02</totfact>
</mgrwt>
</event>
<event>
 4    1  0.4689683E-002  0.4130943E+03  0.7818608E-02  0.1039338E+00
         21   -1    0    0  501  502  0.00000000000E+00  0.00000000000E+00  0.10920185000E+04  0.10920185000E+04  0.00000000000E+00 0. -1.
         21   -1    0    0  502  503 -0.00000000000E+00 -0.00000000000E+00 -0.41552760407E+03  0.41552760407E+03  0.00000000000E+00 0. -1.
    9000007    1    1    2  501    0 -0.13140708590E+02  0.10234349664E+03  0.93364515056E+03  0.10209506044E+04  0.40000000000E+03 0. -1.
   -9000007    1    1    2    0  503  0.13140708590E+02 -0.10234349664E+03 -0.25715425467E+03  0.48659549959E+03  0.40000000000E+03 0. -1.
<mgrwt>
<rscale>  2 0.41309426E+03</rscale>
<asrwt>0</asrwt>
<pdfrwt beam="1">  1       21 0.16800284E+00 0.41309426E+03</pdfrwt>
<pdfrwt beam="2">  1       21 0.63927324E-01 0.41309426E+03</pdfrwt>
<totfact> 0.41944199E+02</totfact>
</mgrwt>
</event>
<event>
 4    1  0.4689683E-002  0.4282063E+03  0.7818608E-02  0.1034428E+00
         21   -1    0    0  501  502  0.00000000000E+00  0.00000000000E+00  0.27905503896E+03  0.27905503896E+03  0.00000000000E+00 0. -1.
         21   -1    0    0  502  503 -0.00000000000E+00 -0.00000000000E+00 -0.10904437348E+04  0.10904437348E+04  0.00000000000E+00 0.  1.
    9000007    1    1    2  501    0  0.22078374674E+02  0.15123875820E+03  0.25981611851E+02  0.42899377707E+03  0.40000000000E+03 0. -1.
   -9000007    1    1    2    0  503 -0.22078374674E+02 -0.15123875820E+03 -0.83737030768E+03  0.94050499669E+03  0.40000000000E+03 0.  1.
<mgrwt>
<rscale>  2 0.42820628E+03</rscale>
<asrwt>0</asrwt>
<pdfrwt beam="1">  1       21 0.42931545E-01 0.42820628E+03</pdfrwt>
<pdfrwt beam="2">  1       21 0.16776057E+00 0.42820628E+03</pdfrwt>
<totfact> 0.98062022E+02</totfact>
</mgrwt>
</event>
<event>
 4    1  0.4689683E-002  0.4042999E+03  0.7818608E-02  0.1042301E+00
         21   -1    0    0  503  502  0.00000000000E+00  0.00000000000E+00  0.12820422695E+04  0.12820422695E+04  0.00000000000E+00 0.  1.
         21   -1    0    0  501  503 -0.00000000000E+00 -0.00000000000E+00 -0.17181403703E+03  0.17181403703E+03  0.00000000000E+00 0.  1.
    9000007    1    1    2  501    0  0.27985358467E+02  0.51722691128E+02  0.18593224709E+03  0.44500473882E+03  0.40000000000E+03 0.  1.
   -9000007    1    1    2    0  502 -0.27985358467E+02 -0.51722691128E+02  0.92429598539E+03  0.10088515677E+04  0.40000000000E+03 0.  1.
<mgrwt>
<rscale>  2 0.40429991E+03</rscale>
<asrwt>0</asrwt>
<pdfrwt beam="1">  1       21 0.19723727E+00 0.40429991E+03</pdfrwt>
<pdfrwt beam="2">  1       21 0.26432930E-01 0.40429991E+03</pdfrwt>
<totfact> 0.16388118E+03</totfact>
</mgrwt>
</event>
<event>
 4    1  0.4689683E-002  0.4036225E+03  0.7818608E-02  0.1042533E+00
         21   -1    0    0  501  502  0.00000000000E+00  0.00000000000E+00  0.12390179373E+03  0.12390179373E+03  0.00000000000E+00 0. -1.
         21   -1    0    0  502  503 -0.00000000000E+00 -0.00000000000E+00 -0.13252096193E+04  0.13252096193E+04  0.00000000000E+00 0. -1.
    9000007    1    1    2  501    0 -0.42894769991E+02 -0.32728629235E+02 -0.53656311367E+03  0.67142467888E+03  0.40000000000E+03 0.  1.
   -9000007    1    1    2    0  503  0.42894769991E+02  0.32728629235E+02 -0.66474471195E+03  0.77768673419E+03  0.40000000000E+03 0.  1.
<mgrwt>
<rscale>  2 0.40362250E+03</rscale>
<asrwt>0</asrwt>
<pdfrwt beam="1">  1       21 0.19061814E-01 0.40362250E+03</pdfrwt>
<pdfrwt beam="2">  1       21 0.20387841E+00 0.40362250E+03</pdfrwt>
<totfact> 0.27756537E+03</totfact>
</mgrwt>
</event>
<event>
 4    1  0.4689683E-002  0.5822938E+03  0.7818608E-02  0.9942837E-01
         21   -1    0    0  503  502  0.00000000000E+00  0.00000000000E+00  0.79848278732E+03  0.79848278732E+03  0.00000000000E+00 0. -1.
         21   -1    0    0  501  503 -0.00000000000E+00 -0.00000000000E+00 -0.45895278509E+03  0.45895278509E+03  0.00000000000E+00 0. -1.
    9000007    1    1    2  501    0  0.38257892049E+03 -0.18082998203E+03 -0.21495153667E+01  0.58229780458E+03  0.40000000000E+03 0. -1.
   -9000007    1    1    2    0  502 -0.38257892049E+03  0.18082998203E+03  0.34167951760E+03  0.67513776783E+03  0.40000000000E+03 0. -1.
<mgrwt>
<rscale>  2 0.58229384E+03</rscale>
<asrwt>0</asrwt>
<pdfrwt beam="1">  1       21 0.12284351E+00 0.58229384E+03</pdfrwt>
<pdfrwt beam="2">  1       21 0.70608121E-01 0.58229384E+03</pdfrwt>
<totfact> 0.72703956E+02</totfact>
</mgrwt>
</event>
<event>
 4    1  0.4689683E-002  0.4050599E+03  0.7818608E-02  0.1042042E+00
         21   -1    0    0  503  502  0.00000000000E+00  0.00000000000E+00  0.45014976328E+03  0.45014976328E+03  0.00000000000E+00 0.  1.
         21   -1    0    0  501  503 -0.00000000000E+00 -0.00000000000E+00 -0.36487757268E+03  0.36487757268E+03  0.00000000000E+00 0.  1.
    9000007    1    1    2  501    0 -0.28946922216E+02 -0.56882293002E+02  0.55977072050E+02  0.40890946695E+03  0.40000000000E+03 0.  1.
   -9000007    1    1    2    0  502  0.28946922216E+02  0.56882293002E+02  0.29295118543E+02  0.40611786902E+03  0.40000000000E+03 0.  1.
<mgrwt>
<rscale>  2 0.40505990E+03</rscale>
<asrwt>0</asrwt>
<pdfrwt beam="1">  1       21 0.69253809E-01 0.40505990E+03</pdfrwt>
<pdfrwt beam="2">  1       21 0.56135011E-01 0.40505990E+03</pdfrwt>
<totfact> 0.50650334E+03</totfact>
</mgrwt>
</event>
<event>
 4    1  0.4689683E-002  0.4133241E+03  0.7818608E-02  0.1039261E+00
         21   -1    0    0  501  502  0.00000000000E+00  0.00000000000E+00  0.43417883737E+03  0.43417883737E+03  0.00000000000E+00 0. -1.
         21   -1    0    0  502  503 -0.00000000000E+00 -0.00000000000E+00 -0.57221416504E+03  0.57221416504E+03  0.00000000000E+00 0. -1.
    9000007    1    1    2  501    0 -0.95730528694E+02 -0.40896243815E+02  0.21221960836E+03  0.46462242634E+03  0.40000000000E+03 0. -1.
   -9000007    1    1    2    0  503  0.95730528694E+02  0.40896243815E+02 -0.35025493603E+03  0.54177057607E+03  0.40000000000E+03 0. -1.
<mgrwt>
<rscale>  2 0.41332413E+03</rscale>
<asrwt>0</asrwt>
<pdfrwt beam="1">  1       21 0.66796744E-01 0.41332413E+03</pdfrwt>
<pdfrwt beam="2">  1       21 0.88032949E-01 0.41332413E+03</pdfrwt>
<totfact> 0.19873826E+03</totfact>
</mgrwt>
</event>
<event>
 4    1  0.4689683E-002  0.4660287E+03  0.7818608E-02  0.1023047E+00
         21   -1    0    0  503  502  0.00000000000E+00  0.00000000000E+00  0.31467991612E+03  0.31467991612E+03  0.00000000000E+00 0.  1.
         21   -1    0    0  501  503 -0.00000000000E+00 -0.00000000000E+00 -0.79000250865E+03  0.79000250865E+03  0.00000000000E+00 0.  1.
    9000007    1    1    2  501    0 -0.20154537633E+03 -0.12869423821E+03 -0.43401019043E+03  0.63682618591E+03  0.40000000000E+03 0.  1.
   -9000007    1    1    2    0  502  0.20154537633E+03  0.12869423821E+03 -0.41312402099E+02  0.46785623885E+03  0.40000000000E+03 0.  1.
<mgrwt>
<rscale>  2 0.46602870E+03</rscale>
<asrwt>0</asrwt>
<pdfrwt beam="1">  1       21 0.48412295E-01 0.46602870E+03</pdfrwt>
<pdfrwt beam="2">  1       21 0.12153885E+00 0.46602870E+03</pdfrwt>
<totfact> 0.17789880E+03</totfact>
</mgrwt>
</event>
<event>
 4    1  0.4689683E-002  0.6884214E+03  0.7818608E-02  0.9737241E-01
         21   -1    0    0  501  502  0.00000000000E+00  0.00000000000E+00  0.88043052664E+03  0.88043052664E+03  0.00000000000E+00 0.  1.
         21   -1    0    0  502  503 -0.00000000000E+00 -0.00000000000E+00 -0.16993058049E+04  0.16993058049E+04  0.00000000000E+00 0. -1.
    9000007    1    1    2  501    0 -0.33911295653E+03 -0.44601161965E+03  0.65673922497E+03  0.95143595253E+03  0.40000000000E+03 0.  1.
   -9000007    1    1    2    0  503  0.33911295653E+03  0.44601161965E+03 -0.14756145032E+04  0.16283003790E+04  0.40000000000E+03 0. -1.
<mgrwt>
<rscale>  2 0.68842136E+03</rscale>
<asrwt>0</asrwt>
<pdfrwt beam="1">  1       21 0.13545085E+00 0.68842136E+03</pdfrwt>
<pdfrwt beam="2">  1       21 0.26143166E+00 0.68842136E+03</pdfrwt>
<totfact> 0.14548002E+01</totfact>
</mgrwt>
</event>
<event>
 4    1  0.4689683E-002  0.5445094E+03  0.7818608E-02  0.1002773E+00
         21   -1    0    0  503  502  0.00000000000E+00  0.00000000000E+00  0.94120869988E+03  0.94120869988E+03  0.00000000000E+00 0.  1.
         21   -1    0    0  501  503 -0.00000000000E+00 -0.00000000000E+00 -0.53886266754E+03  0.53886266754E+03  0.00000000000E+00 0. -1.
    9000007    1    1    2  501    0  0.17154610895E+03  0.32720398245E+03  0.67814665573E+03  0.86969730384E+03  0.40000000000E+03 0.  1.
   -9000007    1    1    2    0  502 -0.17154610895E+03 -0.32720398245E+03 -0.27580062339E+03  0.61037406358E+03  0.40000000000E+03 0.  1.
<mgrwt>
<rscale>  2 0.54450942E+03</rscale>
<asrwt>0</asrwt>
<pdfrwt beam="1">  1       21 0.14480134E+00 0.54450942E+03</pdfrwt>
<pdfrwt beam="2">  1       21 0.82901949E-01 0.54450942E+03</pdfrwt>
<totfact> 0.33012421E+02</totfact>
</mgrwt>
</event>
<event>
 4    1  0.4689683E-002  0.4576892E+03  0.7818608E-02  0.1025454E+00
         21   -1    0    0  501  502  0.00000000000E+00  0.00000000000E+00  0.96736256631E+02  0.96736256631E+02  0.00000000000E+00 0.  1.
         21   -1    0    0  502  503 -0.00000000000E+00 -0.00000000000E+00 -0.36707411911E+04  0.36707411911E+04  0.00000000000E+00 0.  1.
    9000007    1    1    2  501    0 -0.20455543430E+03 -0.87386788168E+02 -0.58071369658E+03  0.73939689872E+03  0.40000000000E+03 0.  1.
   -9000007    1    1    2    0  503  0.20455543430E+03  0.87386788168E+02 -0.29932912379E+04  0.30280805490E+04  0.40000000000E+03 0.  1.
<mgrwt>
<rscale>  2 0.45768917E+03</rscale>
<asrwt>0</asrwt>
<pdfrwt beam="1">  1       21 0.14882500E-01 0.45768917E+03</pdfrwt>
<pdfrwt beam="2">  1       21 0.56472945E+00 0.45768917E+03</pdfrwt>
<totfact> 0.18545852E+01</totfact>
</mgrwt>
</event>
<event>
 4    1  0.4689683E-002  0.4035629E+03  0.7818608E-02  0.1042553E+00
         21   -1    0    0  503  502  0.00000000000E+00  0.00000000000E+00  0.26689987699E+03  0.26689987699E+03  0.00000000000E+00 0.  1.
         21   -1    0    0  501  503 -0.00000000000E+00 -0.00000000000E+00 -0.87033342970E+03  0.87033342970E+03  0.00000000000E+00 0.  1.
    9000007    1    1    2  501    0 -0.28525707341E+02 -0.45269600257E+02 -0.61258224815E+03  0.73356667279E+03  0.40000000000E+03 0. -1.
   -9000007    1    1    2    0  502  0.28525707341E+02  0.45269600257E+02  0.91486954367E+01  0.40366663389E+03  0.40000000000E+03 0. -1.
<mgrwt>
<rscale>  2 0.40356295E+03</rscale>
<asrwt>0</asrwt>
<pdfrwt beam="1">  1       21 0.41061519E-01 0.40356295E+03</pdfrwt>
<pdfrwt beam="2">  1       21 0.13389745E+00 0.40356295E+03</pdfrwt>
<totfact> 0.20049636E+03</totfact>
</mgrwt>
</event>
<event>
 4    1  0.4689683E-002  0.4143781E+03  0.7818608E-02  0.1038912E+00
         21   -1    0    0  501  502  0.00000000000E+00  0.00000000000E+00  0.24512138424E+03  0.24512138424E+03  0.00000000000E+00 0. -1.
         21   -1    0    0  502  503 -0.00000000000E+00 -0.00000000000E+00 -0.10736242292E+04  0.10736242292E+04  0.00000000000E+00 0. -1.
    9000007    1    1    2  501    0  0.77882905185E+02 -0.75123224500E+02 -0.25539795199E+02  0.41516445768E+03  0.40000000000E+03 0. -1.
   -9000007    1    1    2    0  503 -0.77882905185E+02  0.75123224500E+02 -0.80296304973E+03  0.90358115574E+03  0.40000000000E+03 0. -1.
<mgrwt>
<rscale>  2 0.41437814E+03</rscale>
<asrwt>0</asrwt>
<pdfrwt beam="1">  1       21 0.37710981E-01 0.41437814E+03</pdfrwt>
<pdfrwt beam="2">  1       21 0.16517296E+00 0.41437814E+03</pdfrwt>
<totfact> 0.13465469E+03</totfact>
</mgrwt>
</event>
<event>
 4    1  0.4689683E-002  0.4181371E+03  0.7818608E-02  0.1037674E+00
         21   -1    0    0  501  502  0.00000000000E+00  0.00000000000E+00  0.55264373802E+03  0.55264373802E+03  0.00000000000E+00 0.  1.
         21   -1    0    0  502  503 -0.00000000000E+00 -0.00000000000E+00 -0.46536310089E+03  0.46536310089E+03  0.00000000000E+00 0. -1.
    9000007    1    1    2  501    0  0.64356370847E+02 -0.10342583416E+03  0.33165267033E+03  0.53369667357E+03  0.40000000000E+03 0.  1.
   -9000007    1    1    2    0  503 -0.64356370847E+02  0.10342583416E+03 -0.24437203320E+03  0.48431016534E+03  0.40000000000E+03 0. -1.
<mgrwt>
<rscale>  2 0.41813711E+03</rscale>
<asrwt>0</asrwt>
<pdfrwt beam="1">  1       21 0.85022113E-01 0.41813711E+03</pdfrwt>
<pdfrwt beam="2">  1       21 0.71594323E-01 0.41813711E+03</pdfrwt>
<totfact> 0.18420151E+03</totfact>
</mgrwt>
</event>
<event>
 4    1  0.4689683E-002  0.4425393E+03  0.7818608E-02  0.1029971E+00
         21   -1    0    0  503  502  0.00000000000E+00  0.00000000000E+00  0.10205786968E+04  0.10205786968E+04  0.00000000000E+00 0. -1.
         21   -1    0    0  501  503 -0.00000000000E+00 -0.00000000000E+00 -0.33180598133E+03  0.33180598133E+03  0.00000000000E+00 0. -1.
    9000007    1    1    2  501    0  0.11969233822E+03 -0.14667928904E+03 -0.94708570583E+02  0.45256025345E+03  0.40000000000E+03 0. -1.
   -9000007    1    1    2    0  502 -0.11969233822E+03  0.14667928904E+03  0.78348128610E+03  0.89982442472E+03  0.40000000000E+03 0. -1.
<mgrwt>
<rscale>  2 0.44253934E+03</rscale>
<asrwt>0</asrwt>
<pdfrwt beam="1">  1       21 0.15701211E+00 0.44253934E+03</pdfrwt>
<pdfrwt beam="2">  1       21 0.51047075E-01 0.44253934E+03</pdfrwt>
<totfact> 0.81431181E+02</totfact>
</mgrwt>
</event>
<event>
 4    1  0.4689683E-002  0.5418740E+03  0.7818608E-02  0.1003392E+00
         21   -1    0    0  501  502  0.00000000000E+00  0.00000000000E+00  0.21997891133E+04  0.21997891133E+04  0.00000000000E+00 0.  1.
         21   -1    0    0  502  503 -0.00000000000E+00 -0.00000000000E+00 -0.16933410869E+03  0.16933410869E+03  0.00000000000E+00 0. -1.
    9000007    1    1    2  501    0  0.24970542175E+03  0.26697316527E+03  0.15603021071E+04  0.16517173288E+04  0.40000000000E+03 0.  1.
   -9000007    1    1    2    0  503 -0.24970542175E+03 -0.26697316527E+03  0.47015289746E+03  0.71740589321E+03  0.40000000000E+03 0. -1.
<mgrwt>
<rscale>  2 0.54187403E+03</rscale>
<asrwt>0</asrwt>
<pdfrwt beam="1">  1       21 0.33842907E+00 0.54187403E+03</pdfrwt>
<pdfrwt beam="2">  1       21 0.26051403E-01 0.54187403E+03</pdfrwt>
<totfact> 0.21068013E+02</totfact>
</mgrwt>
</event>
<event>
 4    1  0.4689683E-002  0.4872177E+03  0.7818608E-02  0.1017170E+00
         21   -1    0    0  503  502  0.00000000000E+00  0.00000000000E+00  0.62305931654E+03  0.62305931654E+03  0.00000000000E+00 0. -1.
         21   -1    0    0  501  503 -0.00000000000E+00 -0.00000000000E+00 -0.41030541034E+03  0.41030541034E+03  0.00000000000E+00 0. -1.
    9000007    1    1    2  501    0  0.27797235847E+02  0.27678219111E+03 -0.31724360413E+02  0.48824942671E+03  0.40000000000E+03 0. -1.
   -9000007    1    1    2    0  502 -0.27797235847E+02 -0.27678219111E+03  0.24447826662E+03  0.54511530017E+03  0.40000000000E+03 0. -1.
<mgrwt>
<rscale>  2 0.48721768E+03</rscale>
<asrwt>0</asrwt>
<pdfrwt beam="1">  1       21 0.95855280E-01 0.48721768E+03</pdfrwt>
<pdfrwt beam="2">  1       21 0.63123909E-01 0.48721768E+03</pdfrwt>
<totfact> 0.17893889E+03</totfact>
</mgrwt>
</event>
<event>
 4    1  0.4689683E-002  0.4190888E+03  0.7818608E-02  0.1037363E+00
         21   -1    0    0  501  502  0.00000000000E+00  0.00000000000E+00  0.57831829287E+03  0.57831829287E+03  0.00000000000E+00 0.  1.
         21   -1    0    0  502  503 -0.00000000000E+00 -0.00000000000E+00 -0.69676841586E+03  0.69676841586E+03  0.00000000000E+00 0. -1.
    9000007    1    1    2  501    0  0.81678722203E+02 -0.94678228428E+02  0.41962490279E+03  0.59306023273E+03  0.40000000000E+03 0.  1.
   -9000007    1    1    2    0  503 -0.81678722203E+02  0.94678228428E+02 -0.53807502578E+03  0.68202647600E+03  0.40000000000E+03 0. -1.
<mgrwt>
<rscale>  2 0.41908875E+03</rscale>
<asrwt>0</asrwt>
<pdfrwt beam="1">  1       21 0.88972045E-01 0.41908875E+03</pdfrwt>
<pdfrwt beam="2">  1       21 0.10719514E+00 0.41908875E+03</pdfrwt>
<totfact> 0.63979386E+02</totfact>
</mgrwt>
</event>
<event>
 4    1  0.4689683E-002  0.4986343E+03  0.7818608E-02  0.1014136E+00
         21   -1    0    0  501  502  0.00000000000E+00  0.00000000000E+00  0.18197649488E+03  0.18197649488E+03  0.00000000000E+00 0.  1.
         21   -1    0    0  502  503 -0.00000000000E+00 -0.00000000000E+00 -0.13684739145E+04  0.13684739145E+04  0.00000000000E+00 0.  1.
    9000007    1    1    2  501    0  0.18098879723E+02 -0.29716767966E+03 -0.56241769567E+03  0.75163146800E+03  0.40000000000E+03 0.  1.
   -9000007    1    1    2    0  503 -0.18098879723E+02  0.29716767966E+03 -0.62407972400E+03  0.79881894143E+03  0.40000000000E+03 0.  1.
<mgrwt>
<rscale>  2 0.49863433E+03</rscale>
<asrwt>0</asrwt>
<pdfrwt beam="1">  1       21 0.27996384E-01 0.49863433E+03</pdfrwt>
<pdfrwt beam="2">  1       21 0.21053445E+00 0.49863433E+03</pdfrwt>
<totfact> 0.11462466E+03</totfact>
</mgrwt>
</event>
<event>
 4    1  0.4689683E-002  0.4145731E+03  0.7818608E-02  0.1038847E+00
         21   -1    0    0  501  502  0.00000000000E+00  0.00000000000E+00  0.84043714519E+03  0.84043714519E+03  0.00000000000E+00 0. -1.
         21   -1    0    0  502  503 -0.00000000000E+00 -0.00000000000E+00 -0.20474618340E+03  0.20474618340E+03  0.00000000000E+00 0. -1.
    9000007    1    1    2  501    0 -0.83136042108E+02 -0.70421988234E+02  0.33590243069E+03  0.53357408189E+03  0.40000000000E+03 0. -1.
   -9000007    1    1    2    0  503  0.83136042108E+02  0.70421988234E+02  0.29978853110E+03  0.51160924669E+03  0.40000000000E+03 0. -1.
<mgrwt>
<rscale>  2 0.41457310E+03</rscale>
<asrwt>0</asrwt>
<pdfrwt beam="1">  1       21 0.12929802E+00 0.41457310E+03</pdfrwt>
<pdfrwt beam="2">  1       21 0.31499413E-01 0.41457310E+03</pdfrwt>
<totfact> 0.37403668E+03</totfact>
</mgrwt>
</event>
<event>
 4    1  0.4689683E-002  0.4589835E+03  0.7818608E-02  0.1025076E+00
         21   -1    0    0  501  502  0.00000000000E+00  0.00000000000E+00  0.15102182596E+03  0.15102182596E+03  0.00000000000E+00 0.  1.
         21   -1    0    0  502  503 -0.00000000000E+00 -0.00000000000E+00 -0.14397582319E+04  0.14397582319E+04  0.00000000000E+00 0. -1.
    9000007    1    1    2  501    0  0.16092303505E+03 -0.15738380010E+03 -0.50402905784E+03  0.68169727511E+03  0.40000000000E+03 0.  1.
   -9000007    1    1    2    0  503 -0.16092303505E+03  0.15738380010E+03 -0.78470734812E+03  0.90908278278E+03  0.40000000000E+03 0.  1.
<mgrwt>
<rscale>  2 0.45898353E+03</rscale>
<asrwt>0</asrwt>
<pdfrwt beam="1">  1       21 0.23234127E-01 0.45898353E+03</pdfrwt>
<pdfrwt beam="2">  1       21 0.22150126E+00 0.45898353E+03</pdfrwt>
<totfact> 0.14255976E+03</totfact>
</mgrwt>
</event>
<event>
 4    1  0.4689683E-002  0.4319669E+03  0.7818608E-02  0.1033240E+00
         21   -1    0    0  503  502  0.00000000000E+00  0.00000000000E+00  0.13438622522E+03  0.13438622522E+03  0.00000000000E+00 0.  1.
         21   -1    0    0  501  503 -0.00000000000E+00 -0.00000000000E+00 -0.15328047615E+04  0.15328047615E+04  0.00000000000E+00 0.  1.
    9000007    1    1    2  501    0  0.16270913457E+03 -0.11007016401E+02 -0.95497989344E+03  0.10481326318E+04  0.40000000000E+03 0.  1.
   -9000007    1    1    2    0  502 -0.16270913457E+03  0.11007016401E+02 -0.44343864287E+03  0.61905835498E+03  0.40000000000E+03 0.  1.
<mgrwt>
<rscale>  2 0.43196692E+03</rscale>
<asrwt>0</asrwt>
<pdfrwt beam="1">  1       21 0.20674804E-01 0.43196692E+03</pdfrwt>
<pdfrwt beam="2">  1       21 0.23581612E+00 0.43196692E+03</pdfrwt>
<totfact> 0.14674869E+03</totfact>
</mgrwt>
</event>
<event>
 4    1  0.4689683E-002  0.4905090E+03  0.7818608E-02  0.1016286E+00
         21   -1    0    0  501  502  0.00000000000E+00  0.00000000000E+00  0.37133172956E+03  0.37133172956E+03  0.00000000000E+00 0.  1.
         21   -1    0    0  502  503 -0.00000000000E+00 -0.00000000000E+00 -0.64953624440E+03  0.64953624440E+03  0.00000000000E+00 0.  1.
    9000007    1    1    2  501    0 -0.23142865603E+03 -0.16443809423E+03 -0.16443967921E+03  0.51733888097E+03  0.40000000000E+03 0.  1.
   -9000007    1    1    2    0  503  0.23142865603E+03  0.16443809423E+03 -0.11376483562E+03  0.50352909299E+03  0.40000000000E+03 0.  1.
<mgrwt>
<rscale>  2 0.49050903E+03</rscale>
<asrwt>0</asrwt>
<pdfrwt beam="1">  1       21 0.57127959E-01 0.49050903E+03</pdfrwt>
<pdfrwt beam="2">  1       21 0.99928652E-01 0.49050903E+03</pdfrwt>
<totfact> 0.20122947E+03</totfact>
</mgrwt>
</event>
<event>
 4    1  0.4689683E-002  0.4188348E+03  0.7818608E-02  0.1037446E+00
         21   -1    0    0  501  502  0.00000000000E+00  0.00000000000E+00  0.32793932678E+03  0.32793932678E+03  0.00000000000E+00 0. -1.
         21   -1    0    0  502  503 -0.00000000000E+00 -0.00000000000E+00 -0.76163478937E+03  0.76163478937E+03  0.00000000000E+00 0. -1.
    9000007    1    1    2  501    0 -0.34552370366E+02  0.11928404417E+03  0.80380245593E+02  0.42647805732E+03  0.40000000000E+03 0. -1.
   -9000007    1    1    2    0  503  0.34552370366E+02 -0.11928404417E+03 -0.51407570819E+03  0.66309605883E+03  0.40000000000E+03 0. -1.
<mgrwt>
<rscale>  2 0.41883475E+03</rscale>
<asrwt>0</asrwt>
<pdfrwt beam="1">  1       21 0.50452204E-01 0.41883475E+03</pdfrwt>
<pdfrwt beam="2">  1       21 0.11717458E+00 0.41883475E+03</pdfrwt>
<totfact> 0.18217923E+03</totfact>
</mgrwt>
</event>
<event>
 4    1  0.4689683E-002  0.4475550E+03  0.7818608E-02  0.1028454E+00
         21   -1    0    0  503  502  0.00000000000E+00  0.00000000000E+00  0.14871247646E+03  0.14871247646E+03  0.00000000000E+00 0.  1.
         21   -1    0    0  501  503 -0.00000000000E+00 -0.00000000000E+00 -0.13768622447E+04  0.13768622447E+04  0.00000000000E+00 0.  1.
    9000007    1    1    2  501    0 -0.12183762008E+03  0.15956525569E+03 -0.72654032168E+03  0.85332661714E+03  0.40000000000E+03 0.  1.
   -9000007    1    1    2    0  502  0.12183762008E+03 -0.15956525569E+03 -0.50160944656E+03  0.67224810403E+03  0.40000000000E+03 0.  1.
<mgrwt>
<rscale>  2 0.44755500E+03</rscale>
<asrwt>0</asrwt>
<pdfrwt beam="1">  1       21 0.22878844E-01 0.44755500E+03</pdfrwt>
<pdfrwt beam="2">  1       21 0.21182495E+00 0.44755500E+03</pdfrwt>
<totfact> 0.17039455E+03</totfact>
</mgrwt>
</event>
<event>
 4    1  0.4689683E-002  0.7815658E+03  0.7818608E-02  0.9587090E-01
         21   -1    0    0  501  502  0.00000000000E+00  0.00000000000E+00  0.54286395924E+03  0.54286395924E+03  0.00000000000E+00 0.  1.
         21   -1    0    0  502  503 -0.00000000000E+00 -0.00000000000E+00 -0.19796209893E+04  0.19796209893E+04  0.00000000000E+00 0.  1.
    9000007    1    1    2  501    0  0.32280965436E+03 -0.58876055623E+03  0.11020580537E+03  0.78929739963E+03  0.40000000000E+03 0.  1.
   -9000007    1    1    2    0  503 -0.32280965436E+03  0.58876055623E+03 -0.15469628354E+04  0.17331875489E+04  0.40000000000E+03 0.  1.
<mgrwt>
<rscale>  2 0.78156578E+03</rscale>
<asrwt>0</asrwt>
<pdfrwt beam="1">  1       21 0.83517532E-01 0.78156578E+03</pdfrwt>
<pdfrwt beam="2">  1       21 0.30455708E+00 0.78156578E+03</pdfrwt>
<totfact> 0.25427547E+01</totfact>
</mgrwt>
</event>
<event>
 4    1  0.4689683E-002  0.4047581E+03  0.7818608E-02  0.1042144E+00
         21   -1    0    0  501  502  0.00000000000E+00  0.00000000000E+00  0.22382685574E+03  0.22382685574E+03  0.00000000000E+00 0.  1.
         21   -1    0    0  502  503 -0.00000000000E+00 -0.00000000000E+00 -0.11053616914E+04  0.11053616914E+04  0.00000000000E+00 0.  1.
    9000007    1    1    2  501    0 -0.14402750951E+02 -0.60180685359E+02 -0.54488756269E+02  0.40840932737E+03  0.40000000000E+03 0.  1.
   -9000007    1    1    2    0  503  0.14402750951E+02  0.60180685359E+02 -0.82704607935E+03  0.92077921973E+03  0.40000000000E+03 0.  1.
<mgrwt>
<rscale>  2 0.40475814E+03</rscale>
<asrwt>0</asrwt>
<pdfrwt beam="1">  1       21 0.34434902E-01 0.40475814E+03</pdfrwt>
<pdfrwt beam="2">  1       21 0.17005564E+00 0.40475814E+03</pdfrwt>
<totfact> 0.14978802E+03</totfact>
</mgrwt>
</event>
<event>
 4    1  0.4689683E-002  0.6361977E+03  0.7818608E-02  0.9833028E-01
         21   -1    0    0  501  502  0.00000000000E+00  0.00000000000E+00  0.19514619603E+04  0.19514619603E+04  0.00000000000E+00 0. -1.
         21   -1    0    0  502  503 -0.00000000000E+00 -0.00000000000E+00 -0.21654433325E+03  0.21654433325E+03  0.00000000000E+00 0.  1.
    9000007    1    1    2  501    0  0.34666900101E+03  0.35294215093E+03  0.10901271646E+04  0.12621904742E+04  0.40000000000E+03 0.  1.
   -9000007    1    1    2    0  503 -0.34666900101E+03 -0.35294215093E+03  0.64479046252E+03  0.90581581942E+03  0.40000000000E+03 0.  1.
<mgrwt>
<rscale>  2 0.63619774E+03</rscale>
<asrwt>0</asrwt>
<pdfrwt beam="1">  1       21 0.30022491E+00 0.63619774E+03</pdfrwt>
<pdfrwt beam="2">  1       21 0.33314514E-01 0.63619774E+03</pdfrwt>
<totfact> 0.21142000E+02</totfact>
</mgrwt>
</event>
<event>
 4    1  0.4689683E-002  0.6423544E+03  0.7818608E-02  0.9821232E-01
         21   -1    0    0  501  502  0.00000000000E+00  0.00000000000E+00  0.37794614051E+03  0.37794614051E+03  0.00000000000E+00 0. -1.
         21   -1    0    0  502  503 -0.00000000000E+00 -0.00000000000E+00 -0.10922706061E+04  0.10922706061E+04  0.00000000000E+00 0. -1.
    9000007    1    1    2  501    0 -0.50183840520E+03 -0.27881913197E+02 -0.34097086633E+03  0.72724158139E+03  0.40000000000E+03 0. -1.
   -9000007    1    1    2    0  503  0.50183840520E+03  0.27881913197E+02 -0.37335359923E+03  0.74297516518E+03  0.40000000000E+03 0. -1.
<mgrwt>
<rscale>  2 0.64235441E+03</rscale>
<asrwt>0</asrwt>
<pdfrwt beam="1">  1       21 0.58145562E-01 0.64235441E+03</pdfrwt>
<pdfrwt beam="2">  1       21 0.16804163E+00 0.64235441E+03</pdfrwt>
<totfact> 0.47035658E+02</totfact>
</mgrwt>
</event>
<event>
 4    1  0.4689683E-002  0.5375674E+03  0.7818608E-02  0.1004413E+00
         21   -1    0    0  503  502  0.00000000000E+00  0.00000000000E+00  0.78172997925E+03  0.78172997925E+03  0.00000000000E+00 0.  1.
         21   -1    0    0  501  503 -0.00000000000E+00 -0.00000000000E+00 -0.16164291178E+04  0.16164291178E+04  0.00000000000E+00 0. -1.
    9000007    1    1    2  501    0  0.22544940631E+03  0.27955540229E+03 -0.14704304097E+04  0.15656130581E+04  0.40000000000E+03 0. -1.
   -9000007    1    1    2    0  502 -0.22544940631E+03 -0.27955540229E+03  0.63573127121E+03  0.83254603894E+03  0.40000000000E+03 0.  1.
<mgrwt>
<rscale>  2 0.53756735E+03</rscale>
<asrwt>0</asrwt>
<pdfrwt beam="1">  1       21 0.12026615E+00 0.53756735E+03</pdfrwt>
<pdfrwt beam="2">  1       21 0.24868140E+00 0.53756735E+03</pdfrwt>
<totfact> 0.25670709E+01</totfact>
</mgrwt>
</event>
<event>
 4    1  0.4689683E-002  0.5125565E+03  0.7818608E-02  0.1010552E+00
         21   -1    0    0  503  502  0.00000000000E+00  0.00000000000E+00  0.12121171097E+04  0.12121171097E+04  0.00000000000E+00 0.  1.
         21   -1    0    0  501  503 -0.00000000000E+00 -0.00000000000E+00 -0.31861920649E+03  0.31861920649E+03  0.00000000000E+00 0.  1.
    9000007    1    1    2  501    0  0.18952541649E+02  0.31992966614E+03  0.13958851222E+02  0.51274656472E+03  0.40000000000E+03 0.  1.
   -9000007    1    1    2    0  502 -0.18952541649E+02 -0.31992966614E+03  0.87953905197E+03  0.10179897514E+04  0.40000000000E+03 0.  1.
<mgrwt>
<rscale>  2 0.51255652E+03</rscale>
<asrwt>0</asrwt>
<pdfrwt beam="1">  1       21 0.18647955E+00 0.51255652E+03</pdfrwt>
<pdfrwt beam="2">  1       21 0.49018340E-01 0.51255652E+03</pdfrwt>
<totfact> 0.52589348E+02</totfact>
</mgrwt>
</event>
<event>
 4    1  0.4689683E-002  0.7077279E+03  0.7818608E-02  0.9704107E-01
         21   -1    0    0  503  502  0.00000000000E+00  0.00000000000E+00  0.37480104456E+03  0.37480104456E+03  0.00000000000E+00 0.  1.
         21   -1    0    0  501  503 -0.00000000000E+00 -0.00000000000E+00 -0.13914277488E+04  0.13914277488E+04  0.00000000000E+00 0. -1.
    9000007    1    1    2  501    0 -0.56131001009E+03  0.16065463788E+03 -0.68395724250E+03  0.98421356914E+03  0.40000000000E+03 0. -1.
   -9000007    1    1    2    0  502  0.56131001009E+03 -0.16065463788E+03 -0.33266946170E+03  0.78201522418E+03  0.40000000000E+03 0.  1.
<mgrwt>
<rscale>  2 0.70772794E+03</rscale>
<asrwt>0</asrwt>
<pdfrwt beam="1">  1       21 0.57661699E-01 0.70772794E+03</pdfrwt>
<pdfrwt beam="2">  1       21 0.21406581E+00 0.70772794E+03</pdfrwt>
<totfact> 0.22435108E+02</totfact>
</mgrwt>
</event>
<event>
 4    1  0.4689683E-002  0.4360802E+03  0.7818608E-02  0.1031956E+00
         21   -1    0    0  503  502  0.00000000000E+00  0.00000000000E+00  0.99406042487E+03  0.99406042487E+03  0.00000000000E+00 0.  1.
         21   -1    0    0  501  503 -0.00000000000E+00 -0.00000000000E+00 -0.22887609611E+03  0.22887609611E+03  0.00000000000E+00 0.  1.
    9000007    1    1    2  501    0 -0.11939191449E+03 -0.12614070560E+03  0.13484023553E+03  0.45645130734E+03  0.40000000000E+03 0.  1.
   -9000007    1    1    2    0  502  0.11939191449E+03  0.12614070560E+03  0.63034409323E+03  0.76648521364E+03  0.40000000000E+03 0.  1.
<mgrwt>
<rscale>  2 0.43608016E+03</rscale>
<asrwt>0</asrwt>
<pdfrwt beam="1">  1       21 0.15293237E+00 0.43608016E+03</pdfrwt>
<pdfrwt beam="2">  1       21 0.35211708E-01 0.43608016E+03</pdfrwt>
<totfact> 0.18981892E+03</totfact>
</mgrwt>
</event>
<event>
 4    1  0.4689683E-002  0.4723422E+03  0.7818608E-02  0.1021261E+00
         21   -1    0    0  503  502  0.00000000000E+00  0.00000000000E+00  0.10069598391E+04  0.10069598391E+04  0.00000000000E+00 0. -1.
         21   -1    0    0  501  503 -0.00000000000E+00 -0.00000000000E+00 -0.23417157054E+03  0.23417157054E+03  0.00000000000E+00 0. -1.
    9000007    1    1    2  501    0  0.22381690128E+03  0.11407519980E+03  0.24240906518E+03  0.53091365719E+03  0.40000000000E+03 0. -1.
   -9000007    1    1    2    0  502 -0.22381690128E+03 -0.11407519980E+03  0.53037920337E+03  0.71021775244E+03  0.40000000000E+03 0. -1.
<mgrwt>
<rscale>  2 0.47234220E+03</rscale>
<asrwt>0</asrwt>
<pdfrwt beam="1">  1       21 0.15491690E+00 0.47234220E+03</pdfrwt>
<pdfrwt beam="2">  1       21 0.36026396E-01 0.47234220E+03</pdfrwt>
<totfact> 0.17240904E+03</totfact>
</mgrwt>
</event>
<event>
 4    1  0.4689683E-002  0.6453239E+03  0.7818608E-02  0.9815593E-01
         21   -1    0    0  503  502  0.00000000000E+00  0.00000000000E+00  0.15090828684E+03  0.15090828684E+03  0.00000000000E+00 0. -1.
         21   -1    0    0  501  503 -0.00000000000E+00 -0.00000000000E+00 -0.28505429735E+04  0.28505429735E+04  0.00000000000E+00 0.  1.
    9000007    1    1    2  501    0 -0.74129240202E+02  0.50094690763E+03 -0.16179059742E+04  0.17418561048E+04  0.40000000000E+03 0.  1.
   -9000007    1    1    2    0  502  0.74129240202E+02 -0.50094690763E+03 -0.10817287125E+04  0.12595951556E+04  0.40000000000E+03 0.  1.
<mgrwt>
<rscale>  2 0.64532391E+03</rscale>
<asrwt>0</asrwt>
<pdfrwt beam="1">  1       21 0.23216660E-01 0.64532391E+03</pdfrwt>
<pdfrwt beam="2">  1       21 0.43854507E+00 0.64532391E+03</pdfrwt>
<totfact> 0.57110157E+01</totfact>
</mgrwt>
</event>
<event>
 4    1  0.4689683E-002  0.4239284E+03  0.7818608E-02  0.1035795E+00
         21   -1    0    0  501  502  0.00000000000E+00  0.00000000000E+00  0.88253102622E+03  0.88253102622E+03  0.00000000000E+00 0.  1.
         21   -1    0    0  502  503 -0.00000000000E+00 -0.00000000000E+00 -0.44913367622E+03  0.44913367622E+03  0.00000000000E+00 0.  1.
    9000007    1    1    2  501    0  0.60759183976E+02 -0.12658446465E+03  0.70896548793E+03  0.82604319996E+03  0.40000000000E+03 0.  1.
   -9000007    1    1    2    0  503 -0.60759183976E+02  0.12658446465E+03 -0.27556813793E+03  0.50562150248E+03  0.40000000000E+03 0.  1.
<mgrwt>
<rscale>  2 0.42392842E+03</rscale>
<asrwt>0</asrwt>
<pdfrwt beam="1">  1       21 0.13577400E+00 0.42392842E+03</pdfrwt>
<pdfrwt beam="2">  1       21 0.69097489E-01 0.42392842E+03</pdfrwt>
<totfact> 0.62647226E+02</totfact>
</mgrwt>
</event>
<event>
 4    1  0.4689683E-002  0.6086736E+03  0.7818608E-02  0.9887573E-01
         21   -1    0    0  503  502  0.00000000000E+00  0.00000000000E+00  0.26381591623E+03  0.26381591623E+03  0.00000000000E+00 0.  1.
         21   -1    0    0  501  503 -0.00000000000E+00 -0.00000000000E+00 -0.14538299040E+04  0.14538299040E+04  0.00000000000E+00 0. -1.
    9000007    1    1    2  501    0  0.45832702046E+03 -0.20490420474E+02 -0.43652966772E+03  0.74902714625E+03  0.40000000000E+03 0.  1.
   -9000007    1    1    2    0  502 -0.45832702046E+03  0.20490420474E+02 -0.75348432005E+03  0.96861867397E+03  0.40000000000E+03 0. -1.
<mgrwt>
<rscale>  2 0.60867357E+03</rscale>
<asrwt>0</asrwt>
<pdfrwt beam="1">  1       21 0.40587065E-01 0.60867357E+03</pdfrwt>
<pdfrwt beam="2">  1       21 0.22366613E+00 0.60867357E+03</pdfrwt>
<totfact> 0.42556395E+02</totfact>
</mgrwt>
</event>
<event>
 4    1  0.4689683E-002  0.4540104E+03  0.7818608E-02  0.1026533E+00
         21   -1    0    0  501  502  0.00000000000E+00  0.00000000000E+00  0.48054150385E+03  0.48054150385E+03  0.00000000000E+00 0. -1.
         21   -1    0    0  502  503 -0.00000000000E+00 -0.00000000000E+00 -0.81963922590E+03  0.81963922590E+03  0.00000000000E+00 0.  1.
    9000007    1    1    2  501    0  0.17318234193E+03  0.12701703880E+03  0.27928059210E+03  0.53303198856E+03  0.40000000000E+03 0. -1.
   -9000007    1    1    2    0  503 -0.17318234193E+03 -0.12701703880E+03 -0.61837831415E+03  0.76714874120E+03  0.40000000000E+03 0.  1.
<mgrwt>
<rscale>  2 0.45401041E+03</rscale>
<asrwt>0</asrwt>
<pdfrwt beam="1">  1       21 0.73929462E-01 0.45401041E+03</pdfrwt>
<pdfrwt beam="2">  1       21 0.12609834E+00 0.45401041E+03</pdfrwt>
<totfact> 0.64269125E+02</totfact>
</mgrwt>
</event>
<event>
 4    1  0.4689683E-002  0.4519939E+03  0.7818608E-02  0.1027129E+00
         21   -1    0    0  501  502  0.00000000000E+00  0.00000000000E+00  0.25104189730E+03  0.25104189730E+03  0.00000000000E+00 0.  1.
         21   -1    0    0  502  503 -0.00000000000E+00 -0.00000000000E+00 -0.16286247537E+04  0.16286247537E+04  0.00000000000E+00 0.  1.
    9000007    1    1    2  501    0  0.10546997537E+03 -0.18213882219E+03 -0.24020793959E+02  0.45263170989E+03  0.40000000000E+03 0.  1.
   -9000007    1    1    2    0  503 -0.10546997537E+03  0.18213882219E+03 -0.13535620624E+04  0.14270349411E+04  0.40000000000E+03 0.  1.
<mgrwt>
<rscale>  2 0.45199388E+03</rscale>
<asrwt>0</asrwt>
<pdfrwt beam="1">  1       21 0.38621831E-01 0.45199388E+03</pdfrwt>
<pdfrwt beam="2">  1       21 0.25055765E+00 0.45199388E+03</pdfrwt>
<totfact> 0.34290517E+02</totfact>
</mgrwt>
</event>
<event>
 4    1  0.4689683E-002  0.4463352E+03  0.7818608E-02  0.1028821E+00
         21   -1    0    0  501  502  0.00000000000E+00  0.00000000000E+00  0.88093484654E+03  0.88093484654E+03  0.00000000000E+00 0.  1.
         21   -1    0    0  502  503 -0.00000000000E+00 -0.00000000000E+00 -0.23587190456E+03  0.23587190456E+03  0.00000000000E+00 0.  1.
    9000007    1    1    2  501    0 -0.11895456152E+03 -0.15831908375E+03  0.20910985399E+03  0.49289152054E+03  0.40000000000E+03 0.  1.
   -9000007    1    1    2    0  503  0.11895456152E+03  0.15831908375E+03  0.43595308799E+03  0.62391523055E+03  0.40000000000E+03 0.  1.
<mgrwt>
<rscale>  2 0.44633521E+03</rscale>
<asrwt>0</asrwt>
<pdfrwt beam="1">  1       21 0.13552844E+00 0.44633521E+03</pdfrwt>
<pdfrwt beam="2">  1       21 0.36287986E-01 0.44633521E+03</pdfrwt>
<totfact> 0.24586294E+03</totfact>
</mgrwt>
</event>
<event>
 4    1  0.4689683E-002  0.4977745E+03  0.7818608E-02  0.1014361E+00
         21   -1    0    0  503  502  0.00000000000E+00  0.00000000000E+00  0.29421951349E+03  0.29421951349E+03  0.00000000000E+00 0.  1.
         21   -1    0    0  501  503 -0.00000000000E+00 -0.00000000000E+00 -0.93464924865E+03  0.93464924865E+03  0.00000000000E+00 0.  1.
    9000007    1    1    2  501    0  0.20839655129E+03 -0.21059525274E+03 -0.51350076799E+03  0.71516607986E+03  0.40000000000E+03 0.  1.
   -9000007    1    1    2    0  502 -0.20839655129E+03  0.21059525274E+03 -0.12692896717E+03  0.51370268227E+03  0.40000000000E+03 0.  1.
<mgrwt>
<rscale>  2 0.49777453E+03</rscale>
<asrwt>0</asrwt>
<pdfrwt beam="1">  1       21 0.45264540E-01 0.49777453E+03</pdfrwt>
<pdfrwt beam="2">  1       21 0.14379219E+00 0.49777453E+03</pdfrwt>
<totfact> 0.13045512E+03</totfact>
</mgrwt>
</event>
<event>
 4    1  0.4689683E-002  0.4605379E+03  0.7818608E-02  0.1024625E+00
         21   -1    0    0  501  502  0.00000000000E+00  0.00000000000E+00  0.12667976744E+03  0.12667976744E+03  0.00000000000E+00 0. -1.
         21   -1    0    0  502  503 -0.00000000000E+00 -0.00000000000E+00 -0.33549269724E+04  0.33549269724E+04  0.00000000000E+00 0. -1.
    9000007    1    1    2  501    0 -0.19555265556E+03  0.11770436507E+03 -0.38201576844E+03  0.59835708903E+03  0.40000000000E+03 0. -1.
   -9000007    1    1    2    0  503  0.19555265556E+03 -0.11770436507E+03 -0.28462314365E+04  0.28832496508E+04  0.40000000000E+03 0. -1.
<mgrwt>
<rscale>  2 0.46053790E+03</rscale>
<asrwt>0</asrwt>
<pdfrwt beam="1">  1       21 0.19489192E-01 0.46053790E+03</pdfrwt>
<pdfrwt beam="2">  1       21 0.51614270E+00 0.46053790E+03</pdfrwt>
<totfact> 0.25610632E+01</totfact>
</mgrwt>
</event>
<event>
 4    1  0.4689683E-002  0.5926020E+03  0.7818608E-02  0.9920875E-01
         21   -1    0    0  503  502  0.00000000000E+00  0.00000000000E+00  0.29592771766E+03  0.29592771766E+03  0.00000000000E+00 0.  1.
         21   -1    0    0  501  503 -0.00000000000E+00 -0.00000000000E+00 -0.14167120437E+04  0.14167120437E+04  0.00000000000E+00 0.  1.
    9000007    1    1    2  501    0  0.34709414789E+03 -0.26589984581E+03 -0.90543389841E+03  0.10821218138E+04  0.40000000000E+03 0.  1.
   -9000007    1    1    2    0  502 -0.34709414789E+03  0.26589984581E+03 -0.21535042761E+03  0.63051794754E+03  0.40000000000E+03 0.  1.
<mgrwt>
<rscale>  2 0.59260195E+03</rscale>
<asrwt>0</asrwt>
<pdfrwt beam="1">  1       21 0.45527343E-01 0.59260195E+03</pdfrwt>
<pdfrwt beam="2">  1       21 0.21795569E+00 0.59260195E+03</pdfrwt>
<totfact> 0.36646074E+02</totfact>
</mgrwt>
</event>
<event>
 4    1  0.4689683E-002  0.4976646E+03  0.7818608E-02  0.1014390E+00
         21   -1    0    0  501  502  0.00000000000E+00  0.00000000000E+00  0.15159801966E+03  0.15159801966E+03  0.00000000000E+00 0.  1.
         21   -1    0    0  502  503 -0.00000000000E+00 -0.00000000000E+00 -0.16382637228E+04  0.16382637228E+04  0.00000000000E+00 0.  1.
    9000007    1    1    2  501    0  0.29538262888E+03  0.20473541582E+02 -0.79041741536E+03  0.93403948195E+03  0.40000000000E+03 0.  1.
   -9000007    1    1    2    0  503 -0.29538262888E+03 -0.20473541582E+02 -0.69624828781E+03  0.85582226053E+03  0.40000000000E+03 0.  1.
<mgrwt>
<rscale>  2 0.49766461E+03</rscale>
<asrwt>0</asrwt>
<pdfrwt beam="1">  1       21 0.23322772E-01 0.49766461E+03</pdfrwt>
<pdfrwt beam="2">  1       21 0.25204057E+00 0.49766461E+03</pdfrwt>
<totfact> 0.89545395E+02</totfact>
</mgrwt>
</event>
<event>
 4    1  0.4689683E-002  0.4321254E+03  0.7818608E-02  0.1033191E+00
         21   -1    0    0  501  502  0.00000000000E+00  0.00000000000E+00  0.37446392803E+03  0.37446392803E+03  0.00000000000E+00 0. -1.
         21   -1    0    0  502  503 -0.00000000000E+00 -0.00000000000E+00 -0.53190631438E+03  0.53190631438E+03  0.00000000000E+00 0. -1.
    9000007    1    1    2  501    0  0.11451904997E+03 -0.11669526901E+03  0.34568699024E+02  0.43350593256E+03  0.40000000000E+03 0. -1.
   -9000007    1    1    2    0  503 -0.11451904997E+03  0.11669526901E+03 -0.19201108537E+03  0.47286430984E+03  0.40000000000E+03 0. -1.
<mgrwt>
<rscale>  2 0.43212544E+03</rscale>
<asrwt>0</asrwt>
<pdfrwt beam="1">  1       21 0.57609835E-01 0.43212544E+03</pdfrwt>
<pdfrwt beam="2">  1       21 0.81831740E-01 0.43212544E+03</pdfrwt>
<totfact> 0.32410524E+03</totfact>
</mgrwt>
</event>
<event>
 4    1  0.4689683E-002  0.4636725E+03  0.7818608E-02  0.1023721E+00
         21   -1    0    0  501  502  0.00000000000E+00  0.00000000000E+00  0.50452097346E+03  0.50452097346E+03  0.00000000000E+00 0.  1.
         21   -1    0    0  502  503 -0.00000000000E+00 -0.00000000000E+00 -0.66549668075E+03  0.66549668075E+03  0.00000000000E+00 0.  1.
    9000007    1    1    2  501    0 -0.19845639533E+03 -0.12492902191E+03  0.27036103101E+03  0.53673763465E+03  0.40000000000E+03 0.  1.
   -9000007    1    1    2    0  503  0.19845639533E+03  0.12492902191E+03 -0.43133673830E+03  0.63328001955E+03  0.40000000000E+03 0.  1.
<mgrwt>
<rscale>  2 0.46367252E+03</rscale>
<asrwt>0</asrwt>
<pdfrwt beam="1">  1       21 0.77618611E-01 0.46367252E+03</pdfrwt>
<pdfrwt beam="2">  1       21 0.10238410E+00 0.46367252E+03</pdfrwt>
<totfact> 0.96526649E+02</totfact>
</mgrwt>
</event>
<event>
 4    1  0.4689683E-002  0.4471622E+03  0.7818608E-02  0.1028572E+00
         21   -1    0    0  503  502  0.00000000000E+00  0.00000000000E+00  0.42021953980E+03  0.42021953980E+03  0.00000000000E+00 0. -1.
         21   -1    0    0  501  503 -0.00000000000E+00 -0.00000000000E+00 -0.48796051690E+03  0.48796051690E+03  0.00000000000E+00 0. -1.
    9000007    1    1    2  501    0  0.18647750571E+03  0.71973235053E+02 -0.10545995068E+03  0.45942987267E+03  0.40000000000E+03 0. -1.
   -9000007    1    1    2    0  502 -0.18647750571E+03 -0.71973235053E+02  0.37718973576E+02  0.44875018403E+03  0.40000000000E+03 0. -1.
<mgrwt>
<rscale>  2 0.44716217E+03</rscale>
<asrwt>0</asrwt>
<pdfrwt beam="1">  1       21 0.64649160E-01 0.44716217E+03</pdfrwt>
<pdfrwt beam="2">  1       21 0.75070848E-01 0.44716217E+03</pdfrwt>
<totfact> 0.30511034E+03</totfact>
</mgrwt>
</event>
<event>
 4    1  0.4689683E-002  0.4234727E+03  0.7818608E-02  0.1035942E+00
         21   -1    0    0  503  502  0.00000000000E+00  0.00000000000E+00  0.79660436617E+03  0.79660436617E+03  0.00000000000E+00 0. -1.
         21   -1    0    0  501  503 -0.00000000000E+00 -0.00000000000E+00 -0.40754798543E+03  0.40754798543E+03  0.00000000000E+00 0. -1.
    9000007    1    1    2  501    0 -0.34072413772E+02 -0.13478938346E+03 -0.20829223659E+03  0.47192665012E+03  0.40000000000E+03 0. -1.
   -9000007    1    1    2    0  502  0.34072413772E+02  0.13478938346E+03  0.59734861733E+03  0.73222570148E+03  0.40000000000E+03 0. -1.
<mgrwt>
<rscale>  2 0.42347268E+03</rscale>
<asrwt>0</asrwt>
<pdfrwt beam="1">  1       21 0.12255452E+00 0.42347268E+03</pdfrwt>
<pdfrwt beam="2">  1       21 0.62699690E-01 0.42347268E+03</pdfrwt>
<totfact> 0.10136025E+03</totfact>
</mgrwt>
</event>
<event>
 4    1  0.4689683E-002  0.5966561E+03  0.7818608E-02  0.9912368E-01
         21   -1    0    0  503  502  0.00000000000E+00  0.00000000000E+00  0.12893086495E+04  0.12893086495E+04  0.00000000000E+00 0. -1.
         21   -1    0    0  501  503 -0.00000000000E+00 -0.00000000000E+00 -0.35129403912E+03  0.35129403912E+03  0.00000000000E+00 0. -1.
    9000007    1    1    2  501    0 -0.22561620429E+03 -0.38091450327E+03  0.89531566378E+02  0.60333608529E+03  0.40000000000E+03 0. -1.
   -9000007    1    1    2    0  502  0.22561620429E+03  0.38091450327E+03  0.84848304405E+03  0.10372666034E+04  0.40000000000E+03 0. -1.
<mgrwt>
<rscale>  2 0.59665612E+03</rscale>
<asrwt>0</asrwt>
<pdfrwt beam="1">  1       21 0.19835517E+00 0.59665612E+03</pdfrwt>
<pdfrwt beam="2">  1       21 0.54045237E-01 0.59665612E+03</pdfrwt>
<totfact> 0.34198690E+02</totfact>
</mgrwt>
</event>
<event>
 4    1  0.4689683E-002  0.5899015E+03  0.7818608E-02  0.9926582E-01
         21   -1    0    0  501  502  0.00000000000E+00  0.00000000000E+00  0.16438933761E+03  0.16438933761E+03  0.00000000000E+00 0. -1.
         21   -1    0    0  502  503 -0.00000000000E+00 -0.00000000000E+00 -0.24723872023E+04  0.24723872023E+04  0.00000000000E+00 0. -1.
    9000007    1    1    2  501    0  0.58901480755E+02  0.42955133611E+03 -0.65403133564E+03  0.88076144488E+03  0.40000000000E+03 0. -1.
   -9000007    1    1    2    0  503 -0.58901480755E+02 -0.42955133611E+03 -0.16539665291E+04  0.17560150950E+04  0.40000000000E+03 0. -1.
<mgrwt>
<rscale>  2 0.58990146E+03</rscale>
<asrwt>0</asrwt>
<pdfrwt beam="1">  1       21 0.25290667E-01 0.58990146E+03</pdfrwt>
<pdfrwt beam="2">  1       21 0.38036726E+00 0.58990146E+03</pdfrwt>
<totfact> 0.11924334E+02</totfact>
</mgrwt>
</event>
<event>
 4    1  0.4689683E-002  0.4677714E+03  0.7818608E-02  0.1022551E+00
         21   -1    0    0  501  502  0.00000000000E+00  0.00000000000E+00  0.27330950796E+03  0.27330950796E+03  0.00000000000E+00 0. -1.
         21   -1    0    0  502  503 -0.00000000000E+00 -0.00000000000E+00 -0.82940851220E+03  0.82940851220E+03  0.00000000000E+00 0.  1.
    9000007    1    1    2  501    0 -0.20879078215E+03 -0.12335503683E+03 -0.38081634417E+03  0.60318417072E+03  0.40000000000E+03 0.  1.
   -9000007    1    1    2    0  503  0.20879078215E+03  0.12335503683E+03 -0.17528266007E+03  0.49953384944E+03  0.40000000000E+03 0.  1.
<mgrwt>
<rscale>  2 0.46777137E+03</rscale>
<asrwt>0</asrwt>
<pdfrwt beam="1">  1       21 0.42047618E-01 0.46777137E+03</pdfrwt>
<pdfrwt beam="2">  1       21 0.12760131E+00 0.46777137E+03</pdfrwt>
<totfact> 0.21081403E+03</totfact>
</mgrwt>
</event>
<event>
 4    1  0.4689683E-002  0.4752270E+03  0.7818608E-02  0.1020455E+00
         21   -1    0    0  503  502  0.00000000000E+00  0.00000000000E+00  0.49803149960E+03  0.49803149960E+03  0.00000000000E+00 0. -1.
         21   -1    0    0  501  503 -0.00000000000E+00 -0.00000000000E+00 -0.84633855468E+03  0.84633855468E+03  0.00000000000E+00 0. -1.
    9000007    1    1    2  501    0  0.25639814749E+03  0.10036007430E+02 -0.63212897530E+03  0.79083991610E+03  0.40000000000E+03 0. -1.
   -9000007    1    1    2    0  502 -0.25639814749E+03 -0.10036007430E+02  0.28382192021E+03  0.55353013818E+03  0.40000000000E+03 0. -1.
<mgrwt>
<rscale>  2 0.47522703E+03</rscale>
<asrwt>0</asrwt>
<pdfrwt beam="1">  1       21 0.76620232E-01 0.47522703E+03</pdfrwt>
<pdfrwt beam="2">  1       21 0.13020593E+00 0.47522703E+03</pdfrwt>
<totfact> 0.54012358E+02</totfact>
</mgrwt>
</event>
<event>
 4    1  0.4689683E-002  0.4216506E+03  0.7818608E-02  0.1036530E+00
         21   -1    0    0  501  502  0.00000000000E+00  0.00000000000E+00  0.34370920570E+03  0.34370920570E+03  0.00000000000E+00 0.  1.
         21   -1    0    0  502  503 -0.00000000000E+00 -0.00000000000E+00 -0.91252914574E+03  0.91252914574E+03  0.00000000000E+00 0. -1.
    9000007    1    1    2  501    0 -0.90053289160E+02 -0.98385267877E+02  0.12898155583E+03  0.44093706758E+03  0.40000000000E+03 0.  1.
   -9000007    1    1    2    0  503  0.90053289160E+02  0.98385267877E+02 -0.69780149587E+03  0.81530128386E+03  0.40000000000E+03 0. -1.
<mgrwt>
<rscale>  2 0.42165063E+03</rscale>
<asrwt>0</asrwt>
<pdfrwt beam="1">  1       21 0.52878340E-01 0.42165063E+03</pdfrwt>
<pdfrwt beam="2">  1       21 0.14038910E+00 0.42165063E+03</pdfrwt>
<totfact> 0.10318996E+03</totfact>
</mgrwt>
</event>
<event>
 4    1  0.4689683E-002  0.5164554E+03  0.7818608E-02  0.1009571E+00
         21   -1    0    0  503  502  0.00000000000E+00  0.00000000000E+00  0.50916072882E+03  0.50916072882E+03  0.00000000000E+00 0.  1.
         21   -1    0    0  501  503 -0.00000000000E+00 -0.00000000000E+00 -0.61008531308E+03  0.61008531308E+03  0.00000000000E+00 0.  1.
    9000007    1    1    2  501    0  0.19905803541E+03 -0.25904066362E+03 -0.26085534203E+03  0.57859456992E+03  0.40000000000E+03 0.  1.
   -9000007    1    1    2    0  502 -0.19905803541E+03  0.25904066362E+03  0.15993075777E+03  0.54065147198E+03  0.40000000000E+03 0.  1.
<mgrwt>
<rscale>  2 0.51645539E+03</rscale>
<asrwt>0</asrwt>
<pdfrwt beam="1">  1       21 0.78332420E-01 0.51645539E+03</pdfrwt>
<pdfrwt beam="2">  1       21 0.93859279E-01 0.51645539E+03</pdfrwt>
<totfact> 0.11438296E+03</totfact>
</mgrwt>
</event>
<event>
 4    1  0.4689683E-002  0.4623415E+03  0.7818608E-02  0.1024104E+00
         21   -1    0    0  501  502  0.00000000000E+00  0.00000000000E+00  0.10336807556E+04  0.10336807556E+04  0.00000000000E+00 0. -1.
         21   -1    0    0  502  503 -0.00000000000E+00 -0.00000000000E+00 -0.21698960459E+03  0.21698960459E+03  0.00000000000E+00 0.  1.
    9000007    1    1    2  501    0 -0.89905729900E+02 -0.21372098751E+03  0.54389104324E+03  0.71384673963E+03  0.40000000000E+03 0.  1.
   -9000007    1    1    2    0  503  0.89905729900E+02  0.21372098751E+03  0.27280010775E+03  0.53682362053E+03  0.40000000000E+03 0.  1.
<mgrwt>
<rscale>  2 0.46234154E+03</rscale>
<asrwt>0</asrwt>
<pdfrwt beam="1">  1       21 0.15902781E+00 0.46234154E+03</pdfrwt>
<pdfrwt beam="2">  1       21 0.33383017E-01 0.46234154E+03</pdfrwt>
<totfact> 0.18779908E+03</totfact>
</mgrwt>
</event>
<event>
 4    1  0.4689683E-002  0.4163816E+03  0.7818608E-02  0.1038250E+00
         21   -1    0    0  501  502  0.00000000000E+00  0.00000000000E+00  0.69743253345E+03  0.69743253345E+03  0.00000000000E+00 0. -1.
         21   -1    0    0  502  503 -0.00000000000E+00 -0.00000000000E+00 -0.53648559477E+03  0.53648559477E+03  0.00000000000E+00 0. -1.
    9000007    1    1    2  501    0  0.11524520578E+03  0.95992404664E+01 -0.37148244153E+03  0.55800789173E+03  0.40000000000E+03 0. -1.
   -9000007    1    1    2    0  503 -0.11524520578E+03 -0.95992404664E+01  0.53242938021E+03  0.67591023648E+03  0.40000000000E+03 0. -1.
<mgrwt>
<rscale>  2 0.41638156E+03</rscale>
<asrwt>0</asrwt>
<pdfrwt beam="1">  1       21 0.10729731E+00 0.41638156E+03</pdfrwt>
<pdfrwt beam="2">  1       21 0.82536245E-01 0.41638156E+03</pdfrwt>
<totfact> 0.76183233E+02</totfact>
</mgrwt>
</event>
<event>
 4    1  0.4689683E-002  0.4358595E+03  0.7818608E-02  0.1032025E+00
         21   -1    0    0  501  502  0.00000000000E+00  0.00000000000E+00  0.28599038954E+03  0.28599038954E+03  0.00000000000E+00 0.  1.
         21   -1    0    0  502  503 -0.00000000000E+00 -0.00000000000E+00 -0.74567914643E+03  0.74567914643E+03  0.00000000000E+00 0. -1.
    9000007    1    1    2  501    0 -0.27474851623E+02  0.17093448104E+03 -0.59399480213E+02  0.43988835235E+03  0.40000000000E+03 0.  1.
   -9000007    1    1    2    0  503  0.27474851623E+02 -0.17093448104E+03 -0.40028927667E+03  0.59178118363E+03  0.40000000000E+03 0. -1.
<mgrwt>
<rscale>  2 0.43585945E+03</rscale>
<asrwt>0</asrwt>
<pdfrwt beam="1">  1       21 0.43998521E-01 0.43585945E+03</pdfrwt>
<pdfrwt beam="2">  1       21 0.11471987E+00 0.43585945E+03</pdfrwt>
<totfact> 0.25454774E+03</totfact>
</mgrwt>
</event>
<event>
 4    1  0.4689683E-002  0.4817262E+03  0.7818608E-02  0.1018662E+00
         21   -1    0    0  503  502  0.00000000000E+00  0.00000000000E+00  0.25866014339E+03  0.25866014339E+03  0.00000000000E+00 0. -1.
         21   -1    0    0  501  503 -0.00000000000E+00 -0.00000000000E+00 -0.95784680920E+03  0.95784680920E+03  0.00000000000E+00 0. -1.
    9000007    1    1    2  501    0  0.20914998389E+03 -0.16827483303E+03 -0.19649325569E+03  0.52025929567E+03  0.40000000000E+03 0. -1.
   -9000007    1    1    2    0  502 -0.20914998389E+03  0.16827483303E+03 -0.50269341012E+03  0.69624765692E+03  0.40000000000E+03 0. -1.
<mgrwt>
<rscale>  2 0.48172620E+03</rscale>
<asrwt>0</asrwt>
<pdfrwt beam="1">  1       21 0.39793869E-01 0.48172620E+03</pdfrwt>
<pdfrwt beam="2">  1       21 0.14736105E+00 0.48172620E+03</pdfrwt>
<totfact> 0.16061675E+03</totfact>
</mgrwt>
</event>
<event>
 4    1  0.4689683E-002  0.6016358E+03  0.7818608E-02  0.9902018E-01
         21   -1    0    0  503  502  0.00000000000E+00  0.00000000000E+00  0.19859490436E+04  0.19859490436E+04  0.00000000000E+00 0. -1.
         21   -1    0    0  501  503 -0.00000000000E+00 -0.00000000000E+00 -0.27881856641E+03  0.27881856641E+03  0.00000000000E+00 0. -1.
    9000007    1    1    2  501    0  0.13506903636E+03 -0.42862798597E+03  0.18718697360E+03  0.63008297710E+03  0.40000000000E+03 0. -1.
   -9000007    1    1    2    0  502 -0.13506903636E+03  0.42862798597E+03  0.15199435036E+04  0.16346846329E+04  0.40000000000E+03 0. -1.
<mgrwt>
<rscale>  2 0.60163577E+03</rscale>
<asrwt>0</asrwt>
<pdfrwt beam="1">  1       21 0.30553061E+00 0.60163577E+03</pdfrwt>
<pdfrwt beam="2">  1       21 0.42895165E-01 0.60163577E+03</pdfrwt>
<totfact> 0.11838539E+02</totfact>
</mgrwt>
</event>
<event>
 4    1  0.4689683E-002  0.4335117E+03  0.7818608E-02  0.1032756E+00
         21   -1    0    0  501  502  0.00000000000E+00  0.00000000000E+00  0.10781870097E+03  0.10781870097E+03  0.00000000000E+00 0. -1.
         21   -1    0    0  502  503 -0.00000000000E+00 -0.00000000000E+00 -0.18203103476E+04  0.18203103476E+04  0.00000000000E+00 0. -1.
    9000007    1    1    2  501    0  0.31505602827E+02 -0.16413348499E+03 -0.10548723876E+04  0.11404771624E+04  0.40000000000E+03 0. -1.
   -9000007    1    1    2    0  503 -0.31505602827E+02  0.16413348499E+03 -0.65761925908E+03  0.78765188619E+03  0.40000000000E+03 0. -1.
<mgrwt>
<rscale>  2 0.43351171E+03</rscale>
<asrwt>0</asrwt>
<pdfrwt beam="1">  1       21 0.16587492E-01 0.43351171E+03</pdfrwt>
<pdfrwt beam="2">  1       21 0.28004775E+00 0.43351171E+03</pdfrwt>
<totfact> 0.11940474E+03</totfact>
</mgrwt>
</event>
<event>
 4    1  0.4689683E-002  0.5118902E+03  0.7818608E-02  0.1010721E+00
         21   -1    0    0  503  502  0.00000000000E+00  0.00000000000E+00  0.88659545426E+03  0.88659545426E+03  0.00000000000E+00 0.  1.
         21   -1    0    0  501  503 -0.00000000000E+00 -0.00000000000E+00 -0.39105016558E+03  0.39105016558E+03  0.00000000000E+00 0. -1.
    9000007    1    1    2  501    0 -0.31942207037E+03  0.10771575980E+01 -0.67924399829E+02  0.51637713292E+03  0.40000000000E+03 0. -1.
   -9000007    1    1    2    0  502  0.31942207037E+03 -0.10771575980E+01  0.56346968852E+03  0.76126848692E+03  0.40000000000E+03 0. -1.
<mgrwt>
<rscale>  2 0.51189024E+03</rscale>
<asrwt>0</asrwt>
<pdfrwt beam="1">  1       21 0.13639930E+00 0.51189024E+03</pdfrwt>
<pdfrwt beam="2">  1       21 0.60161564E-01 0.51189024E+03</pdfrwt>
<totfact> 0.81108714E+02</totfact>
</mgrwt>
</event>
<event>
 4    1  0.4689683E-002  0.4266907E+03  0.7818608E-02  0.1034910E+00
         21   -1    0    0  501  502  0.00000000000E+00  0.00000000000E+00  0.26665565165E+03  0.26665565165E+03  0.00000000000E+00 0. -1.
         21   -1    0    0  502  503 -0.00000000000E+00 -0.00000000000E+00 -0.98068966672E+03  0.98068966672E+03  0.00000000000E+00 0. -1.
    9000007    1    1    2  501    0  0.14786446651E+03  0.14178950225E+02 -0.13269763446E+02  0.42689697786E+03  0.40000000000E+03 0. -1.
   -9000007    1    1    2    0  503 -0.14786446651E+03 -0.14178950225E+02 -0.70076425163E+03  0.82044834051E+03  0.40000000000E+03 0. -1.
<mgrwt>
<rscale>  2 0.42669069E+03</rscale>
<asrwt>0</asrwt>
<pdfrwt beam="1">  1       21 0.41023947E-01 0.42669069E+03</pdfrwt>
<pdfrwt beam="2">  1       21 0.15087533E+00 0.42669069E+03</pdfrwt>
<totfact> 0.14469637E+03</totfact>
</mgrwt>
</event>
<event>
 4    1  0.4689683E-002  0.4579272E+03  0.7818608E-02  0.1025384E+00
         21   -1    0    0  501  502  0.00000000000E+00  0.00000000000E+00  0.67710780793E+03  0.67710780793E+03  0.00000000000E+00 0.  1.
         21   -1    0    0  502  503 -0.00000000000E+00 -0.00000000000E+00 -0.32676866747E+03  0.32676866747E+03  0.00000000000E+00 0. -1.
    9000007    1    1    2  501    0  0.55513079484E+02  0.21590642319E+03  0.60437113405E+02  0.46189818169E+03  0.40000000000E+03 0. -1.
   -9000007    1    1    2    0  503 -0.55513079484E+02 -0.21590642319E+03  0.28990202705E+03  0.54197829371E+03  0.40000000000E+03 0. -1.
<mgrwt>
<rscale>  2 0.45792716E+03</rscale>
<asrwt>0</asrwt>
<pdfrwt beam="1">  1       21 0.10417043E+00 0.45792716E+03</pdfrwt>
<pdfrwt beam="2">  1       21 0.50272103E-01 0.45792716E+03</pdfrwt>
<totfact> 0.24210195E+03</totfact>
</mgrwt>
</event>
<event>
 4    1  0.4689683E-002  0.4201513E+03  0.7818608E-02  0.1037017E+00
         21   -1    0    0  501  502  0.00000000000E+00  0.00000000000E+00  0.17816877882E+04  0.17816877882E+04  0.00000000000E+00 0.  1.
         21   -1    0    0  502  503 -0.00000000000E+00 -0.00000000000E+00 -0.24020642484E+03  0.24020642484E+03  0.00000000000E+00 0.  1.
    9000007    1    1    2  501    0 -0.12838609849E+03 -0.66403285736E+01  0.15456350219E+04  0.16017224182E+04  0.40000000000E+03 0.  1.
   -9000007    1    1    2    0  503  0.12838609849E+03  0.66403285736E+01 -0.41536585341E+01  0.42017179478E+03  0.40000000000E+03 0.  1.
<mgrwt>
<rscale>  2 0.42015126E+03</rscale>
<asrwt>0</asrwt>
<pdfrwt beam="1">  1       21 0.27410580E+00 0.42015126E+03</pdfrwt>
<pdfrwt beam="2">  1       21 0.36954836E-01 0.42015126E+03</pdfrwt>
<totfact> 0.27494558E+02</totfact>
</mgrwt>
</event>
<event>
 4    1  0.4689683E-002  0.5116934E+03  0.7818608E-02  0.1010771E+00
         21   -1    0    0  503  502  0.00000000000E+00  0.00000000000E+00  0.17539301957E+04  0.17539301957E+04  0.00000000000E+00 0. -1.
         21   -1    0    0  501  503 -0.00000000000E+00 -0.00000000000E+00 -0.17613083447E+03  0.17613083447E+03  0.00000000000E+00 0.  1.
    9000007    1    1    2  501    0 -0.29980119857E+03  0.10931306319E+03  0.41212080672E+03  0.65701876973E+03  0.40000000000E+03 0.  1.
   -9000007    1    1    2    0  502  0.29980119857E+03 -0.10931306319E+03  0.11656785545E+04  0.12730422605E+04  0.40000000000E+03 0. -1.
<mgrwt>
<rscale>  2 0.51169337E+03</rscale>
<asrwt>0</asrwt>
<pdfrwt beam="1">  1       21 0.26983540E+00 0.51169337E+03</pdfrwt>
<pdfrwt beam="2">  1       21 0.27097053E-01 0.51169337E+03</pdfrwt>
<totfact> 0.51668592E+02</totfact>
</mgrwt>
</event>
<event>
 4    1  0.4689683E-002  0.5397000E+03  0.7818608E-02  0.1003906E+00
         21   -1    0    0  503  502  0.00000000000E+00  0.00000000000E+00  0.23557469320E+04  0.23557469320E+04  0.00000000000E+00 0.  1.
         21   -1    0    0  501  503 -0.00000000000E+00 -0.00000000000E+00 -0.12365122519E+03  0.12365122519E+03  0.00000000000E+00 0. -1.
    9000007    1    1    2  501    0  0.33081095335E+03  0.14778446217E+03  0.11071933136E+04  0.12317277166E+04  0.40000000000E+03 0.  1.
   -9000007    1    1    2    0  502 -0.33081095335E+03 -0.14778446217E+03  0.11249023932E+04  0.12476704406E+04  0.40000000000E+03 0. -1.
<mgrwt>
<rscale>  2 0.53970004E+03</rscale>
<asrwt>0</asrwt>
<pdfrwt beam="1">  1       21 0.36242257E+00 0.53970004E+03</pdfrwt>
<pdfrwt beam="2">  1       21 0.19023267E-01 0.53970004E+03</pdfrwt>
<totfact> 0.27502444E+02</totfact>
</mgrwt>
</event>
<event>
 4    1  0.4689683E-002  0.4084781E+03  0.7818608E-02  0.1040883E+00
         21   -1    0    0  501  502  0.00000000000E+00  0.00000000000E+00  0.25297049386E+03  0.25297049386E+03  0.00000000000E+00 0.  1.
         21   -1    0    0  502  503 -0.00000000000E+00 -0.00000000000E+00 -0.66253152061E+03  0.66253152061E+03  0.00000000000E+00 0. -1.
    9000007    1    1    2  501    0 -0.57043438883E+02 -0.60003210065E+02 -0.23533192378E+03  0.47141855446E+03  0.40000000000E+03 0. -1.
   -9000007    1    1    2    0  503  0.57043438883E+02  0.60003210065E+02 -0.17422910296E+03  0.44408346001E+03  0.40000000000E+03 0. -1.
<mgrwt>
<rscale>  2 0.40847808E+03</rscale>
<asrwt>0</asrwt>
<pdfrwt beam="1">  1       21 0.38918537E-01 0.40847808E+03</pdfrwt>
<pdfrwt beam="2">  1       21 0.10192793E+00 0.40847808E+03</pdfrwt>
<totfact> 0.44382065E+03</totfact>
</mgrwt>
</event>
<event>
 4    1  0.4689683E-002  0.4836507E+03  0.7818608E-02  0.1018137E+00
         21   -1    0    0  503  502  0.00000000000E+00  0.00000000000E+00  0.39126085121E+03  0.39126085121E+03  0.00000000000E+00 0.  1.
         21   -1    0    0  501  503 -0.00000000000E+00 -0.00000000000E+00 -0.11438218283E+04  0.11438218283E+04  0.00000000000E+00 0. -1.
    9000007    1    1    2  501    0 -0.26611682827E+03  0.55675832522E+02 -0.90656017886E+03  0.10275063613E+04  0.40000000000E+03 0. -1.
   -9000007    1    1    2    0  502  0.26611682827E+03 -0.55675832522E+02  0.15399920180E+03  0.50757631817E+03  0.40000000000E+03 0.  1.
<mgrwt>
<rscale>  2 0.48365066E+03</rscale>
<asrwt>0</asrwt>
<pdfrwt beam="1">  1       21 0.60193977E-01 0.48365066E+03</pdfrwt>
<pdfrwt beam="2">  1       21 0.17597259E+00 0.48365066E+03</pdfrwt>
<totfact> 0.40526105E+02</totfact>
</mgrwt>
</event>
<event>
 4    1  0.4689683E-002  0.4992084E+03  0.7818608E-02  0.1013986E+00
         21   -1    0    0  503  502  0.00000000000E+00  0.00000000000E+00  0.42320406550E+03  0.42320406550E+03  0.00000000000E+00 0. -1.
         21   -1    0    0  501  503 -0.00000000000E+00 -0.00000000000E+00 -0.72148923845E+03  0.72148923845E+03  0.00000000000E+00 0. -1.
    9000007    1    1    2  501    0 -0.22715751157E+03  0.19392912864E+03 -0.39453414321E+03  0.63629099644E+03  0.40000000000E+03 0. -1.
   -9000007    1    1    2    0  502  0.22715751157E+03 -0.19392912864E+03  0.96248970256E+02  0.50840230750E+03  0.40000000000E+03 0. -1.
<mgrwt>
<rscale>  2 0.49920842E+03</rscale>
<asrwt>0</asrwt>
<pdfrwt beam="1">  1       21 0.65108318E-01 0.49920842E+03</pdfrwt>
<pdfrwt beam="2">  1       21 0.11099834E+00 0.49920842E+03</pdfrwt>
<totfact> 0.11605032E+03</totfact>
</mgrwt>
</event>
<event>
 4    1  0.4689683E-002  0.4165443E+03  0.7818608E-02  0.1038197E+00
         21   -1    0    0  503  502  0.00000000000E+00  0.00000000000E+00  0.32621201261E+03  0.32621201261E+03  0.00000000000E+00 0. -1.
         21   -1    0    0  501  503 -0.00000000000E+00 -0.00000000000E+00 -0.66673135291E+03  0.66673135291E+03  0.00000000000E+00 0. -1.
    9000007    1    1    2  501    0 -0.10973843505E+03 -0.38297140400E+02 -0.39352905403E+03  0.57303953743E+03  0.40000000000E+03 0. -1.
   -9000007    1    1    2    0  502  0.10973843505E+03  0.38297140400E+02  0.53009713731E+02  0.41990382809E+03  0.40000000000E+03 0. -1.
<mgrwt>
<rscale>  2 0.41654435E+03</rscale>
<asrwt>0</asrwt>
<pdfrwt beam="1">  1       21 0.50186463E-01 0.41654435E+03</pdfrwt>
<pdfrwt beam="2">  1       21 0.10257405E+00 0.41654435E+03</pdfrwt>
<totfact> 0.25633898E+03</totfact>
</mgrwt>
</event>
<event>
 4    1  0.4689683E-002  0.4680947E+03  0.7818608E-02  0.1022459E+00
         21   -1    0    0  501  502  0.00000000000E+00  0.00000000000E+00  0.73047600402E+03  0.73047600402E+03  0.00000000000E+00 0. -1.
         21   -1    0    0  502  503 -0.00000000000E+00 -0.00000000000E+00 -0.35193268684E+03  0.35193268684E+03  0.00000000000E+00 0. -1.
    9000007    1    1    2  501    0  0.95017007738E+02 -0.22379552342E+03  0.39725295709E+03  0.61394020880E+03  0.40000000000E+03 0. -1.
   -9000007    1    1    2    0  503 -0.95017007738E+02  0.22379552342E+03 -0.18709639909E+02  0.46846848206E+03  0.40000000000E+03 0. -1.
<mgrwt>
<rscale>  2 0.46809472E+03</rscale>
<asrwt>0</asrwt>
<pdfrwt beam="1">  1       21 0.11238092E+00 0.46809472E+03</pdfrwt>
<pdfrwt beam="2">  1       21 0.54143491E-01 0.46809472E+03</pdfrwt>
<totfact> 0.17051206E+03</totfact>
</mgrwt>
</event>
<event>
 4    1  0.4689683E-002  0.5302218E+03  0.7818608E-02  0.1006178E+00
         21   -1    0    0  503  502  0.00000000000E+00  0.00000000000E+00  0.16322929798E+04  0.16322929798E+04  0.00000000000E+00 0. -1.
         21   -1    0    0  501  503 -0.00000000000E+00 -0.00000000000E+00 -0.33197386265E+03  0.33197386265E+03  0.00000000000E+00 0.  1.
    9000007    1    1    2  501    0 -0.96325102158E+02  0.33444979868E+03 -0.31121257778E+02  0.53113437644E+03  0.40000000000E+03 0.  1.
   -9000007    1    1    2    0  502  0.96325102158E+02 -0.33444979868E+03  0.13314403749E+04  0.14331324660E+04  0.40000000000E+03 0. -1.
<mgrwt>
<rscale>  2 0.53022183E+03</rscale>
<asrwt>0</asrwt>
<pdfrwt beam="1">  1       21 0.25112199E+00 0.53022183E+03</pdfrwt>
<pdfrwt beam="2">  1       21 0.51072903E-01 0.53022183E+03</pdfrwt>
<totfact> 0.18197129E+02</totfact>
</mgrwt>
</event>
<event>
 4    1  0.4689683E-002  0.5016225E+03  0.7818608E-02  0.1013356E+00
         21   -1    0    0  501  502  0.00000000000E+00  0.00000000000E+00  0.48059100655E+03  0.48059100655E+03  0.00000000000E+00 0.  1.
         21   -1    0    0  502  503 -0.00000000000E+00 -0.00000000000E+00 -0.75925057135E+03  0.75925057135E+03  0.00000000000E+00 0.  1.
    9000007    1    1    2  501    0 -0.26152209560E+03  0.15241826335E+03  0.20605365038E+03  0.54229442218E+03  0.40000000000E+03 0.  1.
   -9000007    1    1    2    0  503  0.26152209560E+03 -0.15241826335E+03 -0.48471321519E+03  0.69754715573E+03  0.40000000000E+03 0.  1.
<mgrwt>
<rscale>  2 0.50162250E+03</rscale>
<asrwt>0</asrwt>
<pdfrwt beam="1">  1       21 0.73937078E-01 0.50162250E+03</pdfrwt>
<pdfrwt beam="2">  1       21 0.11680778E+00 0.50162250E+03</pdfrwt>
<totfact> 0.76613190E+02</totfact>
</mgrwt>
</event>
<event>
 4    1  0.4689683E-002  0.4158006E+03  0.7818608E-02  0.1038442E+00
         21   -1    0    0  501  502  0.00000000000E+00  0.00000000000E+00  0.14425068250E+04  0.14425068250E+04  0.00000000000E+00 0.  1.
         21   -1    0    0  502  503 -0.00000000000E+00 -0.00000000000E+00 -0.12353420635E+03  0.12353420635E+03  0.00000000000E+00 0.  1.
    9000007    1    1    2  501    0 -0.81536881050E+02 -0.79005464446E+02  0.79463727547E+03  0.89684922142E+03  0.40000000000E+03 0.  1.
   -9000007    1    1    2    0  503  0.81536881050E+02  0.79005464446E+02  0.52433534319E+03  0.66919180995E+03  0.40000000000E+03 0.  1.
<mgrwt>
<rscale>  2 0.41580058E+03</rscale>
<asrwt>0</asrwt>
<pdfrwt beam="1">  1       21 0.22192412E+00 0.41580058E+03</pdfrwt>
<pdfrwt beam="2">  1       21 0.19005264E-01 0.41580058E+03</pdfrwt>
<totfact> 0.21220081E+03</totfact>
</mgrwt>
</event>
<event>
 4    1  0.4689683E-002  0.4737470E+03  0.7818608E-02  0.1020868E+00
         21   -1    0    0  501  502  0.00000000000E+00  0.00000000000E+00  0.91812530465E+03  0.91812530465E+03  0.00000000000E+00 0.  1.
         21   -1    0    0  502  503 -0.00000000000E+00 -0.00000000000E+00 -0.24454094242E+03  0.24454094242E+03  0.00000000000E+00 0. -1.
    9000007    1    1    2  501    0  0.58899455243E+02 -0.24691505026E+03  0.32561221816E+03  0.57485607285E+03  0.40000000000E+03 0.  1.
   -9000007    1    1    2    0  503 -0.58899455243E+02  0.24691505026E+03  0.34797214407E+03  0.58781017422E+03  0.40000000000E+03 0.  1.
<mgrwt>
<rscale>  2 0.47374697E+03</rscale>
<asrwt>0</asrwt>
<pdfrwt beam="1">  1       21 0.14125005E+00 0.47374697E+03</pdfrwt>
<pdfrwt beam="2">  1       21 0.37621684E-01 0.47374697E+03</pdfrwt>
<totfact> 0.20259337E+03</totfact>
</mgrwt>
</event>
<event>
 4    1  0.4689683E-002  0.6381526E+03  0.7818608E-02  0.9829268E-01
         21   -1    0    0  501  502  0.00000000000E+00  0.00000000000E+00  0.54159292597E+03  0.54159292597E+03  0.00000000000E+00 0. -1.
         21   -1    0    0  502  503 -0.00000000000E+00 -0.00000000000E+00 -0.78131476618E+03  0.78131476618E+03  0.00000000000E+00 0. -1.
    9000007    1    1    2  501    0 -0.47125436679E+03 -0.15861275824E+03  0.84209144398E+01  0.63820811425E+03  0.40000000000E+03 0. -1.
   -9000007    1    1    2    0  503  0.47125436679E+03  0.15861275824E+03 -0.24814275465E+03  0.68469957790E+03  0.40000000000E+03 0. -1.
<mgrwt>
<rscale>  2 0.63815256E+03</rscale>
<asrwt>0</asrwt>
<pdfrwt beam="1">  1       21 0.83321988E-01 0.63815256E+03</pdfrwt>
<pdfrwt beam="2">  1       21 0.12020227E+00 0.63815256E+03</pdfrwt>
<totfact> 0.51554571E+02</totfact>
</mgrwt>
</event>
<event>
 4    1  0.4689683E-002  0.6138883E+03  0.7818608E-02  0.9877004E-01
         21   -1    0    0  503  502  0.00000000000E+00  0.00000000000E+00  0.32957324734E+04  0.32957324734E+04  0.00000000000E+00 0.  1.
         21   -1    0    0  501  503 -0.00000000000E+00 -0.00000000000E+00 -0.30125337728E+03  0.30125337728E+03  0.00000000000E+00 0. -1.
    9000007    1    1    2  501    0  0.27814601771E+03  0.37348855038E+03  0.80616827785E+02  0.61915908889E+03  0.40000000000E+03 0. -1.
   -9000007    1    1    2    0  502 -0.27814601771E+03 -0.37348855038E+03  0.29138622683E+04  0.29778267617E+04  0.40000000000E+03 0.  1.
<mgrwt>
<rscale>  2 0.61388835E+03</rscale>
<asrwt>0</asrwt>
<pdfrwt beam="1">  1       21 0.50703574E+00 0.61388835E+03</pdfrwt>
<pdfrwt beam="2">  1       21 0.46346676E-01 0.61388835E+03</pdfrwt>
<totfact> 0.47686578E+00</totfact>
</mgrwt>
</event>
<event>
 4    1  0.4689683E-002  0.4274653E+03  0.7818608E-02  0.1034664E+00
         21   -1    0    0  501  502  0.00000000000E+00  0.00000000000E+00  0.55478278615E+03  0.55478278615E+03  0.00000000000E+00 0.  1.
         21   -1    0    0  502  503 -0.00000000000E+00 -0.00000000000E+00 -0.43488023969E+03  0.43488023969E+03  0.00000000000E+00 0.  1.
    9000007    1    1    2  501    0 -0.14982909828E+03  0.16668851204E+02  0.30369192441E+03  0.52436189244E+03  0.40000000000E+03 0.  1.
   -9000007    1    1    2    0  503  0.14982909828E+03 -0.16668851204E+02 -0.18378937795E+03  0.46530113340E+03  0.40000000000E+03 0.  1.
<mgrwt>
<rscale>  2 0.42746533E+03</rscale>
<asrwt>0</asrwt>
<pdfrwt beam="1">  1       21 0.85351198E-01 0.42746533E+03</pdfrwt>
<pdfrwt beam="2">  1       21 0.66904652E-01 0.42746533E+03</pdfrwt>
<totfact> 0.21173039E+03</totfact>
</mgrwt>
</event>
<event>
 4    1  0.4689683E-002  0.4134001E+03  0.7818608E-02  0.1039236E+00
         21   -1    0    0  503  502  0.00000000000E+00  0.00000000000E+00  0.20888703272E+03  0.20888703272E+03  0.00000000000E+00 0. -1.
         21   -1    0    0  501  503 -0.00000000000E+00 -0.00000000000E+00 -0.82100373886E+03  0.82100373886E+03  0.00000000000E+00 0.  1.
    9000007    1    1    2  501    0 -0.99122512813E+02 -0.32777742662E+02 -0.27566638009E+03  0.49688188342E+03  0.40000000000E+03 0. -1.
   -9000007    1    1    2    0  502  0.99122512813E+02  0.32777742662E+02 -0.33645032606E+03  0.53300888817E+03  0.40000000000E+03 0.  1.
<mgrwt>
<rscale>  2 0.41340011E+03</rscale>
<asrwt>0</asrwt>
<pdfrwt beam="1">  1       21 0.32136466E-01 0.41340011E+03</pdfrwt>
<pdfrwt beam="2">  1       21 0.12630827E+00 0.41340011E+03</pdfrwt>
<totfact> 0.38188928E+03</totfact>
</mgrwt>
</event>
<event>
 4    1  0.4689683E-002  0.4816296E+03  0.7818608E-02  0.1018688E+00
         21   -1    0    0  503  502  0.00000000000E+00  0.00000000000E+00  0.43278705666E+03  0.43278705666E+03  0.00000000000E+00 0. -1.
         21   -1    0    0  501  503 -0.00000000000E+00 -0.00000000000E+00 -0.56072673680E+03  0.56072673680E+03  0.00000000000E+00 0.  1.
    9000007    1    1    2  501    0  0.16103114482E+03 -0.21456006729E+03  0.40379527862E+02  0.48331931303E+03  0.40000000000E+03 0.  1.
   -9000007    1    1    2    0  502 -0.16103114482E+03  0.21456006729E+03 -0.16831920800E+03  0.51019448043E+03  0.40000000000E+03 0. -1.
<mgrwt>
<rscale>  2 0.48162958E+03</rscale>
<asrwt>0</asrwt>
<pdfrwt beam="1">  1       21 0.66582624E-01 0.48162958E+03</pdfrwt>
<pdfrwt beam="2">  1       21 0.86265652E-01 0.48162958E+03</pdfrwt>
<totfact> 0.20459710E+03</totfact>
</mgrwt>
</event>
<event>
 4    1  0.4689683E-002  0.7052960E+03  0.7818608E-02  0.9708218E-01
         21   -1    0    0  503  502  0.00000000000E+00  0.00000000000E+00  0.35467520577E+04  0.35467520577E+04  0.00000000000E+00 0.  1.
         21   -1    0    0  501  503 -0.00000000000E+00 -0.00000000000E+00 -0.14676495034E+03  0.14676495034E+03  0.00000000000E+00 0.  1.
    9000007    1    1    2  501    0  0.26803565546E+03  0.51536328260E+03  0.20889995218E+04  0.22048495249E+04  0.40000000000E+03 0.  1.
   -9000007    1    1    2    0  502 -0.26803565546E+03 -0.51536328260E+03  0.13109875855E+04  0.14886674831E+04  0.40000000000E+03 0.  1.
<mgrwt>
<rscale>  2 0.70529598E+03</rscale>
<asrwt>0</asrwt>
<pdfrwt beam="1">  1       21 0.54565410E+00 0.70529598E+03</pdfrwt>
<pdfrwt beam="2">  1       21 0.22579226E-01 0.70529598E+03</pdfrwt>
<totfact> 0.10134507E+01</totfact>
</mgrwt>
</event>
<event>
 4    1  0.4689683E-002  0.4720130E+03  0.7818608E-02  0.1021354E+00
         21   -1    0    0  503  502  0.00000000000E+00  0.00000000000E+00  0.43056593847E+03  0.43056593847E+03  0.00000000000E+00 0. -1.
         21   -1    0    0  501  503 -0.00000000000E+00 -0.00000000000E+00 -0.52692283584E+03  0.52692283584E+03  0.00000000000E+00 0.  1.
    9000007    1    1    2  501    0 -0.23269331125E+03  0.93005877380E+02 -0.11236945124E+03  0.48520424967E+03  0.40000000000E+03 0.  1.
   -9000007    1    1    2    0  502  0.23269331125E+03 -0.93005877380E+02  0.16012553878E+02  0.47228452464E+03  0.40000000000E+03 0. -1.
<mgrwt>
<rscale>  2 0.47201300E+03</rscale>
<asrwt>0</asrwt>
<pdfrwt beam="1">  1       21 0.66240914E-01 0.47201300E+03</pdfrwt>
<pdfrwt beam="2">  1       21 0.81065051E-01 0.47201300E+03</pdfrwt>
<totfact> 0.24011079E+03</totfact>
</mgrwt>
</event>
<event>
 4    1  0.4689683E-002  0.5330858E+03  0.7818608E-02  0.1005487E+00
         21   -1    0    0  503  502  0.00000000000E+00  0.00000000000E+00  0.11497621702E+03  0.11497621702E+03  0.00000000000E+00 0.  1.
         21   -1    0    0  501  503 -0.00000000000E+00 -0.00000000000E+00 -0.24751975645E+04  0.24751975645E+04  0.00000000000E+00 0.  1.
    9000007    1    1    2  501    0  0.34678564408E+03  0.62611468329E+02 -0.11310516726E+04  0.12503832873E+04  0.40000000000E+03 0.  1.
   -9000007    1    1    2    0  502 -0.34678564408E+03 -0.62611468329E+02 -0.12291696749E+04  0.13397904943E+04  0.40000000000E+03 0.  1.
<mgrwt>
<rscale>  2 0.53308581E+03</rscale>
<asrwt>0</asrwt>
<pdfrwt beam="1">  1       21 0.17688650E-01 0.53308581E+03</pdfrwt>
<pdfrwt beam="2">  1       21 0.38079960E+00 0.53308581E+03</pdfrwt>
<totfact> 0.24279593E+02</totfact>
</mgrwt>
</event>
<event>
 4    1  0.4689683E-002  0.7297779E+03  0.7818608E-02  0.9667621E-01
         21   -1    0    0  503  502  0.00000000000E+00  0.00000000000E+00  0.13930645694E+04  0.13930645694E+04  0.00000000000E+00 0.  1.
         21   -1    0    0  501  503 -0.00000000000E+00 -0.00000000000E+00 -0.49341165070E+03  0.49341165070E+03  0.00000000000E+00 0.  1.
    9000007    1    1    2  501    0 -0.59190317613E+03 -0.14908504823E+03  0.22302219869E+01  0.72978126545E+03  0.40000000000E+03 0.  1.
   -9000007    1    1    2    0  502  0.59190317613E+03  0.14908504823E+03  0.89742269673E+03  0.11566949547E+04  0.40000000000E+03 0.  1.
<mgrwt>
<rscale>  2 0.72977786E+03</rscale>
<asrwt>0</asrwt>
<pdfrwt beam="1">  1       21 0.21431763E+00 0.72977786E+03</pdfrwt>
<pdfrwt beam="2">  1       21 0.75909485E-01 0.72977786E+03</pdfrwt>
<totfact> 0.11940233E+02</totfact>
</mgrwt>
</event>
<event>
 4    1  0.4689683E-002  0.4545655E+03  0.7818608E-02  0.1026369E+00
         21   -1    0    0  503  502  0.00000000000E+00  0.00000000000E+00  0.13122855002E+04  0.13122855002E+04  0.00000000000E+00 0. -1.
         21   -1    0    0  501  503 -0.00000000000E+00 -0.00000000000E+00 -0.22987715321E+03  0.22987715321E+03  0.00000000000E+00 0. -1.
    9000007    1    1    2  501    0 -0.20669282462E+03  0.62512704318E+02  0.10841219398E+03  0.46731463250E+03  0.40000000000E+03 0. -1.
   -9000007    1    1    2    0  502  0.20669282462E+03 -0.62512704318E+02  0.97399615297E+03  0.10748480209E+04  0.40000000000E+03 0. -1.
<mgrwt>
<rscale>  2 0.45456546E+03</rscale>
<asrwt>0</asrwt>
<pdfrwt beam="1">  1       21 0.20189007E+00 0.45456546E+03</pdfrwt>
<pdfrwt beam="2">  1       21 0.35365717E-01 0.45456546E+03</pdfrwt>
<totfact> 0.83487393E+02</totfact>
</mgrwt>
</event>
<event>
 4    1  0.4689683E-002  0.5460701E+03  0.7818608E-02  0.1002408E+00
         21   -1    0    0  501  502  0.00000000000E+00  0.00000000000E+00  0.75953442151E+03  0.75953442151E+03  0.00000000000E+00 0. -1.
         21   -1    0    0  502  503 -0.00000000000E+00 -0.00000000000E+00 -0.66349246138E+03  0.66349246138E+03  0.00000000000E+00 0. -1.
    9000007    1    1    2  501    0  0.16314694200E+03  0.33402944511E+03  0.50265740239E+03  0.74219745288E+03  0.40000000000E+03 0. -1.
   -9000007    1    1    2    0  503 -0.16314694200E+03 -0.33402944511E+03 -0.40661544226E+03  0.68082943001E+03  0.40000000000E+03 0. -1.
<mgrwt>
<rscale>  2 0.54607014E+03</rscale>
<asrwt>0</asrwt>
<pdfrwt beam="1">  1       21 0.11685145E+00 0.54607014E+03</pdfrwt>
<pdfrwt beam="2">  1       21 0.10207576E+00 0.54607014E+03</pdfrwt>
<totfact> 0.35136354E+02</totfact>
</mgrwt>
</event>
<event>
 4    1  0.4689683E-002  0.6445111E+03  0.7818608E-02  0.9817134E-01
         21   -1    0    0  501  502  0.00000000000E+00  0.00000000000E+00  0.74923007571E+03  0.74923007571E+03  0.00000000000E+00 0. -1.
         21   -1    0    0  502  503 -0.00000000000E+00 -0.00000000000E+00 -0.58389328108E+03  0.58389328108E+03  0.00000000000E+00 0. -1.
    9000007    1    1    2  501    0  0.40234614770E+03 -0.30579758602E+03 -0.67066984265E+02  0.64799117784E+03  0.40000000000E+03 0. -1.
   -9000007    1    1    2    0  503 -0.40234614770E+03  0.30579758602E+03  0.23240377890E+03  0.68513217895E+03  0.40000000000E+03 0. -1.
<mgrwt>
<rscale>  2 0.64451112E+03</rscale>
<asrwt>0</asrwt>
<pdfrwt beam="1">  1       21 0.11526617E+00 0.64451112E+03</pdfrwt>
<pdfrwt beam="2">  1       21 0.89829736E-01 0.64451112E+03</pdfrwt>
<totfact> 0.47908642E+02</totfact>
</mgrwt>
</event>
<event>
 4    1  0.4689683E-002  0.4085830E+03  0.7818608E-02  0.1040848E+00
         21   -1    0    0  501  502  0.00000000000E+00  0.00000000000E+00  0.31250704342E+03  0.31250704342E+03  0.00000000000E+00 0.  1.
         21   -1    0    0  502  503 -0.00000000000E+00 -0.00000000000E+00 -0.56972325878E+03  0.56972325878E+03  0.00000000000E+00 0.  1.
    9000007    1    1    2  501    0 -0.11341863372E+02 -0.82531539940E+02 -0.18454359968E+02  0.40899957989E+03  0.40000000000E+03 0.  1.
   -9000007    1    1    2    0  503  0.11341863372E+02  0.82531539940E+02 -0.23876185538E+03  0.47323072231E+03  0.40000000000E+03 0.  1.
<mgrwt>
<rscale>  2 0.40858303E+03</rscale>
<asrwt>0</asrwt>
<pdfrwt beam="1">  1       21 0.48078007E-01 0.40858303E+03</pdfrwt>
<pdfrwt beam="2">  1       21 0.87649732E-01 0.40858303E+03</pdfrwt>
<totfact> 0.41021549E+03</totfact>
</mgrwt>
</event>
<event>
 4    1  0.4689683E-002  0.4117276E+03  0.7818608E-02  0.1039793E+00
         21   -1    0    0  501  502  0.00000000000E+00  0.00000000000E+00  0.10900400147E+04  0.10900400147E+04  0.00000000000E+00 0. -1.
         21   -1    0    0  502  503 -0.00000000000E+00 -0.00000000000E+00 -0.17505896331E+03  0.17505896331E+03  0.00000000000E+00 0.  1.
    9000007    1    1    2  501    0 -0.97469343482E+02  0.43959164203E+01  0.66883359964E+03  0.78540306913E+03  0.40000000000E+03 0. -1.
   -9000007    1    1    2    0  503  0.97469343482E+02 -0.43959164203E+01  0.24614745177E+03  0.47969590890E+03  0.40000000000E+03 0.  1.
<mgrwt>
<rscale>  2 0.41172758E+03</rscale>
<asrwt>0</asrwt>
<pdfrwt beam="1">  1       21 0.16769846E+00 0.41172758E+03</pdfrwt>
<pdfrwt beam="2">  1       21 0.26932149E-01 0.41172758E+03</pdfrwt>
<totfact> 0.25308650E+03</totfact>
</mgrwt>
</event>
<event>
 4    1  0.4689683E-002  0.4247306E+03  0.7818608E-02  0.1035538E+00
         21   -1    0    0  503  502  0.00000000000E+00  0.00000000000E+00  0.56056301225E+03  0.56056301225E+03  0.00000000000E+00 0.  1.
         21   -1    0    0  501  503 -0.00000000000E+00 -0.00000000000E+00 -0.35956358403E+03  0.35956358403E+03  0.00000000000E+00 0.  1.
    9000007    1    1    2  501    0  0.11554547371E+03  0.83936261356E+02 -0.48572192215E+02  0.42749890096E+03  0.40000000000E+03 0.  1.
   -9000007    1    1    2    0  502 -0.11554547371E+03 -0.83936261356E+02  0.24957162044E+03  0.49262769532E+03  0.40000000000E+03 0.  1.
<mgrwt>
<rscale>  2 0.42473056E+03</rscale>
<asrwt>0</asrwt>
<pdfrwt beam="1">  1       21 0.86240463E-01 0.42473056E+03</pdfrwt>
<pdfrwt beam="2">  1       21 0.55317474E-01 0.42473056E+03</pdfrwt>
<totfact> 0.31400228E+03</totfact>
</mgrwt>
</event>
<event>
 4    1  0.4689683E-002  0.5280087E+03  0.7818608E-02  0.1006716E+00
         21   -1    0    0  503  502  0.00000000000E+00  0.00000000000E+00  0.50884303939E+03  0.50884303939E+03  0.00000000000E+00 0.  1.
         21   -1    0    0  501  503 -0.00000000000E+00 -0.00000000000E+00 -0.78681423206E+03  0.78681423206E+03  0.00000000000E+00 0.  1.
    9000007    1    1    2  501    0  0.20922224960E+03  0.27389644538E+03 -0.49596932543E+03  0.72441616788E+03  0.40000000000E+03 0.  1.
   -9000007    1    1    2    0  502 -0.20922224960E+03 -0.27389644538E+03  0.21799813276E+03  0.57124110357E+03  0.40000000000E+03 0.  1.
<mgrwt>
<rscale>  2 0.52800872E+03</rscale>
<asrwt>0</asrwt>
<pdfrwt beam="1">  1       21 0.78283545E-01 0.52800872E+03</pdfrwt>
<pdfrwt beam="2">  1       21 0.12104834E+00 0.52800872E+03</pdfrwt>
<totfact> 0.60772612E+02</totfact>
</mgrwt>
</event>
<event>
 4    1  0.4689683E-002  0.4610920E+03  0.7818608E-02  0.1024465E+00
         21   -1    0    0  503  502  0.00000000000E+00  0.00000000000E+00  0.31920494956E+03  0.31920494956E+03  0.00000000000E+00 0.  1.
         21   -1    0    0  501  503 -0.00000000000E+00 -0.00000000000E+00 -0.76099845384E+03  0.76099845384E+03  0.00000000000E+00 0.  1.
    9000007    1    1    2  501    0  0.22673736748E+03 -0.34582866513E+02 -0.41167649140E+03  0.61812890406E+03  0.40000000000E+03 0.  1.
   -9000007    1    1    2    0  502 -0.22673736748E+03  0.34582866513E+02 -0.30117012879E+02  0.46207449933E+03  0.40000000000E+03 0.  1.
<mgrwt>
<rscale>  2 0.46109197E+03</rscale>
<asrwt>0</asrwt>
<pdfrwt beam="1">  1       21 0.49108455E-01 0.46109197E+03</pdfrwt>
<pdfrwt beam="2">  1       21 0.11707668E+00 0.46109197E+03</pdfrwt>
<totfact> 0.19014231E+03</totfact>
</mgrwt>
</event>
<event>
 4    1  0.4689683E-002  0.1005172E+04  0.7818608E-02  0.9302891E-01
         21   -1    0    0  503  502  0.00000000000E+00  0.00000000000E+00  0.55663272807E+03  0.55663272807E+03  0.00000000000E+00 0. -1.
         21   -1    0    0  501  503 -0.00000000000E+00 -0.00000000000E+00 -0.20221428728E+04  0.20221428728E+04  0.00000000000E+00 0.  1.
    9000007    1    1    2  501    0  0.49339395900E+03 -0.77905862193E+03 -0.11452883908E+04  0.15238292009E+04  0.40000000000E+03 0.  1.
   -9000007    1    1    2    0  502 -0.49339395900E+03  0.77905862193E+03 -0.32022175384E+03  0.10549464000E+04  0.40000000000E+03 0. -1.
<mgrwt>
<rscale>  2 0.10051716E+04</rscale>
<asrwt>0</asrwt>
<pdfrwt beam="1">  1       21 0.85635805E-01 0.10051716E+04</pdfrwt>
<pdfrwt beam="2">  1       21 0.31109890E+00 0.10051716E+04</pdfrwt>
<totfact> 0.20237657E+01</totfact>
</mgrwt>
</event>
<event>
 4    1  0.4689683E-002  0.4146529E+03  0.7818608E-02  0.1038821E+00
         21   -1    0    0  501  502  0.00000000000E+00  0.00000000000E+00  0.19910913162E+04  0.19910913162E+04  0.00000000000E+00 0. -1.
         21   -1    0    0  502  503 -0.00000000000E+00 -0.00000000000E+00 -0.99919101162E+02  0.99919101162E+02  0.00000000000E+00 0. -1.
    9000007    1    1    2  501    0 -0.10397707580E+03 -0.33552765551E+02  0.13308221914E+04  0.13939242180E+04  0.40000000000E+03 0. -1.
   -9000007    1    1    2    0  503  0.10397707580E+03  0.33552765551E+02  0.56035002364E+03  0.69708619938E+03  0.40000000000E+03 0. -1.
<mgrwt>
<rscale>  2 0.41465289E+03</rscale>
<asrwt>0</asrwt>
<pdfrwt beam="1">  1       21 0.30632171E+00 0.41465289E+03</pdfrwt>
<pdfrwt beam="2">  1       21 0.15372171E-01 0.41465289E+03</pdfrwt>
<totfact> 0.96712662E+02</totfact>
</mgrwt>
</event>
<event>
 4    1  0.4689683E-002  0.4992712E+03  0.7818608E-02  0.1013969E+00
         21   -1    0    0  501  502  0.00000000000E+00  0.00000000000E+00  0.14024483264E+04  0.14024483264E+04  0.00000000000E+00 0.  1.
         21   -1    0    0  502  503 -0.00000000000E+00 -0.00000000000E+00 -0.26289953917E+03  0.26289953917E+03  0.00000000000E+00 0. -1.
    9000007    1    1    2  501    0 -0.30914153040E+02 -0.29718022907E+03  0.10436840989E+04  0.11569564693E+04  0.40000000000E+03 0.  1.
   -9000007    1    1    2    0  503  0.30914153040E+02  0.29718022907E+03  0.95864688336E+02  0.50839139634E+03  0.40000000000E+03 0. -1.
<mgrwt>
<rscale>  2 0.49927124E+03</rscale>
<asrwt>0</asrwt>
<pdfrwt beam="1">  1       21 0.21576128E+00 0.49927124E+03</pdfrwt>
<pdfrwt beam="2">  1       21 0.40446084E-01 0.49927124E+03</pdfrwt>
<totfact> 0.50403774E+02</totfact>
</mgrwt>
</event>
<event>
 4    1  0.4689683E-002  0.4996690E+03  0.7818608E-02  0.1013865E+00
         21   -1    0    0  503  502  0.00000000000E+00  0.00000000000E+00  0.24216694403E+04  0.24216694403E+04  0.00000000000E+00 0. -1.
         21   -1    0    0  501  503 -0.00000000000E+00 -0.00000000000E+00 -0.19186441718E+03  0.19186441718E+03  0.00000000000E+00 0. -1.
    9000007    1    1    2  501    0  0.29409372856E+03 -0.56373878972E+02  0.22605880226E+03  0.54842658349E+03  0.40000000000E+03 0.  1.
   -9000007    1    1    2    0  502 -0.29409372856E+03  0.56373878972E+02  0.20037462209E+04  0.20651072740E+04  0.40000000000E+03 0.  1.
<mgrwt>
<rscale>  2 0.49966903E+03</rscale>
<asrwt>0</asrwt>
<pdfrwt beam="1">  1       21 0.37256451E+00 0.49966903E+03</pdfrwt>
<pdfrwt beam="2">  1       21 0.29517604E-01 0.49966903E+03</pdfrwt>
<totfact> 0.10352706E+02</totfact>
</mgrwt>
</event>
<event>
 4    1  0.4689683E-002  0.6605333E+03  0.7818608E-02  0.9787213E-01
         21   -1    0    0  503  502  0.00000000000E+00  0.00000000000E+00  0.36272284399E+03  0.36272284399E+03  0.00000000000E+00 0.  1.
         21   -1    0    0  501  503 -0.00000000000E+00 -0.00000000000E+00 -0.12526139282E+04  0.12526139282E+04  0.00000000000E+00 0. -1.
    9000007    1    1    2  501    0  0.40166501799E+03  0.33907136682E+03 -0.28397528675E+03  0.71898966749E+03  0.40000000000E+03 0.  1.
   -9000007    1    1    2    0  502 -0.40166501799E+03 -0.33907136682E+03 -0.60591579742E+03  0.89634710467E+03  0.40000000000E+03 0.  1.
<mgrwt>
<rscale>  2 0.66053325E+03</rscale>
<asrwt>0</asrwt>
<pdfrwt beam="1">  1       21 0.55803515E-01 0.66053325E+03</pdfrwt>
<pdfrwt beam="2">  1       21 0.19270983E+00 0.66053325E+03</pdfrwt>
<totfact> 0.34097932E+02</totfact>
</mgrwt>
</event>
<event>
 4    1  0.4689683E-002  0.4036935E+03  0.7818608E-02  0.1042508E+00
         21   -1    0    0  501  502  0.00000000000E+00  0.00000000000E+00  0.43716655758E+03  0.43716655758E+03  0.00000000000E+00 0.  1.
         21   -1    0    0  502  503 -0.00000000000E+00 -0.00000000000E+00 -0.46003150335E+03  0.46003150335E+03  0.00000000000E+00 0.  1.
    9000007    1    1    2  501    0  0.49537993420E+02 -0.22680440342E+02 -0.20679562693E+03  0.45357782848E+03  0.40000000000E+03 0. -1.
   -9000007    1    1    2    0  503 -0.49537993420E+02  0.22680440342E+02  0.18393068116E+03  0.44362023245E+03  0.40000000000E+03 0. -1.
<mgrwt>
<rscale>  2 0.40369347E+03</rscale>
<asrwt>0</asrwt>
<pdfrwt beam="1">  1       21 0.67256394E-01 0.40369347E+03</pdfrwt>
<pdfrwt beam="2">  1       21 0.70774077E-01 0.40369347E+03</pdfrwt>
<totfact> 0.32454727E+03</totfact>
</mgrwt>
</event>
<event>
 4    1  0.4689683E-002  0.4542076E+03  0.7818608E-02  0.1026475E+00
         21   -1    0    0  503  502  0.00000000000E+00  0.00000000000E+00  0.14280847022E+03  0.14280847022E+03  0.00000000000E+00 0. -1.
         21   -1    0    0  501  503 -0.00000000000E+00 -0.00000000000E+00 -0.19174214010E+04  0.19174214010E+04  0.00000000000E+00 0. -1.
    9000007    1    1    2  501    0  0.20049756164E+03 -0.78136227966E+02 -0.13988286136E+04  0.14707229626E+04  0.40000000000E+03 0. -1.
   -9000007    1    1    2    0  502 -0.20049756164E+03  0.78136227966E+02 -0.37578431721E+03  0.58950690870E+03  0.40000000000E+03 0. -1.
<mgrwt>
<rscale>  2 0.45420760E+03</rscale>
<asrwt>0</asrwt>
<pdfrwt beam="1">  1       21 0.21970533E-01 0.45420760E+03</pdfrwt>
<pdfrwt beam="2">  1       21 0.29498792E+00 0.45420760E+03</pdfrwt>
<totfact> 0.56367614E+02</totfact>
</mgrwt>
</event>
<event>
 4    1  0.4689683E-002  0.4451968E+03  0.7818608E-02  0.1029164E+00
         21   -1    0    0  501  502  0.00000000000E+00  0.00000000000E+00  0.24487228809E+03  0.24487228809E+03  0.00000000000E+00 0.  1.
         21   -1    0    0  502  503 -0.00000000000E+00 -0.00000000000E+00 -0.85969973627E+03  0.85969973627E+03  0.00000000000E+00 0.  1.
    9000007    1    1    2  501    0  0.17311527562E+03 -0.90726524301E+02 -0.17382695806E+03  0.47792887778E+03  0.40000000000E+03 0.  1.
   -9000007    1    1    2    0  503 -0.17311527562E+03  0.90726524301E+02 -0.44100049012E+03  0.62664314658E+03  0.40000000000E+03 0.  1.
<mgrwt>
<rscale>  2 0.44519681E+03</rscale>
<asrwt>0</asrwt>
<pdfrwt beam="1">  1       21 0.37672660E-01 0.44519681E+03</pdfrwt>
<pdfrwt beam="2">  1       21 0.13226150E+00 0.44519681E+03</pdfrwt>
<totfact> 0.24289787E+03</totfact>
</mgrwt>
</event>
<event>
 4    1  0.4689683E-002  0.5879870E+03  0.7818608E-02  0.9930647E-01
         21   -1    0    0  503  502  0.00000000000E+00  0.00000000000E+00  0.37580010344E+03  0.37580010344E+03  0.00000000000E+00 0. -1.
         21   -1    0    0  501  503 -0.00000000000E+00 -0.00000000000E+00 -0.96344444387E+03  0.96344444387E+03  0.00000000000E+00 0. -1.
    9000007    1    1    2  501    0 -0.19321218823E+03  0.38522429396E+03 -0.43604912972E+03  0.73202974657E+03  0.40000000000E+03 0. -1.
   -9000007    1    1    2    0  502  0.19321218823E+03 -0.38522429396E+03 -0.15159521071E+03  0.60721480075E+03  0.40000000000E+03 0. -1.
<mgrwt>
<rscale>  2 0.58798700E+03</rscale>
<asrwt>0</asrwt>
<pdfrwt beam="1">  1       21 0.57815401E-01 0.58798700E+03</pdfrwt>
<pdfrwt beam="2">  1       21 0.14822222E+00 0.58798700E+03</pdfrwt>
<totfact> 0.68884876E+02</totfact>
</mgrwt>
</event>
<event>
 4    1  0.4689683E-002  0.4810609E+03  0.7818608E-02  0.1018844E+00
         21   -1    0    0  501  502  0.00000000000E+00  0.00000000000E+00  0.12666849562E+04  0.12666849562E+04  0.00000000000E+00 0. -1.
         21   -1    0    0  502  503 -0.00000000000E+00 -0.00000000000E+00 -0.20018696711E+03  0.20018696711E+03  0.00000000000E+00 0. -1.
    9000007    1    1    2  501    0  0.22003020134E+03  0.15167821579E+03  0.75003862769E+03  0.89105415867E+03  0.40000000000E+03 0. -1.
   -9000007    1    1    2    0  503 -0.22003020134E+03 -0.15167821579E+03  0.31645936138E+03  0.57581776462E+03  0.40000000000E+03 0. -1.
<mgrwt>
<rscale>  2 0.48106088E+03</rscale>
<asrwt>0</asrwt>
<pdfrwt beam="1">  1       21 0.19487460E+00 0.48106088E+03</pdfrwt>
<pdfrwt beam="2">  1       21 0.30797996E-01 0.48106088E+03</pdfrwt>
<totfact> 0.12144615E+03</totfact>
</mgrwt>
</event>
<event>
 4    1  0.4689683E-002  0.4038646E+03  0.7818608E-02  0.1042450E+00
         21   -1    0    0  503  502  0.00000000000E+00  0.00000000000E+00  0.17040405534E+04  0.17040405534E+04  0.00000000000E+00 0. -1.
         21   -1    0    0  501  503 -0.00000000000E+00 -0.00000000000E+00 -0.12161927530E+03  0.12161927530E+03  0.00000000000E+00 0. -1.
    9000007    1    1    2  501    0  0.53570133153E+02  0.15389621031E+02  0.36994800183E+03  0.54769345775E+03  0.40000000000E+03 0.  1.
   -9000007    1    1    2    0  502 -0.53570133153E+02 -0.15389621031E+02  0.12124732763E+04  0.12779663709E+04  0.40000000000E+03 0.  1.
<mgrwt>
<rscale>  2 0.40386458E+03</rscale>
<asrwt>0</asrwt>
<pdfrwt beam="1">  1       21 0.26216007E+00 0.40386458E+03</pdfrwt>
<pdfrwt beam="2">  1       21 0.18710659E-01 0.40386458E+03</pdfrwt>
<totfact> 0.12407480E+03</totfact>
</mgrwt>
</event>
<event>
 4    1  0.4689683E-002  0.6124618E+03  0.7818608E-02  0.9879884E-01
         21   -1    0    0  501  502  0.00000000000E+00  0.00000000000E+00  0.17237060355E+04  0.17237060355E+04  0.00000000000E+00 0.  1.
         21   -1    0    0  502  503 -0.00000000000E+00 -0.00000000000E+00 -0.23829768759E+03  0.23829768759E+03  0.00000000000E+00 0.  1.
    9000007    1    1    2  501    0 -0.46368291536E+03  0.10372132707E+02  0.10316937013E+04  0.11997921988E+04  0.40000000000E+03 0.  1.
   -9000007    1    1    2    0  503  0.46368291536E+03 -0.10372132707E+02  0.45371464665E+03  0.76221152426E+03  0.40000000000E+03 0.  1.
<mgrwt>
<rscale>  2 0.61246178E+03</rscale>
<asrwt>0</asrwt>
<pdfrwt beam="1">  1       21 0.26518554E+00 0.61246178E+03</pdfrwt>
<pdfrwt beam="2">  1       21 0.36661184E-01 0.61246178E+03</pdfrwt>
<totfact> 0.28774508E+02</totfact>
</mgrwt>
</event>
<event>
 4    1  0.4689683E-002  0.4076302E+03  0.7818608E-02  0.1041169E+00
         21   -1    0    0  501  502  0.00000000000E+00  0.00000000000E+00  0.46209026524E+03  0.46209026524E+03  0.00000000000E+00 0. -1.
         21   -1    0    0  502  503 -0.00000000000E+00 -0.00000000000E+00 -0.36759822008E+03  0.36759822008E+03  0.00000000000E+00 0. -1.
    9000007    1    1    2  501    0  0.66357630656E+02  0.41940529314E+02  0.10848207211E+03  0.42181832952E+03  0.40000000000E+03 0. -1.
   -9000007    1    1    2    0  503 -0.66357630656E+02 -0.41940529314E+02 -0.13990026957E+02  0.40787015581E+03  0.40000000000E+03 0. -1.
<mgrwt>
<rscale>  2 0.40763015E+03</rscale>
<asrwt>0</asrwt>
<pdfrwt beam="1">  1       21 0.71090810E-01 0.40763015E+03</pdfrwt>
<pdfrwt beam="2">  1       21 0.56553573E-01 0.40763015E+03</pdfrwt>
<totfact> 0.46950191E+03</totfact>
</mgrwt>
</event>
<event>
 4    1  0.4689683E-002  0.6265341E+03  0.7818608E-02  0.9851836E-01
         21   -1    0    0  501  502  0.00000000000E+00  0.00000000000E+00  0.84252964707E+03  0.84252964707E+03  0.00000000000E+00 0.  1.
         21   -1    0    0  502  503 -0.00000000000E+00 -0.00000000000E+00 -0.58513339549E+03  0.58513339549E+03  0.00000000000E+00 0.  1.
    9000007    1    1    2  501    0 -0.41474624472E+02 -0.48044227574E+03  0.45091244372E+03  0.77192419103E+03  0.40000000000E+03 0.  1.
   -9000007    1    1    2    0  503  0.41474624472E+02  0.48044227574E+03 -0.19351619213E+03  0.65573885154E+03  0.40000000000E+03 0.  1.
<mgrwt>
<rscale>  2 0.62653406E+03</rscale>
<asrwt>0</asrwt>
<pdfrwt beam="1">  1       21 0.12961995E+00 0.62653406E+03</pdfrwt>
<pdfrwt beam="2">  1       21 0.90020523E-01 0.62653406E+03</pdfrwt>
<totfact> 0.35420534E+02</totfact>
</mgrwt>
</event>
<event>
 4    1  0.4689683E-002  0.4911757E+03  0.7818608E-02  0.1016108E+00
         21   -1    0    0  503  502  0.00000000000E+00  0.00000000000E+00  0.13496203402E+04  0.13496203402E+04  0.00000000000E+00 0. -1.
         21   -1    0    0  501  503 -0.00000000000E+00 -0.00000000000E+00 -0.43931618972E+03  0.43931618972E+03  0.00000000000E+00 0. -1.
    9000007    1    1    2  501    0 -0.89705259194E+02  0.27056714883E+03 -0.23370610313E+03  0.54394131871E+03  0.40000000000E+03 0. -1.
   -9000007    1    1    2    0  502  0.89705259194E+02 -0.27056714883E+03  0.11440102536E+04  0.12449952112E+04  0.40000000000E+03 0. -1.
<mgrwt>
<rscale>  2 0.49117575E+03</rscale>
<asrwt>0</asrwt>
<pdfrwt beam="1">  1       21 0.20763390E+00 0.49117575E+03</pdfrwt>
<pdfrwt beam="2">  1       21 0.67587107E-01 0.49117575E+03</pdfrwt>
<totfact> 0.18958681E+02</totfact>
</mgrwt>
</event>
<event>
 4    1  0.4689683E-002  0.5424205E+03  0.7818608E-02  0.1003264E+00
         21   -1    0    0  503  502  0.00000000000E+00  0.00000000000E+00  0.45829332747E+03  0.45829332747E+03  0.00000000000E+00 0.  1.
         21   -1    0    0  501  503 -0.00000000000E+00 -0.00000000000E+00 -0.95527747418E+03  0.95527747418E+03  0.00000000000E+00 0.  1.
    9000007    1    1    2  501    0  0.35116444804E+03 -0.10442016175E+03 -0.65324859396E+03  0.84908996299E+03  0.40000000000E+03 0.  1.
   -9000007    1    1    2    0  502 -0.35116444804E+03  0.10442016175E+03  0.15626444724E+03  0.56448083866E+03  0.40000000000E+03 0.  1.
<mgrwt>
<rscale>  2 0.54242054E+03</rscale>
<asrwt>0</asrwt>
<pdfrwt beam="1">  1       21 0.70506665E-01 0.54242054E+03</pdfrwt>
<pdfrwt beam="2">  1       21 0.14696577E+00 0.54242054E+03</pdfrwt>
<totfact> 0.46062549E+02</totfact>
</mgrwt>
</event>
<event>
 4    1  0.4689683E-002  0.5717411E+03  0.7818608E-02  0.9965833E-01
         21   -1    0    0  503  502  0.00000000000E+00  0.00000000000E+00  0.44974036408E+03  0.44974036408E+03  0.00000000000E+00 0. -1.
         21   -1    0    0  501  503 -0.00000000000E+00 -0.00000000000E+00 -0.98891970227E+03  0.98891970227E+03  0.00000000000E+00 0. -1.
    9000007    1    1    2  501    0 -0.29174484967E+03 -0.28595955962E+03 -0.63990089330E+03  0.85811484097E+03  0.40000000000E+03 0. -1.
   -9000007    1    1    2    0  502  0.29174484967E+03  0.28595955962E+03  0.10072155511E+03  0.58054522538E+03  0.40000000000E+03 0. -1.
<mgrwt>
<rscale>  2 0.57174114E+03</rscale>
<asrwt>0</asrwt>
<pdfrwt beam="1">  1       21 0.69190825E-01 0.57174114E+03</pdfrwt>
<pdfrwt beam="2">  1       21 0.15214149E+00 0.57174114E+03</pdfrwt>
<totfact> 0.43255008E+02</totfact>
</mgrwt>
</event>
<event>
 4    1  0.4689683E-002  0.4020439E+03  0.7818608E-02  0.1043074E+00
         21   -1    0    0  503  502  0.00000000000E+00  0.00000000000E+00  0.13283940727E+03  0.13283940727E+03  0.00000000000E+00 0. -1.
         21   -1    0    0  501  503 -0.00000000000E+00 -0.00000000000E+00 -0.12444572787E+04  0.12444572787E+04  0.00000000000E+00 0. -1.
    9000007    1    1    2  501    0 -0.21143942003E+02 -0.34529198237E+02 -0.45315110686E+03  0.60579308139E+03  0.40000000000E+03 0. -1.
   -9000007    1    1    2    0  502  0.21143942003E+02  0.34529198237E+02 -0.65846676453E+03  0.77150360454E+03  0.40000000000E+03 0. -1.
<mgrwt>
<rscale>  2 0.40204394E+03</rscale>
<asrwt>0</asrwt>
<pdfrwt beam="1">  1       21 0.20436833E-01 0.40204394E+03</pdfrwt>
<pdfrwt beam="2">  1       21 0.19145496E+00 0.40204394E+03</pdfrwt>
<totfact> 0.29465749E+03</totfact>
</mgrwt>
</event>
<event>
 4    1  0.4689683E-002  0.7640349E+03  0.7818608E-02  0.9613586E-01
         21   -1    0    0  503  502  0.00000000000E+00  0.00000000000E+00  0.60868126627E+03  0.60868126627E+03  0.00000000000E+00 0. -1.
         21   -1    0    0  501  503 -0.00000000000E+00 -0.00000000000E+00 -0.12040849596E+04  0.12040849596E+04  0.00000000000E+00 0.  1.
    9000007    1    1    2  501    0  0.50099219012E+03  0.41563945473E+03 -0.70659198585E+03  0.10406832205E+04  0.40000000000E+03 0.  1.
   -9000007    1    1    2    0  502 -0.50099219012E+03 -0.41563945473E+03  0.11118829249E+03  0.77208300543E+03  0.40000000000E+03 0. -1.
<mgrwt>
<rscale>  2 0.76403490E+03</rscale>
<asrwt>0</asrwt>
<pdfrwt beam="1">  1       21 0.93643273E-01 0.76403490E+03</pdfrwt>
<pdfrwt beam="2">  1       21 0.18524384E+00 0.76403490E+03</pdfrwt>
<totfact> 0.11345733E+02</totfact>
</mgrwt>
</event>
<event>
 4    1  0.4689683E-002  0.4016854E+03  0.7818608E-02  0.1043198E+00
         21   -1    0    0  503  502  0.00000000000E+00  0.00000000000E+00  0.92898588292E+03  0.92898588292E+03  0.00000000000E+00 0. -1.
         21   -1    0    0  501  503 -0.00000000000E+00 -0.00000000000E+00 -0.17803371553E+03  0.17803371553E+03  0.00000000000E+00 0. -1.
    9000007    1    1    2  501    0 -0.58692921485E+01 -0.36286403941E+02  0.46198121286E+03  0.61219097734E+03  0.40000000000E+03 0. -1.
   -9000007    1    1    2    0  502  0.58692921485E+01  0.36286403941E+02  0.28897095454E+03  0.49482862111E+03  0.40000000000E+03 0. -1.
<mgrwt>
<rscale>  2 0.40168539E+03</rscale>
<asrwt>0</asrwt>
<pdfrwt beam="1">  1       21 0.14292090E+00 0.40168539E+03</pdfrwt>
<pdfrwt beam="2">  1       21 0.27389803E-01 0.40168539E+03</pdfrwt>
<totfact> 0.38118114E+03</totfact>
</mgrwt>
</event>
<event>
 4    1  0.4689683E-002  0.4951505E+03  0.7818608E-02  0.1015053E+00
         21   -1    0    0  501  502  0.00000000000E+00  0.00000000000E+00  0.12668707063E+04  0.12668707063E+04  0.00000000000E+00 0.  1.
         21   -1    0    0  502  503 -0.00000000000E+00 -0.00000000000E+00 -0.32981630457E+03  0.32981630457E+03  0.00000000000E+00 0.  1.
    9000007    1    1    2  501    0  0.16258795716E+03 -0.24236157594E+03  0.98172437795E+03  0.10995256848E+04  0.40000000000E+03 0.  1.
   -9000007    1    1    2    0  503 -0.16258795716E+03  0.24236157594E+03 -0.44669976267E+02  0.49716132602E+03  0.40000000000E+03 0.  1.
<mgrwt>
<rscale>  2 0.49515046E+03</rscale>
<asrwt>0</asrwt>
<pdfrwt beam="1">  1       21 0.19490318E+00 0.49515046E+03</pdfrwt>
<pdfrwt beam="2">  1       21 0.50740971E-01 0.49515046E+03</pdfrwt>
<totfact> 0.43087076E+02</totfact>
</mgrwt>
</event>
<event>
 4    1  0.4689683E-002  0.7035878E+03  0.7818608E-02  0.9711116E-01
         21   -1    0    0  503  502  0.00000000000E+00  0.00000000000E+00  0.24902150775E+03  0.24902150775E+03  0.00000000000E+00 0.  1.
         21   -1    0    0  501  503 -0.00000000000E+00 -0.00000000000E+00 -0.20058108136E+04  0.20058108136E+04  0.00000000000E+00 0. -1.
    9000007    1    1    2  501    0 -0.56194416659E+03 -0.13876097403E+03 -0.77193019052E+03  0.10444673634E+04  0.40000000000E+03 0. -1.
   -9000007    1    1    2    0  502  0.56194416659E+03  0.13876097403E+03 -0.98485911535E+03  0.12103649579E+04  0.40000000000E+03 0. -1.
<mgrwt>
<rscale>  2 0.70358784E+03</rscale>
<asrwt>0</asrwt>
<pdfrwt beam="1">  1       21 0.38310999E-01 0.70358784E+03</pdfrwt>
<pdfrwt beam="2">  1       21 0.30858629E+00 0.70358784E+03</pdfrwt>
<totfact> 0.13742639E+02</totfact>
</mgrwt>
</event>
<event>
 4    1  0.4689683E-002  0.5586091E+03  0.7818608E-02  0.9995207E-01
         21   -1    0    0  503  502  0.00000000000E+00  0.00000000000E+00  0.94222156697E+03  0.94222156697E+03  0.00000000000E+00 0. -1.
         21   -1    0    0  501  503 -0.00000000000E+00 -0.00000000000E+00 -0.38144147227E+03  0.38144147227E+03  0.00000000000E+00 0.  1.
    9000007    1    1    2  501    0 -0.13169066157E+03  0.36701724150E+03  0.52063540483E+03  0.76361332536E+03  0.40000000000E+03 0. -1.
   -9000007    1    1    2    0  502  0.13169066157E+03 -0.36701724150E+03  0.40144689872E+02  0.56004971389E+03  0.40000000000E+03 0.  1.
<mgrwt>
<rscale>  2 0.55860906E+03</rscale>
<asrwt>0</asrwt>
<pdfrwt beam="1">  1       21 0.14495716E+00 0.55860906E+03</pdfrwt>
<pdfrwt beam="2">  1       21 0.58683304E-01 0.55860906E+03</pdfrwt>
<totfact> 0.71554433E+02</totfact>
</mgrwt>
</event>
<event>
 4    1  0.4689683E-002  0.5667477E+03  0.7818608E-02  0.9976901E-01
         21   -1    0    0  501  502  0.00000000000E+00  0.00000000000E+00  0.20327946876E+04  0.20327946876E+04  0.00000000000E+00 0. -1.
         21   -1    0    0  502  503 -0.00000000000E+00 -0.00000000000E+00 -0.15910581084E+03  0.15910581084E+03  0.00000000000E+00 0. -1.
    9000007    1    1    2  501    0 -0.93262110236E+02  0.39051902461E+03  0.10277758836E+04  0.11736806196E+04  0.40000000000E+03 0. -1.
   -9000007    1    1    2    0  503  0.93262110236E+02 -0.39051902461E+03  0.84591299316E+03  0.10182198789E+04  0.40000000000E+03 0. -1.
<mgrwt>
<rscale>  2 0.56674768E+03</rscale>
<asrwt>0</asrwt>
<pdfrwt beam="1">  1       21 0.31273763E+00 0.56674768E+03</pdfrwt>
<pdfrwt beam="2">  1       21 0.24477818E-01 0.56674768E+03</pdfrwt>
<totfact> 0.33736260E+02</totfact>
</mgrwt>
</event>
<event>
 4    1  0.4689683E-002  0.4244499E+03  0.7818608E-02  0.1035628E+00
         21   -1    0    0  501  502  0.00000000000E+00  0.00000000000E+00  0.52593456970E+03  0.52593456970E+03  0.00000000000E+00 0.  1.
         21   -1    0    0  502  503 -0.00000000000E+00 -0.00000000000E+00 -0.38704431169E+03  0.38704431169E+03  0.00000000000E+00 0.  1.
    9000007    1    1    2  501    0 -0.93040687500E+02 -0.10724357755E+03 -0.85334266294E+02  0.43294305799E+03  0.40000000000E+03 0.  1.
   -9000007    1    1    2    0  503  0.93040687500E+02  0.10724357755E+03  0.22422452431E+03  0.48003582341E+03  0.40000000000E+03 0.  1.
<mgrwt>
<rscale>  2 0.42444994E+03</rscale>
<asrwt>0</asrwt>
<pdfrwt beam="1">  1       21 0.80913011E-01 0.42444994E+03</pdfrwt>
<pdfrwt beam="2">  1       21 0.59545278E-01 0.42444994E+03</pdfrwt>
<totfact> 0.31043717E+03</totfact>
</mgrwt>
</event>
<event>
 4    1  0.4689683E-002  0.4001431E+03  0.7818608E-02  0.1043730E+00
         21   -1    0    0  503  502  0.00000000000E+00  0.00000000000E+00  0.33118361992E+03  0.33118361992E+03  0.00000000000E+00 0.  1.
         21   -1    0    0  501  503 -0.00000000000E+00 -0.00000000000E+00 -0.61994917773E+03  0.61994917773E+03  0.00000000000E+00 0.  1.
    9000007    1    1    2  501    0 -0.10640857577E+02 -0.11423173258E+01 -0.36752401023E+03  0.54331246151E+03  0.40000000000E+03 0.  1.
   -9000007    1    1    2    0  502  0.10640857577E+02  0.11423173258E+01  0.78758452425E+02  0.40782033614E+03  0.40000000000E+03 0.  1.
<mgrwt>
<rscale>  2 0.40014314E+03</rscale>
<asrwt>0</asrwt>
<pdfrwt beam="1">  1       21 0.50951327E-01 0.40014314E+03</pdfrwt>
<pdfrwt beam="2">  1       21 0.95376795E-01 0.40014314E+03</pdfrwt>
<totfact> 0.29790114E+03</totfact>
</mgrwt>
</event>
<event>
 4    1  0.4689683E-002  0.6097069E+03  0.7818608E-02  0.9885469E-01
         21   -1    0    0  501  502  0.00000000000E+00  0.00000000000E+00  0.40291693111E+03  0.40291693111E+03  0.00000000000E+00 0.  1.
         21   -1    0    0  502  503 -0.00000000000E+00 -0.00000000000E+00 -0.10042847219E+04  0.10042847219E+04  0.00000000000E+00 0. -1.
    9000007    1    1    2  501    0  0.15076753295E+03 -0.43475476178E+03 -0.10005514857E+03  0.61786210811E+03  0.40000000000E+03 0.  1.
   -9000007    1    1    2    0  503 -0.15076753295E+03  0.43475476178E+03 -0.50131264219E+03  0.78933954488E+03  0.40000000000E+03 0. -1.
<mgrwt>
<rscale>  2 0.60970694E+03</rscale>
<asrwt>0</asrwt>
<pdfrwt beam="1">  1       21 0.61987221E-01 0.60970694E+03</pdfrwt>
<pdfrwt beam="2">  1       21 0.15450534E+00 0.60970694E+03</pdfrwt>
<totfact> 0.52326266E+02</totfact>
</mgrwt>
</event>
<event>
 4    1  0.4689683E-002  0.4933429E+03  0.7818608E-02  0.1015531E+00
         21   -1    0    0  503  502  0.00000000000E+00  0.00000000000E+00  0.68607789472E+03  0.68607789472E+03  0.00000000000E+00 0.  1.
         21   -1    0    0  501  503 -0.00000000000E+00 -0.00000000000E+00 -0.40850179117E+03  0.40850179117E+03  0.00000000000E+00 0. -1.
    9000007    1    1    2  501    0 -0.27172526369E+03  0.97737571867E+02  0.33731080454E+03  0.59763352545E+03  0.40000000000E+03 0.  1.
   -9000007    1    1    2    0  502  0.27172526369E+03 -0.97737571867E+02 -0.59734700991E+02  0.49694616045E+03  0.40000000000E+03 0. -1.
<mgrwt>
<rscale>  2 0.49334294E+03</rscale>
<asrwt>0</asrwt>
<pdfrwt beam="1">  1       21 0.10555045E+00 0.49334294E+03</pdfrwt>
<pdfrwt beam="2">  1       21 0.62846429E-01 0.49334294E+03</pdfrwt>
<totfact> 0.14252581E+03</totfact>
</mgrwt>
</event>
<event>
 4    1  0.4689683E-002  0.4591438E+03  0.7818608E-02  0.1025030E+00
         21   -1    0    0  501  502  0.00000000000E+00  0.00000000000E+00  0.16359299271E+04  0.16359299271E+04  0.00000000000E+00 0. -1.
         21   -1    0    0  502  503 -0.00000000000E+00 -0.00000000000E+00 -0.40670923500E+03  0.40670923500E+03  0.00000000000E+00 0. -1.
    9000007    1    1    2  501    0  0.87106208199E+02 -0.20790760899E+03  0.14587626994E+04  0.15293141203E+04  0.40000000000E+03 0. -1.
   -9000007    1    1    2    0  503 -0.87106208199E+02  0.20790760899E+03 -0.22954200733E+03  0.51332504177E+03  0.40000000000E+03 0. -1.
<mgrwt>
<rscale>  2 0.45914384E+03</rscale>
<asrwt>0</asrwt>
<pdfrwt beam="1">  1       21 0.25168152E+00 0.45914384E+03</pdfrwt>
<pdfrwt beam="2">  1       21 0.62570652E-01 0.45914384E+03</pdfrwt>
<totfact> 0.12057802E+02</totfact>
</mgrwt>
</event>
<event>
 4    1  0.4689683E-002  0.4266072E+03  0.7818608E-02  0.1034937E+00
         21   -1    0    0  503  502  0.00000000000E+00  0.00000000000E+00  0.35575794526E+03  0.35575794526E+03  0.00000000000E+00 0.  1.
         21   -1    0    0  501  503 -0.00000000000E+00 -0.00000000000E+00 -0.61980127806E+03  0.61980127806E+03  0.00000000000E+00 0.  1.
    9000007    1    1    2  501    0 -0.56469676714E+02 -0.13713093578E+03 -0.33585797821E+03  0.54294962884E+03  0.40000000000E+03 0.  1.
   -9000007    1    1    2    0  502  0.56469676714E+02  0.13713093578E+03  0.71814645414E+02  0.43260959447E+03  0.40000000000E+03 0.  1.
<mgrwt>
<rscale>  2 0.42660722E+03</rscale>
<asrwt>0</asrwt>
<pdfrwt beam="1">  1       21 0.54731992E-01 0.42660722E+03</pdfrwt>
<pdfrwt beam="2">  1       21 0.95354042E-01 0.42660722E+03</pdfrwt>
<totfact> 0.25306014E+03</totfact>
</mgrwt>
</event>
<event>
 4    1  0.4689683E-002  0.4680842E+03  0.7818608E-02  0.1022462E+00
         21   -1    0    0  503  502  0.00000000000E+00  0.00000000000E+00  0.27310743473E+03  0.27310743473E+03  0.00000000000E+00 0.  1.
         21   -1    0    0  501  503 -0.00000000000E+00 -0.00000000000E+00 -0.80228785291E+03  0.80228785291E+03  0.00000000000E+00 0.  1.
    9000007    1    1    2  501    0 -0.23827310078E+03 -0.48256956972E+02 -0.26783372719E+03  0.53929371392E+03  0.40000000000E+03 0.  1.
   -9000007    1    1    2    0  502  0.23827310078E+03  0.48256956972E+02 -0.26134669098E+03  0.53610157372E+03  0.40000000000E+03 0.  1.
<mgrwt>
<rscale>  2 0.46808419E+03</rscale>
<asrwt>0</asrwt>
<pdfrwt beam="1">  1       21 0.42016529E-01 0.46808419E+03</pdfrwt>
<pdfrwt beam="2">  1       21 0.12342890E+00 0.46808419E+03</pdfrwt>
<totfact> 0.22999895E+03</totfact>
</mgrwt>
</event>
<event>
 4    1  0.4689683E-002  0.4033300E+03  0.7818608E-02  0.1042633E+00
         21   -1    0    0  503  502  0.00000000000E+00  0.00000000000E+00  0.57942824165E+03  0.57942824165E+03  0.00000000000E+00 0. -1.
         21   -1    0    0  501  503 -0.00000000000E+00 -0.00000000000E+00 -0.42737343457E+03  0.42737343457E+03  0.00000000000E+00 0. -1.
    9000007    1    1    2  501    0  0.27000699543E+02  0.44113684411E+02 -0.21882888492E+03  0.45886941040E+03  0.40000000000E+03 0. -1.
   -9000007    1    1    2    0  502 -0.27000699543E+02 -0.44113684411E+02  0.37088369201E+03  0.54793226582E+03  0.40000000000E+03 0. -1.
<mgrwt>
<rscale>  2 0.40332996E+03</rscale>
<asrwt>0</asrwt>
<pdfrwt beam="1">  1       21 0.89142807E-01 0.40332996E+03</pdfrwt>
<pdfrwt beam="2">  1       21 0.65749759E-01 0.40332996E+03</pdfrwt>
<totfact> 0.20070270E+03</totfact>
</mgrwt>
</event>
<event>
 4    1  0.4689683E-002  0.6464543E+03  0.7818608E-02  0.9813455E-01
         21   -1    0    0  501  502  0.00000000000E+00  0.00000000000E+00  0.79980321579E+03  0.79980321579E+03  0.00000000000E+00 0.  1.
         21   -1    0    0  502  503 -0.00000000000E+00 -0.00000000000E+00 -0.79537066281E+03  0.79537066281E+03  0.00000000000E+00 0.  1.
    9000007    1    1    2  501    0 -0.41160943085E+03 -0.29745718473E+03  0.46937641888E+03  0.79888504988E+03  0.40000000000E+03 0.  1.
   -9000007    1    1    2    0  503  0.41160943085E+03  0.29745718473E+03 -0.46494386590E+03  0.79628882872E+03  0.40000000000E+03 0.  1.
<mgrwt>
<rscale>  2 0.64645425E+03</rscale>
<asrwt>0</asrwt>
<pdfrwt beam="1">  1       21 0.12304665E+00 0.64645425E+03</pdfrwt>
<pdfrwt beam="2">  1       21 0.12236472E+00 0.64645425E+03</pdfrwt>
<totfact> 0.18821230E+02</totfact>
</mgrwt>
</event>
<event>
 4    1  0.4689683E-002  0.4314373E+03  0.7818608E-02  0.1033407E+00
         21   -1    0    0  501  502  0.00000000000E+00  0.00000000000E+00  0.13817640885E+04  0.13817640885E+04  0.00000000000E+00 0. -1.
         21   -1    0    0  502  503 -0.00000000000E+00 -0.00000000000E+00 -0.50661741460E+03  0.50661741460E+03  0.00000000000E+00 0. -1.
    9000007    1    1    2  501    0 -0.40142140291E+02 -0.15661017219E+03  0.12465515189E+04  0.13191015225E+04  0.40000000000E+03 0. -1.
   -9000007    1    1    2    0  503  0.40142140291E+02  0.15661017219E+03 -0.37140484496E+03  0.56927998061E+03  0.40000000000E+03 0. -1.
<mgrwt>
<rscale>  2 0.43143729E+03</rscale>
<asrwt>0</asrwt>
<pdfrwt beam="1">  1       21 0.21257909E+00 0.43143729E+03</pdfrwt>
<pdfrwt beam="2">  1       21 0.77941141E-01 0.43143729E+03</pdfrwt>
<totfact> 0.13160259E+02</totfact>
</mgrwt>
</event>
<event>
 4    1  0.4689683E-002  0.4698257E+03  0.7818608E-02  0.1021969E+00
         21   -1    0    0  501  502  0.00000000000E+00  0.00000000000E+00  0.50667187628E+03  0.50667187628E+03  0.00000000000E+00 0. -1.
         21   -1    0    0  502  503 -0.00000000000E+00 -0.00000000000E+00 -0.10774617845E+04  0.10774617845E+04  0.00000000000E+00 0. -1.
    9000007    1    1    2  501    0  0.24322513590E+03 -0.39720083448E+02  0.32591531984E+03  0.57180149306E+03  0.40000000000E+03 0. -1.
   -9000007    1    1    2    0  503 -0.24322513590E+03  0.39720083448E+02 -0.89670522803E+03  0.10123321677E+04  0.40000000000E+03 0. -1.
<mgrwt>
<rscale>  2 0.46982566E+03</rscale>
<asrwt>0</asrwt>
<pdfrwt beam="1">  1       21 0.77949521E-01 0.46982566E+03</pdfrwt>
<pdfrwt beam="2">  1       21 0.16576335E+00 0.46982566E+03</pdfrwt>
<totfact> 0.27075243E+02</totfact>
</mgrwt>
</event>
<event>
 4    1  0.4689683E-002  0.4148012E+03  0.7818608E-02  0.1038772E+00
         21   -1    0    0  501  502  0.00000000000E+00  0.00000000000E+00  0.26021173800E+03  0.26021173800E+03  0.00000000000E+00 0. -1.
         21   -1    0    0  502  503 -0.00000000000E+00 -0.00000000000E+00 -0.75755988600E+03  0.75755988600E+03  0.00000000000E+00 0. -1.
    9000007    1    1    2  501    0 -0.86813894280E+02  0.67255892288E+02 -0.67210002789E+02  0.42021088963E+03  0.40000000000E+03 0. -1.
   -9000007    1    1    2    0  503  0.86813894280E+02 -0.67255892288E+02 -0.43013814521E+03  0.59756073437E+03  0.40000000000E+03 0. -1.
<mgrwt>
<rscale>  2 0.41480117E+03</rscale>
<asrwt>0</asrwt>
<pdfrwt beam="1">  1       21 0.40032576E-01 0.41480117E+03</pdfrwt>
<pdfrwt beam="2">  1       21 0.11654767E+00 0.41480117E+03</pdfrwt>
<totfact> 0.30001638E+03</totfact>
</mgrwt>
</event>
<event>
 4    1  0.4689683E-002  0.4106673E+03  0.7818608E-02  0.1040147E+00
         21   -1    0    0  503  502  0.00000000000E+00  0.00000000000E+00  0.17893064246E+04  0.17893064246E+04  0.00000000000E+00 0. -1.
         21   -1    0    0  501  503 -0.00000000000E+00 -0.00000000000E+00 -0.12390327033E+03  0.12390327033E+03  0.00000000000E+00 0. -1.
    9000007    1    1    2  501    0  0.84240612233E+02  0.39384857511E+02  0.36474569563E+03  0.54926047576E+03  0.40000000000E+03 0. -1.
   -9000007    1    1    2    0  502 -0.84240612233E+02 -0.39384857511E+02  0.13006574586E+04  0.13639492192E+04  0.40000000000E+03 0. -1.
<mgrwt>
<rscale>  2 0.41066732E+03</rscale>
<asrwt>0</asrwt>
<pdfrwt beam="1">  1       21 0.27527789E+00 0.41066732E+03</pdfrwt>
<pdfrwt beam="2">  1       21 0.19062043E-01 0.41066732E+03</pdfrwt>
<totfact> 0.99449935E+02</totfact>
</mgrwt>
</event>
<event>
 4    1  0.4689683E-002  0.5015563E+03  0.7818608E-02  0.1013373E+00
         21   -1    0    0  503  502  0.00000000000E+00  0.00000000000E+00  0.62431859572E+03  0.62431859572E+03  0.00000000000E+00 0. -1.
         21   -1    0    0  501  503 -0.00000000000E+00 -0.00000000000E+00 -0.41878925446E+03  0.41878925446E+03  0.00000000000E+00 0. -1.
    9000007    1    1    2  501    0  0.14608153815E+03  0.26498851889E+03  0.12805457688E+01  0.50155794354E+03  0.40000000000E+03 0. -1.
   -9000007    1    1    2    0  502 -0.14608153815E+03 -0.26498851889E+03  0.20424879549E+03  0.54154990665E+03  0.40000000000E+03 0. -1.
<mgrwt>
<rscale>  2 0.50155631E+03</rscale>
<asrwt>0</asrwt>
<pdfrwt beam="1">  1       21 0.96049014E-01 0.50155631E+03</pdfrwt>
<pdfrwt beam="2">  1       21 0.64429117E-01 0.50155631E+03</pdfrwt>
<totfact> 0.16931921E+03</totfact>
</mgrwt>
</event>
<event>
 4    1  0.4689683E-002  0.5898174E+03  0.7818608E-02  0.9926760E-01
         21   -1    0    0  501  502  0.00000000000E+00  0.00000000000E+00  0.33246935906E+03  0.33246935906E+03  0.00000000000E+00 0.  1.
         21   -1    0    0  502  503 -0.00000000000E+00 -0.00000000000E+00 -0.16162195305E+04  0.16162195305E+04  0.00000000000E+00 0.  1.
    9000007    1    1    2  501    0 -0.42408141016E+03 -0.89663292913E+02 -0.12204292941E+04  0.13554822797E+04  0.40000000000E+03 0.  1.
   -9000007    1    1    2    0  503  0.42408141016E+03  0.89663292913E+02 -0.63320877331E+02  0.59320660992E+03  0.40000000000E+03 0.  1.
<mgrwt>
<rscale>  2 0.58981739E+03</rscale>
<asrwt>0</asrwt>
<pdfrwt beam="1">  1       21 0.51149134E-01 0.58981739E+03</pdfrwt>
<pdfrwt beam="2">  1       21 0.24864915E+00 0.58981739E+03</pdfrwt>
<totfact> 0.18286495E+02</totfact>
</mgrwt>
</event>
<event>
 4    1  0.4689683E-002  0.4749903E+03  0.7818608E-02  0.1020521E+00
         21   -1    0    0  501  502  0.00000000000E+00  0.00000000000E+00  0.20313902829E+03  0.20313902829E+03  0.00000000000E+00 0.  1.
         21   -1    0    0  502  503 -0.00000000000E+00 -0.00000000000E+00 -0.20992108948E+04  0.20992108948E+04  0.00000000000E+00 0.  1.
    9000007    1    1    2  501    0 -0.22872384777E+03  0.11533066165E+03 -0.15805672121E+03  0.50059733037E+03  0.40000000000E+03 0.  1.
   -9000007    1    1    2    0  503  0.22872384777E+03 -0.11533066165E+03 -0.17380151453E+04  0.18017525927E+04  0.40000000000E+03 0.  1.
<mgrwt>
<rscale>  2 0.47499027E+03</rscale>
<asrwt>0</asrwt>
<pdfrwt beam="1">  1       21 0.31252159E-01 0.47499027E+03</pdfrwt>
<pdfrwt beam="2">  1       21 0.32295551E+00 0.47499027E+03</pdfrwt>
<totfact> 0.18943023E+02</totfact>
</mgrwt>
</event>
<event>
 4    1  0.4689683E-002  0.4083000E+03  0.7818608E-02  0.1040943E+00
         21   -1    0    0  503  502  0.00000000000E+00  0.00000000000E+00  0.39655187602E+03  0.39655187602E+03  0.00000000000E+00 0. -1.
         21   -1    0    0  501  503 -0.00000000000E+00 -0.00000000000E+00 -0.43951241330E+03  0.43951241330E+03  0.00000000000E+00 0. -1.
    9000007    1    1    2  501    0 -0.41215733159E+02 -0.70782668042E+02 -0.10866178901E+03  0.42251190178E+03  0.40000000000E+03 0. -1.
   -9000007    1    1    2    0  502  0.41215733159E+02  0.70782668042E+02  0.65701251731E+02  0.41355238753E+03  0.40000000000E+03 0. -1.
<mgrwt>
<rscale>  2 0.40830004E+03</rscale>
<asrwt>0</asrwt>
<pdfrwt beam="1">  1       21 0.61007981E-01 0.40830004E+03</pdfrwt>
<pdfrwt beam="2">  1       21 0.67617294E-01 0.40830004E+03</pdfrwt>
<totfact> 0.44522380E+03</totfact>
</mgrwt>
</event>
<event>
 4    1  0.4689683E-002  0.5384185E+03  0.7818608E-02  0.1004211E+00
         21   -1    0    0  503  502  0.00000000000E+00  0.00000000000E+00  0.13224421705E+04  0.13224421705E+04  0.00000000000E+00 0.  1.
         21   -1    0    0  501  503 -0.00000000000E+00 -0.00000000000E+00 -0.23734755186E+03  0.23734755186E+03  0.00000000000E+00 0. -1.
    9000007    1    1    2  501    0 -0.31953459451E+03 -0.16670958003E+03  0.32696363180E+03  0.62992035821E+03  0.40000000000E+03 0. -1.
   -9000007    1    1    2    0  502  0.31953459451E+03  0.16670958003E+03  0.75813098680E+03  0.92986936411E+03  0.40000000000E+03 0.  1.
<mgrwt>
<rscale>  2 0.53841846E+03</rscale>
<asrwt>0</asrwt>
<pdfrwt beam="1">  1       21 0.20345264E+00 0.53841846E+03</pdfrwt>
<pdfrwt beam="2">  1       21 0.36515009E-01 0.53841846E+03</pdfrwt>
<totfact> 0.73699289E+02</totfact>
</mgrwt>
</event>
<event>
 4    1  0.4689683E-002  0.4204884E+03  0.7818608E-02  0.1036907E+00
         21   -1    0    0  503  502  0.00000000000E+00  0.00000000000E+00  0.78342626144E+03  0.78342626144E+03  0.00000000000E+00 0. -1.
         21   -1    0    0  501  503 -0.00000000000E+00 -0.00000000000E+00 -0.23312723057E+03  0.23312723057E+03  0.00000000000E+00 0. -1.
    9000007    1    1    2  501    0  0.11590934012E+00 -0.12965533018E+03  0.18435806686E+03  0.45912788512E+03  0.40000000000E+03 0. -1.
   -9000007    1    1    2    0  502 -0.11590934012E+00  0.12965533018E+03  0.36594096401E+03  0.55742560689E+03  0.40000000000E+03 0. -1.
<mgrwt>
<rscale>  2 0.42048843E+03</rscale>
<asrwt>0</asrwt>
<pdfrwt beam="1">  1       21 0.12052712E+00 0.42048843E+03</pdfrwt>
<pdfrwt beam="2">  1       21 0.35865728E-01 0.42048843E+03</pdfrwt>
<totfact> 0.34421516E+03</totfact>
</mgrwt>
</event>
<event>
 4    1  0.4689683E-002  0.4206474E+03  0.7818608E-02  0.1036856E+00
         21   -1    0    0  503  502  0.00000000000E+00  0.00000000000E+00  0.35994945835E+03  0.35994945835E+03  0.00000000000E+00 0. -1.
         21   -1    0    0  501  503 -0.00000000000E+00 -0.00000000000E+00 -0.57223124635E+03  0.57223124635E+03  0.00000000000E+00 0. -1.
    9000007    1    1    2  501    0 -0.91852876970E+02 -0.92235087083E+02 -0.28112055479E+03  0.50593777149E+03  0.40000000000E+03 0. -1.
   -9000007    1    1    2    0  502  0.91852876970E+02  0.92235087083E+02  0.68838766792E+02  0.42624293321E+03  0.40000000000E+03 0. -1.
<mgrwt>
<rscale>  2 0.42064743E+03</rscale>
<asrwt>0</asrwt>
<pdfrwt beam="1">  1       21 0.55376841E-01 0.42064743E+03</pdfrwt>
<pdfrwt beam="2">  1       21 0.88035575E-01 0.42064743E+03</pdfrwt>
<totfact> 0.29893825E+03</totfact>
</mgrwt>
</event>
<event>
 4    1  0.4689683E-002  0.4226281E+03  0.7818608E-02  0.1036214E+00
         21   -1    0    0  501  502  0.00000000000E+00  0.00000000000E+00  0.39921960294E+03  0.39921960294E+03  0.00000000000E+00 0. -1.
         21   -1    0    0  502  503 -0.00000000000E+00 -0.00000000000E+00 -0.63092218988E+03  0.63092218988E+03  0.00000000000E+00 0. -1.
    9000007    1    1    2  501    0 -0.66167846734E+02  0.11931609739E+03  0.16193610451E+03  0.45259012029E+03  0.40000000000E+03 0. -1.
   -9000007    1    1    2    0  503  0.66167846734E+02 -0.11931609739E+03 -0.39363869145E+03  0.57755167253E+03  0.40000000000E+03 0. -1.
<mgrwt>
<rscale>  2 0.42262810E+03</rscale>
<asrwt>0</asrwt>
<pdfrwt beam="1">  1       21 0.61418400E-01 0.42262810E+03</pdfrwt>
<pdfrwt beam="2">  1       21 0.97064952E-01 0.42262810E+03</pdfrwt>
<totfact> 0.18899445E+03</totfact>
</mgrwt>
</event>
<event>
 4    1  0.4689683E-002  0.5550524E+03  0.7818608E-02  0.1000331E+00
         21   -1    0    0  503  502  0.00000000000E+00  0.00000000000E+00  0.67663806845E+03  0.67663806845E+03  0.00000000000E+00 0. -1.
         21   -1    0    0  501  503 -0.00000000000E+00 -0.00000000000E+00 -0.67033557038E+03  0.67033557038E+03  0.00000000000E+00 0. -1.
    9000007    1    1    2  501    0  0.30729751051E+03 -0.23162762774E+03 -0.37828633823E+03  0.67170207056E+03  0.40000000000E+03 0. -1.
   -9000007    1    1    2    0  502 -0.30729751051E+03  0.23162762774E+03  0.38458883631E+03  0.67527156827E+03  0.40000000000E+03 0. -1.
<mgrwt>
<rscale>  2 0.55505236E+03</rscale>
<asrwt>0</asrwt>
<pdfrwt beam="1">  1       21 0.10409817E+00 0.55505236E+03</pdfrwt>
<pdfrwt beam="2">  1       21 0.10312855E+00 0.55505236E+03</pdfrwt>
<totfact> 0.45562939E+02</totfact>
</mgrwt>
</event>
<event>
 4    1  0.4689683E-002  0.4028833E+03  0.7818608E-02  0.1042786E+00
         21   -1    0    0  501  502  0.00000000000E+00  0.00000000000E+00  0.23289358606E+04  0.23289358606E+04  0.00000000000E+00 0.  1.
         21   -1    0    0  502  503 -0.00000000000E+00 -0.00000000000E+00 -0.69703236818E+02  0.69703236818E+02  0.00000000000E+00 0.  1.
    9000007    1    1    2  501    0 -0.47915197804E+02  0.43680731634E+01  0.11427344433E+04  0.12116752677E+04  0.40000000000E+03 0. -1.
   -9000007    1    1    2    0  503  0.47915197804E+02 -0.43680731634E+01  0.11164981805E+04  0.11869638298E+04  0.40000000000E+03 0. -1.
<mgrwt>
<rscale>  2 0.40288329E+03</rscale>
<asrwt>0</asrwt>
<pdfrwt beam="1">  1       21 0.35829777E+00 0.40288329E+03</pdfrwt>
<pdfrwt beam="2">  1       21 0.10723577E-01 0.40288329E+03</pdfrwt>
<totfact> 0.91226946E+02</totfact>
</mgrwt>
</event>
<event>
 4    1  0.4689683E-002  0.5110490E+03  0.7818608E-02  0.1010935E+00
         21   -1    0    0  501  502  0.00000000000E+00  0.00000000000E+00  0.29205398115E+03  0.29205398115E+03  0.00000000000E+00 0.  1.
         21   -1    0    0  502  503 -0.00000000000E+00 -0.00000000000E+00 -0.10309867910E+04  0.10309867910E+04  0.00000000000E+00 0.  1.
    9000007    1    1    2  501    0  0.76286247248E+02 -0.30879030065E+03 -0.61037359167E+03  0.79606969714E+03  0.40000000000E+03 0.  1.
   -9000007    1    1    2    0  503 -0.76286247248E+02  0.30879030065E+03 -0.12855921814E+03  0.52697107498E+03  0.40000000000E+03 0.  1.
<mgrwt>
<rscale>  2 0.51104896E+03</rscale>
<asrwt>0</asrwt>
<pdfrwt beam="1">  1       21 0.44931381E-01 0.51104896E+03</pdfrwt>
<pdfrwt beam="2">  1       21 0.15861335E+00 0.51104896E+03</pdfrwt>
<totfact> 0.10081791E+03</totfact>
</mgrwt>
</event>
<event>
 4    1  0.4689683E-002  0.4492528E+03  0.7818608E-02  0.1027945E+00
         21   -1    0    0  503  502  0.00000000000E+00  0.00000000000E+00  0.19505838058E+04  0.19505838058E+04  0.00000000000E+00 0.  1.
         21   -1    0    0  501  503 -0.00000000000E+00 -0.00000000000E+00 -0.11450943671E+03  0.11450943671E+03  0.00000000000E+00 0.  1.
    9000007    1    1    2  501    0  0.16088077072E+03 -0.12627544686E+03  0.12386274574E+04  0.13175834277E+04  0.40000000000E+03 0.  1.
   -9000007    1    1    2    0  502 -0.16088077072E+03  0.12627544686E+03  0.59744691169E+03  0.74750981475E+03  0.40000000000E+03 0.  1.
<mgrwt>
<rscale>  2 0.44925284E+03</rscale>
<asrwt>0</asrwt>
<pdfrwt beam="1">  1       21 0.30008979E+00 0.44925284E+03</pdfrwt>
<pdfrwt beam="2">  1       21 0.17616838E-01 0.44925284E+03</pdfrwt>
<totfact> 0.80137811E+02</totfact>
</mgrwt>
</event>
<event>
 4    1  0.4689683E-002  0.6343270E+03  0.7818608E-02  0.9836641E-01
         21   -1    0    0  501  502  0.00000000000E+00  0.00000000000E+00  0.39473879647E+04  0.39473879647E+04  0.00000000000E+00 0. -1.
         21   -1    0    0  502  503 -0.00000000000E+00 -0.00000000000E+00 -0.12180936465E+03  0.12180936465E+03  0.00000000000E+00 0. -1.
    9000007    1    1    2  501    0 -0.48980770544E+03 -0.49589530515E+02  0.27346579816E+04  0.28072628993E+04  0.40000000000E+03 0. -1.
   -9000007    1    1    2    0  503  0.48980770544E+03  0.49589530515E+02  0.10909206185E+04  0.12619344300E+04  0.40000000000E+03 0. -1.
<mgrwt>
<rscale>  2 0.63432697E+03</rscale>
<asrwt>0</asrwt>
<pdfrwt beam="1">  1       21 0.60729036E+00 0.63432697E+03</pdfrwt>
<pdfrwt beam="2">  1       21 0.18739905E-01 0.63432697E+03</pdfrwt>
<totfact> 0.50418631E+00</totfact>
</mgrwt>
</event>
<event>
 4    1  0.4689683E-002  0.4528991E+03  0.7818608E-02  0.1026861E+00
         21   -1    0    0  501  502  0.00000000000E+00  0.00000000000E+00  0.15212358225E+04  0.15212358225E+04  0.00000000000E+00 0. -1.
         21   -1    0    0  502  503 -0.00000000000E+00 -0.00000000000E+00 -0.24030605341E+03  0.24030605341E+03  0.00000000000E+00 0.  1.
    9000007    1    1    2  501    0  0.91386923375E+02 -0.19174465546E+03  0.12239703030E+04  0.13050750497E+04  0.40000000000E+03 0.  1.
   -9000007    1    1    2    0  503 -0.91386923375E+02  0.19174465546E+03  0.56959466069E+02  0.45646682622E+03  0.40000000000E+03 0.  1.
<mgrwt>
<rscale>  2 0.45289909E+03</rscale>
<asrwt>0</asrwt>
<pdfrwt beam="1">  1       21 0.23403627E+00 0.45289909E+03</pdfrwt>
<pdfrwt beam="2">  1       21 0.36970163E-01 0.45289909E+03</pdfrwt>
<totfact> 0.47435221E+02</totfact>
</mgrwt>
</event>
<event>
 4    1  0.4689683E-002  0.4929601E+03  0.7818608E-02  0.1015633E+00
         21   -1    0    0  503  502  0.00000000000E+00  0.00000000000E+00  0.96079032458E+03  0.96079032458E+03  0.00000000000E+00 0. -1.
         21   -1    0    0  501  503 -0.00000000000E+00 -0.00000000000E+00 -0.40337104546E+03  0.40337104546E+03  0.00000000000E+00 0. -1.
    9000007    1    1    2  501    0  0.20087647505E+03  0.20653879692E+03 -0.13784422257E+03  0.51186977109E+03  0.40000000000E+03 0. -1.
   -9000007    1    1    2    0  502 -0.20087647505E+03 -0.20653879692E+03  0.69526350169E+03  0.85229159895E+03  0.40000000000E+03 0. -1.
<mgrwt>
<rscale>  2 0.49296007E+03</rscale>
<asrwt>0</asrwt>
<pdfrwt beam="1">  1       21 0.14781390E+00 0.49296007E+03</pdfrwt>
<pdfrwt beam="2">  1       21 0.62057084E-01 0.49296007E+03</pdfrwt>
<totfact> 0.61511374E+02</totfact>
</mgrwt>
</event>
<event>
 4    1  0.4689683E-002  0.4360620E+03  0.7818608E-02  0.1031962E+00
         21   -1    0    0  503  502  0.00000000000E+00  0.00000000000E+00  0.62749770146E+03  0.62749770146E+03  0.00000000000E+00 0.  1.
         21   -1    0    0  501  503 -0.00000000000E+00 -0.00000000000E+00 -0.31713167016E+03  0.31713167016E+03  0.00000000000E+00 0. -1.
    9000007    1    1    2  501    0  0.69194203101E+02  0.15925527980E+03  0.25478324325E+03  0.50503918950E+03  0.40000000000E+03 0.  1.
   -9000007    1    1    2    0  502 -0.69194203101E+02 -0.15925527980E+03  0.55582788050E+02  0.43959018212E+03  0.40000000000E+03 0. -1.
<mgrwt>
<rscale>  2 0.43606202E+03</rscale>
<asrwt>0</asrwt>
<pdfrwt beam="1">  1       21 0.96538108E-01 0.43606202E+03</pdfrwt>
<pdfrwt beam="2">  1       21 0.48789488E-01 0.43606202E+03</pdfrwt>
<totfact> 0.31292661E+03</totfact>
</mgrwt>
</event>
<event>
 4    1  0.4689683E-002  0.4138468E+03  0.7818608E-02  0.1039088E+00
         21   -1    0    0  501  502  0.00000000000E+00  0.00000000000E+00  0.60097436654E+03  0.60097436654E+03  0.00000000000E+00 0.  1.
         21   -1    0    0  502  503 -0.00000000000E+00 -0.00000000000E+00 -0.40773519550E+03  0.40773519550E+03  0.00000000000E+00 0.  1.
    9000007    1    1    2  501    0 -0.90441013424E+02 -0.55584426778E+02  0.37334980701E+03  0.55736817617E+03  0.40000000000E+03 0.  1.
   -9000007    1    1    2    0  503  0.90441013424E+02  0.55584426778E+02 -0.18011063597E+03  0.45134138587E+03  0.40000000000E+03 0.  1.
<mgrwt>
<rscale>  2 0.41384684E+03</rscale>
<asrwt>0</asrwt>
<pdfrwt beam="1">  1       21 0.92457595E-01 0.41384684E+03</pdfrwt>
<pdfrwt beam="2">  1       21 0.62728492E-01 0.41384684E+03</pdfrwt>
<totfact> 0.20338237E+03</totfact>
</mgrwt>
</event>
<event>
 4    1  0.4689683E-002  0.4086960E+03  0.7818608E-02  0.1040809E+00
         21   -1    0    0  503  502  0.00000000000E+00  0.00000000000E+00  0.20830819202E+03  0.20830819202E+03  0.00000000000E+00 0.  1.
         21   -1    0    0  501  503 -0.00000000000E+00 -0.00000000000E+00 -0.82506356030E+03  0.82506356030E+03  0.00000000000E+00 0. -1.
    9000007    1    1    2  501    0 -0.30187776926E+01 -0.83805312533E+02 -0.39504002723E+03  0.56840924213E+03  0.40000000000E+03 0. -1.
   -9000007    1    1    2    0  502  0.30187776926E+01  0.83805312533E+02 -0.22171534104E+03  0.46496251019E+03  0.40000000000E+03 0.  1.
<mgrwt>
<rscale>  2 0.40869603E+03</rscale>
<asrwt>0</asrwt>
<pdfrwt beam="1">  1       21 0.32047414E-01 0.40869603E+03</pdfrwt>
<pdfrwt beam="2">  1       21 0.12693286E+00 0.40869603E+03</pdfrwt>
<totfact> 0.37986525E+03</totfact>
</mgrwt>
</event>
<event>
 4    1  0.4689683E-002  0.4242764E+03  0.7818608E-02  0.1035683E+00
         21   -1    0    0  503  502  0.00000000000E+00  0.00000000000E+00  0.97359362231E+03  0.97359362231E+03  0.00000000000E+00 0. -1.
         21   -1    0    0  501  503 -0.00000000000E+00 -0.00000000000E+00 -0.20735712891E+03  0.20735712891E+03  0.00000000000E+00 0.  1.
    9000007    1    1    2  501    0  0.14128386952E+03  0.70223408185E+01  0.18876621357E+03  0.46437391016E+03  0.40000000000E+03 0.  1.
   -9000007    1    1    2    0  502 -0.14128386952E+03 -0.70223408185E+01  0.57747027983E+03  0.71657684106E+03  0.40000000000E+03 0. -1.
<mgrwt>
<rscale>  2 0.42427638E+03</rscale>
<asrwt>0</asrwt>
<pdfrwt beam="1">  1       21 0.14978363E+00 0.42427638E+03</pdfrwt>
<pdfrwt beam="2">  1       21 0.31901097E-01 0.42427638E+03</pdfrwt>
<totfact> 0.24617456E+03</totfact>
</mgrwt>
</event>
<event>
 4    1  0.4689683E-002  0.4268325E+03  0.7818608E-02  0.1034865E+00
         21   -1    0    0  503  502  0.00000000000E+00  0.00000000000E+00  0.75030204265E+03  0.75030204265E+03  0.00000000000E+00 0.  1.
         21   -1    0    0  501  503 -0.00000000000E+00 -0.00000000000E+00 -0.31131555033E+03  0.31131555033E+03  0.00000000000E+00 0.  1.
    9000007    1    1    2  501    0  0.51697814775E+02 -0.13968996849E+03 -0.29495079480E+02  0.42785033722E+03  0.40000000000E+03 0.  1.
   -9000007    1    1    2    0  502 -0.51697814775E+02  0.13968996849E+03  0.46848157180E+03  0.63376725576E+03  0.40000000000E+03 0.  1.
<mgrwt>
<rscale>  2 0.42683246E+03</rscale>
<asrwt>0</asrwt>
<pdfrwt beam="1">  1       21 0.11543108E+00 0.42683246E+03</pdfrwt>
<pdfrwt beam="2">  1       21 0.47894700E-01 0.42683246E+03</pdfrwt>
<totfact> 0.21049905E+03</totfact>
</mgrwt>
</event>
<event>
 4    1  0.4689683E-002  0.4552913E+03  0.7818608E-02  0.1026156E+00
         21   -1    0    0  501  502  0.00000000000E+00  0.00000000000E+00  0.21412006786E+03  0.21412006786E+03  0.00000000000E+00 0. -1.
         21   -1    0    0  502  503 -0.00000000000E+00 -0.00000000000E+00 -0.97947912383E+03  0.97947912383E+03  0.00000000000E+00 0. -1.
    9000007    1    1    2  501    0 -0.16463198667E+03  0.14207896443E+03 -0.31836011547E+03  0.55555673544E+03  0.40000000000E+03 0. -1.
   -9000007    1    1    2    0  503  0.16463198667E+03 -0.14207896443E+03 -0.44699894050E+03  0.63804245625E+03  0.40000000000E+03 0. -1.
<mgrwt>
<rscale>  2 0.45529125E+03</rscale>
<asrwt>0</asrwt>
<pdfrwt beam="1">  1       21 0.32941548E-01 0.45529125E+03</pdfrwt>
<pdfrwt beam="2">  1       21 0.15068910E+00 0.45529125E+03</pdfrwt>
<totfact> 0.22431129E+03</totfact>
</mgrwt>
</event>
<event>
 4    1  0.4689683E-002  0.6110910E+03  0.7818608E-02  0.9882659E-01
         21   -1    0    0  501  502  0.00000000000E+00  0.00000000000E+00  0.50503334436E+03  0.50503334436E+03  0.00000000000E+00 0. -1.
         21   -1    0    0  502  503 -0.00000000000E+00 -0.00000000000E+00 -0.75268031929E+03  0.75268031929E+03  0.00000000000E+00 0. -1.
    9000007    1    1    2  501    0 -0.46036686955E+03 -0.38659782022E+02 -0.40357795252E+02  0.61242222768E+03  0.40000000000E+03 0. -1.
   -9000007    1    1    2    0  503  0.46036686955E+03  0.38659782022E+02 -0.20728917967E+03  0.64529143597E+03  0.40000000000E+03 0. -1.
<mgrwt>
<rscale>  2 0.61109102E+03</rscale>
<asrwt>0</asrwt>
<pdfrwt beam="1">  1       21 0.77697438E-01 0.61109102E+03</pdfrwt>
<pdfrwt beam="2">  1       21 0.11579697E+00 0.61109102E+03</pdfrwt>
<totfact> 0.67287308E+02</totfact>
</mgrwt>
</event>
<event>
 4    1  0.4689683E-002  0.4143622E+03  0.7818608E-02  0.1038917E+00
         21   -1    0    0  501  502  0.00000000000E+00  0.00000000000E+00  0.97227948861E+03  0.97227948861E+03  0.00000000000E+00 0.  1.
         21   -1    0    0  502  503 -0.00000000000E+00 -0.00000000000E+00 -0.20714088497E+03  0.20714088497E+03  0.00000000000E+00 0.  1.
    9000007    1    1    2  501    0  0.55032744146E+02  0.93099110183E+02  0.60903829579E+03  0.73662995662E+03  0.40000000000E+03 0.  1.
   -9000007    1    1    2    0  503 -0.55032744146E+02 -0.93099110183E+02  0.15610030785E+03  0.44279041696E+03  0.40000000000E+03 0.  1.
<mgrwt>
<rscale>  2 0.41436222E+03</rscale>
<asrwt>0</asrwt>
<pdfrwt beam="1">  1       21 0.14958146E+00 0.41436222E+03</pdfrwt>
<pdfrwt beam="2">  1       21 0.31867829E-01 0.41436222E+03</pdfrwt>
<totfact> 0.24860582E+03</totfact>
</mgrwt>
</event>
<event>
 4    1  0.4689683E-002  0.4016276E+03  0.7818608E-02  0.1043218E+00
         21   -1    0    0  501  502  0.00000000000E+00  0.00000000000E+00  0.73400818270E+03  0.73400818270E+03  0.00000000000E+00 0.  1.
         21   -1    0    0  502  503 -0.00000000000E+00 -0.00000000000E+00 -0.30239809827E+03  0.30239809827E+03  0.00000000000E+00 0.  1.
    9000007    1    1    2  501    0 -0.16583032026E+02 -0.32089205684E+02  0.48670190674E+03  0.63101779697E+03  0.40000000000E+03 0.  1.
   -9000007    1    1    2    0  503  0.16583032026E+02  0.32089205684E+02 -0.55091822313E+02  0.40538848400E+03  0.40000000000E+03 0.  1.
<mgrwt>
<rscale>  2 0.40162758E+03</rscale>
<asrwt>0</asrwt>
<pdfrwt beam="1">  1       21 0.11292434E+00 0.40162758E+03</pdfrwt>
<pdfrwt beam="2">  1       21 0.46522784E-01 0.40162758E+03</pdfrwt>
<totfact> 0.23882203E+03</totfact>
</mgrwt>
</event>
<event>
 4    1  0.4689683E-002  0.4507321E+03  0.7818608E-02  0.1027504E+00
         21   -1    0    0  501  502  0.00000000000E+00  0.00000000000E+00  0.10514137654E+04  0.10514137654E+04  0.00000000000E+00 0. -1.
         21   -1    0    0  502  503 -0.00000000000E+00 -0.00000000000E+00 -0.32099062147E+03  0.32099062147E+03  0.00000000000E+00 0. -1.
    9000007    1    1    2  501    0  0.18075912491E+03  0.10239917791E+03  0.79813679636E+03  0.91661431288E+03  0.40000000000E+03 0. -1.
   -9000007    1    1    2    0  503 -0.18075912491E+03 -0.10239917791E+03 -0.67713652378E+02  0.45579007404E+03  0.40000000000E+03 0. -1.
<mgrwt>
<rscale>  2 0.45073213E+03</rscale>
<asrwt>0</asrwt>
<pdfrwt beam="1">  1       21 0.16175596E+00 0.45073213E+03</pdfrwt>
<pdfrwt beam="2">  1       21 0.49383173E-01 0.45073213E+03</pdfrwt>
<totfact> 0.80141987E+02</totfact>
</mgrwt>
</event>
<event>
 4    1  0.4689683E-002  0.4469251E+03  0.7818608E-02  0.1028643E+00
         21   -1    0    0  501  502  0.00000000000E+00  0.00000000000E+00  0.50058415577E+03  0.50058415577E+03  0.00000000000E+00 0. -1.
         21   -1    0    0  502  503 -0.00000000000E+00 -0.00000000000E+00 -0.57894624577E+03  0.57894624577E+03  0.00000000000E+00 0.  1.
    9000007    1    1    2  501    0  0.82729073555E+02 -0.18137792914E+03  0.26172819241E+03  0.51792248406E+03  0.40000000000E+03 0. -1.
   -9000007    1    1    2    0  503 -0.82729073555E+02  0.18137792914E+03 -0.34009028240E+03  0.56160791748E+03  0.40000000000E+03 0.  1.
<mgrwt>
<rscale>  2 0.44692511E+03</rscale>
<asrwt>0</asrwt>
<pdfrwt beam="1">  1       21 0.77012947E-01 0.44692511E+03</pdfrwt>
<pdfrwt beam="2">  1       21 0.89068653E-01 0.44692511E+03</pdfrwt>
<totfact> 0.13827810E+03</totfact>
</mgrwt>
</event>
<event>
 4    1  0.4689683E-002  0.4393481E+03  0.7818608E-02  0.1030947E+00
         21   -1    0    0  501  502  0.00000000000E+00  0.00000000000E+00  0.15231184427E+03  0.15231184427E+03  0.00000000000E+00 0. -1.
         21   -1    0    0  502  503 -0.00000000000E+00 -0.00000000000E+00 -0.15585456010E+04  0.15585456010E+04  0.00000000000E+00 0. -1.
    9000007    1    1    2  501    0 -0.16619025923E+03 -0.73535780098E+02 -0.33333604709E+03  0.55148856154E+03  0.40000000000E+03 0. -1.
   -9000007    1    1    2    0  503  0.16619025923E+03  0.73535780098E+02 -0.10728977097E+04  0.11593688838E+04  0.40000000000E+03 0. -1.
<mgrwt>
<rscale>  2 0.43934805E+03</rscale>
<asrwt>0</asrwt>
<pdfrwt beam="1">  1       21 0.23432592E-01 0.43934805E+03</pdfrwt>
<pdfrwt beam="2">  1       21 0.23977624E+00 0.43934805E+03</pdfrwt>
<totfact> 0.10863802E+03</totfact>
</mgrwt>
</event>
<event>
 4    1  0.4689683E-002  0.5825377E+03  0.7818608E-02  0.9942312E-01
         21   -1    0    0  501  502  0.00000000000E+00  0.00000000000E+00  0.28317787606E+04  0.28317787606E+04  0.00000000000E+00 0. -1.
         21   -1    0    0  502  503 -0.00000000000E+00 -0.00000000000E+00 -0.11995309580E+03  0.11995309580E+03  0.00000000000E+00 0. -1.
    9000007    1    1    2  501    0 -0.20756105428E+03 -0.36914568844E+03  0.14019486853E+04  0.15181601519E+04  0.40000000000E+03 0. -1.
   -9000007    1    1    2    0  503  0.20756105428E+03  0.36914568844E+03  0.13098769795E+04  0.14335717045E+04  0.40000000000E+03 0. -1.
<mgrwt>
<rscale>  2 0.58253766E+03</rscale>
<asrwt>0</asrwt>
<pdfrwt beam="1">  1       21 0.43565822E+00 0.58253766E+03</pdfrwt>
<pdfrwt beam="2">  1       21 0.18454325E-01 0.58253766E+03</pdfrwt>
<totfact> 0.95824338E+01</totfact>
</mgrwt>
</event>
<event>
 4    1  0.4689683E-002  0.4607810E+03  0.7818608E-02  0.1024555E+00
         21   -1    0    0  501  502  0.00000000000E+00  0.00000000000E+00  0.21557266726E+03  0.21557266726E+03  0.00000000000E+00 0.  1.
         21   -1    0    0  502  503 -0.00000000000E+00 -0.00000000000E+00 -0.99248539781E+03  0.99248539781E+03  0.00000000000E+00 0.  1.
    9000007    1    1    2  501    0  0.15156866220E+03 -0.17130701421E+03 -0.33567652942E+03  0.57008585747E+03  0.40000000000E+03 0.  1.
   -9000007    1    1    2    0  503 -0.15156866220E+03  0.17130701421E+03 -0.44123620113E+03  0.63797220760E+03  0.40000000000E+03 0.  1.
<mgrwt>
<rscale>  2 0.46078102E+03</rscale>
<asrwt>0</asrwt>
<pdfrwt beam="1">  1       21 0.33165027E-01 0.46078102E+03</pdfrwt>
<pdfrwt beam="2">  1       21 0.15269006E+00 0.46078102E+03</pdfrwt>
<totfact> 0.21301489E+03</totfact>
</mgrwt>
</event>
<event>
 4    1  0.4689683E-002  0.4545088E+03  0.7818608E-02  0.1026386E+00
         21   -1    0    0  503  502  0.00000000000E+00  0.00000000000E+00  0.30857533877E+03  0.30857533877E+03  0.00000000000E+00 0. -1.
         21   -1    0    0  501  503 -0.00000000000E+00 -0.00000000000E+00 -0.67599492090E+03  0.67599492090E+03  0.00000000000E+00 0. -1.
    9000007    1    1    2  501    0  0.42930281305E+02  0.21150710708E+03 -0.23211896960E+03  0.51035035167E+03  0.40000000000E+03 0. -1.
   -9000007    1    1    2    0  502 -0.42930281305E+02 -0.21150710708E+03 -0.13530061252E+03  0.47421990800E+03  0.40000000000E+03 0. -1.
<mgrwt>
<rscale>  2 0.45450882E+03</rscale>
<asrwt>0</asrwt>
<pdfrwt beam="1">  1       21 0.47473129E-01 0.45450882E+03</pdfrwt>
<pdfrwt beam="2">  1       21 0.10399922E+00 0.45450882E+03</pdfrwt>
<totfact> 0.27482041E+03</totfact>
</mgrwt>
</event>
<event>
 4    1  0.4689683E-002  0.5000536E+03  0.7818608E-02  0.1013765E+00
         21   -1    0    0  503  502  0.00000000000E+00  0.00000000000E+00  0.53638508167E+03  0.53638508167E+03  0.00000000000E+00 0.  1.
         21   -1    0    0  501  503 -0.00000000000E+00 -0.00000000000E+00 -0.73081706834E+03  0.73081706834E+03  0.00000000000E+00 0. -1.
    9000007    1    1    2  501    0 -0.24300063130E+03 -0.17608048896E+03 -0.47848752736E+03  0.69210111923E+03  0.40000000000E+03 0. -1.
   -9000007    1    1    2    0  502  0.24300063130E+03  0.17608048896E+03  0.28405554069E+03  0.57510103078E+03  0.40000000000E+03 0.  1.
<mgrwt>
<rscale>  2 0.50005364E+03</rscale>
<asrwt>0</asrwt>
<pdfrwt beam="1">  1       21 0.82520782E-01 0.50005364E+03</pdfrwt>
<pdfrwt beam="2">  1       21 0.11243339E+00 0.50005364E+03</pdfrwt>
<totfact> 0.65486393E+02</totfact>
</mgrwt>
</event>
<event>
 4    1  0.4689683E-002  0.4142896E+03  0.7818608E-02  0.1038941E+00
         21   -1    0    0  501  502  0.00000000000E+00  0.00000000000E+00  0.41923627196E+03  0.41923627196E+03  0.00000000000E+00 0. -1.
         21   -1    0    0  502  503 -0.00000000000E+00 -0.00000000000E+00 -0.57348912062E+03  0.57348912062E+03  0.00000000000E+00 0. -1.
    9000007    1    1    2  501    0  0.90741785846E+02  0.58324992721E+02  0.18837980271E+03  0.45510748900E+03  0.40000000000E+03 0.  1.
   -9000007    1    1    2    0  503 -0.90741785846E+02 -0.58324992721E+02 -0.34263265137E+03  0.53761790359E+03  0.40000000000E+03 0.  1.
<mgrwt>
<rscale>  2 0.41428960E+03</rscale>
<asrwt>0</asrwt>
<pdfrwt beam="1">  1       21 0.64497888E-01 0.41428960E+03</pdfrwt>
<pdfrwt beam="2">  1       21 0.88229095E-01 0.41428960E+03</pdfrwt>
<totfact> 0.21361454E+03</totfact>
</mgrwt>
</event>
<event>
 4    1  0.4689683E-002  0.5141699E+03  0.7818608E-02  0.1010145E+00
         21   -1    0    0  503  502  0.00000000000E+00  0.00000000000E+00  0.20303310143E+03  0.20303310143E+03  0.00000000000E+00 0.  1.
         21   -1    0    0  501  503 -0.00000000000E+00 -0.00000000000E+00 -0.13208301101E+04  0.13208301101E+04  0.00000000000E+00 0.  1.
    9000007    1    1    2  501    0  0.29027666852E+03  0.14181037824E+03 -0.46818187034E+03  0.69538837449E+03  0.40000000000E+03 0.  1.
   -9000007    1    1    2    0  502 -0.29027666852E+03 -0.14181037824E+03 -0.64961513835E+03  0.82847483706E+03  0.40000000000E+03 0.  1.
<mgrwt>
<rscale>  2 0.51416994E+03</rscale>
<asrwt>0</asrwt>
<pdfrwt beam="1">  1       21 0.31235861E-01 0.51416994E+03</pdfrwt>
<pdfrwt beam="2">  1       21 0.20320464E+00 0.51416994E+03</pdfrwt>
<totfact> 0.10241141E+03</totfact>
</mgrwt>
</event>
<event>
 4    1  0.4689683E-002  0.7159945E+03  0.7818608E-02  0.9690264E-01
         21   -1    0    0  503  502  0.00000000000E+00  0.00000000000E+00  0.60741421257E+03  0.60741421257E+03  0.00000000000E+00 0. -1.
         21   -1    0    0  501  503 -0.00000000000E+00 -0.00000000000E+00 -0.91402450617E+03  0.91402450617E+03  0.00000000000E+00 0.  1.
    9000007    1    1    2  501    0  0.32505952978E+02  0.59295151918E+03  0.57275685423E+02  0.71828173109E+03  0.40000000000E+03 0. -1.
   -9000007    1    1    2    0  502 -0.32505952978E+02 -0.59295151918E+03 -0.36388597902E+03  0.80315698765E+03  0.40000000000E+03 0.  1.
<mgrwt>
<rscale>  2 0.71599451E+03</rscale>
<asrwt>0</asrwt>
<pdfrwt beam="1">  1       21 0.93448341E-01 0.71599451E+03</pdfrwt>
<pdfrwt beam="2">  1       21 0.14061915E+00 0.71599451E+03</pdfrwt>
<totfact> 0.25354823E+02</totfact>
</mgrwt>
</event>
<event>
 4    1  0.4689683E-002  0.5219772E+03  0.7818608E-02  0.1008197E+00
         21   -1    0    0  503  502  0.00000000000E+00  0.00000000000E+00  0.64675245944E+03  0.64675245944E+03  0.00000000000E+00 0.  1.
         21   -1    0    0  501  503 -0.00000000000E+00 -0.00000000000E+00 -0.45017214276E+03  0.45017214276E+03  0.00000000000E+00 0.  1.
    9000007    1    1    2  501    0  0.33523799883E+03  0.87005084084E+01 -0.40669869829E+02  0.52355921634E+03  0.40000000000E+03 0.  1.
   -9000007    1    1    2    0  502 -0.33523799883E+03 -0.87005084084E+01  0.23725018651E+03  0.57336538586E+03  0.40000000000E+03 0.  1.
<mgrwt>
<rscale>  2 0.52197722E+03</rscale>
<asrwt>0</asrwt>
<pdfrwt beam="1">  1       21 0.99500379E-01 0.52197722E+03</pdfrwt>
<pdfrwt beam="2">  1       21 0.69257252E-01 0.52197722E+03</pdfrwt>
<totfact> 0.13131398E+03</totfact>
</mgrwt>
</event>
<event>
 4    1  0.4689683E-002  0.4455702E+03  0.7818608E-02  0.1029051E+00
         21   -1    0    0  503  502  0.00000000000E+00  0.00000000000E+00  0.54231529792E+03  0.54231529792E+03  0.00000000000E+00 0. -1.
         21   -1    0    0  501  503 -0.00000000000E+00 -0.00000000000E+00 -0.59971516160E+03  0.59971516160E+03  0.00000000000E+00 0. -1.
    9000007    1    1    2  501    0  0.19026847853E+01  0.19628849337E+03 -0.38510250991E+03  0.58892846423E+03  0.40000000000E+03 0. -1.
   -9000007    1    1    2    0  502 -0.19026847853E+01 -0.19628849337E+03  0.32770264624E+03  0.55310199529E+03  0.40000000000E+03 0. -1.
<mgrwt>
<rscale>  2 0.44557019E+03</rscale>
<asrwt>0</asrwt>
<pdfrwt beam="1">  1       21 0.83433122E-01 0.44557019E+03</pdfrwt>
<pdfrwt beam="2">  1       21 0.92263871E-01 0.44557019E+03</pdfrwt>
<totfact> 0.10576242E+03</totfact>
</mgrwt>
</event>
<event>
 4    1  0.4689683E-002  0.5102849E+03  0.7818608E-02  0.1011129E+00
         21   -1    0    0  503  502  0.00000000000E+00  0.00000000000E+00  0.20869221786E+03  0.20869221786E+03  0.00000000000E+00 0.  1.
         21   -1    0    0  501  503 -0.00000000000E+00 -0.00000000000E+00 -0.12492522300E+04  0.12492522300E+04  0.00000000000E+00 0. -1.
    9000007    1    1    2  501    0 -0.21926518341E+03 -0.22872127212E+03 -0.54576240970E+03  0.74715945341E+03  0.40000000000E+03 0. -1.
   -9000007    1    1    2    0  502  0.21926518341E+03  0.22872127212E+03 -0.49479760248E+03  0.71078499450E+03  0.40000000000E+03 0.  1.
<mgrwt>
<rscale>  2 0.51028486E+03</rscale>
<asrwt>0</asrwt>
<pdfrwt beam="1">  1       21 0.32106496E-01 0.51028486E+03</pdfrwt>
<pdfrwt beam="2">  1       21 0.19219264E+00 0.51028486E+03</pdfrwt>
<totfact> 0.11517949E+03</totfact>
</mgrwt>
</event>
<event>
 4    1  0.4689683E-002  0.4526009E+03  0.7818608E-02  0.1026949E+00
         21   -1    0    0  503  502  0.00000000000E+00  0.00000000000E+00  0.17407615595E+04  0.17407615595E+04  0.00000000000E+00 0.  1.
         21   -1    0    0  501  503 -0.00000000000E+00 -0.00000000000E+00 -0.16373440614E+03  0.16373440614E+03  0.00000000000E+00 0.  1.
    9000007    1    1    2  501    0  0.59170715810E+02 -0.20333814624E+03  0.28346879726E+03  0.53404319521E+03  0.40000000000E+03 0.  1.
   -9000007    1    1    2    0  502 -0.59170715810E+02  0.20333814624E+03  0.12935583561E+04  0.13704527704E+04  0.40000000000E+03 0.  1.
<mgrwt>
<rscale>  2 0.45260090E+03</rscale>
<asrwt>0</asrwt>
<pdfrwt beam="1">  1       21 0.26780946E+00 0.45260090E+03</pdfrwt>
<pdfrwt beam="2">  1       21 0.25189910E-01 0.45260090E+03</pdfrwt>
<totfact> 0.63164740E+02</totfact>
</mgrwt>
</event>
<event>
 4    1  0.4689683E-002  0.4826354E+03  0.7818608E-02  0.1018413E+00
         21   -1    0    0  503  502  0.00000000000E+00  0.00000000000E+00  0.55022400964E+03  0.55022400964E+03  0.00000000000E+00 0.  1.
         21   -1    0    0  501  503 -0.00000000000E+00 -0.00000000000E+00 -0.55894618891E+03  0.55894618891E+03  0.00000000000E+00 0.  1.
    9000007    1    1    2  501    0  0.18335622243E+03 -0.19828632863E+03 -0.27751535873E+03  0.55673310191E+03  0.40000000000E+03 0.  1.
   -9000007    1    1    2    0  502 -0.18335622243E+03  0.19828632863E+03  0.26879317946E+03  0.55243709664E+03  0.40000000000E+03 0.  1.
<mgrwt>
<rscale>  2 0.48263544E+03</rscale>
<asrwt>0</asrwt>
<pdfrwt beam="1">  1       21 0.84649848E-01 0.48263544E+03</pdfrwt>
<pdfrwt beam="2">  1       21 0.85991721E-01 0.48263544E+03</pdfrwt>
<totfact> 0.11901448E+03</totfact>
</mgrwt>
</event>
<event>
 4    1  0.4689683E-002  0.4182970E+03  0.7818608E-02  0.1037622E+00
         21   -1    0    0  501  502  0.00000000000E+00  0.00000000000E+00  0.85191432424E+03  0.85191432424E+03  0.00000000000E+00 0.  1.
         21   -1    0    0  502  503 -0.00000000000E+00 -0.00000000000E+00 -0.23682736284E+03  0.23682736284E+03  0.00000000000E+00 0. -1.
    9000007    1    1    2  501    0 -0.12190205602E+03  0.10595857548E+02  0.50588818748E+03  0.65642611289E+03  0.40000000000E+03 0. -1.
   -9000007    1    1    2    0  503  0.12190205602E+03 -0.10595857548E+02  0.10919877392E+03  0.43231557419E+03  0.40000000000E+03 0. -1.
<mgrwt>
<rscale>  2 0.41829700E+03</rscale>
<asrwt>0</asrwt>
<pdfrwt beam="1">  1       21 0.13106374E+00 0.41829700E+03</pdfrwt>
<pdfrwt beam="2">  1       21 0.36434979E-01 0.41829700E+03</pdfrwt>
<totfact> 0.26903202E+03</totfact>
</mgrwt>
</event>
<event>
 4    1  0.4689683E-002  0.5111014E+03  0.7818608E-02  0.1010921E+00
         21   -1    0    0  501  502  0.00000000000E+00  0.00000000000E+00  0.33287799998E+03  0.33287799998E+03  0.00000000000E+00 0.  1.
         21   -1    0    0  502  503 -0.00000000000E+00 -0.00000000000E+00 -0.91208968717E+03  0.91208968717E+03  0.00000000000E+00 0.  1.
    9000007    1    1    2  501    0  0.30692093385E+03  0.83810121918E+02 -0.52219981048E+03  0.73069640634E+03  0.40000000000E+03 0.  1.
   -9000007    1    1    2    0  503 -0.30692093385E+03 -0.83810121918E+02 -0.57011876705E+02  0.51427128080E+03  0.40000000000E+03 0.  1.
<mgrwt>
<rscale>  2 0.51110136E+03</rscale>
<asrwt>0</asrwt>
<pdfrwt beam="1">  1       21 0.51212000E-01 0.51110136E+03</pdfrwt>
<pdfrwt beam="2">  1       21 0.14032149E+00 0.51110136E+03</pdfrwt>
<totfact> 0.10669024E+03</totfact>
</mgrwt>
</event>
<event>
 4    1  0.4689683E-002  0.4223969E+03  0.7818608E-02  0.1036289E+00
         21   -1    0    0  503  502  0.00000000000E+00  0.00000000000E+00  0.23552604734E+03  0.23552604734E+03  0.00000000000E+00 0.  1.
         21   -1    0    0  501  503 -0.00000000000E+00 -0.00000000000E+00 -0.82836788504E+03  0.82836788504E+03  0.00000000000E+00 0.  1.
    9000007    1    1    2  501    0 -0.12887629846E+03  0.42545008210E+02 -0.14086921336E+03  0.44526768724E+03  0.40000000000E+03 0.  1.
   -9000007    1    1    2    0  502  0.12887629846E+03 -0.42545008210E+02 -0.45197262433E+03  0.61862624514E+03  0.40000000000E+03 0.  1.
<mgrwt>
<rscale>  2 0.42239694E+03</rscale>
<asrwt>0</asrwt>
<pdfrwt beam="1">  1       21 0.36234777E-01 0.42239694E+03</pdfrwt>
<pdfrwt beam="2">  1       21 0.12744121E+00 0.42239694E+03</pdfrwt>
<totfact> 0.29203397E+03</totfact>
</mgrwt>
</event>
<event>
 4    1  0.4689683E-002  0.6253233E+03  0.7818608E-02  0.9854218E-01
         21   -1    0    0  501  502  0.00000000000E+00  0.00000000000E+00  0.77423116949E+03  0.77423116949E+03  0.00000000000E+00 0.  1.
         21   -1    0    0  502  503 -0.00000000000E+00 -0.00000000000E+00 -0.51479174083E+03  0.51479174083E+03  0.00000000000E+00 0. -1.
    9000007    1    1    2  501    0 -0.43995616221E+03  0.19356601731E+03  0.21835862576E+03  0.66235165673E+03  0.40000000000E+03 0.  1.
   -9000007    1    1    2    0  503  0.43995616221E+03 -0.19356601731E+03  0.41080802898E+02  0.62667125360E+03  0.40000000000E+03 0. -1.
<mgrwt>
<rscale>  2 0.62532330E+03</rscale>
<asrwt>0</asrwt>
<pdfrwt beam="1">  1       21 0.11911249E+00 0.62532330E+03</pdfrwt>
<pdfrwt beam="2">  1       21 0.79198730E-01 0.62532330E+03</pdfrwt>
<totfact> 0.59653358E+02</totfact>
</mgrwt>
</event>
<event>
 4    1  0.4689683E-002  0.4228709E+03  0.7818608E-02  0.1036136E+00
         21   -1    0    0  501  502  0.00000000000E+00  0.00000000000E+00  0.32203016994E+03  0.32203016994E+03  0.00000000000E+00 0.  1.
         21   -1    0    0  502  503 -0.00000000000E+00 -0.00000000000E+00 -0.64363463557E+03  0.64363463557E+03  0.00000000000E+00 0.  1.
    9000007    1    1    2  501    0  0.80532724972E+02  0.11105989260E+03  0.18080816475E+02  0.42325729227E+03  0.40000000000E+03 0. -1.
   -9000007    1    1    2    0  503 -0.80532724972E+02 -0.11105989260E+03 -0.33968528211E+03  0.54240751324E+03  0.40000000000E+03 0. -1.
<mgrwt>
<rscale>  2 0.42287093E+03</rscale>
<asrwt>0</asrwt>
<pdfrwt beam="1">  1       21 0.49543104E-01 0.42287093E+03</pdfrwt>
<pdfrwt beam="2">  1       21 0.99020711E-01 0.42287093E+03</pdfrwt>
<totfact> 0.28635176E+03</totfact>
</mgrwt>
</event>
<event>
 4    1  0.4689683E-002  0.4461401E+03  0.7818608E-02  0.1028879E+00
         21   -1    0    0  503  502  0.00000000000E+00  0.00000000000E+00  0.10623419494E+04  0.10623419494E+04  0.00000000000E+00 0.  1.
         21   -1    0    0  501  503 -0.00000000000E+00 -0.00000000000E+00 -0.21133503139E+03  0.21133503139E+03  0.00000000000E+00 0. -1.
    9000007    1    1    2  501    0  0.16918594214E+03 -0.10206439267E+03  0.21100818349E+03  0.49352353213E+03  0.40000000000E+03 0. -1.
   -9000007    1    1    2    0  502 -0.16918594214E+03  0.10206439267E+03  0.63999873449E+03  0.78015344863E+03  0.40000000000E+03 0.  1.
<mgrwt>
<rscale>  2 0.44614014E+03</rscale>
<asrwt>0</asrwt>
<pdfrwt beam="1">  1       21 0.16343722E+00 0.44614014E+03</pdfrwt>
<pdfrwt beam="2">  1       21 0.32513082E-01 0.44614014E+03</pdfrwt>
<totfact> 0.18465881E+03</totfact>
</mgrwt>
</event>
<event>
 4    1  0.4689683E-002  0.4420755E+03  0.7818608E-02  0.1030112E+00
         21   -1    0    0  501  502  0.00000000000E+00  0.00000000000E+00  0.26305204735E+03  0.26305204735E+03  0.00000000000E+00 0. -1.
         21   -1    0    0  502  503 -0.00000000000E+00 -0.00000000000E+00 -0.98897527993E+03  0.98897527993E+03  0.00000000000E+00 0. -1.
    9000007    1    1    2  501    0  0.81025117653E+02  0.16989898277E+03 -0.50717934296E+02  0.44497532841E+03  0.40000000000E+03 0. -1.
   -9000007    1    1    2    0  503 -0.81025117653E+02 -0.16989898277E+03 -0.67520529829E+03  0.80705199887E+03  0.40000000000E+03 0. -1.
<mgrwt>
<rscale>  2 0.44207548E+03</rscale>
<asrwt>0</asrwt>
<pdfrwt beam="1">  1       21 0.40469545E-01 0.44207548E+03</pdfrwt>
<pdfrwt beam="2">  1       21 0.15215004E+00 0.44207548E+03</pdfrwt>
<totfact> 0.14450100E+03</totfact>
</mgrwt>
</event>
<event>
 4    1  0.4689683E-002  0.6155215E+03  0.7818608E-02  0.9873717E-01
         21   -1    0    0  501  502  0.00000000000E+00  0.00000000000E+00  0.10482310544E+04  0.10482310544E+04  0.00000000000E+00 0.  1.
         21   -1    0    0  502  503 -0.00000000000E+00 -0.00000000000E+00 -0.64035487843E+03  0.64035487843E+03  0.00000000000E+00 0. -1.
    9000007    1    1    2  501    0  0.27647106309E+03  0.37739955845E+03  0.76115344249E+03  0.97888775580E+03  0.40000000000E+03 0.  1.
   -9000007    1    1    2    0  503 -0.27647106309E+03 -0.37739955845E+03 -0.35327726652E+03  0.70969817703E+03  0.40000000000E+03 0. -1.
<mgrwt>
<rscale>  2 0.61552147E+03</rscale>
<asrwt>0</asrwt>
<pdfrwt beam="1">  1       21 0.16126632E+00 0.61552147E+03</pdfrwt>
<pdfrwt beam="2">  1       21 0.98516135E-01 0.61552147E+03</pdfrwt>
<totfact> 0.15808031E+02</totfact>
</mgrwt>
</event>
<event>
 4    1  0.4689683E-002  0.4353326E+03  0.7818608E-02  0.1032189E+00
         21   -1    0    0  503  502  0.00000000000E+00  0.00000000000E+00  0.23926216757E+03  0.23926216757E+03  0.00000000000E+00 0.  1.
         21   -1    0    0  501  503 -0.00000000000E+00 -0.00000000000E+00 -0.80735618858E+03  0.80735618858E+03  0.00000000000E+00 0.  1.
    9000007    1    1    2  501    0  0.94302440191E+02  0.14360187271E+03 -0.35603380737E+03  0.56238289453E+03  0.40000000000E+03 0.  1.
   -9000007    1    1    2    0  502 -0.94302440191E+02 -0.14360187271E+03 -0.21206021364E+03  0.48423546161E+03  0.40000000000E+03 0.  1.
<mgrwt>
<rscale>  2 0.43533257E+03</rscale>
<asrwt>0</asrwt>
<pdfrwt beam="1">  1       21 0.36809564E-01 0.43533257E+03</pdfrwt>
<pdfrwt beam="2">  1       21 0.12420865E+00 0.43533257E+03</pdfrwt>
<totfact> 0.30066463E+03</totfact>
</mgrwt>
</event>
<event>
 4    1  0.4689683E-002  0.4118447E+03  0.7818608E-02  0.1039754E+00
         21   -1    0    0  503  502  0.00000000000E+00  0.00000000000E+00  0.13054971653E+03  0.13054971653E+03  0.00000000000E+00 0.  1.
         21   -1    0    0  501  503 -0.00000000000E+00 -0.00000000000E+00 -0.14102450845E+04  0.14102450845E+04  0.00000000000E+00 0.  1.
    9000007    1    1    2  501    0 -0.72185890436E+02  0.66372203711E+02 -0.42371070345E+03  0.59088648015E+03  0.40000000000E+03 0.  1.
   -9000007    1    1    2    0  502  0.72185890436E+02 -0.66372203711E+02 -0.85598466455E+03  0.94990832092E+03  0.40000000000E+03 0.  1.
<mgrwt>
<rscale>  2 0.41184472E+03</rscale>
<asrwt>0</asrwt>
<pdfrwt beam="1">  1       21 0.20084571E-01 0.41184472E+03</pdfrwt>
<pdfrwt beam="2">  1       21 0.21696079E+00 0.41184472E+03</pdfrwt>
<totfact> 0.20593667E+03</totfact>
</mgrwt>
</event>
<event>
 4    1  0.4689683E-002  0.5002711E+03  0.7818608E-02  0.1013708E+00
         21   -1    0    0  501  502  0.00000000000E+00  0.00000000000E+00  0.10497908518E+04  0.10497908518E+04  0.00000000000E+00 0.  1.
         21   -1    0    0  502  503 -0.00000000000E+00 -0.00000000000E+00 -0.23948397296E+03  0.23948397296E+03  0.00000000000E+00 0.  1.
    9000007    1    1    2  501    0 -0.61935762788E+02 -0.29399849219E+03  0.44850383891E+03  0.67188305950E+03  0.40000000000E+03 0.  1.
   -9000007    1    1    2    0  503  0.61935762788E+02  0.29399849219E+03  0.36180303994E+03  0.61739176528E+03  0.40000000000E+03 0.  1.
<mgrwt>
<rscale>  2 0.50027108E+03</rscale>
<asrwt>0</asrwt>
<pdfrwt beam="1">  1       21 0.16150628E+00 0.50027108E+03</pdfrwt>
<pdfrwt beam="2">  1       21 0.36843689E-01 0.50027108E+03</pdfrwt>
<totfact> 0.14512463E+03</totfact>
</mgrwt>
</event>
<event>
 4    1  0.4689683E-002  0.4360582E+03  0.7818608E-02  0.1031963E+00
         21   -1    0    0  501  502  0.00000000000E+00  0.00000000000E+00  0.14483916631E+04  0.14483916631E+04  0.00000000000E+00 0. -1.
         21   -1    0    0  502  503 -0.00000000000E+00 -0.00000000000E+00 -0.13426579600E+03  0.13426579600E+03  0.00000000000E+00 0. -1.
    9000007    1    1    2  501    0 -0.84984152240E+02 -0.15140835554E+03  0.77504253755E+03  0.88929057752E+03  0.40000000000E+03 0. -1.
   -9000007    1    1    2    0  503  0.84984152240E+02  0.15140835554E+03  0.53908332954E+03  0.69336688156E+03  0.40000000000E+03 0. -1.
<mgrwt>
<rscale>  2 0.43605825E+03</rscale>
<asrwt>0</asrwt>
<pdfrwt beam="1">  1       21 0.22282948E+00 0.43605825E+03</pdfrwt>
<pdfrwt beam="2">  1       21 0.20656277E-01 0.43605825E+03</pdfrwt>
<totfact> 0.17707368E+03</totfact>
</mgrwt>
</event>
<event>
 4    1  0.4689683E-002  0.5271042E+03  0.7818608E-02  0.1006937E+00
         21   -1    0    0  503  502  0.00000000000E+00  0.00000000000E+00  0.15567891516E+03  0.15567891516E+03  0.00000000000E+00 0. -1.
         21   -1    0    0  501  503 -0.00000000000E+00 -0.00000000000E+00 -0.20527780608E+04  0.20527780608E+04  0.00000000000E+00 0. -1.
    9000007    1    1    2  501    0 -0.24574143240E+03 -0.23968727648E+03 -0.13475978513E+04  0.14470172117E+04  0.40000000000E+03 0. -1.
   -9000007    1    1    2    0  502  0.24574143240E+03  0.23968727648E+03 -0.54950129430E+03  0.76143976422E+03  0.40000000000E+03 0. -1.
<mgrwt>
<rscale>  2 0.52710420E+03</rscale>
<asrwt>0</asrwt>
<pdfrwt beam="1">  1       21 0.23950606E-01 0.52710420E+03</pdfrwt>
<pdfrwt beam="2">  1       21 0.31581196E+00 0.52710420E+03</pdfrwt>
<totfact> 0.34365991E+02</totfact>
</mgrwt>
</event>
<event>
 4    1  0.4689683E-002  0.4015164E+03  0.7818608E-02  0.1043256E+00
         21   -1    0    0  503  502  0.00000000000E+00  0.00000000000E+00  0.82303153260E+03  0.82303153260E+03  0.00000000000E+00 0. -1.
         21   -1    0    0  501  503 -0.00000000000E+00 -0.00000000000E+00 -0.22910374960E+03  0.22910374960E+03  0.00000000000E+00 0. -1.
    9000007    1    1    2  501    0 -0.85793236877E+01  0.33790933873E+02  0.96632185070E+02  0.41298088479E+03  0.40000000000E+03 0. -1.
   -9000007    1    1    2    0  502  0.85793236877E+01 -0.33790933873E+02  0.49729559793E+03  0.63915439741E+03  0.40000000000E+03 0. -1.
<mgrwt>
<rscale>  2 0.40151642E+03</rscale>
<asrwt>0</asrwt>
<pdfrwt beam="1">  1       21 0.12662023E+00 0.40151642E+03</pdfrwt>
<pdfrwt beam="2">  1       21 0.35246731E-01 0.40151642E+03</pdfrwt>
<totfact> 0.31667998E+03</totfact>
</mgrwt>
</event>
<event>
 4    1  0.4689683E-002  0.5469686E+03  0.7818608E-02  0.1002198E+00
         21   -1    0    0  503  502  0.00000000000E+00  0.00000000000E+00  0.72700614020E+03  0.72700614020E+03  0.00000000000E+00 0. -1.
         21   -1    0    0  501  503 -0.00000000000E+00 -0.00000000000E+00 -0.51124956224E+03  0.51124956224E+03  0.00000000000E+00 0. -1.
    9000007    1    1    2  501    0  0.33093722069E+03  0.17220698934E+03 -0.16557580830E+03  0.57148056792E+03  0.40000000000E+03 0. -1.
   -9000007    1    1    2    0  502 -0.33093722069E+03 -0.17220698934E+03  0.38133238626E+03  0.66677513453E+03  0.40000000000E+03 0. -1.
<mgrwt>
<rscale>  2 0.54696864E+03</rscale>
<asrwt>0</asrwt>
<pdfrwt beam="1">  1       21 0.11184710E+00 0.54696864E+03</pdfrwt>
<pdfrwt beam="2">  1       21 0.78653779E-01 0.54696864E+03</pdfrwt>
<totfact> 0.72904466E+02</totfact>
</mgrwt>
</event>
<event>
 4    1  0.4689683E-002  0.4063731E+03  0.7818608E-02  0.1041595E+00
         21   -1    0    0  501  502  0.00000000000E+00  0.00000000000E+00  0.82559540351E+03  0.82559540351E+03  0.00000000000E+00 0. -1.
         21   -1    0    0  502  503 -0.00000000000E+00 -0.00000000000E+00 -0.20252189716E+03  0.20252189716E+03  0.00000000000E+00 0. -1.
    9000007    1    1    2  501    0  0.29044144692E+02  0.65540307228E+02  0.25444899649E+03  0.47946155845E+03  0.40000000000E+03 0. -1.
   -9000007    1    1    2    0  503 -0.29044144692E+02 -0.65540307228E+02  0.36862450986E+03  0.54865574223E+03  0.40000000000E+03 0. -1.
<mgrwt>
<rscale>  2 0.40637310E+03</rscale>
<asrwt>0</asrwt>
<pdfrwt beam="1">  1       21 0.12701468E+00 0.40637310E+03</pdfrwt>
<pdfrwt beam="2">  1       21 0.31157215E-01 0.40637310E+03</pdfrwt>
<totfact> 0.40153020E+03</totfact>
</mgrwt>
</event>
<event>
 4    1  0.4689683E-002  0.4319649E+03  0.7818608E-02  0.1033241E+00
         21   -1    0    0  503  502  0.00000000000E+00  0.00000000000E+00  0.77777631468E+03  0.77777631468E+03  0.00000000000E+00 0. -1.
         21   -1    0    0  501  503 -0.00000000000E+00 -0.00000000000E+00 -0.26788121833E+03  0.26788121833E+03  0.00000000000E+00 0.  1.
    9000007    1    1    2  501    0 -0.12909554259E+03  0.99639527968E+02  0.42390221537E+03  0.60521631079E+03  0.40000000000E+03 0. -1.
   -9000007    1    1    2    0  502  0.12909554259E+03 -0.99639527968E+02  0.85992880973E+02  0.44044122222E+03  0.40000000000E+03 0.  1.
<mgrwt>
<rscale>  2 0.43196492E+03</rscale>
<asrwt>0</asrwt>
<pdfrwt beam="1">  1       21 0.11965789E+00 0.43196492E+03</pdfrwt>
<pdfrwt beam="2">  1       21 0.41212495E-01 0.43196492E+03</pdfrwt>
<totfact> 0.26267332E+03</totfact>
</mgrwt>
</event>
<event>
 4    1  0.4689683E-002  0.5566707E+03  0.7818608E-02  0.9999616E-01
         21   -1    0    0  501  502  0.00000000000E+00  0.00000000000E+00  0.34427323176E+03  0.34427323176E+03  0.00000000000E+00 0. -1.
         21   -1    0    0  502  503 -0.00000000000E+00 -0.00000000000E+00 -0.93264979327E+03  0.93264979327E+03  0.00000000000E+00 0. -1.
    9000007    1    1    2  501    0 -0.21570587692E+03  0.32148607492E+03 -0.17492381780E+03  0.58350720967E+03  0.40000000000E+03 0.  1.
   -9000007    1    1    2    0  503  0.21570587692E+03 -0.32148607492E+03 -0.41345274371E+03  0.69341581535E+03  0.40000000000E+03 0.  1.
<mgrwt>
<rscale>  2 0.55667075E+03</rscale>
<asrwt>0</asrwt>
<pdfrwt beam="1">  1       21 0.52965113E-01 0.55667075E+03</pdfrwt>
<pdfrwt beam="2">  1       21 0.14348458E+00 0.55667075E+03</pdfrwt>
<totfact> 0.91985770E+02</totfact>
</mgrwt>
</event>
<event>
 4    1  0.4689683E-002  0.6546141E+03  0.7818608E-02  0.9798160E-01
         21   -1    0    0  503  502  0.00000000000E+00  0.00000000000E+00  0.55694326871E+03  0.55694326871E+03  0.00000000000E+00 0. -1.
         21   -1    0    0  501  503 -0.00000000000E+00 -0.00000000000E+00 -0.77039077308E+03  0.77039077308E+03  0.00000000000E+00 0. -1.
    9000007    1    1    2  501    0 -0.28797332711E+03  0.43080266560E+03 -0.13036339501E+03  0.66746849257E+03  0.40000000000E+03 0. -1.
   -9000007    1    1    2    0  502  0.28797332711E+03 -0.43080266560E+03 -0.83084109367E+02  0.65986554922E+03  0.40000000000E+03 0. -1.
<mgrwt>
<rscale>  2 0.65461406E+03</rscale>
<asrwt>0</asrwt>
<pdfrwt beam="1">  1       21 0.85683580E-01 0.65461406E+03</pdfrwt>
<pdfrwt beam="2">  1       21 0.11852166E+00 0.65461406E+03</pdfrwt>
<totfact> 0.49796264E+02</totfact>
</mgrwt>
</event>
<event>
 4    1  0.4689683E-002  0.4261034E+03  0.7818608E-02  0.1035098E+00
         21   -1    0    0  501  502  0.00000000000E+00  0.00000000000E+00  0.52465378872E+03  0.52465378872E+03  0.00000000000E+00 0.  1.
         21   -1    0    0  502  503 -0.00000000000E+00 -0.00000000000E+00 -0.49855883258E+03  0.49855883258E+03  0.00000000000E+00 0.  1.
    9000007    1    1    2  501    0  0.13371623934E+03  0.60696873097E+02  0.29599395292E+03  0.51882228483E+03  0.40000000000E+03 0.  1.
   -9000007    1    1    2    0  503 -0.13371623934E+03 -0.60696873097E+02 -0.26989899678E+03  0.50439033648E+03  0.40000000000E+03 0.  1.
<mgrwt>
<rscale>  2 0.42610344E+03</rscale>
<asrwt>0</asrwt>
<pdfrwt beam="1">  1       21 0.80715967E-01 0.42610344E+03</pdfrwt>
<pdfrwt beam="2">  1       21 0.76701359E-01 0.42610344E+03</pdfrwt>
<totfact> 0.17714729E+03</totfact>
</mgrwt>
</event>
<event>
 4    1  0.4689683E-002  0.4621701E+03  0.7818608E-02  0.1024154E+00
         21   -1    0    0  503  502  0.00000000000E+00  0.00000000000E+00  0.19211276723E+04  0.19211276723E+04  0.00000000000E+00 0. -1.
         21   -1    0    0  501  503 -0.00000000000E+00 -0.00000000000E+00 -0.13289545994E+03  0.13289545994E+03  0.00000000000E+00 0.  1.
    9000007    1    1    2  501    0  0.23141404887E+03 -0.69813460039E+01  0.13092149669E+04  0.13883965683E+04  0.40000000000E+03 0. -1.
   -9000007    1    1    2    0  502 -0.23141404887E+03  0.69813460039E+01  0.47901724545E+03  0.66562656395E+03  0.40000000000E+03 0.  1.
<mgrwt>
<rscale>  2 0.46217010E+03</rscale>
<asrwt>0</asrwt>
<pdfrwt beam="1">  1       21 0.29555808E+00 0.46217010E+03</pdfrwt>
<pdfrwt beam="2">  1       21 0.20445457E-01 0.46217010E+03</pdfrwt>
<totfact> 0.63903335E+02</totfact>
</mgrwt>
</event>
<event>
 4    1  0.4689683E-002  0.4217141E+03  0.7818608E-02  0.1036510E+00
         21   -1    0    0  501  502  0.00000000000E+00  0.00000000000E+00  0.49943464912E+03  0.49943464912E+03  0.00000000000E+00 0.  1.
         21   -1    0    0  502  503 -0.00000000000E+00 -0.00000000000E+00 -0.46514899500E+03  0.46514899500E+03  0.00000000000E+00 0.  1.
    9000007    1    1    2  501    0 -0.13338912096E+03  0.70795100965E+01  0.25067580458E+03  0.49059263759E+03  0.40000000000E+03 0.  1.
   -9000007    1    1    2    0  503  0.13338912096E+03 -0.70795100965E+01 -0.21639015046E+03  0.47399100653E+03  0.40000000000E+03 0.  1.
<mgrwt>
<rscale>  2 0.42171409E+03</rscale>
<asrwt>0</asrwt>
<pdfrwt beam="1">  1       21 0.76836100E-01 0.42171409E+03</pdfrwt>
<pdfrwt beam="2">  1       21 0.71561384E-01 0.42171409E+03</pdfrwt>
<totfact> 0.23267730E+03</totfact>
</mgrwt>
</event>
<event>
 4    1  0.4689683E-002  0.6893608E+03  0.7818608E-02  0.9735602E-01
         21   -1    0    0  503  502  0.00000000000E+00  0.00000000000E+00  0.28594094595E+04  0.28594094595E+04  0.00000000000E+00 0. -1.
         21   -1    0    0  501  503 -0.00000000000E+00 -0.00000000000E+00 -0.20590785808E+03  0.20590785808E+03  0.00000000000E+00 0.  1.
    9000007    1    1    2  501    0  0.55474434670E+03  0.86470140841E+02  0.65365510971E+03  0.94999125148E+03  0.40000000000E+03 0.  1.
   -9000007    1    1    2    0  502 -0.55474434670E+03 -0.86470140841E+02  0.19998464917E+04  0.21153260661E+04  0.40000000000E+03 0. -1.
<mgrwt>
<rscale>  2 0.68936085E+03</rscale>
<asrwt>0</asrwt>
<pdfrwt beam="1">  1       21 0.43990912E+00 0.68936085E+03</pdfrwt>
<pdfrwt beam="2">  1       21 0.31678134E-01 0.68936085E+03</pdfrwt>
<totfact> 0.29585480E+01</totfact>
</mgrwt>
</event>
<event>
 4    1  0.4689683E-002  0.6697023E+03  0.7818608E-02  0.9770496E-01
         21   -1    0    0  501  502  0.00000000000E+00  0.00000000000E+00  0.19039502766E+04  0.19039502766E+04  0.00000000000E+00 0. -1.
         21   -1    0    0  502  503 -0.00000000000E+00 -0.00000000000E+00 -0.33230964070E+03  0.33230964070E+03  0.00000000000E+00 0.  1.
    9000007    1    1    2  501    0 -0.53583082059E+03  0.37235281208E+02  0.13891264019E+04  0.15421327099E+04  0.40000000000E+03 0. -1.
   -9000007    1    1    2    0  503  0.53583082059E+03 -0.37235281208E+02  0.18251423402E+03  0.69412720742E+03  0.40000000000E+03 0.  1.
<mgrwt>
<rscale>  2 0.66970227E+03</rscale>
<asrwt>0</asrwt>
<pdfrwt beam="1">  1       21 0.29291542E+00 0.66970227E+03</pdfrwt>
<pdfrwt beam="2">  1       21 0.51124561E-01 0.66970227E+03</pdfrwt>
<totfact> 0.94569227E+01</totfact>
</mgrwt>
</event>
<event>
 4    1  0.4689683E-002  0.4706217E+03  0.7818608E-02  0.1021745E+00
         21   -1    0    0  501  502  0.00000000000E+00  0.00000000000E+00  0.31974686767E+03  0.31974686767E+03  0.00000000000E+00 0.  1.
         21   -1    0    0  502  503 -0.00000000000E+00 -0.00000000000E+00 -0.89473462640E+03  0.89473462640E+03  0.00000000000E+00 0. -1.
    9000007    1    1    2  501    0  0.17169847084E+03  0.17889781583E+03  0.10684723270E+01  0.47062292234E+03  0.40000000000E+03 0.  1.
   -9000007    1    1    2    0  503 -0.17169847084E+03 -0.17889781583E+03 -0.57605623106E+03  0.74385857173E+03  0.40000000000E+03 0. -1.
<mgrwt>
<rscale>  2 0.47062171E+03</rscale>
<asrwt>0</asrwt>
<pdfrwt beam="1">  1       21 0.49191826E-01 0.47062171E+03</pdfrwt>
<pdfrwt beam="2">  1       21 0.13765148E+00 0.47062171E+03</pdfrwt>
<totfact> 0.12425692E+03</totfact>
</mgrwt>
</event>
<event>
 4    1  0.4689683E-002  0.5446545E+03  0.7818608E-02  0.1002739E+00
         21   -1    0    0  501  502  0.00000000000E+00  0.00000000000E+00  0.16854476333E+04  0.16854476333E+04  0.00000000000E+00 0.  1.
         21   -1    0    0  502  503 -0.00000000000E+00 -0.00000000000E+00 -0.19053199809E+03  0.19053199809E+03  0.00000000000E+00 0.  1.
    9000007    1    1    2  501    0 -0.33741946852E+03 -0.15098551033E+03  0.10064522757E+04  0.11443752467E+04  0.40000000000E+03 0.  1.
   -9000007    1    1    2    0  503  0.33741946852E+03  0.15098551033E+03  0.48846335949E+03  0.73160438464E+03  0.40000000000E+03 0.  1.
<mgrwt>
<rscale>  2 0.54465450E+03</rscale>
<asrwt>0</asrwt>
<pdfrwt beam="1">  1       21 0.25929963E+00 0.54465450E+03</pdfrwt>
<pdfrwt beam="2">  1       21 0.29312616E-01 0.54465450E+03</pdfrwt>
<totfact> 0.50544315E+02</totfact>
</mgrwt>
</event>
<event>
 4    1  0.4689683E-002  0.4661971E+03  0.7818608E-02  0.1022999E+00
         21   -1    0    0  503  502  0.00000000000E+00  0.00000000000E+00  0.28166476285E+04  0.28166476285E+04  0.00000000000E+00 0. -1.
         21   -1    0    0  501  503 -0.00000000000E+00 -0.00000000000E+00 -0.77639090330E+02  0.77639090330E+02  0.00000000000E+00 0.  1.
    9000007    1    1    2  501    0 -0.10809796916E+03 -0.21366933223E+03  0.12561299913E+04  0.13398515998E+04  0.40000000000E+03 0.  1.
   -9000007    1    1    2    0  502  0.10809796916E+03  0.21366933223E+03  0.14828785469E+04  0.15544351190E+04  0.40000000000E+03 0.  1.
<mgrwt>
<rscale>  2 0.46619712E+03</rscale>
<asrwt>0</asrwt>
<pdfrwt beam="1">  1       21 0.43333032E+00 0.46619712E+03</pdfrwt>
<pdfrwt beam="2">  1       21 0.11944478E-01 0.46619712E+03</pdfrwt>
<totfact> 0.23877424E+02</totfact>
</mgrwt>
</event>
<event>
 4    1  0.4689683E-002  0.4166149E+03  0.7818608E-02  0.1038174E+00
         21   -1    0    0  503  502  0.00000000000E+00  0.00000000000E+00  0.20408848616E+03  0.20408848616E+03  0.00000000000E+00 0.  1.
         21   -1    0    0  501  503 -0.00000000000E+00 -0.00000000000E+00 -0.11602639157E+04  0.11602639157E+04  0.00000000000E+00 0.  1.
    9000007    1    1    2  501    0 -0.10712302155E+03 -0.45745450401E+02 -0.83059282786E+03  0.92922141262E+03  0.40000000000E+03 0.  1.
   -9000007    1    1    2    0  502  0.10712302155E+03  0.45745450401E+02 -0.12558260173E+03  0.43513098928E+03  0.40000000000E+03 0.  1.
<mgrwt>
<rscale>  2 0.41661492E+03</rscale>
<asrwt>0</asrwt>
<pdfrwt beam="1">  1       21 0.31398228E-01 0.41661492E+03</pdfrwt>
<pdfrwt beam="2">  1       21 0.17850214E+00 0.41661492E+03</pdfrwt>
<totfact> 0.15596389E+03</totfact>
</mgrwt>
</event>
<event>
 4    1  0.4689683E-002  0.5513968E+03  0.7818608E-02  0.1001171E+00
         21   -1    0    0  503  502  0.00000000000E+00  0.00000000000E+00  0.19130755320E+04  0.19130755320E+04  0.00000000000E+00 0. -1.
         21   -1    0    0  501  503 -0.00000000000E+00 -0.00000000000E+00 -0.27137812403E+03  0.27137812403E+03  0.00000000000E+00 0.  1.
    9000007    1    1    2  501    0  0.20900275357E+03 -0.31679059529E+03  0.11776302221E+03  0.56383203320E+03  0.40000000000E+03 0.  1.
   -9000007    1    1    2    0  502 -0.20900275357E+03  0.31679059529E+03  0.15239343858E+04  0.16206216228E+04  0.40000000000E+03 0. -1.
<mgrwt>
<rscale>  2 0.55139680E+03</rscale>
<asrwt>0</asrwt>
<pdfrwt beam="1">  1       21 0.29431930E+00 0.55139680E+03</pdfrwt>
<pdfrwt beam="2">  1       21 0.41750482E-01 0.55139680E+03</pdfrwt>
<totfact> 0.15015664E+02</totfact>
</mgrwt>
</event>
<event>
 4    1  0.4689683E-002  0.4711715E+03  0.7818608E-02  0.1021590E+00
         21   -1    0    0  501  502  0.00000000000E+00  0.00000000000E+00  0.36759618648E+03  0.36759618648E+03  0.00000000000E+00 0. -1.
         21   -1    0    0  502  503 -0.00000000000E+00 -0.00000000000E+00 -0.63856998731E+03  0.63856998731E+03  0.00000000000E+00 0. -1.
    9000007    1    1    2  501    0  0.19901868089E+03  0.14964689008E+03 -0.18315975771E+02  0.47152741386E+03  0.40000000000E+03 0. -1.
   -9000007    1    1    2    0  503 -0.19901868089E+03 -0.14964689008E+03 -0.25265782506E+03  0.53463875993E+03  0.40000000000E+03 0. -1.
<mgrwt>
<rscale>  2 0.47117155E+03</rscale>
<asrwt>0</asrwt>
<pdfrwt beam="1">  1       21 0.56553260E-01 0.47117155E+03</pdfrwt>
<pdfrwt beam="2">  1       21 0.98241535E-01 0.47117155E+03</pdfrwt>
<totfact> 0.21583748E+03</totfact>
</mgrwt>
</event>
<event>
 4    1  0.4689683E-002  0.4588885E+03  0.7818608E-02  0.1025104E+00
         21   -1    0    0  501  502  0.00000000000E+00  0.00000000000E+00  0.14646464004E+04  0.14646464004E+04  0.00000000000E+00 0.  1.
         21   -1    0    0  502  503 -0.00000000000E+00 -0.00000000000E+00 -0.14701779915E+03  0.14701779915E+03  0.00000000000E+00 0.  1.
    9000007    1    1    2  501    0 -0.43966229194E+02 -0.22055745344E+03  0.53912328990E+03  0.70797778304E+03  0.40000000000E+03 0.  1.
   -9000007    1    1    2    0  503  0.43966229194E+02  0.22055745344E+03  0.77850531137E+03  0.90368641652E+03  0.40000000000E+03 0.  1.
<mgrwt>
<rscale>  2 0.45888846E+03</rscale>
<asrwt>0</asrwt>
<pdfrwt beam="1">  1       21 0.22533021E+00 0.45888846E+03</pdfrwt>
<pdfrwt beam="2">  1       21 0.22618124E-01 0.45888846E+03</pdfrwt>
<totfact> 0.14196485E+03</totfact>
</mgrwt>
</event>
<event>
 4    1  0.4689683E-002  0.4042306E+03  0.7818608E-02  0.1042325E+00
         21   -1    0    0  501  502  0.00000000000E+00  0.00000000000E+00  0.32558060546E+03  0.32558060546E+03  0.00000000000E+00 0. -1.
         21   -1    0    0  502  503 -0.00000000000E+00 -0.00000000000E+00 -0.53278639995E+03  0.53278639995E+03  0.00000000000E+00 0. -1.
    9000007    1    1    2  501    0  0.47719694129E+02 -0.33544415645E+02 -0.23382813734E+00  0.40423069120E+03  0.40000000000E+03 0. -1.
   -9000007    1    1    2    0  503 -0.47719694129E+02  0.33544415645E+02 -0.20697196636E+03  0.45413631421E+03  0.40000000000E+03 0. -1.
<mgrwt>
<rscale>  2 0.40423062E+03</rscale>
<asrwt>0</asrwt>
<pdfrwt beam="1">  1       21 0.50089324E-01 0.40423062E+03</pdfrwt>
<pdfrwt beam="2">  1       21 0.81967138E-01 0.40423062E+03</pdfrwt>
<totfact> 0.44051800E+03</totfact>
</mgrwt>
</event>
<event>
 4    1  0.4689683E-002  0.5572082E+03  0.7818608E-02  0.9998391E-01
         21   -1    0    0  501  502  0.00000000000E+00  0.00000000000E+00  0.49302255925E+03  0.49302255925E+03  0.00000000000E+00 0.  1.
         21   -1    0    0  502  503 -0.00000000000E+00 -0.00000000000E+00 -0.65432803378E+03  0.65432803378E+03  0.00000000000E+00 0.  1.
    9000007    1    1    2  501    0 -0.20357302412E+03  0.33021056491E+03 -0.19183648192E+03  0.58930656633E+03  0.40000000000E+03 0.  1.
   -9000007    1    1    2    0  503  0.20357302412E+03 -0.33021056491E+03  0.30531007386E+02  0.55804402670E+03  0.40000000000E+03 0.  1.
<mgrwt>
<rscale>  2 0.55720821E+03</rscale>
<asrwt>0</asrwt>
<pdfrwt beam="1">  1       21 0.75849625E-01 0.55720821E+03</pdfrwt>
<pdfrwt beam="2">  1       21 0.10066585E+00 0.55720821E+03</pdfrwt>
<totfact> 0.10256225E+03</totfact>
</mgrwt>
</event>
<event>
 4    1  0.4689683E-002  0.4876327E+03  0.7818608E-02  0.1017058E+00
         21   -1    0    0  503  502  0.00000000000E+00  0.00000000000E+00  0.18267752316E+03  0.18267752316E+03  0.00000000000E+00 0.  1.
         21   -1    0    0  501  503 -0.00000000000E+00 -0.00000000000E+00 -0.13612761465E+04  0.13612761465E+04  0.00000000000E+00 0. -1.
    9000007    1    1    2  501    0 -0.22508929204E+03  0.16468276620E+03 -0.75083989020E+03  0.89529109434E+03  0.40000000000E+03 0.  1.
   -9000007    1    1    2    0  502  0.22508929204E+03 -0.16468276620E+03 -0.42775873317E+03  0.64866257536E+03  0.40000000000E+03 0.  1.
<mgrwt>
<rscale>  2 0.48763265E+03</rscale>
<asrwt>0</asrwt>
<pdfrwt beam="1">  1       21 0.28104234E-01 0.48763265E+03</pdfrwt>
<pdfrwt beam="2">  1       21 0.20942710E+00 0.48763265E+03</pdfrwt>
<totfact> 0.11620396E+03</totfact>
</mgrwt>
</event>
<event>
 4    1  0.4689683E-002  0.4199904E+03  0.7818608E-02  0.1037069E+00
         21   -1    0    0  503  502  0.00000000000E+00  0.00000000000E+00  0.10915425201E+03  0.10915425201E+03  0.00000000000E+00 0. -1.
         21   -1    0    0  501  503 -0.00000000000E+00 -0.00000000000E+00 -0.20434307342E+04  0.20434307342E+04  0.00000000000E+00 0. -1.
    9000007    1    1    2  501    0 -0.95937235921E+02  0.84781904965E+02 -0.47488397196E+03  0.63396112773E+03  0.40000000000E+03 0. -1.
   -9000007    1    1    2    0  502  0.95937235921E+02 -0.84781904965E+02 -0.14593925102E+04  0.15186238585E+04  0.40000000000E+03 0. -1.
<mgrwt>
<rscale>  2 0.41999039E+03</rscale>
<asrwt>0</asrwt>
<pdfrwt beam="1">  1       21 0.16792960E-01 0.41999039E+03</pdfrwt>
<pdfrwt beam="2">  1       21 0.31437400E+00 0.41999039E+03</pdfrwt>
<totfact> 0.73161584E+02</totfact>
</mgrwt>
</event>
<event>
 4    1  0.4689683E-002  0.5042839E+03  0.7818608E-02  0.1012667E+00
         21   -1    0    0  503  502  0.00000000000E+00  0.00000000000E+00  0.33040404226E+03  0.33040404226E+03  0.00000000000E+00 0.  1.
         21   -1    0    0  501  503 -0.00000000000E+00 -0.00000000000E+00 -0.77513963563E+03  0.77513963563E+03  0.00000000000E+00 0.  1.
    9000007    1    1    2  501    0  0.22034167944E+03  0.21389666345E+03 -0.17593594377E+03  0.53409333888E+03  0.40000000000E+03 0.  1.
   -9000007    1    1    2    0  502 -0.22034167944E+03 -0.21389666345E+03 -0.26879964960E+03  0.57145033901E+03  0.40000000000E+03 0.  1.
<mgrwt>
<rscale>  2 0.50428389E+03</rscale>
<asrwt>0</asrwt>
<pdfrwt beam="1">  1       21 0.50831391E-01 0.50428389E+03</pdfrwt>
<pdfrwt beam="2">  1       21 0.11925225E+00 0.50428389E+03</pdfrwt>
<totfact> 0.16602164E+03</totfact>
</mgrwt>
</event>
<event>
 4    1  0.4689683E-002  0.6946561E+03  0.7818608E-02  0.9726415E-01
         21   -1    0    0  501  502  0.00000000000E+00  0.00000000000E+00  0.71283899396E+03  0.71283899396E+03  0.00000000000E+00 0. -1.
         21   -1    0    0  502  503 -0.00000000000E+00 -0.00000000000E+00 -0.90472461436E+03  0.90472461436E+03  0.00000000000E+00 0.  1.
    9000007    1    1    2  501    0 -0.48158206876E+03 -0.30104120503E+03  0.30988164473E+03  0.76064034196E+03  0.40000000000E+03 0.  1.
   -9000007    1    1    2    0  503  0.48158206876E+03  0.30104120503E+03 -0.50176726513E+03  0.85692326636E+03  0.40000000000E+03 0. -1.
<mgrwt>
<rscale>  2 0.69465610E+03</rscale>
<asrwt>0</asrwt>
<pdfrwt beam="1">  1       21 0.10966754E+00 0.69465610E+03</pdfrwt>
<pdfrwt beam="2">  1       21 0.13918840E+00 0.69465610E+03</pdfrwt>
<totfact> 0.17684270E+02</totfact>
</mgrwt>
</event>
<event>
 4    1  0.4689683E-002  0.4719516E+03  0.7818608E-02  0.1021371E+00
         21   -1    0    0  501  502  0.00000000000E+00  0.00000000000E+00  0.53206254393E+03  0.53206254393E+03  0.00000000000E+00 0.  1.
         21   -1    0    0  502  503 -0.00000000000E+00 -0.00000000000E+00 -0.51092875131E+03  0.51092875131E+03  0.00000000000E+00 0. -1.
    9000007    1    1    2  501    0  0.68260679260E+02  0.24099538243E+03  0.23221510237E+03  0.52598683297E+03  0.40000000000E+03 0.  1.
   -9000007    1    1    2    0  503 -0.68260679260E+02 -0.24099538243E+03 -0.21108130974E+03  0.51700446227E+03  0.40000000000E+03 0. -1.
<mgrwt>
<rscale>  2 0.47195158E+03</rscale>
<asrwt>0</asrwt>
<pdfrwt beam="1">  1       21 0.81855776E-01 0.47195158E+03</pdfrwt>
<pdfrwt beam="2">  1       21 0.78604423E-01 0.47195158E+03</pdfrwt>
<totfact> 0.15926090E+03</totfact>
</mgrwt>
</event>
<event>
 4    1  0.4689683E-002  0.4184484E+03  0.7818608E-02  0.1037572E+00
         21   -1    0    0  501  502  0.00000000000E+00  0.00000000000E+00  0.88021670368E+03  0.88021670368E+03  0.00000000000E+00 0. -1.
         21   -1    0    0  502  503 -0.00000000000E+00 -0.00000000000E+00 -0.19898877789E+03  0.19898877789E+03  0.00000000000E+00 0. -1.
    9000007    1    1    2  501    0 -0.11102058541E+03  0.52663974337E+02  0.35010450095E+03  0.54559346235E+03  0.40000000000E+03 0.  1.
   -9000007    1    1    2    0  503  0.11102058541E+03 -0.52663974337E+02  0.33112342483E+03  0.53361201922E+03  0.40000000000E+03 0.  1.
<mgrwt>
<rscale>  2 0.41844840E+03</rscale>
<asrwt>0</asrwt>
<pdfrwt beam="1">  1       21 0.13541795E+00 0.41844840E+03</pdfrwt>
<pdfrwt beam="2">  1       21 0.30613659E-01 0.41844840E+03</pdfrwt>
<totfact> 0.35053835E+03</totfact>
</mgrwt>
</event>
<event>
 4    1  0.4689683E-002  0.4161258E+03  0.7818608E-02  0.1038335E+00
         21   -1    0    0  503  502  0.00000000000E+00  0.00000000000E+00  0.45821473170E+03  0.45821473170E+03  0.00000000000E+00 0. -1.
         21   -1    0    0  501  503 -0.00000000000E+00 -0.00000000000E+00 -0.15718842935E+04  0.15718842935E+04  0.00000000000E+00 0. -1.
    9000007    1    1    2  501    0 -0.11417367851E+03 -0.11181282010E+02 -0.14414934335E+04  0.15003546144E+04  0.40000000000E+03 0. -1.
   -9000007    1    1    2    0  502  0.11417367851E+03  0.11181282010E+02  0.32782387173E+03  0.52974441083E+03  0.40000000000E+03 0. -1.
<mgrwt>
<rscale>  2 0.41612576E+03</rscale>
<asrwt>0</asrwt>
<pdfrwt beam="1">  1       21 0.70494575E-01 0.41612576E+03</pdfrwt>
<pdfrwt beam="2">  1       21 0.24182835E+00 0.41612576E+03</pdfrwt>
<totfact> 0.10912604E+02</totfact>
</mgrwt>
</event>
<event>
 4    1  0.4689683E-002  0.4727330E+03  0.7818608E-02  0.1021152E+00
         21   -1    0    0  501  502  0.00000000000E+00  0.00000000000E+00  0.17568810423E+03  0.17568810423E+03  0.00000000000E+00 0.  1.
         21   -1    0    0  502  503 -0.00000000000E+00 -0.00000000000E+00 -0.12849626298E+04  0.12849626298E+04  0.00000000000E+00 0.  1.
    9000007    1    1    2  501    0  0.21356126467E+03  0.13367157903E+03 -0.48130420562E+03  0.67463341390E+03  0.40000000000E+03 0.  1.
   -9000007    1    1    2    0  503 -0.21356126467E+03 -0.13367157903E+03 -0.62797031999E+03  0.78601732016E+03  0.40000000000E+03 0.  1.
<mgrwt>
<rscale>  2 0.47273302E+03</rscale>
<asrwt>0</asrwt>
<pdfrwt beam="1">  1       21 0.27028939E-01 0.47273302E+03</pdfrwt>
<pdfrwt beam="2">  1       21 0.19768656E+00 0.47273302E+03</pdfrwt>
<totfact> 0.15107826E+03</totfact>
</mgrwt>
</event>
<event>
 4    1  0.4689683E-002  0.6542838E+03  0.7818608E-02  0.9798774E-01
         21   -1    0    0  503  502  0.00000000000E+00  0.00000000000E+00  0.12341401012E+04  0.12341401012E+04  0.00000000000E+00 0.  1.
         21   -1    0    0  501  503 -0.00000000000E+00 -0.00000000000E+00 -0.40957718274E+03  0.40957718274E+03  0.00000000000E+00 0.  1.
    9000007    1    1    2  501    0 -0.31777076751E+03 -0.40878974460E+03  0.90704667828E+02  0.66054118172E+03  0.40000000000E+03 0.  1.
   -9000007    1    1    2    0  502  0.31777076751E+03  0.40878974460E+03  0.73385825064E+03  0.98317610223E+03  0.40000000000E+03 0.  1.
<mgrwt>
<rscale>  2 0.65428382E+03</rscale>
<asrwt>0</asrwt>
<pdfrwt beam="1">  1       21 0.18986771E+00 0.65428382E+03</pdfrwt>
<pdfrwt beam="2">  1       21 0.63011875E-01 0.65428382E+03</pdfrwt>
<totfact> 0.27349007E+02</totfact>
</mgrwt>
</event>
<event>
 4    1  0.4689683E-002  0.4627476E+03  0.7818608E-02  0.1023987E+00
         21   -1    0    0  503  502  0.00000000000E+00  0.00000000000E+00  0.37514432273E+03  0.37514432273E+03  0.00000000000E+00 0. -1.
         21   -1    0    0  501  503 -0.00000000000E+00 -0.00000000000E+00 -0.92526517430E+03  0.92526517430E+03  0.00000000000E+00 0.  1.
    9000007    1    1    2  501    0 -0.22716843190E+03 -0.50297950259E+02 -0.67749836348E+03  0.82045073756E+03  0.40000000000E+03 0.  1.
   -9000007    1    1    2    0  502  0.22716843190E+03  0.50297950259E+02  0.12737751191E+03  0.47995875947E+03  0.40000000000E+03 0. -1.
<mgrwt>
<rscale>  2 0.46274764E+03</rscale>
<asrwt>0</asrwt>
<pdfrwt beam="1">  1       21 0.57714511E-01 0.46274764E+03</pdfrwt>
<pdfrwt beam="2">  1       21 0.14234849E+00 0.46274764E+03</pdfrwt>
<totfact> 0.80851836E+02</totfact>
</mgrwt>
</event>
<event>
 4    1  0.4689683E-002  0.4086569E+03  0.7818608E-02  0.1040823E+00
         21   -1    0    0  501  502  0.00000000000E+00  0.00000000000E+00  0.13132185231E+04  0.13132185231E+04  0.00000000000E+00 0. -1.
         21   -1    0    0  502  503 -0.00000000000E+00 -0.00000000000E+00 -0.19866571618E+03  0.19866571618E+03  0.00000000000E+00 0. -1.
    9000007    1    1    2  501    0  0.56687930402E+02  0.61537961584E+02  0.10107695132E+04  0.10902547643E+04  0.40000000000E+03 0. -1.
   -9000007    1    1    2    0  503 -0.56687930402E+02 -0.61537961584E+02  0.10378329373E+03  0.42162947505E+03  0.40000000000E+03 0. -1.
<mgrwt>
<rscale>  2 0.40865688E+03</rscale>
<asrwt>0</asrwt>
<pdfrwt beam="1">  1       21 0.20203361E+00 0.40865688E+03</pdfrwt>
<pdfrwt beam="2">  1       21 0.30563957E-01 0.40865688E+03</pdfrwt>
<totfact> 0.11413508E+03</totfact>
</mgrwt>
</event>
<event>
 4    1  0.4689683E-002  0.4701723E+03  0.7818608E-02  0.1021872E+00
         21   -1    0    0  503  502  0.00000000000E+00  0.00000000000E+00  0.20722591302E+04  0.20722591302E+04  0.00000000000E+00 0.  1.
         21   -1    0    0  501  503 -0.00000000000E+00 -0.00000000000E+00 -0.19720102566E+03  0.19720102566E+03  0.00000000000E+00 0. -1.
    9000007    1    1    2  501    0  0.11496945971E+03  0.21873277999E+03  0.16871669860E+03  0.49952710647E+03  0.40000000000E+03 0. -1.
   -9000007    1    1    2    0  502 -0.11496945971E+03 -0.21873277999E+03  0.17063414059E+04  0.17699330494E+04  0.40000000000E+03 0.  1.
<mgrwt>
<rscale>  2 0.47017231E+03</rscale>
<asrwt>0</asrwt>
<pdfrwt beam="1">  1       21 0.31880908E+00 0.47017231E+03</pdfrwt>
<pdfrwt beam="2">  1       21 0.30338621E-01 0.47017231E+03</pdfrwt>
<totfact> 0.21355537E+02</totfact>
</mgrwt>
</event>
<event>
 4    1  0.4689683E-002  0.4365534E+03  0.7818608E-02  0.1031810E+00
         21   -1    0    0  503  502  0.00000000000E+00  0.00000000000E+00  0.37215119949E+03  0.37215119949E+03  0.00000000000E+00 0. -1.
         21   -1    0    0  501  503 -0.00000000000E+00 -0.00000000000E+00 -0.55529714704E+03  0.55529714704E+03  0.00000000000E+00 0. -1.
    9000007    1    1    2  501    0  0.15536729185E+02  0.17417665189E+03 -0.22090942592E+03  0.48926462214E+03  0.40000000000E+03 0. -1.
   -9000007    1    1    2    0  502 -0.15536729185E+02 -0.17417665189E+03  0.37763478373E+02  0.43818372438E+03  0.40000000000E+03 0. -1.
<mgrwt>
<rscale>  2 0.43655343E+03</rscale>
<asrwt>0</asrwt>
<pdfrwt beam="1">  1       21 0.57254031E-01 0.43655343E+03</pdfrwt>
<pdfrwt beam="2">  1       21 0.85430331E-01 0.43655343E+03</pdfrwt>
<totfact> 0.29668241E+03</totfact>
</mgrwt>
</event>
<event>
 4    1  0.4689683E-002  0.6558288E+03  0.7818608E-02  0.9795903E-01
         21   -1    0    0  501  502  0.00000000000E+00  0.00000000000E+00  0.11412255091E+04  0.11412255091E+04  0.00000000000E+00 0. -1.
         21   -1    0    0  502  503 -0.00000000000E+00 -0.00000000000E+00 -0.18237085872E+04  0.18237085872E+04  0.00000000000E+00 0.  1.
    9000007    1    1    2  501    0 -0.16114664031E+03  0.49410844245E+03  0.97918740733E+03  0.11785242345E+04  0.40000000000E+03 0. -1.
   -9000007    1    1    2    0  503  0.16114664031E+03 -0.49410844245E+03 -0.16616704854E+04  0.17864098619E+04  0.40000000000E+03 0.  1.
<mgrwt>
<rscale>  2 0.65582878E+03</rscale>
<asrwt>0</asrwt>
<pdfrwt beam="1">  1       21 0.17557316E+00 0.65582878E+03</pdfrwt>
<pdfrwt beam="2">  1       21 0.28057055E+00 0.65582878E+03</pdfrwt>
<totfact> 0.54674146E+00</totfact>
</mgrwt>
</event>
<event>
 4    1  0.4689683E-002  0.5089229E+03  0.7818608E-02  0.1011476E+00
         21   -1    0    0  501  502  0.00000000000E+00  0.00000000000E+00  0.10747878975E+04  0.10747878975E+04  0.00000000000E+00 0. -1.
         21   -1    0    0  502  503 -0.00000000000E+00 -0.00000000000E+00 -0.28973018552E+03  0.28973018552E+03  0.00000000000E+00 0. -1.
    9000007    1    1    2  501    0  0.30452167707E+03  0.79177274096E+02  0.67238840422E+03  0.84327258859E+03  0.40000000000E+03 0. -1.
   -9000007    1    1    2    0  503 -0.30452167707E+03 -0.79177274096E+02  0.11266930776E+03  0.52124549442E+03  0.40000000000E+03 0. -1.
<mgrwt>
<rscale>  2 0.50892287E+03</rscale>
<asrwt>0</asrwt>
<pdfrwt beam="1">  1       21 0.16535198E+00 0.50892287E+03</pdfrwt>
<pdfrwt beam="2">  1       21 0.44573875E-01 0.50892287E+03</pdfrwt>
<totfact> 0.91279841E+02</totfact>
</mgrwt>
</event>
<event>
 4    1  0.4689683E-002  0.4034516E+03  0.7818608E-02  0.1042591E+00
         21   -1    0    0  501  502  0.00000000000E+00  0.00000000000E+00  0.17741499972E+03  0.17741499972E+03  0.00000000000E+00 0. -1.
         21   -1    0    0  502  503 -0.00000000000E+00 -0.00000000000E+00 -0.10285040570E+04  0.10285040570E+04  0.00000000000E+00 0. -1.
    9000007    1    1    2  501    0 -0.25598588296E+02 -0.46020689458E+02 -0.62365639378E+03  0.74277889650E+03  0.40000000000E+03 0. -1.
   -9000007    1    1    2    0  503  0.25598588296E+02  0.46020689458E+02 -0.22743266350E+03  0.46314016022E+03  0.40000000000E+03 0. -1.
<mgrwt>
<rscale>  2 0.40345160E+03</rscale>
<asrwt>0</asrwt>
<pdfrwt beam="1">  1       21 0.27294615E-01 0.40345160E+03</pdfrwt>
<pdfrwt beam="2">  1       21 0.15823140E+00 0.40345160E+03</pdfrwt>
<totfact> 0.29105721E+03</totfact>
</mgrwt>
</event>
<event>
 4    1  0.4689683E-002  0.5345780E+03  0.7818608E-02  0.1005128E+00
         21   -1    0    0  503  502  0.00000000000E+00  0.00000000000E+00  0.10439557545E+04  0.10439557545E+04  0.00000000000E+00 0. -1.
         21   -1    0    0  501  503 -0.00000000000E+00 -0.00000000000E+00 -0.39477376743E+03  0.39477376743E+03  0.00000000000E+00 0. -1.
    9000007    1    1    2  501    0  0.68819838305E+02  0.34790439855E+03 -0.73723622493E+02  0.53963766843E+03  0.40000000000E+03 0. -1.
   -9000007    1    1    2    0  502 -0.68819838305E+02 -0.34790439855E+03  0.72290560955E+03  0.89909185348E+03  0.40000000000E+03 0. -1.
<mgrwt>
<rscale>  2 0.53457800E+03</rscale>
<asrwt>0</asrwt>
<pdfrwt beam="1">  1       21 0.16060858E+00 0.53457800E+03</pdfrwt>
<pdfrwt beam="2">  1       21 0.60734426E-01 0.53457800E+03</pdfrwt>
<totfact> 0.50475655E+02</totfact>
</mgrwt>
</event>
<event>
 4    1  0.4689683E-002  0.5791796E+03  0.7818608E-02  0.9949569E-01
         21   -1    0    0  501  502  0.00000000000E+00  0.00000000000E+00  0.47148497388E+03  0.47148497388E+03  0.00000000000E+00 0.  1.
         21   -1    0    0  502  503 -0.00000000000E+00 -0.00000000000E+00 -0.74395090920E+03  0.74395090920E+03  0.00000000000E+00 0.  1.
    9000007    1    1    2  501    0 -0.23075328354E+03  0.34957388583E+03 -0.26320901781E+03  0.63618233752E+03  0.40000000000E+03 0. -1.
   -9000007    1    1    2    0  503  0.23075328354E+03 -0.34957388583E+03 -0.92569175035E+01  0.57925354556E+03  0.40000000000E+03 0. -1.
<mgrwt>
<rscale>  2 0.57917957E+03</rscale>
<asrwt>0</asrwt>
<pdfrwt beam="1">  1       21 0.72536150E-01 0.57917957E+03</pdfrwt>
<pdfrwt beam="2">  1       21 0.11445399E+00 0.57917957E+03</pdfrwt>
<totfact> 0.81972930E+02</totfact>
</mgrwt>
</event>
<event>
 4    1  0.4689683E-002  0.4541409E+03  0.7818608E-02  0.1026494E+00
         21   -1    0    0  501  502  0.00000000000E+00  0.00000000000E+00  0.17406314260E+04  0.17406314260E+04  0.00000000000E+00 0.  1.
         21   -1    0    0  502  503 -0.00000000000E+00 -0.00000000000E+00 -0.18642197350E+03  0.18642197350E+03  0.00000000000E+00 0. -1.
    9000007    1    1    2  501    0 -0.18144142396E+02  0.21427730571E+03  0.13587505891E+04  0.14326364288E+04  0.40000000000E+03 0.  1.
   -9000007    1    1    2    0  503  0.18144142396E+02 -0.21427730571E+03  0.19545886335E+03  0.49441697069E+03  0.40000000000E+03 0. -1.
<mgrwt>
<rscale>  2 0.45414092E+03</rscale>
<asrwt>0</asrwt>
<pdfrwt beam="1">  1       21 0.26778944E+00 0.45414092E+03</pdfrwt>
<pdfrwt beam="2">  1       21 0.28680305E-01 0.45414092E+03</pdfrwt>
<totfact> 0.48940248E+02</totfact>
</mgrwt>
</event>
<event>
 4    1  0.4689683E-002  0.4083959E+03  0.7818608E-02  0.1040911E+00
         21   -1    0    0  503  502  0.00000000000E+00  0.00000000000E+00  0.95587770680E+03  0.95587770680E+03  0.00000000000E+00 0. -1.
         21   -1    0    0  501  503 -0.00000000000E+00 -0.00000000000E+00 -0.20094351304E+03  0.20094351304E+03  0.00000000000E+00 0. -1.
    9000007    1    1    2  501    0 -0.43612863319E+02 -0.69893785356E+02  0.58734863221E+03  0.71537796921E+03  0.40000000000E+03 0. -1.
   -9000007    1    1    2    0  502  0.43612863319E+02  0.69893785356E+02  0.16758556156E+03  0.44144325062E+03  0.40000000000E+03 0. -1.
<mgrwt>
<rscale>  2 0.40839591E+03</rscale>
<asrwt>0</asrwt>
<pdfrwt beam="1">  1       21 0.14705811E+00 0.40839591E+03</pdfrwt>
<pdfrwt beam="2">  1       21 0.30914387E-01 0.40839591E+03</pdfrwt>
<totfact> 0.27722312E+03</totfact>
</mgrwt>
</event>
<event>
 4    1  0.4689683E-002  0.4497610E+03  0.7818608E-02  0.1027793E+00
         21   -1    0    0  503  502  0.00000000000E+00  0.00000000000E+00  0.13481698432E+04  0.13481698432E+04  0.00000000000E+00 0.  1.
         21   -1    0    0  501  503 -0.00000000000E+00 -0.00000000000E+00 -0.17438452735E+03  0.17438452735E+03  0.00000000000E+00 0.  1.
    9000007    1    1    2  501    0  0.16331924239E+03 -0.12494710056E+03  0.30247746394E+03  0.54201251744E+03  0.40000000000E+03 0.  1.
   -9000007    1    1    2    0  502 -0.16331924239E+03  0.12494710056E+03  0.87130785189E+03  0.98054185308E+03  0.40000000000E+03 0.  1.
<mgrwt>
<rscale>  2 0.44976100E+03</rscale>
<asrwt>0</asrwt>
<pdfrwt beam="1">  1       21 0.20741074E+00 0.44976100E+03</pdfrwt>
<pdfrwt beam="2">  1       21 0.26828390E-01 0.44976100E+03</pdfrwt>
<totfact> 0.13346571E+03</totfact>
</mgrwt>
</event>
<event>
 4    1  0.4689683E-002  0.4581084E+03  0.7818608E-02  0.1025331E+00
         21   -1    0    0  501  502  0.00000000000E+00  0.00000000000E+00  0.72923570652E+03  0.72923570652E+03  0.00000000000E+00 0. -1.
         21   -1    0    0  502  503 -0.00000000000E+00 -0.00000000000E+00 -0.39187964533E+03  0.39187964533E+03  0.00000000000E+00 0. -1.
    9000007    1    1    2  501    0  0.16372295571E+03  0.15184905581E+03  0.45758461985E+03  0.64749287741E+03  0.40000000000E+03 0. -1.
   -9000007    1    1    2    0  503 -0.16372295571E+03 -0.15184905581E+03 -0.12022855866E+03  0.47362247444E+03  0.40000000000E+03 0. -1.
<mgrwt>
<rscale>  2 0.45810844E+03</rscale>
<asrwt>0</asrwt>
<pdfrwt beam="1">  1       21 0.11219011E+00 0.45810844E+03</pdfrwt>
<pdfrwt beam="2">  1       21 0.60289176E-01 0.45810844E+03</pdfrwt>
<totfact> 0.13605828E+03</totfact>
</mgrwt>
</event>
<event>
 4    1  0.4689683E-002  0.5003570E+03  0.7818608E-02  0.1013686E+00
         21   -1    0    0  503  502  0.00000000000E+00  0.00000000000E+00  0.89933273472E+03  0.89933273472E+03  0.00000000000E+00 0.  1.
         21   -1    0    0  501  503 -0.00000000000E+00 -0.00000000000E+00 -0.10349912986E+04  0.10349912986E+04  0.00000000000E+00 0. -1.
    9000007    1    1    2  501    0 -0.39619513348E+02 -0.29797210839E+03 -0.89475600538E+03  0.10251562770E+04  0.40000000000E+03 0. -1.
   -9000007    1    1    2    0  502  0.39619513348E+02  0.29797210839E+03  0.75909744154E+03  0.90916775623E+03  0.40000000000E+03 0.  1.
<mgrwt>
<rscale>  2 0.50035696E+03</rscale>
<asrwt>0</asrwt>
<pdfrwt beam="1">  1       21 0.13835888E+00 0.50035696E+03</pdfrwt>
<pdfrwt beam="2">  1       21 0.15922943E+00 0.50035696E+03</pdfrwt>
<totfact> 0.72732341E+01</totfact>
</mgrwt>
</event>
<event>
 4    1  0.4689683E-002  0.4033151E+03  0.7818608E-02  0.1042638E+00
         21   -1    0    0  501  502  0.00000000000E+00  0.00000000000E+00  0.52270784656E+03  0.52270784656E+03  0.00000000000E+00 0.  1.
         21   -1    0    0  502  503 -0.00000000000E+00 -0.00000000000E+00 -0.85230840068E+03  0.85230840068E+03  0.00000000000E+00 0.  1.
    9000007    1    1    2  501    0 -0.49968674129E+02  0.12891900753E+02  0.38300266599E+03  0.55619610899E+03  0.40000000000E+03 0.  1.
   -9000007    1    1    2    0  503  0.49968674129E+02 -0.12891900753E+02 -0.71260322011E+03  0.81882013825E+03  0.40000000000E+03 0.  1.
<mgrwt>
<rscale>  2 0.40331510E+03</rscale>
<asrwt>0</asrwt>
<pdfrwt beam="1">  1       21 0.80416592E-01 0.40331510E+03</pdfrwt>
<pdfrwt beam="2">  1       21 0.13112437E+00 0.40331510E+03</pdfrwt>
<totfact> 0.49077551E+02</totfact>
</mgrwt>
</event>
<event>
 4    1  0.4689683E-002  0.4083319E+03  0.7818608E-02  0.1040932E+00
         21   -1    0    0  501  502  0.00000000000E+00  0.00000000000E+00  0.19890720345E+04  0.19890720345E+04  0.00000000000E+00 0. -1.
         21   -1    0    0  502  503 -0.00000000000E+00 -0.00000000000E+00 -0.18267952781E+03  0.18267952781E+03  0.00000000000E+00 0. -1.
    9000007    1    1    2  501    0 -0.40665755306E+02  0.71282959995E+02  0.17019858215E+04  0.17502830344E+04  0.40000000000E+03 0. -1.
   -9000007    1    1    2    0  503  0.40665755306E+02 -0.71282959995E+02  0.10440668513E+03  0.42146852782E+03  0.40000000000E+03 0. -1.
<mgrwt>
<rscale>  2 0.40833193E+03</rscale>
<asrwt>0</asrwt>
<pdfrwt beam="1">  1       21 0.30601107E+00 0.40833193E+03</pdfrwt>
<pdfrwt beam="2">  1       21 0.28104544E-01 0.40833193E+03</pdfrwt>
<totfact> 0.30834233E+02</totfact>
</mgrwt>
</event>
<event>
 4    1  0.4689683E-002  0.4474665E+03  0.7818608E-02  0.1028480E+00
         21   -1    0    0  503  502  0.00000000000E+00  0.00000000000E+00  0.40265709879E+03  0.40265709879E+03  0.00000000000E+00 0.  1.
         21   -1    0    0  501  503 -0.00000000000E+00 -0.00000000000E+00 -0.77844720831E+03  0.77844720831E+03  0.00000000000E+00 0.  1.
    9000007    1    1    2  501    0  0.10379698512E+03  0.17161708199E+03 -0.54282251246E+03  0.70347886748E+03  0.40000000000E+03 0.  1.
   -9000007    1    1    2    0  502 -0.10379698512E+03 -0.17161708199E+03  0.16703240294E+03  0.47762543963E+03  0.40000000000E+03 0.  1.
<mgrwt>
<rscale>  2 0.44746646E+03</rscale>
<asrwt>0</asrwt>
<pdfrwt beam="1">  1       21 0.61947247E-01 0.44746646E+03</pdfrwt>
<pdfrwt beam="2">  1       21 0.11976111E+00 0.44746646E+03</pdfrwt>
<totfact> 0.10927088E+03</totfact>
</mgrwt>
</event>
<event>
 4    1  0.4689683E-002  0.4153964E+03  0.7818608E-02  0.1038575E+00
         21   -1    0    0  503  502  0.00000000000E+00  0.00000000000E+00  0.45590120380E+03  0.45590120380E+03  0.00000000000E+00 0. -1.
         21   -1    0    0  501  503 -0.00000000000E+00 -0.00000000000E+00 -0.37853947903E+03  0.37853947903E+03  0.00000000000E+00 0.  1.
    9000007    1    1    2  501    0  0.64366626014E+02  0.91712072687E+02  0.33923564784E+02  0.41677928820E+03  0.40000000000E+03 0.  1.
   -9000007    1    1    2    0  502 -0.64366626014E+02 -0.91712072687E+02  0.43438159982E+02  0.41766139463E+03  0.40000000000E+03 0. -1.
<mgrwt>
<rscale>  2 0.41539640E+03</rscale>
<asrwt>0</asrwt>
<pdfrwt beam="1">  1       21 0.70138646E-01 0.41539640E+03</pdfrwt>
<pdfrwt beam="2">  1       21 0.58236843E-01 0.41539640E+03</pdfrwt>
<totfact> 0.45284067E+03</totfact>
</mgrwt>
</event>
<event>
 4    1  0.4689683E-002  0.5218132E+03  0.7818608E-02  0.1008237E+00
         21   -1    0    0  501  502  0.00000000000E+00  0.00000000000E+00  0.50271984594E+03  0.50271984594E+03  0.00000000000E+00 0.  1.
         21   -1    0    0  502  503 -0.00000000000E+00 -0.00000000000E+00 -0.21258920115E+04  0.21258920115E+04  0.00000000000E+00 0. -1.
    9000007    1    1    2  501    0 -0.22759611848E+03  0.24594514539E+03  0.32300440303E+03  0.61369442890E+03  0.40000000000E+03 0.  1.
   -9000007    1    1    2    0  503  0.22759611848E+03 -0.24594514539E+03 -0.19461765686E+04  0.20149174285E+04  0.40000000000E+03 0. -1.
<mgrwt>
<rscale>  2 0.52181319E+03</rscale>
<asrwt>0</asrwt>
<pdfrwt beam="1">  1       21 0.77341515E-01 0.52181319E+03</pdfrwt>
<pdfrwt beam="2">  1       21 0.32706031E+00 0.52181319E+03</pdfrwt>
<totfact> 0.25126362E+01</totfact>
</mgrwt>
</event>
<event>
 4    1  0.4689683E-002  0.5144160E+03  0.7818608E-02  0.1010083E+00
         21   -1    0    0  501  502  0.00000000000E+00  0.00000000000E+00  0.82151571623E+03  0.82151571623E+03  0.00000000000E+00 0. -1.
         21   -1    0    0  502  503 -0.00000000000E+00 -0.00000000000E+00 -0.97157056011E+03  0.97157056011E+03  0.00000000000E+00 0. -1.
    9000007    1    1    2  501    0 -0.29408493944E+03 -0.13467686749E+03  0.65797974038E+03  0.83520126256E+03  0.40000000000E+03 0. -1.
   -9000007    1    1    2    0  503  0.29408493944E+03  0.13467686749E+03 -0.80803458426E+03  0.95788501377E+03  0.40000000000E+03 0. -1.
<mgrwt>
<rscale>  2 0.51441599E+03</rscale>
<asrwt>0</asrwt>
<pdfrwt beam="1">  1       21 0.12638703E+00 0.51441599E+03</pdfrwt>
<pdfrwt beam="2">  1       21 0.14947239E+00 0.51441599E+03</pdfrwt>
<totfact> 0.10896994E+02</totfact>
</mgrwt>
</event>
<event>
 4    1  0.4689683E-002  0.4081226E+03  0.7818608E-02  0.1041003E+00
         21   -1    0    0  503  502  0.00000000000E+00  0.00000000000E+00  0.62655316297E+03  0.62655316297E+03  0.00000000000E+00 0.  1.
         21   -1    0    0  501  503 -0.00000000000E+00 -0.00000000000E+00 -0.29163744267E+03  0.29163744267E+03  0.00000000000E+00 0.  1.
    9000007    1    1    2  501    0  0.73373678204E+02  0.34356453975E+02  0.30399594952E+03  0.50889841806E+03  0.40000000000E+03 0.  1.
   -9000007    1    1    2    0  502 -0.73373678204E+02 -0.34356453975E+02  0.30919770783E+02  0.40929218757E+03  0.40000000000E+03 0.  1.
<mgrwt>
<rscale>  2 0.40812261E+03</rscale>
<asrwt>0</asrwt>
<pdfrwt beam="1">  1       21 0.96392794E-01 0.40812261E+03</pdfrwt>
<pdfrwt beam="2">  1       21 0.44867299E-01 0.40812261E+03</pdfrwt>
<totfact> 0.37853134E+03</totfact>
</mgrwt>
</event>
<event>
 4    1  0.4689683E-002  0.4294392E+03  0.7818608E-02  0.1034037E+00
         21   -1    0    0  501  502  0.00000000000E+00  0.00000000000E+00  0.17461821237E+04  0.17461821237E+04  0.00000000000E+00 0.  1.
         21   -1    0    0  502  503 -0.00000000000E+00 -0.00000000000E+00 -0.12050645160E+03  0.12050645160E+03  0.00000000000E+00 0.  1.
    9000007    1    1    2  501    0 -0.47958617313E+02  0.14872134650E+03  0.11409683612E+04  0.12191090473E+04  0.40000000000E+03 0.  1.
   -9000007    1    1    2    0  503  0.47958617313E+02 -0.14872134650E+03  0.48470731086E+03  0.64757952799E+03  0.40000000000E+03 0.  1.
<mgrwt>
<rscale>  2 0.42943925E+03</rscale>
<asrwt>0</asrwt>
<pdfrwt beam="1">  1       21 0.26864338E+00 0.42943925E+03</pdfrwt>
<pdfrwt beam="2">  1       21 0.18539455E-01 0.42943925E+03</pdfrwt>
<totfact> 0.11375872E+03</totfact>
</mgrwt>
</event>
<event>
 4    1  0.4689683E-002  0.5265341E+03  0.7818608E-02  0.1007076E+00
         21   -1    0    0  501  502  0.00000000000E+00  0.00000000000E+00  0.46926250515E+03  0.46926250515E+03  0.00000000000E+00 0.  1.
         21   -1    0    0  502  503 -0.00000000000E+00 -0.00000000000E+00 -0.68526068814E+03  0.68526068814E+03  0.00000000000E+00 0.  1.
    9000007    1    1    2  501    0  0.18067107265E+03  0.29085409289E+03  0.10632985687E+03  0.53716308353E+03  0.40000000000E+03 0.  1.
   -9000007    1    1    2    0  503 -0.18067107265E+03 -0.29085409289E+03 -0.32232803987E+03  0.61736010976E+03  0.40000000000E+03 0.  1.
<mgrwt>
<rscale>  2 0.52653408E+03</rscale>
<asrwt>0</asrwt>
<pdfrwt beam="1">  1       21 0.72194232E-01 0.52653408E+03</pdfrwt>
<pdfrwt beam="2">  1       21 0.10542472E+00 0.52653408E+03</pdfrwt>
<totfact> 0.10352845E+03</totfact>
</mgrwt>
</event>
<event>
 4    1  0.4689683E-002  0.4885809E+03  0.7818608E-02  0.1016803E+00
         21   -1    0    0  501  502  0.00000000000E+00  0.00000000000E+00  0.21817527199E+03  0.21817527199E+03  0.00000000000E+00 0.  1.
         21   -1    0    0  502  503 -0.00000000000E+00 -0.00000000000E+00 -0.11631624615E+04  0.11631624615E+04  0.00000000000E+00 0.  1.
    9000007    1    1    2  501    0 -0.24829185314E+03 -0.13062348117E+03 -0.64075615907E+03  0.80577899797E+03  0.40000000000E+03 0.  1.
   -9000007    1    1    2    0  503  0.24829185314E+03  0.13062348117E+03 -0.30423103046E+03  0.57555873555E+03  0.40000000000E+03 0.  1.
<mgrwt>
<rscale>  2 0.48858094E+03</rscale>
<asrwt>0</asrwt>
<pdfrwt beam="1">  1       21 0.33565426E-01 0.48858094E+03</pdfrwt>
<pdfrwt beam="2">  1       21 0.17894807E+00 0.48858094E+03</pdfrwt>
<totfact> 0.13133299E+03</totfact>
</mgrwt>
</event>
<event>
 4    1  0.4689683E-002  0.4583878E+03  0.7818608E-02  0.1025250E+00
         21   -1    0    0  503  502  0.00000000000E+00  0.00000000000E+00  0.21135126288E+03  0.21135126288E+03  0.00000000000E+00 0.  1.
         21   -1    0    0  501  503 -0.00000000000E+00 -0.00000000000E+00 -0.10767703450E+04  0.10767703450E+04  0.00000000000E+00 0. -1.
    9000007    1    1    2  501    0  0.15074534901E+03 -0.16551513537E+03 -0.25432710645E+03  0.52421531584E+03  0.40000000000E+03 0.  1.
   -9000007    1    1    2    0  502 -0.15074534901E+03  0.16551513537E+03 -0.61109197566E+03  0.76390629203E+03  0.40000000000E+03 0. -1.
<mgrwt>
<rscale>  2 0.45838785E+03</rscale>
<asrwt>0</asrwt>
<pdfrwt beam="1">  1       21 0.32515579E-01 0.45838785E+03</pdfrwt>
<pdfrwt beam="2">  1       21 0.16565698E+00 0.45838785E+03</pdfrwt>
<totfact> 0.17686721E+03</totfact>
</mgrwt>
</event>
<event>
 4    1  0.4689683E-002  0.4201765E+03  0.7818608E-02  0.1037009E+00
         21   -1    0    0  503  502  0.00000000000E+00  0.00000000000E+00  0.36627144098E+03  0.36627144098E+03  0.00000000000E+00 0.  1.
         21   -1    0    0  501  503 -0.00000000000E+00 -0.00000000000E+00 -0.48256641663E+03  0.48256641663E+03  0.00000000000E+00 0.  1.
    9000007    1    1    2  501    0  0.93986343243E+02  0.87834102104E+02 -0.72496682426E+02  0.42638483928E+03  0.40000000000E+03 0.  1.
   -9000007    1    1    2    0  502 -0.93986343243E+02 -0.87834102104E+02 -0.43798293224E+02  0.42245301833E+03  0.40000000000E+03 0.  1.
<mgrwt>
<rscale>  2 0.42017647E+03</rscale>
<asrwt>0</asrwt>
<pdfrwt beam="1">  1       21 0.56349453E-01 0.42017647E+03</pdfrwt>
<pdfrwt beam="2">  1       21 0.74240987E-01 0.42017647E+03</pdfrwt>
<totfact> 0.42701763E+03</totfact>
</mgrwt>
</event>
<event>
 4    1  0.4689683E-002  0.4229487E+03  0.7818608E-02  0.1036111E+00
         21   -1    0    0  501  502  0.00000000000E+00  0.00000000000E+00  0.18784585010E+04  0.18784585010E+04  0.00000000000E+00 0.  1.
         21   -1    0    0  502  503 -0.00000000000E+00 -0.00000000000E+00 -0.95240687163E+02  0.95240687163E+02  0.00000000000E+00 0.  1.
    9000007    1    1    2  501    0  0.12342338343E+03  0.60434089559E+02  0.90206062073E+03  0.99629261477E+03  0.40000000000E+03 0.  1.
   -9000007    1    1    2    0  503 -0.12342338343E+03 -0.60434089559E+02  0.88115719307E+03  0.97740657337E+03  0.40000000000E+03 0.  1.
<mgrwt>
<rscale>  2 0.42294871E+03</rscale>
<asrwt>0</asrwt>
<pdfrwt beam="1">  1       21 0.28899359E+00 0.42294871E+03</pdfrwt>
<pdfrwt beam="2">  1       21 0.14652415E-01 0.42294871E+03</pdfrwt>
<totfact> 0.13362799E+03</totfact>
</mgrwt>
</event>
<event>
 4    1  0.4689683E-002  0.4462354E+03  0.7818608E-02  0.1028851E+00
         21   -1    0    0  503  502  0.00000000000E+00  0.00000000000E+00  0.24842228230E+03  0.24842228230E+03  0.00000000000E+00 0.  1.
         21   -1    0    0  501  503 -0.00000000000E+00 -0.00000000000E+00 -0.15065425418E+04  0.15065425418E+04  0.00000000000E+00 0.  1.
    9000007    1    1    2  501    0 -0.11431043037E+03  0.16142841345E+03 -0.12293155700E+04  0.13078007409E+04  0.40000000000E+03 0.  1.
   -9000007    1    1    2    0  502  0.11431043037E+03 -0.16142841345E+03 -0.28804689441E+02  0.44716408319E+03  0.40000000000E+03 0.  1.
<mgrwt>
<rscale>  2 0.44623537E+03</rscale>
<asrwt>0</asrwt>
<pdfrwt beam="1">  1       21 0.38218812E-01 0.44623537E+03</pdfrwt>
<pdfrwt beam="2">  1       21 0.23177578E+00 0.44623537E+03</pdfrwt>
<totfact> 0.45953832E+02</totfact>
</mgrwt>
</event>
<event>
 4    1  0.4689683E-002  0.5336615E+03  0.7818608E-02  0.1005348E+00
         21   -1    0    0  501  502  0.00000000000E+00  0.00000000000E+00  0.20375792310E+03  0.20375792310E+03  0.00000000000E+00 0.  1.
         21   -1    0    0  502  503 -0.00000000000E+00 -0.00000000000E+00 -0.15182548312E+04  0.15182548312E+04  0.00000000000E+00 0.  1.
    9000007    1    1    2  501    0 -0.71084935922E+02 -0.34603681686E+03 -0.41463895673E+03  0.67581063263E+03  0.40000000000E+03 0.  1.
   -9000007    1    1    2    0  503  0.71084935922E+02  0.34603681686E+03 -0.89985795134E+03  0.10462021216E+04  0.40000000000E+03 0.  1.
<mgrwt>
<rscale>  2 0.53366145E+03</rscale>
<asrwt>0</asrwt>
<pdfrwt beam="1">  1       21 0.31347373E-01 0.53366145E+03</pdfrwt>
<pdfrwt beam="2">  1       21 0.23357766E+00 0.53366145E+03</pdfrwt>
<totfact> 0.64190313E+02</totfact>
</mgrwt>
</event>
<event>
 4    1  0.4689683E-002  0.4119578E+03  0.7818608E-02  0.1039716E+00
         21   -1    0    0  501  502  0.00000000000E+00  0.00000000000E+00  0.24509901745E+03  0.24509901745E+03  0.00000000000E+00 0. -1.
         21   -1    0    0  502  503 -0.00000000000E+00 -0.00000000000E+00 -0.19273025835E+04  0.19273025835E+04  0.00000000000E+00 0. -1.
    9000007    1    1    2  501    0  0.97099894938E+02 -0.16757199563E+02  0.28358257068E+02  0.41293266289E+03  0.40000000000E+03 0. -1.
   -9000007    1    1    2    0  503 -0.97099894938E+02  0.16757199563E+02 -0.17105618231E+04  0.17594689381E+04  0.40000000000E+03 0. -1.
<mgrwt>
<rscale>  2 0.41195776E+03</rscale>
<asrwt>0</asrwt>
<pdfrwt beam="1">  1       21 0.37707541E-01 0.41195776E+03</pdfrwt>
<pdfrwt beam="2">  1       21 0.29650809E+00 0.41195776E+03</pdfrwt>
<totfact> 0.19464782E+02</totfact>
</mgrwt>
</event>
<event>
 4    1  0.4689683E-002  0.5948985E+03  0.7818608E-02  0.9916047E-01
         21   -1    0    0  503  502  0.00000000000E+00  0.00000000000E+00  0.29027659090E+03  0.29027659090E+03  0.00000000000E+00 0.  1.
         21   -1    0    0  501  503 -0.00000000000E+00 -0.00000000000E+00 -0.12670939853E+04  0.12670939853E+04  0.00000000000E+00 0.  1.
    9000007    1    1    2  501    0  0.30924473772E+03  0.31348344534E+03 -0.33701272986E+03  0.68372637685E+03  0.40000000000E+03 0.  1.
   -9000007    1    1    2    0  502 -0.30924473772E+03 -0.31348344534E+03 -0.63980466455E+03  0.87364419936E+03  0.40000000000E+03 0.  1.
<mgrwt>
<rscale>  2 0.59489846E+03</rscale>
<asrwt>0</asrwt>
<pdfrwt beam="1">  1       21 0.44657937E-01 0.59489846E+03</pdfrwt>
<pdfrwt beam="2">  1       21 0.19493753E+00 0.59489846E+03</pdfrwt>
<totfact> 0.54254967E+02</totfact>
</mgrwt>
</event>
<event>
 4    1  0.4689683E-002  0.4202402E+03  0.7818608E-02  0.1036988E+00
         21   -1    0    0  501  502  0.00000000000E+00  0.00000000000E+00  0.12078309711E+03  0.12078309711E+03  0.00000000000E+00 0.  1.
         21   -1    0    0  502  503 -0.00000000000E+00 -0.00000000000E+00 -0.17627228098E+04  0.17627228098E+04  0.00000000000E+00 0.  1.
    9000007    1    1    2  501    0 -0.12639113411E+03 -0.25042177736E+02 -0.43207978253E+03  0.60273938640E+03  0.40000000000E+03 0.  1.
   -9000007    1    1    2    0  503  0.12639113411E+03  0.25042177736E+02 -0.12098599302E+04  0.12807665205E+04  0.40000000000E+03 0.  1.
<mgrwt>
<rscale>  2 0.42024020E+03</rscale>
<asrwt>0</asrwt>
<pdfrwt beam="1">  1       21 0.18582016E-01 0.42024020E+03</pdfrwt>
<pdfrwt beam="2">  1       21 0.27118810E+00 0.42024020E+03</pdfrwt>
<totfact> 0.10986822E+03</totfact>
</mgrwt>
</event>
<event>
 4    1  0.4689683E-002  0.4032108E+03  0.7818608E-02  0.1042674E+00
         21   -1    0    0  501  502  0.00000000000E+00  0.00000000000E+00  0.47588303167E+03  0.47588303167E+03  0.00000000000E+00 0. -1.
         21   -1    0    0  502  503 -0.00000000000E+00 -0.00000000000E+00 -0.40513879282E+03  0.40513879282E+03  0.00000000000E+00 0. -1.
    9000007    1    1    2  501    0  0.26774949281E+02  0.43151229622E+02 -0.13902932732E+03  0.42650683509E+03  0.40000000000E+03 0. -1.
   -9000007    1    1    2    0  503 -0.26774949281E+02 -0.43151229622E+02  0.20977356617E+03  0.45451498940E+03  0.40000000000E+03 0. -1.
<mgrwt>
<rscale>  2 0.40321077E+03</rscale>
<asrwt>0</asrwt>
<pdfrwt beam="1">  1       21 0.73212774E-01 0.40321077E+03</pdfrwt>
<pdfrwt beam="2">  1       21 0.62329045E-01 0.40321077E+03</pdfrwt>
<totfact> 0.35591020E+03</totfact>
</mgrwt>
</event>
<event>
 4    1  0.4689683E-002  0.4259252E+03  0.7818608E-02  0.1035155E+00
         21   -1    0    0  501  502  0.00000000000E+00  0.00000000000E+00  0.18744185763E+03  0.18744185763E+03  0.00000000000E+00 0.  1.
         21   -1    0    0  502  503 -0.00000000000E+00 -0.00000000000E+00 -0.11473241220E+04  0.11473241220E+04  0.00000000000E+00 0.  1.
    9000007    1    1    2  501    0 -0.13714508215E+03  0.51024791117E+02 -0.21597130784E+03  0.47755199578E+03  0.40000000000E+03 0.  1.
   -9000007    1    1    2    0  503  0.13714508215E+03 -0.51024791117E+02 -0.74391095655E+03  0.85721398387E+03  0.40000000000E+03 0.  1.
<mgrwt>
<rscale>  2 0.42592523E+03</rscale>
<asrwt>0</asrwt>
<pdfrwt beam="1">  1       21 0.28837209E-01 0.42592523E+03</pdfrwt>
<pdfrwt beam="2">  1       21 0.17651140E+00 0.42592523E+03</pdfrwt>
<totfact> 0.18997239E+03</totfact>
</mgrwt>
</event>
<event>
 4    1  0.4689683E-002  0.4675490E+03  0.7818608E-02  0.1022614E+00
         21   -1    0    0  503  502  0.00000000000E+00  0.00000000000E+00  0.37624004730E+03  0.37624004730E+03  0.00000000000E+00 0.  1.
         21   -1    0    0  501  503 -0.00000000000E+00 -0.00000000000E+00 -0.63484663868E+03  0.63484663868E+03  0.00000000000E+00 0. -1.
    9000007    1    1    2  501    0  0.20605496213E+03 -0.12705673707E+03  0.17905103513E+02  0.46789171246E+03  0.40000000000E+03 0.  1.
   -9000007    1    1    2    0  502 -0.20605496213E+03  0.12705673707E+03 -0.27651169489E+03  0.54319497352E+03  0.40000000000E+03 0. -1.
<mgrwt>
<rscale>  2 0.46754899E+03</rscale>
<asrwt>0</asrwt>
<pdfrwt beam="1">  1       21 0.57883085E-01 0.46754899E+03</pdfrwt>
<pdfrwt beam="2">  1       21 0.97668713E-01 0.46754899E+03</pdfrwt>
<totfact> 0.20838672E+03</totfact>
</mgrwt>
</event>
<event>
 4    1  0.4689683E-002  0.7247657E+03  0.7818608E-02  0.9675792E-01
         21   -1    0    0  503  502  0.00000000000E+00  0.00000000000E+00  0.16209074603E+04  0.16209074603E+04  0.00000000000E+00 0.  1.
         21   -1    0    0  501  503 -0.00000000000E+00 -0.00000000000E+00 -0.32475826602E+03  0.32475826602E+03  0.00000000000E+00 0. -1.
    9000007    1    1    2  501    0 -0.17546328811E+03 -0.57835800152E+03  0.69290285886E+03  0.10026962228E+04  0.40000000000E+03 0. -1.
   -9000007    1    1    2    0  502  0.17546328811E+03  0.57835800152E+03  0.60324633545E+03  0.94296950355E+03  0.40000000000E+03 0.  1.
<mgrwt>
<rscale>  2 0.72476572E+03</rscale>
<asrwt>0</asrwt>
<pdfrwt beam="1">  1       21 0.24937037E+00 0.72476572E+03</pdfrwt>
<pdfrwt beam="2">  1       21 0.49962811E-01 0.72476572E+03</pdfrwt>
<totfact> 0.18079896E+02</totfact>
</mgrwt>
</event>
<event>
 4    1  0.4689683E-002  0.4102327E+03  0.7818608E-02  0.1040293E+00
         21   -1    0    0  503  502  0.00000000000E+00  0.00000000000E+00  0.26911717798E+03  0.26911717798E+03  0.00000000000E+00 0. -1.
         21   -1    0    0  501  503 -0.00000000000E+00 -0.00000000000E+00 -0.62720143896E+03  0.62720143896E+03  0.00000000000E+00 0. -1.
    9000007    1    1    2  501    0  0.80516388247E+02  0.42520601284E+02 -0.20342879424E+03  0.45790191596E+03  0.40000000000E+03 0. -1.
   -9000007    1    1    2    0  502 -0.80516388247E+02 -0.42520601284E+02 -0.15465546674E+03  0.43841670099E+03  0.40000000000E+03 0. -1.
<mgrwt>
<rscale>  2 0.41023273E+03</rscale>
<asrwt>0</asrwt>
<pdfrwt beam="1">  1       21 0.41402643E-01 0.41023273E+03</pdfrwt>
<pdfrwt beam="2">  1       21 0.96492527E-01 0.41023273E+03</pdfrwt>
<totfact> 0.44585911E+03</totfact>
</mgrwt>
</event>
<event>
 4    1  0.4689683E-002  0.4383143E+03  0.7818608E-02  0.1031265E+00
         21   -1    0    0  501  502  0.00000000000E+00  0.00000000000E+00  0.63362453518E+03  0.63362453518E+03  0.00000000000E+00 0.  1.
         21   -1    0    0  502  503 -0.00000000000E+00 -0.00000000000E+00 -0.48505492736E+03  0.48505492736E+03  0.00000000000E+00 0.  1.
    9000007    1    1    2  501    0  0.15268576939E+02  0.17856740492E+03  0.41676407204E+03  0.60482372579E+03  0.40000000000E+03 0.  1.
   -9000007    1    1    2    0  503 -0.15268576939E+02 -0.17856740492E+03 -0.26819446422E+03  0.51385573674E+03  0.40000000000E+03 0.  1.
<mgrwt>
<rscale>  2 0.43831433E+03</rscale>
<asrwt>0</asrwt>
<pdfrwt beam="1">  1       21 0.97480697E-01 0.43831433E+03</pdfrwt>
<pdfrwt beam="2">  1       21 0.74623835E-01 0.43831433E+03</pdfrwt>
<totfact> 0.12023674E+03</totfact>
</mgrwt>
</event>
<event>
 4    1  0.4689683E-002  0.4152464E+03  0.7818608E-02  0.1038625E+00
         21   -1    0    0  501  502  0.00000000000E+00  0.00000000000E+00  0.31865615470E+03  0.31865615470E+03  0.00000000000E+00 0.  1.
         21   -1    0    0  502  503 -0.00000000000E+00 -0.00000000000E+00 -0.15048730743E+04  0.15048730743E+04  0.00000000000E+00 0.  1.
    9000007    1    1    2  501    0  0.90378494371E+02  0.65278777906E+02  0.13654531949E+03  0.43712036714E+03  0.40000000000E+03 0.  1.
   -9000007    1    1    2    0  503 -0.90378494371E+02 -0.65278777906E+02 -0.13227622391E+04  0.13864088618E+04  0.40000000000E+03 0.  1.
<mgrwt>
<rscale>  2 0.41524642E+03</rscale>
<asrwt>0</asrwt>
<pdfrwt beam="1">  1       21 0.49024026E-01 0.41524642E+03</pdfrwt>
<pdfrwt beam="2">  1       21 0.23151892E+00 0.41524642E+03</pdfrwt>
<totfact> 0.27944015E+02</totfact>
</mgrwt>
</event>
<event>
 4    1  0.4689683E-002  0.4029946E+03  0.7818608E-02  0.1042748E+00
         21   -1    0    0  501  502  0.00000000000E+00  0.00000000000E+00  0.77471262578E+02  0.77471262578E+02  0.00000000000E+00 0.  1.
         21   -1    0    0  502  503 -0.00000000000E+00 -0.00000000000E+00 -0.21089610866E+04  0.21089610866E+04  0.00000000000E+00 0.  1.
    9000007    1    1    2  501    0 -0.34706803549E+02  0.34641845074E+02 -0.93110988928E+03  0.10145788513E+04  0.40000000000E+03 0. -1.
   -9000007    1    1    2    0  503  0.34706803549E+02 -0.34641845074E+02 -0.11003799347E+04  0.11718534978E+04  0.40000000000E+03 0. -1.
<mgrwt>
<rscale>  2 0.40299457E+03</rscale>
<asrwt>0</asrwt>
<pdfrwt beam="1">  1       21 0.11918655E-01 0.40299457E+03</pdfrwt>
<pdfrwt beam="2">  1       21 0.32445559E+00 0.40299457E+03</pdfrwt>
<totfact> 0.12096015E+03</totfact>
</mgrwt>
</event>
<event>
 4    1  0.4689683E-002  0.4176702E+03  0.7818608E-02  0.1037827E+00
         21   -1    0    0  503  502  0.00000000000E+00  0.00000000000E+00  0.46840288041E+03  0.46840288041E+03  0.00000000000E+00 0.  1.
         21   -1    0    0  501  503 -0.00000000000E+00 -0.00000000000E+00 -0.74234712423E+03  0.74234712423E+03  0.00000000000E+00 0.  1.
    9000007    1    1    2  501    0 -0.43759942709E+02 -0.11195298418E+03 -0.56431038926E+03  0.70206454026E+03  0.40000000000E+03 0.  1.
   -9000007    1    1    2    0  502  0.43759942709E+02  0.11195298418E+03  0.29036614545E+03  0.50868546438E+03  0.40000000000E+03 0.  1.
<mgrwt>
<rscale>  2 0.41767021E+03</rscale>
<asrwt>0</asrwt>
<pdfrwt beam="1">  1       21 0.72061981E-01 0.41767021E+03</pdfrwt>
<pdfrwt beam="2">  1       21 0.11420725E+00 0.41767021E+03</pdfrwt>
<totfact> 0.88994051E+02</totfact>
</mgrwt>
</event>
<event>
 4    1  0.4689683E-002  0.4023443E+03  0.7818608E-02  0.1042971E+00
         21   -1    0    0  503  502  0.00000000000E+00  0.00000000000E+00  0.62713308224E+03  0.62713308224E+03  0.00000000000E+00 0. -1.
         21   -1    0    0  501  503 -0.00000000000E+00 -0.00000000000E+00 -0.94126022267E+03  0.94126022267E+03  0.00000000000E+00 0. -1.
    9000007    1    1    2  501    0 -0.35626677245E+02  0.24732372529E+02 -0.82513414434E+03  0.91800180094E+03  0.40000000000E+03 0. -1.
   -9000007    1    1    2    0  502  0.35626677245E+02 -0.24732372529E+02  0.51100700391E+03  0.65039150396E+03  0.40000000000E+03 0. -1.
<mgrwt>
<rscale>  2 0.40234432E+03</rscale>
<asrwt>0</asrwt>
<pdfrwt beam="1">  1       21 0.96482013E-01 0.40234432E+03</pdfrwt>
<pdfrwt beam="2">  1       21 0.14480926E+00 0.40234432E+03</pdfrwt>
<totfact> 0.24634750E+02</totfact>
</mgrwt>
</event>
<event>
 4    1  0.4689683E-002  0.4251350E+03  0.7818608E-02  0.1035408E+00
         21   -1    0    0  501  502  0.00000000000E+00  0.00000000000E+00  0.18794621802E+04  0.18794621802E+04  0.00000000000E+00 0.  1.
         21   -1    0    0  502  503 -0.00000000000E+00 -0.00000000000E+00 -0.10174542032E+03  0.10174542032E+03  0.00000000000E+00 0.  1.
    9000007    1    1    2  501    0  0.10819896847E+03 -0.95040829319E+02  0.65687910455E+03  0.78245123427E+03  0.40000000000E+03 0.  1.
   -9000007    1    1    2    0  503 -0.10819896847E+03  0.95040829319E+02  0.11208376553E+04  0.11987563662E+04  0.40000000000E+03 0.  1.
<mgrwt>
<rscale>  2 0.42513501E+03</rscale>
<asrwt>0</asrwt>
<pdfrwt beam="1">  1       21 0.28914800E+00 0.42513501E+03</pdfrwt>
<pdfrwt beam="2">  1       21 0.15653143E-01 0.42513501E+03</pdfrwt>
<totfact> 0.11782773E+03</totfact>
</mgrwt>
</event>
<event>
 4    1  0.4689683E-002  0.4088880E+03  0.7818608E-02  0.1040745E+00
         21   -1    0    0  503  502  0.00000000000E+00  0.00000000000E+00  0.11078182335E+04  0.11078182335E+04  0.00000000000E+00 0.  1.
         21   -1    0    0  501  503 -0.00000000000E+00 -0.00000000000E+00 -0.16340804376E+03  0.16340804376E+03  0.00000000000E+00 0.  1.
    9000007    1    1    2  501    0  0.80026295876E+02  0.28020608026E+02  0.29647602203E+03  0.50506177260E+03  0.40000000000E+03 0.  1.
   -9000007    1    1    2    0  502 -0.80026295876E+02 -0.28020608026E+02  0.64793416773E+03  0.76616450467E+03  0.40000000000E+03 0.  1.
<mgrwt>
<rscale>  2 0.40888796E+03</rscale>
<asrwt>0</asrwt>
<pdfrwt beam="1">  1       21 0.17043357E+00 0.40888796E+03</pdfrwt>
<pdfrwt beam="2">  1       21 0.25139700E-01 0.40888796E+03</pdfrwt>
<totfact> 0.27684921E+03</totfact>
</mgrwt>
</event>
<event>
 4    1  0.4689683E-002  0.4829831E+03  0.7818608E-02  0.1018319E+00
         21   -1    0    0  501  502  0.00000000000E+00  0.00000000000E+00  0.15193447610E+04  0.15193447610E+04  0.00000000000E+00 0. -1.
         21   -1    0    0  502  503 -0.00000000000E+00 -0.00000000000E+00 -0.22199176515E+03  0.22199176515E+03  0.00000000000E+00 0.  1.
    9000007    1    1    2  501    0  0.73630497822E+02 -0.26048260417E+03  0.11321719422E+04  0.12308882744E+04  0.40000000000E+03 0. -1.
   -9000007    1    1    2    0  503 -0.73630497822E+02  0.26048260417E+03  0.16518105370E+03  0.51044825182E+03  0.40000000000E+03 0.  1.
<mgrwt>
<rscale>  2 0.48298306E+03</rscale>
<asrwt>0</asrwt>
<pdfrwt beam="1">  1       21 0.23374534E+00 0.48298306E+03</pdfrwt>
<pdfrwt beam="2">  1       21 0.34152580E-01 0.48298306E+03</pdfrwt>
<totfact> 0.55113887E+02</totfact>
</mgrwt>
</event>
<event>
 4    1  0.4689683E-002  0.4128147E+03  0.7818608E-02  0.1039431E+00
         21   -1    0    0  501  502  0.00000000000E+00  0.00000000000E+00  0.16412131311E+03  0.16412131311E+03  0.00000000000E+00 0.  1.
         21   -1    0    0  502  503 -0.00000000000E+00 -0.00000000000E+00 -0.10943975125E+04  0.10943975125E+04  0.00000000000E+00 0.  1.
    9000007    1    1    2  501    0 -0.47588464500E+02 -0.90284460966E+02 -0.32273919720E+03  0.52400051074E+03  0.40000000000E+03 0.  1.
   -9000007    1    1    2    0  503  0.47588464500E+02  0.90284460966E+02 -0.60753700221E+03  0.73451831488E+03  0.40000000000E+03 0.  1.
<mgrwt>
<rscale>  2 0.41281466E+03</rscale>
<asrwt>0</asrwt>
<pdfrwt beam="1">  1       21 0.25249433E-01 0.41281466E+03</pdfrwt>
<pdfrwt beam="2">  1       21 0.16836885E+00 0.41281466E+03</pdfrwt>
<totfact> 0.28368488E+03</totfact>
</mgrwt>
</event>
<event>
 4    1  0.4689683E-002  0.4298375E+03  0.7818608E-02  0.1033911E+00
         21   -1    0    0  503  502  0.00000000000E+00  0.00000000000E+00  0.41070264526E+03  0.41070264526E+03  0.00000000000E+00 0.  1.
         21   -1    0    0  501  503 -0.00000000000E+00 -0.00000000000E+00 -0.49502615045E+03  0.49502615045E+03  0.00000000000E+00 0.  1.
    9000007    1    1    2  501    0 -0.89071281764E+02 -0.12971747928E+03 -0.17894774202E+03  0.46559919678E+03  0.40000000000E+03 0.  1.
   -9000007    1    1    2    0  502  0.89071281764E+02  0.12971747928E+03  0.94624236830E+02  0.44012959894E+03  0.40000000000E+03 0.  1.
<mgrwt>
<rscale>  2 0.42983755E+03</rscale>
<asrwt>0</asrwt>
<pdfrwt beam="1">  1       21 0.63185023E-01 0.42983755E+03</pdfrwt>
<pdfrwt beam="2">  1       21 0.76157869E-01 0.42983755E+03</pdfrwt>
<totfact> 0.31257104E+03</totfact>
</mgrwt>
</event>
<event>
 4    1  0.4689683E-002  0.5249672E+03  0.7818608E-02  0.1007460E+00
         21   -1    0    0  501  502  0.00000000000E+00  0.00000000000E+00  0.80602510118E+03  0.80602510118E+03  0.00000000000E+00 0.  1.
         21   -1    0    0  502  503 -0.00000000000E+00 -0.00000000000E+00 -0.46122725103E+03  0.46122725103E+03  0.00000000000E+00 0.  1.
    9000007    1    1    2  501    0  0.28974897397E+03 -0.17786531336E+03  0.49467021411E+03  0.72131072246E+03  0.40000000000E+03 0.  1.
   -9000007    1    1    2    0  503 -0.28974897397E+03  0.17786531336E+03 -0.14987236395E+03  0.54594162975E+03  0.40000000000E+03 0.  1.
<mgrwt>
<rscale>  2 0.52496718E+03</rscale>
<asrwt>0</asrwt>
<pdfrwt beam="1">  1       21 0.12400386E+00 0.52496718E+03</pdfrwt>
<pdfrwt beam="2">  1       21 0.70958038E-01 0.52496718E+03</pdfrwt>
<totfact> 0.71586650E+02</totfact>
</mgrwt>
</event>
<event>
 4    1  0.4689683E-002  0.4594826E+03  0.7818608E-02  0.1024931E+00
         21   -1    0    0  503  502  0.00000000000E+00  0.00000000000E+00  0.44787321308E+03  0.44787321308E+03  0.00000000000E+00 0. -1.
         21   -1    0    0  501  503 -0.00000000000E+00 -0.00000000000E+00 -0.50435731576E+03  0.50435731576E+03  0.00000000000E+00 0.  1.
    9000007    1    1    2  501    0 -0.20635202967E+03  0.92428917990E+02 -0.14996303511E+03  0.48333547038E+03  0.40000000000E+03 0.  1.
   -9000007    1    1    2    0  502  0.20635202967E+03 -0.92428917990E+02  0.93478932435E+02  0.46889505845E+03  0.40000000000E+03 0. -1.
<mgrwt>
<rscale>  2 0.45948261E+03</rscale>
<asrwt>0</asrwt>
<pdfrwt beam="1">  1       21 0.68903572E-01 0.45948261E+03</pdfrwt>
<pdfrwt beam="2">  1       21 0.77593433E-01 0.45948261E+03</pdfrwt>
<totfact> 0.24427703E+03</totfact>
</mgrwt>
</event>
<event>
 4    1  0.4689683E-002  0.4883235E+03  0.7818608E-02  0.1016872E+00
         21   -1    0    0  501  502  0.00000000000E+00  0.00000000000E+00  0.59330625820E+03  0.59330625820E+03  0.00000000000E+00 0. -1.
         21   -1    0    0  502  503 -0.00000000000E+00 -0.00000000000E+00 -0.41844304850E+03  0.41844304850E+03  0.00000000000E+00 0. -1.
    9000007    1    1    2  501    0 -0.56700590079E+02 -0.27430808853E+03 -0.13101469869E+02  0.48849926598E+03  0.40000000000E+03 0. -1.
   -9000007    1    1    2    0  503  0.56700590079E+02  0.27430808853E+03  0.18796467957E+03  0.52325004072E+03  0.40000000000E+03 0. -1.
<mgrwt>
<rscale>  2 0.48832354E+03</rscale>
<asrwt>0</asrwt>
<pdfrwt beam="1">  1       21 0.91277886E-01 0.48832354E+03</pdfrwt>
<pdfrwt beam="2">  1       21 0.64375853E-01 0.48832354E+03</pdfrwt>
<totfact> 0.19252057E+03</totfact>
</mgrwt>
</event>
<event>
 4    1  0.4689683E-002  0.6299095E+03  0.7818608E-02  0.9845225E-01
         21   -1    0    0  503  502  0.00000000000E+00  0.00000000000E+00  0.68386570758E+03  0.68386570758E+03  0.00000000000E+00 0.  1.
         21   -1    0    0  501  503 -0.00000000000E+00 -0.00000000000E+00 -0.13116948308E+04  0.13116948308E+04  0.00000000000E+00 0. -1.
    9000007    1    1    2  501    0  0.44557781646E+03 -0.19556690777E+03 -0.10590256856E+04  0.12322018539E+04  0.40000000000E+03 0. -1.
   -9000007    1    1    2    0  502 -0.44557781646E+03  0.19556690777E+03  0.43119656232E+03  0.76335868456E+03  0.40000000000E+03 0.  1.
<mgrwt>
<rscale>  2 0.62990952E+03</rscale>
<asrwt>0</asrwt>
<pdfrwt beam="1">  1       21 0.10521011E+00 0.62990952E+03</pdfrwt>
<pdfrwt beam="2">  1       21 0.20179920E+00 0.62990952E+03</pdfrwt>
<totfact> 0.68771658E+01</totfact>
</mgrwt>
</event>
<event>
 4    1  0.4689683E-002  0.4810059E+03  0.7818608E-02  0.1018859E+00
         21   -1    0    0  503  502  0.00000000000E+00  0.00000000000E+00  0.12538052213E+04  0.12538052213E+04  0.00000000000E+00 0.  1.
         21   -1    0    0  501  503 -0.00000000000E+00 -0.00000000000E+00 -0.19478900913E+03  0.19478900913E+03  0.00000000000E+00 0.  1.
    9000007    1    1    2  501    0 -0.26593272589E+03 -0.25425972502E+02  0.36329962472E+03  0.60278794953E+03  0.40000000000E+03 0.  1.
   -9000007    1    1    2    0  502  0.26593272589E+03  0.25425972502E+02  0.69571658749E+03  0.84580628094E+03  0.40000000000E+03 0.  1.
<mgrwt>
<rscale>  2 0.48100592E+03</rscale>
<asrwt>0</asrwt>
<pdfrwt beam="1">  1       21 0.19289311E+00 0.48100592E+03</pdfrwt>
<pdfrwt beam="2">  1       21 0.29967541E-01 0.48100592E+03</pdfrwt>
<totfact> 0.13228801E+03</totfact>
</mgrwt>
</event>
<event>
 4    1  0.4689683E-002  0.4438800E+03  0.7818608E-02  0.1029563E+00
         21   -1    0    0  501  502  0.00000000000E+00  0.00000000000E+00  0.62306200128E+03  0.62306200128E+03  0.00000000000E+00 0. -1.
         21   -1    0    0  502  503 -0.00000000000E+00 -0.00000000000E+00 -0.31650196795E+03  0.31650196795E+03  0.00000000000E+00 0. -1.
    9000007    1    1    2  501    0  0.12351824942E+03  0.14755568586E+03  0.13944983883E+03  0.46526948742E+03  0.40000000000E+03 0. -1.
   -9000007    1    1    2    0  503 -0.12351824942E+03 -0.14755568586E+03  0.16711019450E+03  0.47429448181E+03  0.40000000000E+03 0. -1.
<mgrwt>
<rscale>  2 0.44387998E+03</rscale>
<asrwt>0</asrwt>
<pdfrwt beam="1">  1       21 0.95855692E-01 0.44387998E+03</pdfrwt>
<pdfrwt beam="2">  1       21 0.48692611E-01 0.44387998E+03</pdfrwt>
<totfact> 0.31874414E+03</totfact>
</mgrwt>
</event>
<event>
 4    1  0.4689683E-002  0.4169581E+03  0.7818608E-02  0.1038061E+00
         21   -1    0    0  501  502  0.00000000000E+00  0.00000000000E+00  0.66184781311E+03  0.66184781311E+03  0.00000000000E+00 0.  1.
         21   -1    0    0  502  503 -0.00000000000E+00 -0.00000000000E+00 -0.26563002831E+03  0.26563002831E+03  0.00000000000E+00 0. -1.
    9000007    1    1    2  501    0 -0.11420544496E+03  0.28480439562E+02  0.24698159362E+03  0.48461729920E+03  0.40000000000E+03 0. -1.
   -9000007    1    1    2    0  503  0.11420544496E+03 -0.28480439562E+02  0.14923619119E+03  0.44286054222E+03  0.40000000000E+03 0. -1.
<mgrwt>
<rscale>  2 0.41695805E+03</rscale>
<asrwt>0</asrwt>
<pdfrwt beam="1">  1       21 0.10182274E+00 0.41695805E+03</pdfrwt>
<pdfrwt beam="2">  1       21 0.40866158E-01 0.41695805E+03</pdfrwt>
<totfact> 0.40117704E+03</totfact>
</mgrwt>
</event>
<event>
 4    1  0.4689683E-002  0.7035571E+03  0.7818608E-02  0.9711168E-01
         21   -1    0    0  503  502  0.00000000000E+00  0.00000000000E+00  0.26024064502E+04  0.26024064502E+04  0.00000000000E+00 0. -1.
         21   -1    0    0  501  503 -0.00000000000E+00 -0.00000000000E+00 -0.19594055956E+03  0.19594055956E+03  0.00000000000E+00 0. -1.
    9000007    1    1    2  501    0  0.56152248728E+03  0.14030358013E+03  0.96386281645E+03  0.11933248205E+04  0.40000000000E+03 0. -1.
   -9000007    1    1    2    0  502 -0.56152248728E+03 -0.14030358013E+03  0.14426030741E+04  0.16050221892E+04  0.40000000000E+03 0. -1.
<mgrwt>
<rscale>  2 0.70355710E+03</rscale>
<asrwt>0</asrwt>
<pdfrwt beam="1">  1       21 0.40037020E+00 0.70355710E+03</pdfrwt>
<pdfrwt beam="2">  1       21 0.30144703E-01 0.70355710E+03</pdfrwt>
<totfact> 0.59373079E+01</totfact>
</mgrwt>
</event>
<event>
 4    1  0.4689683E-002  0.4863194E+03  0.7818608E-02  0.1017413E+00
         21   -1    0    0  503  502  0.00000000000E+00  0.00000000000E+00  0.56947261019E+03  0.56947261019E+03  0.00000000000E+00 0. -1.
         21   -1    0    0  501  503 -0.00000000000E+00 -0.00000000000E+00 -0.75012852332E+03  0.75012852332E+03  0.00000000000E+00 0. -1.
    9000007    1    1    2  501    0 -0.26273768613E+03 -0.86460686341E+02 -0.53113737696E+03  0.72014821753E+03  0.40000000000E+03 0. -1.
   -9000007    1    1    2    0  502  0.26273768613E+03  0.86460686341E+02  0.35048146383E+03  0.59945291599E+03  0.40000000000E+03 0. -1.
<mgrwt>
<rscale>  2 0.48631938E+03</rscale>
<asrwt>0</asrwt>
<pdfrwt beam="1">  1       21 0.87611171E-01 0.48631938E+03</pdfrwt>
<pdfrwt beam="2">  1       21 0.11540439E+00 0.48631938E+03</pdfrwt>
<totfact> 0.53607662E+02</totfact>
</mgrwt>
</event>
<event>
 4    1  0.4689683E-002  0.4132256E+03  0.7818608E-02  0.1039294E+00
         21   -1    0    0  501  502  0.00000000000E+00  0.00000000000E+00  0.72818691843E+03  0.72818691843E+03  0.00000000000E+00 0.  1.
         21   -1    0    0  502  503 -0.00000000000E+00 -0.00000000000E+00 -0.91006625045E+03  0.91006625045E+03  0.00000000000E+00 0.  1.
    9000007    1    1    2  501    0 -0.99783471478E+02 -0.28260161431E+02  0.61480963288E+03  0.74077409687E+03  0.40000000000E+03 0.  1.
   -9000007    1    1    2    0  503  0.99783471478E+02  0.28260161431E+02 -0.79668896490E+03  0.89747907201E+03  0.40000000000E+03 0.  1.
<mgrwt>
<rscale>  2 0.41322558E+03</rscale>
<asrwt>0</asrwt>
<pdfrwt beam="1">  1       21 0.11202876E+00 0.41322558E+03</pdfrwt>
<pdfrwt beam="2">  1       21 0.14001019E+00 0.41322558E+03</pdfrwt>
<totfact> 0.18585964E+02</totfact>
</mgrwt>
</event>
<event>
 4    1  0.4689683E-002  0.4082878E+03  0.7818608E-02  0.1040947E+00
         21   -1    0    0  503  502  0.00000000000E+00  0.00000000000E+00  0.24478255031E+03  0.24478255031E+03  0.00000000000E+00 0.  1.
         21   -1    0    0  501  503 -0.00000000000E+00 -0.00000000000E+00 -0.10531166511E+04  0.10531166511E+04  0.00000000000E+00 0.  1.
    9000007    1    1    2  501    0 -0.49425488128E+02  0.65238693548E+02 -0.78991834864E+03  0.88919624579E+03  0.40000000000E+03 0.  1.
   -9000007    1    1    2    0  502  0.49425488128E+02 -0.65238693548E+02 -0.18415752168E+02  0.40870295563E+03  0.40000000000E+03 0.  1.
<mgrwt>
<rscale>  2 0.40828785E+03</rscale>
<asrwt>0</asrwt>
<pdfrwt beam="1">  1       21 0.37658854E-01 0.40828785E+03</pdfrwt>
<pdfrwt beam="2">  1       21 0.16201795E+00 0.40828785E+03</pdfrwt>
<totfact> 0.14292497E+03</totfact>
</mgrwt>
</event>
<event>
 4    1  0.4689683E-002  0.4083047E+03  0.7818608E-02  0.1040941E+00
         21   -1    0    0  503  502  0.00000000000E+00  0.00000000000E+00  0.55743471048E+03  0.55743471048E+03  0.00000000000E+00 0. -1.
         21   -1    0    0  501  503 -0.00000000000E+00 -0.00000000000E+00 -0.61008139084E+03  0.61008139084E+03  0.00000000000E+00 0.  1.
    9000007    1    1    2  501    0  0.81449853212E+02  0.88665715463E+01 -0.44312195808E+03  0.60255270675E+03  0.40000000000E+03 0.  1.
   -9000007    1    1    2    0  502 -0.81449853212E+02 -0.88665715463E+01  0.39047527773E+03  0.56496339457E+03  0.40000000000E+03 0. -1.
<mgrwt>
<rscale>  2 0.40830466E+03</rscale>
<asrwt>0</asrwt>
<pdfrwt beam="1">  1       21 0.85759187E-01 0.40830466E+03</pdfrwt>
<pdfrwt beam="2">  1       21 0.93858675E-01 0.40830466E+03</pdfrwt>
<totfact> 0.96768459E+02</totfact>
</mgrwt>
</event>
<event>
 4    1  0.4689683E-002  0.5170899E+03  0.7818608E-02  0.1009412E+00
         21   -1    0    0  501  502  0.00000000000E+00  0.00000000000E+00  0.11118062299E+04  0.11118062299E+04  0.00000000000E+00 0. -1.
         21   -1    0    0  502  503 -0.00000000000E+00 -0.00000000000E+00 -0.24426118724E+03  0.24426118724E+03  0.00000000000E+00 0. -1.
    9000007    1    1    2  501    0 -0.18004658864E+02  0.32719680673E+03  0.34956039847E+03  0.62415894630E+03  0.40000000000E+03 0. -1.
   -9000007    1    1    2    0  503  0.18004658864E+02 -0.32719680673E+03  0.51798464422E+03  0.73190847087E+03  0.40000000000E+03 0. -1.
<mgrwt>
<rscale>  2 0.51708985E+03</rscale>
<asrwt>0</asrwt>
<pdfrwt beam="1">  1       21 0.17104711E+00 0.51708985E+03</pdfrwt>
<pdfrwt beam="2">  1       21 0.37578645E-01 0.51708985E+03</pdfrwt>
<totfact> 0.11770941E+03</totfact>
</mgrwt>
</event>
<event>
 4    1  0.4689683E-002  0.5892209E+03  0.7818608E-02  0.9928025E-01
         21   -1    0    0  501  502  0.00000000000E+00  0.00000000000E+00  0.12868545594E+04  0.12868545594E+04  0.00000000000E+00 0. -1.
         21   -1    0    0  502  503 -0.00000000000E+00 -0.00000000000E+00 -0.27174278620E+03  0.27174278620E+03  0.00000000000E+00 0.  1.
    9000007    1    1    2  501    0 -0.36884797187E+03  0.22612483504E+03  0.44150399996E+03  0.73627919253E+03  0.40000000000E+03 0. -1.
   -9000007    1    1    2    0  503  0.36884797187E+03 -0.22612483504E+03  0.57360777328E+03  0.82231815311E+03  0.40000000000E+03 0.  1.
<mgrwt>
<rscale>  2 0.58922090E+03</rscale>
<asrwt>0</asrwt>
<pdfrwt beam="1">  1       21 0.19797762E+00 0.58922090E+03</pdfrwt>
<pdfrwt beam="2">  1       21 0.41806583E-01 0.58922090E+03</pdfrwt>
<totfact> 0.59521186E+02</totfact>
</mgrwt>
</event>
<event>
 4    1  0.4689683E-002  0.4713607E+03  0.7818608E-02  0.1021537E+00
         21   -1    0    0  501  502  0.00000000000E+00  0.00000000000E+00  0.11998422103E+04  0.11998422103E+04  0.00000000000E+00 0. -1.
         21   -1    0    0  502  503 -0.00000000000E+00 -0.00000000000E+00 -0.79249624775E+03  0.79249624775E+03  0.00000000000E+00 0. -1.
    9000007    1    1    2  501    0 -0.24458309872E+03 -0.48580167323E+02  0.10757276475E+04  0.11744662177E+04  0.40000000000E+03 0. -1.
   -9000007    1    1    2    0  503  0.24458309872E+03  0.48580167323E+02 -0.66838168494E+03  0.81787224039E+03  0.40000000000E+03 0. -1.
<mgrwt>
<rscale>  2 0.47136072E+03</rscale>
<asrwt>0</asrwt>
<pdfrwt beam="1">  1       21 0.18459111E+00 0.47136072E+03</pdfrwt>
<pdfrwt beam="2">  1       21 0.12192250E+00 0.47136072E+03</pdfrwt>
<totfact> 0.67178967E+01</totfact>
</mgrwt>
</event>
<event>
 4    1  0.4689683E-002  0.5679031E+03  0.7818608E-02  0.9974330E-01
         21   -1    0    0  501  502  0.00000000000E+00  0.00000000000E+00  0.93770185492E+03  0.93770185492E+03  0.00000000000E+00 0. -1.
         21   -1    0    0  502  503 -0.00000000000E+00 -0.00000000000E+00 -0.47917952475E+03  0.47917952475E+03  0.00000000000E+00 0. -1.
    9000007    1    1    2  501    0  0.25098154344E+03 -0.31547138845E+03  0.60562240820E+03  0.83023637200E+03  0.40000000000E+03 0. -1.
   -9000007    1    1    2    0  503 -0.25098154344E+03  0.31547138845E+03 -0.14710007803E+03  0.58664500768E+03  0.40000000000E+03 0. -1.
<mgrwt>
<rscale>  2 0.56790310E+03</rscale>
<asrwt>0</asrwt>
<pdfrwt beam="1">  1       21 0.14426182E+00 0.56790310E+03</pdfrwt>
<pdfrwt beam="2">  1       21 0.73719927E-01 0.56790310E+03</pdfrwt>
<totfact> 0.43355263E+02</totfact>
</mgrwt>
</event>
<event>
 4    1  0.4689683E-002  0.4612903E+03  0.7818608E-02  0.1024408E+00
         21   -1    0    0  503  502  0.00000000000E+00  0.00000000000E+00  0.10824006828E+04  0.10824006828E+04  0.00000000000E+00 0.  1.
         21   -1    0    0  501  503 -0.00000000000E+00 -0.00000000000E+00 -0.28523237754E+03  0.28523237754E+03  0.00000000000E+00 0. -1.
    9000007    1    1    2  501    0  0.16808517921E+03  0.15664006095E+03  0.17376316767E+02  0.46161745260E+03  0.40000000000E+03 0. -1.
   -9000007    1    1    2    0  502 -0.16808517921E+03 -0.15664006095E+03  0.77979198851E+03  0.90601560776E+03  0.40000000000E+03 0.  1.
<mgrwt>
<rscale>  2 0.46129029E+03</rscale>
<asrwt>0</asrwt>
<pdfrwt beam="1">  1       21 0.16652318E+00 0.46129029E+03</pdfrwt>
<pdfrwt beam="2">  1       21 0.43881905E-01 0.46129029E+03</pdfrwt>
<totfact> 0.94270966E+02</totfact>
</mgrwt>
</event>
<event>
 4    1  0.4689683E-002  0.4127660E+03  0.7818608E-02  0.1039447E+00
         21   -1    0    0  503  502  0.00000000000E+00  0.00000000000E+00  0.20537301827E+04  0.20537301827E+04  0.00000000000E+00 0. -1.
         21   -1    0    0  501  503 -0.00000000000E+00 -0.00000000000E+00 -0.16080794207E+03  0.16080794207E+03  0.00000000000E+00 0. -1.
    9000007    1    1    2  501    0  0.10066240069E+02  0.10136299396E+03  0.17604518832E+03  0.44874011863E+03  0.40000000000E+03 0. -1.
   -9000007    1    1    2    0  502 -0.10066240069E+02 -0.10136299396E+03  0.17168770523E+04  0.17657980062E+04  0.40000000000E+03 0. -1.
<mgrwt>
<rscale>  2 0.41276602E+03</rscale>
<asrwt>0</asrwt>
<pdfrwt beam="1">  1       21 0.31595847E+00 0.41276602E+03</pdfrwt>
<pdfrwt beam="2">  1       21 0.24739685E-01 0.41276602E+03</pdfrwt>
<totfact> 0.34380437E+02</totfact>
</mgrwt>
</event>
<event>
 4    1  0.4689683E-002  0.6006909E+03  0.7818608E-02  0.9903974E-01
         21   -1    0    0  503  502  0.00000000000E+00  0.00000000000E+00  0.16315859558E+04  0.16315859558E+04  0.00000000000E+00 0.  1.
         21   -1    0    0  501  503 -0.00000000000E+00 -0.00000000000E+00 -0.22202103069E+03  0.22202103069E+03  0.00000000000E+00 0.  1.
    9000007    1    1    2  501    0  0.34007182035E+03 -0.29185745366E+03  0.76274357718E+03  0.97087969429E+03  0.40000000000E+03 0.  1.
   -9000007    1    1    2    0  502 -0.34007182035E+03  0.29185745366E+03  0.64682134792E+03  0.88272729219E+03  0.40000000000E+03 0.  1.
<mgrwt>
<rscale>  2 0.60069095E+03</rscale>
<asrwt>0</asrwt>
<pdfrwt beam="1">  1       21 0.25101322E+00 0.60069095E+03</pdfrwt>
<pdfrwt beam="2">  1       21 0.34157083E-01 0.60069095E+03</pdfrwt>
<totfact> 0.40858054E+02</totfact>
</mgrwt>
</event>
<event>
 4    1  0.4689683E-002  0.4625625E+03  0.7818608E-02  0.1024041E+00
         21   -1    0    0  501  502  0.00000000000E+00  0.00000000000E+00  0.15428126520E+03  0.15428126520E+03  0.00000000000E+00 0. -1.
         21   -1    0    0  502  503 -0.00000000000E+00 -0.00000000000E+00 -0.16015194372E+04  0.16015194372E+04  0.00000000000E+00 0. -1.
    9000007    1    1    2  501    0  0.89374634422E+02 -0.21442077069E+03 -0.10450369401E+04  0.11428325767E+04  0.40000000000E+03 0. -1.
   -9000007    1    1    2    0  503 -0.89374634422E+02  0.21442077069E+03 -0.40220123191E+03  0.61296812570E+03  0.40000000000E+03 0. -1.
<mgrwt>
<rscale>  2 0.46256253E+03</rscale>
<asrwt>0</asrwt>
<pdfrwt beam="1">  1       21 0.23735579E-01 0.46256253E+03</pdfrwt>
<pdfrwt beam="2">  1       21 0.24638761E+00 0.46256253E+03</pdfrwt>
<totfact> 0.95358139E+02</totfact>
</mgrwt>
</event>
<event>
 4    1  0.4689683E-002  0.4872362E+03  0.7818608E-02  0.1017165E+00
         21   -1    0    0  501  502  0.00000000000E+00  0.00000000000E+00  0.25620072162E+04  0.25620072162E+04  0.00000000000E+00 0. -1.
         21   -1    0    0  502  503 -0.00000000000E+00 -0.00000000000E+00 -0.13800418730E+03  0.13800418730E+03  0.00000000000E+00 0. -1.
    9000007    1    1    2  501    0  0.94072659349E+01  0.27804793633E+03  0.19858280572E+04  0.20447279096E+04  0.40000000000E+03 0. -1.
   -9000007    1    1    2    0  503 -0.94072659349E+01 -0.27804793633E+03  0.43817497171E+03  0.65528349391E+03  0.40000000000E+03 0. -1.
<mgrwt>
<rscale>  2 0.48723624E+03</rscale>
<asrwt>0</asrwt>
<pdfrwt beam="1">  1       21 0.39415492E+00 0.48723624E+03</pdfrwt>
<pdfrwt beam="2">  1       21 0.21231415E-01 0.48723624E+03</pdfrwt>
<totfact> 0.14483548E+02</totfact>
</mgrwt>
</event>
<event>
 4    1  0.4689683E-002  0.4114782E+03  0.7818608E-02  0.1039876E+00
         21   -1    0    0  503  502  0.00000000000E+00  0.00000000000E+00  0.75130091863E+03  0.75130091863E+03  0.00000000000E+00 0. -1.
         21   -1    0    0  501  503 -0.00000000000E+00 -0.00000000000E+00 -0.49712842859E+03  0.49712842859E+03  0.00000000000E+00 0. -1.
    9000007    1    1    2  501    0  0.82118840454E+02 -0.50702721942E+02 -0.33444170937E+03  0.53025043794E+03  0.40000000000E+03 0. -1.
   -9000007    1    1    2    0  502 -0.82118840454E+02  0.50702721942E+02  0.58861419942E+03  0.71817890927E+03  0.40000000000E+03 0. -1.
<mgrwt>
<rscale>  2 0.41147815E+03</rscale>
<asrwt>0</asrwt>
<pdfrwt beam="1">  1       21 0.11558476E+00 0.41147815E+03</pdfrwt>
<pdfrwt beam="2">  1       21 0.76481297E-01 0.41147815E+03</pdfrwt>
<totfact> 0.75660416E+02</totfact>
</mgrwt>
</event>
<event>
 4    1  0.4689683E-002  0.4690631E+03  0.7818608E-02  0.1022185E+00
         21   -1    0    0  503  502  0.00000000000E+00  0.00000000000E+00  0.64534900816E+03  0.64534900816E+03  0.00000000000E+00 0. -1.
         21   -1    0    0  501  503 -0.00000000000E+00 -0.00000000000E+00 -0.80888577850E+03  0.80888577850E+03  0.00000000000E+00 0.  1.
    9000007    1    1    2  501    0 -0.23992738316E+02 -0.24381248741E+03 -0.63481581070E+03  0.78931064482E+03  0.40000000000E+03 0.  1.
   -9000007    1    1    2    0  502  0.23992738316E+02  0.24381248741E+03  0.47127904037E+03  0.66492414184E+03  0.40000000000E+03 0. -1.
<mgrwt>
<rscale>  2 0.46906309E+03</rscale>
<asrwt>0</asrwt>
<pdfrwt beam="1">  1       21 0.99284463E-01 0.46906309E+03</pdfrwt>
<pdfrwt beam="2">  1       21 0.12444397E+00 0.46906309E+03</pdfrwt>
<totfact> 0.33062364E+02</totfact>
</mgrwt>
</event>
<event>
 4    1  0.4689683E-002  0.4126398E+03  0.7818608E-02  0.1039489E+00
         21   -1    0    0  503  502  0.00000000000E+00  0.00000000000E+00  0.60028109368E+03  0.60028109368E+03  0.00000000000E+00 0. -1.
         21   -1    0    0  501  503 -0.00000000000E+00 -0.00000000000E+00 -0.28889063109E+03  0.28889063109E+03  0.00000000000E+00 0. -1.
    9000007    1    1    2  501    0  0.90958465743E+02 -0.44701054050E+02  0.21555704950E+03  0.46554964108E+03  0.40000000000E+03 0. -1.
   -9000007    1    1    2    0  502 -0.90958465743E+02  0.44701054050E+02  0.95833413092E+02  0.42362208369E+03  0.40000000000E+03 0. -1.
<mgrwt>
<rscale>  2 0.41263983E+03</rscale>
<asrwt>0</asrwt>
<pdfrwt beam="1">  1       21 0.92350937E-01 0.41263983E+03</pdfrwt>
<pdfrwt beam="2">  1       21 0.44444713E-01 0.41263983E+03</pdfrwt>
<totfact> 0.42693572E+03</totfact>
</mgrwt>
</event>
<event>
 4    1  0.4689683E-002  0.4410754E+03  0.7818608E-02  0.1030417E+00
         21   -1    0    0  503  502  0.00000000000E+00  0.00000000000E+00  0.41704934194E+03  0.41704934194E+03  0.00000000000E+00 0.  1.
         21   -1    0    0  501  503 -0.00000000000E+00 -0.00000000000E+00 -0.78287548096E+03  0.78287548096E+03  0.00000000000E+00 0.  1.
    9000007    1    1    2  501    0 -0.16697129410E+03 -0.81658156823E+02 -0.56432042364E+03  0.71624367932E+03  0.40000000000E+03 0.  1.
   -9000007    1    1    2    0  502  0.16697129410E+03  0.81658156823E+02  0.19849428462E+03  0.48368114358E+03  0.40000000000E+03 0.  1.
<mgrwt>
<rscale>  2 0.44107535E+03</rscale>
<asrwt>0</asrwt>
<pdfrwt beam="1">  1       21 0.64161437E-01 0.44107535E+03</pdfrwt>
<pdfrwt beam="2">  1       21 0.12044238E+00 0.44107535E+03</pdfrwt>
<totfact> 0.99929264E+02</totfact>
</mgrwt>
</event>
<event>
 4    1  0.4689683E-002  0.4292459E+03  0.7818608E-02  0.1034098E+00
         21   -1    0    0  501  502  0.00000000000E+00  0.00000000000E+00  0.28224960773E+03  0.28224960773E+03  0.00000000000E+00 0.  1.
         21   -1    0    0  502  503 -0.00000000000E+00 -0.00000000000E+00 -0.67070607432E+03  0.67070607432E+03  0.00000000000E+00 0.  1.
    9000007    1    1    2  501    0 -0.85224361095E+02 -0.13034123190E+03 -0.27208545930E+03  0.50821503876E+03  0.40000000000E+03 0.  1.
   -9000007    1    1    2    0  503  0.85224361095E+02  0.13034123190E+03 -0.11637100730E+03  0.44474064329E+03  0.40000000000E+03 0.  1.
<mgrwt>
<rscale>  2 0.42924588E+03</rscale>
<asrwt>0</asrwt>
<pdfrwt beam="1">  1       21 0.43423017E-01 0.42924588E+03</pdfrwt>
<pdfrwt beam="2">  1       21 0.10318555E+00 0.42924588E+03</pdfrwt>
<totfact> 0.34089015E+03</totfact>
</mgrwt>
</event>
<event>
 4    1  0.4689683E-002  0.4341070E+03  0.7818608E-02  0.1032570E+00
         21   -1    0    0  501  502  0.00000000000E+00  0.00000000000E+00  0.26108932200E+03  0.26108932200E+03  0.00000000000E+00 0. -1.
         21   -1    0    0  502  503 -0.00000000000E+00 -0.00000000000E+00 -0.10280165037E+04  0.10280165037E+04  0.00000000000E+00 0.  1.
    9000007    1    1    2  501    0 -0.66200482505E+02  0.15513356186E+03 -0.31670464007E+02  0.43526077722E+03  0.40000000000E+03 0.  1.
   -9000007    1    1    2    0  503  0.66200482505E+02 -0.15513356186E+03 -0.73525671769E+03  0.85384504848E+03  0.40000000000E+03 0.  1.
<mgrwt>
<rscale>  2 0.43410704E+03</rscale>
<asrwt>0</asrwt>
<pdfrwt beam="1">  1       21 0.40167588E-01 0.43410704E+03</pdfrwt>
<pdfrwt beam="2">  1       21 0.15815639E+00 0.43410704E+03</pdfrwt>
<totfact> 0.13238774E+03</totfact>
</mgrwt>
</event>
<event>
 4    1  0.4689683E-002  0.5134819E+03  0.7818608E-02  0.1010319E+00
         21   -1    0    0  503  502  0.00000000000E+00  0.00000000000E+00  0.25343871481E+03  0.25343871481E+03  0.00000000000E+00 0.  1.
         21   -1    0    0  501  503 -0.00000000000E+00 -0.00000000000E+00 -0.12105043715E+04  0.12105043715E+04  0.00000000000E+00 0. -1.
    9000007    1    1    2  501    0  0.32192331644E+03 -0.53865946465E+01 -0.75296768312E+03  0.91138574100E+03  0.40000000000E+03 0. -1.
   -9000007    1    1    2    0  502 -0.32192331644E+03  0.53865946465E+01 -0.20409797360E+03  0.55255734534E+03  0.40000000000E+03 0.  1.
<mgrwt>
<rscale>  2 0.51348188E+03</rscale>
<asrwt>0</asrwt>
<pdfrwt beam="1">  1       21 0.38990572E-01 0.51348188E+03</pdfrwt>
<pdfrwt beam="2">  1       21 0.18623144E+00 0.51348188E+03</pdfrwt>
<totfact> 0.85200414E+02</totfact>
</mgrwt>
</event>
<event>
 4    1  0.4689683E-002  0.4733234E+03  0.7818608E-02  0.1020986E+00
         21   -1    0    0  503  502  0.00000000000E+00  0.00000000000E+00  0.57078406662E+03  0.57078406662E+03  0.00000000000E+00 0. -1.
         21   -1    0    0  501  503 -0.00000000000E+00 -0.00000000000E+00 -0.52435971801E+03  0.52435971801E+03  0.00000000000E+00 0. -1.
    9000007    1    1    2  501    0 -0.15983855922E+03  0.19618015149E+03 -0.25137231821E+03  0.53593195390E+03  0.40000000000E+03 0. -1.
   -9000007    1    1    2    0  502  0.15983855922E+03 -0.19618015149E+03  0.29779666682E+03  0.55921183072E+03  0.40000000000E+03 0. -1.
<mgrwt>
<rscale>  2 0.47332337E+03</rscale>
<asrwt>0</asrwt>
<pdfrwt beam="1">  1       21 0.87812934E-01 0.47332337E+03</pdfrwt>
<pdfrwt beam="2">  1       21 0.80670725E-01 0.47332337E+03</pdfrwt>
<totfact> 0.12717722E+03</totfact>
</mgrwt>
</event>
<event>
 4    1  0.4689683E-002  0.4589557E+03  0.7818608E-02  0.1025085E+00
         21   -1    0    0  503  502  0.00000000000E+00  0.00000000000E+00  0.48677345475E+03  0.48677345475E+03  0.00000000000E+00 0.  1.
         21   -1    0    0  501  503 -0.00000000000E+00 -0.00000000000E+00 -0.53154248521E+03  0.53154248521E+03  0.00000000000E+00 0.  1.
    9000007    1    1    2  501    0  0.34065334461E+02  0.22244072274E+03  0.19714589051E+03  0.49950658083E+03  0.40000000000E+03 0.  1.
   -9000007    1    1    2    0  502 -0.34065334461E+02 -0.22244072274E+03 -0.24191492096E+03  0.51880935914E+03  0.40000000000E+03 0.  1.
<mgrwt>
<rscale>  2 0.45895569E+03</rscale>
<asrwt>0</asrwt>
<pdfrwt beam="1">  1       21 0.74888224E-01 0.45895569E+03</pdfrwt>
<pdfrwt beam="2">  1       21 0.81775767E-01 0.45895569E+03</pdfrwt>
<totfact> 0.17923618E+03</totfact>
</mgrwt>
</event>
<event>
 4    1  0.4689683E-002  0.5078805E+03  0.7818608E-02  0.1011742E+00
         21   -1    0    0  501  502  0.00000000000E+00  0.00000000000E+00  0.13913954428E+04  0.13913954428E+04  0.00000000000E+00 0. -1.
         21   -1    0    0  502  503 -0.00000000000E+00 -0.00000000000E+00 -0.20790801975E+03  0.20790801975E+03  0.00000000000E+00 0. -1.
    9000007    1    1    2  501    0  0.49136818753E+02 -0.30907627573E+03  0.85494462376E+03  0.99442087713E+03  0.40000000000E+03 0. -1.
   -9000007    1    1    2    0  503 -0.49136818753E+02  0.30907627573E+03  0.32854279928E+03  0.60488258542E+03  0.40000000000E+03 0. -1.
<mgrwt>
<rscale>  2 0.50788047E+03</rscale>
<asrwt>0</asrwt>
<pdfrwt beam="1">  1       21 0.21406083E+00 0.50788047E+03</pdfrwt>
<pdfrwt beam="2">  1       21 0.31985850E-01 0.50788047E+03</pdfrwt>
<totfact> 0.83065654E+02</totfact>
</mgrwt>
</event>
<event>
 4    1  0.4689683E-002  0.4253097E+03  0.7818608E-02  0.1035352E+00
         21   -1    0    0  501  502  0.00000000000E+00  0.00000000000E+00  0.13989835800E+03  0.13989835800E+03  0.00000000000E+00 0.  1.
         21   -1    0    0  502  503 -0.00000000000E+00 -0.00000000000E+00 -0.13126095263E+04  0.13126095263E+04  0.00000000000E+00 0.  1.
    9000007    1    1    2  501    0  0.78509444679E+02 -0.12134487607E+03 -0.49758373705E+03  0.65458222343E+03  0.40000000000E+03 0.  1.
   -9000007    1    1    2    0  503 -0.78509444679E+02  0.12134487607E+03 -0.67512743122E+03  0.79792566084E+03  0.40000000000E+03 0.  1.
<mgrwt>
<rscale>  2 0.42530967E+03</rscale>
<asrwt>0</asrwt>
<pdfrwt beam="1">  1       21 0.21522825E-01 0.42530967E+03</pdfrwt>
<pdfrwt beam="2">  1       21 0.20193992E+00 0.42530967E+03</pdfrwt>
<totfact> 0.22466017E+03</totfact>
</mgrwt>
</event>
<event>
 4    1  0.4689683E-002  0.7152301E+03  0.7818608E-02  0.9691535E-01
         21   -1    0    0  503  502  0.00000000000E+00  0.00000000000E+00  0.48464028993E+03  0.48464028993E+03  0.00000000000E+00 0.  1.
         21   -1    0    0  501  503 -0.00000000000E+00 -0.00000000000E+00 -0.10814384221E+04  0.10814384221E+04  0.00000000000E+00 0. -1.
    9000007    1    1    2  501    0 -0.41784305411E+03 -0.42066761408E+03 -0.41959104402E+03  0.82922295170E+03  0.40000000000E+03 0. -1.
   -9000007    1    1    2    0  502  0.41784305411E+03  0.42066761408E+03 -0.17720708812E+03  0.73685576030E+03  0.40000000000E+03 0. -1.
<mgrwt>
<rscale>  2 0.71523007E+03</rscale>
<asrwt>0</asrwt>
<pdfrwt beam="1">  1       21 0.74560045E-01 0.71523007E+03</pdfrwt>
<pdfrwt beam="2">  1       21 0.16637514E+00 0.71523007E+03</pdfrwt>
<totfact> 0.27046815E+02</totfact>
</mgrwt>
</event>
<event>
 4    1  0.4689683E-002  0.4199315E+03  0.7818608E-02  0.1037089E+00
         21   -1    0    0  501  502  0.00000000000E+00  0.00000000000E+00  0.46189227481E+03  0.46189227481E+03  0.00000000000E+00 0.  1.
         21   -1    0    0  502  503 -0.00000000000E+00 -0.00000000000E+00 -0.38880822303E+03  0.38880822303E+03  0.00000000000E+00 0.  1.
    9000007    1    1    2  501    0  0.10239760854E+03 -0.76532369122E+02 -0.20634623903E+02  0.42043817793E+03  0.40000000000E+03 0.  1.
   -9000007    1    1    2    0  503 -0.10239760854E+03  0.76532369122E+02  0.93718675688E+02  0.43026231991E+03  0.40000000000E+03 0.  1.
<mgrwt>
<rscale>  2 0.41993151E+03</rscale>
<asrwt>0</asrwt>
<pdfrwt beam="1">  1       21 0.71060350E-01 0.41993151E+03</pdfrwt>
<pdfrwt beam="2">  1       21 0.59816650E-01 0.41993151E+03</pdfrwt>
<totfact> 0.41409946E+03</totfact>
</mgrwt>
</event>
<event>
 4    1  0.4689683E-002  0.6560961E+03  0.7818608E-02  0.9795407E-01
         21   -1    0    0  501  502  0.00000000000E+00  0.00000000000E+00  0.33018775000E+03  0.33018775000E+03  0.00000000000E+00 0.  1.
         21   -1    0    0  502  503 -0.00000000000E+00 -0.00000000000E+00 -0.13874377368E+04  0.13874377368E+04  0.00000000000E+00 0. -1.
    9000007    1    1    2  501    0  0.33807616904E+03  0.39517916973E+03 -0.31762551852E+03  0.72893624020E+03  0.40000000000E+03 0.  1.
   -9000007    1    1    2    0  503 -0.33807616904E+03 -0.39517916973E+03 -0.73962446829E+03  0.98868924660E+03  0.40000000000E+03 0. -1.
<mgrwt>
<rscale>  2 0.65609608E+03</rscale>
<asrwt>0</asrwt>
<pdfrwt beam="1">  1       21 0.50798115E-01 0.65609608E+03</pdfrwt>
<pdfrwt beam="2">  1       21 0.21345196E+00 0.65609608E+03</pdfrwt>
<totfact> 0.30351668E+02</totfact>
</mgrwt>
</event>
<event>
 4    1  0.4689683E-002  0.4114250E+03  0.7818608E-02  0.1039894E+00
         21   -1    0    0  503  502  0.00000000000E+00  0.00000000000E+00  0.39827726732E+03  0.39827726732E+03  0.00000000000E+00 0. -1.
         21   -1    0    0  501  503 -0.00000000000E+00 -0.00000000000E+00 -0.15382285555E+04  0.15382285555E+04  0.00000000000E+00 0. -1.
    9000007    1    1    2  501    0 -0.96223502510E+02  0.34015885870E+01 -0.13936759478E+04  0.14531356374E+04  0.40000000000E+03 0. -1.
   -9000007    1    1    2    0  502  0.96223502510E+02 -0.34015885870E+01  0.25372465962E+03  0.48337018541E+03  0.40000000000E+03 0. -1.
<mgrwt>
<rscale>  2 0.41142500E+03</rscale>
<asrwt>0</asrwt>
<pdfrwt beam="1">  1       21 0.61273425E-01 0.41142500E+03</pdfrwt>
<pdfrwt beam="2">  1       21 0.23665055E+00 0.41142500E+03</pdfrwt>
<totfact> 0.16090955E+02</totfact>
</mgrwt>
</event>
<event>
 4    1  0.4689683E-002  0.5777323E+03  0.7818608E-02  0.9952713E-01
         21   -1    0    0  503  502  0.00000000000E+00  0.00000000000E+00  0.17615646623E+04  0.17615646623E+04  0.00000000000E+00 0.  1.
         21   -1    0    0  501  503 -0.00000000000E+00 -0.00000000000E+00 -0.22354932462E+03  0.22354932462E+03  0.00000000000E+00 0. -1.
    9000007    1    1    2  501    0 -0.22127182137E+03 -0.35328933609E+03  0.38150493646E+03  0.69232982780E+03  0.40000000000E+03 0. -1.
   -9000007    1    1    2    0  502  0.22127182137E+03  0.35328933609E+03  0.11565104012E+04  0.12927841591E+04  0.40000000000E+03 0.  1.
<mgrwt>
<rscale>  2 0.57773227E+03</rscale>
<asrwt>0</asrwt>
<pdfrwt beam="1">  1       21 0.27100994E+00 0.57773227E+03</pdfrwt>
<pdfrwt beam="2">  1       21 0.34392205E-01 0.57773227E+03</pdfrwt>
<totfact> 0.30628879E+02</totfact>
</mgrwt>
</event>
<event>
 4    1  0.4689683E-002  0.4246873E+03  0.7818608E-02  0.1035551E+00
         21   -1    0    0  503  502  0.00000000000E+00  0.00000000000E+00  0.14798733115E+03  0.14798733115E+03  0.00000000000E+00 0.  1.
         21   -1    0    0  501  503 -0.00000000000E+00 -0.00000000000E+00 -0.15151955475E+04  0.15151955475E+04  0.00000000000E+00 0.  1.
    9000007    1    1    2  501    0 -0.48358149328E+02 -0.13424167675E+03 -0.10514358716E+04  0.11339650482E+04  0.40000000000E+03 0.  1.
   -9000007    1    1    2    0  502  0.48358149328E+02  0.13424167675E+03 -0.31577234473E+03  0.52921783046E+03  0.40000000000E+03 0.  1.
<mgrwt>
<rscale>  2 0.42468734E+03</rscale>
<asrwt>0</asrwt>
<pdfrwt beam="1">  1       21 0.22767282E-01 0.42468734E+03</pdfrwt>
<pdfrwt beam="2">  1       21 0.23310701E+00 0.42468734E+03</pdfrwt>
<totfact> 0.12728998E+03</totfact>
</mgrwt>
</event>
<event>
 4    1  0.4689683E-002  0.4895663E+03  0.7818608E-02  0.1016539E+00
         21   -1    0    0  503  502  0.00000000000E+00  0.00000000000E+00  0.17910300229E+03  0.17910300229E+03  0.00000000000E+00 0. -1.
         21   -1    0    0  501  503 -0.00000000000E+00 -0.00000000000E+00 -0.13604023098E+04  0.13604023098E+04  0.00000000000E+00 0. -1.
    9000007    1    1    2  501    0 -0.15827951963E+03 -0.23371501338E+03 -0.68899304919E+03  0.84521389934E+03  0.40000000000E+03 0.  1.
   -9000007    1    1    2    0  502  0.15827951963E+03  0.23371501338E+03 -0.49230625830E+03  0.69429141272E+03  0.40000000000E+03 0.  1.
<mgrwt>
<rscale>  2 0.48956625E+03</rscale>
<asrwt>0</asrwt>
<pdfrwt beam="1">  1       21 0.27554308E-01 0.48956625E+03</pdfrwt>
<pdfrwt beam="2">  1       21 0.20929266E+00 0.48956625E+03</pdfrwt>
<totfact> 0.12097059E+03</totfact>
</mgrwt>
</event>
<event>
 4    1  0.4689683E-002  0.4910880E+03  0.7818608E-02  0.1016132E+00
         21   -1    0    0  503  502  0.00000000000E+00  0.00000000000E+00  0.11492241802E+04  0.11492241802E+04  0.00000000000E+00 0. -1.
         21   -1    0    0  501  503 -0.00000000000E+00 -0.00000000000E+00 -0.21137487451E+03  0.21137487451E+03  0.00000000000E+00 0. -1.
    9000007    1    1    2  501    0 -0.25190979651E+03  0.13307455334E+03  0.52666204914E+03  0.72009742142E+03  0.40000000000E+03 0. -1.
   -9000007    1    1    2    0  502  0.25190979651E+03 -0.13307455334E+03  0.41118725658E+03  0.64050163333E+03  0.40000000000E+03 0. -1.
<mgrwt>
<rscale>  2 0.49108796E+03</rscale>
<asrwt>0</asrwt>
<pdfrwt beam="1">  1       21 0.17680372E+00 0.49108796E+03</pdfrwt>
<pdfrwt beam="2">  1       21 0.32519212E-01 0.49108796E+03</pdfrwt>
<totfact> 0.14484505E+03</totfact>
</mgrwt>
</event>
<event>
 4    1  0.4689683E-002  0.4852663E+03  0.7818608E-02  0.1017698E+00
         21   -1    0    0  501  502  0.00000000000E+00  0.00000000000E+00  0.69518569694E+03  0.69518569694E+03  0.00000000000E+00 0. -1.
         21   -1    0    0  502  503 -0.00000000000E+00 -0.00000000000E+00 -0.37364772932E+03  0.37364772932E+03  0.00000000000E+00 0. -1.
    9000007    1    1    2  501    0  0.39154381854E+01  0.27471443214E+03  0.32412838512E+03  0.58356024532E+03  0.40000000000E+03 0. -1.
   -9000007    1    1    2    0  503 -0.39154381854E+01 -0.27471443214E+03 -0.25904174915E+01  0.48527318094E+03  0.40000000000E+03 0. -1.
<mgrwt>
<rscale>  2 0.48526627E+03</rscale>
<asrwt>0</asrwt>
<pdfrwt beam="1">  1       21 0.10695165E+00 0.48526627E+03</pdfrwt>
<pdfrwt beam="2">  1       21 0.57484266E-01 0.48526627E+03</pdfrwt>
<totfact> 0.16830254E+03</totfact>
</mgrwt>
</event>
<event>
 4    1  0.4689683E-002  0.4156398E+03  0.7818608E-02  0.1038495E+00
         21   -1    0    0  501  502  0.00000000000E+00  0.00000000000E+00  0.12924938826E+03  0.12924938826E+03  0.00000000000E+00 0. -1.
         21   -1    0    0  502  503 -0.00000000000E+00 -0.00000000000E+00 -0.14488293830E+04  0.14488293830E+04  0.00000000000E+00 0. -1.
    9000007    1    1    2  501    0  0.77353650081E+02 -0.82297389747E+02 -0.44019741328E+03  0.60541738511E+03  0.40000000000E+03 0. -1.
   -9000007    1    1    2    0  503 -0.77353650081E+02  0.82297389747E+02 -0.87938258151E+03  0.97266138620E+03  0.40000000000E+03 0. -1.
<mgrwt>
<rscale>  2 0.41563981E+03</rscale>
<asrwt>0</asrwt>
<pdfrwt beam="1">  1       21 0.19884520E-01 0.41563981E+03</pdfrwt>
<pdfrwt beam="2">  1       21 0.22289684E+00 0.41563981E+03</pdfrwt>
<totfact> 0.19203498E+03</totfact>
</mgrwt>
</event>
<event>
 4    1  0.4689683E-002  0.4505978E+03  0.7818608E-02  0.1027544E+00
         21   -1    0    0  503  502  0.00000000000E+00  0.00000000000E+00  0.83341067819E+03  0.83341067819E+03  0.00000000000E+00 0.  1.
         21   -1    0    0  501  503 -0.00000000000E+00 -0.00000000000E+00 -0.92286727844E+03  0.92286727844E+03  0.00000000000E+00 0.  1.
    9000007    1    1    2  501    0 -0.72096767290E+02 -0.19452612564E+03 -0.79809512531E+03  0.91651196743E+03  0.40000000000E+03 0.  1.
   -9000007    1    1    2    0  502  0.72096767290E+02  0.19452612564E+03  0.70863852505E+03  0.83976598919E+03  0.40000000000E+03 0.  1.
<mgrwt>
<rscale>  2 0.45059778E+03</rscale>
<asrwt>0</asrwt>
<pdfrwt beam="1">  1       21 0.12821703E+00 0.45059778E+03</pdfrwt>
<pdfrwt beam="2">  1       21 0.14197958E+00 0.45059778E+03</pdfrwt>
<totfact> 0.12459835E+02</totfact>
</mgrwt>
</event>
<event>
 4    1  0.4689683E-002  0.4749222E+03  0.7818608E-02  0.1020540E+00
         21   -1    0    0  503  502  0.00000000000E+00  0.00000000000E+00  0.10697609854E+04  0.10697609854E+04  0.00000000000E+00 0.  1.
         21   -1    0    0  501  503 -0.00000000000E+00 -0.00000000000E+00 -0.81767574087E+03  0.81767574087E+03  0.00000000000E+00 0.  1.
    9000007    1    1    2  501    0  0.56678101330E+02  0.24967724880E+03 -0.68694982673E+03  0.83513543823E+03  0.40000000000E+03 0.  1.
   -9000007    1    1    2    0  502 -0.56678101330E+02 -0.24967724880E+03  0.93903507126E+03  0.10523012880E+04  0.40000000000E+03 0.  1.
<mgrwt>
<rscale>  2 0.47492224E+03</rscale>
<asrwt>0</asrwt>
<pdfrwt beam="1">  1       21 0.16457861E+00 0.47492224E+03</pdfrwt>
<pdfrwt beam="2">  1       21 0.12579627E+00 0.47492224E+03</pdfrwt>
<totfact> 0.86164338E+01</totfact>
</mgrwt>
</event>
<event>
 4    1  0.4689683E-002  0.4666665E+03  0.7818608E-02  0.1022865E+00
         21   -1    0    0  501  502  0.00000000000E+00  0.00000000000E+00  0.13971866252E+04  0.13971866252E+04  0.00000000000E+00 0. -1.
         21   -1    0    0  502  503 -0.00000000000E+00 -0.00000000000E+00 -0.16538935538E+03  0.16538935538E+03  0.00000000000E+00 0. -1.
    9000007    1    1    2  501    0  0.23220319881E+03  0.62122992047E+02  0.80335144583E+03  0.92905927540E+03  0.40000000000E+03 0. -1.
   -9000007    1    1    2    0  503 -0.23220319881E+03 -0.62122992047E+02  0.42844582402E+03  0.63351670522E+03  0.40000000000E+03 0. -1.
<mgrwt>
<rscale>  2 0.46666647E+03</rscale>
<asrwt>0</asrwt>
<pdfrwt beam="1">  1       21 0.21495178E+00 0.46666647E+03</pdfrwt>
<pdfrwt beam="2">  1       21 0.25444517E-01 0.46666647E+03</pdfrwt>
<totfact> 0.13120918E+03</totfact>
</mgrwt>
</event>
<event>
 4    1  0.4689683E-002  0.5049189E+03  0.7818608E-02  0.1012503E+00
         21   -1    0    0  503  502  0.00000000000E+00  0.00000000000E+00  0.31873726623E+03  0.31873726623E+03  0.00000000000E+00 0. -1.
         21   -1    0    0  501  503 -0.00000000000E+00 -0.00000000000E+00 -0.14978749549E+04  0.14978749549E+04  0.00000000000E+00 0. -1.
    9000007    1    1    2  501    0 -0.30232058406E+03 -0.59542517354E+02 -0.12096219848E+04  0.13107739671E+04  0.40000000000E+03 0. -1.
   -9000007    1    1    2    0  502  0.30232058406E+03  0.59542517354E+02  0.30484296061E+02  0.50583825402E+03  0.40000000000E+03 0. -1.
<mgrwt>
<rscale>  2 0.50491885E+03</rscale>
<asrwt>0</asrwt>
<pdfrwt beam="1">  1       21 0.49036502E-01 0.50491885E+03</pdfrwt>
<pdfrwt beam="2">  1       21 0.23044230E+00 0.50491885E+03</pdfrwt>
<totfact> 0.27045485E+02</totfact>
</mgrwt>
</event>
<event>
 4    1  0.4689683E-002  0.4329761E+03  0.7818608E-02  0.1032924E+00
         21   -1    0    0  501  502  0.00000000000E+00  0.00000000000E+00  0.82790279951E+02  0.82790279951E+02  0.00000000000E+00 0. -1.
         21   -1    0    0  502  503 -0.00000000000E+00 -0.00000000000E+00 -0.22799731859E+04  0.22799731859E+04  0.00000000000E+00 0. -1.
    9000007    1    1    2  501    0 -0.13940615757E+03  0.89634069368E+02 -0.10008800817E+04  0.10905178958E+04  0.40000000000E+03 0.  1.
   -9000007    1    1    2    0  503  0.13940615757E+03 -0.89634069368E+02 -0.11963028243E+04  0.12722455701E+04  0.40000000000E+03 0.  1.
<mgrwt>
<rscale>  2 0.43297615E+03</rscale>
<asrwt>0</asrwt>
<pdfrwt beam="1">  1       21 0.12736965E-01 0.43297615E+03</pdfrwt>
<pdfrwt beam="2">  1       21 0.35076515E+00 0.43297615E+03</pdfrwt>
<totfact> 0.72844628E+02</totfact>
</mgrwt>
</event>
<event>
 4    1  0.4689683E-002  0.4186442E+03  0.7818608E-02  0.1037508E+00
         21   -1    0    0  501  502  0.00000000000E+00  0.00000000000E+00  0.68091533020E+03  0.68091533020E+03  0.00000000000E+00 0.  1.
         21   -1    0    0  502  503 -0.00000000000E+00 -0.00000000000E+00 -0.25983706695E+03  0.25983706695E+03  0.00000000000E+00 0.  1.
    9000007    1    1    2  501    0  0.31460397501E+02  0.11947049534E+03  0.16492113992E+03  0.44995770719E+03  0.40000000000E+03 0.  1.
   -9000007    1    1    2    0  503 -0.31460397501E+02 -0.11947049534E+03  0.25615712332E+03  0.49079468996E+03  0.40000000000E+03 0.  1.
<mgrwt>
<rscale>  2 0.41864419E+03</rscale>
<asrwt>0</asrwt>
<pdfrwt beam="1">  1       21 0.10475620E+00 0.41864419E+03</pdfrwt>
<pdfrwt beam="2">  1       21 0.39974934E-01 0.41864419E+03</pdfrwt>
<totfact> 0.39137776E+03</totfact>
</mgrwt>
</event>
<event>
 4    1  0.4689683E-002  0.4127445E+03  0.7818608E-02  0.1039454E+00
         21   -1    0    0  503  502  0.00000000000E+00  0.00000000000E+00  0.19096723473E+03  0.19096723473E+03  0.00000000000E+00 0.  1.
         21   -1    0    0  501  503 -0.00000000000E+00 -0.00000000000E+00 -0.90816302607E+03  0.90816302607E+03  0.00000000000E+00 0.  1.
    9000007    1    1    2  501    0  0.88745783755E+02  0.49822140954E+02 -0.28546369816E+03  0.50184418182E+03  0.40000000000E+03 0.  1.
   -9000007    1    1    2    0  502 -0.88745783755E+02 -0.49822140954E+02 -0.43173209318E+03  0.59728607898E+03  0.40000000000E+03 0.  1.
<mgrwt>
<rscale>  2 0.41274455E+03</rscale>
<asrwt>0</asrwt>
<pdfrwt beam="1">  1       21 0.29379574E-01 0.41274455E+03</pdfrwt>
<pdfrwt beam="2">  1       21 0.13971739E+00 0.41274455E+03</pdfrwt>
<totfact> 0.35104406E+03</totfact>
</mgrwt>
</event>
<event>
 4    1  0.4689683E-002  0.5549335E+03  0.7818608E-02  0.1000358E+00
         21   -1    0    0  501  502  0.00000000000E+00  0.00000000000E+00  0.37785224181E+03  0.37785224181E+03  0.00000000000E+00 0.  1.
         21   -1    0    0  502  503 -0.00000000000E+00 -0.00000000000E+00 -0.14053857304E+04  0.14053857304E+04  0.00000000000E+00 0. -1.
    9000007    1    1    2  501    0  0.42538326955E+01  0.38462076185E+03  0.64126821824E+02  0.55862641794E+03  0.40000000000E+03 0.  1.
   -9000007    1    1    2    0  503 -0.42538326955E+01 -0.38462076185E+03 -0.10916603104E+04  0.12246115543E+04  0.40000000000E+03 0. -1.
<mgrwt>
<rscale>  2 0.55493353E+03</rscale>
<asrwt>0</asrwt>
<pdfrwt beam="1">  1       21 0.58131115E-01 0.55493353E+03</pdfrwt>
<pdfrwt beam="2">  1       21 0.21621318E+00 0.55493353E+03</pdfrwt>
<totfact> 0.22597887E+02</totfact>
</mgrwt>
</event>
<event>
 4    1  0.4689683E-002  0.4685134E+03  0.7818608E-02  0.1022341E+00
         21   -1    0    0  501  502  0.00000000000E+00  0.00000000000E+00  0.60964382928E+03  0.60964382928E+03  0.00000000000E+00 0.  1.
         21   -1    0    0  502  503 -0.00000000000E+00 -0.00000000000E+00 -0.36620551179E+03  0.36620551179E+03  0.00000000000E+00 0.  1.
    9000007    1    1    2  501    0 -0.17389116996E+03 -0.17107511875E+03  0.18495647036E+03  0.50370004087E+03  0.40000000000E+03 0.  1.
   -9000007    1    1    2    0  503  0.17389116996E+03  0.17107511875E+03  0.58481847129E+02  0.47214930021E+03  0.40000000000E+03 0.  1.
<mgrwt>
<rscale>  2 0.46851343E+03</rscale>
<asrwt>0</asrwt>
<pdfrwt beam="1">  1       21 0.93791358E-01 0.46851343E+03</pdfrwt>
<pdfrwt beam="2">  1       21 0.56339309E-01 0.46851343E+03</pdfrwt>
<totfact> 0.24351871E+03</totfact>
</mgrwt>
</event>
<event>
 4    1  0.4689683E-002  0.4482803E+03  0.7818608E-02  0.1028236E+00
         21   -1    0    0  501  502  0.00000000000E+00  0.00000000000E+00  0.86376267598E+03  0.86376267598E+03  0.00000000000E+00 0. -1.
         21   -1    0    0  502  503 -0.00000000000E+00 -0.00000000000E+00 -0.23266119002E+03  0.23266119002E+03  0.00000000000E+00 0. -1.
    9000007    1    1    2  501    0  0.16721711558E+03  0.11398994821E+03  0.31192716291E+03  0.54612620062E+03  0.40000000000E+03 0.  1.
   -9000007    1    1    2    0  503 -0.16721711558E+03 -0.11398994821E+03  0.31917432305E+03  0.55029766538E+03  0.40000000000E+03 0.  1.
<mgrwt>
<rscale>  2 0.44828035E+03</rscale>
<asrwt>0</asrwt>
<pdfrwt beam="1">  1       21 0.13288656E+00 0.44828035E+03</pdfrwt>
<pdfrwt beam="2">  1       21 0.35794030E-01 0.44828035E+03</pdfrwt>
<totfact> 0.26595195E+03</totfact>
</mgrwt>
</event>
<event>
 4    1  0.4689683E-002  0.6298605E+03  0.7818608E-02  0.9845321E-01
         21   -1    0    0  501  502  0.00000000000E+00  0.00000000000E+00  0.14345047103E+04  0.14345047103E+04  0.00000000000E+00 0.  1.
         21   -1    0    0  502  503 -0.00000000000E+00 -0.00000000000E+00 -0.49146270069E+03  0.49146270069E+03  0.00000000000E+00 0.  1.
    9000007    1    1    2  501    0 -0.19064245166E+03 -0.44763791503E+03  0.11083110520E+04  0.12747853291E+04  0.40000000000E+03 0.  1.
   -9000007    1    1    2    0  503  0.19064245166E+03  0.44763791503E+03 -0.16526904242E+03  0.65118208185E+03  0.40000000000E+03 0.  1.
<mgrwt>
<rscale>  2 0.62986050E+03</rscale>
<asrwt>0</asrwt>
<pdfrwt beam="1">  1       21 0.22069303E+00 0.62986050E+03</pdfrwt>
<pdfrwt beam="2">  1       21 0.75609646E-01 0.62986050E+03</pdfrwt>
<totfact> 0.11356038E+02</totfact>
</mgrwt>
</event>
<event>
 4    1  0.4689683E-002  0.5016197E+03  0.7818608E-02  0.1013357E+00
         21   -1    0    0  501  502  0.00000000000E+00  0.00000000000E+00  0.34859627328E+03  0.34859627328E+03  0.00000000000E+00 0. -1.
         21   -1    0    0  502  503 -0.00000000000E+00 -0.00000000000E+00 -0.11999875621E+04  0.11999875621E+04  0.00000000000E+00 0.  1.
    9000007    1    1    2  501    0 -0.26557174969E+03 -0.14523768282E+03  0.63078544073E+02  0.50557021418E+03  0.40000000000E+03 0. -1.
   -9000007    1    1    2    0  503  0.26557174969E+03  0.14523768282E+03 -0.91446983291E+03  0.10430136212E+04  0.40000000000E+03 0.  1.
<mgrwt>
<rscale>  2 0.50161972E+03</rscale>
<asrwt>0</asrwt>
<pdfrwt beam="1">  1       21 0.53630197E-01 0.50161972E+03</pdfrwt>
<pdfrwt beam="2">  1       21 0.18461347E+00 0.50161972E+03</pdfrwt>
<totfact> 0.44902443E+02</totfact>
</mgrwt>
</event>
<event>
 4    1  0.4689683E-002  0.4504028E+03  0.7818608E-02  0.1027602E+00
         21   -1    0    0  501  502  0.00000000000E+00  0.00000000000E+00  0.23135234886E+03  0.23135234886E+03  0.00000000000E+00 0. -1.
         21   -1    0    0  502  503 -0.00000000000E+00 -0.00000000000E+00 -0.94177526218E+03  0.94177526218E+03  0.00000000000E+00 0. -1.
    9000007    1    1    2  501    0  0.12189593430E+03 -0.16734423884E+03 -0.20120882190E+03  0.49330285128E+03  0.40000000000E+03 0. -1.
   -9000007    1    1    2    0  503 -0.12189593430E+03  0.16734423884E+03 -0.50921409143E+03  0.67982475976E+03  0.40000000000E+03 0. -1.
<mgrwt>
<rscale>  2 0.45040283E+03</rscale>
<asrwt>0</asrwt>
<pdfrwt beam="1">  1       21 0.35592669E-01 0.45040283E+03</pdfrwt>
<pdfrwt beam="2">  1       21 0.14488850E+00 0.45040283E+03</pdfrwt>
<totfact> 0.21375319E+03</totfact>
</mgrwt>
</event>
<event>
 4    1  0.4689683E-002  0.5559524E+03  0.7818608E-02  0.1000126E+00
         21   -1    0    0  501  502  0.00000000000E+00  0.00000000000E+00  0.34515278177E+03  0.34515278177E+03  0.00000000000E+00 0. -1.
         21   -1    0    0  502  503 -0.00000000000E+00 -0.00000000000E+00 -0.10019145111E+04  0.10019145111E+04  0.00000000000E+00 0.  1.
    9000007    1    1    2  501    0 -0.12972066497E+03  0.36366962896E+03 -0.10887209537E+03  0.56651229740E+03  0.40000000000E+03 0. -1.
   -9000007    1    1    2    0  503  0.12972066497E+03 -0.36366962896E+03 -0.54788963398E+03  0.78055499548E+03  0.40000000000E+03 0. -1.
<mgrwt>
<rscale>  2 0.55595238E+03</rscale>
<asrwt>0</asrwt>
<pdfrwt beam="1">  1       21 0.53100429E-01 0.55595238E+03</pdfrwt>
<pdfrwt beam="2">  1       21 0.15414069E+00 0.55595238E+03</pdfrwt>
<totfact> 0.75262301E+02</totfact>
</mgrwt>
</event>
<event>
 4    1  0.4689683E-002  0.4739424E+03  0.7818608E-02  0.1020813E+00
         21   -1    0    0  501  502  0.00000000000E+00  0.00000000000E+00  0.81894476770E+03  0.81894476770E+03  0.00000000000E+00 0.  1.
         21   -1    0    0  502  503 -0.00000000000E+00 -0.00000000000E+00 -0.32803719512E+03  0.32803719512E+03  0.00000000000E+00 0.  1.
    9000007    1    1    2  501    0 -0.25363794052E+03 -0.17006910356E+02  0.47760827689E+03  0.67285296018E+03  0.40000000000E+03 0.  1.
   -9000007    1    1    2    0  503  0.25363794052E+03  0.17006910356E+02  0.13299295690E+02  0.47412900263E+03  0.40000000000E+03 0.  1.
<mgrwt>
<rscale>  2 0.47394244E+03</rscale>
<asrwt>0</asrwt>
<pdfrwt beam="1">  1       21 0.12599150E+00 0.47394244E+03</pdfrwt>
<pdfrwt beam="2">  1       21 0.50467261E-01 0.47394244E+03</pdfrwt>
<totfact> 0.14802847E+03</totfact>
</mgrwt>
</event>
<event>
 4    1  0.4689683E-002  0.4062390E+03  0.7818608E-02  0.1041640E+00
         21   -1    0    0  503  502  0.00000000000E+00  0.00000000000E+00  0.91812514616E+03  0.91812514616E+03  0.00000000000E+00 0.  1.
         21   -1    0    0  501  503 -0.00000000000E+00 -0.00000000000E+00 -0.26372844274E+03  0.26372844274E+03  0.00000000000E+00 0.  1.
    9000007    1    1    2  501    0 -0.43418218562E+02  0.56080243346E+02 -0.62642694028E+01  0.40628730779E+03  0.40000000000E+03 0.  1.
   -9000007    1    1    2    0  502  0.43418218562E+02 -0.56080243346E+02  0.66066097282E+03  0.77556628111E+03  0.40000000000E+03 0.  1.
<mgrwt>
<rscale>  2 0.40623901E+03</rscale>
<asrwt>0</asrwt>
<pdfrwt beam="1">  1       21 0.14125002E+00 0.40623901E+03</pdfrwt>
<pdfrwt beam="2">  1       21 0.40573607E-01 0.40623901E+03</pdfrwt>
<totfact> 0.17830381E+03</totfact>
</mgrwt>
</event>
<event>
 4    1  0.4689683E-002  0.4660566E+03  0.7818608E-02  0.1023039E+00
         21   -1    0    0  501  502  0.00000000000E+00  0.00000000000E+00  0.10497072516E+04  0.10497072516E+04  0.00000000000E+00 0.  1.
         21   -1    0    0  502  503 -0.00000000000E+00 -0.00000000000E+00 -0.20834181165E+03  0.20834181165E+03  0.00000000000E+00 0.  1.
    9000007    1    1    2  501    0  0.11073872902E+03  0.21200402473E+03  0.47258814179E+03  0.66373814442E+03  0.40000000000E+03 0.  1.
   -9000007    1    1    2    0  503 -0.11073872902E+03 -0.21200402473E+03  0.36877729820E+03  0.59431091886E+03  0.40000000000E+03 0.  1.
<mgrwt>
<rscale>  2 0.46605662E+03</rscale>
<asrwt>0</asrwt>
<pdfrwt beam="1">  1       21 0.16149342E+00 0.46605662E+03</pdfrwt>
<pdfrwt beam="2">  1       21 0.32052587E-01 0.46605662E+03</pdfrwt>
<totfact> 0.19493213E+03</totfact>
</mgrwt>
</event>
<event>
 4    1  0.4689683E-002  0.6244292E+03  0.7818608E-02  0.9855980E-01
         21   -1    0    0  501  502  0.00000000000E+00  0.00000000000E+00  0.14243107128E+04  0.14243107128E+04  0.00000000000E+00 0. -1.
         21   -1    0    0  502  503 -0.00000000000E+00 -0.00000000000E+00 -0.30853101763E+03  0.30853101763E+03  0.00000000000E+00 0. -1.
    9000007    1    1    2  501    0  0.47456980847E+03 -0.68522703126E+02  0.84877448964E+03  0.10537219739E+04  0.40000000000E+03 0. -1.
   -9000007    1    1    2    0  503 -0.47456980847E+03  0.68522703126E+02  0.26700520550E+03  0.67911975654E+03  0.40000000000E+03 0. -1.
<mgrwt>
<rscale>  2 0.62442923E+03</rscale>
<asrwt>0</asrwt>
<pdfrwt beam="1">  1       21 0.21912472E+00 0.62442923E+03</pdfrwt>
<pdfrwt beam="2">  1       21 0.47466311E-01 0.62442923E+03</pdfrwt>
<totfact> 0.32579182E+02</totfact>
</mgrwt>
</event>
<event>
 4    1  0.4689683E-002  0.5586023E+03  0.7818608E-02  0.9995222E-01
         21   -1    0    0  501  502  0.00000000000E+00  0.00000000000E+00  0.10734971030E+03  0.10734971030E+03  0.00000000000E+00 0.  1.
         21   -1    0    0  502  503 -0.00000000000E+00 -0.00000000000E+00 -0.31264832320E+04  0.31264832320E+04  0.00000000000E+00 0.  1.
    9000007    1    1    2  501    0  0.36884768985E+03 -0.12644314911E+03 -0.10808915079E+04  0.12167016644E+04  0.40000000000E+03 0.  1.
   -9000007    1    1    2    0  503 -0.36884768985E+03  0.12644314911E+03 -0.19382420138E+04  0.20171312779E+04  0.40000000000E+03 0.  1.
<mgrwt>
<rscale>  2 0.55860226E+03</rscale>
<asrwt>0</asrwt>
<pdfrwt beam="1">  1       21 0.16515339E-01 0.55860226E+03</pdfrwt>
<pdfrwt beam="2">  1       21 0.48099744E+00 0.55860226E+03</pdfrwt>
<totfact> 0.58513555E+01</totfact>
</mgrwt>
</event>
<event>
 4    1  0.4689683E-002  0.4146485E+03  0.7818608E-02  0.1038822E+00
         21   -1    0    0  503  502  0.00000000000E+00  0.00000000000E+00  0.24920295869E+03  0.24920295869E+03  0.00000000000E+00 0. -1.
         21   -1    0    0  501  503 -0.00000000000E+00 -0.00000000000E+00 -0.15966594203E+04  0.15966594203E+04  0.00000000000E+00 0. -1.
    9000007    1    1    2  501    0  0.85929341695E+01  0.10890151276E+03 -0.13692348736E+04  0.14306423443E+04  0.40000000000E+03 0. -1.
   -9000007    1    1    2    0  502 -0.85929341695E+01 -0.10890151276E+03  0.21778412047E+02  0.41522003472E+03  0.40000000000E+03 0. -1.
<mgrwt>
<rscale>  2 0.41464850E+03</rscale>
<asrwt>0</asrwt>
<pdfrwt beam="1">  1       21 0.38338916E-01 0.41464850E+03</pdfrwt>
<pdfrwt beam="2">  1       21 0.24563991E+00 0.41464850E+03</pdfrwt>
<totfact> 0.38110325E+02</totfact>
</mgrwt>
</event>
<event>
 4    1  0.4689683E-002  0.5714834E+03  0.7818608E-02  0.9966401E-01
         21   -1    0    0  503  502  0.00000000000E+00  0.00000000000E+00  0.13374532274E+04  0.13374532274E+04  0.00000000000E+00 0.  1.
         21   -1    0    0  501  503 -0.00000000000E+00 -0.00000000000E+00 -0.24918330641E+03  0.24918330641E+03  0.00000000000E+00 0.  1.
    9000007    1    1    2  501    0  0.31542270233E+03  0.25904012946E+03  0.65643080351E+03  0.87034169704E+03  0.40000000000E+03 0.  1.
   -9000007    1    1    2    0  502 -0.31542270233E+03 -0.25904012946E+03  0.43183911751E+03  0.71629483680E+03  0.40000000000E+03 0.  1.
<mgrwt>
<rscale>  2 0.57148339E+03</rscale>
<asrwt>0</asrwt>
<pdfrwt beam="1">  1       21 0.20576203E+00 0.57148339E+03</pdfrwt>
<pdfrwt beam="2">  1       21 0.38335894E-01 0.57148339E+03</pdfrwt>
<totfact> 0.63572960E+02</totfact>
</mgrwt>
</event>
<event>
 4    1  0.4689683E-002  0.7356396E+03  0.7818608E-02  0.9658153E-01
         21   -1    0    0  503  502  0.00000000000E+00  0.00000000000E+00  0.91486171254E+03  0.91486171254E+03  0.00000000000E+00 0. -1.
         21   -1    0    0  501  503 -0.00000000000E+00 -0.00000000000E+00 -0.59444291528E+03  0.59444291528E+03  0.00000000000E+00 0. -1.
    9000007    1    1    2  501    0  0.51770577518E+02  0.61521172995E+03  0.21306098454E+03  0.76587247535E+03  0.40000000000E+03 0. -1.
   -9000007    1    1    2    0  502 -0.51770577518E+02 -0.61521172995E+03  0.10735781271E+03  0.74343215247E+03  0.40000000000E+03 0. -1.
<mgrwt>
<rscale>  2 0.73563963E+03</rscale>
<asrwt>0</asrwt>
<pdfrwt beam="1">  1       21 0.14074796E+00 0.73563963E+03</pdfrwt>
<pdfrwt beam="2">  1       21 0.91452756E-01 0.73563963E+03</pdfrwt>
<totfact> 0.26491735E+02</totfact>
</mgrwt>
</event>
<event>
 4    1  0.4689683E-002  0.4367235E+03  0.7818608E-02  0.1031757E+00
         21   -1    0    0  501  502  0.00000000000E+00  0.00000000000E+00  0.75168766371E+03  0.75168766371E+03  0.00000000000E+00 0.  1.
         21   -1    0    0  502  503 -0.00000000000E+00 -0.00000000000E+00 -0.32194993708E+03  0.32194993708E+03  0.00000000000E+00 0.  1.
    9000007    1    1    2  501    0 -0.18961034314E+02 -0.17426397127E+03 -0.32236304032E+02  0.43791167123E+03  0.40000000000E+03 0.  1.
   -9000007    1    1    2    0  503  0.18961034314E+02  0.17426397127E+03  0.46197403066E+03  0.63572592955E+03  0.40000000000E+03 0.  1.
<mgrwt>
<rscale>  2 0.43672354E+03</rscale>
<asrwt>0</asrwt>
<pdfrwt beam="1">  1       21 0.11564426E+00 0.43672354E+03</pdfrwt>
<pdfrwt beam="2">  1       21 0.49530760E-01 0.43672354E+03</pdfrwt>
<totfact> 0.19438420E+03</totfact>
</mgrwt>
</event>
<event>
 4    1  0.4689683E-002  0.4444567E+03  0.7818608E-02  0.1029388E+00
         21   -1    0    0  503  502  0.00000000000E+00  0.00000000000E+00  0.38858147803E+03  0.38858147803E+03  0.00000000000E+00 0. -1.
         21   -1    0    0  501  503 -0.00000000000E+00 -0.00000000000E+00 -0.52324466822E+03  0.52324466822E+03  0.00000000000E+00 0. -1.
    9000007    1    1    2  501    0 -0.70728557184E+02  0.18038626946E+03 -0.14421047313E+03  0.46726694252E+03  0.40000000000E+03 0. -1.
   -9000007    1    1    2    0  502  0.70728557184E+02 -0.18038626946E+03  0.95472829434E+01  0.44455920373E+03  0.40000000000E+03 0. -1.
<mgrwt>
<rscale>  2 0.44445667E+03</rscale>
<asrwt>0</asrwt>
<pdfrwt beam="1">  1       21 0.59781766E-01 0.44445667E+03</pdfrwt>
<pdfrwt beam="2">  1       21 0.80499179E-01 0.44445667E+03</pdfrwt>
<totfact> 0.30916370E+03</totfact>
</mgrwt>
</event>
<event>
 4    1  0.4689683E-002  0.4463195E+03  0.7818608E-02  0.1028825E+00
         21   -1    0    0  503  502  0.00000000000E+00  0.00000000000E+00  0.34051618283E+03  0.34051618283E+03  0.00000000000E+00 0. -1.
         21   -1    0    0  501  503 -0.00000000000E+00 -0.00000000000E+00 -0.60235699743E+03  0.60235699743E+03  0.00000000000E+00 0. -1.
    9000007    1    1    2  501    0  0.23101726543E+02 -0.19664020070E+03 -0.21095301877E+03  0.49366206501E+03  0.40000000000E+03 0. -1.
   -9000007    1    1    2    0  502 -0.23101726543E+02  0.19664020070E+03 -0.50887795832E+02  0.44921111525E+03  0.40000000000E+03 0. -1.
<mgrwt>
<rscale>  2 0.44631946E+03</rscale>
<asrwt>0</asrwt>
<pdfrwt beam="1">  1       21 0.52387106E-01 0.44631946E+03</pdfrwt>
<pdfrwt beam="2">  1       21 0.92670306E-01 0.44631946E+03</pdfrwt>
<totfact> 0.29547306E+03</totfact>
</mgrwt>
</event>
<event>
 4    1  0.4689683E-002  0.4232833E+03  0.7818608E-02  0.1036003E+00
         21   -1    0    0  503  502  0.00000000000E+00  0.00000000000E+00  0.42918235999E+03  0.42918235999E+03  0.00000000000E+00 0.  1.
         21   -1    0    0  501  503 -0.00000000000E+00 -0.00000000000E+00 -0.46803865191E+03  0.46803865191E+03  0.00000000000E+00 0.  1.
    9000007    1    1    2  501    0  0.13316184086E+03 -0.37903906389E+02 -0.16689318031E+03  0.45499683033E+03  0.40000000000E+03 0.  1.
   -9000007    1    1    2    0  502 -0.13316184086E+03  0.37903906389E+02  0.12803688838E+03  0.44222418157E+03  0.40000000000E+03 0.  1.
<mgrwt>
<rscale>  2 0.42328334E+03</rscale>
<asrwt>0</asrwt>
<pdfrwt beam="1">  1       21 0.66028055E-01 0.42328334E+03</pdfrwt>
<pdfrwt beam="2">  1       21 0.72005946E-01 0.42328334E+03</pdfrwt>
<totfact> 0.32281738E+03</totfact>
</mgrwt>
</event>
<event>
 4    1  0.4689683E-002  0.4056044E+03  0.7818608E-02  0.1041856E+00
         21   -1    0    0  501  502  0.00000000000E+00  0.00000000000E+00  0.16631542199E+03  0.16631542199E+03  0.00000000000E+00 0.  1.
         21   -1    0    0  502  503 -0.00000000000E+00 -0.00000000000E+00 -0.21463081967E+04  0.21463081967E+04  0.00000000000E+00 0.  1.
    9000007    1    1    2  501    0 -0.67098155701E+02 -0.35785935362E+01 -0.14097096270E+03  0.42940398363E+03  0.40000000000E+03 0.  1.
   -9000007    1    1    2    0  503  0.67098155701E+02  0.35785935362E+01 -0.18390218120E+04  0.18832196350E+04  0.40000000000E+03 0.  1.
<mgrwt>
<rscale>  2 0.40560445E+03</rscale>
<asrwt>0</asrwt>
<pdfrwt beam="1">  1       21 0.25586990E-01 0.40560445E+03</pdfrwt>
<pdfrwt beam="2">  1       21 0.33020123E+00 0.40560445E+03</pdfrwt>
<totfact> 0.26563053E+02</totfact>
</mgrwt>
</event>
<event>
 4    1  0.4689683E-002  0.4077656E+03  0.7818608E-02  0.1041123E+00
         21   -1    0    0  503  502  0.00000000000E+00  0.00000000000E+00  0.16699213125E+03  0.16699213125E+03  0.00000000000E+00 0.  1.
         21   -1    0    0  501  503 -0.00000000000E+00 -0.00000000000E+00 -0.10654363165E+04  0.10654363165E+04  0.00000000000E+00 0.  1.
    9000007    1    1    2  501    0  0.46165839868E+02 -0.64354237239E+02 -0.60688224589E+03  0.73114896772E+03  0.40000000000E+03 0.  1.
   -9000007    1    1    2    0  502 -0.46165839868E+02  0.64354237239E+02 -0.29156193938E+03  0.50127948005E+03  0.40000000000E+03 0.  1.
<mgrwt>
<rscale>  2 0.40776556E+03</rscale>
<asrwt>0</asrwt>
<pdfrwt beam="1">  1       21 0.25691096E-01 0.40776556E+03</pdfrwt>
<pdfrwt beam="2">  1       21 0.16391329E+00 0.40776556E+03</pdfrwt>
<totfact> 0.29640958E+03</totfact>
</mgrwt>
</event>
<event>
 4    1  0.4689683E-002  0.6613318E+03  0.7818608E-02  0.9785745E-01
         21   -1    0    0  501  502  0.00000000000E+00  0.00000000000E+00  0.22111247642E+03  0.22111247642E+03  0.00000000000E+00 0.  1.
         21   -1    0    0  502  503 -0.00000000000E+00 -0.00000000000E+00 -0.24665001370E+04  0.24665001370E+04  0.00000000000E+00 0. -1.
    9000007    1    1    2  501    0 -0.17495567604E+03 -0.49673963916E+03 -0.52465429308E+03  0.84416934613E+03  0.40000000000E+03 0.  1.
   -9000007    1    1    2    0  503  0.17495567604E+03  0.49673963916E+03 -0.17207333675E+04  0.18434432673E+04  0.40000000000E+03 0.  1.
<mgrwt>
<rscale>  2 0.66133181E+03</rscale>
<asrwt>0</asrwt>
<pdfrwt beam="1">  1       21 0.34017305E-01 0.66133181E+03</pdfrwt>
<pdfrwt beam="2">  1       21 0.37946155E+00 0.66133181E+03</pdfrwt>
<totfact> 0.64641355E+01</totfact>
</mgrwt>
</event>
<event>
 4    1  0.4689683E-002  0.5191136E+03  0.7818608E-02  0.1008907E+00
         21   -1    0    0  501  502  0.00000000000E+00  0.00000000000E+00  0.22919708231E+03  0.22919708231E+03  0.00000000000E+00 0. -1.
         21   -1    0    0  502  503 -0.00000000000E+00 -0.00000000000E+00 -0.22658680680E+04  0.22658680680E+04  0.00000000000E+00 0. -1.
    9000007    1    1    2  501    0 -0.23224333428E+03 -0.23567336066E+03 -0.15302697162E+03  0.54119881123E+03  0.40000000000E+03 0. -1.
   -9000007    1    1    2    0  503  0.23224333428E+03  0.23567336066E+03 -0.18836440141E+04  0.19538663391E+04  0.40000000000E+03 0. -1.
<mgrwt>
<rscale>  2 0.51911357E+03</rscale>
<asrwt>0</asrwt>
<pdfrwt beam="1">  1       21 0.35261089E-01 0.51911357E+03</pdfrwt>
<pdfrwt beam="2">  1       21 0.34859510E+00 0.51911357E+03</pdfrwt>
<totfact> 0.10092584E+02</totfact>
</mgrwt>
</event>
<event>
 4    1  0.4689683E-002  0.5375860E+03  0.7818608E-02  0.1004409E+00
         21   -1    0    0  501  502  0.00000000000E+00  0.00000000000E+00  0.13236510105E+04  0.13236510105E+04  0.00000000000E+00 0.  1.
         21   -1    0    0  502  503 -0.00000000000E+00 -0.00000000000E+00 -0.25468945346E+03  0.25468945346E+03  0.00000000000E+00 0. -1.
    9000007    1    1    2  501    0 -0.14853000803E+03 -0.32701310015E+03  0.83263899911E+03  0.99110364433E+03  0.40000000000E+03 0.  1.
   -9000007    1    1    2    0  503  0.14853000803E+03  0.32701310015E+03  0.23632255794E+03  0.58723681964E+03  0.40000000000E+03 0. -1.
<mgrwt>
<rscale>  2 0.53758602E+03</rscale>
<asrwt>0</asrwt>
<pdfrwt beam="1">  1       21 0.20363861E+00 0.53758602E+03</pdfrwt>
<pdfrwt beam="2">  1       21 0.39182994E-01 0.53758602E+03</pdfrwt>
<totfact> 0.63612440E+02</totfact>
</mgrwt>
</event>
<event>
 4    1  0.4689683E-002  0.5360426E+03  0.7818608E-02  0.1004777E+00
         21   -1    0    0  501  502  0.00000000000E+00  0.00000000000E+00  0.59778248629E+03  0.59778248629E+03  0.00000000000E+00 0. -1.
         21   -1    0    0  502  503 -0.00000000000E+00 -0.00000000000E+00 -0.55345433233E+03  0.55345433233E+03  0.00000000000E+00 0.  1.
    9000007    1    1    2  501    0 -0.13430743145E+03  0.33061032886E+03  0.23089410901E+03  0.58365551935E+03  0.40000000000E+03 0. -1.
   -9000007    1    1    2    0  503  0.13430743145E+03 -0.33061032886E+03 -0.18656595505E+03  0.56758129926E+03  0.40000000000E+03 0.  1.
<mgrwt>
<rscale>  2 0.53604261E+03</rscale>
<asrwt>0</asrwt>
<pdfrwt beam="1">  1       21 0.91966537E-01 0.53604261E+03</pdfrwt>
<pdfrwt beam="2">  1       21 0.85146820E-01 0.53604261E+03</pdfrwt>
<totfact> 0.98232206E+02</totfact>
</mgrwt>
</event>
<event>
 4    1  0.4689683E-002  0.4251809E+03  0.7818608E-02  0.1035393E+00
         21   -1    0    0  503  502  0.00000000000E+00  0.00000000000E+00  0.73435757344E+03  0.73435757344E+03  0.00000000000E+00 0. -1.
         21   -1    0    0  501  503 -0.00000000000E+00 -0.00000000000E+00 -0.32671859834E+03  0.32671859834E+03  0.00000000000E+00 0. -1.
    9000007    1    1    2  501    0 -0.91342563745E+02 -0.11151390994E+03  0.46724100324E+03  0.63173805582E+03  0.40000000000E+03 0. -1.
   -9000007    1    1    2    0  502  0.91342563745E+02  0.11151390994E+03 -0.59602028143E+02  0.42933811596E+03  0.40000000000E+03 0. -1.
<mgrwt>
<rscale>  2 0.42518092E+03</rscale>
<asrwt>0</asrwt>
<pdfrwt beam="1">  1       21 0.11297809E+00 0.42518092E+03</pdfrwt>
<pdfrwt beam="2">  1       21 0.50264400E-01 0.42518092E+03</pdfrwt>
<totfact> 0.20061574E+03</totfact>
</mgrwt>
</event>
<event>
 4    1  0.4689683E-002  0.5027226E+03  0.7818608E-02  0.1013071E+00
         21   -1    0    0  503  502  0.00000000000E+00  0.00000000000E+00  0.13165909455E+04  0.13165909455E+04  0.00000000000E+00 0. -1.
         21   -1    0    0  501  503 -0.00000000000E+00 -0.00000000000E+00 -0.22204548282E+03  0.22204548282E+03  0.00000000000E+00 0. -1.
    9000007    1    1    2  501    0 -0.23666360487E+03 -0.19162559686E+03  0.26408221666E+03  0.56786393476E+03  0.40000000000E+03 0. -1.
   -9000007    1    1    2    0  502  0.23666360487E+03  0.19162559686E+03  0.83046324598E+03  0.97077249352E+03  0.40000000000E+03 0. -1.
<mgrwt>
<rscale>  2 0.50272262E+03</rscale>
<asrwt>0</asrwt>
<pdfrwt beam="1">  1       21 0.20255245E+00 0.50272262E+03</pdfrwt>
<pdfrwt beam="2">  1       21 0.34160844E-01 0.50272262E+03</pdfrwt>
<totfact> 0.86788666E+02</totfact>
</mgrwt>
</event>
<event>
 4    1  0.4689683E-002  0.5690961E+03  0.7818608E-02  0.9971681E-01
         21   -1    0    0  501  502  0.00000000000E+00  0.00000000000E+00  0.19752826091E+03  0.19752826091E+03  0.00000000000E+00 0.  1.
         21   -1    0    0  502  503 -0.00000000000E+00 -0.00000000000E+00 -0.16441704989E+04  0.16441704989E+04  0.00000000000E+00 0. -1.
    9000007    1    1    2  501    0 -0.40436804158E+03  0.18891309118E+02 -0.67485255038E+03  0.88277763869E+03  0.40000000000E+03 0.  1.
   -9000007    1    1    2    0  503  0.40436804158E+03 -0.18891309118E+02 -0.77178968758E+03  0.95892112109E+03  0.40000000000E+03 0.  1.
<mgrwt>
<rscale>  2 0.56909612E+03</rscale>
<asrwt>0</asrwt>
<pdfrwt beam="1">  1       21 0.30388964E-01 0.56909612E+03</pdfrwt>
<pdfrwt beam="2">  1       21 0.25294930E+00 0.56909612E+03</pdfrwt>
<totfact> 0.50944831E+02</totfact>
</mgrwt>
</event>
<event>
 4    1  0.4689683E-002  0.4134559E+03  0.7818608E-02  0.1039217E+00
         21   -1    0    0  501  502  0.00000000000E+00  0.00000000000E+00  0.11443180231E+04  0.11443180231E+04  0.00000000000E+00 0.  1.
         21   -1    0    0  502  503 -0.00000000000E+00 -0.00000000000E+00 -0.23857667052E+03  0.23857667052E+03  0.00000000000E+00 0. -1.
    9000007    1    1    2  501    0  0.29056460172E+02 -0.10050621837E+03  0.87563991851E+03  0.96834448658E+03  0.40000000000E+03 0. -1.
   -9000007    1    1    2    0  503 -0.29056460172E+02  0.10050621837E+03  0.30101434065E+02  0.41455020702E+03  0.40000000000E+03 0. -1.
<mgrwt>
<rscale>  2 0.41345590E+03</rscale>
<asrwt>0</asrwt>
<pdfrwt beam="1">  1       21 0.17604892E+00 0.41345590E+03</pdfrwt>
<pdfrwt beam="2">  1       21 0.36704104E-01 0.41345590E+03</pdfrwt>
<totfact> 0.11873197E+03</totfact>
</mgrwt>
</event>
<event>
 4    1  0.4689683E-002  0.4581310E+03  0.7818608E-02  0.1025325E+00
         21   -1    0    0  501  502  0.00000000000E+00  0.00000000000E+00  0.16796837675E+03  0.16796837675E+03  0.00000000000E+00 0.  1.
         21   -1    0    0  502  503 -0.00000000000E+00 -0.00000000000E+00 -0.21073304840E+04  0.21073304840E+04  0.00000000000E+00 0.  1.
    9000007    1    1    2  501    0  0.19827030309E+03 -0.10282477573E+03 -0.24385680736E+03  0.51898958572E+03  0.40000000000E+03 0.  1.
   -9000007    1    1    2    0  503 -0.19827030309E+03  0.10282477573E+03 -0.16955052999E+04  0.17563092750E+04  0.40000000000E+03 0.  1.
<mgrwt>
<rscale>  2 0.45813104E+03</rscale>
<asrwt>0</asrwt>
<pdfrwt beam="1">  1       21 0.25841286E-01 0.45813104E+03</pdfrwt>
<pdfrwt beam="2">  1       21 0.32420472E+00 0.45813104E+03</pdfrwt>
<totfact> 0.27382304E+02</totfact>
</mgrwt>
</event>
<event>
 4    1  0.4689683E-002  0.5096295E+03  0.7818608E-02  0.1011296E+00
         21   -1    0    0  501  502  0.00000000000E+00  0.00000000000E+00  0.43955323793E+03  0.43955323793E+03  0.00000000000E+00 0.  1.
         21   -1    0    0  502  503 -0.00000000000E+00 -0.00000000000E+00 -0.72294871081E+03  0.72294871081E+03  0.00000000000E+00 0.  1.
    9000007    1    1    2  501    0  0.15768550603E+03 -0.27360101203E+03  0.10673773401E+03  0.52068721557E+03  0.40000000000E+03 0.  1.
   -9000007    1    1    2    0  503 -0.15768550603E+03  0.27360101203E+03 -0.39013320689E+03  0.64181473317E+03  0.40000000000E+03 0.  1.
<mgrwt>
<rscale>  2 0.50962951E+03</rscale>
<asrwt>0</asrwt>
<pdfrwt beam="1">  1       21 0.67623576E-01 0.50962951E+03</pdfrwt>
<pdfrwt beam="2">  1       21 0.11122288E+00 0.50962951E+03</pdfrwt>
<totfact> 0.10568832E+03</totfact>
</mgrwt>
</event>
<event>
 4    1  0.4689683E-002  0.6480145E+03  0.7818608E-02  0.9810512E-01
         21   -1    0    0  503  502  0.00000000000E+00  0.00000000000E+00  0.63815451835E+03  0.63815451835E+03  0.00000000000E+00 0. -1.
         21   -1    0    0  501  503 -0.00000000000E+00 -0.00000000000E+00 -0.95249287196E+03  0.95249287196E+03  0.00000000000E+00 0.  1.
    9000007    1    1    2  501    0  0.20708126393E+03 -0.46587568273E+03 -0.59938131163E+03  0.88271216054E+03  0.40000000000E+03 0.  1.
   -9000007    1    1    2    0  502 -0.20708126393E+03  0.46587568273E+03  0.28504295802E+03  0.70793522977E+03  0.40000000000E+03 0. -1.
<mgrwt>
<rscale>  2 0.64801451E+03</rscale>
<asrwt>0</asrwt>
<pdfrwt beam="1">  1       21 0.98177619E-01 0.64801451E+03</pdfrwt>
<pdfrwt beam="2">  1       21 0.14653736E+00 0.64801451E+03</pdfrwt>
<totfact> 0.20552879E+02</totfact>
</mgrwt>
</event>
<event>
 4    1  0.4689683E-002  0.4455554E+03  0.7818608E-02  0.1029056E+00
         21   -1    0    0  501  502  0.00000000000E+00  0.00000000000E+00  0.21629974511E+03  0.21629974511E+03  0.00000000000E+00 0.  1.
         21   -1    0    0  502  503 -0.00000000000E+00 -0.00000000000E+00 -0.98252990727E+03  0.98252990727E+03  0.00000000000E+00 0.  1.
    9000007    1    1    2  501    0  0.17540854923E+03  0.88042291548E+02 -0.22926002785E+03  0.50107860123E+03  0.40000000000E+03 0.  1.
   -9000007    1    1    2    0  503 -0.17540854923E+03 -0.88042291548E+02 -0.53697013431E+03  0.69775105115E+03  0.40000000000E+03 0.  1.
<mgrwt>
<rscale>  2 0.44555539E+03</rscale>
<asrwt>0</asrwt>
<pdfrwt beam="1">  1       21 0.33276884E-01 0.44555539E+03</pdfrwt>
<pdfrwt beam="2">  1       21 0.15115845E+00 0.44555539E+03</pdfrwt>
<totfact> 0.21877271E+03</totfact>
</mgrwt>
</event>
<event>
 4    1  0.4689683E-002  0.4302984E+03  0.7818608E-02  0.1033766E+00
         21   -1    0    0  501  502  0.00000000000E+00  0.00000000000E+00  0.16701519141E+03  0.16701519141E+03  0.00000000000E+00 0. -1.
         21   -1    0    0  502  503 -0.00000000000E+00 -0.00000000000E+00 -0.13384346341E+04  0.13384346341E+04  0.00000000000E+00 0. -1.
    9000007    1    1    2  501    0 -0.13284458886E+03  0.86654835228E+02 -0.27380317560E+03  0.51002443493E+03  0.40000000000E+03 0. -1.
   -9000007    1    1    2    0  503  0.13284458886E+03 -0.86654835228E+02 -0.89761626708E+03  0.99542539057E+03  0.40000000000E+03 0. -1.
<mgrwt>
<rscale>  2 0.43029844E+03</rscale>
<asrwt>0</asrwt>
<pdfrwt beam="1">  1       21 0.25694644E-01 0.43029844E+03</pdfrwt>
<pdfrwt beam="2">  1       21 0.20591302E+00 0.43029844E+03</pdfrwt>
<totfact> 0.14986937E+03</totfact>
</mgrwt>
</event>
<event>
 4    1  0.4689683E-002  0.4134230E+03  0.7818608E-02  0.1039228E+00
         21   -1    0    0  503  502  0.00000000000E+00  0.00000000000E+00  0.19976318931E+04  0.19976318931E+04  0.00000000000E+00 0. -1.
         21   -1    0    0  501  503 -0.00000000000E+00 -0.00000000000E+00 -0.37500479798E+03  0.37500479798E+03  0.00000000000E+00 0. -1.
    9000007    1    1    2  501    0 -0.10234260818E+02 -0.10398975602E+03 -0.23092048126E+03  0.47354289998E+03  0.40000000000E+03 0. -1.
   -9000007    1    1    2    0  502  0.10234260818E+02  0.10398975602E+03  0.18535475764E+04  0.18990937911E+04  0.40000000000E+03 0. -1.
<mgrwt>
<rscale>  2 0.41342304E+03</rscale>
<asrwt>0</asrwt>
<pdfrwt beam="1">  1       21 0.30732798E+00 0.41342304E+03</pdfrwt>
<pdfrwt beam="2">  1       21 0.57693047E-01 0.41342304E+03</pdfrwt>
<totfact> 0.68485532E+01</totfact>
</mgrwt>
</event>
<event>
 4    1  0.4689683E-002  0.4581923E+03  0.7818608E-02  0.1025307E+00
         21   -1    0    0  501  502  0.00000000000E+00  0.00000000000E+00  0.97586579597E+03  0.97586579597E+03  0.00000000000E+00 0.  1.
         21   -1    0    0  502  503 -0.00000000000E+00 -0.00000000000E+00 -0.34404048435E+03  0.34404048435E+03  0.00000000000E+00 0.  1.
    9000007    1    1    2  501    0  0.15042126379E+03 -0.16526844115E+03  0.71988221218E+03  0.85332913560E+03  0.40000000000E+03 0.  1.
   -9000007    1    1    2    0  503 -0.15042126379E+03  0.16526844115E+03 -0.88056900570E+02  0.46657714472E+03  0.40000000000E+03 0.  1.
<mgrwt>
<rscale>  2 0.45819233E+03</rscale>
<asrwt>0</asrwt>
<pdfrwt beam="1">  1       21 0.15013320E+00 0.45819233E+03</pdfrwt>
<pdfrwt beam="2">  1       21 0.52929306E-01 0.45819233E+03</pdfrwt>
<totfact> 0.84611012E+02</totfact>
</mgrwt>
</event>
<event>
 4    1  0.4689683E-002  0.5045829E+03  0.7818608E-02  0.1012590E+00
         21   -1    0    0  501  502  0.00000000000E+00  0.00000000000E+00  0.39587385223E+03  0.39587385223E+03  0.00000000000E+00 0. -1.
         21   -1    0    0  502  503 -0.00000000000E+00 -0.00000000000E+00 -0.65672011274E+03  0.65672011274E+03  0.00000000000E+00 0.  1.
    9000007    1    1    2  501    0  0.74946200518E+02  0.29830691643E+03 -0.54752708485E+02  0.50754488319E+03  0.40000000000E+03 0. -1.
   -9000007    1    1    2    0  503 -0.74946200518E+02 -0.29830691643E+03 -0.20609355202E+03  0.54504908178E+03  0.40000000000E+03 0.  1.
<mgrwt>
<rscale>  2 0.50458295E+03</rscale>
<asrwt>0</asrwt>
<pdfrwt beam="1">  1       21 0.60903670E-01 0.50458295E+03</pdfrwt>
<pdfrwt beam="2">  1       21 0.10103386E+00 0.50458295E+03</pdfrwt>
<totfact> 0.16945141E+03</totfact>
</mgrwt>
</event>
<event>
 4    1  0.4689683E-002  0.5846863E+03  0.7818608E-02  0.9937697E-01
         21   -1    0    0  503  502  0.00000000000E+00  0.00000000000E+00  0.78709380684E+03  0.78709380684E+03  0.00000000000E+00 0.  1.
         21   -1    0    0  501  503 -0.00000000000E+00 -0.00000000000E+00 -0.44752220788E+03  0.44752220788E+03  0.00000000000E+00 0.  1.
    9000007    1    1    2  501    0 -0.41694091158E+03 -0.89545012945E+02  0.63796470780E+02  0.58815646114E+03  0.40000000000E+03 0.  1.
   -9000007    1    1    2    0  502  0.41694091158E+03  0.89545012945E+02  0.27577512819E+03  0.64645955358E+03  0.40000000000E+03 0.  1.
<mgrwt>
<rscale>  2 0.58468627E+03</rscale>
<asrwt>0</asrwt>
<pdfrwt beam="1">  1       21 0.12109136E+00 0.58468627E+03</pdfrwt>
<pdfrwt beam="2">  1       21 0.68849570E-01 0.58468627E+03</pdfrwt>
<totfact> 0.79815547E+02</totfact>
</mgrwt>
</event>
<event>
 4    1  0.4689683E-002  0.4166910E+03  0.7818608E-02  0.1038149E+00
         21   -1    0    0  501  502  0.00000000000E+00  0.00000000000E+00  0.16660952017E+03  0.16660952017E+03  0.00000000000E+00 0. -1.
         21   -1    0    0  502  503 -0.00000000000E+00 -0.00000000000E+00 -0.12506214595E+04  0.12506214595E+04  0.00000000000E+00 0. -1.
    9000007    1    1    2  501    0  0.97399987116E+02  0.64378547216E+02 -0.25268778139E+03  0.48732173120E+03  0.40000000000E+03 0. -1.
   -9000007    1    1    2    0  503 -0.97399987116E+02 -0.64378547216E+02 -0.83132415794E+03  0.92990924848E+03  0.40000000000E+03 0. -1.
<mgrwt>
<rscale>  2 0.41669096E+03</rscale>
<asrwt>0</asrwt>
<pdfrwt beam="1">  1       21 0.25632233E-01 0.41669096E+03</pdfrwt>
<pdfrwt beam="2">  1       21 0.19240331E+00 0.41669096E+03</pdfrwt>
<totfact> 0.18646604E+03</totfact>
</mgrwt>
</event>
<event>
 4    1  0.4689683E-002  0.5514169E+03  0.7818608E-02  0.1001167E+00
         21   -1    0    0  501  502  0.00000000000E+00  0.00000000000E+00  0.90306289347E+03  0.90306289347E+03  0.00000000000E+00 0. -1.
         21   -1    0    0  502  503 -0.00000000000E+00 -0.00000000000E+00 -0.38860474258E+03  0.38860474258E+03  0.00000000000E+00 0.  1.
    9000007    1    1    2  501    0  0.33849940571E+03 -0.17169381591E+03  0.49326239938E+03  0.73984350286E+03  0.40000000000E+03 0. -1.
   -9000007    1    1    2    0  503 -0.33849940571E+03  0.17169381591E+03  0.21195751513E+02  0.55182413319E+03  0.40000000000E+03 0.  1.
<mgrwt>
<rscale>  2 0.55141691E+03</rscale>
<asrwt>0</asrwt>
<pdfrwt beam="1">  1       21 0.13893275E+00 0.55141691E+03</pdfrwt>
<pdfrwt beam="2">  1       21 0.59785345E-01 0.55141691E+03</pdfrwt>
<totfact> 0.77193841E+02</totfact>
</mgrwt>
</event>
<event>
 4    1  0.4689683E-002  0.4451603E+03  0.7818608E-02  0.1029175E+00
         21   -1    0    0  503  502  0.00000000000E+00  0.00000000000E+00  0.96519099396E+02  0.96519099396E+02  0.00000000000E+00 0.  1.
         21   -1    0    0  501  503 -0.00000000000E+00 -0.00000000000E+00 -0.28834874933E+04  0.28834874933E+04  0.00000000000E+00 0. -1.
    9000007    1    1    2  501    0  0.18842327749E+03 -0.51617236804E+02 -0.21930549901E+04  0.22377796720E+04  0.40000000000E+03 0. -1.
   -9000007    1    1    2    0  502 -0.18842327749E+03  0.51617236804E+02 -0.59391340376E+03  0.74222692070E+03  0.40000000000E+03 0.  1.
<mgrwt>
<rscale>  2 0.44516028E+03</rscale>
<asrwt>0</asrwt>
<pdfrwt beam="1">  1       21 0.14849091E-01 0.44516028E+03</pdfrwt>
<pdfrwt beam="2">  1       21 0.44361350E+00 0.44516028E+03</pdfrwt>
<totfact> 0.13857841E+02</totfact>
</mgrwt>
</event>
<event>
 4    1  0.4689683E-002  0.4304614E+03  0.7818608E-02  0.1033714E+00
         21   -1    0    0  503  502  0.00000000000E+00  0.00000000000E+00  0.12584011017E+04  0.12584011017E+04  0.00000000000E+00 0. -1.
         21   -1    0    0  501  503 -0.00000000000E+00 -0.00000000000E+00 -0.16019111238E+03  0.16019111238E+03  0.00000000000E+00 0. -1.
    9000007    1    1    2  501    0  0.35329759293E+02  0.15507671434E+03  0.34748731548E+03  0.55321281045E+03  0.40000000000E+03 0. -1.
   -9000007    1    1    2    0  502 -0.35329759293E+02 -0.15507671434E+03  0.75072267380E+03  0.86537940361E+03  0.40000000000E+03 0. -1.
<mgrwt>
<rscale>  2 0.43046136E+03</rscale>
<asrwt>0</asrwt>
<pdfrwt beam="1">  1       21 0.19360016E+00 0.43046136E+03</pdfrwt>
<pdfrwt beam="2">  1       21 0.24644787E-01 0.43046136E+03</pdfrwt>
<totfact> 0.19632734E+03</totfact>
</mgrwt>
</event>
<event>
 4    1  0.4689683E-002  0.5957926E+03  0.7818608E-02  0.9914174E-01
         21   -1    0    0  503  502  0.00000000000E+00  0.00000000000E+00  0.10611791673E+04  0.10611791673E+04  0.00000000000E+00 0.  1.
         21   -1    0    0  501  503 -0.00000000000E+00 -0.00000000000E+00 -0.41129409665E+03  0.41129409665E+03  0.00000000000E+00 0. -1.
    9000007    1    1    2  501    0 -0.37660337799E+03  0.23051832062E+03  0.68207140285E+01  0.59583162269E+03  0.40000000000E+03 0. -1.
   -9000007    1    1    2    0  502  0.37660337799E+03 -0.23051832062E+03  0.64306435665E+03  0.87664164129E+03  0.40000000000E+03 0.  1.
<mgrwt>
<rscale>  2 0.59579258E+03</rscale>
<asrwt>0</asrwt>
<pdfrwt beam="1">  1       21 0.16325833E+00 0.59579258E+03</pdfrwt>
<pdfrwt beam="2">  1       21 0.63276015E-01 0.59579258E+03</pdfrwt>
<totfact> 0.43024529E+02</totfact>
</mgrwt>
</event>
<event>
 4    1  0.4689683E-002  0.5005448E+03  0.7818608E-02  0.1013637E+00
         21   -1    0    0  501  502  0.00000000000E+00  0.00000000000E+00  0.55542425162E+03  0.55542425162E+03  0.00000000000E+00 0.  1.
         21   -1    0    0  502  503 -0.00000000000E+00 -0.00000000000E+00 -0.59658401464E+03  0.59658401464E+03  0.00000000000E+00 0.  1.
    9000007    1    1    2  501    0  0.25715871349E+02 -0.29980633809E+03  0.26387639844E+03  0.56584087874E+03  0.40000000000E+03 0.  1.
   -9000007    1    1    2    0  503 -0.25715871349E+02  0.29980633809E+03 -0.30503616146E+03  0.58616738753E+03  0.40000000000E+03 0.  1.
<mgrwt>
<rscale>  2 0.50054485E+03</rscale>
<asrwt>0</asrwt>
<pdfrwt beam="1">  1       21 0.85449884E-01 0.50054485E+03</pdfrwt>
<pdfrwt beam="2">  1       21 0.91782157E-01 0.50054485E+03</pdfrwt>
<totfact> 0.99112609E+02</totfact>
</mgrwt>
</event>
<event>
 4    1  0.4689683E-002  0.4114883E+03  0.7818608E-02  0.1039873E+00
         21   -1    0    0  503  502  0.00000000000E+00  0.00000000000E+00  0.22347022415E+03  0.22347022415E+03  0.00000000000E+00 0.  1.
         21   -1    0    0  501  503 -0.00000000000E+00 -0.00000000000E+00 -0.90896270693E+03  0.90896270693E+03  0.00000000000E+00 0.  1.
    9000007    1    1    2  501    0  0.75936234389E+02 -0.59635045750E+02 -0.57372930629E+03  0.70603680306E+03  0.40000000000E+03 0.  1.
   -9000007    1    1    2    0  502 -0.75936234389E+02  0.59635045750E+02 -0.11176317648E+03  0.42639612802E+03  0.40000000000E+03 0.  1.
<mgrwt>
<rscale>  2 0.41148834E+03</rscale>
<asrwt>0</asrwt>
<pdfrwt beam="1">  1       21 0.34380035E-01 0.41148834E+03</pdfrwt>
<pdfrwt beam="2">  1       21 0.13984041E+00 0.41148834E+03</pdfrwt>
<totfact> 0.25601516E+03</totfact>
</mgrwt>
</event>
<event>
 4    1  0.4689683E-002  0.5895579E+03  0.7818608E-02  0.9927310E-01
         21   -1    0    0  501  502  0.00000000000E+00  0.00000000000E+00  0.33866712417E+03  0.33866712417E+03  0.00000000000E+00 0. -1.
         21   -1    0    0  502  503 -0.00000000000E+00 -0.00000000000E+00 -0.16801496829E+04  0.16801496829E+04  0.00000000000E+00 0.  1.
    9000007    1    1    2  501    0 -0.42606349047E+03 -0.77771336237E+02 -0.41050166651E+02  0.59098527463E+03  0.40000000000E+03 0. -1.
   -9000007    1    1    2    0  503  0.42606349047E+03  0.77771336237E+02 -0.13004323921E+04  0.14278315324E+04  0.40000000000E+03 0.  1.
<mgrwt>
<rscale>  2 0.58955787E+03</rscale>
<asrwt>0</asrwt>
<pdfrwt beam="1">  1       21 0.52102635E-01 0.58955787E+03</pdfrwt>
<pdfrwt beam="2">  1       21 0.25848456E+00 0.58955787E+03</pdfrwt>
<totfact> 0.15274101E+02</totfact>
</mgrwt>
</event>
<event>
 4    1  0.4689683E-002  0.6229149E+03  0.7818608E-02  0.9858973E-01
         21   -1    0    0  501  502  0.00000000000E+00  0.00000000000E+00  0.14945825350E+04  0.14945825350E+04  0.00000000000E+00 0.  1.
         21   -1    0    0  502  503 -0.00000000000E+00 -0.00000000000E+00 -0.44165782738E+03  0.44165782738E+03  0.00000000000E+00 0.  1.
    9000007    1    1    2  501    0 -0.26834631920E+03 -0.39498508575E+03  0.11480001886E+04  0.13061115565E+04  0.40000000000E+03 0.  1.
   -9000007    1    1    2    0  503  0.26834631920E+03  0.39498508575E+03 -0.95075480935E+02  0.63012880593E+03  0.40000000000E+03 0.  1.
<mgrwt>
<rscale>  2 0.62291489E+03</rscale>
<asrwt>0</asrwt>
<pdfrwt beam="1">  1       21 0.22993577E+00 0.62291489E+03</pdfrwt>
<pdfrwt beam="2">  1       21 0.67947359E-01 0.62291489E+03</pdfrwt>
<totfact> 0.12670106E+02</totfact>
</mgrwt>
</event>
<event>
 4    1  0.4689683E-002  0.4424384E+03  0.7818608E-02  0.1030001E+00
         21   -1    0    0  501  502  0.00000000000E+00  0.00000000000E+00  0.44416686971E+03  0.44416686971E+03  0.00000000000E+00 0.  1.
         21   -1    0    0  502  503 -0.00000000000E+00 -0.00000000000E+00 -0.77582486732E+03  0.77582486732E+03  0.00000000000E+00 0.  1.
    9000007    1    1    2  501    0  0.18008384775E+03  0.57633093199E+02  0.23507237036E+03  0.50100976533E+03  0.40000000000E+03 0.  1.
   -9000007    1    1    2    0  503 -0.18008384775E+03 -0.57633093199E+02 -0.56673036796E+03  0.71898197170E+03  0.40000000000E+03 0.  1.
<mgrwt>
<rscale>  2 0.44243843E+03</rscale>
<asrwt>0</asrwt>
<pdfrwt beam="1">  1       21 0.68333365E-01 0.44243843E+03</pdfrwt>
<pdfrwt beam="2">  1       21 0.11935767E+00 0.44243843E+03</pdfrwt>
<totfact> 0.88811492E+02</totfact>
</mgrwt>
</event>
<event>
 4    1  0.4689683E-002  0.5429182E+03  0.7818608E-02  0.1003147E+00
         21   -1    0    0  503  502  0.00000000000E+00  0.00000000000E+00  0.61769546574E+03  0.61769546574E+03  0.00000000000E+00 0.  1.
         21   -1    0    0  501  503 -0.00000000000E+00 -0.00000000000E+00 -0.47795772230E+03  0.47795772230E+03  0.00000000000E+00 0.  1.
    9000007    1    1    2  501    0 -0.34678673842E+03 -0.12041219942E+03  0.47960297607E+02  0.54503241175E+03  0.40000000000E+03 0.  1.
   -9000007    1    1    2    0  502  0.34678673842E+03  0.12041219942E+03  0.91777445827E+02  0.55062077629E+03  0.40000000000E+03 0.  1.
<mgrwt>
<rscale>  2 0.54291817E+03</rscale>
<asrwt>0</asrwt>
<pdfrwt beam="1">  1       21 0.95030072E-01 0.54291817E+03</pdfrwt>
<pdfrwt beam="2">  1       21 0.73531957E-01 0.54291817E+03</pdfrwt>
<totfact> 0.12723270E+03</totfact>
</mgrwt>
</event>
<event>
 4    1  0.4689683E-002  0.5238483E+03  0.7818608E-02  0.1007735E+00
         21   -1    0    0  503  502  0.00000000000E+00  0.00000000000E+00  0.20901306556E+04  0.20901306556E+04  0.00000000000E+00 0. -1.
         21   -1    0    0  501  503 -0.00000000000E+00 -0.00000000000E+00 -0.13788190712E+03  0.13788190712E+03  0.00000000000E+00 0.  1.
    9000007    1    1    2  501    0  0.21593417801E+02  0.33756598358E+03  0.73257927172E+03  0.90060505124E+03  0.40000000000E+03 0. -1.
   -9000007    1    1    2    0  502 -0.21593417801E+02 -0.33756598358E+03  0.12196694767E+04  0.13274075114E+04  0.40000000000E+03 0. -1.
<mgrwt>
<rscale>  2 0.52384833E+03</rscale>
<asrwt>0</asrwt>
<pdfrwt beam="1">  1       21 0.32155854E+00 0.52384833E+03</pdfrwt>
<pdfrwt beam="2">  1       21 0.21212603E-01 0.52384833E+03</pdfrwt>
<totfact> 0.40158313E+02</totfact>
</mgrwt>
</event>
<event>
 4    1  0.4689683E-002  0.4628891E+03  0.7818608E-02  0.1023947E+00
         21   -1    0    0  501  502  0.00000000000E+00  0.00000000000E+00  0.20292512802E+03  0.20292512802E+03  0.00000000000E+00 0.  1.
         21   -1    0    0  502  503 -0.00000000000E+00 -0.00000000000E+00 -0.13831661587E+04  0.13831661587E+04  0.00000000000E+00 0.  1.
    9000007    1    1    2  501    0 -0.65340257652E+02 -0.22360006700E+03 -0.97588219803E+03  0.10800983306E+04  0.40000000000E+03 0.  1.
   -9000007    1    1    2    0  503  0.65340257652E+02  0.22360006700E+03 -0.20435883269E+03  0.50599295621E+03  0.40000000000E+03 0.  1.
<mgrwt>
<rscale>  2 0.46288912E+03</rscale>
<asrwt>0</asrwt>
<pdfrwt beam="1">  1       21 0.31219251E-01 0.46288912E+03</pdfrwt>
<pdfrwt beam="2">  1       21 0.21279479E+00 0.46288912E+03</pdfrwt>
<totfact> 0.90646589E+02</totfact>
</mgrwt>
</event>
<event>
 4    1  0.4689683E-002  0.4774165E+03  0.7818608E-02  0.1019848E+00
         21   -1    0    0  503  502  0.00000000000E+00  0.00000000000E+00  0.43279297126E+03  0.43279297126E+03  0.00000000000E+00 0.  1.
         21   -1    0    0  501  503 -0.00000000000E+00 -0.00000000000E+00 -0.56596033207E+03  0.56596033207E+03  0.00000000000E+00 0.  1.
    9000007    1    1    2  501    0  0.42644045289E+02  0.25711482474E+03 -0.19820856083E+03  0.51692666916E+03  0.40000000000E+03 0.  1.
   -9000007    1    1    2    0  502 -0.42644045289E+02 -0.25711482474E+03  0.65041200021E+02  0.48182663417E+03  0.40000000000E+03 0.  1.
<mgrwt>
<rscale>  2 0.47741653E+03</rscale>
<asrwt>0</asrwt>
<pdfrwt beam="1">  1       21 0.66583535E-01 0.47741653E+03</pdfrwt>
<pdfrwt beam="2">  1       21 0.87070819E-01 0.47741653E+03</pdfrwt>
<totfact> 0.20046455E+03</totfact>
</mgrwt>
</event>
<event>
 4    1  0.4689683E-002  0.4242201E+03  0.7818608E-02  0.1035701E+00
         21   -1    0    0  503  502  0.00000000000E+00  0.00000000000E+00  0.21493716374E+04  0.21493716374E+04  0.00000000000E+00 0. -1.
         21   -1    0    0  501  503 -0.00000000000E+00 -0.00000000000E+00 -0.32491476722E+03  0.32491476722E+03  0.00000000000E+00 0. -1.
    9000007    1    1    2  501    0 -0.47174455776E+02 -0.13318144522E+03 -0.15366043746E+03  0.45119203968E+03  0.40000000000E+03 0. -1.
   -9000007    1    1    2    0  502  0.47174455776E+02  0.13318144522E+03  0.19781173077E+04  0.20230943649E+04  0.40000000000E+03 0. -1.
<mgrwt>
<rscale>  2 0.42422014E+03</rscale>
<asrwt>0</asrwt>
<pdfrwt beam="1">  1       21 0.33067255E+00 0.42422014E+03</pdfrwt>
<pdfrwt beam="2">  1       21 0.49986889E-01 0.42422014E+03</pdfrwt>
<totfact> 0.66906324E+01</totfact>
</mgrwt>
</event>
<event>
 4    1  0.4689683E-002  0.4451797E+03  0.7818608E-02  0.1029169E+00
         21   -1    0    0  501  502  0.00000000000E+00  0.00000000000E+00  0.84266920803E+02  0.84266920803E+02  0.00000000000E+00 0.  1.
         21   -1    0    0  502  503 -0.00000000000E+00 -0.00000000000E+00 -0.25303422680E+04  0.25303422680E+04  0.00000000000E+00 0. -1.
    9000007    1    1    2  501    0  0.52412984610E+01 -0.19533950769E+03 -0.87584517200E+03  0.98249160800E+03  0.40000000000E+03 0.  1.
   -9000007    1    1    2    0  503 -0.52412984610E+01  0.19533950769E+03 -0.15702301752E+04  0.16321175808E+04  0.40000000000E+03 0. -1.
<mgrwt>
<rscale>  2 0.44517973E+03</rscale>
<asrwt>0</asrwt>
<pdfrwt beam="1">  1       21 0.12964143E-01 0.44517973E+03</pdfrwt>
<pdfrwt beam="2">  1       21 0.38928339E+00 0.44517973E+03</pdfrwt>
<totfact> 0.40269540E+02</totfact>
</mgrwt>
</event>
<event>
 4    1  0.4689683E-002  0.5048282E+03  0.7818608E-02  0.1012526E+00
         21   -1    0    0  503  502  0.00000000000E+00  0.00000000000E+00  0.14010284926E+04  0.14010284926E+04  0.00000000000E+00 0. -1.
         21   -1    0    0  501  503 -0.00000000000E+00 -0.00000000000E+00 -0.23011810732E+03  0.23011810732E+03  0.00000000000E+00 0. -1.
    9000007    1    1    2  501    0 -0.13944993871E+03 -0.27460006681E+03  0.21213752744E+03  0.54758909106E+03  0.40000000000E+03 0. -1.
   -9000007    1    1    2    0  502  0.13944993871E+03  0.27460006681E+03  0.95877285788E+03  0.10835575089E+04  0.40000000000E+03 0. -1.
<mgrwt>
<rscale>  2 0.50482817E+03</rscale>
<asrwt>0</asrwt>
<pdfrwt beam="1">  1       21 0.21554284E+00 0.50482817E+03</pdfrwt>
<pdfrwt beam="2">  1       21 0.35402787E-01 0.50482817E+03</pdfrwt>
<totfact> 0.66275068E+02</totfact>
</mgrwt>
</event>
<event>
 4    1  0.4689683E-002  0.4312660E+03  0.7818608E-02  0.1033461E+00
         21   -1    0    0  503  502  0.00000000000E+00  0.00000000000E+00  0.15191176306E+03  0.15191176306E+03  0.00000000000E+00 0.  1.
         21   -1    0    0  501  503 -0.00000000000E+00 -0.00000000000E+00 -0.16527146199E+04  0.16527146199E+04  0.00000000000E+00 0.  1.
    9000007    1    1    2  501    0 -0.12288801142E+03 -0.10434972916E+03 -0.12097841310E+04  0.12843550806E+04  0.40000000000E+03 0.  1.
   -9000007    1    1    2    0  502  0.12288801142E+03  0.10434972916E+03 -0.29101872583E+03  0.52027130241E+03  0.40000000000E+03 0.  1.
<mgrwt>
<rscale>  2 0.43126596E+03</rscale>
<asrwt>0</asrwt>
<pdfrwt beam="1">  1       21 0.23371040E-01 0.43126596E+03</pdfrwt>
<pdfrwt beam="2">  1       21 0.25426379E+00 0.43126596E+03</pdfrwt>
<totfact> 0.89301293E+02</totfact>
</mgrwt>
</event>
<event>
 4    1  0.4689683E-002  0.4109330E+03  0.7818608E-02  0.1040058E+00
         21   -1    0    0  501  502  0.00000000000E+00  0.00000000000E+00  0.57774382253E+02  0.57774382253E+02  0.00000000000E+00 0.  1.
         21   -1    0    0  502  503 -0.00000000000E+00 -0.00000000000E+00 -0.32895085302E+04  0.32895085302E+04  0.00000000000E+00 0.  1.
    9000007    1    1    2  501    0  0.90002795662E+02 -0.27666070213E+02 -0.21746294849E+04  0.22131152956E+04  0.40000000000E+03 0.  1.
   -9000007    1    1    2    0  503 -0.90002795662E+02  0.27666070213E+02 -0.10571046631E+04  0.11341676169E+04  0.40000000000E+03 0.  1.
<mgrwt>
<rscale>  2 0.41093298E+03</rscale>
<asrwt>0</asrwt>
<pdfrwt beam="1">  1       21 0.88883628E-02 0.41093298E+03</pdfrwt>
<pdfrwt beam="2">  1       21 0.50607845E+00 0.41093298E+03</pdfrwt>
<totfact> 0.13280452E+02</totfact>
</mgrwt>
</event>
<event>
 4    1  0.4689683E-002  0.4098999E+03  0.7818608E-02  0.1040405E+00
         21   -1    0    0  503  502  0.00000000000E+00  0.00000000000E+00  0.10931240206E+03  0.10931240206E+03  0.00000000000E+00 0.  1.
         21   -1    0    0  501  503 -0.00000000000E+00 -0.00000000000E+00 -0.16745004767E+04  0.16745004767E+04  0.00000000000E+00 0.  1.
    9000007    1    1    2  501    0  0.60604925173E+02  0.65916362420E+02 -0.52705340914E+03  0.66768497053E+03  0.40000000000E+03 0.  1.
   -9000007    1    1    2    0  502 -0.60604925173E+02 -0.65916362420E+02 -0.10381346655E+04  0.11161279082E+04  0.40000000000E+03 0.  1.
<mgrwt>
<rscale>  2 0.40989989E+03</rscale>
<asrwt>0</asrwt>
<pdfrwt beam="1">  1       21 0.16817292E-01 0.40989989E+03</pdfrwt>
<pdfrwt beam="2">  1       21 0.25761547E+00 0.40989989E+03</pdfrwt>
<totfact> 0.16097414E+03</totfact>
</mgrwt>
</event>
<event>
 4    1  0.4689683E-002  0.4787000E+03  0.7818608E-02  0.1019493E+00
         21   -1    0    0  501  502  0.00000000000E+00  0.00000000000E+00  0.11019108152E+03  0.11019108152E+03  0.00000000000E+00 0.  1.
         21   -1    0    0  502  503 -0.00000000000E+00 -0.00000000000E+00 -0.22377240659E+04  0.22377240659E+04  0.00000000000E+00 0.  1.
    9000007    1    1    2  501    0 -0.26102389494E+03 -0.31940369229E+02 -0.13758311135E+04  0.14567308996E+04  0.40000000000E+03 0. -1.
   -9000007    1    1    2    0  503  0.26102389494E+03  0.31940369229E+02 -0.75170187089E+03  0.89118424785E+03  0.40000000000E+03 0. -1.
<mgrwt>
<rscale>  2 0.47869997E+03</rscale>
<asrwt>0</asrwt>
<pdfrwt beam="1">  1       21 0.16952475E-01 0.47869997E+03</pdfrwt>
<pdfrwt beam="2">  1       21 0.34426522E+00 0.47869997E+03</pdfrwt>
<totfact> 0.45754637E+02</totfact>
</mgrwt>
</event>
<event>
 4    1  0.4689683E-002  0.4997807E+03  0.7818608E-02  0.1013836E+00
         21   -1    0    0  503  502  0.00000000000E+00  0.00000000000E+00  0.14767118904E+04  0.14767118904E+04  0.00000000000E+00 0. -1.
         21   -1    0    0  501  503 -0.00000000000E+00 -0.00000000000E+00 -0.19194257704E+03  0.19194257704E+03  0.00000000000E+00 0. -1.
    9000007    1    1    2  501    0  0.10432050151E+03  0.28088790867E+03  0.35485679361E+03  0.61294708438E+03  0.40000000000E+03 0. -1.
   -9000007    1    1    2    0  502 -0.10432050151E+03 -0.28088790867E+03  0.92991251978E+03  0.10557073831E+04  0.40000000000E+03 0. -1.
<mgrwt>
<rscale>  2 0.49978074E+03</rscale>
<asrwt>0</asrwt>
<pdfrwt beam="1">  1       21 0.22718644E+00 0.49978074E+03</pdfrwt>
<pdfrwt beam="2">  1       21 0.29529628E-01 0.49978074E+03</pdfrwt>
<totfact> 0.80523912E+02</totfact>
</mgrwt>
</event>
<event>
 4    1  0.4689683E-002  0.4445029E+03  0.7818608E-02  0.1029374E+00
         21   -1    0    0  503  502  0.00000000000E+00  0.00000000000E+00  0.14564851320E+03  0.14564851320E+03  0.00000000000E+00 0.  1.
         21   -1    0    0  501  503 -0.00000000000E+00 -0.00000000000E+00 -0.14255929067E+04  0.14255929067E+04  0.00000000000E+00 0.  1.
    9000007    1    1    2  501    0 -0.18415835976E+03 -0.60568654653E+02 -0.46710927472E+03  0.64480534886E+03  0.40000000000E+03 0.  1.
   -9000007    1    1    2    0  502  0.18415835976E+03  0.60568654653E+02 -0.81283511878E+03  0.92643607104E+03  0.40000000000E+03 0.  1.
<mgrwt>
<rscale>  2 0.44450294E+03</rscale>
<asrwt>0</asrwt>
<pdfrwt beam="1">  1       21 0.22407464E-01 0.44450294E+03</pdfrwt>
<pdfrwt beam="2">  1       21 0.21932198E+00 0.44450294E+03</pdfrwt>
<totfact> 0.15889773E+03</totfact>
</mgrwt>
</event>
<event>
 4    1  0.4689683E-002  0.5131360E+03  0.7818608E-02  0.1010406E+00
         21   -1    0    0  501  502  0.00000000000E+00  0.00000000000E+00  0.27566632911E+03  0.27566632911E+03  0.00000000000E+00 0. -1.
         21   -1    0    0  502  503 -0.00000000000E+00 -0.00000000000E+00 -0.10127591399E+04  0.10127591399E+04  0.00000000000E+00 0. -1.
    9000007    1    1    2  501    0 -0.13264935034E+03  0.29276739614E+03 -0.52216407426E+03  0.73209556673E+03  0.40000000000E+03 0. -1.
   -9000007    1    1    2    0  503  0.13264935034E+03 -0.29276739614E+03 -0.21492873655E+03  0.55632990229E+03  0.40000000000E+03 0. -1.
<mgrwt>
<rscale>  2 0.51313604E+03</rscale>
<asrwt>0</asrwt>
<pdfrwt beam="1">  1       21 0.42410206E-01 0.51313604E+03</pdfrwt>
<pdfrwt beam="2">  1       21 0.15580909E+00 0.51313604E+03</pdfrwt>
<totfact> 0.11945815E+03</totfact>
</mgrwt>
</event>
<event>
 4    1  0.4689683E-002  0.4177672E+03  0.7818608E-02  0.1037795E+00
         21   -1    0    0  503  502  0.00000000000E+00  0.00000000000E+00  0.44831470985E+03  0.44831470985E+03  0.00000000000E+00 0. -1.
         21   -1    0    0  501  503 -0.00000000000E+00 -0.00000000000E+00 -0.15544679255E+04  0.15544679255E+04  0.00000000000E+00 0. -1.
    9000007    1    1    2  501    0 -0.10547435460E+03 -0.58349202973E+02 -0.14200523972E+04  0.14802291308E+04  0.40000000000E+03 0. -1.
   -9000007    1    1    2    0  502  0.10547435460E+03  0.58349202973E+02  0.31389918151E+03  0.52255350455E+03  0.40000000000E+03 0. -1.
<mgrwt>
<rscale>  2 0.41776724E+03</rscale>
<asrwt>0</asrwt>
<pdfrwt beam="1">  1       21 0.68971494E-01 0.41776724E+03</pdfrwt>
<pdfrwt beam="2">  1       21 0.23914891E+00 0.41776724E+03</pdfrwt>
<totfact> 0.11894543E+02</totfact>
</mgrwt>
</event>
<event>
 4    1  0.4689683E-002  0.4127789E+03  0.7818608E-02  0.1039442E+00
         21   -1    0    0  503  502  0.00000000000E+00  0.00000000000E+00  0.56683233124E+03  0.56683233124E+03  0.00000000000E+00 0. -1.
         21   -1    0    0  501  503 -0.00000000000E+00 -0.00000000000E+00 -0.72811882201E+03  0.72811882201E+03  0.00000000000E+00 0. -1.
    9000007    1    1    2  501    0  0.62886113414E+02 -0.80198406894E+02 -0.57678169461E+03  0.70926974485E+03  0.40000000000E+03 0. -1.
   -9000007    1    1    2    0  502 -0.62886113414E+02  0.80198406894E+02  0.41549520383E+03  0.58568140839E+03  0.40000000000E+03 0. -1.
<mgrwt>
<rscale>  2 0.41277893E+03</rscale>
<asrwt>0</asrwt>
<pdfrwt beam="1">  1       21 0.87204974E-01 0.41277893E+03</pdfrwt>
<pdfrwt beam="2">  1       21 0.11201828E+00 0.41277893E+03</pdfrwt>
<totfact> 0.60331159E+02</totfact>
</mgrwt>
</event>
<event>
 4    1  0.4689683E-002  0.4471994E+03  0.7818608E-02  0.1028561E+00
         21   -1    0    0  503  502  0.00000000000E+00  0.00000000000E+00  0.13307874040E+04  0.13307874040E+04  0.00000000000E+00 0. -1.
         21   -1    0    0  501  503 -0.00000000000E+00 -0.00000000000E+00 -0.39280706987E+03  0.39280706987E+03  0.00000000000E+00 0. -1.
    9000007    1    1    2  501    0  0.10678524564E+02 -0.19968297694E+03 -0.20818005609E+03  0.49328111450E+03  0.40000000000E+03 0. -1.
   -9000007    1    1    2    0  502 -0.10678524564E+02  0.19968297694E+03  0.11461603902E+04  0.12303133594E+04  0.40000000000E+03 0. -1.
<mgrwt>
<rscale>  2 0.44719942E+03</rscale>
<asrwt>0</asrwt>
<pdfrwt beam="1">  1       21 0.20473652E+00 0.44719942E+03</pdfrwt>
<pdfrwt beam="2">  1       21 0.60431857E-01 0.44719942E+03</pdfrwt>
<totfact> 0.25974559E+02</totfact>
</mgrwt>
</event>
<event>
 4    1  0.4689683E-002  0.7011452E+03  0.7818608E-02  0.9715276E-01
         21   -1    0    0  503  502  0.00000000000E+00  0.00000000000E+00  0.29001209894E+04  0.29001209894E+04  0.00000000000E+00 0. -1.
         21   -1    0    0  501  503 -0.00000000000E+00 -0.00000000000E+00 -0.27803102526E+03  0.27803102526E+03  0.00000000000E+00 0.  1.
    9000007    1    1    2  501    0  0.23975671533E+03 -0.52356591753E+03  0.31826844637E+03  0.76999958214E+03  0.40000000000E+03 0.  1.
   -9000007    1    1    2    0  502 -0.23975671533E+03  0.52356591753E+03  0.23038215178E+04  0.24081524326E+04  0.40000000000E+03 0. -1.
<mgrwt>
<rscale>  2 0.70114517E+03</rscale>
<asrwt>0</asrwt>
<pdfrwt beam="1">  1       21 0.44617244E+00 0.70114517E+03</pdfrwt>
<pdfrwt beam="2">  1       21 0.42774006E-01 0.70114517E+03</pdfrwt>
<totfact> 0.14387009E+01</totfact>
</mgrwt>
</event>
<event>
 4    1  0.4689683E-002  0.4088062E+03  0.7818608E-02  0.1040772E+00
         21   -1    0    0  501  502  0.00000000000E+00  0.00000000000E+00  0.26652046233E+03  0.26652046233E+03  0.00000000000E+00 0.  1.
         21   -1    0    0  502  503 -0.00000000000E+00 -0.00000000000E+00 -0.67184015045E+03  0.67184015045E+03  0.00000000000E+00 0.  1.
    9000007    1    1    2  501    0 -0.53447951289E+02  0.65313242982E+02 -0.81521217739E+02  0.41685514528E+03  0.40000000000E+03 0. -1.
   -9000007    1    1    2    0  503  0.53447951289E+02 -0.65313242982E+02 -0.32379847039E+03  0.52150546750E+03  0.40000000000E+03 0. -1.
<mgrwt>
<rscale>  2 0.40880619E+03</rscale>
<asrwt>0</asrwt>
<pdfrwt beam="1">  1       21 0.41003148E-01 0.40880619E+03</pdfrwt>
<pdfrwt beam="2">  1       21 0.10336002E+00 0.40880619E+03</pdfrwt>
<totfact> 0.38526513E+03</totfact>
</mgrwt>
</event>
<event>
 4    1  0.4689683E-002  0.5295831E+03  0.7818608E-02  0.1006333E+00
         21   -1    0    0  503  502  0.00000000000E+00  0.00000000000E+00  0.19396089756E+03  0.19396089756E+03  0.00000000000E+00 0.  1.
         21   -1    0    0  501  503 -0.00000000000E+00 -0.00000000000E+00 -0.14782369992E+04  0.14782369992E+04  0.00000000000E+00 0. -1.
    9000007    1    1    2  501    0  0.33068469923E+03  0.10538436860E+03 -0.76569949961E+03  0.93099621866E+03  0.40000000000E+03 0. -1.
   -9000007    1    1    2    0  502 -0.33068469923E+03 -0.10538436860E+03 -0.51857660204E+03  0.74120167811E+03  0.40000000000E+03 0.  1.
<mgrwt>
<rscale>  2 0.52958308E+03</rscale>
<asrwt>0</asrwt>
<pdfrwt beam="1">  1       21 0.29840138E-01 0.52958308E+03</pdfrwt>
<pdfrwt beam="2">  1       21 0.22742107E+00 0.52958308E+03</pdfrwt>
<totfact> 0.77621153E+02</totfact>
</mgrwt>
</event>
<event>
 4    1  0.4689683E-002  0.4465034E+03  0.7818608E-02  0.1028770E+00
         21   -1    0    0  501  502  0.00000000000E+00  0.00000000000E+00  0.32431918146E+03  0.32431918146E+03  0.00000000000E+00 0.  1.
         21   -1    0    0  502  503 -0.00000000000E+00 -0.00000000000E+00 -0.67521641500E+03  0.67521641500E+03  0.00000000000E+00 0.  1.
    9000007    1    1    2  501    0 -0.19388587775E+03 -0.42113450018E+02 -0.25854701780E+02  0.44725131846E+03  0.40000000000E+03 0.  1.
   -9000007    1    1    2    0  503  0.19388587775E+03  0.42113450018E+02 -0.32504253176E+03  0.55228427799E+03  0.40000000000E+03 0.  1.
<mgrwt>
<rscale>  2 0.44650339E+03</rscale>
<asrwt>0</asrwt>
<pdfrwt beam="1">  1       21 0.49895259E-01 0.44650339E+03</pdfrwt>
<pdfrwt beam="2">  1       21 0.10387945E+00 0.44650339E+03</pdfrwt>
<totfact> 0.24874747E+03</totfact>
</mgrwt>
</event>
<event>
 4    1  0.4689683E-002  0.4063562E+03  0.7818608E-02  0.1041601E+00
         21   -1    0    0  501  502  0.00000000000E+00  0.00000000000E+00  0.29350954349E+03  0.29350954349E+03  0.00000000000E+00 0.  1.
         21   -1    0    0  502  503 -0.00000000000E+00 -0.00000000000E+00 -0.72816829914E+03  0.72816829914E+03  0.00000000000E+00 0.  1.
    9000007    1    1    2  501    0  0.70130222391E+02 -0.14391400020E+02  0.26266861520E+02  0.40720425894E+03  0.40000000000E+03 0.  1.
   -9000007    1    1    2    0  503 -0.70130222391E+02  0.14391400020E+02 -0.46092561717E+03  0.61447358369E+03  0.40000000000E+03 0.  1.
<mgrwt>
<rscale>  2 0.40635620E+03</rscale>
<asrwt>0</asrwt>
<pdfrwt beam="1">  1       21 0.45155315E-01 0.40635620E+03</pdfrwt>
<pdfrwt beam="2">  1       21 0.11202589E+00 0.40635620E+03</pdfrwt>
<totfact> 0.25880541E+03</totfact>
</mgrwt>
</event>
<event>
 4    1  0.4689683E-002  0.4099707E+03  0.7818608E-02  0.1040381E+00
         21   -1    0    0  503  502  0.00000000000E+00  0.00000000000E+00  0.22733750132E+04  0.22733750132E+04  0.00000000000E+00 0. -1.
         21   -1    0    0  501  503 -0.00000000000E+00 -0.00000000000E+00 -0.17776358676E+03  0.17776358676E+03  0.00000000000E+00 0. -1.
    9000007    1    1    2  501    0  0.50951747505E+02 -0.74026562968E+02  0.11114903530E+03  0.42477066830E+03  0.40000000000E+03 0. -1.
   -9000007    1    1    2    0  502 -0.50951747505E+02  0.74026562968E+02  0.19844623911E+04  0.20263679316E+04  0.40000000000E+03 0. -1.
<mgrwt>
<rscale>  2 0.40997075E+03</rscale>
<asrwt>0</asrwt>
<pdfrwt beam="1">  1       21 0.34974998E+00 0.40997075E+03</pdfrwt>
<pdfrwt beam="2">  1       21 0.27348246E-01 0.40997075E+03</pdfrwt>
<totfact> 0.17689552E+02</totfact>
</mgrwt>
</event>
<event>
 4    1  0.4689683E-002  0.5649916E+03  0.7818608E-02  0.9980823E-01
         21   -1    0    0  501  502  0.00000000000E+00  0.00000000000E+00  0.46815236212E+03  0.46815236212E+03  0.00000000000E+00 0.  1.
         21   -1    0    0  502  503 -0.00000000000E+00 -0.00000000000E+00 -0.71183022288E+03  0.71183022288E+03  0.00000000000E+00 0.  1.
    9000007    1    1    2  501    0  0.39024964282E+03  0.83191183219E+02 -0.24289428502E+03  0.61499039861E+03  0.40000000000E+03 0.  1.
   -9000007    1    1    2    0  503 -0.39024964282E+03 -0.83191183219E+02 -0.78357574279E+00  0.56499218639E+03  0.40000000000E+03 0.  1.
<mgrwt>
<rscale>  2 0.56499164E+03</rscale>
<asrwt>0</asrwt>
<pdfrwt beam="1">  1       21 0.72023441E-01 0.56499164E+03</pdfrwt>
<pdfrwt beam="2">  1       21 0.10951234E+00 0.56499164E+03</pdfrwt>
<totfact> 0.93482533E+02</totfact>
</mgrwt>
</event>
<event>
 4    1  0.4689683E-002  0.4124121E+03  0.7818608E-02  0.1039565E+00
         21   -1    0    0  501  502  0.00000000000E+00  0.00000000000E+00  0.18338295377E+04  0.18338295377E+04  0.00000000000E+00 0. -1.
         21   -1    0    0  502  503 -0.00000000000E+00 -0.00000000000E+00 -0.10179686740E+03  0.10179686740E+03  0.00000000000E+00 0. -1.
    9000007    1    1    2  501    0 -0.99562319005E+02 -0.13078986203E+02  0.11545692469E+04  0.12260154408E+04  0.40000000000E+03 0.  1.
   -9000007    1    1    2    0  503  0.99562319005E+02  0.13078986203E+02  0.57746342336E+03  0.70961096423E+03  0.40000000000E+03 0.  1.
<mgrwt>
<rscale>  2 0.41241207E+03</rscale>
<asrwt>0</asrwt>
<pdfrwt beam="1">  1       21 0.28212760E+00 0.41241207E+03</pdfrwt>
<pdfrwt beam="2">  1       21 0.15661058E-01 0.41241207E+03</pdfrwt>
<totfact> 0.13061674E+03</totfact>
</mgrwt>
</event>
<event>
 4    1  0.4689683E-002  0.4165866E+03  0.7818608E-02  0.1038183E+00
         21   -1    0    0  503  502  0.00000000000E+00  0.00000000000E+00  0.43486192766E+03  0.43486192766E+03  0.00000000000E+00 0.  1.
         21   -1    0    0  501  503 -0.00000000000E+00 -0.00000000000E+00 -0.13409370299E+04  0.13409370299E+04  0.00000000000E+00 0.  1.
    9000007    1    1    2  501    0 -0.81402973167E+02 -0.83174098540E+02 -0.11971734772E+04  0.12675838076E+04  0.40000000000E+03 0.  1.
   -9000007    1    1    2    0  502  0.81402973167E+02  0.83174098540E+02  0.29109837501E+03  0.50821514995E+03  0.40000000000E+03 0.  1.
<mgrwt>
<rscale>  2 0.41658658E+03</rscale>
<asrwt>0</asrwt>
<pdfrwt beam="1">  1       21 0.66901834E-01 0.41658658E+03</pdfrwt>
<pdfrwt beam="2">  1       21 0.20629801E+00 0.41658658E+03</pdfrwt>
<totfact> 0.20604656E+02</totfact>
</mgrwt>
</event>
<event>
 4    1  0.4689683E-002  0.4453956E+03  0.7818608E-02  0.1029104E+00
         21   -1    0    0  503  502  0.00000000000E+00  0.00000000000E+00  0.12867748967E+03  0.12867748967E+03  0.00000000000E+00 0.  1.
         21   -1    0    0  501  503 -0.00000000000E+00 -0.00000000000E+00 -0.15417161344E+04  0.15417161344E+04  0.00000000000E+00 0. -1.
    9000007    1    1    2  501    0  0.90041434882E+02 -0.17398217395E+03 -0.71144675394E+03  0.83936508180E+03  0.40000000000E+03 0. -1.
   -9000007    1    1    2    0  502 -0.90041434882E+02  0.17398217395E+03 -0.70159189077E+03  0.83102854226E+03  0.40000000000E+03 0.  1.
<mgrwt>
<rscale>  2 0.44539562E+03</rscale>
<asrwt>0</asrwt>
<pdfrwt beam="1">  1       21 0.19796538E-01 0.44539562E+03</pdfrwt>
<pdfrwt beam="2">  1       21 0.23718709E+00 0.44539562E+03</pdfrwt>
<totfact> 0.15529168E+03</totfact>
</mgrwt>
</event>
<event>
 4    1  0.4689683E-002  0.4162499E+03  0.7818608E-02  0.1038294E+00
         21   -1    0    0  503  502  0.00000000000E+00  0.00000000000E+00  0.21419818141E+03  0.21419818141E+03  0.00000000000E+00 0. -1.
         21   -1    0    0  501  503 -0.00000000000E+00 -0.00000000000E+00 -0.83608192969E+03  0.83608192969E+03  0.00000000000E+00 0. -1.
    9000007    1    1    2  501    0 -0.24779388621E+02 -0.11247187380E+03 -0.21624688785E+03  0.46906999158E+03  0.40000000000E+03 0. -1.
   -9000007    1    1    2    0  502  0.24779388621E+02  0.11247187380E+03 -0.40563686043E+03  0.58121011953E+03  0.40000000000E+03 0. -1.
<mgrwt>
<rscale>  2 0.41624985E+03</rscale>
<asrwt>0</asrwt>
<pdfrwt beam="1">  1       21 0.32953566E-01 0.41624985E+03</pdfrwt>
<pdfrwt beam="2">  1       21 0.12862799E+00 0.41624985E+03</pdfrwt>
<totfact> 0.34614490E+03</totfact>
</mgrwt>
</event>
<event>
 4    1  0.4689683E-002  0.5130057E+03  0.7818608E-02  0.1010439E+00
         21   -1    0    0  503  502  0.00000000000E+00  0.00000000000E+00  0.31353035141E+03  0.31353035141E+03  0.00000000000E+00 0. -1.
         21   -1    0    0  501  503 -0.00000000000E+00 -0.00000000000E+00 -0.90331624820E+03  0.90331624820E+03  0.00000000000E+00 0. -1.
    9000007    1    1    2  501    0  0.29504792542E+03  0.12697085404E+03 -0.13304072819E+03  0.52997614232E+03  0.40000000000E+03 0. -1.
   -9000007    1    1    2    0  502 -0.29504792542E+03 -0.12697085404E+03 -0.45674516859E+03  0.68687045729E+03  0.40000000000E+03 0. -1.
<mgrwt>
<rscale>  2 0.51300573E+03</rscale>
<asrwt>0</asrwt>
<pdfrwt beam="1">  1       21 0.48235438E-01 0.51300573E+03</pdfrwt>
<pdfrwt beam="2">  1       21 0.13897173E+00 0.51300573E+03</pdfrwt>
<totfact> 0.12429897E+03</totfact>
</mgrwt>
</event>
<event>
 4    1  0.4689683E-002  0.4181182E+03  0.7818608E-02  0.1037681E+00
         21   -1    0    0  503  502  0.00000000000E+00  0.00000000000E+00  0.91674046922E+03  0.91674046922E+03  0.00000000000E+00 0. -1.
         21   -1    0    0  501  503 -0.00000000000E+00 -0.00000000000E+00 -0.59396926611E+03  0.59396926611E+03  0.00000000000E+00 0. -1.
    9000007    1    1    2  501    0  0.11812917355E+03 -0.29467631867E+02 -0.46100976662E+03  0.62237677326E+03  0.40000000000E+03 0. -1.
   -9000007    1    1    2    0  502 -0.11812917355E+03  0.29467631867E+02  0.78378096974E+03  0.88833296207E+03  0.40000000000E+03 0. -1.
<mgrwt>
<rscale>  2 0.41811822E+03</rscale>
<asrwt>0</asrwt>
<pdfrwt beam="1">  1       21 0.14103700E+00 0.41811822E+03</pdfrwt>
<pdfrwt beam="2">  1       21 0.91379887E-01 0.41811822E+03</pdfrwt>
<totfact> 0.29831673E+02</totfact>
</mgrwt>
</event>
<event>
 4    1  0.4689683E-002  0.4233513E+03  0.7818608E-02  0.1035981E+00
         21   -1    0    0  503  502  0.00000000000E+00  0.00000000000E+00  0.20620806005E+03  0.20620806005E+03  0.00000000000E+00 0. -1.
         21   -1    0    0  501  503 -0.00000000000E+00 -0.00000000000E+00 -0.15780136106E+04  0.15780136106E+04  0.00000000000E+00 0. -1.
    9000007    1    1    2  501    0 -0.13865730533E+03  0.70627858686E+00 -0.87981682418E+02  0.43239695141E+03  0.40000000000E+03 0. -1.
   -9000007    1    1    2    0  502  0.13865730533E+03 -0.70627858686E+00 -0.12838238681E+04  0.13518247192E+04  0.40000000000E+03 0. -1.
<mgrwt>
<rscale>  2 0.42335133E+03</rscale>
<asrwt>0</asrwt>
<pdfrwt beam="1">  1       21 0.31724318E-01 0.42335133E+03</pdfrwt>
<pdfrwt beam="2">  1       21 0.24277131E+00 0.42335133E+03</pdfrwt>
<totfact> 0.57904851E+02</totfact>
</mgrwt>
</event>
<event>
 4    1  0.4689683E-002  0.4433536E+03  0.7818608E-02  0.1029723E+00
         21   -1    0    0  503  502  0.00000000000E+00  0.00000000000E+00  0.50020402318E+03  0.50020402318E+03  0.00000000000E+00 0.  1.
         21   -1    0    0  501  503 -0.00000000000E+00 -0.00000000000E+00 -0.45653738427E+03  0.45653738427E+03  0.00000000000E+00 0.  1.
    9000007    1    1    2  501    0  0.33441855455E+02 -0.18826600149E+03 -0.15667654291E+03  0.47022333429E+03  0.40000000000E+03 0.  1.
   -9000007    1    1    2    0  502 -0.33441855455E+02  0.18826600149E+03  0.20034318182E+03  0.48651807317E+03  0.40000000000E+03 0.  1.
<mgrwt>
<rscale>  2 0.44335363E+03</rscale>
<asrwt>0</asrwt>
<pdfrwt beam="1">  1       21 0.76954466E-01 0.44335363E+03</pdfrwt>
<pdfrwt beam="2">  1       21 0.70236520E-01 0.44335363E+03</pdfrwt>
<totfact> 0.23985709E+03</totfact>
</mgrwt>
</event>
<event>
 4    1  0.4689683E-002  0.4912984E+03  0.7818608E-02  0.1016075E+00
         21   -1    0    0  501  502  0.00000000000E+00  0.00000000000E+00  0.13579187131E+04  0.13579187131E+04  0.00000000000E+00 0.  1.
         21   -1    0    0  502  503 -0.00000000000E+00 -0.00000000000E+00 -0.61462689222E+03  0.61462689222E+03  0.00000000000E+00 0. -1.
    9000007    1    1    2  501    0  0.27531156092E+03 -0.74683493328E+02  0.12031594793E+04  0.12996025594E+04  0.40000000000E+03 0.  1.
   -9000007    1    1    2    0  503 -0.27531156092E+03  0.74683493328E+02 -0.45986765844E+03  0.67294304591E+03  0.40000000000E+03 0. -1.
<mgrwt>
<rscale>  2 0.49129836E+03</rscale>
<asrwt>0</asrwt>
<pdfrwt beam="1">  1       21 0.20891057E+00 0.49129836E+03</pdfrwt>
<pdfrwt beam="2">  1       21 0.94557983E-01 0.49129836E+03</pdfrwt>
<totfact> 0.85406454E+01</totfact>
</mgrwt>
</event>
<event>
 4    1  0.4689683E-002  0.4311995E+03  0.7818608E-02  0.1033482E+00
         21   -1    0    0  503  502  0.00000000000E+00  0.00000000000E+00  0.44561009334E+03  0.44561009334E+03  0.00000000000E+00 0. -1.
         21   -1    0    0  501  503 -0.00000000000E+00 -0.00000000000E+00 -0.41826316456E+03  0.41826316456E+03  0.00000000000E+00 0. -1.
    9000007    1    1    2  501    0  0.11474252233E+03 -0.11299180672E+03  0.34880625426E+02  0.43260796669E+03  0.40000000000E+03 0. -1.
   -9000007    1    1    2    0  502 -0.11474252233E+03  0.11299180672E+03 -0.75336966508E+01  0.43126529121E+03  0.40000000000E+03 0. -1.
<mgrwt>
<rscale>  2 0.43119948E+03</rscale>
<asrwt>0</asrwt>
<pdfrwt beam="1">  1       21 0.68555399E-01 0.43119948E+03</pdfrwt>
<pdfrwt beam="2">  1       21 0.64348179E-01 0.43119948E+03</pdfrwt>
<totfact> 0.38068414E+03</totfact>
</mgrwt>
</event>
<event>
 4    1  0.4689683E-002  0.4021748E+03  0.7818608E-02  0.1043029E+00
         21   -1    0    0  501  502  0.00000000000E+00  0.00000000000E+00  0.11029422001E+04  0.11029422001E+04  0.00000000000E+00 0.  1.
         21   -1    0    0  502  503 -0.00000000000E+00 -0.00000000000E+00 -0.37632956383E+03  0.37632956383E+03  0.00000000000E+00 0.  1.
    9000007    1    1    2  501    0  0.33117835041E+02 -0.25451446621E+02  0.94113169997E+03  0.10234615009E+04  0.40000000000E+03 0.  1.
   -9000007    1    1    2    0  503 -0.33117835041E+02  0.25451446621E+02 -0.21451906375E+03  0.45581026299E+03  0.40000000000E+03 0.  1.
<mgrwt>
<rscale>  2 0.40217480E+03</rscale>
<asrwt>0</asrwt>
<pdfrwt beam="1">  1       21 0.16968341E+00 0.40217480E+03</pdfrwt>
<pdfrwt beam="2">  1       21 0.57896856E-01 0.40217480E+03</pdfrwt>
<totfact> 0.50970017E+02</totfact>
</mgrwt>
</event>
<event>
 4    1  0.4689683E-002  0.4738759E+03  0.7818608E-02  0.1020832E+00
         21   -1    0    0  503  502  0.00000000000E+00  0.00000000000E+00  0.28231392705E+03  0.28231392705E+03  0.00000000000E+00 0. -1.
         21   -1    0    0  501  503 -0.00000000000E+00 -0.00000000000E+00 -0.18087898140E+04  0.18087898140E+04  0.00000000000E+00 0. -1.
    9000007    1    1    2  501    0  0.16464819491E+03 -0.19351832854E+03 -0.15458298288E+04  0.16168327778E+04  0.40000000000E+03 0. -1.
   -9000007    1    1    2    0  502 -0.16464819491E+03  0.19351832854E+03  0.19353941856E+02  0.47427096331E+03  0.40000000000E+03 0. -1.
<mgrwt>
<rscale>  2 0.47387590E+03</rscale>
<asrwt>0</asrwt>
<pdfrwt beam="1">  1       21 0.43432911E-01 0.47387590E+03</pdfrwt>
<pdfrwt beam="2">  1       21 0.27827536E+00 0.47387590E+03</pdfrwt>
<totfact> 0.18018666E+02</totfact>
</mgrwt>
</event>
<event>
 4    1  0.4689683E-002  0.4088172E+03  0.7818608E-02  0.1040769E+00
         21   -1    0    0  503  502  0.00000000000E+00  0.00000000000E+00  0.31947073428E+03  0.31947073428E+03  0.00000000000E+00 0.  1.
         21   -1    0    0  501  503 -0.00000000000E+00 -0.00000000000E+00 -0.64295837817E+03  0.64295837817E+03  0.00000000000E+00 0.  1.
    9000007    1    1    2  501    0  0.32102350685E+02  0.78108563804E+02  0.45981138569E+02  0.41139491217E+03  0.40000000000E+03 0.  1.
   -9000007    1    1    2    0  502 -0.32102350685E+02 -0.78108563804E+02 -0.36946878246E+03  0.55103420028E+03  0.40000000000E+03 0.  1.
<mgrwt>
<rscale>  2 0.40881721E+03</rscale>
<asrwt>0</asrwt>
<pdfrwt beam="1">  1       21 0.49149344E-01 0.40881721E+03</pdfrwt>
<pdfrwt beam="2">  1       21 0.98916672E-01 0.40881721E+03</pdfrwt>
<totfact> 0.29357039E+03</totfact>
</mgrwt>
</event>
<event>
 4    1  0.4689683E-002  0.4989926E+03  0.7818608E-02  0.1014042E+00
         21   -1    0    0  503  502  0.00000000000E+00  0.00000000000E+00  0.22570419943E+04  0.22570419943E+04  0.00000000000E+00 0. -1.
         21   -1    0    0  501  503 -0.00000000000E+00 -0.00000000000E+00 -0.29429666941E+03  0.29429666941E+03  0.00000000000E+00 0. -1.
    9000007    1    1    2  501    0  0.78843289260E+02  0.28771051435E+03 -0.27249546489E+02  0.49973607245E+03  0.40000000000E+03 0. -1.
   -9000007    1    1    2    0  502 -0.78843289260E+02 -0.28771051435E+03  0.19899948714E+04  0.20516025912E+04  0.40000000000E+03 0. -1.
<mgrwt>
<rscale>  2 0.49899259E+03</rscale>
<asrwt>0</asrwt>
<pdfrwt beam="1">  1       21 0.34723722E+00 0.49899259E+03</pdfrwt>
<pdfrwt beam="2">  1       21 0.45276412E-01 0.49899259E+03</pdfrwt>
<totfact> 0.62118831E+01</totfact>
</mgrwt>
</event>
<event>
 4    1  0.4689683E-002  0.6411726E+03  0.7818608E-02  0.9823486E-01
         21   -1    0    0  503  502  0.00000000000E+00  0.00000000000E+00  0.14105455931E+04  0.14105455931E+04  0.00000000000E+00 0. -1.
         21   -1    0    0  501  503 -0.00000000000E+00 -0.00000000000E+00 -0.34455368363E+03  0.34455368363E+03  0.00000000000E+00 0. -1.
    9000007    1    1    2  501    0 -0.11017151614E+03  0.48883994899E+03  0.18848010781E+03  0.66830158591E+03  0.40000000000E+03 0. -1.
   -9000007    1    1    2    0  502  0.11017151614E+03 -0.48883994899E+03  0.87751180165E+03  0.10867976908E+04  0.40000000000E+03 0. -1.
<mgrwt>
<rscale>  2 0.64117257E+03</rscale>
<asrwt>0</asrwt>
<pdfrwt beam="1">  1       21 0.21700701E+00 0.64117257E+03</pdfrwt>
<pdfrwt beam="2">  1       21 0.53008260E-01 0.64117257E+03</pdfrwt>
<totfact> 0.26380873E+02</totfact>
</mgrwt>
</event>
<event>
 4    1  0.4689683E-002  0.5043153E+03  0.7818608E-02  0.1012659E+00
         21   -1    0    0  503  502  0.00000000000E+00  0.00000000000E+00  0.15439992822E+04  0.15439992822E+04  0.00000000000E+00 0.  1.
         21   -1    0    0  501  503 -0.00000000000E+00 -0.00000000000E+00 -0.42916273378E+03  0.42916273378E+03  0.00000000000E+00 0.  1.
    9000007    1    1    2  501    0 -0.30701845151E+03  0.85796582853E+01 -0.21701530610E+03  0.54902603143E+03  0.40000000000E+03 0.  1.
   -9000007    1    1    2    0  502  0.30701845151E+03 -0.85796582853E+01  0.13318518545E+04  0.14241359845E+04  0.40000000000E+03 0.  1.
<mgrwt>
<rscale>  2 0.50431532E+03</rscale>
<asrwt>0</asrwt>
<pdfrwt beam="1">  1       21 0.23753835E+00 0.50431532E+03</pdfrwt>
<pdfrwt beam="2">  1       21 0.66025036E-01 0.50431532E+03</pdfrwt>
<totfact> 0.12769545E+02</totfact>
</mgrwt>
</event>
<event>
 4    1  0.4689683E-002  0.4619397E+03  0.7818608E-02  0.1024220E+00
         21   -1    0    0  501  502  0.00000000000E+00  0.00000000000E+00  0.49356700235E+03  0.49356700235E+03  0.00000000000E+00 0.  1.
         21   -1    0    0  502  503 -0.00000000000E+00 -0.00000000000E+00 -0.11265402439E+04  0.11265402439E+04  0.00000000000E+00 0.  1.
    9000007    1    1    2  501    0 -0.13774563502E+02  0.23064813338E+03  0.31940497395E+03  0.56161182094E+03  0.40000000000E+03 0.  1.
   -9000007    1    1    2    0  503  0.13774563502E+02 -0.23064813338E+03 -0.95237821555E+03  0.10584954253E+04  0.40000000000E+03 0.  1.
<mgrwt>
<rscale>  2 0.46193971E+03</rscale>
<asrwt>0</asrwt>
<pdfrwt beam="1">  1       21 0.75933387E-01 0.46193971E+03</pdfrwt>
<pdfrwt beam="2">  1       21 0.17331388E+00 0.46193971E+03</pdfrwt>
<totfact> 0.25426319E+02</totfact>
</mgrwt>
</event>
<event>
 4    1  0.4689683E-002  0.4338073E+03  0.7818608E-02  0.1032664E+00
         21   -1    0    0  501  502  0.00000000000E+00  0.00000000000E+00  0.32785326955E+03  0.32785326955E+03  0.00000000000E+00 0.  1.
         21   -1    0    0  502  503 -0.00000000000E+00 -0.00000000000E+00 -0.57499943716E+03  0.57499943716E+03  0.00000000000E+00 0.  1.
    9000007    1    1    2  501    0 -0.39742253140E+02  0.16312374021E+03 -0.14236412682E+03  0.45657019823E+03  0.40000000000E+03 0.  1.
   -9000007    1    1    2    0  503  0.39742253140E+02 -0.16312374021E+03 -0.10478204079E+03  0.44628250848E+03  0.40000000000E+03 0.  1.
<mgrwt>
<rscale>  2 0.43380733E+03</rscale>
<asrwt>0</asrwt>
<pdfrwt beam="1">  1       21 0.50438966E-01 0.43380733E+03</pdfrwt>
<pdfrwt beam="2">  1       21 0.88461450E-01 0.43380733E+03</pdfrwt>
<totfact> 0.35930055E+03</totfact>
</mgrwt>
</event>
<event>
 4    1  0.4689683E-002  0.4041536E+03  0.7818608E-02  0.1042351E+00
         21   -1    0    0  503  502  0.00000000000E+00  0.00000000000E+00  0.15126382056E+03  0.15126382056E+03  0.00000000000E+00 0. -1.
         21   -1    0    0  501  503 -0.00000000000E+00 -0.00000000000E+00 -0.10802133622E+04  0.10802133622E+04  0.00000000000E+00 0. -1.
    9000007    1    1    2  501    0  0.49312231784E+02  0.30140875116E+02 -0.47597832386E+03  0.62441615397E+03  0.40000000000E+03 0. -1.
   -9000007    1    1    2    0  502 -0.49312231784E+02 -0.30140875116E+02 -0.45297121782E+03  0.60706102883E+03  0.40000000000E+03 0. -1.
<mgrwt>
<rscale>  2 0.40415364E+03</rscale>
<asrwt>0</asrwt>
<pdfrwt beam="1">  1       21 0.23271357E-01 0.40415364E+03</pdfrwt>
<pdfrwt beam="2">  1       21 0.16618667E+00 0.40415364E+03</pdfrwt>
<totfact> 0.34595042E+03</totfact>
</mgrwt>
</event>
<event>
 4    1  0.4689683E-002  0.5616533E+03  0.7818608E-02  0.9988321E-01
         21   -1    0    0  503  502  0.00000000000E+00  0.00000000000E+00  0.38225965031E+03  0.38225965031E+03  0.00000000000E+00 0. -1.
         21   -1    0    0  501  503 -0.00000000000E+00 -0.00000000000E+00 -0.84382219488E+03  0.84382219488E+03  0.00000000000E+00 0. -1.
    9000007    1    1    2  501    0  0.31196283451E+03 -0.24110912685E+03 -0.32176408272E+03  0.64729170093E+03  0.40000000000E+03 0. -1.
   -9000007    1    1    2    0  502 -0.31196283451E+03  0.24110912685E+03 -0.13979846185E+03  0.57879014426E+03  0.40000000000E+03 0. -1.
<mgrwt>
<rscale>  2 0.56165329E+03</rscale>
<asrwt>0</asrwt>
<pdfrwt beam="1">  1       21 0.58809177E-01 0.56165329E+03</pdfrwt>
<pdfrwt beam="2">  1       21 0.12981880E+00 0.56165329E+03</pdfrwt>
<totfact> 0.95379551E+02</totfact>
</mgrwt>
</event>
<event>
 4    1  0.4689683E-002  0.4896094E+03  0.7818608E-02  0.1016527E+00
         21   -1    0    0  501  502  0.00000000000E+00  0.00000000000E+00  0.36305173944E+03  0.36305173944E+03  0.00000000000E+00 0.  1.
         21   -1    0    0  502  503 -0.00000000000E+00 -0.00000000000E+00 -0.96017585356E+03  0.96017585356E+03  0.00000000000E+00 0. -1.
    9000007    1    1    2  501    0  0.80624745025E+02  0.27058650505E+03 -0.66831462163E+03  0.82846957681E+03  0.40000000000E+03 0. -1.
   -9000007    1    1    2    0  503 -0.80624745025E+02 -0.27058650505E+03  0.71190507512E+02  0.49475801619E+03  0.40000000000E+03 0.  1.
<mgrwt>
<rscale>  2 0.48960944E+03</rscale>
<asrwt>0</asrwt>
<pdfrwt beam="1">  1       21 0.55854114E-01 0.48960944E+03</pdfrwt>
<pdfrwt beam="2">  1       21 0.14771936E+00 0.48960944E+03</pdfrwt>
<totfact> 0.77699617E+02</totfact>
</mgrwt>
</event>
<event>
 4    1  0.4689683E-002  0.4131251E+03  0.7818608E-02  0.1039327E+00
         21   -1    0    0  503  502  0.00000000000E+00  0.00000000000E+00  0.50221528054E+03  0.50221528054E+03  0.00000000000E+00 0. -1.
         21   -1    0    0  501  503 -0.00000000000E+00 -0.00000000000E+00 -0.39435616556E+03  0.39435616556E+03  0.00000000000E+00 0. -1.
    9000007    1    1    2  501    0 -0.16563422558E+02  0.10197078918E+03 -0.11274788458E+03  0.42823413490E+03  0.40000000000E+03 0.  1.
   -9000007    1    1    2    0  502  0.16563422558E+02 -0.10197078918E+03  0.22060699955E+03  0.46833731120E+03  0.40000000000E+03 0.  1.
<mgrwt>
<rscale>  2 0.41312515E+03</rscale>
<asrwt>0</asrwt>
<pdfrwt beam="1">  1       21 0.77263889E-01 0.41312515E+03</pdfrwt>
<pdfrwt beam="2">  1       21 0.60670180E-01 0.41312515E+03</pdfrwt>
<totfact> 0.33276744E+03</totfact>
</mgrwt>
</event>
<event>
 4    1  0.4689683E-002  0.4169989E+03  0.7818608E-02  0.1038047E+00
         21   -1    0    0  501  502  0.00000000000E+00  0.00000000000E+00  0.19812347737E+04  0.19812347737E+04  0.00000000000E+00 0.  1.
         21   -1    0    0  502  503 -0.00000000000E+00 -0.00000000000E+00 -0.10122548319E+03  0.10122548319E+03  0.00000000000E+00 0. -1.
    9000007    1    1    2  501    0 -0.26477604798E+02 -0.11483490956E+03  0.13196612833E+04  0.13839776091E+04  0.40000000000E+03 0.  1.
   -9000007    1    1    2    0  503  0.26477604798E+02  0.11483490956E+03  0.56034800721E+03  0.69848264774E+03  0.40000000000E+03 0. -1.
<mgrwt>
<rscale>  2 0.41699894E+03</rscale>
<asrwt>0</asrwt>
<pdfrwt beam="1">  1       21 0.30480532E+00 0.41699894E+03</pdfrwt>
<pdfrwt beam="2">  1       21 0.15573153E-01 0.41699894E+03</pdfrwt>
<totfact> 0.96274070E+02</totfact>
</mgrwt>
</event>
<event>
 4    1  0.4689683E-002  0.4333689E+03  0.7818608E-02  0.1032801E+00
         21   -1    0    0  503  502  0.00000000000E+00  0.00000000000E+00  0.46608643182E+03  0.46608643182E+03  0.00000000000E+00 0.  1.
         21   -1    0    0  501  503 -0.00000000000E+00 -0.00000000000E+00 -0.74227025173E+03  0.74227025173E+03  0.00000000000E+00 0.  1.
    9000007    1    1    2  501    0  0.13232139712E+03  0.10148712493E+03 -0.54659025811E+03  0.69754533826E+03  0.40000000000E+03 0.  1.
   -9000007    1    1    2    0  502 -0.13232139712E+03 -0.10148712493E+03  0.27040643820E+03  0.51081134529E+03  0.40000000000E+03 0.  1.
<mgrwt>
<rscale>  2 0.43336888E+03</rscale>
<asrwt>0</asrwt>
<pdfrwt beam="1">  1       21 0.71705606E-01 0.43336888E+03</pdfrwt>
<pdfrwt beam="2">  1       21 0.11419542E+00 0.43336888E+03</pdfrwt>
<totfact> 0.89393936E+02</totfact>
</mgrwt>
</event>
<event>
 4    1  0.4689683E-002  0.4438418E+03  0.7818608E-02  0.1029575E+00
         21   -1    0    0  501  502  0.00000000000E+00  0.00000000000E+00  0.28600055885E+03  0.28600055885E+03  0.00000000000E+00 0.  1.
         21   -1    0    0  502  503 -0.00000000000E+00 -0.00000000000E+00 -0.15384802213E+04  0.15384802213E+04  0.00000000000E+00 0.  1.
    9000007    1    1    2  501    0  0.16748235447E+03 -0.94579093985E+02  0.51702198132E+02  0.44684299409E+03  0.40000000000E+03 0.  1.
   -9000007    1    1    2    0  503 -0.16748235447E+03  0.94579093985E+02 -0.13041818606E+04  0.13776377861E+04  0.40000000000E+03 0.  1.
<mgrwt>
<rscale>  2 0.44384180E+03</rscale>
<asrwt>0</asrwt>
<pdfrwt beam="1">  1       21 0.44000086E-01 0.44384180E+03</pdfrwt>
<pdfrwt beam="2">  1       21 0.23668927E+00 0.44384180E+03</pdfrwt>
<totfact> 0.32040203E+02</totfact>
</mgrwt>
</event>
<event>
 4    1  0.4689683E-002  0.4137719E+03  0.7818608E-02  0.1039113E+00
         21   -1    0    0  503  502  0.00000000000E+00  0.00000000000E+00  0.31916399468E+03  0.31916399468E+03  0.00000000000E+00 0. -1.
         21   -1    0    0  501  503 -0.00000000000E+00 -0.00000000000E+00 -0.82150581006E+03  0.82150581006E+03  0.00000000000E+00 0. -1.
    9000007    1    1    2  501    0 -0.24346888115E+02 -0.10302643459E+03 -0.58714779824E+03  0.71829642500E+03  0.40000000000E+03 0. -1.
   -9000007    1    1    2    0  502  0.24346888115E+02  0.10302643459E+03  0.84805982869E+02  0.42237337974E+03  0.40000000000E+03 0. -1.
<mgrwt>
<rscale>  2 0.41377194E+03</rscale>
<asrwt>0</asrwt>
<pdfrwt beam="1">  1       21 0.49102154E-01 0.41377194E+03</pdfrwt>
<pdfrwt beam="2">  1       21 0.12638551E+00 0.41377194E+03</pdfrwt>
<totfact> 0.15948662E+03</totfact>
</mgrwt>
</event>
<event>
 4    1  0.4689683E-002  0.5456280E+03  0.7818608E-02  0.1002511E+00
         21   -1    0    0  503  502  0.00000000000E+00  0.00000000000E+00  0.80014939931E+03  0.80014939931E+03  0.00000000000E+00 0. -1.
         21   -1    0    0  501  503 -0.00000000000E+00 -0.00000000000E+00 -0.37899516176E+03  0.37899516176E+03  0.00000000000E+00 0.  1.
    9000007    1    1    2  501    0  0.34397479986E+03  0.13925253898E+03  0.13086946793E+03  0.56110315468E+03  0.40000000000E+03 0.  1.
   -9000007    1    1    2    0  502 -0.34397479986E+03 -0.13925253898E+03  0.29028476961E+03  0.61804140639E+03  0.40000000000E+03 0.  1.
<mgrwt>
<rscale>  2 0.54562802E+03</rscale>
<asrwt>0</asrwt>
<pdfrwt beam="1">  1       21 0.12309991E+00 0.54562802E+03</pdfrwt>
<pdfrwt beam="2">  1       21 0.58306948E-01 0.54562802E+03</pdfrwt>
<totfact> 0.11215686E+03</totfact>
</mgrwt>
</event>
<event>
 4    1  0.4689683E-002  0.4168201E+03  0.7818608E-02  0.1038106E+00
         21   -1    0    0  503  502  0.00000000000E+00  0.00000000000E+00  0.41586587369E+03  0.41586587369E+03  0.00000000000E+00 0. -1.
         21   -1    0    0  501  503 -0.00000000000E+00 -0.00000000000E+00 -0.47782045531E+03  0.47782045531E+03  0.00000000000E+00 0. -1.
    9000007    1    1    2  501    0  0.43397729331E+02  0.10888365822E+03  0.12742344006E+03  0.43586207338E+03  0.40000000000E+03 0. -1.
   -9000007    1    1    2    0  502 -0.43397729331E+02 -0.10888365822E+03 -0.18937802167E+03  0.45782425562E+03  0.40000000000E+03 0. -1.
<mgrwt>
<rscale>  2 0.41682012E+03</rscale>
<asrwt>0</asrwt>
<pdfrwt beam="1">  1       21 0.63979365E-01 0.41682012E+03</pdfrwt>
<pdfrwt beam="2">  1       21 0.73510839E-01 0.41682012E+03</pdfrwt>
<totfact> 0.33115642E+03</totfact>
</mgrwt>
</event>
<event>
 4    1  0.4689683E-002  0.4284939E+03  0.7818608E-02  0.1034337E+00
         21   -1    0    0  503  502  0.00000000000E+00  0.00000000000E+00  0.31604087940E+03  0.31604087940E+03  0.00000000000E+00 0.  1.
         21   -1    0    0  501  503 -0.00000000000E+00 -0.00000000000E+00 -0.58692245912E+03  0.58692245912E+03  0.00000000000E+00 0.  1.
    9000007    1    1    2  501    0  0.93947077936E+01 -0.15335815144E+03 -0.89933916116E+02  0.43782998118E+03  0.40000000000E+03 0.  1.
   -9000007    1    1    2    0  502 -0.93947077936E+01  0.15335815144E+03 -0.18094766361E+03  0.46513335734E+03  0.40000000000E+03 0.  1.
<mgrwt>
<rscale>  2 0.42849385E+03</rscale>
<asrwt>0</asrwt>
<pdfrwt beam="1">  1       21 0.48621674E-01 0.42849385E+03</pdfrwt>
<pdfrwt beam="2">  1       21 0.90295762E-01 0.42849385E+03</pdfrwt>
<totfact> 0.37072573E+03</totfact>
</mgrwt>
</event>
<event>
 4    1  0.4689683E-002  0.4184914E+03  0.7818608E-02  0.1037558E+00
         21   -1    0    0  503  502  0.00000000000E+00  0.00000000000E+00  0.55088966774E+03  0.55088966774E+03  0.00000000000E+00 0.  1.
         21   -1    0    0  501  503 -0.00000000000E+00 -0.00000000000E+00 -0.53450431051E+03  0.53450431051E+03  0.00000000000E+00 0.  1.
    9000007    1    1    2  501    0 -0.47788544980E+02 -0.11336355098E+03 -0.33727086589E+03  0.53748179197E+03  0.40000000000E+03 0.  1.
   -9000007    1    1    2    0  502  0.47788544980E+02  0.11336355098E+03  0.35365622312E+03  0.54791218628E+03  0.40000000000E+03 0.  1.
<mgrwt>
<rscale>  2 0.41849139E+03</rscale>
<asrwt>0</asrwt>
<pdfrwt beam="1">  1       21 0.84752257E-01 0.41849139E+03</pdfrwt>
<pdfrwt beam="2">  1       21 0.82231432E-01 0.41849139E+03</pdfrwt>
<totfact> 0.13515559E+03</totfact>
</mgrwt>
</event>
<event>
 4    1  0.4689683E-002  0.4463075E+03  0.7818608E-02  0.1028829E+00
         21   -1    0    0  503  502  0.00000000000E+00  0.00000000000E+00  0.73433273505E+03  0.73433273505E+03  0.00000000000E+00 0. -1.
         21   -1    0    0  501  503 -0.00000000000E+00 -0.00000000000E+00 -0.37632654332E+03  0.37632654332E+03  0.00000000000E+00 0. -1.
    9000007    1    1    2  501    0 -0.39831566043E+02  0.19391699629E+03 -0.11443331184E+03  0.46074433037E+03  0.40000000000E+03 0. -1.
   -9000007    1    1    2    0  502  0.39831566043E+02 -0.19391699629E+03  0.47243950357E+03  0.64991494800E+03  0.40000000000E+03 0. -1.
<mgrwt>
<rscale>  2 0.44630747E+03</rscale>
<asrwt>0</asrwt>
<pdfrwt beam="1">  1       21 0.11297427E+00 0.44630747E+03</pdfrwt>
<pdfrwt beam="2">  1       21 0.57896391E-01 0.44630747E+03</pdfrwt>
<totfact> 0.14678258E+03</totfact>
</mgrwt>
</event>
<event>
 4    1  0.4689683E-002  0.4699735E+03  0.7818608E-02  0.1021928E+00
         21   -1    0    0  501  502  0.00000000000E+00  0.00000000000E+00  0.11757685356E+04  0.11757685356E+04  0.00000000000E+00 0.  1.
         21   -1    0    0  502  503 -0.00000000000E+00 -0.00000000000E+00 -0.34464934765E+03  0.34464934765E+03  0.00000000000E+00 0. -1.
    9000007    1    1    2  501    0 -0.12344361270E+03 -0.21362768533E+03  0.92831250041E+03  0.10404995011E+04  0.40000000000E+03 0.  1.
   -9000007    1    1    2    0  503  0.12344361270E+03  0.21362768533E+03 -0.97193312500E+02  0.47991838207E+03  0.40000000000E+03 0. -1.
<mgrwt>
<rscale>  2 0.46997352E+03</rscale>
<asrwt>0</asrwt>
<pdfrwt beam="1">  1       21 0.18088746E+00 0.46997352E+03</pdfrwt>
<pdfrwt beam="2">  1       21 0.53022977E-01 0.46997352E+03</pdfrwt>
<totfact> 0.49567202E+02</totfact>
</mgrwt>
</event>
<event>
 4    1  0.4689683E-002  0.4100719E+03  0.7818608E-02  0.1040347E+00
         21   -1    0    0  501  502  0.00000000000E+00  0.00000000000E+00  0.57045811649E+03  0.57045811649E+03  0.00000000000E+00 0. -1.
         21   -1    0    0  502  503 -0.00000000000E+00 -0.00000000000E+00 -0.53144780867E+03  0.53144780867E+03  0.00000000000E+00 0.  1.
    9000007    1    1    2  501    0  0.23433751606E+02 -0.87234239010E+02  0.38717237924E+03  0.56396932932E+03  0.40000000000E+03 0. -1.
   -9000007    1    1    2    0  503 -0.23433751606E+02  0.87234239010E+02 -0.34816207141E+03  0.53793659584E+03  0.40000000000E+03 0.  1.
<mgrwt>
<rscale>  2 0.41007189E+03</rscale>
<asrwt>0</asrwt>
<pdfrwt beam="1">  1       21 0.87762787E-01 0.41007189E+03</pdfrwt>
<pdfrwt beam="2">  1       21 0.81761201E-01 0.41007189E+03</pdfrwt>
<totfact> 0.12666859E+03</totfact>
</mgrwt>
</event>
<event>
 4    1  0.4689683E-002  0.4002897E+03  0.7818608E-02  0.1043679E+00
         21   -1    0    0  503  502  0.00000000000E+00  0.00000000000E+00  0.89589956970E+03  0.89589956970E+03  0.00000000000E+00 0. -1.
         21   -1    0    0  501  503 -0.00000000000E+00 -0.00000000000E+00 -0.35414525524E+03  0.35414525524E+03  0.00000000000E+00 0. -1.
    9000007    1    1    2  501    0  0.10686273743E+02  0.10847309360E+02 -0.16885644137E+03  0.43444718708E+03  0.40000000000E+03 0. -1.
   -9000007    1    1    2    0  502 -0.10686273743E+02 -0.10847309360E+02  0.71061075584E+03  0.81559763786E+03  0.40000000000E+03 0. -1.
<mgrwt>
<rscale>  2 0.40028972E+03</rscale>
<asrwt>0</asrwt>
<pdfrwt beam="1">  1       21 0.13783070E+00 0.40028972E+03</pdfrwt>
<pdfrwt beam="2">  1       21 0.54483886E-01 0.40028972E+03</pdfrwt>
<totfact> 0.10262493E+03</totfact>
</mgrwt>
</event>
<event>
 4    1  0.4689683E-002  0.4228101E+03  0.7818608E-02  0.1036156E+00
         21   -1    0    0  501  502  0.00000000000E+00  0.00000000000E+00  0.19664773963E+04  0.19664773963E+04  0.00000000000E+00 0. -1.
         21   -1    0    0  502  503 -0.00000000000E+00 -0.00000000000E+00 -0.12027001257E+03  0.12027001257E+03  0.00000000000E+00 0. -1.
    9000007    1    1    2  501    0  0.11602714929E+03 -0.72843107768E+02  0.14386343894E+04  0.14994790176E+04  0.40000000000E+03 0. -1.
   -9000007    1    1    2    0  503 -0.11602714929E+03  0.72843107768E+02  0.40757299430E+03  0.58726839129E+03  0.40000000000E+03 0. -1.
<mgrwt>
<rscale>  2 0.42281014E+03</rscale>
<asrwt>0</asrwt>
<pdfrwt beam="1">  1       21 0.30253496E+00 0.42281014E+03</pdfrwt>
<pdfrwt beam="2">  1       21 0.18503080E-01 0.42281014E+03</pdfrwt>
<totfact> 0.71701091E+02</totfact>
</mgrwt>
</event>
<event>
 4    1  0.4689683E-002  0.4223236E+03  0.7818608E-02  0.1036313E+00
         21   -1    0    0  503  502  0.00000000000E+00  0.00000000000E+00  0.13833096782E+03  0.13833096782E+03  0.00000000000E+00 0. -1.
         21   -1    0    0  501  503 -0.00000000000E+00 -0.00000000000E+00 -0.17543755548E+04  0.17543755548E+04  0.00000000000E+00 0. -1.
    9000007    1    1    2  501    0  0.78780114897E+01  0.13525967272E+03 -0.12952474508E+04  0.13623594243E+04  0.40000000000E+03 0. -1.
   -9000007    1    1    2    0  502 -0.78780114897E+01 -0.13525967272E+03 -0.32079713618E+03  0.53034709833E+03  0.40000000000E+03 0. -1.
<mgrwt>
<rscale>  2 0.42232362E+03</rscale>
<asrwt>0</asrwt>
<pdfrwt beam="1">  1       21 0.21281687E-01 0.42232362E+03</pdfrwt>
<pdfrwt beam="2">  1       21 0.26990394E+00 0.42232362E+03</pdfrwt>
<totfact> 0.86336837E+02</totfact>
</mgrwt>
</event>
<event>
 4    1  0.4689683E-002  0.4529039E+03  0.7818608E-02  0.1026860E+00
         21   -1    0    0  501  502  0.00000000000E+00  0.00000000000E+00  0.88751969185E+03  0.88751969185E+03  0.00000000000E+00 0. -1.
         21   -1    0    0  502  503 -0.00000000000E+00 -0.00000000000E+00 -0.32632501259E+03  0.32632501259E+03  0.00000000000E+00 0.  1.
    9000007    1    1    2  501    0  0.12098020097E+03 -0.17460162485E+03  0.60842229272E+03  0.75848508403E+03  0.40000000000E+03 0. -1.
   -9000007    1    1    2    0  503 -0.12098020097E+03  0.17460162485E+03 -0.47227613453E+02  0.45535962041E+03  0.40000000000E+03 0.  1.
<mgrwt>
<rscale>  2 0.45290389E+03</rscale>
<asrwt>0</asrwt>
<pdfrwt beam="1">  1       21 0.13654149E+00 0.45290389E+03</pdfrwt>
<pdfrwt beam="2">  1       21 0.50203849E-01 0.45290389E+03</pdfrwt>
<totfact> 0.12243996E+03</totfact>
</mgrwt>
</event>
<event>
 4    1  0.4689683E-002  0.5013033E+03  0.7818608E-02  0.1013439E+00
         21   -1    0    0  503  502  0.00000000000E+00  0.00000000000E+00  0.83519327067E+03  0.83519327067E+03  0.00000000000E+00 0.  1.
         21   -1    0    0  501  503 -0.00000000000E+00 -0.00000000000E+00 -0.38372517775E+03  0.38372517775E+03  0.00000000000E+00 0.  1.
    9000007    1    1    2  501    0 -0.24055273465E+03  0.18286436732E+03 -0.57424922987E+02  0.50458162547E+03  0.40000000000E+03 0.  1.
   -9000007    1    1    2    0  502  0.24055273465E+03 -0.18286436732E+03  0.50889301590E+03  0.71433682295E+03  0.40000000000E+03 0.  1.
<mgrwt>
<rscale>  2 0.50130330E+03</rscale>
<asrwt>0</asrwt>
<pdfrwt beam="1">  1       21 0.12849127E+00 0.50130330E+03</pdfrwt>
<pdfrwt beam="2">  1       21 0.59034643E-01 0.50130330E+03</pdfrwt>
<totfact> 0.99227690E+02</totfact>
</mgrwt>
</event>
<event>
 4    1  0.4689683E-002  0.4559192E+03  0.7818608E-02  0.1025971E+00
         21   -1    0    0  501  502  0.00000000000E+00  0.00000000000E+00  0.39787497145E+03  0.39787497145E+03  0.00000000000E+00 0.  1.
         21   -1    0    0  502  503 -0.00000000000E+00 -0.00000000000E+00 -0.75383717179E+03  0.75383717179E+03  0.00000000000E+00 0.  1.
    9000007    1    1    2  501    0  0.63936462868E+02 -0.20922334226E+03  0.14107165959E+03  0.47724573478E+03  0.40000000000E+03 0.  1.
   -9000007    1    1    2    0  503 -0.63936462868E+02  0.20922334226E+03 -0.49703385993E+03  0.67446640846E+03  0.40000000000E+03 0.  1.
<mgrwt>
<rscale>  2 0.45591916E+03</rscale>
<asrwt>0</asrwt>
<pdfrwt beam="1">  1       21 0.61211535E-01 0.45591916E+03</pdfrwt>
<pdfrwt beam="2">  1       21 0.11597495E+00 0.45591916E+03</pdfrwt>
<totfact> 0.12123151E+03</totfact>
</mgrwt>
</event>
<event>
 4    1  0.4689683E-002  0.4191481E+03  0.7818608E-02  0.1037344E+00
         21   -1    0    0  501  502  0.00000000000E+00  0.00000000000E+00  0.13992909191E+03  0.13992909191E+03  0.00000000000E+00 0. -1.
         21   -1    0    0  502  503 -0.00000000000E+00 -0.00000000000E+00 -0.14604331383E+04  0.14604331383E+04  0.00000000000E+00 0. -1.
    9000007    1    1    2  501    0 -0.90364736263E+02 -0.86714201072E+02 -0.36052767481E+03  0.55287009553E+03  0.40000000000E+03 0.  1.
   -9000007    1    1    2    0  503  0.90364736263E+02  0.86714201072E+02 -0.95997637162E+03  0.10474921347E+04  0.40000000000E+03 0.  1.
<mgrwt>
<rscale>  2 0.41914811E+03</rscale>
<asrwt>0</asrwt>
<pdfrwt beam="1">  1       21 0.21527553E-01 0.41914811E+03</pdfrwt>
<pdfrwt beam="2">  1       21 0.22468202E+00 0.41914811E+03</pdfrwt>
<totfact> 0.16054769E+03</totfact>
</mgrwt>
</event>
<event>
 4    1  0.4689683E-002  0.6961317E+03  0.7818608E-02  0.9723871E-01
         21   -1    0    0  501  502  0.00000000000E+00  0.00000000000E+00  0.52261711726E+03  0.52261711726E+03  0.00000000000E+00 0. -1.
         21   -1    0    0  502  503 -0.00000000000E+00 -0.00000000000E+00 -0.92858000369E+03  0.92858000369E+03  0.00000000000E+00 0.  1.
    9000007    1    1    2  501    0 -0.41968148011E+03 -0.38531384306E+03 -0.23039122244E+03  0.73326626663E+03  0.40000000000E+03 0.  1.
   -9000007    1    1    2    0  503  0.41968148011E+03  0.38531384306E+03 -0.17557166399E+03  0.71793085433E+03  0.40000000000E+03 0. -1.
<mgrwt>
<rscale>  2 0.69613167E+03</rscale>
<asrwt>0</asrwt>
<pdfrwt beam="1">  1       21 0.80402633E-01 0.69613167E+03</pdfrwt>
<pdfrwt beam="2">  1       21 0.14285846E+00 0.69613167E+03</pdfrwt>
<totfact> 0.34929699E+02</totfact>
</mgrwt>
</event>
<event>
 4    1  0.4689683E-002  0.4010282E+03  0.7818608E-02  0.1043424E+00
         21   -1    0    0  501  502  0.00000000000E+00  0.00000000000E+00  0.58689387076E+03  0.58689387076E+03  0.00000000000E+00 0.  1.
         21   -1    0    0  502  503 -0.00000000000E+00 -0.00000000000E+00 -0.70425551220E+03  0.70425551220E+03  0.00000000000E+00 0.  1.
    9000007    1    1    2  501    0  0.28410932416E+02 -0.40519158839E+01  0.44590142741E+03  0.59970966482E+03  0.40000000000E+03 0.  1.
   -9000007    1    1    2    0  503 -0.28410932416E+02  0.40519158839E+01 -0.56326306886E+03  0.69143971815E+03  0.40000000000E+03 0.  1.
<mgrwt>
<rscale>  2 0.40102818E+03</rscale>
<asrwt>0</asrwt>
<pdfrwt beam="1">  1       21 0.90291365E-01 0.40102818E+03</pdfrwt>
<pdfrwt beam="2">  1       21 0.10834700E+00 0.40102818E+03</pdfrwt>
<totfact> 0.60718818E+02</totfact>
</mgrwt>
</event>
<event>
 4    1  0.4689683E-002  0.4424695E+03  0.7818608E-02  0.1029992E+00
         21   -1    0    0  503  502  0.00000000000E+00  0.00000000000E+00  0.15230277508E+04  0.15230277508E+04  0.00000000000E+00 0.  1.
         21   -1    0    0  501  503 -0.00000000000E+00 -0.00000000000E+00 -0.22225203875E+03  0.22225203875E+03  0.00000000000E+00 0.  1.
    9000007    1    1    2  501    0  0.61872988849E+02 -0.17874848371E+03  0.83762858188E+02  0.45032821762E+03  0.40000000000E+03 0.  1.
   -9000007    1    1    2    0  502 -0.61872988849E+02  0.17874848371E+03  0.12170128538E+04  0.12949515719E+04  0.40000000000E+03 0.  1.
<mgrwt>
<rscale>  2 0.44246953E+03</rscale>
<asrwt>0</asrwt>
<pdfrwt beam="1">  1       21 0.23431196E+00 0.44246953E+03</pdfrwt>
<pdfrwt beam="2">  1       21 0.34192622E-01 0.44246953E+03</pdfrwt>
<totfact> 0.55654101E+02</totfact>
</mgrwt>
</event>
<event>
 4    1  0.4689683E-002  0.4054441E+03  0.7818608E-02  0.1041911E+00
         21   -1    0    0  503  502  0.00000000000E+00  0.00000000000E+00  0.89148204274E+03  0.89148204274E+03  0.00000000000E+00 0. -1.
         21   -1    0    0  501  503 -0.00000000000E+00 -0.00000000000E+00 -0.32887990173E+03  0.32887990173E+03  0.00000000000E+00 0. -1.
    9000007    1    1    2  501    0  0.27058423377E+02  0.60437807120E+02 -0.12313616523E+03  0.42373034113E+03  0.40000000000E+03 0. -1.
   -9000007    1    1    2    0  502 -0.27058423377E+02 -0.60437807120E+02  0.68573830624E+03  0.79663160334E+03  0.40000000000E+03 0. -1.
<mgrwt>
<rscale>  2 0.40544406E+03</rscale>
<asrwt>0</asrwt>
<pdfrwt beam="1">  1       21 0.13715108E+00 0.40544406E+03</pdfrwt>
<pdfrwt beam="2">  1       21 0.50596908E-01 0.40544406E+03</pdfrwt>
<totfact> 0.12149762E+03</totfact>
</mgrwt>
</event>
<event>
 4    1  0.4689683E-002  0.8284528E+03  0.7818608E-02  0.9519722E-01
         21   -1    0    0  503  502  0.00000000000E+00  0.00000000000E+00  0.50851618622E+03  0.50851618622E+03  0.00000000000E+00 0. -1.
         21   -1    0    0  501  503 -0.00000000000E+00 -0.00000000000E+00 -0.13614861754E+04  0.13614861754E+04  0.00000000000E+00 0. -1.
    9000007    1    1    2  501    0 -0.42605891024E+03 -0.58720336734E+03 -0.51355430382E+03  0.97471637546E+03  0.40000000000E+03 0. -1.
   -9000007    1    1    2    0  502  0.42605891024E+03  0.58720336734E+03 -0.33941568541E+03  0.89528598622E+03  0.40000000000E+03 0. -1.
<mgrwt>
<rscale>  2 0.82845277E+03</rscale>
<asrwt>0</asrwt>
<pdfrwt beam="1">  1       21 0.78233259E-01 0.82845277E+03</pdfrwt>
<pdfrwt beam="2">  1       21 0.20945941E+00 0.82845277E+03</pdfrwt>
<totfact> 0.11629806E+02</totfact>
</mgrwt>
</event>
<event>
 4    1  0.4689683E-002  0.4657079E+03  0.7818608E-02  0.1023139E+00
         21   -1    0    0  501  502  0.00000000000E+00  0.00000000000E+00  0.76419200332E+02  0.76419200332E+02  0.00000000000E+00 0. -1.
         21   -1    0    0  502  503 -0.00000000000E+00 -0.00000000000E+00 -0.33371995024E+04  0.33371995024E+04  0.00000000000E+00 0.  1.
    9000007    1    1    2  501    0  0.23850251892E+03  0.63447099820E+00 -0.97031115481E+03  0.10762841591E+04  0.40000000000E+03 0. -1.
   -9000007    1    1    2    0  503 -0.23850251892E+03 -0.63447099820E+00 -0.22904691473E+04  0.23373345436E+04  0.40000000000E+03 0. -1.
<mgrwt>
<rscale>  2 0.46570791E+03</rscale>
<asrwt>0</asrwt>
<pdfrwt beam="1">  1       21 0.11756800E-01 0.46570791E+03</pdfrwt>
<pdfrwt beam="2">  1       21 0.51341530E+00 0.46570791E+03</pdfrwt>
<totfact> 0.68304964E+01</totfact>
</mgrwt>
</event>
<event>
 4    1  0.4689683E-002  0.5193710E+03  0.7818608E-02  0.1008843E+00
         21   -1    0    0  503  502  0.00000000000E+00  0.00000000000E+00  0.46070074043E+03  0.46070074043E+03  0.00000000000E+00 0. -1.
         21   -1    0    0  501  503 -0.00000000000E+00 -0.00000000000E+00 -0.71416905998E+03  0.71416905998E+03  0.00000000000E+00 0.  1.
    9000007    1    1    2  501    0 -0.27622101459E+03 -0.18288858503E+03  0.12259571177E+03  0.53364406863E+03  0.40000000000E+03 0. -1.
   -9000007    1    1    2    0  502  0.27622101459E+03  0.18288858503E+03 -0.37606403132E+03  0.64122573177E+03  0.40000000000E+03 0.  1.
<mgrwt>
<rscale>  2 0.51937105E+03</rscale>
<asrwt>0</asrwt>
<pdfrwt beam="1">  1       21 0.70877037E-01 0.51937105E+03</pdfrwt>
<pdfrwt beam="2">  1       21 0.10987216E+00 0.51937105E+03</pdfrwt>
<totfact> 0.97666873E+02</totfact>
</mgrwt>
</event>
<event>
 4    1  0.4689683E-002  0.4175393E+03  0.7818608E-02  0.1037870E+00
         21   -1    0    0  503  502  0.00000000000E+00  0.00000000000E+00  0.18170636987E+04  0.18170636987E+04  0.00000000000E+00 0. -1.
         21   -1    0    0  501  503 -0.00000000000E+00 -0.00000000000E+00 -0.10905810769E+03  0.10905810769E+03  0.00000000000E+00 0. -1.
    9000007    1    1    2  501    0  0.11364201548E+03 -0.37743475412E+02  0.52006207817E+03  0.66693601100E+03  0.40000000000E+03 0. -1.
   -9000007    1    1    2    0  502 -0.11364201548E+03  0.37743475412E+02  0.11879435129E+04  0.12591857954E+04  0.40000000000E+03 0. -1.
<mgrwt>
<rscale>  2 0.41753931E+03</rscale>
<asrwt>0</asrwt>
<pdfrwt beam="1">  1       21 0.27954824E+00 0.41753931E+03</pdfrwt>
<pdfrwt beam="2">  1       21 0.16778172E-01 0.41753931E+03</pdfrwt>
<totfact> 0.11870847E+03</totfact>
</mgrwt>
</event>
<event>
 4    1  0.4689683E-002  0.4064100E+03  0.7818608E-02  0.1041582E+00
         21   -1    0    0  501  502  0.00000000000E+00  0.00000000000E+00  0.34356566762E+03  0.34356566762E+03  0.00000000000E+00 0.  1.
         21   -1    0    0  502  503 -0.00000000000E+00 -0.00000000000E+00 -0.66479479673E+03  0.66479479673E+03  0.00000000000E+00 0.  1.
    9000007    1    1    2  501    0  0.71891973989E+02 -0.77486272277E+00  0.10466528047E+03  0.41967115373E+03  0.40000000000E+03 0.  1.
   -9000007    1    1    2    0  503 -0.71891973989E+02  0.77486272277E+00 -0.42589440958E+03  0.58868931063E+03  0.40000000000E+03 0.  1.
<mgrwt>
<rscale>  2 0.40640996E+03</rscale>
<asrwt>0</asrwt>
<pdfrwt beam="1">  1       21 0.52856257E-01 0.40640996E+03</pdfrwt>
<pdfrwt beam="2">  1       21 0.10227612E+00 0.40640996E+03</pdfrwt>
<totfact> 0.23210059E+03</totfact>
</mgrwt>
</event>
<event>
 4    1  0.4689683E-002  0.4159756E+03  0.7818608E-02  0.1038384E+00
         21   -1    0    0  503  502  0.00000000000E+00  0.00000000000E+00  0.24495157404E+03  0.24495157404E+03  0.00000000000E+00 0. -1.
         21   -1    0    0  501  503 -0.00000000000E+00 -0.00000000000E+00 -0.70859105573E+03  0.70859105573E+03  0.00000000000E+00 0.  1.
    9000007    1    1    2  501    0 -0.10456265439E+03 -0.45851134914E+02 -0.25828496982E+03  0.48963946011E+03  0.40000000000E+03 0. -1.
   -9000007    1    1    2    0  502  0.10456265439E+03  0.45851134914E+02 -0.20535451188E+03  0.46390316965E+03  0.40000000000E+03 0. -1.
<mgrwt>
<rscale>  2 0.41597557E+03</rscale>
<asrwt>0</asrwt>
<pdfrwt beam="1">  1       21 0.37684858E-01 0.41597557E+03</pdfrwt>
<pdfrwt beam="2">  1       21 0.10901401E+00 0.41597557E+03</pdfrwt>
<totfact> 0.40073848E+03</totfact>
</mgrwt>
</event>
<event>
 4    1  0.4689683E-002  0.4659649E+03  0.7818608E-02  0.1023065E+00
         21   -1    0    0  503  502  0.00000000000E+00  0.00000000000E+00  0.29978138146E+03  0.29978138146E+03  0.00000000000E+00 0.  1.
         21   -1    0    0  501  503 -0.00000000000E+00 -0.00000000000E+00 -0.78032424668E+03  0.78032424668E+03  0.00000000000E+00 0.  1.
    9000007    1    1    2  501    0 -0.55233693847E+02  0.23253500986E+03 -0.38501350744E+03  0.60444908194E+03  0.40000000000E+03 0.  1.
   -9000007    1    1    2    0  502  0.55233693847E+02 -0.23253500986E+03 -0.95529357781E+02  0.47565654620E+03  0.40000000000E+03 0.  1.
<mgrwt>
<rscale>  2 0.46596490E+03</rscale>
<asrwt>0</asrwt>
<pdfrwt beam="1">  1       21 0.46120213E-01 0.46596490E+03</pdfrwt>
<pdfrwt beam="2">  1       21 0.12004988E+00 0.46596490E+03</pdfrwt>
<totfact> 0.20338896E+03</totfact>
</mgrwt>
</event>
<event>
 4    1  0.4689683E-002  0.1170887E+04  0.7818608E-02  0.9138728E-01
         21   -1    0    0  501  502  0.00000000000E+00  0.00000000000E+00  0.67887834444E+03  0.67887834444E+03  0.00000000000E+00 0.  1.
         21   -1    0    0  502  503 -0.00000000000E+00 -0.00000000000E+00 -0.20221838431E+04  0.20221838431E+04  0.00000000000E+00 0. -1.
    9000007    1    1    2  501    0 -0.53437913319E+03 -0.96198466691E+03 -0.62219252195E+03  0.13259332908E+04  0.40000000000E+03 0.  1.
   -9000007    1    1    2    0  503  0.53437913319E+03  0.96198466691E+03 -0.72111297667E+03  0.13751288967E+04  0.40000000000E+03 0. -1.
<mgrwt>
<rscale>  2 0.11708867E+04</rscale>
<asrwt>0</asrwt>
<pdfrwt beam="1">  1       21 0.10444283E+00 0.11708867E+04</pdfrwt>
<pdfrwt beam="2">  1       21 0.31110520E+00 0.11708867E+04</pdfrwt>
<totfact> 0.11884656E+01</totfact>
</mgrwt>
</event>
<event>
 4    1  0.4689683E-002  0.5825340E+03  0.7818608E-02  0.9942320E-01
         21   -1    0    0  501  502  0.00000000000E+00  0.00000000000E+00  0.81879962256E+03  0.81879962256E+03  0.00000000000E+00 0.  1.
         21   -1    0    0  502  503 -0.00000000000E+00 -0.00000000000E+00 -0.42131332820E+03  0.42131332820E+03  0.00000000000E+00 0.  1.
    9000007    1    1    2  501    0  0.23799541398E+02 -0.42282317077E+03  0.27792292965E+03  0.64543551710E+03  0.40000000000E+03 0.  1.
   -9000007    1    1    2    0  503 -0.23799541398E+02  0.42282317077E+03  0.11956336471E+03  0.59467743365E+03  0.40000000000E+03 0.  1.
<mgrwt>
<rscale>  2 0.58253399E+03</rscale>
<asrwt>0</asrwt>
<pdfrwt beam="1">  1       21 0.12596917E+00 0.58253399E+03</pdfrwt>
<pdfrwt beam="2">  1       21 0.64817435E-01 0.58253399E+03</pdfrwt>
<totfact> 0.82592268E+02</totfact>
</mgrwt>
</event>
<event>
 4    1  0.4689683E-002  0.5080693E+03  0.7818608E-02  0.1011694E+00
         21   -1    0    0  503  502  0.00000000000E+00  0.00000000000E+00  0.74921525135E+03  0.74921525135E+03  0.00000000000E+00 0.  1.
         21   -1    0    0  501  503 -0.00000000000E+00 -0.00000000000E+00 -0.36490593895E+03  0.36490593895E+03  0.00000000000E+00 0.  1.
    9000007    1    1    2  501    0  0.31228818440E+03 -0.24708030253E+02  0.60551166520E+02  0.51166477370E+03  0.40000000000E+03 0.  1.
   -9000007    1    1    2    0  502 -0.31228818440E+03  0.24708030253E+02  0.32375814588E+03  0.60245641660E+03  0.40000000000E+03 0.  1.
<mgrwt>
<rscale>  2 0.50806928E+03</rscale>
<asrwt>0</asrwt>
<pdfrwt beam="1">  1       21 0.11526388E+00 0.50806928E+03</pdfrwt>
<pdfrwt beam="2">  1       21 0.56139375E-01 0.50806928E+03</pdfrwt>
<totfact> 0.14586562E+03</totfact>
</mgrwt>
</event>
<event>
 4    1  0.4689683E-002  0.5748639E+03  0.7818608E-02  0.9958973E-01
         21   -1    0    0  501  502  0.00000000000E+00  0.00000000000E+00  0.80906402923E+03  0.80906402923E+03  0.00000000000E+00 0.  1.
         21   -1    0    0  502  503 -0.00000000000E+00 -0.00000000000E+00 -0.42527099005E+03  0.42527099005E+03  0.00000000000E+00 0. -1.
    9000007    1    1    2  501    0  0.12695776317E+03 -0.39287430557E+03  0.31461092668E+03  0.65532322467E+03  0.40000000000E+03 0.  1.
   -9000007    1    1    2    0  503 -0.12695776317E+03  0.39287430557E+03  0.69182112497E+02  0.57901179461E+03  0.40000000000E+03 0. -1.
<mgrwt>
<rscale>  2 0.57486389E+03</rscale>
<asrwt>0</asrwt>
<pdfrwt beam="1">  1       21 0.12447139E+00 0.57486389E+03</pdfrwt>
<pdfrwt beam="2">  1       21 0.65426306E-01 0.57486389E+03</pdfrwt>
<totfact> 0.83641749E+02</totfact>
</mgrwt>
</event>
<event>
 4    1  0.4689683E-002  0.4476762E+03  0.7818608E-02  0.1028417E+00
         21   -1    0    0  501  502  0.00000000000E+00  0.00000000000E+00  0.36010599852E+03  0.36010599852E+03  0.00000000000E+00 0. -1.
         21   -1    0    0  502  503 -0.00000000000E+00 -0.00000000000E+00 -0.55859109944E+03  0.55859109944E+03  0.00000000000E+00 0. -1.
    9000007    1    1    2  501    0  0.13198301607E+03 -0.15163912104E+03 -0.12706707707E+03  0.46536005591E+03  0.40000000000E+03 0. -1.
   -9000007    1    1    2    0  503 -0.13198301607E+03  0.15163912104E+03 -0.71418023856E+02  0.45333704205E+03  0.40000000000E+03 0. -1.
<mgrwt>
<rscale>  2 0.44767615E+03</rscale>
<asrwt>0</asrwt>
<pdfrwt beam="1">  1       21 0.55400923E-01 0.44767615E+03</pdfrwt>
<pdfrwt beam="2">  1       21 0.85937092E-01 0.44767615E+03</pdfrwt>
<totfact> 0.31295762E+03</totfact>
</mgrwt>
</event>
<event>
 4    1  0.4689683E-002  0.4289127E+03  0.7818608E-02  0.1034204E+00
         21   -1    0    0  501  502  0.00000000000E+00  0.00000000000E+00  0.17997717477E+04  0.17997717477E+04  0.00000000000E+00 0. -1.
         21   -1    0    0  502  503 -0.00000000000E+00 -0.00000000000E+00 -0.10251122533E+03  0.10251122533E+03  0.00000000000E+00 0. -1.
    9000007    1    1    2  501    0  0.94377008106E+02 -0.12271560347E+03  0.79761945128E+03  0.90562847131E+03  0.40000000000E+03 0. -1.
   -9000007    1    1    2    0  503 -0.94377008106E+02  0.12271560347E+03  0.89964107105E+03  0.99665450168E+03  0.40000000000E+03 0. -1.
<mgrwt>
<rscale>  2 0.42891274E+03</rscale>
<asrwt>0</asrwt>
<pdfrwt beam="1">  1       21 0.27688794E+00 0.42891274E+03</pdfrwt>
<pdfrwt beam="2">  1       21 0.15770959E-01 0.42891274E+03</pdfrwt>
<totfact> 0.13739687E+03</totfact>
</mgrwt>
</event>
<event>
 4    1  0.4689683E-002  0.4202993E+03  0.7818608E-02  0.1036969E+00
         21   -1    0    0  503  502  0.00000000000E+00  0.00000000000E+00  0.45455352463E+03  0.45455352463E+03  0.00000000000E+00 0. -1.
         21   -1    0    0  501  503 -0.00000000000E+00 -0.00000000000E+00 -0.49232650634E+03  0.49232650634E+03  0.00000000000E+00 0. -1.
    9000007    1    1    2  501    0 -0.17204379863E+02 -0.12788864106E+03 -0.23617060475E+03  0.48210792334E+03  0.40000000000E+03 0. -1.
   -9000007    1    1    2    0  502  0.17204379863E+02  0.12788864106E+03  0.19839762304E+03  0.46477210762E+03  0.40000000000E+03 0. -1.
<mgrwt>
<rscale>  2 0.42029929E+03</rscale>
<asrwt>0</asrwt>
<pdfrwt beam="1">  1       21 0.69931312E-01 0.42029929E+03</pdfrwt>
<pdfrwt beam="2">  1       21 0.75742539E-01 0.42029929E+03</pdfrwt>
<totfact> 0.25337413E+03</totfact>
</mgrwt>
</event>
<event>
 4    1  0.4689683E-002  0.4458693E+03  0.7818608E-02  0.1028961E+00
         21   -1    0    0  501  502  0.00000000000E+00  0.00000000000E+00  0.23772596379E+03  0.23772596379E+03  0.00000000000E+00 0.  1.
         21   -1    0    0  502  503 -0.00000000000E+00 -0.00000000000E+00 -0.90800826723E+03  0.90800826723E+03  0.00000000000E+00 0.  1.
    9000007    1    1    2  501    0  0.14473741883E+03 -0.13360566167E+03 -0.17410198289E+03  0.47865529735E+03  0.40000000000E+03 0.  1.
   -9000007    1    1    2    0  503 -0.14473741883E+03  0.13360566167E+03 -0.49618032056E+03  0.66707893367E+03  0.40000000000E+03 0.  1.
<mgrwt>
<rscale>  2 0.44586926E+03</rscale>
<asrwt>0</asrwt>
<pdfrwt beam="1">  1       21 0.36573225E-01 0.44586926E+03</pdfrwt>
<pdfrwt beam="2">  1       21 0.13969358E+00 0.44586926E+03</pdfrwt>
<totfact> 0.22341396E+03</totfact>
</mgrwt>
</event>
<event>
 4    1  0.4689683E-002  0.4043944E+03  0.7818608E-02  0.1042269E+00
         21   -1    0    0  503  502  0.00000000000E+00  0.00000000000E+00  0.15442313976E+03  0.15442313976E+03  0.00000000000E+00 0.  1.
         21   -1    0    0  501  503 -0.00000000000E+00 -0.00000000000E+00 -0.10600995814E+04  0.10600995814E+04  0.00000000000E+00 0.  1.
    9000007    1    1    2  501    0 -0.59447336530E+02  0.92224174341E+00 -0.47235367741E+03  0.62181414660E+03  0.40000000000E+03 0.  1.
   -9000007    1    1    2    0  502  0.59447336530E+02 -0.92224174341E+00 -0.43332276421E+03  0.59270857454E+03  0.40000000000E+03 0.  1.
<mgrwt>
<rscale>  2 0.40439441E+03</rscale>
<asrwt>0</asrwt>
<pdfrwt beam="1">  1       21 0.23757406E-01 0.40439441E+03</pdfrwt>
<pdfrwt beam="2">  1       21 0.16309224E+00 0.40439441E+03</pdfrwt>
<totfact> 0.35037409E+03</totfact>
</mgrwt>
</event>
<event>
 4    1  0.4689683E-002  0.4379577E+03  0.7818608E-02  0.1031375E+00
         21   -1    0    0  503  502  0.00000000000E+00  0.00000000000E+00  0.14401856808E+03  0.14401856808E+03  0.00000000000E+00 0.  1.
         21   -1    0    0  501  503 -0.00000000000E+00 -0.00000000000E+00 -0.16148752924E+04  0.16148752924E+04  0.00000000000E+00 0. -1.
    9000007    1    1    2  501    0 -0.86209962997E+02  0.15612439250E+03 -0.11036207908E+04  0.11873440250E+04  0.40000000000E+03 0. -1.
   -9000007    1    1    2    0  502  0.86209962997E+02 -0.15612439250E+03 -0.36723593353E+03  0.57154983556E+03  0.40000000000E+03 0.  1.
<mgrwt>
<rscale>  2 0.43795774E+03</rscale>
<asrwt>0</asrwt>
<pdfrwt beam="1">  1       21 0.22156703E-01 0.43795774E+03</pdfrwt>
<pdfrwt beam="2">  1       21 0.24844235E+00 0.43795774E+03</pdfrwt>
<totfact> 0.10706811E+03</totfact>
</mgrwt>
</event>
<event>
 4    1  0.4689683E-002  0.5513779E+03  0.7818608E-02  0.1001175E+00
         21   -1    0    0  501  502  0.00000000000E+00  0.00000000000E+00  0.23286861338E+03  0.23286861338E+03  0.00000000000E+00 0.  1.
         21   -1    0    0  502  503 -0.00000000000E+00 -0.00000000000E+00 -0.15388256058E+04  0.15388256058E+04  0.00000000000E+00 0. -1.
    9000007    1    1    2  501    0 -0.35402052576E+03  0.13670068924E+03 -0.99789561579E+03  0.11400935361E+04  0.40000000000E+03 0. -1.
   -9000007    1    1    2    0  503  0.35402052576E+03 -0.13670068924E+03 -0.30806137667E+03  0.63160068310E+03  0.40000000000E+03 0.  1.
<mgrwt>
<rscale>  2 0.55137792E+03</rscale>
<asrwt>0</asrwt>
<pdfrwt beam="1">  1       21 0.35825941E-01 0.55137792E+03</pdfrwt>
<pdfrwt beam="2">  1       21 0.23674240E+00 0.55137792E+03</pdfrwt>
<totfact> 0.46462153E+02</totfact>
</mgrwt>
</event>
<event>
 4    1  0.4689683E-002  0.4239237E+03  0.7818608E-02  0.1035797E+00
         21   -1    0    0  501  502  0.00000000000E+00  0.00000000000E+00  0.90500199471E+03  0.90500199471E+03  0.00000000000E+00 0. -1.
         21   -1    0    0  502  503 -0.00000000000E+00 -0.00000000000E+00 -0.21803658127E+03  0.21803658127E+03  0.00000000000E+00 0. -1.
    9000007    1    1    2  501    0  0.79081672772E+02 -0.11600598647E+03  0.51124043625E+03  0.66413709693E+03  0.40000000000E+03 0. -1.
   -9000007    1    1    2    0  503 -0.79081672772E+02  0.11600598647E+03  0.17572497718E+03  0.45890147905E+03  0.40000000000E+03 0. -1.
<mgrwt>
<rscale>  2 0.42392370E+03</rscale>
<asrwt>0</asrwt>
<pdfrwt beam="1">  1       21 0.13923107E+00 0.42392370E+03</pdfrwt>
<pdfrwt beam="2">  1       21 0.33544090E-01 0.42392370E+03</pdfrwt>
<totfact> 0.27078807E+03</totfact>
</mgrwt>
</event>
<event>
 4    1  0.4689683E-002  0.4185392E+03  0.7818608E-02  0.1037543E+00
         21   -1    0    0  503  502  0.00000000000E+00  0.00000000000E+00  0.32150995734E+03  0.32150995734E+03  0.00000000000E+00 0.  1.
         21   -1    0    0  501  503 -0.00000000000E+00 -0.00000000000E+00 -0.54496826173E+03  0.54496826173E+03  0.00000000000E+00 0. -1.
    9000007    1    1    2  501    0 -0.71342676222E+02 -0.10042543648E+03 -0.11808219876E+03  0.43487751311E+03  0.40000000000E+03 0. -1.
   -9000007    1    1    2    0  502  0.71342676222E+02  0.10042543648E+03 -0.10537610563E+03  0.43160070595E+03  0.40000000000E+03 0.  1.
<mgrwt>
<rscale>  2 0.41853918E+03</rscale>
<asrwt>0</asrwt>
<pdfrwt beam="1">  1       21 0.49463071E-01 0.41853918E+03</pdfrwt>
<pdfrwt beam="2">  1       21 0.83841271E-01 0.41853918E+03</pdfrwt>
<totfact> 0.42703096E+03</totfact>
</mgrwt>
</event>
<event>
 4    1  0.4689683E-002  0.4154609E+03  0.7818608E-02  0.1038554E+00
         21   -1    0    0  503  502  0.00000000000E+00  0.00000000000E+00  0.11237216749E+04  0.11237216749E+04  0.00000000000E+00 0.  1.
         21   -1    0    0  501  503 -0.00000000000E+00 -0.00000000000E+00 -0.23231864228E+03  0.23231864228E+03  0.00000000000E+00 0.  1.
    9000007    1    1    2  501    0  0.25150430535E+02 -0.10943130381E+03  0.51035896488E+02  0.41858382331E+03  0.40000000000E+03 0.  1.
   -9000007    1    1    2    0  502 -0.25150430535E+02  0.10943130381E+03  0.84036713617E+03  0.93745649391E+03  0.40000000000E+03 0.  1.
<mgrwt>
<rscale>  2 0.41546089E+03</rscale>
<asrwt>0</asrwt>
<pdfrwt beam="1">  1       21 0.17288025E+00 0.41546089E+03</pdfrwt>
<pdfrwt beam="2">  1       21 0.35741330E-01 0.41546089E+03</pdfrwt>
<totfact> 0.13190446E+03</totfact>
</mgrwt>
</event>
<event>
 4    1  0.4689683E-002  0.4043864E+03  0.7818608E-02  0.1042271E+00
         21   -1    0    0  501  502  0.00000000000E+00  0.00000000000E+00  0.21849451899E+03  0.21849451899E+03  0.00000000000E+00 0.  1.
         21   -1    0    0  502  503 -0.00000000000E+00 -0.00000000000E+00 -0.82097254455E+03  0.82097254455E+03  0.00000000000E+00 0.  1.
    9000007    1    1    2  501    0  0.56368264994E+02  0.18735494188E+02 -0.14674725436E+03  0.43018967526E+03  0.40000000000E+03 0.  1.
   -9000007    1    1    2    0  503 -0.56368264994E+02 -0.18735494188E+02 -0.45573077120E+03  0.60927738827E+03  0.40000000000E+03 0.  1.
<mgrwt>
<rscale>  2 0.40438645E+03</rscale>
<asrwt>0</asrwt>
<pdfrwt beam="1">  1       21 0.33614542E-01 0.40438645E+03</pdfrwt>
<pdfrwt beam="2">  1       21 0.12630347E+00 0.40438645E+03</pdfrwt>
<totfact> 0.35026104E+03</totfact>
</mgrwt>
</event>
<event>
 4    1  0.4689683E-002  0.4006535E+03  0.7818608E-02  0.1043554E+00
         21   -1    0    0  501  502  0.00000000000E+00  0.00000000000E+00  0.22407628094E+03  0.22407628094E+03  0.00000000000E+00 0. -1.
         21   -1    0    0  502  503 -0.00000000000E+00 -0.00000000000E+00 -0.48489403759E+04  0.48489403759E+04  0.00000000000E+00 0. -1.
    9000007    1    1    2  501    0 -0.21944125012E+02 -0.64532624616E+01  0.29221332088E+02  0.40171765641E+03  0.40000000000E+03 0. -1.
   -9000007    1    1    2    0  503  0.21944125012E+02  0.64532624616E+01 -0.46540854271E+04  0.46712990004E+04  0.40000000000E+03 0. -1.
<mgrwt>
<rscale>  2 0.40065345E+03</rscale>
<asrwt>0</asrwt>
<pdfrwt beam="1">  1       21 0.34473278E-01 0.40065345E+03</pdfrwt>
<pdfrwt beam="2">  1       21 0.74599074E+00 0.40065345E+03</pdfrwt>
<totfact> 0.10466548E-01</totfact>
</mgrwt>
</event>
<event>
 4    1  0.4689683E-002  0.4292634E+03  0.7818608E-02  0.1034093E+00
         21   -1    0    0  503  502  0.00000000000E+00  0.00000000000E+00  0.76468130591E+03  0.76468130591E+03  0.00000000000E+00 0. -1.
         21   -1    0    0  501  503 -0.00000000000E+00 -0.00000000000E+00 -0.26558354063E+03  0.26558354063E+03  0.00000000000E+00 0.  1.
    9000007    1    1    2  501    0  0.10647019107E+02  0.15541476517E+03  0.40636256839E+03  0.59109867640E+03  0.40000000000E+03 0. -1.
   -9000007    1    1    2    0  502 -0.10647019107E+02 -0.15541476517E+03  0.92735196889E+02  0.43916617014E+03  0.40000000000E+03 0.  1.
<mgrwt>
<rscale>  2 0.42926345E+03</rscale>
<asrwt>0</asrwt>
<pdfrwt beam="1">  1       21 0.11764328E+00 0.42926345E+03</pdfrwt>
<pdfrwt beam="2">  1       21 0.40859007E-01 0.42926345E+03</pdfrwt>
<totfact> 0.27941063E+03</totfact>
</mgrwt>
</event>
<event>
 4    1  0.4689683E-002  0.5293723E+03  0.7818608E-02  0.1006384E+00
         21   -1    0    0  501  502  0.00000000000E+00  0.00000000000E+00  0.72095394898E+03  0.72095394898E+03  0.00000000000E+00 0. -1.
         21   -1    0    0  502  503 -0.00000000000E+00 -0.00000000000E+00 -0.42063468419E+03  0.42063468419E+03  0.00000000000E+00 0. -1.
    9000007    1    1    2  501    0  0.29811108200E+03  0.17710110172E+03  0.30743342570E+03  0.61216854598E+03  0.40000000000E+03 0. -1.
   -9000007    1    1    2    0  503 -0.29811108200E+03 -0.17710110172E+03 -0.71141609080E+01  0.52942008720E+03  0.40000000000E+03 0. -1.
<mgrwt>
<rscale>  2 0.52937229E+03</rscale>
<asrwt>0</asrwt>
<pdfrwt beam="1">  1       21 0.11091599E+00 0.52937229E+03</pdfrwt>
<pdfrwt beam="2">  1       21 0.64713028E-01 0.52937229E+03</pdfrwt>
<totfact> 0.11661827E+03</totfact>
</mgrwt>
</event>
<event>
 4    1  0.4689683E-002  0.4366933E+03  0.7818608E-02  0.1031766E+00
         21   -1    0    0  501  502  0.00000000000E+00  0.00000000000E+00  0.81999391248E+03  0.81999391248E+03  0.00000000000E+00 0. -1.
         21   -1    0    0  502  503 -0.00000000000E+00 -0.00000000000E+00 -0.23942259601E+03  0.23942259601E+03  0.00000000000E+00 0. -1.
    9000007    1    1    2  501    0  0.36926497868E+02 -0.17128177238E+03  0.20063080379E+03  0.48057645721E+03  0.40000000000E+03 0.  1.
   -9000007    1    1    2    0  503 -0.36926497868E+02  0.17128177238E+03  0.37994051268E+03  0.57884005128E+03  0.40000000000E+03 0.  1.
<mgrwt>
<rscale>  2 0.43669327E+03</rscale>
<asrwt>0</asrwt>
<pdfrwt beam="1">  1       21 0.12615291E+00 0.43669327E+03</pdfrwt>
<pdfrwt beam="2">  1       21 0.36834246E-01 0.43669327E+03</pdfrwt>
<totfact> 0.28835630E+03</totfact>
</mgrwt>
</event>
<event>
 4    1  0.4689683E-002  0.4707194E+03  0.7818608E-02  0.1021717E+00
         21   -1    0    0  503  502  0.00000000000E+00  0.00000000000E+00  0.18191234165E+03  0.18191234165E+03  0.00000000000E+00 0.  1.
         21   -1    0    0  501  503 -0.00000000000E+00 -0.00000000000E+00 -0.20516231676E+04  0.20516231676E+04  0.00000000000E+00 0. -1.
    9000007    1    1    2  501    0 -0.22627364384E+03  0.10186739124E+03 -0.16467049771E+04  0.17126628416E+04  0.40000000000E+03 0. -1.
   -9000007    1    1    2    0  502  0.22627364384E+03 -0.10186739124E+03 -0.22300584883E+03  0.52087266765E+03  0.40000000000E+03 0.  1.
<mgrwt>
<rscale>  2 0.47071937E+03</rscale>
<asrwt>0</asrwt>
<pdfrwt beam="1">  1       21 0.27986515E-01 0.47071937E+03</pdfrwt>
<pdfrwt beam="2">  1       21 0.31563432E+00 0.47071937E+03</pdfrwt>
<totfact> 0.26183014E+02</totfact>
</mgrwt>
</event>
<event>
 4    1  0.4689683E-002  0.4039036E+03  0.7818608E-02  0.1042436E+00
         21   -1    0    0  503  502  0.00000000000E+00  0.00000000000E+00  0.12373730427E+03  0.12373730427E+03  0.00000000000E+00 0.  1.
         21   -1    0    0  501  503 -0.00000000000E+00 -0.00000000000E+00 -0.13193457319E+04  0.13193457319E+04  0.00000000000E+00 0.  1.
    9000007    1    1    2  501    0 -0.37305076233E+02  0.41790160813E+02 -0.57872058429E+03  0.70573054415E+03  0.40000000000E+03 0.  1.
   -9000007    1    1    2    0  502  0.37305076233E+02 -0.41790160813E+02 -0.61688784337E+03  0.73735249206E+03  0.40000000000E+03 0.  1.
<mgrwt>
<rscale>  2 0.40390356E+03</rscale>
<asrwt>0</asrwt>
<pdfrwt beam="1">  1       21 0.19036508E-01 0.40390356E+03</pdfrwt>
<pdfrwt beam="2">  1       21 0.20297627E+00 0.40390356E+03</pdfrwt>
<totfact> 0.28205722E+03</totfact>
</mgrwt>
</event>
<event>
 4    1  0.4689683E-002  0.4426971E+03  0.7818608E-02  0.1029922E+00
         21   -1    0    0  503  502  0.00000000000E+00  0.00000000000E+00  0.12216766835E+04  0.12216766835E+04  0.00000000000E+00 0.  1.
         21   -1    0    0  501  503 -0.00000000000E+00 -0.00000000000E+00 -0.22276440027E+03  0.22276440027E+03  0.00000000000E+00 0.  1.
    9000007    1    1    2  501    0 -0.42002808349E+02 -0.18497692557E+03  0.11738204754E+03  0.45799480782E+03  0.40000000000E+03 0.  1.
   -9000007    1    1    2    0  502  0.42002808349E+02  0.18497692557E+03  0.88153023570E+03  0.98644627596E+03  0.40000000000E+03 0.  1.
<mgrwt>
<rscale>  2 0.44269707E+03</rscale>
<asrwt>0</asrwt>
<pdfrwt beam="1">  1       21 0.18795026E+00 0.44269707E+03</pdfrwt>
<pdfrwt beam="2">  1       21 0.34271447E-01 0.44269707E+03</pdfrwt>
<totfact> 0.11111653E+03</totfact>
</mgrwt>
</event>
<event>
 4    1  0.4689683E-002  0.4415651E+03  0.7818608E-02  0.1030268E+00
         21   -1    0    0  501  502  0.00000000000E+00  0.00000000000E+00  0.76439905387E+03  0.76439905387E+03  0.00000000000E+00 0.  1.
         21   -1    0    0  502  503 -0.00000000000E+00 -0.00000000000E+00 -0.27835076070E+03  0.27835076070E+03  0.00000000000E+00 0.  1.
    9000007    1    1    2  501    0 -0.39716348874E+02 -0.18276311327E+03  0.39378822019E+03  0.59164931023E+03  0.40000000000E+03 0. -1.
   -9000007    1    1    2    0  503  0.39716348874E+02  0.18276311327E+03  0.92260072984E+02  0.45110050433E+03  0.40000000000E+03 0. -1.
<mgrwt>
<rscale>  2 0.44156511E+03</rscale>
<asrwt>0</asrwt>
<pdfrwt beam="1">  1       21 0.11759985E+00 0.44156511E+03</pdfrwt>
<pdfrwt beam="2">  1       21 0.42823194E-01 0.44156511E+03</pdfrwt>
<totfact> 0.25255801E+03</totfact>
</mgrwt>
</event>
<event>
 4    1  0.4689683E-002  0.4018976E+03  0.7818608E-02  0.1043125E+00
         21   -1    0    0  503  502  0.00000000000E+00  0.00000000000E+00  0.27425697553E+03  0.27425697553E+03  0.00000000000E+00 0. -1.
         21   -1    0    0  501  503 -0.00000000000E+00 -0.00000000000E+00 -0.12299504643E+04  0.12299504643E+04  0.00000000000E+00 0. -1.
    9000007    1    1    2  501    0 -0.32436097235E+02  0.21670171058E+02 -0.10208038309E+04  0.10970698054E+04  0.40000000000E+03 0. -1.
   -9000007    1    1    2    0  502  0.32436097235E+02 -0.21670171058E+02  0.65110342145E+02  0.40713763443E+03  0.40000000000E+03 0. -1.
<mgrwt>
<rscale>  2 0.40189762E+03</rscale>
<asrwt>0</asrwt>
<pdfrwt beam="1">  1       21 0.42193382E-01 0.40189762E+03</pdfrwt>
<pdfrwt beam="2">  1       21 0.18922314E+00 0.40189762E+03</pdfrwt>
<totfact> 0.72639745E+02</totfact>
</mgrwt>
</event>
<event>
 4    1  0.4689683E-002  0.4334085E+03  0.7818608E-02  0.1032789E+00
         21   -1    0    0  503  502  0.00000000000E+00  0.00000000000E+00  0.44821096204E+03  0.44821096204E+03  0.00000000000E+00 0. -1.
         21   -1    0    0  501  503 -0.00000000000E+00 -0.00000000000E+00 -0.95721668750E+03  0.95721668750E+03  0.00000000000E+00 0. -1.
    9000007    1    1    2  501    0 -0.16478908647E+03 -0.26220110321E+02 -0.78138520875E+03  0.89353555142E+03  0.40000000000E+03 0. -1.
   -9000007    1    1    2    0  502  0.16478908647E+03  0.26220110321E+02  0.27237948328E+03  0.51189209812E+03  0.40000000000E+03 0. -1.
<mgrwt>
<rscale>  2 0.43340851E+03</rscale>
<asrwt>0</asrwt>
<pdfrwt beam="1">  1       21 0.68955534E-01 0.43340851E+03</pdfrwt>
<pdfrwt beam="2">  1       21 0.14726410E+00 0.43340851E+03</pdfrwt>
<totfact> 0.50461750E+02</totfact>
</mgrwt>
</event>
<event>
 4    1  0.4689683E-002  0.4215408E+03  0.7818608E-02  0.1036566E+00
         21   -1    0    0  501  502  0.00000000000E+00  0.00000000000E+00  0.40889847730E+03  0.40889847730E+03  0.00000000000E+00 0.  1.
         21   -1    0    0  502  503 -0.00000000000E+00 -0.00000000000E+00 -0.46309717365E+03  0.46309717365E+03  0.00000000000E+00 0.  1.
    9000007    1    1    2  501    0 -0.90590853391E+02 -0.97416201633E+02  0.81105743885E+02  0.42927236197E+03  0.40000000000E+03 0.  1.
   -9000007    1    1    2    0  503  0.90590853391E+02  0.97416201633E+02 -0.13530444023E+03  0.44272328898E+03  0.40000000000E+03 0.  1.
<mgrwt>
<rscale>  2 0.42154077E+03</rscale>
<asrwt>0</asrwt>
<pdfrwt beam="1">  1       21 0.62907458E-01 0.42154077E+03</pdfrwt>
<pdfrwt beam="2">  1       21 0.71245719E-01 0.42154077E+03</pdfrwt>
<totfact> 0.36832724E+03</totfact>
</mgrwt>
</event>
<event>
 4    1  0.4689683E-002  0.6470120E+03  0.7818608E-02  0.9812402E-01
         21   -1    0    0  501  502  0.00000000000E+00  0.00000000000E+00  0.18514558910E+04  0.18514558910E+04  0.00000000000E+00 0.  1.
         21   -1    0    0  502  503 -0.00000000000E+00 -0.00000000000E+00 -0.24595267408E+03  0.24595267408E+03  0.00000000000E+00 0.  1.
    9000007    1    1    2  501    0 -0.32251238992E+03 -0.39320511938E+03  0.11006551968E+04  0.12767405257E+04  0.40000000000E+03 0.  1.
   -9000007    1    1    2    0  503  0.32251238992E+03  0.39320511938E+03  0.50484802013E+03  0.82066803946E+03  0.40000000000E+03 0.  1.
<mgrwt>
<rscale>  2 0.64701198E+03</rscale>
<asrwt>0</asrwt>
<pdfrwt beam="1">  1       21 0.28483936E+00 0.64701198E+03</pdfrwt>
<pdfrwt beam="2">  1       21 0.37838874E-01 0.64701198E+03</pdfrwt>
<totfact> 0.20151341E+02</totfact>
</mgrwt>
</event>
<event>
 4    1  0.4689683E-002  0.4508607E+03  0.7818608E-02  0.1027466E+00
         21   -1    0    0  503  502  0.00000000000E+00  0.00000000000E+00  0.24028026237E+03  0.24028026237E+03  0.00000000000E+00 0.  1.
         21   -1    0    0  501  503 -0.00000000000E+00 -0.00000000000E+00 -0.10520506731E+04  0.10520506731E+04  0.00000000000E+00 0.  1.
    9000007    1    1    2  501    0 -0.16621624425E+03 -0.12509018174E+03 -0.69185484481E+03  0.82579568884E+03  0.40000000000E+03 0.  1.
   -9000007    1    1    2    0  502  0.16621624425E+03  0.12509018174E+03 -0.11991556597E+03  0.46653524667E+03  0.40000000000E+03 0.  1.
<mgrwt>
<rscale>  2 0.45086073E+03</rscale>
<asrwt>0</asrwt>
<pdfrwt beam="1">  1       21 0.36966194E-01 0.45086073E+03</pdfrwt>
<pdfrwt beam="2">  1       21 0.16185395E+00 0.45086073E+03</pdfrwt>
<totfact> 0.14611192E+03</totfact>
</mgrwt>
</event>
<event>
 4    1  0.4689683E-002  0.4257819E+03  0.7818608E-02  0.1035201E+00
         21   -1    0    0  503  502  0.00000000000E+00  0.00000000000E+00  0.32985485823E+03  0.32985485823E+03  0.00000000000E+00 0. -1.
         21   -1    0    0  501  503 -0.00000000000E+00 -0.00000000000E+00 -0.61784211972E+03  0.61784211972E+03  0.00000000000E+00 0.  1.
    9000007    1    1    2  501    0  0.11728378849E+03 -0.86802843167E+02  0.13479983512E+02  0.42599522366E+03  0.40000000000E+03 0. -1.
   -9000007    1    1    2    0  502 -0.11728378849E+03  0.86802843167E+02 -0.30146724500E+03  0.52170175429E+03  0.40000000000E+03 0. -1.
<mgrwt>
<rscale>  2 0.42578189E+03</rscale>
<asrwt>0</asrwt>
<pdfrwt beam="1">  1       21 0.50746902E-01 0.42578189E+03</pdfrwt>
<pdfrwt beam="2">  1       21 0.95052633E-01 0.42578189E+03</pdfrwt>
<totfact> 0.29989714E+03</totfact>
</mgrwt>
</event>
<event>
 4    1  0.4689683E-002  0.4620781E+03  0.7818608E-02  0.1024180E+00
         21   -1    0    0  503  502  0.00000000000E+00  0.00000000000E+00  0.22292392205E+03  0.22292392205E+03  0.00000000000E+00 0. -1.
         21   -1    0    0  501  503 -0.00000000000E+00 -0.00000000000E+00 -0.10771936245E+04  0.10771936245E+04  0.00000000000E+00 0. -1.
    9000007    1    1    2  501    0 -0.14247855802E+03 -0.18225254891E+03 -0.64355594143E+03  0.79226282308E+03  0.40000000000E+03 0. -1.
   -9000007    1    1    2    0  502  0.14247855802E+03  0.18225254891E+03 -0.21071376103E+03  0.50785472348E+03  0.40000000000E+03 0. -1.
<mgrwt>
<rscale>  2 0.46207806E+03</rscale>
<asrwt>0</asrwt>
<pdfrwt beam="1">  1       21 0.34295988E-01 0.46207806E+03</pdfrwt>
<pdfrwt beam="2">  1       21 0.16572210E+00 0.46207806E+03</pdfrwt>
<totfact> 0.15845574E+03</totfact>
</mgrwt>
</event>
<event>
 4    1  0.4689683E-002  0.6111663E+03  0.7818608E-02  0.9882507E-01
         21   -1    0    0  501  502  0.00000000000E+00  0.00000000000E+00  0.48950375698E+03  0.48950375698E+03  0.00000000000E+00 0.  1.
         21   -1    0    0  502  503 -0.00000000000E+00 -0.00000000000E+00 -0.12191611963E+04  0.12191611963E+04  0.00000000000E+00 0.  1.
    9000007    1    1    2  501    0 -0.46028347254E+03 -0.40783943000E+02  0.15771614329E+03  0.63118823417E+03  0.40000000000E+03 0.  1.
   -9000007    1    1    2    0  503  0.46028347254E+03  0.40783943000E+02 -0.88737358261E+03  0.10774767191E+04  0.40000000000E+03 0.  1.
<mgrwt>
<rscale>  2 0.61116627E+03</rscale>
<asrwt>0</asrwt>
<pdfrwt beam="1">  1       21 0.75308272E-01 0.61116627E+03</pdfrwt>
<pdfrwt beam="2">  1       21 0.18756326E+00 0.61116627E+03</pdfrwt>
<totfact> 0.19250494E+02</totfact>
</mgrwt>
</event>
<event>
 4    1  0.4689683E-002  0.4917647E+03  0.7818608E-02  0.1015951E+00
         21   -1    0    0  501  502  0.00000000000E+00  0.00000000000E+00  0.37296243787E+03  0.37296243787E+03  0.00000000000E+00 0.  1.
         21   -1    0    0  502  503 -0.00000000000E+00 -0.00000000000E+00 -0.66833601277E+03  0.66833601277E+03  0.00000000000E+00 0.  1.
    9000007    1    1    2  501    0 -0.84721226569E+02 -0.27323044451E+03 -0.57787063868E+02  0.49514836846E+03  0.40000000000E+03 0.  1.
   -9000007    1    1    2    0  503  0.84721226569E+02  0.27323044451E+03 -0.23758651103E+03  0.54615008218E+03  0.40000000000E+03 0.  1.
<mgrwt>
<rscale>  2 0.49176474E+03</rscale>
<asrwt>0</asrwt>
<pdfrwt beam="1">  1       21 0.57378838E-01 0.49176474E+03</pdfrwt>
<pdfrwt beam="2">  1       21 0.10282092E+00 0.49176474E+03</pdfrwt>
<totfact> 0.18578225E+03</totfact>
</mgrwt>
</event>
<event>
 4    1  0.4689683E-002  0.4703345E+03  0.7818608E-02  0.1021826E+00
         21   -1    0    0  501  502  0.00000000000E+00  0.00000000000E+00  0.34920150839E+03  0.34920150839E+03  0.00000000000E+00 0. -1.
         21   -1    0    0  502  503 -0.00000000000E+00 -0.00000000000E+00 -0.12305256415E+04  0.12305256415E+04  0.00000000000E+00 0. -1.
    9000007    1    1    2  501    0 -0.14839512326E+03  0.19797342133E+03  0.10952199081E+03  0.48291785495E+03  0.40000000000E+03 0. -1.
   -9000007    1    1    2    0  503  0.14839512326E+03 -0.19797342133E+03 -0.99084612391E+03  0.10968092949E+04  0.40000000000E+03 0. -1.
<mgrwt>
<rscale>  2 0.47033455E+03</rscale>
<asrwt>0</asrwt>
<pdfrwt beam="1">  1       21 0.53723309E-01 0.47033455E+03</pdfrwt>
<pdfrwt beam="2">  1       21 0.18931164E+00 0.47033455E+03</pdfrwt>
<totfact> 0.42103560E+02</totfact>
</mgrwt>
</event>
<event>
 4    1  0.4689683E-002  0.4063089E+03  0.7818608E-02  0.1041617E+00
         21   -1    0    0  501  502  0.00000000000E+00  0.00000000000E+00  0.48523439579E+03  0.48523439579E+03  0.00000000000E+00 0. -1.
         21   -1    0    0  502  503 -0.00000000000E+00 -0.00000000000E+00 -0.41132957171E+03  0.41132957171E+03  0.00000000000E+00 0.  1.
    9000007    1    1    2  501    0  0.29008335617E+02  0.65157322291E+02  0.22334005436E+03  0.46364613669E+03  0.40000000000E+03 0. -1.
   -9000007    1    1    2    0  503 -0.29008335617E+02 -0.65157322291E+02 -0.14943523028E+03  0.43291783081E+03  0.40000000000E+03 0. -1.
<mgrwt>
<rscale>  2 0.40630895E+03</rscale>
<asrwt>0</asrwt>
<pdfrwt beam="1">  1       21 0.74651446E-01 0.40630895E+03</pdfrwt>
<pdfrwt beam="2">  1       21 0.63281472E-01 0.40630895E+03</pdfrwt>
<totfact> 0.32894145E+03</totfact>
</mgrwt>
</event>
<event>
 4    1  0.4689683E-002  0.4098851E+03  0.7818608E-02  0.1040410E+00
         21   -1    0    0  503  502  0.00000000000E+00  0.00000000000E+00  0.56705503504E+03  0.56705503504E+03  0.00000000000E+00 0.  1.
         21   -1    0    0  501  503 -0.00000000000E+00 -0.00000000000E+00 -0.42021544897E+03  0.42021544897E+03  0.00000000000E+00 0.  1.
    9000007    1    1    2  501    0  0.63449667386E+02 -0.63086895584E+02 -0.19466475447E+03  0.45376225418E+03  0.40000000000E+03 0. -1.
   -9000007    1    1    2    0  502 -0.63449667386E+02  0.63086895584E+02  0.34150434054E+03  0.53350822983E+03  0.40000000000E+03 0. -1.
<mgrwt>
<rscale>  2 0.40988513E+03</rscale>
<asrwt>0</asrwt>
<pdfrwt beam="1">  1       21 0.87239236E-01 0.40988513E+03</pdfrwt>
<pdfrwt beam="2">  1       21 0.64648530E-01 0.40988513E+03</pdfrwt>
<totfact> 0.21861278E+03</totfact>
</mgrwt>
</event>
<event>
 4    1  0.4689683E-002  0.4187502E+03  0.7818608E-02  0.1037474E+00
         21   -1    0    0  501  502  0.00000000000E+00  0.00000000000E+00  0.17042651465E+03  0.17042651465E+03  0.00000000000E+00 0.  1.
         21   -1    0    0  502  503 -0.00000000000E+00 -0.00000000000E+00 -0.19591700838E+04  0.19591700838E+04  0.00000000000E+00 0.  1.
    9000007    1    1    2  501    0 -0.96125713147E+02  0.78176804542E+02 -0.16064240492E+03  0.44850612901E+03  0.40000000000E+03 0.  1.
   -9000007    1    1    2    0  503  0.96125713147E+02 -0.78176804542E+02 -0.16281011643E+04  0.16810904695E+04  0.40000000000E+03 0.  1.
<mgrwt>
<rscale>  2 0.41875024E+03</rscale>
<asrwt>0</asrwt>
<pdfrwt beam="1">  1       21 0.26219463E-01 0.41875024E+03</pdfrwt>
<pdfrwt beam="2">  1       21 0.30141079E+00 0.41875024E+03</pdfrwt>
<totfact> 0.37396195E+02</totfact>
</mgrwt>
</event>
<event>
 4    1  0.4689683E-002  0.5463372E+03  0.7818608E-02  0.1002345E+00
         21   -1    0    0  503  502  0.00000000000E+00  0.00000000000E+00  0.50380204228E+03  0.50380204228E+03  0.00000000000E+00 0. -1.
         21   -1    0    0  501  503 -0.00000000000E+00 -0.00000000000E+00 -0.11880734328E+04  0.11880734328E+04  0.00000000000E+00 0. -1.
    9000007    1    1    2  501    0 -0.20700882033E+03 -0.30924379900E+03 -0.94109550380E+03  0.10881843255E+04  0.40000000000E+03 0. -1.
   -9000007    1    1    2    0  502  0.20700882033E+03  0.30924379900E+03  0.25682411330E+03  0.60369114958E+03  0.40000000000E+03 0. -1.
<mgrwt>
<rscale>  2 0.54633724E+03</rscale>
<asrwt>0</asrwt>
<pdfrwt beam="1">  1       21 0.77508007E-01 0.54633724E+03</pdfrwt>
<pdfrwt beam="2">  1       21 0.18278053E+00 0.54633724E+03</pdfrwt>
<totfact> 0.19976087E+02</totfact>
</mgrwt>
</event>
<event>
 4    1  0.4689683E-002  0.4324358E+03  0.7818608E-02  0.1033093E+00
         21   -1    0    0  501  502  0.00000000000E+00  0.00000000000E+00  0.13838227367E+04  0.13838227367E+04  0.00000000000E+00 0. -1.
         21   -1    0    0  502  503 -0.00000000000E+00 -0.00000000000E+00 -0.14109562992E+03  0.14109562992E+03  0.00000000000E+00 0.  1.
    9000007    1    1    2  501    0 -0.64135810276E+02 -0.15128541494E+03  0.77809782855E+03  0.89018925501E+03  0.40000000000E+03 0. -1.
   -9000007    1    1    2    0  503  0.64135810276E+02  0.15128541494E+03  0.46462927822E+03  0.63472911160E+03  0.40000000000E+03 0.  1.
<mgrwt>
<rscale>  2 0.43243575E+03</rscale>
<asrwt>0</asrwt>
<pdfrwt beam="1">  1       21 0.21289580E+00 0.43243575E+03</pdfrwt>
<pdfrwt beam="2">  1       21 0.21707021E-01 0.43243575E+03</pdfrwt>
<totfact> 0.18679525E+03</totfact>
</mgrwt>
</event>
<event>
 4    1  0.4689683E-002  0.4457035E+03  0.7818608E-02  0.1029011E+00
         21   -1    0    0  501  502  0.00000000000E+00  0.00000000000E+00  0.74739739061E+03  0.74739739061E+03  0.00000000000E+00 0.  1.
         21   -1    0    0  502  503 -0.00000000000E+00 -0.00000000000E+00 -0.27778650135E+03  0.27778650135E+03  0.00000000000E+00 0.  1.
    9000007    1    1    2  501    0 -0.14186676735E+03 -0.13610814804E+03  0.34132339480E+03  0.56138513293E+03  0.40000000000E+03 0.  1.
   -9000007    1    1    2    0  503  0.14186676735E+03  0.13610814804E+03  0.12828749446E+03  0.46379875903E+03  0.40000000000E+03 0.  1.
<mgrwt>
<rscale>  2 0.44570350E+03</rscale>
<asrwt>0</asrwt>
<pdfrwt beam="1">  1       21 0.11498421E+00 0.44570350E+03</pdfrwt>
<pdfrwt beam="2">  1       21 0.42736385E-01 0.44570350E+03</pdfrwt>
<totfact> 0.26791195E+03</totfact>
</mgrwt>
</event>
<event>
 4    1  0.4689683E-002  0.5006054E+03  0.7818608E-02  0.1013621E+00
         21   -1    0    0  501  502  0.00000000000E+00  0.00000000000E+00  0.79220741413E+03  0.79220741413E+03  0.00000000000E+00 0. -1.
         21   -1    0    0  502  503 -0.00000000000E+00 -0.00000000000E+00 -0.42933946600E+03  0.42933946600E+03  0.00000000000E+00 0.  1.
    9000007    1    1    2  501    0  0.20483289540E+03 -0.22056573024E+03  0.49477747460E+03  0.70385403726E+03  0.40000000000E+03 0. -1.
   -9000007    1    1    2    0  503 -0.20483289540E+03  0.22056573024E+03 -0.13190952646E+03  0.51769284287E+03  0.40000000000E+03 0.  1.
<mgrwt>
<rscale>  2 0.50060539E+03</rscale>
<asrwt>0</asrwt>
<pdfrwt beam="1">  1       21 0.12187806E+00 0.50060539E+03</pdfrwt>
<pdfrwt beam="2">  1       21 0.66052226E-01 0.50060539E+03</pdfrwt>
<totfact> 0.88725767E+02</totfact>
</mgrwt>
</event>
<event>
 4    1  0.4689683E-002  0.7911472E+03  0.7818608E-02  0.9572920E-01
         21   -1    0    0  501  502  0.00000000000E+00  0.00000000000E+00  0.19346988373E+04  0.19346988373E+04  0.00000000000E+00 0. -1.
         21   -1    0    0  502  503 -0.00000000000E+00 -0.00000000000E+00 -0.32353319433E+03  0.32353319433E+03  0.00000000000E+00 0. -1.
    9000007    1    1    2  501    0  0.24009728311E+03  0.63895789709E+03  0.79839083340E+03  0.11239847964E+04  0.40000000000E+03 0. -1.
   -9000007    1    1    2    0  503 -0.24009728311E+03 -0.63895789709E+03  0.81277480954E+03  0.11342472352E+04  0.40000000000E+03 0. -1.
<mgrwt>
<rscale>  2 0.79114720E+03</rscale>
<asrwt>0</asrwt>
<pdfrwt beam="1">  1       21 0.29764597E+00 0.79114720E+03</pdfrwt>
<pdfrwt beam="2">  1       21 0.49774339E-01 0.79114720E+03</pdfrwt>
<totfact> 0.89513093E+01</totfact>
</mgrwt>
</event>
<event>
 4    1  0.4689683E-002  0.4027661E+03  0.7818608E-02  0.1042826E+00
         21   -1    0    0  501  502  0.00000000000E+00  0.00000000000E+00  0.70771040415E+03  0.70771040415E+03  0.00000000000E+00 0. -1.
         21   -1    0    0  502  503 -0.00000000000E+00 -0.00000000000E+00 -0.25147848214E+03  0.25147848214E+03  0.00000000000E+00 0. -1.
    9000007    1    1    2  501    0  0.53205793687E+01  0.46821544132E+02  0.37080240367E+03  0.54746231663E+03  0.40000000000E+03 0. -1.
   -9000007    1    1    2    0  503 -0.53205793687E+01 -0.46821544132E+02  0.85429518343E+02  0.41172656966E+03  0.40000000000E+03 0. -1.
<mgrwt>
<rscale>  2 0.40276614E+03</rscale>
<asrwt>0</asrwt>
<pdfrwt beam="1">  1       21 0.10887852E+00 0.40276614E+03</pdfrwt>
<pdfrwt beam="2">  1       21 0.38688997E-01 0.40276614E+03</pdfrwt>
<totfact> 0.38289942E+03</totfact>
</mgrwt>
</event>
<event>
 4    1  0.4689683E-002  0.4177603E+03  0.7818608E-02  0.1037798E+00
         21   -1    0    0  501  502  0.00000000000E+00  0.00000000000E+00  0.10776382583E+04  0.10776382583E+04  0.00000000000E+00 0. -1.
         21   -1    0    0  502  503 -0.00000000000E+00 -0.00000000000E+00 -0.28467953653E+03  0.28467953653E+03  0.00000000000E+00 0. -1.
    9000007    1    1    2  501    0  0.73436825940E+02 -0.95554579275E+02  0.84372348536E+03  0.94148444744E+03  0.40000000000E+03 0. -1.
   -9000007    1    1    2    0  503 -0.73436825940E+02  0.95554579275E+02 -0.50764763625E+02  0.42083334736E+03  0.40000000000E+03 0. -1.
<mgrwt>
<rscale>  2 0.41776027E+03</rscale>
<asrwt>0</asrwt>
<pdfrwt beam="1">  1       21 0.16579050E+00 0.41776027E+03</pdfrwt>
<pdfrwt beam="2">  1       21 0.43796852E-01 0.41776027E+03</pdfrwt>
<totfact> 0.97734023E+02</totfact>
</mgrwt>
</event>
<event>
 4    1  0.4689683E-002  0.4064078E+03  0.7818608E-02  0.1041583E+00
         21   -1    0    0  503  502  0.00000000000E+00  0.00000000000E+00  0.11052275673E+04  0.11052275673E+04  0.00000000000E+00 0. -1.
         21   -1    0    0  501  503 -0.00000000000E+00 -0.00000000000E+00 -0.19515424439E+03  0.19515424439E+03  0.00000000000E+00 0. -1.
    9000007    1    1    2  501    0  0.53513938448E+02 -0.47995400739E+02  0.14035700319E+03  0.42996207791E+03  0.40000000000E+03 0. -1.
   -9000007    1    1    2    0  502 -0.53513938448E+02  0.47995400739E+02  0.76971631971E+03  0.87041973376E+03  0.40000000000E+03 0. -1.
<mgrwt>
<rscale>  2 0.40640780E+03</rscale>
<asrwt>0</asrwt>
<pdfrwt beam="1">  1       21 0.17003501E+00 0.40640780E+03</pdfrwt>
<pdfrwt beam="2">  1       21 0.30023731E-01 0.40640780E+03</pdfrwt>
<totfact> 0.19691817E+03</totfact>
</mgrwt>
</event>
<event>
 4    1  0.4689683E-002  0.5629751E+03  0.7818608E-02  0.9985345E-01
         21   -1    0    0  503  502  0.00000000000E+00  0.00000000000E+00  0.45619458781E+03  0.45619458781E+03  0.00000000000E+00 0.  1.
         21   -1    0    0  501  503 -0.00000000000E+00 -0.00000000000E+00 -0.79011870422E+03  0.79011870422E+03  0.00000000000E+00 0.  1.
    9000007    1    1    2  501    0  0.34572476049E+03 -0.19343062749E+03  0.49536426102E+02  0.56515031202E+03  0.40000000000E+03 0.  1.
   -9000007    1    1    2    0  502 -0.34572476049E+03  0.19343062749E+03 -0.38346054251E+03  0.68116298001E+03  0.40000000000E+03 0.  1.
<mgrwt>
<rscale>  2 0.56297515E+03</rscale>
<asrwt>0</asrwt>
<pdfrwt beam="1">  1       21 0.70183783E-01 0.56297515E+03</pdfrwt>
<pdfrwt beam="2">  1       21 0.12155672E+00 0.56297515E+03</pdfrwt>
<totfact> 0.76224414E+02</totfact>
</mgrwt>
</event>
<event>
 4    1  0.4689683E-002  0.4107606E+03  0.7818608E-02  0.1040116E+00
         21   -1    0    0  501  502  0.00000000000E+00  0.00000000000E+00  0.91461709296E+03  0.91461709296E+03  0.00000000000E+00 0. -1.
         21   -1    0    0  502  503 -0.00000000000E+00 -0.00000000000E+00 -0.24285689159E+03  0.24285689159E+03  0.00000000000E+00 0. -1.
    9000007    1    1    2  501    0  0.93191620125E+02  0.62904965967E+01  0.61963544501E+03  0.74341935213E+03  0.40000000000E+03 0. -1.
   -9000007    1    1    2    0  503 -0.93191620125E+02 -0.62904965967E+01  0.52124756362E+02  0.41405463243E+03  0.40000000000E+03 0. -1.
<mgrwt>
<rscale>  2 0.41076057E+03</rscale>
<asrwt>0</asrwt>
<pdfrwt beam="1">  1       21 0.14071032E+00 0.41076057E+03</pdfrwt>
<pdfrwt beam="2">  1       21 0.37362599E-01 0.41076057E+03</pdfrwt>
<totfact> 0.21283713E+03</totfact>
</mgrwt>
</event>
<event>
 4    1  0.4689683E-002  0.5823819E+03  0.7818608E-02  0.9942648E-01
         21   -1    0    0  503  502  0.00000000000E+00  0.00000000000E+00  0.41038870085E+03  0.41038870085E+03  0.00000000000E+00 0.  1.
         21   -1    0    0  501  503 -0.00000000000E+00 -0.00000000000E+00 -0.21471675323E+04  0.21471675323E+04  0.00000000000E+00 0. -1.
    9000007    1    1    2  501    0  0.21760626510E+03 -0.36306494451E+03 -0.18713088341E+04  0.19598381038E+04  0.40000000000E+03 0. -1.
   -9000007    1    1    2    0  502 -0.21760626510E+03  0.36306494451E+03  0.13453000265E+03  0.59771812935E+03  0.40000000000E+03 0.  1.
<mgrwt>
<rscale>  2 0.58238187E+03</rscale>
<asrwt>0</asrwt>
<pdfrwt beam="1">  1       21 0.63136724E-01 0.58238187E+03</pdfrwt>
<pdfrwt beam="2">  1       21 0.33033346E+00 0.58238187E+03</pdfrwt>
<totfact> 0.36667469E+01</totfact>
</mgrwt>
</event>
<event>
 4    1  0.4689683E-002  0.4071674E+03  0.7818608E-02  0.1041326E+00
         21   -1    0    0  501  502  0.00000000000E+00  0.00000000000E+00  0.89545611501E+03  0.89545611501E+03  0.00000000000E+00 0.  1.
         21   -1    0    0  502  503 -0.00000000000E+00 -0.00000000000E+00 -0.28284581421E+03  0.28284581421E+03  0.00000000000E+00 0.  1.
    9000007    1    1    2  501    0 -0.68330683782E+02  0.33409997210E+02  0.65257168176E+03  0.76917820438E+03  0.40000000000E+03 0.  1.
   -9000007    1    1    2    0  503  0.68330683782E+02 -0.33409997210E+02 -0.39961380960E+02  0.40912372484E+03  0.40000000000E+03 0.  1.
<mgrwt>
<rscale>  2 0.40716742E+03</rscale>
<asrwt>0</asrwt>
<pdfrwt beam="1">  1       21 0.13776248E+00 0.40716742E+03</pdfrwt>
<pdfrwt beam="2">  1       21 0.43514741E-01 0.40716742E+03</pdfrwt>
<totfact> 0.16475489E+03</totfact>
</mgrwt>
</event>
<event>
 4    1  0.4689683E-002  0.4118234E+03  0.7818608E-02  0.1039761E+00
         21   -1    0    0  503  502  0.00000000000E+00  0.00000000000E+00  0.10208893898E+04  0.10208893898E+04  0.00000000000E+00 0. -1.
         21   -1    0    0  501  503 -0.00000000000E+00 -0.00000000000E+00 -0.59820944216E+03  0.59820944216E+03  0.00000000000E+00 0. -1.
    9000007    1    1    2  501    0 -0.97142243340E+02 -0.12723937660E+02 -0.47667745469E+03  0.62993643317E+03  0.40000000000E+03 0. -1.
   -9000007    1    1    2    0  502  0.97142243340E+02  0.12723937660E+02  0.89935740230E+03  0.98916239875E+03  0.40000000000E+03 0. -1.
<mgrwt>
<rscale>  2 0.41182340E+03</rscale>
<asrwt>0</asrwt>
<pdfrwt beam="1">  1       21 0.15705991E+00 0.41182340E+03</pdfrwt>
<pdfrwt beam="2">  1       21 0.92032222E-01 0.41182340E+03</pdfrwt>
<totfact> 0.22001811E+02</totfact>
</mgrwt>
</event>
<event>
 4    1  0.4689683E-002  0.4184986E+03  0.7818608E-02  0.1037556E+00
         21   -1    0    0  503  502  0.00000000000E+00  0.00000000000E+00  0.24712622848E+03  0.24712622848E+03  0.00000000000E+00 0.  1.
         21   -1    0    0  501  503 -0.00000000000E+00 -0.00000000000E+00 -0.73190208424E+03  0.73190208424E+03  0.00000000000E+00 0.  1.
    9000007    1    1    2  501    0  0.12115276960E+03 -0.21518811321E+02 -0.15525141256E+03  0.44636762195E+03  0.40000000000E+03 0.  1.
   -9000007    1    1    2    0  502 -0.12115276960E+03  0.21518811321E+02 -0.32952444321E+03  0.53266069077E+03  0.40000000000E+03 0.  1.
<mgrwt>
<rscale>  2 0.41849857E+03</rscale>
<asrwt>0</asrwt>
<pdfrwt beam="1">  1       21 0.38019420E-01 0.41849857E+03</pdfrwt>
<pdfrwt beam="2">  1       21 0.11260032E+00 0.41849857E+03</pdfrwt>
<totfact> 0.36288043E+03</totfact>
</mgrwt>
</event>
<event>
 4    1  0.4689683E-002  0.4123074E+03  0.7818608E-02  0.1039599E+00
         21   -1    0    0  503  502  0.00000000000E+00  0.00000000000E+00  0.22041002529E+03  0.22041002529E+03  0.00000000000E+00 0. -1.
         21   -1    0    0  501  503 -0.00000000000E+00 -0.00000000000E+00 -0.77570596498E+03  0.77570596498E+03  0.00000000000E+00 0. -1.
    9000007    1    1    2  501    0 -0.52242089287E+02 -0.85253292702E+02 -0.24001719540E+03  0.47708030131E+03  0.40000000000E+03 0. -1.
   -9000007    1    1    2    0  502  0.52242089287E+02  0.85253292702E+02 -0.31527874429E+03  0.51903568896E+03  0.40000000000E+03 0. -1.
<mgrwt>
<rscale>  2 0.41230736E+03</rscale>
<asrwt>0</asrwt>
<pdfrwt beam="1">  1       21 0.33909235E-01 0.41230736E+03</pdfrwt>
<pdfrwt beam="2">  1       21 0.11933938E+00 0.41230736E+03</pdfrwt>
<totfact> 0.39656331E+03</totfact>
</mgrwt>
</event>
<event>
 4    1  0.4689683E-002  0.4033885E+03  0.7818608E-02  0.1042613E+00
         21   -1    0    0  501  502  0.00000000000E+00  0.00000000000E+00  0.50506807548E+03  0.50506807548E+03  0.00000000000E+00 0.  1.
         21   -1    0    0  502  503 -0.00000000000E+00 -0.00000000000E+00 -0.33030575333E+03  0.33030575333E+03  0.00000000000E+00 0.  1.
    9000007    1    1    2  501    0  0.15417257119E+02 -0.49845411652E+02  0.15289832275E+03  0.43139327067E+03  0.40000000000E+03 0. -1.
   -9000007    1    1    2    0  503 -0.15417257119E+02  0.49845411652E+02  0.21863999399E+02  0.40398055813E+03  0.40000000000E+03 0. -1.
<mgrwt>
<rscale>  2 0.40338847E+03</rscale>
<asrwt>0</asrwt>
<pdfrwt beam="1">  1       21 0.77702781E-01 0.40338847E+03</pdfrwt>
<pdfrwt beam="2">  1       21 0.50816270E-01 0.40338847E+03</pdfrwt>
<totfact> 0.48332933E+03</totfact>
</mgrwt>
</event>
<event>
 4    1  0.4689683E-002  0.4850373E+03  0.7818608E-02  0.1017760E+00
         21   -1    0    0  503  502  0.00000000000E+00  0.00000000000E+00  0.21075446603E+03  0.21075446603E+03  0.00000000000E+00 0. -1.
         21   -1    0    0  501  503 -0.00000000000E+00 -0.00000000000E+00 -0.24894271926E+04  0.24894271926E+04  0.00000000000E+00 0.  1.
    9000007    1    1    2  501    0  0.22836356002E+03  0.15202381853E+03 -0.21420379406E+04  0.21962667634E+04  0.40000000000E+03 0.  1.
   -9000007    1    1    2    0  502 -0.22836356002E+03 -0.15202381853E+03 -0.13663478600E+03  0.50391489528E+03  0.40000000000E+03 0. -1.
<mgrwt>
<rscale>  2 0.48503727E+03</rscale>
<asrwt>0</asrwt>
<pdfrwt beam="1">  1       21 0.32423762E-01 0.48503727E+03</pdfrwt>
<pdfrwt beam="2">  1       21 0.38298882E+00 0.48503727E+03</pdfrwt>
<totfact> 0.74466844E+01</totfact>
</mgrwt>
</event>
<event>
 4    1  0.4689683E-002  0.4351278E+03  0.7818608E-02  0.1032252E+00
         21   -1    0    0  501  502  0.00000000000E+00  0.00000000000E+00  0.10013764983E+04  0.10013764983E+04  0.00000000000E+00 0.  1.
         21   -1    0    0  502  503 -0.00000000000E+00 -0.00000000000E+00 -0.29730193707E+03  0.29730193707E+03  0.00000000000E+00 0. -1.
    9000007    1    1    2  501    0  0.96471655271E+02  0.14152541912E+03  0.74381390337E+03  0.86173972136E+03  0.40000000000E+03 0.  1.
   -9000007    1    1    2    0  503 -0.96471655271E+02 -0.14152541912E+03 -0.39739342099E+02  0.43693871405E+03  0.40000000000E+03 0. -1.
<mgrwt>
<rscale>  2 0.43512783E+03</rscale>
<asrwt>0</asrwt>
<pdfrwt beam="1">  1       21 0.15405792E+00 0.43512783E+03</pdfrwt>
<pdfrwt beam="2">  1       21 0.45738760E-01 0.43512783E+03</pdfrwt>
<totfact> 0.10859389E+03</totfact>
</mgrwt>
</event>
<event>
 4    1  0.4689683E-002  0.4749887E+03  0.7818608E-02  0.1020522E+00
         21   -1    0    0  501  502  0.00000000000E+00  0.00000000000E+00  0.10499568992E+04  0.10499568992E+04  0.00000000000E+00 0.  1.
         21   -1    0    0  502  503 -0.00000000000E+00 -0.00000000000E+00 -0.21488042111E+03  0.21488042111E+03  0.00000000000E+00 0.  1.
    9000007    1    1    2  501    0  0.22694033076E+03 -0.11879523892E+03  0.41623497673E+03  0.63155821455E+03  0.40000000000E+03 0.  1.
   -9000007    1    1    2    0  503 -0.22694033076E+03  0.11879523892E+03  0.41884150131E+03  0.63327910571E+03  0.40000000000E+03 0.  1.
<mgrwt>
<rscale>  2 0.47498866E+03</rscale>
<asrwt>0</asrwt>
<pdfrwt beam="1">  1       21 0.16153183E+00 0.47498866E+03</pdfrwt>
<pdfrwt beam="2">  1       21 0.33058527E-01 0.47498866E+03</pdfrwt>
<totfact> 0.18244666E+03</totfact>
</mgrwt>
</event>
<event>
 4    1  0.4689683E-002  0.4396038E+03  0.7818608E-02  0.1030868E+00
         21   -1    0    0  503  502  0.00000000000E+00  0.00000000000E+00  0.42153921273E+03  0.42153921273E+03  0.00000000000E+00 0.  1.
         21   -1    0    0  501  503 -0.00000000000E+00 -0.00000000000E+00 -0.46742697362E+03  0.46742697362E+03  0.00000000000E+00 0.  1.
    9000007    1    1    2  501    0  0.17787203667E+03 -0.40162362333E+02 -0.84567253797E+02  0.44766404501E+03  0.40000000000E+03 0.  1.
   -9000007    1    1    2    0  502 -0.17787203667E+03  0.40162362333E+02  0.38679492907E+02  0.44130214134E+03  0.40000000000E+03 0.  1.
<mgrwt>
<rscale>  2 0.43960377E+03</rscale>
<asrwt>0</asrwt>
<pdfrwt beam="1">  1       21 0.64852187E-01 0.43960377E+03</pdfrwt>
<pdfrwt beam="2">  1       21 0.71911842E-01 0.43960377E+03</pdfrwt>
<totfact> 0.33497487E+03</totfact>
</mgrwt>
</event>
<event>
 4    1  0.4689683E-002  0.4218200E+03  0.7818608E-02  0.1036476E+00
         21   -1    0    0  501  502  0.00000000000E+00  0.00000000000E+00  0.76401336914E+03  0.76401336914E+03  0.00000000000E+00 0. -1.
         21   -1    0    0  502  503 -0.00000000000E+00 -0.00000000000E+00 -0.23354332790E+03  0.23354332790E+03  0.00000000000E+00 0.  1.
    9000007    1    1    2  501    0  0.11909406023E+03 -0.61226730465E+02  0.23888147228E+03  0.48476434017E+03  0.40000000000E+03 0.  1.
   -9000007    1    1    2    0  503 -0.11909406023E+03  0.61226730465E+02  0.29158856897E+03  0.51279235687E+03  0.40000000000E+03 0.  1.
<mgrwt>
<rscale>  2 0.42181999E+03</rscale>
<asrwt>0</asrwt>
<pdfrwt beam="1">  1       21 0.11754052E+00 0.42181999E+03</pdfrwt>
<pdfrwt beam="2">  1       21 0.35929743E-01 0.42181999E+03</pdfrwt>
<totfact> 0.36527644E+03</totfact>
</mgrwt>
</event>
<event>
 4    1  0.4689683E-002  0.5577048E+03  0.7818608E-02  0.9997261E-01
         21   -1    0    0  503  502  0.00000000000E+00  0.00000000000E+00  0.16700332276E+03  0.16700332276E+03  0.00000000000E+00 0.  1.
         21   -1    0    0  501  503 -0.00000000000E+00 -0.00000000000E+00 -0.20819521025E+04  0.20819521025E+04  0.00000000000E+00 0.  1.
    9000007    1    1    2  501    0  0.11135967180E+03 -0.37233548213E+03 -0.13225969618E+04  0.14353736138E+04  0.40000000000E+03 0.  1.
   -9000007    1    1    2    0  502 -0.11135967180E+03  0.37233548213E+03 -0.59235181789E+03  0.81358181144E+03  0.40000000000E+03 0.  1.
<mgrwt>
<rscale>  2 0.55770484E+03</rscale>
<asrwt>0</asrwt>
<pdfrwt beam="1">  1       21 0.25692820E-01 0.55770484E+03</pdfrwt>
<pdfrwt beam="2">  1       21 0.32030031E+00 0.55770484E+03</pdfrwt>
<totfact> 0.27720327E+02</totfact>
</mgrwt>
</event>
<event>
 4    1  0.4689683E-002  0.4384009E+03  0.7818608E-02  0.1031239E+00
         21   -1    0    0  503  502  0.00000000000E+00  0.00000000000E+00  0.44712142857E+03  0.44712142857E+03  0.00000000000E+00 0.  1.
         21   -1    0    0  501  503 -0.00000000000E+00 -0.00000000000E+00 -0.46427262292E+03  0.46427262292E+03  0.00000000000E+00 0.  1.
    9000007    1    1    2  501    0  0.87285132650E+02 -0.15676930432E+03 -0.13265775440E+03  0.45803208289E+03  0.40000000000E+03 0.  1.
   -9000007    1    1    2    0  502 -0.87285132650E+02  0.15676930432E+03  0.11550656004E+03  0.45336196860E+03  0.40000000000E+03 0.  1.
<mgrwt>
<rscale>  2 0.43840085E+03</rscale>
<asrwt>0</asrwt>
<pdfrwt beam="1">  1       21 0.68787912E-01 0.43840085E+03</pdfrwt>
<pdfrwt beam="2">  1       21 0.71426557E-01 0.43840085E+03</pdfrwt>
<totfact> 0.29836189E+03</totfact>
</mgrwt>
</event>
<event>
 4    1  0.4689683E-002  0.4338797E+03  0.7818608E-02  0.1032641E+00
         21   -1    0    0  503  502  0.00000000000E+00  0.00000000000E+00  0.65716432881E+03  0.65716432881E+03  0.00000000000E+00 0. -1.
         21   -1    0    0  501  503 -0.00000000000E+00 -0.00000000000E+00 -0.30508724719E+03  0.30508724719E+03  0.00000000000E+00 0. -1.
    9000007    1    1    2  501    0  0.14310218240E+03 -0.88166771319E+02  0.57156771229E+02  0.43762827910E+03  0.40000000000E+03 0. -1.
   -9000007    1    1    2    0  502 -0.14310218240E+03  0.88166771319E+02  0.29492031039E+03  0.52462329690E+03  0.40000000000E+03 0. -1.
<mgrwt>
<rscale>  2 0.43387972E+03</rscale>
<asrwt>0</asrwt>
<pdfrwt beam="1">  1       21 0.10110220E+00 0.43387972E+03</pdfrwt>
<pdfrwt beam="2">  1       21 0.46936500E-01 0.43387972E+03</pdfrwt>
<totfact> 0.30393116E+03</totfact>
</mgrwt>
</event>
<event>
 4    1  0.4689683E-002  0.4854869E+03  0.7818608E-02  0.1017638E+00
         21   -1    0    0  503  502  0.00000000000E+00  0.00000000000E+00  0.14997879144E+04  0.14997879144E+04  0.00000000000E+00 0. -1.
         21   -1    0    0  501  503 -0.00000000000E+00 -0.00000000000E+00 -0.28695955087E+03  0.28695955087E+03  0.00000000000E+00 0.  1.
    9000007    1    1    2  501    0 -0.12876387623E+03 -0.24314064428E+03  0.12072691397E+04  0.13012287595E+04  0.40000000000E+03 0. -1.
   -9000007    1    1    2    0  502  0.12876387623E+03  0.24314064428E+03  0.55592238015E+01  0.48551870581E+03  0.40000000000E+03 0.  1.
<mgrwt>
<rscale>  2 0.48548688E+03</rscale>
<asrwt>0</asrwt>
<pdfrwt beam="1">  1       21 0.23073660E+00 0.48548688E+03</pdfrwt>
<pdfrwt beam="2">  1       21 0.44147624E-01 0.48548688E+03</pdfrwt>
<totfact> 0.33925842E+02</totfact>
</mgrwt>
</event>
<event>
 4    1  0.4689683E-002  0.4208414E+03  0.7818608E-02  0.1036793E+00
         21   -1    0    0  501  502  0.00000000000E+00  0.00000000000E+00  0.31821889300E+03  0.31821889300E+03  0.00000000000E+00 0.  1.
         21   -1    0    0  502  503 -0.00000000000E+00 -0.00000000000E+00 -0.77797643057E+03  0.77797643057E+03  0.00000000000E+00 0.  1.
    9000007    1    1    2  501    0 -0.54718836114E+02  0.11879962851E+03  0.62523607799E+02  0.42546057901E+03  0.40000000000E+03 0.  1.
   -9000007    1    1    2    0  503  0.54718836114E+02 -0.11879962851E+03 -0.52228114536E+03  0.67073474456E+03  0.40000000000E+03 0.  1.
<mgrwt>
<rscale>  2 0.42084142E+03</rscale>
<asrwt>0</asrwt>
<pdfrwt beam="1">  1       21 0.48956753E-01 0.42084142E+03</pdfrwt>
<pdfrwt beam="2">  1       21 0.11968868E+00 0.42084142E+03</pdfrwt>
<totfact> 0.18391083E+03</totfact>
</mgrwt>
</event>
<event>
 4    1  0.4689683E-002  0.4374754E+03  0.7818608E-02  0.1031524E+00
         21   -1    0    0  501  502  0.00000000000E+00  0.00000000000E+00  0.20037454479E+03  0.20037454479E+03  0.00000000000E+00 0.  1.
         21   -1    0    0  502  503 -0.00000000000E+00 -0.00000000000E+00 -0.10380687643E+04  0.10380687643E+04  0.00000000000E+00 0.  1.
    9000007    1    1    2  501    0  0.17059611737E+03  0.47767300363E+02 -0.24382269260E+03  0.50083356085E+03  0.40000000000E+03 0.  1.
   -9000007    1    1    2    0  503 -0.17059611737E+03 -0.47767300363E+02 -0.59387152692E+03  0.73760974826E+03  0.40000000000E+03 0.  1.
<mgrwt>
<rscale>  2 0.43747543E+03</rscale>
<asrwt>0</asrwt>
<pdfrwt beam="1">  1       21 0.30826853E-01 0.43747543E+03</pdfrwt>
<pdfrwt beam="2">  1       21 0.15970289E+00 0.43747543E+03</pdfrwt>
<totfact> 0.21988031E+03</totfact>
</mgrwt>
</event>
<event>
 4    1  0.4689683E-002  0.4579660E+03  0.7818608E-02  0.1025373E+00
         21   -1    0    0  503  502  0.00000000000E+00  0.00000000000E+00  0.23488750042E+03  0.23488750042E+03  0.00000000000E+00 0.  1.
         21   -1    0    0  501  503 -0.00000000000E+00 -0.00000000000E+00 -0.19915139691E+04  0.19915139691E+04  0.00000000000E+00 0.  1.
    9000007    1    1    2  501    0  0.20076277697E+03  0.97093371559E+02 -0.17051178224E+04  0.17655479613E+04  0.40000000000E+03 0.  1.
   -9000007    1    1    2    0  502 -0.20076277697E+03 -0.97093371559E+02 -0.51508646313E+02  0.46085350825E+03  0.40000000000E+03 0.  1.
<mgrwt>
<rscale>  2 0.45796595E+03</rscale>
<asrwt>0</asrwt>
<pdfrwt beam="1">  1       21 0.36136538E-01 0.45796595E+03</pdfrwt>
<pdfrwt beam="2">  1       21 0.30638677E+00 0.45796595E+03</pdfrwt>
<totfact> 0.17983704E+02</totfact>
</mgrwt>
</event>
<event>
 4    1  0.4689683E-002  0.4095661E+03  0.7818608E-02  0.1040517E+00
         21   -1    0    0  503  502  0.00000000000E+00  0.00000000000E+00  0.21087083162E+03  0.21087083162E+03  0.00000000000E+00 0.  1.
         21   -1    0    0  501  503 -0.00000000000E+00 -0.00000000000E+00 -0.94662654794E+03  0.94662654794E+03  0.00000000000E+00 0.  1.
    9000007    1    1    2  501    0  0.44319007775E+02 -0.76027816225E+02 -0.13662141512E+03  0.43175202879E+03  0.40000000000E+03 0.  1.
   -9000007    1    1    2    0  502 -0.44319007775E+02  0.76027816225E+02 -0.59913430120E+03  0.72574535077E+03  0.40000000000E+03 0.  1.
<mgrwt>
<rscale>  2 0.40956612E+03</rscale>
<asrwt>0</asrwt>
<pdfrwt beam="1">  1       21 0.32441666E-01 0.40956612E+03</pdfrwt>
<pdfrwt beam="2">  1       21 0.14563486E+00 0.40956612E+03</pdfrwt>
<totfact> 0.25832765E+03</totfact>
</mgrwt>
</event>
<event>
 4    1  0.4689683E-002  0.4125360E+03  0.7818608E-02  0.1039523E+00
         21   -1    0    0  501  502  0.00000000000E+00  0.00000000000E+00  0.13972395912E+04  0.13972395912E+04  0.00000000000E+00 0. -1.
         21   -1    0    0  502  503 -0.00000000000E+00 -0.00000000000E+00 -0.47912832259E+03  0.47912832259E+03  0.00000000000E+00 0. -1.
    9000007    1    1    2  501    0  0.82279262774E+02  0.58447517478E+02  0.12692604879E+04  0.13346191126E+04  0.40000000000E+03 0. -1.
   -9000007    1    1    2    0  503 -0.82279262774E+02 -0.58447517478E+02 -0.35114921933E+03  0.54174880122E+03  0.40000000000E+03 0. -1.
<mgrwt>
<rscale>  2 0.41253605E+03</rscale>
<asrwt>0</asrwt>
<pdfrwt beam="1">  1       21 0.21495994E+00 0.41253605E+03</pdfrwt>
<pdfrwt beam="2">  1       21 0.73712050E-01 0.41253605E+03</pdfrwt>
<totfact> 0.14591764E+02</totfact>
</mgrwt>
</event>
<event>
 4    1  0.4689683E-002  0.5120640E+03  0.7818608E-02  0.1010677E+00
         21   -1    0    0  503  502  0.00000000000E+00  0.00000000000E+00  0.25539784407E+04  0.25539784407E+04  0.00000000000E+00 0. -1.
         21   -1    0    0  501  503 -0.00000000000E+00 -0.00000000000E+00 -0.18155112980E+03  0.18155112980E+03  0.00000000000E+00 0. -1.
    9000007    1    1    2  501    0  0.18825524945E+03 -0.25839802678E+03  0.28462909950E+03  0.58585262948E+03  0.40000000000E+03 0. -1.
   -9000007    1    1    2    0  502 -0.18825524945E+03  0.25839802678E+03  0.20877982114E+04  0.21496769410E+04  0.40000000000E+03 0. -1.
<mgrwt>
<rscale>  2 0.51206404E+03</rscale>
<asrwt>0</asrwt>
<pdfrwt beam="1">  1       21 0.39291973E+00 0.51206404E+03</pdfrwt>
<pdfrwt beam="2">  1       21 0.27930945E-01 0.51206404E+03</pdfrwt>
<totfact> 0.85206389E+01</totfact>
</mgrwt>
</event>
<event>
 4    1  0.4689683E-002  0.7525795E+03  0.7818608E-02  0.9631312E-01
         21   -1    0    0  503  502  0.00000000000E+00  0.00000000000E+00  0.66627114600E+03  0.66627114600E+03  0.00000000000E+00 0.  1.
         21   -1    0    0  501  503 -0.00000000000E+00 -0.00000000000E+00 -0.91577298099E+03  0.91577298099E+03  0.00000000000E+00 0. -1.
    9000007    1    1    2  501    0  0.60228438714E+03 -0.20887672716E+03 -0.33663234525E+03  0.82443756950E+03  0.40000000000E+03 0. -1.
   -9000007    1    1    2    0  502 -0.60228438714E+03  0.20887672716E+03  0.87130510255E+02  0.75760655749E+03  0.40000000000E+03 0. -1.
<mgrwt>
<rscale>  2 0.75257954E+03</rscale>
<asrwt>0</asrwt>
<pdfrwt beam="1">  1       21 0.10250325E+00 0.75257954E+03</pdfrwt>
<pdfrwt beam="2">  1       21 0.14088815E+00 0.75257954E+03</pdfrwt>
<totfact> 0.19903248E+02</totfact>
</mgrwt>
</event>
<event>
 4    1  0.4689683E-002  0.5169777E+03  0.7818608E-02  0.1009440E+00
         21   -1    0    0  503  502  0.00000000000E+00  0.00000000000E+00  0.23960581864E+03  0.23960581864E+03  0.00000000000E+00 0. -1.
         21   -1    0    0  501  503 -0.00000000000E+00 -0.00000000000E+00 -0.19010327074E+04  0.19010327074E+04  0.00000000000E+00 0. -1.
    9000007    1    1    2  501    0 -0.14665824883E+02  0.32718631624E+03 -0.15187590134E+04  0.16043362842E+04  0.40000000000E+03 0. -1.
   -9000007    1    1    2    0  502  0.14665824883E+02 -0.32718631624E+03 -0.14266787535E+03  0.53630224185E+03  0.40000000000E+03 0. -1.
<mgrwt>
<rscale>  2 0.51697773E+03</rscale>
<asrwt>0</asrwt>
<pdfrwt beam="1">  1       21 0.36862434E-01 0.51697773E+03</pdfrwt>
<pdfrwt beam="2">  1       21 0.29246657E+00 0.51697773E+03</pdfrwt>
<totfact> 0.20268312E+02</totfact>
</mgrwt>
</event>
<event>
 4    1  0.4689683E-002  0.4572995E+03  0.7818608E-02  0.1025567E+00
         21   -1    0    0  503  502  0.00000000000E+00  0.00000000000E+00  0.11066979798E+04  0.11066979798E+04  0.00000000000E+00 0.  1.
         21   -1    0    0  501  503 -0.00000000000E+00 -0.00000000000E+00 -0.18912453109E+03  0.18912453109E+03  0.00000000000E+00 0.  1.
    9000007    1    1    2  501    0  0.11038021236E+03 -0.19219522042E+03  0.47783682491E+03  0.66140065412E+03  0.40000000000E+03 0.  1.
   -9000007    1    1    2    0  502 -0.11038021236E+03  0.19219522042E+03  0.43973662379E+03  0.63442185676E+03  0.40000000000E+03 0.  1.
<mgrwt>
<rscale>  2 0.45729946E+03</rscale>
<asrwt>0</asrwt>
<pdfrwt beam="1">  1       21 0.17026122E+00 0.45729946E+03</pdfrwt>
<pdfrwt beam="2">  1       21 0.29096082E-01 0.45729946E+03</pdfrwt>
<totfact> 0.20430211E+03</totfact>
</mgrwt>
</event>
<event>
 4    1  0.4689683E-002  0.4440964E+03  0.7818608E-02  0.1029497E+00
         21   -1    0    0  501  502  0.00000000000E+00  0.00000000000E+00  0.58046939308E+03  0.58046939308E+03  0.00000000000E+00 0. -1.
         21   -1    0    0  502  503 -0.00000000000E+00 -0.00000000000E+00 -0.89557895646E+03  0.89557895646E+03  0.00000000000E+00 0. -1.
    9000007    1    1    2  501    0 -0.64326520536E+02 -0.18188926583E+03  0.42385780982E+03  0.61390312690E+03  0.40000000000E+03 0. -1.
   -9000007    1    1    2    0  503  0.64326520536E+02  0.18188926583E+03 -0.73896737320E+03  0.86214522264E+03  0.40000000000E+03 0. -1.
<mgrwt>
<rscale>  2 0.44409639E+03</rscale>
<asrwt>0</asrwt>
<pdfrwt beam="1">  1       21 0.89302984E-01 0.44409639E+03</pdfrwt>
<pdfrwt beam="2">  1       21 0.13778138E+00 0.44409639E+03</pdfrwt>
<totfact> 0.33079386E+02</totfact>
</mgrwt>
</event>
<event>
 4    1  0.4689683E-002  0.4802231E+03  0.7818608E-02  0.1019074E+00
         21   -1    0    0  501  502  0.00000000000E+00  0.00000000000E+00  0.40614457946E+03  0.40614457946E+03  0.00000000000E+00 0.  1.
         21   -1    0    0  502  503 -0.00000000000E+00 -0.00000000000E+00 -0.70409512243E+03  0.70409512243E+03  0.00000000000E+00 0.  1.
    9000007    1    1    2  501    0 -0.21812243896E+03 -0.15177890593E+03  0.95249824423E+02  0.48957814873E+03  0.40000000000E+03 0.  1.
   -9000007    1    1    2    0  503  0.21812243896E+03  0.15177890593E+03 -0.39320036739E+03  0.62066155317E+03  0.40000000000E+03 0.  1.
<mgrwt>
<rscale>  2 0.48022311E+03</rscale>
<asrwt>0</asrwt>
<pdfrwt beam="1">  1       21 0.62483782E-01 0.48022311E+03</pdfrwt>
<pdfrwt beam="2">  1       21 0.10832233E+00 0.48022311E+03</pdfrwt>
<totfact> 0.13605061E+03</totfact>
</mgrwt>
</event>
<event>
 4    1  0.4689683E-002  0.4328984E+03  0.7818608E-02  0.1032948E+00
         21   -1    0    0  503  502  0.00000000000E+00  0.00000000000E+00  0.63091041835E+03  0.63091041835E+03  0.00000000000E+00 0. -1.
         21   -1    0    0  501  503 -0.00000000000E+00 -0.00000000000E+00 -0.49248913878E+03  0.49248913878E+03  0.00000000000E+00 0.  1.
    9000007    1    1    2  501    0  0.16552146479E+03 -0.19168301315E+01 -0.28464889888E+03  0.51809847054E+03  0.40000000000E+03 0.  1.
   -9000007    1    1    2    0  502 -0.16552146479E+03  0.19168301315E+01  0.42307017845E+03  0.60530108660E+03  0.40000000000E+03 0. -1.
<mgrwt>
<rscale>  2 0.43289841E+03</rscale>
<asrwt>0</asrwt>
<pdfrwt beam="1">  1       21 0.97063142E-01 0.43289841E+03</pdfrwt>
<pdfrwt beam="2">  1       21 0.75767559E-01 0.43289841E+03</pdfrwt>
<totfact> 0.11760890E+03</totfact>
</mgrwt>
</event>
<event>
 4    1  0.4689683E-002  0.4481502E+03  0.7818608E-02  0.1028275E+00
         21   -1    0    0  503  502  0.00000000000E+00  0.00000000000E+00  0.13005275121E+03  0.13005275121E+03  0.00000000000E+00 0.  1.
         21   -1    0    0  501  503 -0.00000000000E+00 -0.00000000000E+00 -0.15443735914E+04  0.15443735914E+04  0.00000000000E+00 0.  1.
    9000007    1    1    2  501    0 -0.11736756795E+02 -0.20174450792E+03 -0.71347794892E+03  0.84254933478E+03  0.40000000000E+03 0. -1.
   -9000007    1    1    2    0  502  0.11736756795E+02  0.20174450792E+03 -0.70084289130E+03  0.83187700787E+03  0.40000000000E+03 0. -1.
<mgrwt>
<rscale>  2 0.44815020E+03</rscale>
<asrwt>0</asrwt>
<pdfrwt beam="1">  1       21 0.20008116E-01 0.44815020E+03</pdfrwt>
<pdfrwt beam="2">  1       21 0.23759594E+00 0.44815020E+03</pdfrwt>
<totfact> 0.15109672E+03</totfact>
</mgrwt>
</event>
<event>
 4    1  0.4689683E-002  0.4233826E+03  0.7818608E-02  0.1035971E+00
         21   -1    0    0  503  502  0.00000000000E+00  0.00000000000E+00  0.59142952448E+03  0.59142952448E+03  0.00000000000E+00 0.  1.
         21   -1    0    0  501  503 -0.00000000000E+00 -0.00000000000E+00 -0.42541048866E+03  0.42541048866E+03  0.00000000000E+00 0.  1.
    9000007    1    1    2  501    0 -0.30225837317E+02  0.13542249781E+03 -0.18962365976E+03  0.46390730378E+03  0.40000000000E+03 0.  1.
   -9000007    1    1    2    0  502  0.30225837317E+02 -0.13542249781E+03  0.35564269558E+03  0.55293270936E+03  0.40000000000E+03 0.  1.
<mgrwt>
<rscale>  2 0.42338263E+03</rscale>
<asrwt>0</asrwt>
<pdfrwt beam="1">  1       21 0.90989158E-01 0.42338263E+03</pdfrwt>
<pdfrwt beam="2">  1       21 0.65447767E-01 0.42338263E+03</pdfrwt>
<totfact> 0.19158534E+03</totfact>
</mgrwt>
</event>
<event>
 4    1  0.4689683E-002  0.4791764E+03  0.7818608E-02  0.1019362E+00
         21   -1    0    0  503  502  0.00000000000E+00  0.00000000000E+00  0.20318632997E+03  0.20318632997E+03  0.00000000000E+00 0.  1.
         21   -1    0    0  501  503 -0.00000000000E+00 -0.00000000000E+00 -0.12180883793E+04  0.12180883793E+04  0.00000000000E+00 0.  1.
    9000007    1    1    2  501    0  0.26246503320E+03  0.26871626203E+02 -0.69850389417E+03  0.84706414640E+03  0.40000000000E+03 0.  1.
   -9000007    1    1    2    0  502 -0.26246503320E+03 -0.26871626203E+02 -0.31639815521E+03  0.57421056292E+03  0.40000000000E+03 0.  1.
<mgrwt>
<rscale>  2 0.47917635E+03</rscale>
<asrwt>0</asrwt>
<pdfrwt beam="1">  1       21 0.31259436E-01 0.47917635E+03</pdfrwt>
<pdfrwt beam="2">  1       21 0.18739821E+00 0.47917635E+03</pdfrwt>
<totfact> 0.13272619E+03</totfact>
</mgrwt>
</event>
<event>
 4    1  0.4689683E-002  0.4304900E+03  0.7818608E-02  0.1033705E+00
         21   -1    0    0  503  502  0.00000000000E+00  0.00000000000E+00  0.34142636815E+03  0.34142636815E+03  0.00000000000E+00 0. -1.
         21   -1    0    0  501  503 -0.00000000000E+00 -0.00000000000E+00 -0.54918242174E+03  0.54918242174E+03  0.00000000000E+00 0. -1.
    9000007    1    1    2  501    0  0.15806171322E+03 -0.18388368344E+02 -0.55821889960E+02  0.43409413803E+03  0.40000000000E+03 0. -1.
   -9000007    1    1    2    0  502 -0.15806171322E+03  0.18388368344E+02 -0.15193416363E+03  0.45651465185E+03  0.40000000000E+03 0. -1.
<mgrwt>
<rscale>  2 0.43049000E+03</rscale>
<asrwt>0</asrwt>
<pdfrwt beam="1">  1       21 0.52527134E-01 0.43049000E+03</pdfrwt>
<pdfrwt beam="2">  1       21 0.84489603E-01 0.43049000E+03</pdfrwt>
<totfact> 0.36742656E+03</totfact>
</mgrwt>
</event>
<event>
 4    1  0.4689683E-002  0.4692844E+03  0.7818608E-02  0.1022122E+00
         21   -1    0    0  501  502  0.00000000000E+00  0.00000000000E+00  0.14293867203E+03  0.14293867203E+03  0.00000000000E+00 0. -1.
         21   -1    0    0  502  503 -0.00000000000E+00 -0.00000000000E+00 -0.15801852338E+04  0.15801852338E+04  0.00000000000E+00 0. -1.
    9000007    1    1    2  501    0 -0.23788082592E+03 -0.60337267845E+02 -0.58245910799E+03  0.74798829250E+03  0.40000000000E+03 0. -1.
   -9000007    1    1    2    0  503  0.23788082592E+03  0.60337267845E+02 -0.85478745373E+03  0.97513561328E+03  0.40000000000E+03 0. -1.
<mgrwt>
<rscale>  2 0.46928443E+03</rscale>
<asrwt>0</asrwt>
<pdfrwt beam="1">  1       21 0.21990566E-01 0.46928443E+03</pdfrwt>
<pdfrwt beam="2">  1       21 0.24310541E+00 0.46928443E+03</pdfrwt>
<totfact> 0.11540887E+03</totfact>
</mgrwt>
</event>
<event>
 4    1  0.4689683E-002  0.4595107E+03  0.7818608E-02  0.1024923E+00
         21   -1    0    0  503  502  0.00000000000E+00  0.00000000000E+00  0.65322720989E+03  0.65322720989E+03  0.00000000000E+00 0.  1.
         21   -1    0    0  501  503 -0.00000000000E+00 -0.00000000000E+00 -0.36033786712E+03  0.36033786712E+03  0.00000000000E+00 0. -1.
    9000007    1    1    2  501    0 -0.21201804373E+03  0.78729950147E+02 -0.16160054289E+02  0.45979474037E+03  0.40000000000E+03 0. -1.
   -9000007    1    1    2    0  502  0.21201804373E+03 -0.78729950147E+02  0.30904939706E+03  0.55377033664E+03  0.40000000000E+03 0.  1.
<mgrwt>
<rscale>  2 0.45951067E+03</rscale>
<asrwt>0</asrwt>
<pdfrwt beam="1">  1       21 0.10049649E+00 0.45951067E+03</pdfrwt>
<pdfrwt beam="2">  1       21 0.55436595E-01 0.45951067E+03</pdfrwt>
<totfact> 0.21419729E+03</totfact>
</mgrwt>
</event>
<event>
 4    1  0.4689683E-002  0.4027707E+03  0.7818608E-02  0.1042824E+00
         21   -1    0    0  503  502  0.00000000000E+00  0.00000000000E+00  0.63843031158E+03  0.63843031158E+03  0.00000000000E+00 0. -1.
         21   -1    0    0  501  503 -0.00000000000E+00 -0.00000000000E+00 -0.25494200697E+03  0.25494200697E+03  0.00000000000E+00 0. -1.
    9000007    1    1    2  501    0 -0.43157676077E+02  0.19016876075E+02  0.21743681865E+03  0.45771497319E+03  0.40000000000E+03 0. -1.
   -9000007    1    1    2    0  502  0.43157676077E+02 -0.19016876075E+02  0.16605148596E+03  0.43565734537E+03  0.40000000000E+03 0. -1.
<mgrwt>
<rscale>  2 0.40277069E+03</rscale>
<asrwt>0</asrwt>
<pdfrwt beam="1">  1       21 0.98220047E-01 0.40277069E+03</pdfrwt>
<pdfrwt beam="2">  1       21 0.39221847E-01 0.40277069E+03</pdfrwt>
<totfact> 0.47892648E+03</totfact>
</mgrwt>
</event>
<event>
 4    1  0.4689683E-002  0.4500007E+03  0.7818608E-02  0.1027722E+00
         21   -1    0    0  503  502  0.00000000000E+00  0.00000000000E+00  0.18578580296E+03  0.18578580296E+03  0.00000000000E+00 0.  1.
         21   -1    0    0  501  503 -0.00000000000E+00 -0.00000000000E+00 -0.12101322035E+04  0.12101322035E+04  0.00000000000E+00 0. -1.
    9000007    1    1    2  501    0 -0.19056894206E+03 -0.78639114289E+02 -0.73211134426E+03  0.85935304292E+03  0.40000000000E+03 0. -1.
   -9000007    1    1    2    0  502  0.19056894206E+03  0.78639114289E+02 -0.29223505624E+03  0.53656496351E+03  0.40000000000E+03 0. -1.
<mgrwt>
<rscale>  2 0.45000070E+03</rscale>
<asrwt>0</asrwt>
<pdfrwt beam="1">  1       21 0.28582430E-01 0.45000070E+03</pdfrwt>
<pdfrwt beam="2">  1       21 0.18617419E+00 0.45000070E+03</pdfrwt>
<totfact> 0.16368953E+03</totfact>
</mgrwt>
</event>
<event>
 4    1  0.4689683E-002  0.4572263E+03  0.7818608E-02  0.1025589E+00
         21   -1    0    0  501  502  0.00000000000E+00  0.00000000000E+00  0.95485381525E+03  0.95485381525E+03  0.00000000000E+00 0. -1.
         21   -1    0    0  502  503 -0.00000000000E+00 -0.00000000000E+00 -0.22033696590E+03  0.22033696590E+03  0.00000000000E+00 0. -1.
    9000007    1    1    2  501    0 -0.22127948415E+03  0.95545551597E+01  0.32047476688E+03  0.55835470432E+03  0.40000000000E+03 0. -1.
   -9000007    1    1    2    0  503  0.22127948415E+03 -0.95545551597E+01  0.41404208247E+03  0.61683607683E+03  0.40000000000E+03 0. -1.
<mgrwt>
<rscale>  2 0.45722631E+03</rscale>
<asrwt>0</asrwt>
<pdfrwt beam="1">  1       21 0.14690058E+00 0.45722631E+03</pdfrwt>
<pdfrwt beam="2">  1       21 0.33897995E-01 0.45722631E+03</pdfrwt>
<totfact> 0.22671087E+03</totfact>
</mgrwt>
</event>
<event>
 4    1  0.4689683E-002  0.4118344E+03  0.7818608E-02  0.1039757E+00
         21   -1    0    0  503  502  0.00000000000E+00  0.00000000000E+00  0.73852322285E+03  0.73852322285E+03  0.00000000000E+00 0.  1.
         21   -1    0    0  501  503 -0.00000000000E+00 -0.00000000000E+00 -0.54729260436E+03  0.54729260436E+03  0.00000000000E+00 0.  1.
    9000007    1    1    2  501    0  0.92478940389E+02  0.32483939641E+02 -0.39416698040E+03  0.57006593407E+03  0.40000000000E+03 0.  1.
   -9000007    1    1    2    0  502 -0.92478940389E+02 -0.32483939641E+02  0.58539759889E+03  0.71574989314E+03  0.40000000000E+03 0.  1.
<mgrwt>
<rscale>  2 0.41183439E+03</rscale>
<asrwt>0</asrwt>
<pdfrwt beam="1">  1       21 0.11361896E+00 0.41183439E+03</pdfrwt>
<pdfrwt beam="2">  1       21 0.84198863E-01 0.41183439E+03</pdfrwt>
<totfact> 0.63248506E+02</totfact>
</mgrwt>
</event>
<event>
 4    1  0.4689683E-002  0.4883404E+03  0.7818608E-02  0.1016868E+00
         21   -1    0    0  501  502  0.00000000000E+00  0.00000000000E+00  0.15579227951E+03  0.15579227951E+03  0.00000000000E+00 0. -1.
         21   -1    0    0  502  503 -0.00000000000E+00 -0.00000000000E+00 -0.16169469819E+04  0.16169469819E+04  0.00000000000E+00 0. -1.
    9000007    1    1    2  501    0  0.27443248256E+03  0.56241821111E+02 -0.52590617092E+03  0.71767236992E+03  0.40000000000E+03 0. -1.
   -9000007    1    1    2    0  503 -0.27443248256E+03 -0.56241821111E+02 -0.93524853148E+03  0.10550668915E+04  0.40000000000E+03 0. -1.
<mgrwt>
<rscale>  2 0.48834038E+03</rscale>
<asrwt>0</asrwt>
<pdfrwt beam="1">  1       21 0.23968044E-01 0.48834038E+03</pdfrwt>
<pdfrwt beam="2">  1       21 0.24876106E+00 0.48834038E+03</pdfrwt>
<totfact> 0.89362532E+02</totfact>
</mgrwt>
</event>
<event>
 4    1  0.4689683E-002  0.4184677E+03  0.7818608E-02  0.1037566E+00
         21   -1    0    0  501  502  0.00000000000E+00  0.00000000000E+00  0.67606628600E+03  0.67606628600E+03  0.00000000000E+00 0. -1.
         21   -1    0    0  502  503 -0.00000000000E+00 -0.00000000000E+00 -0.29375525715E+03  0.29375525715E+03  0.00000000000E+00 0. -1.
    9000007    1    1    2  501    0 -0.10353058526E+03  0.66307051239E+02  0.35789923179E+03  0.55064241323E+03  0.40000000000E+03 0. -1.
   -9000007    1    1    2    0  503  0.10353058526E+03 -0.66307051239E+02  0.24411797057E+02  0.41917912992E+03  0.40000000000E+03 0. -1.
<mgrwt>
<rscale>  2 0.41846769E+03</rscale>
<asrwt>0</asrwt>
<pdfrwt beam="1">  1       21 0.10401020E+00 0.41846769E+03</pdfrwt>
<pdfrwt beam="2">  1       21 0.45193117E-01 0.41846769E+03</pdfrwt>
<totfact> 0.30880107E+03</totfact>
</mgrwt>
</event>
<event>
 4    1  0.4689683E-002  0.4030803E+03  0.7818608E-02  0.1042718E+00
         21   -1    0    0  501  502  0.00000000000E+00  0.00000000000E+00  0.19273390662E+04  0.19273390662E+04  0.00000000000E+00 0.  1.
         21   -1    0    0  502  503 -0.00000000000E+00 -0.00000000000E+00 -0.99226913697E+02  0.99226913697E+02  0.00000000000E+00 0.  1.
    9000007    1    1    2  501    0  0.13755492185E+02  0.47796631793E+02  0.13070702423E+04  0.13678107873E+04  0.40000000000E+03 0.  1.
   -9000007    1    1    2    0  503 -0.13755492185E+02 -0.47796631793E+02  0.52104191022E+03  0.65875519260E+03  0.40000000000E+03 0.  1.
<mgrwt>
<rscale>  2 0.40308030E+03</rscale>
<asrwt>0</asrwt>
<pdfrwt beam="1">  1       21 0.29651368E+00 0.40308030E+03</pdfrwt>
<pdfrwt beam="2">  1       21 0.15265680E-01 0.40308030E+03</pdfrwt>
<totfact> 0.11293288E+03</totfact>
</mgrwt>
</event>
<event>
 4    1  0.4689683E-002  0.4062476E+03  0.7818608E-02  0.1041638E+00
         21   -1    0    0  503  502  0.00000000000E+00  0.00000000000E+00  0.45617794342E+03  0.45617794342E+03  0.00000000000E+00 0.  1.
         21   -1    0    0  501  503 -0.00000000000E+00 -0.00000000000E+00 -0.43550259638E+03  0.43550259638E+03  0.00000000000E+00 0.  1.
    9000007    1    1    2  501    0 -0.34090046061E+02 -0.62249329096E+02  0.19377065500E+03  0.45009352023E+03  0.40000000000E+03 0.  1.
   -9000007    1    1    2    0  502  0.34090046061E+02  0.62249329096E+02 -0.17309530796E+03  0.44158701957E+03  0.40000000000E+03 0.  1.
<mgrwt>
<rscale>  2 0.40624760E+03</rscale>
<asrwt>0</asrwt>
<pdfrwt beam="1">  1       21 0.70181222E-01 0.40624760E+03</pdfrwt>
<pdfrwt beam="2">  1       21 0.67000399E-01 0.40624760E+03</pdfrwt>
<totfact> 0.33323353E+03</totfact>
</mgrwt>
</event>
<event>
 4    1  0.4689683E-002  0.4095314E+03  0.7818608E-02  0.1040528E+00
         21   -1    0    0  503  502  0.00000000000E+00  0.00000000000E+00  0.11720124034E+04  0.11720124034E+04  0.00000000000E+00 0. -1.
         21   -1    0    0  501  503 -0.00000000000E+00 -0.00000000000E+00 -0.23961161030E+03  0.23961161030E+03  0.00000000000E+00 0. -1.
    9000007    1    1    2  501    0 -0.64610909173E+02  0.59509561907E+02  0.18257135146E+02  0.40993814232E+03  0.40000000000E+03 0. -1.
   -9000007    1    1    2    0  502  0.64610909173E+02 -0.59509561907E+02  0.91414365791E+03  0.10016858713E+04  0.40000000000E+03 0. -1.
<mgrwt>
<rscale>  2 0.40953139E+03</rscale>
<asrwt>0</asrwt>
<pdfrwt beam="1">  1       21 0.18030960E+00 0.40953139E+03</pdfrwt>
<pdfrwt beam="2">  1       21 0.36863325E-01 0.40953139E+03</pdfrwt>
<totfact> 0.11001044E+03</totfact>
</mgrwt>
</event>
<event>
 4    1  0.4689683E-002  0.4849803E+03  0.7818608E-02  0.1017775E+00
         21   -1    0    0  501  502  0.00000000000E+00  0.00000000000E+00  0.10852142615E+04  0.10852142615E+04  0.00000000000E+00 0. -1.
         21   -1    0    0  502  503 -0.00000000000E+00 -0.00000000000E+00 -0.31544384636E+03  0.31544384636E+03  0.00000000000E+00 0. -1.
    9000007    1    1    2  501    0  0.26875371023E+03  0.54564797579E+02  0.77664077498E+03  0.91562916471E+03  0.40000000000E+03 0. -1.
   -9000007    1    1    2    0  503 -0.26875371023E+03 -0.54564797579E+02 -0.68703597980E+01  0.48502894320E+03  0.40000000000E+03 0. -1.
<mgrwt>
<rscale>  2 0.48498028E+03</rscale>
<asrwt>0</asrwt>
<pdfrwt beam="1">  1       21 0.16695604E+00 0.48498028E+03</pdfrwt>
<pdfrwt beam="2">  1       21 0.48529823E-01 0.48498028E+03</pdfrwt>
<totfact> 0.74948770E+02</totfact>
</mgrwt>
</event>
<event>
 4    1  0.4689683E-002  0.5159797E+03  0.7818608E-02  0.1009690E+00
         21   -1    0    0  503  502  0.00000000000E+00  0.00000000000E+00  0.75546450976E+03  0.75546450976E+03  0.00000000000E+00 0.  1.
         21   -1    0    0  501  503 -0.00000000000E+00 -0.00000000000E+00 -0.53476317920E+03  0.53476317920E+03  0.00000000000E+00 0.  1.
    9000007    1    1    2  501    0  0.16071012434E+03  0.28356183731E+03 -0.26636131136E+03  0.58067495885E+03  0.40000000000E+03 0.  1.
   -9000007    1    1    2    0  502 -0.16071012434E+03 -0.28356183731E+03  0.48706264192E+03  0.70955273011E+03  0.40000000000E+03 0.  1.
<mgrwt>
<rscale>  2 0.51597971E+03</rscale>
<asrwt>0</asrwt>
<pdfrwt beam="1">  1       21 0.11622531E+00 0.51597971E+03</pdfrwt>
<pdfrwt beam="2">  1       21 0.82271258E-01 0.51597971E+03</pdfrwt>
<totfact> 0.60321207E+02</totfact>
</mgrwt>
</event>
<event>
 4    1  0.4689683E-002  0.4269638E+03  0.7818608E-02  0.1034823E+00
         21   -1    0    0  503  502  0.00000000000E+00  0.00000000000E+00  0.10342185607E+04  0.10342185607E+04  0.00000000000E+00 0. -1.
         21   -1    0    0  501  503 -0.00000000000E+00 -0.00000000000E+00 -0.65013989157E+03  0.65013989157E+03  0.00000000000E+00 0. -1.
    9000007    1    1    2  501    0  0.14430984929E+03  0.38376005354E+02 -0.52696630157E+03  0.67822675661E+03  0.40000000000E+03 0. -1.
   -9000007    1    1    2    0  502 -0.14430984929E+03 -0.38376005354E+02  0.91104497065E+03  0.10061316956E+04  0.40000000000E+03 0. -1.
<mgrwt>
<rscale>  2 0.42696376E+03</rscale>
<asrwt>0</asrwt>
<pdfrwt beam="1">  1       21 0.15911055E+00 0.42696376E+03</pdfrwt>
<pdfrwt beam="2">  1       21 0.10002152E+00 0.42696376E+03</pdfrwt>
<totfact> 0.17239756E+02</totfact>
</mgrwt>
</event>
<event>
 4    1  0.4689683E-002  0.4027020E+03  0.7818608E-02  0.1042848E+00
         21   -1    0    0  501  502  0.00000000000E+00  0.00000000000E+00  0.34092984375E+03  0.34092984375E+03  0.00000000000E+00 0.  1.
         21   -1    0    0  502  503 -0.00000000000E+00 -0.00000000000E+00 -0.47680724051E+03  0.47680724051E+03  0.00000000000E+00 0.  1.
    9000007    1    1    2  501    0  0.22960688996E+02  0.40518251235E+02 -0.47940238451E+02  0.40554554416E+03  0.40000000000E+03 0.  1.
   -9000007    1    1    2    0  503 -0.22960688996E+02 -0.40518251235E+02 -0.87937158311E+02  0.41219154010E+03  0.40000000000E+03 0.  1.
<mgrwt>
<rscale>  2 0.40270203E+03</rscale>
<asrwt>0</asrwt>
<pdfrwt beam="1">  1       21 0.52450745E-01 0.40270203E+03</pdfrwt>
<pdfrwt beam="2">  1       21 0.73354960E-01 0.40270203E+03</pdfrwt>
<totfact> 0.51523686E+03</totfact>
</mgrwt>
</event>
<event>
 4    1  0.4689683E-002  0.5688019E+03  0.7818608E-02  0.9972333E-01
         21   -1    0    0  503  502  0.00000000000E+00  0.00000000000E+00  0.20965111233E+03  0.20965111233E+03  0.00000000000E+00 0. -1.
         21   -1    0    0  501  503 -0.00000000000E+00 -0.00000000000E+00 -0.21139007033E+04  0.21139007033E+04  0.00000000000E+00 0.  1.
    9000007    1    1    2  501    0 -0.21829059817E+03  0.34041858765E+03 -0.15557684534E+04  0.16564875733E+04  0.40000000000E+03 0.  1.
   -9000007    1    1    2    0  502  0.21829059817E+03 -0.34041858765E+03 -0.34848113754E+03  0.66706424225E+03  0.40000000000E+03 0. -1.
<mgrwt>
<rscale>  2 0.56880190E+03</rscale>
<asrwt>0</asrwt>
<pdfrwt beam="1">  1       21 0.32254017E-01 0.56880190E+03</pdfrwt>
<pdfrwt beam="2">  1       21 0.32521549E+00 0.56880190E+03</pdfrwt>
<totfact> 0.16375965E+02</totfact>
</mgrwt>
</event>
<event>
 4    1  0.4689683E-002  0.4806342E+03  0.7818608E-02  0.1018961E+00
         21   -1    0    0  501  502  0.00000000000E+00  0.00000000000E+00  0.50944397206E+03  0.50944397206E+03  0.00000000000E+00 0. -1.
         21   -1    0    0  502  503 -0.00000000000E+00 -0.00000000000E+00 -0.46848760968E+03  0.46848760968E+03  0.00000000000E+00 0.  1.
    9000007    1    1    2  501    0  0.72261803294E+02 -0.25649066989E+03 -0.67114136272E+02  0.48529737197E+03  0.40000000000E+03 0.  1.
   -9000007    1    1    2    0  503 -0.72261803294E+02  0.25649066989E+03  0.10807049866E+03  0.49263420977E+03  0.40000000000E+03 0.  1.
<mgrwt>
<rscale>  2 0.48063420E+03</rscale>
<asrwt>0</asrwt>
<pdfrwt beam="1">  1       21 0.78375996E-01 0.48063420E+03</pdfrwt>
<pdfrwt beam="2">  1       21 0.72075017E-01 0.48063420E+03</pdfrwt>
<totfact> 0.21404353E+03</totfact>
</mgrwt>
</event>
<event>
 4    1  0.4689683E-002  0.4370006E+03  0.7818608E-02  0.1031671E+00
         21   -1    0    0  501  502  0.00000000000E+00  0.00000000000E+00  0.12092742676E+04  0.12092742676E+04  0.00000000000E+00 0.  1.
         21   -1    0    0  502  503 -0.00000000000E+00 -0.00000000000E+00 -0.40242880302E+03  0.40242880302E+03  0.00000000000E+00 0.  1.
    9000007    1    1    2  501    0  0.12670043387E+02 -0.17552487810E+03  0.10315636476E+04  0.11203093643E+04  0.40000000000E+03 0.  1.
   -9000007    1    1    2    0  503 -0.12670043387E+02  0.17552487810E+03 -0.22471818298E+03  0.49139370630E+03  0.40000000000E+03 0.  1.
<mgrwt>
<rscale>  2 0.43700059E+03</rscale>
<asrwt>0</asrwt>
<pdfrwt beam="1">  1       21 0.18604219E+00 0.43700059E+03</pdfrwt>
<pdfrwt beam="2">  1       21 0.61912124E-01 0.43700059E+03</pdfrwt>
<totfact> 0.33102662E+02</totfact>
</mgrwt>
</event>
<event>
 4    1  0.4689683E-002  0.4374384E+03  0.7818608E-02  0.1031536E+00
         21   -1    0    0  503  502  0.00000000000E+00  0.00000000000E+00  0.12265095571E+04  0.12265095571E+04  0.00000000000E+00 0.  1.
         21   -1    0    0  501  503 -0.00000000000E+00 -0.00000000000E+00 -0.18507592724E+03  0.18507592724E+03  0.00000000000E+00 0. -1.
    9000007    1    1    2  501    0  0.17380480164E+03  0.33827146869E+02  0.24103378567E+03  0.49944936758E+03  0.40000000000E+03 0. -1.
   -9000007    1    1    2    0  502 -0.17380480164E+03 -0.33827146869E+02  0.80039984420E+03  0.91213611678E+03  0.40000000000E+03 0.  1.
<mgrwt>
<rscale>  2 0.43743844E+03</rscale>
<asrwt>0</asrwt>
<pdfrwt beam="1">  1       21 0.18869377E+00 0.43743844E+03</pdfrwt>
<pdfrwt beam="2">  1       21 0.28473220E-01 0.43743844E+03</pdfrwt>
<totfact> 0.15934207E+03</totfact>
</mgrwt>
</event>
<event>
 4    1  0.4689683E-002  0.4419421E+03  0.7818608E-02  0.1030153E+00
         21   -1    0    0  503  502  0.00000000000E+00  0.00000000000E+00  0.37588282866E+03  0.37588282866E+03  0.00000000000E+00 0.  1.
         21   -1    0    0  501  503 -0.00000000000E+00 -0.00000000000E+00 -0.57236438419E+03  0.57236438419E+03  0.00000000000E+00 0.  1.
    9000007    1    1    2  501    0  0.12146412329E+03  0.14338498376E+03  0.45699110142E+02  0.44429854319E+03  0.40000000000E+03 0.  1.
   -9000007    1    1    2    0  502 -0.12146412329E+03 -0.14338498376E+03 -0.24218066567E+03  0.50394866965E+03  0.40000000000E+03 0.  1.
<mgrwt>
<rscale>  2 0.44194206E+03</rscale>
<asrwt>0</asrwt>
<pdfrwt beam="1">  1       21 0.57828128E-01 0.44194206E+03</pdfrwt>
<pdfrwt beam="2">  1       21 0.88056059E-01 0.44194206E+03</pdfrwt>
<totfact> 0.26985639E+03</totfact>
</mgrwt>
</event>
<event>
 4    1  0.4689683E-002  0.4138908E+03  0.7818608E-02  0.1039073E+00
         21   -1    0    0  501  502  0.00000000000E+00  0.00000000000E+00  0.11672046794E+04  0.11672046794E+04  0.00000000000E+00 0.  1.
         21   -1    0    0  502  503 -0.00000000000E+00 -0.00000000000E+00 -0.26908582830E+03  0.26908582830E+03  0.00000000000E+00 0.  1.
    9000007    1    1    2  501    0 -0.89460055166E+02  0.57467455185E+02  0.93324946224E+03  0.10209114402E+04  0.40000000000E+03 0.  1.
   -9000007    1    1    2    0  503  0.89460055166E+02 -0.57467455185E+02 -0.35130611186E+02  0.41537906750E+03  0.40000000000E+03 0.  1.
<mgrwt>
<rscale>  2 0.41389082E+03</rscale>
<asrwt>0</asrwt>
<pdfrwt beam="1">  1       21 0.17956995E+00 0.41389082E+03</pdfrwt>
<pdfrwt beam="2">  1       21 0.41397820E-01 0.41389082E+03</pdfrwt>
<totfact> 0.87591202E+02</totfact>
</mgrwt>
</event>
<event>
 4    1  0.4689683E-002  0.4465878E+03  0.7818608E-02  0.1028745E+00
         21   -1    0    0  501  502  0.00000000000E+00  0.00000000000E+00  0.26960831956E+03  0.26960831956E+03  0.00000000000E+00 0.  1.
         21   -1    0    0  502  503 -0.00000000000E+00 -0.00000000000E+00 -0.74739514531E+03  0.74739514531E+03  0.00000000000E+00 0.  1.
    9000007    1    1    2  501    0 -0.13357789804E+03  0.14696115007E+03 -0.18743772458E+03  0.48432792101E+03  0.40000000000E+03 0.  1.
   -9000007    1    1    2    0  503  0.13357789804E+03 -0.14696115007E+03 -0.29034910117E+03  0.53267554386E+03  0.40000000000E+03 0.  1.
<mgrwt>
<rscale>  2 0.44658777E+03</rscale>
<asrwt>0</asrwt>
<pdfrwt beam="1">  1       21 0.41478204E-01 0.44658777E+03</pdfrwt>
<pdfrwt beam="2">  1       21 0.11498387E+00 0.44658777E+03</pdfrwt>
<totfact> 0.28495877E+03</totfact>
</mgrwt>
</event>
<event>
 4    1  0.4689683E-002  0.4428926E+03  0.7818608E-02  0.1029863E+00
         21   -1    0    0  501  502  0.00000000000E+00  0.00000000000E+00  0.56235436552E+03  0.56235436552E+03  0.00000000000E+00 0. -1.
         21   -1    0    0  502  503 -0.00000000000E+00 -0.00000000000E+00 -0.35985993089E+03  0.35985993089E+03  0.00000000000E+00 0. -1.
    9000007    1    1    2  501    0  0.12528714484E+03  0.14302804734E+03  0.18205395416E+03  0.47885022002E+03  0.40000000000E+03 0. -1.
   -9000007    1    1    2    0  503 -0.12528714484E+03 -0.14302804734E+03  0.20440480474E+02  0.44336407639E+03  0.40000000000E+03 0. -1.
<mgrwt>
<rscale>  2 0.44289264E+03</rscale>
<asrwt>0</asrwt>
<pdfrwt beam="1">  1       21 0.86516057E-01 0.44289264E+03</pdfrwt>
<pdfrwt beam="2">  1       21 0.55363066E-01 0.44289264E+03</pdfrwt>
<totfact> 0.30904803E+03</totfact>
</mgrwt>
</event>
<event>
 4    1  0.4689683E-002  0.4063998E+03  0.7818608E-02  0.1041586E+00
         21   -1    0    0  503  502  0.00000000000E+00  0.00000000000E+00  0.77454233391E+03  0.77454233391E+03  0.00000000000E+00 0. -1.
         21   -1    0    0  501  503 -0.00000000000E+00 -0.00000000000E+00 -0.21411538188E+03  0.21411538188E+03  0.00000000000E+00 0. -1.
    9000007    1    1    2  501    0 -0.17374135399E+02  0.69706081028E+02  0.31188177747E+03  0.51228023720E+03  0.40000000000E+03 0. -1.
   -9000007    1    1    2    0  502  0.17374135399E+02 -0.69706081028E+02  0.24854517456E+03  0.47637747859E+03  0.40000000000E+03 0. -1.
<mgrwt>
<rscale>  2 0.40639980E+03</rscale>
<asrwt>0</asrwt>
<pdfrwt beam="1">  1       21 0.11916036E+00 0.40639980E+03</pdfrwt>
<pdfrwt beam="2">  1       21 0.32940828E-01 0.40639980E+03</pdfrwt>
<totfact> 0.42289363E+03</totfact>
</mgrwt>
</event>
<event>
 4    1  0.4689683E-002  0.4516420E+03  0.7818608E-02  0.1027234E+00
         21   -1    0    0  503  502  0.00000000000E+00  0.00000000000E+00  0.59232601661E+03  0.59232601661E+03  0.00000000000E+00 0. -1.
         21   -1    0    0  501  503 -0.00000000000E+00 -0.00000000000E+00 -0.36750114538E+03  0.36750114538E+03  0.00000000000E+00 0.  1.
    9000007    1    1    2  501    0  0.10965663616E+03  0.17876215401E+03  0.23280887248E+03  0.50811460977E+03  0.40000000000E+03 0. -1.
   -9000007    1    1    2    0  502 -0.10965663616E+03 -0.17876215401E+03 -0.79840012531E+01  0.45171255222E+03  0.40000000000E+03 0.  1.
<mgrwt>
<rscale>  2 0.45164199E+03</rscale>
<asrwt>0</asrwt>
<pdfrwt beam="1">  1       21 0.91127079E-01 0.45164199E+03</pdfrwt>
<pdfrwt beam="2">  1       21 0.56538638E-01 0.45164199E+03</pdfrwt>
<totfact> 0.26041036E+03</totfact>
</mgrwt>
</event>
<event>
 4    1  0.4689683E-002  0.5111900E+03  0.7818608E-02  0.1010899E+00
         21   -1    0    0  503  502  0.00000000000E+00  0.00000000000E+00  0.34257126761E+03  0.34257126761E+03  0.00000000000E+00 0. -1.
         21   -1    0    0  501  503 -0.00000000000E+00 -0.00000000000E+00 -0.10311161079E+04  0.10311161079E+04  0.00000000000E+00 0. -1.
    9000007    1    1    2  501    0 -0.30654610432E+03 -0.85701066272E+02 -0.69463941609E+03  0.86246107461E+03  0.40000000000E+03 0.  1.
   -9000007    1    1    2    0  502  0.30654610432E+03  0.85701066272E+02  0.60945758511E+01  0.51122630086E+03  0.40000000000E+03 0.  1.
<mgrwt>
<rscale>  2 0.51118997E+03</rscale>
<asrwt>0</asrwt>
<pdfrwt beam="1">  1       21 0.52703273E-01 0.51118997E+03</pdfrwt>
<pdfrwt beam="2">  1       21 0.15863324E+00 0.51118997E+03</pdfrwt>
<totfact> 0.71803107E+02</totfact>
</mgrwt>
</event>
<event>
 4    1  0.4689683E-002  0.4170007E+03  0.7818608E-02  0.1038047E+00
         21   -1    0    0  503  502  0.00000000000E+00  0.00000000000E+00  0.23301682872E+03  0.23301682872E+03  0.00000000000E+00 0.  1.
         21   -1    0    0  501  503 -0.00000000000E+00 -0.00000000000E+00 -0.75537619899E+03  0.75537619899E+03  0.00000000000E+00 0.  1.
    9000007    1    1    2  501    0 -0.80864546571E+02 -0.85735226496E+02 -0.20686944177E+03  0.46549389888E+03  0.40000000000E+03 0.  1.
   -9000007    1    1    2    0  502  0.80864546571E+02  0.85735226496E+02 -0.31548992849E+03  0.52289912883E+03  0.40000000000E+03 0.  1.
<mgrwt>
<rscale>  2 0.41700072E+03</rscale>
<asrwt>0</asrwt>
<pdfrwt beam="1">  1       21 0.35848743E-01 0.41700072E+03</pdfrwt>
<pdfrwt beam="2">  1       21 0.11621172E+00 0.41700072E+03</pdfrwt>
<totfact> 0.37823299E+03</totfact>
</mgrwt>
</event>
<event>
 4    1  0.4689683E-002  0.4070747E+03  0.7818608E-02  0.1041357E+00
         21   -1    0    0  501  502  0.00000000000E+00  0.00000000000E+00  0.11073717710E+03  0.11073717710E+03  0.00000000000E+00 0. -1.
         21   -1    0    0  502  503 -0.00000000000E+00 -0.00000000000E+00 -0.20386787171E+04  0.20386787171E+04  0.00000000000E+00 0. -1.
    9000007    1    1    2  501    0 -0.65111004527E+02 -0.38345235623E+02 -0.40970555348E+03  0.57755384213E+03  0.40000000000E+03 0. -1.
   -9000007    1    1    2    0  503  0.65111004527E+02  0.38345235623E+02 -0.15182359865E+04  0.15718620521E+04  0.40000000000E+03 0. -1.
<mgrwt>
<rscale>  2 0.40707469E+03</rscale>
<asrwt>0</asrwt>
<pdfrwt beam="1">  1       21 0.17036489E-01 0.40707469E+03</pdfrwt>
<pdfrwt beam="2">  1       21 0.31364287E+00 0.40707469E+03</pdfrwt>
<totfact> 0.72510260E+02</totfact>
</mgrwt>
</event>
<event>
 4    1  0.4689683E-002  0.4610351E+03  0.7818608E-02  0.1024481E+00
         21   -1    0    0  501  502  0.00000000000E+00  0.00000000000E+00  0.17906160465E+04  0.17906160465E+04  0.00000000000E+00 0.  1.
         21   -1    0    0  502  503 -0.00000000000E+00 -0.00000000000E+00 -0.12958327874E+03  0.12958327874E+03  0.00000000000E+00 0. -1.
    9000007    1    1    2  501    0 -0.22368663145E+03 -0.50176677820E+02  0.55232700861E+03  0.71945710958E+03  0.40000000000E+03 0. -1.
   -9000007    1    1    2    0  503  0.22368663145E+03  0.50176677820E+02  0.11087057591E+04  0.12007422156E+04  0.40000000000E+03 0.  1.
<mgrwt>
<rscale>  2 0.46103515E+03</rscale>
<asrwt>0</asrwt>
<pdfrwt beam="1">  1       21 0.27547937E+00 0.46103515E+03</pdfrwt>
<pdfrwt beam="2">  1       21 0.19935890E-01 0.46103515E+03</pdfrwt>
<totfact> 0.88658569E+02</totfact>
</mgrwt>
</event>
<event>
 4    1  0.4689683E-002  0.4607748E+03  0.7818608E-02  0.1024557E+00
         21   -1    0    0  501  502  0.00000000000E+00  0.00000000000E+00  0.89465178441E+03  0.89465178441E+03  0.00000000000E+00 0. -1.
         21   -1    0    0  502  503 -0.00000000000E+00 -0.00000000000E+00 -0.23796458016E+03  0.23796458016E+03  0.00000000000E+00 0. -1.
    9000007    1    1    2  501    0  0.12711140578E+03  0.19014749678E+03  0.29873266586E+03  0.54913985984E+03  0.40000000000E+03 0. -1.
   -9000007    1    1    2    0  503 -0.12711140578E+03 -0.19014749678E+03  0.35795453839E+03  0.58347650473E+03  0.40000000000E+03 0. -1.
<mgrwt>
<rscale>  2 0.46077476E+03</rscale>
<asrwt>0</asrwt>
<pdfrwt beam="1">  1       21 0.13763873E+00 0.46077476E+03</pdfrwt>
<pdfrwt beam="2">  1       21 0.36609936E-01 0.46077476E+03</pdfrwt>
<totfact> 0.23058845E+03</totfact>
</mgrwt>
</event>
<event>
 4    1  0.4689683E-002  0.4057413E+03  0.7818608E-02  0.1041810E+00
         21   -1    0    0  501  502  0.00000000000E+00  0.00000000000E+00  0.10647603625E+04  0.10647603625E+04  0.00000000000E+00 0.  1.
         21   -1    0    0  502  503 -0.00000000000E+00 -0.00000000000E+00 -0.16260621303E+03  0.16260621303E+03  0.00000000000E+00 0.  1.
    9000007    1    1    2  501    0  0.46769301617E+02 -0.49382598961E+02  0.58713722428E+03  0.71369190046E+03  0.40000000000E+03 0.  1.
   -9000007    1    1    2    0  503 -0.46769301617E+02  0.49382598961E+02  0.31501692523E+03  0.51367467510E+03  0.40000000000E+03 0.  1.
<mgrwt>
<rscale>  2 0.40574131E+03</rscale>
<asrwt>0</asrwt>
<pdfrwt beam="1">  1       21 0.16380928E+00 0.40574131E+03</pdfrwt>
<pdfrwt beam="2">  1       21 0.25016341E-01 0.40574131E+03</pdfrwt>
<totfact> 0.31298533E+03</totfact>
</mgrwt>
</event>
<event>
 4    1  0.4689683E-002  0.4110182E+03  0.7818608E-02  0.1040030E+00
         21   -1    0    0  503  502  0.00000000000E+00  0.00000000000E+00  0.20200885018E+03  0.20200885018E+03  0.00000000000E+00 0.  1.
         21   -1    0    0  501  503 -0.00000000000E+00 -0.00000000000E+00 -0.85440743010E+03  0.85440743010E+03  0.00000000000E+00 0.  1.
    9000007    1    1    2  501    0  0.45675414656E+02 -0.82763005645E+02 -0.24926129634E+03  0.48069444813E+03  0.40000000000E+03 0. -1.
   -9000007    1    1    2    0  502 -0.45675414656E+02  0.82763005645E+02 -0.40313728358E+03  0.57572183216E+03  0.40000000000E+03 0. -1.
<mgrwt>
<rscale>  2 0.41101820E+03</rscale>
<asrwt>0</asrwt>
<pdfrwt beam="1">  1       21 0.31078284E-01 0.41101820E+03</pdfrwt>
<pdfrwt beam="2">  1       21 0.13144730E+00 0.41101820E+03</pdfrwt>
<totfact> 0.36865886E+03</totfact>
</mgrwt>
</event>
<event>
 4    1  0.4689683E-002  0.4029285E+03  0.7818608E-02  0.1042770E+00
         21   -1    0    0  503  502  0.00000000000E+00  0.00000000000E+00  0.53242294394E+03  0.53242294394E+03  0.00000000000E+00 0.  1.
         21   -1    0    0  501  503 -0.00000000000E+00 -0.00000000000E+00 -0.82513014331E+03  0.82513014331E+03  0.00000000000E+00 0.  1.
    9000007    1    1    2  501    0 -0.44198888786E+02  0.19946675717E+02 -0.68530683291E+03  0.79498230602E+03  0.40000000000E+03 0.  1.
   -9000007    1    1    2    0  502  0.44198888786E+02 -0.19946675717E+02  0.39259963354E+03  0.56257078123E+03  0.40000000000E+03 0.  1.
<mgrwt>
<rscale>  2 0.40292854E+03</rscale>
<asrwt>0</asrwt>
<pdfrwt beam="1">  1       21 0.81911222E-01 0.40292854E+03</pdfrwt>
<pdfrwt beam="2">  1       21 0.12694310E+00 0.40292854E+03</pdfrwt>
<totfact> 0.51147109E+02</totfact>
</mgrwt>
</event>
<event>
 4    1  0.4689683E-002  0.7558490E+03  0.7818608E-02  0.9626219E-01
         21   -1    0    0  503  502  0.00000000000E+00  0.00000000000E+00  0.34881294794E+03  0.34881294794E+03  0.00000000000E+00 0.  1.
         21   -1    0    0  501  503 -0.00000000000E+00 -0.00000000000E+00 -0.20886988581E+04  0.20886988581E+04  0.00000000000E+00 0.  1.
    9000007    1    1    2  501    0  0.35449157121E+03  0.53445624781E+03 -0.14361667745E+04  0.16229241384E+04  0.40000000000E+03 0.  1.
   -9000007    1    1    2    0  502 -0.35449157121E+03 -0.53445624781E+03 -0.30371913565E+03  0.81458766762E+03  0.40000000000E+03 0.  1.
<mgrwt>
<rscale>  2 0.75584903E+03</rscale>
<asrwt>0</asrwt>
<pdfrwt beam="1">  1       21 0.53663528E-01 0.75584903E+03</pdfrwt>
<pdfrwt beam="2">  1       21 0.32133830E+00 0.75584903E+03</pdfrwt>
<totfact> 0.55058725E+01</totfact>
</mgrwt>
</event>
<event>
 4    1  0.4689683E-002  0.4228763E+03  0.7818608E-02  0.1036134E+00
         21   -1    0    0  501  502  0.00000000000E+00  0.00000000000E+00  0.15023030825E+03  0.15023030825E+03  0.00000000000E+00 0. -1.
         21   -1    0    0  502  503 -0.00000000000E+00 -0.00000000000E+00 -0.12025331184E+04  0.12025331184E+04  0.00000000000E+00 0. -1.
    9000007    1    1    2  501    0  0.10737146554E+03  0.85415164487E+02 -0.59427399999E+03  0.72937368269E+03  0.40000000000E+03 0. -1.
   -9000007    1    1    2    0  503 -0.10737146554E+03 -0.85415164487E+02 -0.45802881018E+03  0.62338974397E+03  0.40000000000E+03 0. -1.
<mgrwt>
<rscale>  2 0.42287632E+03</rscale>
<asrwt>0</asrwt>
<pdfrwt beam="1">  1       21 0.23112355E-01 0.42287632E+03</pdfrwt>
<pdfrwt beam="2">  1       21 0.18500510E+00 0.42287632E+03</pdfrwt>
<totfact> 0.25534837E+03</totfact>
</mgrwt>
</event>
<event>
 4    1  0.4689683E-002  0.4251606E+03  0.7818608E-02  0.1035400E+00
         21   -1    0    0  503  502  0.00000000000E+00  0.00000000000E+00  0.25554371003E+03  0.25554371003E+03  0.00000000000E+00 0. -1.
         21   -1    0    0  501  503 -0.00000000000E+00 -0.00000000000E+00 -0.76002997461E+03  0.76002997461E+03  0.00000000000E+00 0. -1.
    9000007    1    1    2  501    0 -0.14326083500E+03 -0.15423784469E+02 -0.38591654507E+03  0.57418911495E+03  0.40000000000E+03 0. -1.
   -9000007    1    1    2    0  502  0.14326083500E+03  0.15423784469E+02 -0.11856971951E+03  0.44138456969E+03  0.40000000000E+03 0. -1.
<mgrwt>
<rscale>  2 0.42516063E+03</rscale>
<asrwt>0</asrwt>
<pdfrwt beam="1">  1       21 0.39314417E-01 0.42516063E+03</pdfrwt>
<pdfrwt beam="2">  1       21 0.11692769E+00 0.42516063E+03</pdfrwt>
<totfact> 0.30762709E+03</totfact>
</mgrwt>
</event>
<event>
 4    1  0.4689683E-002  0.6493667E+03  0.7818608E-02  0.9807968E-01
         21   -1    0    0  501  502  0.00000000000E+00  0.00000000000E+00  0.61166028730E+03  0.61166028730E+03  0.00000000000E+00 0.  1.
         21   -1    0    0  502  503 -0.00000000000E+00 -0.00000000000E+00 -0.69635806394E+03  0.69635806394E+03  0.00000000000E+00 0. -1.
    9000007    1    1    2  501    0  0.43434138749E+03 -0.27023075820E+03  0.23037626159E+02  0.64977521942E+03  0.40000000000E+03 0.  1.
   -9000007    1    1    2    0  503 -0.43434138749E+03  0.27023075820E+03 -0.10773540280E+03  0.65824313181E+03  0.40000000000E+03 0. -1.
<mgrwt>
<rscale>  2 0.64936669E+03</rscale>
<asrwt>0</asrwt>
<pdfrwt beam="1">  1       21 0.94101582E-01 0.64936669E+03</pdfrwt>
<pdfrwt beam="2">  1       21 0.10713201E+00 0.64936669E+03</pdfrwt>
<totfact> 0.51417244E+02</totfact>
</mgrwt>
</event>
<event>
 4    1  0.4689683E-002  0.4034492E+03  0.7818608E-02  0.1042592E+00
         21   -1    0    0  501  502  0.00000000000E+00  0.00000000000E+00  0.34550710060E+03  0.34550710060E+03  0.00000000000E+00 0.  1.
         21   -1    0    0  502  503 -0.00000000000E+00 -0.00000000000E+00 -0.48097549222E+03  0.48097549222E+03  0.00000000000E+00 0.  1.
    9000007    1    1    2  501    0  0.89553055394E+01  0.51875492575E+02 -0.85454762425E+01  0.40353969990E+03  0.40000000000E+03 0.  1.
   -9000007    1    1    2    0  503 -0.89553055394E+01 -0.51875492575E+02 -0.12692291538E+03  0.42294289293E+03  0.40000000000E+03 0.  1.
<mgrwt>
<rscale>  2 0.40344921E+03</rscale>
<asrwt>0</asrwt>
<pdfrwt beam="1">  1       21 0.53154939E-01 0.40344921E+03</pdfrwt>
<pdfrwt beam="2">  1       21 0.73996229E-01 0.40344921E+03</pdfrwt>
<totfact> 0.49081841E+03</totfact>
</mgrwt>
</event>
<event>
 4    1  0.4689683E-002  0.4351508E+03  0.7818608E-02  0.1032245E+00
         21   -1    0    0  503  502  0.00000000000E+00  0.00000000000E+00  0.74617304191E+02  0.74617304191E+02  0.00000000000E+00 0.  1.
         21   -1    0    0  501  503 -0.00000000000E+00 -0.00000000000E+00 -0.26284490703E+04  0.26284490703E+04  0.00000000000E+00 0.  1.
    9000007    1    1    2  501    0 -0.79312598788E+02  0.15187408376E+03 -0.15280475394E+04  0.15888000215E+04  0.40000000000E+03 0.  1.
   -9000007    1    1    2    0  502  0.79312598788E+02 -0.15187408376E+03 -0.10257842267E+04  0.11142663530E+04  0.40000000000E+03 0.  1.
<mgrwt>
<rscale>  2 0.43515081E+03</rscale>
<asrwt>0</asrwt>
<pdfrwt beam="1">  1       21 0.11479587E-01 0.43515081E+03</pdfrwt>
<pdfrwt beam="2">  1       21 0.40437673E+00 0.43515081E+03</pdfrwt>
<totfact> 0.40520755E+02</totfact>
</mgrwt>
</event>
<event>
 4    1  0.4689683E-002  0.5954586E+03  0.7818608E-02  0.9914873E-01
         21   -1    0    0  503  502  0.00000000000E+00  0.00000000000E+00  0.69843674380E+03  0.69843674380E+03  0.00000000000E+00 0. -1.
         21   -1    0    0  501  503 -0.00000000000E+00 -0.00000000000E+00 -0.95586787066E+03  0.95586787066E+03  0.00000000000E+00 0. -1.
    9000007    1    1    2  501    0  0.23133546263E+03  0.37557272657E+03 -0.69511721205E+03  0.91529170634E+03  0.40000000000E+03 0. -1.
   -9000007    1    1    2    0  502 -0.23133546263E+03 -0.37557272657E+03  0.43768608518E+03  0.73901290812E+03  0.40000000000E+03 0. -1.
<mgrwt>
<rscale>  2 0.59545862E+03</rscale>
<asrwt>0</asrwt>
<pdfrwt beam="1">  1       21 0.10745181E+00 0.59545862E+03</pdfrwt>
<pdfrwt beam="2">  1       21 0.14705660E+00 0.59545862E+03</pdfrwt>
<totfact> 0.16599911E+02</totfact>
</mgrwt>
</event>
<event>
 4    1  0.4689683E-002  0.4028623E+03  0.7818608E-02  0.1042793E+00
         21   -1    0    0  501  502  0.00000000000E+00  0.00000000000E+00  0.26079851607E+03  0.26079851607E+03  0.00000000000E+00 0.  1.
         21   -1    0    0  502  503 -0.00000000000E+00 -0.00000000000E+00 -0.62929668299E+03  0.62929668299E+03  0.00000000000E+00 0.  1.
    9000007    1    1    2  501    0  0.31050908804E+02 -0.36521991501E+02 -0.13736171846E+03  0.42563629603E+03  0.40000000000E+03 0.  1.
   -9000007    1    1    2    0  503 -0.31050908804E+02  0.36521991501E+02 -0.23113644845E+03  0.46445890303E+03  0.40000000000E+03 0.  1.
<mgrwt>
<rscale>  2 0.40286228E+03</rscale>
<asrwt>0</asrwt>
<pdfrwt beam="1">  1       21 0.40122849E-01 0.40286228E+03</pdfrwt>
<pdfrwt beam="2">  1       21 0.96814873E-01 0.40286228E+03</pdfrwt>
<totfact> 0.47320289E+03</totfact>
</mgrwt>
</event>
<event>
 4    1  0.4689683E-002  0.4320064E+03  0.7818608E-02  0.1033228E+00
         21   -1    0    0  503  502  0.00000000000E+00  0.00000000000E+00  0.11664955680E+04  0.11664955680E+04  0.00000000000E+00 0.  1.
         21   -1    0    0  501  503 -0.00000000000E+00 -0.00000000000E+00 -0.61523356631E+03  0.61523356631E+03  0.00000000000E+00 0.  1.
    9000007    1    1    2  501    0 -0.16214483854E+03 -0.18400250176E+02 -0.49069367411E+03  0.65376585999E+03  0.40000000000E+03 0.  1.
   -9000007    1    1    2    0  502  0.16214483854E+03  0.18400250176E+02  0.10419556758E+04  0.11279632743E+04  0.40000000000E+03 0.  1.
<mgrwt>
<rscale>  2 0.43200639E+03</rscale>
<asrwt>0</asrwt>
<pdfrwt beam="1">  1       21 0.17946086E+00 0.43200639E+03</pdfrwt>
<pdfrwt beam="2">  1       21 0.94651318E-01 0.43200639E+03</pdfrwt>
<totfact> 0.13948987E+02</totfact>
</mgrwt>
</event>
<event>
 4    1  0.4689683E-002  0.4511132E+03  0.7818608E-02  0.1027391E+00
         21   -1    0    0  501  502  0.00000000000E+00  0.00000000000E+00  0.48650154726E+03  0.48650154726E+03  0.00000000000E+00 0.  1.
         21   -1    0    0  502  503 -0.00000000000E+00 -0.00000000000E+00 -0.95154956482E+03  0.95154956482E+03  0.00000000000E+00 0. -1.
    9000007    1    1    2  501    0  0.11266200663E+03 -0.17552898718E+03  0.30573864187E+03  0.54495804445E+03  0.40000000000E+03 0.  1.
   -9000007    1    1    2    0  503 -0.11266200663E+03  0.17552898718E+03 -0.77078665944E+03  0.89309306763E+03  0.40000000000E+03 0. -1.
<mgrwt>
<rscale>  2 0.45111324E+03</rscale>
<asrwt>0</asrwt>
<pdfrwt beam="1">  1       21 0.74846393E-01 0.45111324E+03</pdfrwt>
<pdfrwt beam="2">  1       21 0.14639224E+00 0.45111324E+03</pdfrwt>
<totfact> 0.42241612E+02</totfact>
</mgrwt>
</event>
<event>
 4    1  0.4689683E-002  0.4578193E+03  0.7818608E-02  0.1025416E+00
         21   -1    0    0  503  502  0.00000000000E+00  0.00000000000E+00  0.40154877787E+03  0.40154877787E+03  0.00000000000E+00 0. -1.
         21   -1    0    0  501  503 -0.00000000000E+00 -0.00000000000E+00 -0.12603180283E+04  0.12603180283E+04  0.00000000000E+00 0. -1.
    9000007    1    1    2  501    0  0.11982451176E+03  0.18772486474E+03 -0.10653817441E+04  0.11595847529E+04  0.40000000000E+03 0. -1.
   -9000007    1    1    2    0  502 -0.11982451176E+03 -0.18772486474E+03  0.20661249370E+03  0.50228205325E+03  0.40000000000E+03 0. -1.
<mgrwt>
<rscale>  2 0.45781933E+03</rscale>
<asrwt>0</asrwt>
<pdfrwt beam="1">  1       21 0.61776735E-01 0.45781933E+03</pdfrwt>
<pdfrwt beam="2">  1       21 0.19389508E+00 0.45781933E+03</pdfrwt>
<totfact> 0.29081245E+02</totfact>
</mgrwt>
</event>
<event>
 4    1  0.4689683E-002  0.4180170E+03  0.7818608E-02  0.1037714E+00
         21   -1    0    0  503  502  0.00000000000E+00  0.00000000000E+00  0.17779022633E+04  0.17779022633E+04  0.00000000000E+00 0.  1.
         21   -1    0    0  501  503 -0.00000000000E+00 -0.00000000000E+00 -0.23739702086E+03  0.23739702086E+03  0.00000000000E+00 0. -1.
    9000007    1    1    2  501    0  0.65941031994E+02 -0.10193150065E+03 -0.11067768413E+01  0.41801851093E+03  0.40000000000E+03 0. -1.
   -9000007    1    1    2    0  502 -0.65941031994E+02  0.10193150065E+03  0.15416120193E+04  0.15972807732E+04  0.40000000000E+03 0.  1.
<mgrwt>
<rscale>  2 0.41801705E+03</rscale>
<asrwt>0</asrwt>
<pdfrwt beam="1">  1       21 0.27352342E+00 0.41801705E+03</pdfrwt>
<pdfrwt beam="2">  1       21 0.36522620E-01 0.41801705E+03</pdfrwt>
<totfact> 0.28425555E+02</totfact>
</mgrwt>
</event>
<event>
 4    1  0.4689683E-002  0.4651083E+03  0.7818608E-02  0.1023310E+00
         21   -1    0    0  501  502  0.00000000000E+00  0.00000000000E+00  0.16548821924E+03  0.16548821924E+03  0.00000000000E+00 0.  1.
         21   -1    0    0  502  503 -0.00000000000E+00 -0.00000000000E+00 -0.13925581407E+04  0.13925581407E+04  0.00000000000E+00 0. -1.
    9000007    1    1    2  501    0 -0.20995535551E+03 -0.11065461781E+03 -0.42066084857E+03  0.62712139596E+03  0.40000000000E+03 0.  1.
   -9000007    1    1    2    0  503  0.20995535551E+03  0.11065461781E+03 -0.80640907290E+03  0.93092496400E+03  0.40000000000E+03 0.  1.
<mgrwt>
<rscale>  2 0.46510826E+03</rscale>
<asrwt>0</asrwt>
<pdfrwt beam="1">  1       21 0.25459726E-01 0.46510826E+03</pdfrwt>
<pdfrwt beam="2">  1       21 0.21423972E+00 0.46510826E+03</pdfrwt>
<totfact> 0.13254654E+03</totfact>
</mgrwt>
</event>
<event>
 4    1  0.4689683E-002  0.5604944E+03  0.7818608E-02  0.9990937E-01
         21   -1    0    0  501  502  0.00000000000E+00  0.00000000000E+00  0.34177263513E+03  0.34177263513E+03  0.00000000000E+00 0.  1.
         21   -1    0    0  502  503 -0.00000000000E+00 -0.00000000000E+00 -0.93029831170E+03  0.93029831170E+03  0.00000000000E+00 0. -1.
    9000007    1    1    2  501    0 -0.39196915232E+03  0.22675393412E+02 -0.36376433752E+03  0.66819045420E+03  0.40000000000E+03 0. -1.
   -9000007    1    1    2    0  503  0.39196915232E+03 -0.22675393412E+02 -0.22476133906E+03  0.60388049263E+03  0.40000000000E+03 0. -1.
<mgrwt>
<rscale>  2 0.56049442E+03</rscale>
<asrwt>0</asrwt>
<pdfrwt beam="1">  1       21 0.52580405E-01 0.56049442E+03</pdfrwt>
<pdfrwt beam="2">  1       21 0.14312282E+00 0.56049442E+03</pdfrwt>
<totfact> 0.93958199E+02</totfact>
</mgrwt>
</event>
<event>
 4    1  0.4689683E-002  0.8087593E+03  0.7818608E-02  0.9547424E-01
         21   -1    0    0  503  502  0.00000000000E+00  0.00000000000E+00  0.16105188452E+04  0.16105188452E+04  0.00000000000E+00 0.  1.
         21   -1    0    0  501  503 -0.00000000000E+00 -0.00000000000E+00 -0.47465072111E+03  0.47465072111E+03  0.00000000000E+00 0. -1.
    9000007    1    1    2  501    0  0.68305721203E+03 -0.16590486306E+03  0.96404106802E+03  0.12583587562E+04  0.40000000000E+03 0.  1.
   -9000007    1    1    2    0  502 -0.68305721203E+03  0.16590486306E+03  0.17182705606E+03  0.82681081010E+03  0.40000000000E+03 0. -1.
<mgrwt>
<rscale>  2 0.80875928E+03</rscale>
<asrwt>0</asrwt>
<pdfrwt beam="1">  1       21 0.24777213E+00 0.80875928E+03</pdfrwt>
<pdfrwt beam="2">  1       21 0.73023189E-01 0.80875928E+03</pdfrwt>
<totfact> 0.77498506E+01</totfact>
</mgrwt>
</event>
<event>
 4    1  0.4689683E-002  0.5145206E+03  0.7818608E-02  0.1010057E+00
         21   -1    0    0  503  502  0.00000000000E+00  0.00000000000E+00  0.24193725060E+04  0.24193725060E+04  0.00000000000E+00 0. -1.
         21   -1    0    0  501  503 -0.00000000000E+00 -0.00000000000E+00 -0.12432199930E+03  0.12432199930E+03  0.00000000000E+00 0.  1.
    9000007    1    1    2  501    0  0.31055470943E+03  0.91033971488E+02  0.70721265082E+03  0.87457483670E+03  0.40000000000E+03 0.  1.
   -9000007    1    1    2    0  502 -0.31055470943E+03 -0.91033971488E+02  0.15878378559E+04  0.16691196686E+04  0.40000000000E+03 0. -1.
<mgrwt>
<rscale>  2 0.51452056E+03</rscale>
<asrwt>0</asrwt>
<pdfrwt beam="1">  1       21 0.37221112E+00 0.51452056E+03</pdfrwt>
<pdfrwt beam="2">  1       21 0.19126463E-01 0.51452056E+03</pdfrwt>
<totfact> 0.23960782E+02</totfact>
</mgrwt>
</event>
<event>
 4    1  0.4689683E-002  0.4159957E+03  0.7818608E-02  0.1038377E+00
         21   -1    0    0  501  502  0.00000000000E+00  0.00000000000E+00  0.15358446264E+04  0.15358446264E+04  0.00000000000E+00 0. -1.
         21   -1    0    0  502  503 -0.00000000000E+00 -0.00000000000E+00 -0.11951761807E+03  0.11951761807E+03  0.00000000000E+00 0. -1.
    9000007    1    1    2  501    0 -0.79635309761E+02 -0.81918648340E+02  0.51013195509E+03  0.65824543987E+03  0.40000000000E+03 0.  1.
   -9000007    1    1    2    0  503  0.79635309761E+02  0.81918648340E+02  0.90619505322E+03  0.99711680459E+03  0.40000000000E+03 0.  1.
<mgrwt>
<rscale>  2 0.41599573E+03</rscale>
<asrwt>0</asrwt>
<pdfrwt beam="1">  1       21 0.23628377E+00 0.41599573E+03</pdfrwt>
<pdfrwt beam="2">  1       21 0.18387327E-01 0.41599573E+03</pdfrwt>
<totfact> 0.18349691E+03</totfact>
</mgrwt>
</event>
<event>
 4    1  0.4689683E-002  0.4257290E+03  0.7818608E-02  0.1035218E+00
         21   -1    0    0  503  502  0.00000000000E+00  0.00000000000E+00  0.77736528930E+02  0.77736528930E+02  0.00000000000E+00 0. -1.
         21   -1    0    0  501  503 -0.00000000000E+00 -0.00000000000E+00 -0.23834168465E+04  0.23834168465E+04  0.00000000000E+00 0.  1.
    9000007    1    1    2  501    0 -0.70972690357E+02 -0.12731089062E+03 -0.13344042578E+04  0.14006712351E+04  0.40000000000E+03 0.  1.
   -9000007    1    1    2    0  502  0.70972690357E+02  0.12731089062E+03 -0.97127605980E+03  0.10604821403E+04  0.40000000000E+03 0. -1.
<mgrwt>
<rscale>  2 0.42572900E+03</rscale>
<asrwt>0</asrwt>
<pdfrwt beam="1">  1       21 0.11959468E-01 0.42572900E+03</pdfrwt>
<pdfrwt beam="2">  1       21 0.36667945E+00 0.42572900E+03</pdfrwt>
<totfact> 0.65480835E+02</totfact>
</mgrwt>
</event>
<event>
 4    1  0.4689683E-002  0.5526422E+03  0.7818608E-02  0.1000884E+00
         21   -1    0    0  501  502  0.00000000000E+00  0.00000000000E+00  0.19914399193E+04  0.19914399193E+04  0.00000000000E+00 0. -1.
         21   -1    0    0  502  503 -0.00000000000E+00 -0.00000000000E+00 -0.15772089444E+03  0.15772089444E+03  0.00000000000E+00 0. -1.
    9000007    1    1    2  501    0 -0.28333623487E+03 -0.25521358550E+03  0.10954785537E+04  0.12269827456E+04  0.40000000000E+03 0. -1.
   -9000007    1    1    2    0  503  0.28333623487E+03  0.25521358550E+03  0.73824047109E+03  0.92217806815E+03  0.40000000000E+03 0. -1.
<mgrwt>
<rscale>  2 0.55264220E+03</rscale>
<asrwt>0</asrwt>
<pdfrwt beam="1">  1       21 0.30637535E+00 0.55264220E+03</pdfrwt>
<pdfrwt beam="2">  1       21 0.24264754E-01 0.55264220E+03</pdfrwt>
<totfact> 0.37760691E+02</totfact>
</mgrwt>
</event>
<event>
 4    1  0.4689683E-002  0.4043908E+03  0.7818608E-02  0.1042270E+00
         21   -1    0    0  501  502  0.00000000000E+00  0.00000000000E+00  0.93304936226E+03  0.93304936226E+03  0.00000000000E+00 0. -1.
         21   -1    0    0  502  503 -0.00000000000E+00 -0.00000000000E+00 -0.17883825271E+03  0.17883825271E+03  0.00000000000E+00 0. -1.
    9000007    1    1    2  501    0 -0.35026229377E+02 -0.48011507075E+02  0.45567695205E+03  0.60924003988E+03  0.40000000000E+03 0. -1.
   -9000007    1    1    2    0  503  0.35026229377E+02  0.48011507075E+02  0.29853415750E+03  0.50264757509E+03  0.40000000000E+03 0. -1.
<mgrwt>
<rscale>  2 0.40439083E+03</rscale>
<asrwt>0</asrwt>
<pdfrwt beam="1">  1       21 0.14354605E+00 0.40439083E+03</pdfrwt>
<pdfrwt beam="2">  1       21 0.27513578E-01 0.40439083E+03</pdfrwt>
<totfact> 0.37302727E+03</totfact>
</mgrwt>
</event>
<event>
 4    1  0.4689683E-002  0.5213454E+03  0.7818608E-02  0.1008353E+00
         21   -1    0    0  503  502  0.00000000000E+00  0.00000000000E+00  0.16496199883E+04  0.16496199883E+04  0.00000000000E+00 0.  1.
         21   -1    0    0  501  503 -0.00000000000E+00 -0.00000000000E+00 -0.19778796750E+03  0.19778796750E+03  0.00000000000E+00 0.  1.
    9000007    1    1    2  501    0  0.81880537939E+02 -0.32418606693E+03  0.34848690874E+03  0.62709182266E+03  0.40000000000E+03 0.  1.
   -9000007    1    1    2    0  502 -0.81880537939E+02  0.32418606693E+03  0.11033451121E+04  0.12203161332E+04  0.40000000000E+03 0.  1.
<mgrwt>
<rscale>  2 0.52134540E+03</rscale>
<asrwt>0</asrwt>
<pdfrwt beam="1">  1       21 0.25378768E+00 0.52134540E+03</pdfrwt>
<pdfrwt beam="2">  1       21 0.30428919E-01 0.52134540E+03</pdfrwt>
<totfact> 0.51252036E+02</totfact>
</mgrwt>
</event>
<event>
 4    1  0.4689683E-002  0.4170351E+03  0.7818608E-02  0.1038036E+00
         21   -1    0    0  503  502  0.00000000000E+00  0.00000000000E+00  0.51933412301E+03  0.51933412301E+03  0.00000000000E+00 0. -1.
         21   -1    0    0  501  503 -0.00000000000E+00 -0.00000000000E+00 -0.70224145590E+03  0.70224145590E+03  0.00000000000E+00 0. -1.
    9000007    1    1    2  501    0 -0.73827410021E+02 -0.92020583793E+02 -0.53321707341E+03  0.67693332145E+03  0.40000000000E+03 0. -1.
   -9000007    1    1    2    0  502  0.73827410021E+02  0.92020583793E+02  0.35030974052E+03  0.54464225746E+03  0.40000000000E+03 0. -1.
<mgrwt>
<rscale>  2 0.41703510E+03</rscale>
<asrwt>0</asrwt>
<pdfrwt beam="1">  1       21 0.79897558E-01 0.41703510E+03</pdfrwt>
<pdfrwt beam="2">  1       21 0.10803715E+00 0.41703510E+03</pdfrwt>
<totfact> 0.80724249E+02</totfact>
</mgrwt>
</event>
<event>
 4    1  0.4689683E-002  0.4615917E+03  0.7818608E-02  0.1024321E+00
         21   -1    0    0  501  502  0.00000000000E+00  0.00000000000E+00  0.33040051766E+03  0.33040051766E+03  0.00000000000E+00 0.  1.
         21   -1    0    0  502  503 -0.00000000000E+00 -0.00000000000E+00 -0.16564458442E+04  0.16564458442E+04  0.00000000000E+00 0.  1.
    9000007    1    1    2  501    0 -0.18103797294E+03  0.14245040723E+03  0.11330297606E+03  0.47529404641E+03  0.40000000000E+03 0.  1.
   -9000007    1    1    2    0  503  0.18103797294E+03 -0.14245040723E+03 -0.14393483026E+04  0.15115523155E+04  0.40000000000E+03 0.  1.
<mgrwt>
<rscale>  2 0.46159167E+03</rscale>
<asrwt>0</asrwt>
<pdfrwt beam="1">  1       21 0.50830848E-01 0.46159167E+03</pdfrwt>
<pdfrwt beam="2">  1       21 0.25483783E+00 0.46159167E+03</pdfrwt>
<totfact> 0.18076723E+02</totfact>
</mgrwt>
</event>
<event>
 4    1  0.4689683E-002  0.4695386E+03  0.7818608E-02  0.1022051E+00
         21   -1    0    0  503  502  0.00000000000E+00  0.00000000000E+00  0.59620147865E+03  0.59620147865E+03  0.00000000000E+00 0.  1.
         21   -1    0    0  501  503 -0.00000000000E+00 -0.00000000000E+00 -0.55015749533E+03  0.55015749533E+03  0.00000000000E+00 0. -1.
    9000007    1    1    2  501    0 -0.19578930565E+03 -0.14877180228E+03 -0.30517303927E+03  0.55999739755E+03  0.40000000000E+03 0. -1.
   -9000007    1    1    2    0  502  0.19578930565E+03  0.14877180228E+03  0.35121702260E+03  0.58636157644E+03  0.40000000000E+03 0.  1.
<mgrwt>
<rscale>  2 0.46953860E+03</rscale>
<asrwt>0</asrwt>
<pdfrwt beam="1">  1       21 0.91723305E-01 0.46953860E+03</pdfrwt>
<pdfrwt beam="2">  1       21 0.84639614E-01 0.46953860E+03</pdfrwt>
<totfact> 0.10271629E+03</totfact>
</mgrwt>
</event>
<event>
 4    1  0.4689683E-002  0.4222167E+03  0.7818608E-02  0.1036347E+00
         21   -1    0    0  501  502  0.00000000000E+00  0.00000000000E+00  0.25705344902E+03  0.25705344902E+03  0.00000000000E+00 0.  1.
         21   -1    0    0  502  503 -0.00000000000E+00 -0.00000000000E+00 -0.15024458456E+04  0.15024458456E+04  0.00000000000E+00 0.  1.
    9000007    1    1    2  501    0 -0.28628544138E+02 -0.13208853518E+03  0.22837601304E+02  0.42283392804E+03  0.40000000000E+03 0.  1.
   -9000007    1    1    2    0  503  0.28628544138E+02  0.13208853518E+03 -0.12682299979E+04  0.13366653666E+04  0.40000000000E+03 0.  1.
<mgrwt>
<rscale>  2 0.42221674E+03</rscale>
<asrwt>0</asrwt>
<pdfrwt beam="1">  1       21 0.39546684E-01 0.42221674E+03</pdfrwt>
<pdfrwt beam="2">  1       21 0.23114552E+00 0.42221674E+03</pdfrwt>
<totfact> 0.43800503E+02</totfact>
</mgrwt>
</event>
<event>
 4    1  0.4689683E-002  0.4934183E+03  0.7818608E-02  0.1015511E+00
         21   -1    0    0  501  502  0.00000000000E+00  0.00000000000E+00  0.26630586996E+03  0.26630586996E+03  0.00000000000E+00 0. -1.
         21   -1    0    0  502  503 -0.00000000000E+00 -0.00000000000E+00 -0.10189586042E+04  0.10189586042E+04  0.00000000000E+00 0. -1.
    9000007    1    1    2  501    0 -0.23192315950E+03  0.17225917630E+03 -0.58236189656E+03  0.76328694100E+03  0.40000000000E+03 0. -1.
   -9000007    1    1    2    0  503  0.23192315950E+03 -0.17225917630E+03 -0.17029083768E+03  0.52197753316E+03  0.40000000000E+03 0. -1.
<mgrwt>
<rscale>  2 0.49341826E+03</rscale>
<asrwt>0</asrwt>
<pdfrwt beam="1">  1       21 0.40970135E-01 0.49341826E+03</pdfrwt>
<pdfrwt beam="2">  1       21 0.15676286E+00 0.49341826E+03</pdfrwt>
<totfact> 0.12711456E+03</totfact>
</mgrwt>
</event>
<event>
 4    1  0.4689683E-002  0.6711156E+03  0.7818608E-02  0.9767945E-01
         21   -1    0    0  503  502  0.00000000000E+00  0.00000000000E+00  0.50490053124E+03  0.50490053124E+03  0.00000000000E+00 0. -1.
         21   -1    0    0  501  503 -0.00000000000E+00 -0.00000000000E+00 -0.12229255159E+04  0.12229255159E+04  0.00000000000E+00 0.  1.
    9000007    1    1    2  501    0  0.28034572347E+03 -0.46021992698E+03 -0.80838124547E+03  0.10506551974E+04  0.40000000000E+03 0.  1.
   -9000007    1    1    2    0  502 -0.28034572347E+03  0.46021992698E+03  0.90356260793E+02  0.67717084973E+03  0.40000000000E+03 0. -1.
<mgrwt>
<rscale>  2 0.67111557E+03</rscale>
<asrwt>0</asrwt>
<pdfrwt beam="1">  1       21 0.77677004E-01 0.67111557E+03</pdfrwt>
<pdfrwt beam="2">  1       21 0.18814239E+00 0.67111557E+03</pdfrwt>
<totfact> 0.17376788E+02</totfact>
</mgrwt>
</event>
<event>
 4    1  0.4689683E-002  0.4073856E+03  0.7818608E-02  0.1041252E+00
         21   -1    0    0  503  502  0.00000000000E+00  0.00000000000E+00  0.16716687817E+03  0.16716687817E+03  0.00000000000E+00 0. -1.
         21   -1    0    0  501  503 -0.00000000000E+00 -0.00000000000E+00 -0.10476118642E+04  0.10476118642E+04  0.00000000000E+00 0. -1.
    9000007    1    1    2  501    0 -0.76760571073E+02  0.84158788809E+01 -0.57915713157E+03  0.70808614966E+03  0.40000000000E+03 0. -1.
   -9000007    1    1    2    0  502  0.76760571073E+02 -0.84158788809E+01 -0.30128785450E+03  0.50669259276E+03  0.40000000000E+03 0. -1.
<mgrwt>
<rscale>  2 0.40738558E+03</rscale>
<asrwt>0</asrwt>
<pdfrwt beam="1">  1       21 0.25717981E-01 0.40738558E+03</pdfrwt>
<pdfrwt beam="2">  1       21 0.16117106E+00 0.40738558E+03</pdfrwt>
<totfact> 0.31012469E+03</totfact>
</mgrwt>
</event>
<event>
 4    1  0.4689683E-002  0.4150950E+03  0.7818608E-02  0.1038675E+00
         21   -1    0    0  503  502  0.00000000000E+00  0.00000000000E+00  0.24447476955E+03  0.24447476955E+03  0.00000000000E+00 0. -1.
         21   -1    0    0  501  503 -0.00000000000E+00 -0.00000000000E+00 -0.72081314101E+03  0.72081314101E+03  0.00000000000E+00 0. -1.
    9000007    1    1    2  501    0 -0.87153130165E+02 -0.68616257869E+02 -0.31012442179E+03  0.51815153761E+03  0.40000000000E+03 0. -1.
   -9000007    1    1    2    0  502  0.87153130165E+02  0.68616257869E+02 -0.16621394967E+03  0.44713637294E+03  0.40000000000E+03 0. -1.
<mgrwt>
<rscale>  2 0.41509500E+03</rscale>
<asrwt>0</asrwt>
<pdfrwt beam="1">  1       21 0.37611504E-01 0.41509500E+03</pdfrwt>
<pdfrwt beam="2">  1       21 0.11089433E+00 0.41509500E+03</pdfrwt>
<totfact> 0.38578154E+03</totfact>
</mgrwt>
</event>
<event>
 4    1  0.4689683E-002  0.4092665E+03  0.7818608E-02  0.1040617E+00
         21   -1    0    0  501  502  0.00000000000E+00  0.00000000000E+00  0.86685909079E+02  0.86685909079E+02  0.00000000000E+00 0. -1.
         21   -1    0    0  502  503 -0.00000000000E+00 -0.00000000000E+00 -0.20192900116E+04  0.20192900116E+04  0.00000000000E+00 0. -1.
    9000007    1    1    2  501    0 -0.39687217741E+02 -0.76967518466E+02 -0.11849155693E+04  0.12536043955E+04  0.40000000000E+03 0.  1.
   -9000007    1    1    2    0  503  0.39687217741E+02  0.76967518466E+02 -0.74768853322E+03  0.85237152513E+03  0.40000000000E+03 0.  1.
<mgrwt>
<rscale>  2 0.40926651E+03</rscale>
<asrwt>0</asrwt>
<pdfrwt beam="1">  1       21 0.13336294E-01 0.40926651E+03</pdfrwt>
<pdfrwt beam="2">  1       21 0.31065999E+00 0.40926651E+03</pdfrwt>
<totfact> 0.11876068E+03</totfact>
</mgrwt>
</event>
<event>
 4    1  0.4689683E-002  0.5435457E+03  0.7818608E-02  0.1002999E+00
         21   -1    0    0  501  502  0.00000000000E+00  0.00000000000E+00  0.31387347336E+03  0.31387347336E+03  0.00000000000E+00 0. -1.
         21   -1    0    0  502  503 -0.00000000000E+00 -0.00000000000E+00 -0.94358041417E+03  0.94358041417E+03  0.00000000000E+00 0.  1.
    9000007    1    1    2  501    0 -0.46581792115E+02 -0.36506449824E+03 -0.34591605949E+03  0.64428244694E+03  0.40000000000E+03 0. -1.
   -9000007    1    1    2    0  503  0.46581792115E+02  0.36506449824E+03 -0.28379088132E+03  0.61317144059E+03  0.40000000000E+03 0. -1.
<mgrwt>
<rscale>  2 0.54354572E+03</rscale>
<asrwt>0</asrwt>
<pdfrwt beam="1">  1       21 0.48288226E-01 0.54354572E+03</pdfrwt>
<pdfrwt beam="2">  1       21 0.14516622E+00 0.54354572E+03</pdfrwt>
<totfact> 0.10912587E+03</totfact>
</mgrwt>
</event>
<event>
 4    1  0.4689683E-002  0.4012784E+03  0.7818608E-02  0.1043338E+00
         21   -1    0    0  501  502  0.00000000000E+00  0.00000000000E+00  0.16324860619E+03  0.16324860619E+03  0.00000000000E+00 0.  1.
         21   -1    0    0  502  503 -0.00000000000E+00 -0.00000000000E+00 -0.12344158119E+04  0.12344158119E+04  0.00000000000E+00 0.  1.
    9000007    1    1    2  501    0 -0.15866185224E+02  0.27796171855E+02 -0.22232453946E+03  0.45875109139E+03  0.40000000000E+03 0.  1.
   -9000007    1    1    2    0  503  0.15866185224E+02 -0.27796171855E+02 -0.84884266620E+03  0.93891332665E+03  0.40000000000E+03 0.  1.
<mgrwt>
<rscale>  2 0.40127841E+03</rscale>
<asrwt>0</asrwt>
<pdfrwt beam="1">  1       21 0.25115170E-01 0.40127841E+03</pdfrwt>
<pdfrwt beam="2">  1       21 0.18991013E+00 0.40127841E+03</pdfrwt>
<totfact> 0.20318266E+03</totfact>
</mgrwt>
</event>
<event>
 4    1  0.4689683E-002  0.4812788E+03  0.7818608E-02  0.1018784E+00
         21   -1    0    0  503  502  0.00000000000E+00  0.00000000000E+00  0.58844670511E+03  0.58844670511E+03  0.00000000000E+00 0. -1.
         21   -1    0    0  501  503 -0.00000000000E+00 -0.00000000000E+00 -0.16024399188E+04  0.16024399188E+04  0.00000000000E+00 0. -1.
    9000007    1    1    2  501    0  0.26749982555E+03  0.85518618778E+01 -0.14584298878E+04  0.15357887318E+04  0.40000000000E+03 0. -1.
   -9000007    1    1    2    0  502 -0.26749982555E+03 -0.85518618778E+01  0.44443667410E+03  0.65509789215E+03  0.40000000000E+03 0. -1.
<mgrwt>
<rscale>  2 0.48127881E+03</rscale>
<asrwt>0</asrwt>
<pdfrwt beam="1">  1       21 0.90530264E-01 0.48127881E+03</pdfrwt>
<pdfrwt beam="2">  1       21 0.24652921E+00 0.48127881E+03</pdfrwt>
<totfact> 0.54995299E+01</totfact>
</mgrwt>
</event>
<event>
 4    1  0.4689683E-002  0.4032262E+03  0.7818608E-02  0.1042668E+00
         21   -1    0    0  503  502  0.00000000000E+00  0.00000000000E+00  0.24216480227E+04  0.24216480227E+04  0.00000000000E+00 0.  1.
         21   -1    0    0  501  503 -0.00000000000E+00 -0.00000000000E+00 -0.80906191980E+02  0.80906191980E+02  0.00000000000E+00 0.  1.
    9000007    1    1    2  501    0 -0.47674973811E+02 -0.17846012942E+02  0.65424350416E+03  0.76852192295E+03  0.40000000000E+03 0. -1.
   -9000007    1    1    2    0  502  0.47674973811E+02  0.17846012942E+02  0.16864983265E+04  0.17340322917E+04  0.40000000000E+03 0. -1.
<mgrwt>
<rscale>  2 0.40322622E+03</rscale>
<asrwt>0</asrwt>
<pdfrwt beam="1">  1       21 0.37256118E+00 0.40322622E+03</pdfrwt>
<pdfrwt beam="2">  1       21 0.12447108E-01 0.40322622E+03</pdfrwt>
<totfact> 0.56809343E+02</totfact>
</mgrwt>
</event>
<event>
 4    1  0.4689683E-002  0.4074952E+03  0.7818608E-02  0.1041215E+00
         21   -1    0    0  501  502  0.00000000000E+00  0.00000000000E+00  0.25499255170E+03  0.25499255170E+03  0.00000000000E+00 0. -1.
         21   -1    0    0  502  503 -0.00000000000E+00 -0.00000000000E+00 -0.82849363626E+03  0.82849363626E+03  0.00000000000E+00 0. -1.
    9000007    1    1    2  501    0  0.73458888878E+02  0.25614357460E+02 -0.36145487834E+02  0.40909509891E+03  0.40000000000E+03 0. -1.
   -9000007    1    1    2    0  503 -0.73458888878E+02 -0.25614357460E+02 -0.53735559672E+03  0.67439108905E+03  0.40000000000E+03 0. -1.
<mgrwt>
<rscale>  2 0.40749516E+03</rscale>
<asrwt>0</asrwt>
<pdfrwt beam="1">  1       21 0.39229623E-01 0.40749516E+03</pdfrwt>
<pdfrwt beam="2">  1       21 0.12746056E+00 0.40749516E+03</pdfrwt>
<totfact> 0.24976728E+03</totfact>
</mgrwt>
</event>
<event>
 4    1  0.4689683E-002  0.4649335E+03  0.7818608E-02  0.1023360E+00
         21   -1    0    0  501  502  0.00000000000E+00  0.00000000000E+00  0.36638856313E+03  0.36638856313E+03  0.00000000000E+00 0.  1.
         21   -1    0    0  502  503 -0.00000000000E+00 -0.00000000000E+00 -0.10843719838E+04  0.10843719838E+04  0.00000000000E+00 0.  1.
    9000007    1    1    2  501    0 -0.16728952425E+03 -0.16786117074E+03  0.13079932122E+03  0.48298200795E+03  0.40000000000E+03 0.  1.
   -9000007    1    1    2    0  503  0.16728952425E+03  0.16786117074E+03 -0.84878274185E+03  0.96777853894E+03  0.40000000000E+03 0.  1.
<mgrwt>
<rscale>  2 0.46493350E+03</rscale>
<asrwt>0</asrwt>
<pdfrwt beam="1">  1       21 0.56367472E-01 0.46493350E+03</pdfrwt>
<pdfrwt beam="2">  1       21 0.16682646E+00 0.46493350E+03</pdfrwt>
<totfact> 0.54966276E+02</totfact>
</mgrwt>
</event>
<event>
 4    1  0.4689683E-002  0.4040001E+03  0.7818608E-02  0.1042403E+00
         21   -1    0    0  503  502  0.00000000000E+00  0.00000000000E+00  0.21149787318E+03  0.21149787318E+03  0.00000000000E+00 0. -1.
         21   -1    0    0  501  503 -0.00000000000E+00 -0.00000000000E+00 -0.10731379049E+04  0.10731379049E+04  0.00000000000E+00 0. -1.
    9000007    1    1    2  501    0 -0.72380612632E+01 -0.56246452560E+02 -0.77123641361E+03  0.87064439275E+03  0.40000000000E+03 0. -1.
   -9000007    1    1    2    0  502  0.72380612632E+01  0.56246452560E+02 -0.90403618104E+02  0.41399138532E+03  0.40000000000E+03 0. -1.
<mgrwt>
<rscale>  2 0.40400007E+03</rscale>
<asrwt>0</asrwt>
<pdfrwt beam="1">  1       21 0.32538135E-01 0.40400007E+03</pdfrwt>
<pdfrwt beam="2">  1       21 0.16509814E+00 0.40400007E+03</pdfrwt>
<totfact> 0.18251192E+03</totfact>
</mgrwt>
</event>
<event>
 4    1  0.4689683E-002  0.6907667E+03  0.7818608E-02  0.9733154E-01
         21   -1    0    0  503  502  0.00000000000E+00  0.00000000000E+00  0.57259996704E+03  0.57259996704E+03  0.00000000000E+00 0. -1.
         21   -1    0    0  501  503 -0.00000000000E+00 -0.00000000000E+00 -0.13901429814E+04  0.13901429814E+04  0.00000000000E+00 0. -1.
    9000007    1    1    2  501    0 -0.55800489061E+03  0.76086421541E+02 -0.10298729593E+04  0.12400793982E+04  0.40000000000E+03 0. -1.
   -9000007    1    1    2    0  502  0.55800489061E+03 -0.76086421541E+02  0.21232994487E+03  0.72266355033E+03  0.40000000000E+03 0. -1.
<mgrwt>
<rscale>  2 0.69076668E+03</rscale>
<asrwt>0</asrwt>
<pdfrwt beam="1">  1       21 0.88092304E-01 0.69076668E+03</pdfrwt>
<pdfrwt beam="2">  1       21 0.21386815E+00 0.69076668E+03</pdfrwt>
<totfact> 0.85960946E+01</totfact>
</mgrwt>
</event>
<event>
 4    1  0.4689683E-002  0.4314496E+03  0.7818608E-02  0.1033403E+00
         21   -1    0    0  503  502  0.00000000000E+00  0.00000000000E+00  0.85770152744E+03  0.85770152744E+03  0.00000000000E+00 0. -1.
         21   -1    0    0  501  503 -0.00000000000E+00 -0.00000000000E+00 -0.33925045247E+03  0.33925045247E+03  0.00000000000E+00 0.  1.
    9000007    1    1    2  501    0 -0.15963383156E+03  0.25803621023E+02 -0.99989640018E+02  0.44288453930E+03  0.40000000000E+03 0.  1.
   -9000007    1    1    2    0  502  0.15963383156E+03 -0.25803621023E+02  0.61844071499E+03  0.75406744062E+03  0.40000000000E+03 0. -1.
<mgrwt>
<rscale>  2 0.43144963E+03</rscale>
<asrwt>0</asrwt>
<pdfrwt beam="1">  1       21 0.13195408E+00 0.43144963E+03</pdfrwt>
<pdfrwt beam="2">  1       21 0.52192378E-01 0.43144963E+03</pdfrwt>
<totfact> 0.12433832E+03</totfact>
</mgrwt>
</event>
<event>
 4    1  0.4689683E-002  0.4277474E+03  0.7818608E-02  0.1034574E+00
         21   -1    0    0  503  502  0.00000000000E+00  0.00000000000E+00  0.11887760038E+03  0.11887760038E+03  0.00000000000E+00 0. -1.
         21   -1    0    0  501  503 -0.00000000000E+00 -0.00000000000E+00 -0.17739082468E+04  0.17739082468E+04  0.00000000000E+00 0.  1.
    9000007    1    1    2  501    0 -0.97313324137E+02  0.11618066171E+03 -0.11718151428E+04  0.12474448116E+04  0.40000000000E+03 0.  1.
   -9000007    1    1    2    0  502  0.97313324137E+02 -0.11618066171E+03 -0.48321550363E+03  0.64534103555E+03  0.40000000000E+03 0. -1.
<mgrwt>
<rscale>  2 0.42774739E+03</rscale>
<asrwt>0</asrwt>
<pdfrwt beam="1">  1       21 0.18288863E-01 0.42774739E+03</pdfrwt>
<pdfrwt beam="2">  1       21 0.27290895E+00 0.42774739E+03</pdfrwt>
<totfact> 0.11009354E+03</totfact>
</mgrwt>
</event>
<event>
 4    1  0.4689683E-002  0.4969194E+03  0.7818608E-02  0.1014586E+00
         21   -1    0    0  503  502  0.00000000000E+00  0.00000000000E+00  0.94393245741E+02  0.94393245741E+02  0.00000000000E+00 0. -1.
         21   -1    0    0  501  503 -0.00000000000E+00 -0.00000000000E+00 -0.29801200273E+04  0.29801200273E+04  0.00000000000E+00 0.  1.
    9000007    1    1    2  501    0  0.29409047041E+03  0.20968258034E+02 -0.19802367798E+04  0.20416333110E+04  0.40000000000E+03 0.  1.
   -9000007    1    1    2    0  502 -0.29409047041E+03 -0.20968258034E+02 -0.90549000172E+03  0.10328799620E+04  0.40000000000E+03 0. -1.
<mgrwt>
<rscale>  2 0.49691938E+03</rscale>
<asrwt>0</asrwt>
<pdfrwt beam="1">  1       21 0.14522037E-01 0.49691938E+03</pdfrwt>
<pdfrwt beam="2">  1       21 0.45848001E+00 0.49691938E+03</pdfrwt>
<totfact> 0.11053749E+02</totfact>
</mgrwt>
</event>
<event>
 4    1  0.4689683E-002  0.5421173E+03  0.7818608E-02  0.1003335E+00
         21   -1    0    0  503  502  0.00000000000E+00  0.00000000000E+00  0.78944834280E+03  0.78944834280E+03  0.00000000000E+00 0.  1.
         21   -1    0    0  501  503 -0.00000000000E+00 -0.00000000000E+00 -0.51752453947E+03  0.51752453947E+03  0.00000000000E+00 0. -1.
    9000007    1    1    2  501    0 -0.97885021487E+02  0.35257574934E+03  0.48216416341E+03  0.72551596601E+03  0.40000000000E+03 0.  1.
   -9000007    1    1    2    0  502  0.97885021487E+02 -0.35257574934E+03 -0.21024036008E+03  0.58145691625E+03  0.40000000000E+03 0. -1.
<mgrwt>
<rscale>  2 0.54211727E+03</rscale>
<asrwt>0</asrwt>
<pdfrwt beam="1">  1       21 0.12145359E+00 0.54211727E+03</pdfrwt>
<pdfrwt beam="2">  1       21 0.79619160E-01 0.54211727E+03</pdfrwt>
<totfact> 0.57641323E+02</totfact>
</mgrwt>
</event>
<event>
 4    1  0.4689683E-002  0.6009261E+03  0.7818608E-02  0.9903487E-01
         21   -1    0    0  503  502  0.00000000000E+00  0.00000000000E+00  0.44349800704E+03  0.44349800704E+03  0.00000000000E+00 0. -1.
         21   -1    0    0  501  503 -0.00000000000E+00 -0.00000000000E+00 -0.81504854409E+03  0.81504854409E+03  0.00000000000E+00 0. -1.
    9000007    1    1    2  501    0  0.16898097010E+03  0.41540054544E+03 -0.20564023142E+03  0.63513784817E+03  0.40000000000E+03 0. -1.
   -9000007    1    1    2    0  502 -0.16898097010E+03 -0.41540054544E+03 -0.16591030564E+03  0.62340870296E+03  0.40000000000E+03 0. -1.
<mgrwt>
<rscale>  2 0.60092610E+03</rscale>
<asrwt>0</asrwt>
<pdfrwt beam="1">  1       21 0.68230462E-01 0.60092610E+03</pdfrwt>
<pdfrwt beam="2">  1       21 0.12539209E+00 0.60092610E+03</pdfrwt>
<totfact> 0.74046831E+02</totfact>
</mgrwt>
</event>
<event>
 4    1  0.4689683E-002  0.6509685E+03  0.7818608E-02  0.9804964E-01
         21   -1    0    0  503  502  0.00000000000E+00  0.00000000000E+00  0.11943372713E+04  0.11943372713E+04  0.00000000000E+00 0. -1.
         21   -1    0    0  501  503 -0.00000000000E+00 -0.00000000000E+00 -0.39314292214E+03  0.39314292214E+03  0.00000000000E+00 0. -1.
    9000007    1    1    2  501    0 -0.21539702460E+03  0.46622321263E+03  0.64845494923E+03  0.91883283756E+03  0.40000000000E+03 0. -1.
   -9000007    1    1    2    0  502  0.21539702460E+03 -0.46622321263E+03  0.15273939991E+03  0.66864735585E+03  0.40000000000E+03 0. -1.
<mgrwt>
<rscale>  2 0.65096848E+03</rscale>
<asrwt>0</asrwt>
<pdfrwt beam="1">  1       21 0.18374419E+00 0.65096848E+03</pdfrwt>
<pdfrwt beam="2">  1       21 0.60483527E-01 0.65096848E+03</pdfrwt>
<totfact> 0.33096634E+02</totfact>
</mgrwt>
</event>
<event>
 4    1  0.4689683E-002  0.4303690E+03  0.7818608E-02  0.1033743E+00
         21   -1    0    0  501  502  0.00000000000E+00  0.00000000000E+00  0.40910816791E+03  0.40910816791E+03  0.00000000000E+00 0. -1.
         21   -1    0    0  502  503 -0.00000000000E+00 -0.00000000000E+00 -0.47435891548E+03  0.47435891548E+03  0.00000000000E+00 0.  1.
    9000007    1    1    2  501    0  0.15838665961E+03  0.11450557808E+02 -0.12693963746E+03  0.44869936569E+03  0.40000000000E+03 0.  1.
   -9000007    1    1    2    0  503 -0.15838665961E+03 -0.11450557808E+02  0.61688889894E+02  0.43476771770E+03  0.40000000000E+03 0. -1.
<mgrwt>
<rscale>  2 0.43036897E+03</rscale>
<asrwt>0</asrwt>
<pdfrwt beam="1">  1       21 0.62939718E-01 0.43036897E+03</pdfrwt>
<pdfrwt beam="2">  1       21 0.72978295E-01 0.43036897E+03</pdfrwt>
<totfact> 0.34733803E+03</totfact>
</mgrwt>
</event>
<event>
 4    1  0.4689683E-002  0.9320041E+03  0.7818608E-02  0.9386436E-01
         21   -1    0    0  503  502  0.00000000000E+00  0.00000000000E+00  0.77314040179E+03  0.77314040179E+03  0.00000000000E+00 0. -1.
         21   -1    0    0  501  503 -0.00000000000E+00 -0.00000000000E+00 -0.11235110074E+04  0.11235110074E+04  0.00000000000E+00 0. -1.
    9000007    1    1    2  501    0 -0.84063040551E+03  0.44409388684E+02 -0.17547171078E+03  0.94837861308E+03  0.40000000000E+03 0. -1.
   -9000007    1    1    2    0  502  0.84063040551E+03 -0.44409388684E+02 -0.17489889486E+03  0.94827279613E+03  0.40000000000E+03 0. -1.
<mgrwt>
<rscale>  2 0.93200412E+03</rscale>
<asrwt>0</asrwt>
<pdfrwt beam="1">  1       21 0.11894468E+00 0.93200412E+03</pdfrwt>
<pdfrwt beam="2">  1       21 0.17284785E+00 0.93200412E+03</pdfrwt>
<totfact> 0.73160887E+01</totfact>
</mgrwt>
</event>
<event>
 4    1  0.4689683E-002  0.4218578E+03  0.7818608E-02  0.1036463E+00
         21   -1    0    0  501  502  0.00000000000E+00  0.00000000000E+00  0.40715929088E+03  0.40715929088E+03  0.00000000000E+00 0. -1.
         21   -1    0    0  502  503 -0.00000000000E+00 -0.00000000000E+00 -0.77026119966E+03  0.77026119966E+03  0.00000000000E+00 0. -1.
    9000007    1    1    2  501    0  0.14528470358E+02 -0.13324022655E+03  0.20563381236E+03  0.46930725459E+03  0.40000000000E+03 0. -1.
   -9000007    1    1    2    0  503 -0.14528470358E+02  0.13324022655E+03 -0.56873572115E+03  0.70811323595E+03  0.40000000000E+03 0. -1.
<mgrwt>
<rscale>  2 0.42185784E+03</rscale>
<asrwt>0</asrwt>
<pdfrwt beam="1">  1       21 0.62639892E-01 0.42185784E+03</pdfrwt>
<pdfrwt beam="2">  1       21 0.11850172E+00 0.42185784E+03</pdfrwt>
<totfact> 0.11072962E+03</totfact>
</mgrwt>
</event>
<event>
 4    1  0.4689683E-002  0.4037064E+03  0.7818608E-02  0.1042504E+00
         21   -1    0    0  501  502  0.00000000000E+00  0.00000000000E+00  0.11359769227E+03  0.11359769227E+03  0.00000000000E+00 0. -1.
         21   -1    0    0  502  503 -0.00000000000E+00 -0.00000000000E+00 -0.15151144576E+04  0.15151144576E+04  0.00000000000E+00 0. -1.
    9000007    1    1    2  501    0  0.14939578879E+02  0.52494613345E+02 -0.51314994957E+03  0.65291787094E+03  0.40000000000E+03 0.  1.
   -9000007    1    1    2    0  503 -0.14939578879E+02 -0.52494613345E+02 -0.88836681578E+03  0.97579427895E+03  0.40000000000E+03 0.  1.
<mgrwt>
<rscale>  2 0.40370642E+03</rscale>
<asrwt>0</asrwt>
<pdfrwt beam="1">  1       21 0.17476568E-01 0.40370642E+03</pdfrwt>
<pdfrwt beam="2">  1       21 0.23309453E+00 0.40370642E+03</pdfrwt>
<totfact> 0.21263857E+03</totfact>
</mgrwt>
</event>
<event>
 4    1  0.4689683E-002  0.4761451E+03  0.7818608E-02  0.1020200E+00
         21   -1    0    0  501  502  0.00000000000E+00  0.00000000000E+00  0.81348502923E+03  0.81348502923E+03  0.00000000000E+00 0.  1.
         21   -1    0    0  502  503 -0.00000000000E+00 -0.00000000000E+00 -0.32687978933E+03  0.32687978933E+03  0.00000000000E+00 0. -1.
    9000007    1    1    2  501    0  0.14115845716E+03 -0.21630628077E+03  0.46221749781E+03  0.66359560910E+03  0.40000000000E+03 0.  1.
   -9000007    1    1    2    0  503 -0.14115845716E+03  0.21630628077E+03  0.24387742089E+02  0.47676920946E+03  0.40000000000E+03 0. -1.
<mgrwt>
<rscale>  2 0.47614506E+03</rscale>
<asrwt>0</asrwt>
<pdfrwt beam="1">  1       21 0.12515154E+00 0.47614506E+03</pdfrwt>
<pdfrwt beam="2">  1       21 0.50289199E-01 0.47614506E+03</pdfrwt>
<totfact> 0.15161624E+03</totfact>
</mgrwt>
</event>
<event>
 4    1  0.4689683E-002  0.6270923E+03  0.7818608E-02  0.9850739E-01
         21   -1    0    0  501  502  0.00000000000E+00  0.00000000000E+00  0.73101497380E+03  0.73101497380E+03  0.00000000000E+00 0.  1.
         21   -1    0    0  502  503 -0.00000000000E+00 -0.00000000000E+00 -0.54899295237E+03  0.54899295237E+03  0.00000000000E+00 0.  1.
    9000007    1    1    2  501    0  0.10743754201E+03 -0.47085235422E+03  0.21445991182E+00  0.62709234639E+03  0.40000000000E+03 0.  1.
   -9000007    1    1    2    0  503 -0.10743754201E+03  0.47085235422E+03  0.18180756152E+03  0.65291557979E+03  0.40000000000E+03 0.  1.
<mgrwt>
<rscale>  2 0.62709231E+03</rscale>
<asrwt>0</asrwt>
<pdfrwt beam="1">  1       21 0.11246384E+00 0.62709231E+03</pdfrwt>
<pdfrwt beam="2">  1       21 0.84460454E-01 0.62709231E+03</pdfrwt>
<totfact> 0.59313825E+02</totfact>
</mgrwt>
</event>
<event>
 4    1  0.4689683E-002  0.4682414E+03  0.7818608E-02  0.1022418E+00
         21   -1    0    0  501  502  0.00000000000E+00  0.00000000000E+00  0.78736186893E+03  0.78736186893E+03  0.00000000000E+00 0. -1.
         21   -1    0    0  502  503 -0.00000000000E+00 -0.00000000000E+00 -0.43636651257E+03  0.43636651257E+03  0.00000000000E+00 0.  1.
    9000007    1    1    2  501    0 -0.33097990017E+02 -0.24115249915E+03  0.54356496679E+03  0.71743492939E+03  0.40000000000E+03 0. -1.
   -9000007    1    1    2    0  503  0.33097990017E+02  0.24115249915E+03 -0.19256961043E+03  0.50629345211E+03  0.40000000000E+03 0.  1.
<mgrwt>
<rscale>  2 0.46824140E+03</rscale>
<asrwt>0</asrwt>
<pdfrwt beam="1">  1       21 0.12113259E+00 0.46824140E+03</pdfrwt>
<pdfrwt beam="2">  1       21 0.67133310E-01 0.46824140E+03</pdfrwt>
<totfact> 0.88034406E+02</totfact>
</mgrwt>
</event>
<event>
 4    1  0.4689683E-002  0.6857112E+03  0.7818608E-02  0.9741985E-01
         21   -1    0    0  501  502  0.00000000000E+00  0.00000000000E+00  0.17584575242E+04  0.17584575242E+04  0.00000000000E+00 0.  1.
         21   -1    0    0  502  503 -0.00000000000E+00 -0.00000000000E+00 -0.28352063935E+03  0.28352063935E+03  0.00000000000E+00 0.  1.
    9000007    1    1    2  501    0 -0.25740131060E+03 -0.49390733210E+03  0.98097415107E+03  0.11968751700E+04  0.40000000000E+03 0.  1.
   -9000007    1    1    2    0  503  0.25740131060E+03  0.49390733210E+03  0.49396273376E+03  0.84510299357E+03  0.40000000000E+03 0.  1.
<mgrwt>
<rscale>  2 0.68571123E+03</rscale>
<asrwt>0</asrwt>
<pdfrwt beam="1">  1       21 0.27053192E+00 0.68571123E+03</pdfrwt>
<pdfrwt beam="2">  1       21 0.43618561E-01 0.68571123E+03</pdfrwt>
<totfact> 0.18077123E+02</totfact>
</mgrwt>
</event>
<event>
 4    1  0.4689683E-002  0.5240878E+03  0.7818608E-02  0.1007676E+00
         21   -1    0    0  501  502  0.00000000000E+00  0.00000000000E+00  0.13984092275E+04  0.13984092275E+04  0.00000000000E+00 0. -1.
         21   -1    0    0  502  503 -0.00000000000E+00 -0.00000000000E+00 -0.24858947173E+03  0.24858947173E+03  0.00000000000E+00 0.  1.
    9000007    1    1    2  501    0  0.58376971288E+02 -0.33355680838E+03  0.95218008633E+03  0.10868831271E+04  0.40000000000E+03 0. -1.
   -9000007    1    1    2    0  503 -0.58376971288E+02  0.33355680838E+03  0.19763966945E+03  0.56011557212E+03  0.40000000000E+03 0.  1.
<mgrwt>
<rscale>  2 0.52408779E+03</rscale>
<asrwt>0</asrwt>
<pdfrwt beam="1">  1       21 0.21513988E+00 0.52408779E+03</pdfrwt>
<pdfrwt beam="2">  1       21 0.38244535E-01 0.52408779E+03</pdfrwt>
<totfact> 0.56488989E+02</totfact>
</mgrwt>
</event>
<event>
 4    1  0.4689683E-002  0.4294558E+03  0.7818608E-02  0.1034032E+00
         21   -1    0    0  501  502  0.00000000000E+00  0.00000000000E+00  0.35155145858E+03  0.35155145858E+03  0.00000000000E+00 0. -1.
         21   -1    0    0  502  503 -0.00000000000E+00 -0.00000000000E+00 -0.55809356888E+03  0.55809356888E+03  0.00000000000E+00 0. -1.
    9000007    1    1    2  501    0 -0.14163754029E+03  0.66114454877E+02  0.81106454854E+01  0.42953241616E+03  0.40000000000E+03 0. -1.
   -9000007    1    1    2    0  503  0.14163754029E+03 -0.66114454877E+02 -0.21465275578E+03  0.48011261130E+03  0.40000000000E+03 0. -1.
<mgrwt>
<rscale>  2 0.42945583E+03</rscale>
<asrwt>0</asrwt>
<pdfrwt beam="1">  1       21 0.54084840E-01 0.42945583E+03</pdfrwt>
<pdfrwt beam="2">  1       21 0.85860549E-01 0.42945583E+03</pdfrwt>
<totfact> 0.33246946E+03</totfact>
</mgrwt>
</event>
<event>
 4    1  0.4689683E-002  0.4076037E+03  0.7818608E-02  0.1041178E+00
         21   -1    0    0  501  502  0.00000000000E+00  0.00000000000E+00  0.15185620704E+03  0.15185620704E+03  0.00000000000E+00 0. -1.
         21   -1    0    0  502  503 -0.00000000000E+00 -0.00000000000E+00 -0.11066752227E+04  0.11066752227E+04  0.00000000000E+00 0. -1.
    9000007    1    1    2  501    0 -0.37558987831E+02 -0.68775713158E+02 -0.41024173352E+03  0.57830706048E+03  0.40000000000E+03 0.  1.
   -9000007    1    1    2    0  503  0.37558987831E+02  0.68775713158E+02 -0.54457728210E+03  0.68022436921E+03  0.40000000000E+03 0.  1.
<mgrwt>
<rscale>  2 0.40760370E+03</rscale>
<asrwt>0</asrwt>
<pdfrwt beam="1">  1       21 0.23362494E-01 0.40760370E+03</pdfrwt>
<pdfrwt beam="2">  1       21 0.17025772E+00 0.40760370E+03</pdfrwt>
<totfact> 0.32018159E+03</totfact>
</mgrwt>
</event>
<event>
 4    1  0.4689683E-002  0.9757445E+03  0.7818608E-02  0.9335555E-01
         21   -1    0    0  501  502  0.00000000000E+00  0.00000000000E+00  0.13410341250E+04  0.13410341250E+04  0.00000000000E+00 0.  1.
         21   -1    0    0  502  503 -0.00000000000E+00 -0.00000000000E+00 -0.75415880291E+03  0.75415880291E+03  0.00000000000E+00 0. -1.
    9000007    1    1    2  501    0 -0.69476747828E+03  0.55621525547E+03  0.54705565745E+03  0.11186362910E+04  0.40000000000E+03 0.  1.
   -9000007    1    1    2    0  503  0.69476747828E+03 -0.55621525547E+03  0.39819664636E+02  0.97655663685E+03  0.40000000000E+03 0. -1.
<mgrwt>
<rscale>  2 0.97574446E+03</rscale>
<asrwt>0</asrwt>
<pdfrwt beam="1">  1       21 0.20631294E+00 0.97574446E+03</pdfrwt>
<pdfrwt beam="2">  1       21 0.11602443E+00 0.97574446E+03</pdfrwt>
<totfact> 0.44740635E+01</totfact>
</mgrwt>
</event>
<event>
 4    1  0.4689683E-002  0.5455999E+03  0.7818608E-02  0.1002518E+00
         21   -1    0    0  503  502  0.00000000000E+00  0.00000000000E+00  0.10308978204E+04  0.10308978204E+04  0.00000000000E+00 0.  1.
         21   -1    0    0  501  503 -0.00000000000E+00 -0.00000000000E+00 -0.38163884829E+03  0.38163884829E+03  0.00000000000E+00 0. -1.
    9000007    1    1    2  501    0 -0.36990762318E+03  0.29113576358E+02 -0.23794638806E+02  0.54611851722E+03  0.40000000000E+03 0. -1.
   -9000007    1    1    2    0  502  0.36990762318E+03 -0.29113576358E+02  0.67305361089E+03  0.86641815144E+03  0.40000000000E+03 0.  1.
<mgrwt>
<rscale>  2 0.54559990E+03</rscale>
<asrwt>0</asrwt>
<pdfrwt beam="1">  1       21 0.15859966E+00 0.54559990E+03</pdfrwt>
<pdfrwt beam="2">  1       21 0.58713669E-01 0.54559990E+03</pdfrwt>
<totfact> 0.56091138E+02</totfact>
</mgrwt>
</event>
<event>
 4    1  0.4689683E-002  0.4508438E+03  0.7818608E-02  0.1027471E+00
         21   -1    0    0  501  502  0.00000000000E+00  0.00000000000E+00  0.19052671156E+03  0.19052671156E+03  0.00000000000E+00 0. -1.
         21   -1    0    0  502  503 -0.00000000000E+00 -0.00000000000E+00 -0.10687820930E+04  0.10687820930E+04  0.00000000000E+00 0.  1.
    9000007    1    1    2  501    0  0.45231995669E+02  0.20301287431E+03 -0.46601746865E+03  0.64840761999E+03  0.40000000000E+03 0.  1.
   -9000007    1    1    2    0  503 -0.45231995669E+02 -0.20301287431E+03 -0.41223791274E+03  0.61090118454E+03  0.40000000000E+03 0.  1.
<mgrwt>
<rscale>  2 0.45084383E+03</rscale>
<asrwt>0</asrwt>
<pdfrwt beam="1">  1       21 0.29311802E-01 0.45084383E+03</pdfrwt>
<pdfrwt beam="2">  1       21 0.16442801E+00 0.45084383E+03</pdfrwt>
<totfact> 0.22279462E+03</totfact>
</mgrwt>
</event>
<event>
 4    1  0.4689683E-002  0.4220377E+03  0.7818608E-02  0.1036405E+00
         21   -1    0    0  503  502  0.00000000000E+00  0.00000000000E+00  0.14022793674E+03  0.14022793674E+03  0.00000000000E+00 0.  1.
         21   -1    0    0  501  503 -0.00000000000E+00 -0.00000000000E+00 -0.14724883489E+04  0.14724883489E+04  0.00000000000E+00 0.  1.
    9000007    1    1    2  501    0 -0.13260059955E+03 -0.23085053245E+02 -0.96501263752E+03  0.10532640833E+04  0.40000000000E+03 0.  1.
   -9000007    1    1    2    0  502  0.13260059955E+03  0.23085053245E+02 -0.36724777468E+03  0.55945220233E+03  0.40000000000E+03 0.  1.
<mgrwt>
<rscale>  2 0.42203772E+03</rscale>
<asrwt>0</asrwt>
<pdfrwt beam="1">  1       21 0.21573530E-01 0.42203772E+03</pdfrwt>
<pdfrwt beam="2">  1       21 0.22653666E+00 0.42203772E+03</pdfrwt>
<totfact> 0.15542364E+03</totfact>
</mgrwt>
</event>
<event>
 4    1  0.4689683E-002  0.5043907E+03  0.7818608E-02  0.1012639E+00
         21   -1    0    0  503  502  0.00000000000E+00  0.00000000000E+00  0.56746187476E+03  0.56746187476E+03  0.00000000000E+00 0.  1.
         21   -1    0    0  501  503 -0.00000000000E+00 -0.00000000000E+00 -0.49000349818E+03  0.49000349818E+03  0.00000000000E+00 0. -1.
    9000007    1    1    2  501    0  0.29027016898E+03 -0.10076291369E+03 -0.11546528646E+03  0.51743808147E+03  0.40000000000E+03 0.  1.
   -9000007    1    1    2    0  502 -0.29027016898E+03  0.10076291369E+03  0.19292366304E+03  0.54002729147E+03  0.40000000000E+03 0. -1.
<mgrwt>
<rscale>  2 0.50439066E+03</rscale>
<asrwt>0</asrwt>
<pdfrwt beam="1">  1       21 0.87301827E-01 0.50439066E+03</pdfrwt>
<pdfrwt beam="2">  1       21 0.75385154E-01 0.50439066E+03</pdfrwt>
<totfact> 0.14903304E+03</totfact>
</mgrwt>
</event>
<event>
 4    1  0.4689683E-002  0.4567431E+03  0.7818608E-02  0.1025730E+00
         21   -1    0    0  503  502  0.00000000000E+00  0.00000000000E+00  0.52797680567E+03  0.52797680567E+03  0.00000000000E+00 0. -1.
         21   -1    0    0  501  503 -0.00000000000E+00 -0.00000000000E+00 -0.44015883792E+03  0.44015883792E+03  0.00000000000E+00 0. -1.
    9000007    1    1    2  501    0  0.21931796680E+03  0.22669529124E+02 -0.11093499921E+03  0.47002218263E+03  0.40000000000E+03 0. -1.
   -9000007    1    1    2    0  502 -0.21931796680E+03 -0.22669529124E+02  0.19875296697E+03  0.49811346096E+03  0.40000000000E+03 0. -1.
<mgrwt>
<rscale>  2 0.45674312E+03</rscale>
<asrwt>0</asrwt>
<pdfrwt beam="1">  1       21 0.81227200E-01 0.45674312E+03</pdfrwt>
<pdfrwt beam="2">  1       21 0.67716745E-01 0.45674312E+03</pdfrwt>
<totfact> 0.22875304E+03</totfact>
</mgrwt>
</event>
<event>
 4    1  0.4689683E-002  0.4318751E+03  0.7818608E-02  0.1033269E+00
         21   -1    0    0  501  502  0.00000000000E+00  0.00000000000E+00  0.11068091238E+04  0.11068091238E+04  0.00000000000E+00 0. -1.
         21   -1    0    0  502  503 -0.00000000000E+00 -0.00000000000E+00 -0.45459623874E+03  0.45459623874E+03  0.00000000000E+00 0. -1.
    9000007    1    1    2  501    0  0.16283688736E+03  0.50445791392E+00 -0.29321476894E+03  0.52200671172E+03  0.40000000000E+03 0. -1.
   -9000007    1    1    2    0  503 -0.16283688736E+03 -0.50445791392E+00  0.94542765401E+03  0.10393986508E+04  0.40000000000E+03 0. -1.
<mgrwt>
<rscale>  2 0.43187511E+03</rscale>
<asrwt>0</asrwt>
<pdfrwt beam="1">  1       21 0.17027833E+00 0.43187511E+03</pdfrwt>
<pdfrwt beam="2">  1       21 0.69937883E-01 0.43187511E+03</pdfrwt>
<totfact> 0.32722828E+02</totfact>
</mgrwt>
</event>
<event>
 4    1  0.4689683E-002  0.4736889E+03  0.7818608E-02  0.1020884E+00
         21   -1    0    0  503  502  0.00000000000E+00  0.00000000000E+00  0.23051302740E+03  0.23051302740E+03  0.00000000000E+00 0. -1.
         21   -1    0    0  501  503 -0.00000000000E+00 -0.00000000000E+00 -0.10311995318E+04  0.10311995318E+04  0.00000000000E+00 0.  1.
    9000007    1    1    2  501    0 -0.23201326387E+03 -0.10271792608E+03 -0.54970018122E+03  0.72563862644E+03  0.40000000000E+03 0. -1.
   -9000007    1    1    2    0  502  0.23201326387E+03  0.10271792608E+03 -0.25098632315E+03  0.53607393274E+03  0.40000000000E+03 0. -1.
<mgrwt>
<rscale>  2 0.47368885E+03</rscale>
<asrwt>0</asrwt>
<pdfrwt beam="1">  1       21 0.35463544E-01 0.47368885E+03</pdfrwt>
<pdfrwt beam="2">  1       21 0.15864608E+00 0.47368885E+03</pdfrwt>
<totfact> 0.16656856E+03</totfact>
</mgrwt>
</event>
<event>
 4    1  0.4689683E-002  0.5320068E+03  0.7818608E-02  0.1005747E+00
         21   -1    0    0  501  502  0.00000000000E+00  0.00000000000E+00  0.76191524451E+03  0.76191524451E+03  0.00000000000E+00 0.  1.
         21   -1    0    0  502  503 -0.00000000000E+00 -0.00000000000E+00 -0.38454060469E+03  0.38454060469E+03  0.00000000000E+00 0. -1.
    9000007    1    1    2  501    0  0.20912195815E+03 -0.28160123297E+03  0.29435630902E+03  0.60801059567E+03  0.40000000000E+03 0.  1.
   -9000007    1    1    2    0  503 -0.20912195815E+03  0.28160123297E+03  0.83018330795E+02  0.53844525352E+03  0.40000000000E+03 0. -1.
<mgrwt>
<rscale>  2 0.53200681E+03</rscale>
<asrwt>0</asrwt>
<pdfrwt beam="1">  1       21 0.11721773E+00 0.53200681E+03</pdfrwt>
<pdfrwt beam="2">  1       21 0.59160093E-01 0.53200681E+03</pdfrwt>
<totfact> 0.12369309E+03</totfact>
</mgrwt>
</event>
<event>
 4    1  0.4689683E-002  0.6864218E+03  0.7818608E-02  0.9740739E-01
         21   -1    0    0  503  502  0.00000000000E+00  0.00000000000E+00  0.15741967477E+04  0.15741967477E+04  0.00000000000E+00 0.  1.
         21   -1    0    0  501  503 -0.00000000000E+00 -0.00000000000E+00 -0.40870536956E+03  0.40870536956E+03  0.00000000000E+00 0. -1.
    9000007    1    1    2  501    0  0.24258910337E+03  0.50232000052E+03  0.10956815022E+04  0.12929396004E+04  0.40000000000E+03 0.  1.
   -9000007    1    1    2    0  502 -0.24258910337E+03 -0.50232000052E+03  0.69809876012E+02  0.68996251694E+03  0.40000000000E+03 0. -1.
<mgrwt>
<rscale>  2 0.68642178E+03</rscale>
<asrwt>0</asrwt>
<pdfrwt beam="1">  1       21 0.24218411E+00 0.68642178E+03</pdfrwt>
<pdfrwt beam="2">  1       21 0.62877750E-01 0.68642178E+03</pdfrwt>
<totfact> 0.12300750E+02</totfact>
</mgrwt>
</event>
<event>
 4    1  0.4689683E-002  0.4097184E+03  0.7818608E-02  0.1040466E+00
         21   -1    0    0  501  502  0.00000000000E+00  0.00000000000E+00  0.10659108964E+03  0.10659108964E+03  0.00000000000E+00 0.  1.
         21   -1    0    0  502  503 -0.00000000000E+00 -0.00000000000E+00 -0.16192329550E+04  0.16192329550E+04  0.00000000000E+00 0. -1.
    9000007    1    1    2  501    0  0.62327316870E+01 -0.88489137508E+02 -0.89912061297E+03  0.98807239162E+03  0.40000000000E+03 0.  1.
   -9000007    1    1    2    0  503 -0.62327316870E+01  0.88489137508E+02 -0.61352125236E+03  0.73775165300E+03  0.40000000000E+03 0.  1.
<mgrwt>
<rscale>  2 0.40971841E+03</rscale>
<asrwt>0</asrwt>
<pdfrwt beam="1">  1       21 0.16398631E-01 0.40971841E+03</pdfrwt>
<pdfrwt beam="2">  1       21 0.24911273E+00 0.40971841E+03</pdfrwt>
<totfact> 0.19015062E+03</totfact>
</mgrwt>
</event>
<event>
 4    1  0.4689683E-002  0.4239971E+03  0.7818608E-02  0.1035773E+00
         21   -1    0    0  503  502  0.00000000000E+00  0.00000000000E+00  0.40799229229E+03  0.40799229229E+03  0.00000000000E+00 0.  1.
         21   -1    0    0  501  503 -0.00000000000E+00 -0.00000000000E+00 -0.48112437297E+03  0.48112437297E+03  0.00000000000E+00 0.  1.
    9000007    1    1    2  501    0  0.72570445239E+02  0.12044529693E+03  0.92406956390E+02  0.43394997945E+03  0.40000000000E+03 0.  1.
   -9000007    1    1    2    0  502 -0.72570445239E+02 -0.12044529693E+03 -0.16553903707E+03  0.45516668581E+03  0.40000000000E+03 0.  1.
<mgrwt>
<rscale>  2 0.42399710E+03</rscale>
<asrwt>0</asrwt>
<pdfrwt beam="1">  1       21 0.62768045E-01 0.42399710E+03</pdfrwt>
<pdfrwt beam="2">  1       21 0.74019134E-01 0.42399710E+03</pdfrwt>
<totfact> 0.33917149E+03</totfact>
</mgrwt>
</event>
<event>
 4    1  0.4689683E-002  0.4962186E+03  0.7818608E-02  0.1014771E+00
         21   -1    0    0  503  502  0.00000000000E+00  0.00000000000E+00  0.20743634953E+03  0.20743634953E+03  0.00000000000E+00 0. -1.
         21   -1    0    0  501  503 -0.00000000000E+00 -0.00000000000E+00 -0.13776528031E+04  0.13776528031E+04  0.00000000000E+00 0.  1.
    9000007    1    1    2  501    0 -0.96757155482E+02  0.27725618771E+03 -0.87991841824E+03  0.10101927358E+04  0.40000000000E+03 0.  1.
   -9000007    1    1    2    0  502  0.96757155482E+02 -0.27725618771E+03 -0.29029803535E+03  0.57489641683E+03  0.40000000000E+03 0. -1.
<mgrwt>
<rscale>  2 0.49621864E+03</rscale>
<asrwt>0</asrwt>
<pdfrwt beam="1">  1       21 0.31913284E-01 0.49621864E+03</pdfrwt>
<pdfrwt beam="2">  1       21 0.21194659E+00 0.49621864E+03</pdfrwt>
<totfact> 0.86553222E+02</totfact>
</mgrwt>
</event>
<event>
 4    1  0.4689683E-002  0.5294244E+03  0.7818608E-02  0.1006372E+00
         21   -1    0    0  503  502  0.00000000000E+00  0.00000000000E+00  0.35701770995E+03  0.35701770995E+03  0.00000000000E+00 0.  1.
         21   -1    0    0  501  503 -0.00000000000E+00 -0.00000000000E+00 -0.83122532308E+03  0.83122532308E+03  0.00000000000E+00 0.  1.
    9000007    1    1    2  501    0 -0.46130000948E+02 -0.34374738785E+03 -0.37707642909E+03  0.64998221284E+03  0.40000000000E+03 0.  1.
   -9000007    1    1    2    0  502  0.46130000948E+02  0.34374738785E+03 -0.97131184041E+02  0.53826082019E+03  0.40000000000E+03 0.  1.
<mgrwt>
<rscale>  2 0.52942445E+03</rscale>
<asrwt>0</asrwt>
<pdfrwt beam="1">  1       21 0.54925803E-01 0.52942445E+03</pdfrwt>
<pdfrwt beam="2">  1       21 0.12788082E+00 0.52942445E+03</pdfrwt>
<totfact> 0.11638481E+03</totfact>
</mgrwt>
</event>
<event>
 4    1  0.4689683E-002  0.4399204E+03  0.7818608E-02  0.1030771E+00
         21   -1    0    0  501  502  0.00000000000E+00  0.00000000000E+00  0.21163141094E+04  0.21163141094E+04  0.00000000000E+00 0. -1.
         21   -1    0    0  502  503 -0.00000000000E+00 -0.00000000000E+00 -0.91982540523E+02  0.91982540523E+02  0.00000000000E+00 0.  1.
    9000007    1    1    2  501    0 -0.16470822597E+03 -0.80007083397E+02  0.92789168936E+03  0.10268947951E+04  0.40000000000E+03 0. -1.
   -9000007    1    1    2    0  503  0.16470822597E+03  0.80007083397E+02  0.10964398795E+04  0.11814018548E+04  0.40000000000E+03 0.  1.
<mgrwt>
<rscale>  2 0.43992037E+03</rscale>
<asrwt>0</asrwt>
<pdfrwt beam="1">  1       21 0.32558675E+00 0.43992037E+03</pdfrwt>
<pdfrwt beam="2">  1       21 0.14151162E-01 0.43992037E+03</pdfrwt>
<totfact> 0.85064679E+02</totfact>
</mgrwt>
</event>
<event>
 4    1  0.4689683E-002  0.4177034E+03  0.7818608E-02  0.1037816E+00
         21   -1    0    0  503  502  0.00000000000E+00  0.00000000000E+00  0.12255340067E+04  0.12255340067E+04  0.00000000000E+00 0.  1.
         21   -1    0    0  501  503 -0.00000000000E+00 -0.00000000000E+00 -0.20906923794E+03  0.20906923794E+03  0.00000000000E+00 0.  1.
    9000007    1    1    2  501    0 -0.94986938216E+02 -0.73848591750E+02  0.10307334596E+03  0.43023278302E+03  0.40000000000E+03 0.  1.
   -9000007    1    1    2    0  502  0.94986938216E+02  0.73848591750E+02  0.91339142281E+03  0.10043704616E+04  0.40000000000E+03 0.  1.
<mgrwt>
<rscale>  2 0.41770340E+03</rscale>
<asrwt>0</asrwt>
<pdfrwt beam="1">  1       21 0.18854369E+00 0.41770340E+03</pdfrwt>
<pdfrwt beam="2">  1       21 0.32164499E-01 0.41770340E+03</pdfrwt>
<totfact> 0.12649699E+03</totfact>
</mgrwt>
</event>
<event>
 4    1  0.4689683E-002  0.4093589E+03  0.7818608E-02  0.1040586E+00
         21   -1    0    0  503  502  0.00000000000E+00  0.00000000000E+00  0.28157805628E+03  0.28157805628E+03  0.00000000000E+00 0. -1.
         21   -1    0    0  501  503 -0.00000000000E+00 -0.00000000000E+00 -0.88731415451E+03  0.88731415451E+03  0.00000000000E+00 0. -1.
    9000007    1    1    2  501    0  0.20011142377E+02 -0.84700941490E+02 -0.63824742052E+03  0.75824433074E+03  0.40000000000E+03 0. -1.
   -9000007    1    1    2    0  502 -0.20011142377E+02  0.84700941490E+02  0.32511322281E+02  0.41064788004E+03  0.40000000000E+03 0. -1.
<mgrwt>
<rscale>  2 0.40935888E+03</rscale>
<asrwt>0</asrwt>
<pdfrwt beam="1">  1       21 0.43319702E-01 0.40935888E+03</pdfrwt>
<pdfrwt beam="2">  1       21 0.13650987E+00 0.40935888E+03</pdfrwt>
<totfact> 0.17018457E+03</totfact>
</mgrwt>
</event>
