<event>
11    0  0.3494755E-009  0.9118800E+02  0.7816531E-02  0.1126479E+00
         25   -1    0    0    0    0  0.00000000000E+00  0.00000000000E+00  0.99999998245E-14  0.12500000000E+03  0.12500000000E+03 0.  0.
    3000001    1    3    3    0    0 -0.18072162228E+02  0.25169298132E+02  0.18845330728E+02  0.36280064861E+02  0.10000000000E+01 0.  1.
    1000022    2    1    0    0    0 -0.35707545783E+02  0.36595615164E+02  0.34525095164E+02  0.62499999723E+02  0.99999947119E+01 0.  0.
    3000022    2    3    3    0    0 -0.17635383555E+02  0.11426317032E+02  0.15679764437E+02  0.26219934863E+02  0.24999473469E+00 0.  0.
    1000022    2    1    0    0    0  0.35707545783E+02 -0.36595615164E+02 -0.34525095164E+02  0.62500000277E+02  0.99999981688E+01 0.  0.
    3000022    2    5    5    0    0  0.92045679545E+00 -0.50033765378E+01 -0.31808350914E+01  0.60051001424E+01  0.24999669934E+00 0.  0.
        -13    1    4    4    0    0 -0.51642571863E+01  0.33690461809E+01  0.45521087813E+01  0.76650338428E+01  0.10500000000E+00 0.  1.
         13    1    4    4    0    0 -0.12471126369E+02  0.80572708509E+01  0.11127655656E+02  0.18554901020E+02  0.10500000000E+00 0. -1.
    3000001    1    5    5    0    0  0.34787088988E+02 -0.31592238626E+02 -0.31344260073E+02  0.56494900134E+02  0.10000000000E+01 0.  1.
        -13    1    6    6    0    0  0.54941525270E+00 -0.27350897975E+01 -0.16860813238E+01  0.32613599235E+01  0.10500000000E+00 0. -1.
         13    1    6    6    0    0  0.37104154275E+00 -0.22682867403E+01 -0.14947537676E+01  0.27437402188E+01  0.10500000000E+00 0.  1.
</event>
<event>
11    0  0.3494755E-009  0.9118800E+02  0.7816531E-02  0.1126479E+00
         25   -1    0    0    0    0  0.00000000000E+00  0.00000000000E+00  0.99999998245E-14  0.12500000000E+03  0.12500000000E+03 0.  0.
    3000001    1    3    3    0    0 -0.26008138356E+02 -0.24688029726E+02 -0.74073111019E+01  0.36630456321E+02  0.10000000000E+01 0.  1.
    1000022    2    1    0    0    0 -0.47601774622E+02 -0.35557540226E+02 -0.16612714686E+02  0.62500000704E+02  0.10000009237E+02 0.  0.
    3000022    2    3    3    0    0 -0.21593636266E+02 -0.10869510499E+02 -0.92054035841E+01  0.25869544383E+02  0.24997155828E+00 0.  0.
    1000022    2    1    0    0    0  0.47601774622E+02  0.35557540226E+02  0.16612714686E+02  0.62499999296E+02  0.10000000436E+02 0.  0.
    3000022    2    5    5    0    0  0.47581460678E+02  0.34405882765E+02  0.16351903199E+02  0.60952501253E+02  0.25000317559E+00 0.  0.
        -13    1    4    4    0    0 -0.10222956419E+02 -0.50715641558E+01 -0.43580151701E+01  0.12216092753E+02  0.10500000000E+00 0. -1.
         13    1    4    4    0    0 -0.11370679847E+02 -0.57979463435E+01 -0.48473884140E+01  0.13653451630E+02  0.10500000000E+00 0.  1.
    3000001    1    5    5    0    0  0.20313943494E-01  0.11516574602E+01  0.26081148712E+00  0.15474980432E+01  0.10000000000E+01 0. -1.
        -13    1    6    6    0    0  0.36155219409E+02  0.26135255227E+02  0.12442746762E+02  0.46315056173E+02  0.10500000000E+00 0. -1.
         13    1    6    6    0    0  0.11426241270E+02  0.82706275382E+01  0.39091564367E+01  0.14637445080E+02  0.10500000000E+00 0.  1.
</event>
<event>
11    0  0.3494755E-009  0.9118800E+02  0.7816531E-02  0.1126479E+00
         25   -1    0    0    0    0  0.00000000000E+00  0.00000000000E+00  0.99999998245E-14  0.12500000000E+03  0.12500000000E+03 0.  0.
    3000001    1    3    3    0    0 -0.11088929251E+02  0.32615982701E+02  0.16186878978E+02  0.38075999403E+02  0.10000000000E+01 0.  1.
    1000022    2    1    0    0    0 -0.22262776991E+02  0.54035196795E+02  0.19769054297E+02  0.62500005672E+02  0.10000073453E+02 0.  0.
    3000022    2    3    3    0    0 -0.11173847740E+02  0.21419214094E+02  0.35821753194E+01  0.24424006269E+02  0.24999291641E+00 0.  0.
    1000022    2    1    0    0    0  0.22262776991E+02 -0.54035196795E+02 -0.19769054297E+02  0.62499994328E+02  0.10000002557E+02 0.  0.
    3000022    2    5    5    0    0  0.47504827374E+01 -0.10625389880E+02  0.91478300063E-01  0.11642029942E+02  0.24999310057E+00 0.  0.
        -13    1    4    4    0    0 -0.83885985893E+01  0.16117255417E+02  0.26755906825E+01  0.18365846535E+02  0.10500000000E+00 0.  1.
         13    1    4    4    0    0 -0.27852491507E+01  0.53019586778E+01  0.90658463693E+00  0.60581597335E+01  0.10500000000E+00 0. -1.
    3000001    1    5    5    0    0  0.17512294254E+02 -0.43409806915E+02 -0.19860532597E+02  0.50857964386E+02  0.10000000000E+01 0. -1.
        -13    1    6    6    0    0  0.29408628665E+01 -0.67135603311E+01  0.79476409681E-01  0.73306144502E+01  0.10500000000E+00 0.  1.
         13    1    6    6    0    0  0.18096198709E+01 -0.39118295493E+01  0.12001890382E-01  0.43114154920E+01  0.10500000000E+00 0. -1.
</event>
<event>
11    0  0.3494755E-009  0.9118800E+02  0.7816531E-02  0.1126479E+00
         25   -1    0    0    0    0  0.00000000000E+00  0.00000000000E+00  0.99999998245E-14  0.12500000000E+03  0.12500000000E+03 0.  0.
    3000001    1    3    3    0    0 -0.25418573447E+02  0.75665663933E+01 -0.37174363674E+02  0.45675924924E+02  0.10000000000E+01 0.  1.
    1000022    2    1    0    0    0 -0.29433815709E+02  0.92880533370E+01 -0.53419403238E+02  0.62500000018E+02  0.99999958959E+01 0.  0.
    3000022    2    3    3    0    0 -0.40152422621E+01  0.17214869437E+01 -0.16245039563E+02  0.16824075094E+02  0.25000922711E+00 0.  0.
    1000022    2    1    0    0    0  0.29433815709E+02 -0.92880533370E+01  0.53419403238E+02  0.62499999982E+02  0.99999956771E+01 0.  0.
    3000022    2    5    5    0    0  0.12048735210E+02 -0.78951422937E+01  0.18439884791E+02  0.23400793649E+02  0.25000060073E+00 0.  0.
        -13    1    4    4    0    0 -0.93689671801E+00  0.41771884748E+00 -0.38231424898E+01  0.39597611030E+01  0.10500000000E+00 0. -1.
         13    1    4    4    0    0 -0.30783455441E+01  0.13037680962E+01 -0.12421897074E+02  0.12864313991E+02  0.10500000000E+00 0.  1.
    3000001    1    5    5    0    0  0.17385080499E+02 -0.13929110432E+01  0.34979518447E+02  0.39099206333E+02  0.10000000000E+01 0. -1.
        -13    1    6    6    0    0  0.55166024990E+01 -0.35800986045E+01  0.85166543942E+01  0.10760782324E+02  0.10500000000E+00 0. -1.
         13    1    6    6    0    0  0.65321327114E+01 -0.43150436892E+01  0.99232303965E+01  0.12640011325E+02  0.10500000000E+00 0.  1.
</event>
<event>
11    0  0.3494755E-009  0.9118800E+02  0.7816531E-02  0.1126479E+00
         25   -1    0    0    0    0  0.00000000000E+00  0.00000000000E+00  0.99999998245E-14  0.12500000000E+03  0.12500000000E+03 0.  0.
    3000001    1    3    3    0    0 -0.73310414504E+01  0.34373897148E+02 -0.12318769600E+02  0.37256691457E+02  0.10000000000E+01 0. -1.
    1000022    2    1    0    0    0 -0.16242315420E+02  0.57959421606E+02 -0.13533025125E+02  0.62500000765E+02  0.99999981779E+01 0.  0.
    3000022    2    3    3    0    0 -0.89112739697E+01  0.23585524458E+02 -0.12142555242E+01  0.25243309308E+02  0.24996123908E+00 0.  0.
    1000022    2    1    0    0    0  0.16242315420E+02 -0.57959421606E+02  0.13533025125E+02  0.62499999235E+02  0.99999886107E+01 0.  0.
    3000022    2    5    5    0    0  0.12141006215E+02 -0.39431331031E+02  0.46395230028E+01  0.41518930207E+02  0.24998612511E+00 0.  0.
        -13    1    4    4    0    0 -0.21628037937E+01  0.57863281264E+01 -0.30477595691E+00  0.61857276710E+01  0.10500000000E+00 0.  1.
         13    1    4    4    0    0 -0.67484701760E+01  0.17799196332E+02 -0.90947956728E+00  0.19057581637E+02  0.10500000000E+00 0. -1.
    3000001    1    5    5    0    0  0.41013092055E+01 -0.18528090575E+02  0.88935021219E+01  0.20981069027E+02  0.10000000000E+01 0.  1.
        -13    1    6    6    0    0  0.32374414245E+01 -0.10490868304E+02  0.12684910087E+01  0.11052576133E+02  0.10500000000E+00 0. -1.
         13    1    6    6    0    0  0.89035647901E+01 -0.28940462727E+02  0.33710319941E+01  0.30466354074E+02  0.10500000000E+00 0.  1.
</event>
<event>
11    0  0.3494755E-009  0.9118800E+02  0.7816531E-02  0.1126479E+00
         25   -1    0    0    0    0  0.00000000000E+00  0.00000000000E+00  0.99999998245E-14  0.12500000000E+03  0.12500000000E+03 0.  0.
    3000001    1    3    3    0    0 -0.27376158160E+02  0.17338763789E+02 -0.19084361767E+02  0.37620468224E+02  0.10000000000E+01 0. -1.
    1000022    2    1    0    0    0 -0.49920557322E+02  0.25290567919E+02 -0.25972580950E+02  0.62500001898E+02  0.10000020352E+02 0.  0.
    3000022    2    3    3    0    0 -0.22544399163E+02  0.79518041302E+01 -0.68882191826E+01  0.24879533675E+02  0.25001963259E+00 0.  0.
    1000022    2    1    0    0    0  0.49920557322E+02 -0.25290567919E+02  0.25972580950E+02  0.62499998102E+02  0.99999966208E+01 0.  0.
    3000022    2    5    5    0    0  0.43250214286E+02 -0.25252905277E+02  0.22355206573E+02  0.54846221773E+02  0.25004233821E+00 0.  0.
        -13    1    4    4    0    0 -0.12039125628E+02  0.42674773431E+01 -0.36135165455E+01  0.13274804540E+02  0.10500000000E+00 0. -1.
         13    1    4    4    0    0 -0.10505273535E+02  0.36843267871E+01 -0.32747026370E+01  0.11604729135E+02  0.10500000000E+00 0.  1.
    3000001    1    5    5    0    0  0.66703430368E+01 -0.37662642449E-01  0.36173743774E+01  0.76537763287E+01  0.10000000000E+01 0. -1.
        -13    1    6    6    0    0  0.30664771088E+02 -0.17856812662E+02  0.15854231229E+02  0.38865944183E+02  0.10500000000E+00 0. -1.
         13    1    6    6    0    0  0.12585443197E+02 -0.73960926145E+01  0.65009753436E+01  0.15980277590E+02  0.10500000000E+00 0.  1.
</event>
<event>
11    0  0.3494755E-009  0.9118800E+02  0.7816531E-02  0.1126479E+00
         25   -1    0    0    0    0  0.00000000000E+00  0.00000000000E+00  0.99999998245E-14  0.12500000000E+03  0.12500000000E+03 0.  0.
    3000001    1    3    3    0    0 -0.47917653364E+01  0.31975944616E+01 -0.32547606377E+01  0.66917181791E+01  0.10000000000E+01 0.  1.
    1000022    2    1    0    0    0 -0.58686995642E+02  0.12219945218E+02 -0.14586279946E+02  0.62500001565E+02  0.10000005719E+02 0.  0.
    3000022    2    3    3    0    0 -0.53895230306E+02  0.90223507567E+01 -0.11331519308E+02  0.55808283386E+02  0.25000361981E+00 0.  0.
    1000022    2    1    0    0    0  0.58686995642E+02 -0.12219945218E+02  0.14586279946E+02  0.62499998435E+02  0.99999861526E+01 0.  0.
    3000022    2    5    5    0    0  0.37453579172E+02 -0.11235950053E+02  0.12801487841E+02  0.41145567880E+02  0.24999759320E+00 0.  0.
        -13    1    4    4    0    0 -0.27051500373E+02  0.44702446025E+01 -0.57223072492E+01  0.28009330311E+02  0.10500000000E+00 0.  1.
         13    1    4    4    0    0 -0.26843729933E+02  0.45521061542E+01 -0.56092120591E+01  0.27798953075E+02  0.10500000000E+00 0. -1.
    3000001    1    5    5    0    0  0.21233416470E+02 -0.98399516505E+00  0.17847921047E+01  0.21354430555E+02  0.10000000000E+01 0.  1.
        -13    1    6    6    0    0  0.15210527497E+02 -0.45109577604E+01  0.51526265856E+01  0.16681410983E+02  0.10500000000E+00 0.  1.
         13    1    6    6    0    0  0.22243051675E+02 -0.67249922929E+01  0.76488612558E+01  0.24464156897E+02  0.10500000000E+00 0. -1.
</event>
<event>
11    0  0.3494755E-009  0.9118800E+02  0.7816531E-02  0.1126479E+00
         25   -1    0    0    0    0  0.00000000000E+00  0.00000000000E+00  0.99999998245E-14  0.12500000000E+03  0.12500000000E+03 0.  0.
    3000001    1    3    3    0    0  0.16655420120E+02 -0.78188197567E+01 -0.75978106976E+00  0.18442186124E+02  0.10000000000E+01 0. -1.
    1000022    2    1    0    0    0  0.48708457546E+02 -0.37622035912E+02  0.42800138181E+01  0.62499999627E+02  0.10000000627E+02 0.  0.
    3000022    2    3    3    0    0  0.32053037426E+02 -0.29803216155E+02  0.50397948879E+01  0.44057813503E+02  0.24999360372E+00 0.  0.
    1000022    2    1    0    0    0 -0.48708457546E+02  0.37622035912E+02 -0.42800138181E+01  0.62500000373E+02  0.10000005286E+02 0.  0.
    3000022    2    5    5    0    0 -0.41389921978E+02  0.28584644531E+02 -0.75544493730E+00  0.50307462015E+02  0.24998596801E+00 0.  0.
        -13    1    4    4    0    0  0.81021082911E+01 -0.75023611309E+01  0.12556974501E+01  0.11113837428E+02  0.10500000000E+00 0.  1.
         13    1    4    4    0    0  0.23950929134E+02 -0.22300855024E+02  0.37840974378E+01  0.32943976075E+02  0.10500000000E+00 0. -1.
    3000001    1    5    5    0    0 -0.73185355671E+01  0.90373913805E+01 -0.35245688808E+01  0.12192538358E+02  0.10000000000E+01 0. -1.
        -13    1    6    6    0    0 -0.28155679566E+02  0.19427933773E+02 -0.56252513747E+00  0.34212780683E+02  0.10500000000E+00 0.  1.
         13    1    6    6    0    0 -0.13234242412E+02  0.91567107584E+01 -0.19291979983E+00  0.16094681332E+02  0.10500000000E+00 0. -1.
</event>
<event>
11    0  0.3494755E-009  0.9118800E+02  0.7816531E-02  0.1126479E+00
         25   -1    0    0    0    0  0.00000000000E+00  0.00000000000E+00  0.99999998245E-14  0.12500000000E+03  0.12500000000E+03 0.  0.
    3000001    1    3    3    0    0  0.40358558518E+00 -0.88457634199E-01  0.10415393354E+01  0.15018356318E+01  0.10000000000E+01 0. -1.
    1000022    2    1    0    0    0  0.56250264739E+02 -0.17436808818E+02  0.18387914408E+02  0.62500000280E+02  0.10000002694E+02 0.  0.
    3000022    2    3    3    0    0  0.55846679153E+02 -0.17348351184E+02  0.17346375072E+02  0.60998164649E+02  0.25000220076E+00 0.  0.
    1000022    2    1    0    0    0 -0.56250264739E+02  0.17436808818E+02 -0.18387914408E+02  0.62499999720E+02  0.99999991880E+01 0.  0.
    3000022    2    5    5    0    0 -0.51539327684E+02  0.18566998101E+02 -0.16644415915E+02  0.57254998028E+02  0.25000287752E+00 0.  0.
        -13    1    4    4    0    0  0.30317474737E+02 -0.94459896260E+01  0.93552807729E+01  0.33104505702E+02  0.10500000000E+00 0. -1.
         13    1    4    4    0    0  0.25529204416E+02 -0.79023615576E+01  0.79910942995E+01  0.27893658946E+02  0.10500000000E+00 0.  1.
    3000001    1    5    5    0    0 -0.47109370547E+01 -0.11301892834E+01 -0.17434984925E+01  0.52450016914E+01  0.10000000000E+01 0.  1.
        -13    1    6    6    0    0 -0.17766601695E+02  0.63418967253E+01 -0.57238213530E+01  0.19714079886E+02  0.10500000000E+00 0.  1.
         13    1    6    6    0    0 -0.33772725989E+02  0.12225101376E+02 -0.10920594562E+02  0.37540918142E+02  0.10500000000E+00 0. -1.
</event>
<event>
11    0  0.3494755E-009  0.9118800E+02  0.7816531E-02  0.1126479E+00
         25   -1    0    0    0    0  0.00000000000E+00  0.00000000000E+00  0.99999998245E-14  0.12500000000E+03  0.12500000000E+03 0.  0.
    3000001    1    3    3    0    0  0.29771959180E+01  0.36607303051E+01  0.10038900193E+02  0.11137511347E+02  0.10000000000E+01 0.  1.
    1000022    2    1    0    0    0  0.33591918955E+02  0.95999579946E+01  0.50849525793E+02  0.62500001161E+02  0.99999829562E+01 0.  0.
    3000022    2    3    3    0    0  0.30614723037E+02  0.59392276895E+01  0.40810625600E+02  0.51362489814E+02  0.25001178188E+00 0.  0.
    1000022    2    1    0    0    0 -0.33591918955E+02 -0.95999579946E+01 -0.50849525793E+02  0.62499998839E+02  0.99999684494E+01 0.  0.
    3000022    2    5    5    0    0 -0.12465361354E+02  0.50615911766E+00 -0.22365358380E+02  0.25610802150E+02  0.25000117174E+00 0.  0.
        -13    1    4    4    0    0  0.11959564115E+02  0.23821316691E+01  0.15978884234E+02  0.20100783355E+02  0.10500000000E+00 0.  1.
         13    1    4    4    0    0  0.18655158922E+02  0.35570960204E+01  0.24831741365E+02  0.31261706459E+02  0.10500000000E+00 0. -1.
    3000001    1    5    5    0    0 -0.21126557601E+02 -0.10106117112E+02 -0.28484167413E+02  0.36889196689E+02  0.10000000000E+01 0.  1.
        -13    1    6    6    0    0 -0.65218932742E+01  0.33116660805E+00 -0.11679307739E+02  0.13381405661E+02  0.10500000000E+00 0. -1.
         13    1    6    6    0    0 -0.59434680797E+01  0.17499250961E+00 -0.10686050640E+02  0.12229396489E+02  0.10500000000E+00 0.  1.
</event>
<event>
11    0  0.3494755E-009  0.9118800E+02  0.7816531E-02  0.1126479E+00
         25   -1    0    0    0    0  0.00000000000E+00  0.00000000000E+00  0.99999998245E-14  0.12500000000E+03  0.12500000000E+03 0.  0.
    3000001    1    3    3    0    0 -0.23288946263E+02 -0.82761338426E+01  0.12525269695E+02  0.27726373552E+02  0.10000000000E+01 0.  1.
    1000022    2    1    0    0    0 -0.49287814457E+02 -0.10918488491E+02  0.35464742929E+02  0.62500000267E+02  0.99999998691E+01 0.  0.
    3000022    2    3    3    0    0 -0.25998868195E+02 -0.26423546486E+01  0.22939473234E+02  0.34773626715E+02  0.24999427960E+00 0.  0.
    1000022    2    1    0    0    0  0.49287814457E+02  0.10918488491E+02 -0.35464742929E+02  0.62499999733E+02  0.99999965377E+01 0.  0.
    3000022    2    5    5    0    0  0.33085353897E+02  0.83183007254E+01 -0.29202477388E+02  0.44907482167E+02  0.24999907634E+00 0.  0.
        -13    1    4    4    0    0 -0.91399972661E+01 -0.90207860682E+00  0.81290026976E+01  0.12265602541E+02  0.10500000000E+00 0.  1.
         13    1    4    4    0    0 -0.16858870928E+02 -0.17402760417E+01  0.14810470537E+02  0.22508024174E+02  0.10500000000E+00 0. -1.
    3000001    1    5    5    0    0  0.16202460560E+02  0.26001877657E+01 -0.62622655415E+01  0.17592517567E+02  0.10000000000E+01 0. -1.
        -13    1    6    6    0    0  0.22509870253E+02  0.57052838833E+01 -0.19909144308E+02  0.30588062624E+02  0.10500000000E+00 0. -1.
         13    1    6    6    0    0  0.10575483644E+02  0.26130168421E+01 -0.92933330793E+01  0.14319419543E+02  0.10500000000E+00 0.  1.
</event>
<event>
11    0  0.3494755E-009  0.9118800E+02  0.7816531E-02  0.1126479E+00
         25   -1    0    0    0    0  0.00000000000E+00  0.00000000000E+00  0.99999998245E-14  0.12500000000E+03  0.12500000000E+03 0.  0.
    3000001    1    3    3    0    0  0.92948150282E+00 -0.23164524116E+00  0.91881108378E+00  0.16618691854E+01  0.10000000000E+01 0. -1.
    1000022    2    1    0    0    0 -0.50863386278E+01 -0.10941274145E+02  0.60503450896E+02  0.62499999022E+02  0.99999993454E+01 0.  0.
    3000022    2    3    3    0    0 -0.60158201306E+01 -0.10709628904E+02  0.59584639812E+02  0.60838129837E+02  0.24999478087E+00 0.  0.
    1000022    2    1    0    0    0  0.50863386278E+01  0.10941274145E+02 -0.60503450896E+02  0.62500000978E+02  0.10000011567E+02 0.  0.
    3000022    2    5    5    0    0 -0.12829394411E+01  0.47544513075E+01 -0.37486889749E+02  0.37809789011E+02  0.25000226985E+00 0.  0.
        -13    1    4    4    0    0 -0.41572547575E+01 -0.74271584563E+01  0.41054933303E+02  0.41928081560E+02  0.10500000000E+00 0. -1.
         13    1    4    4    0    0 -0.18585653731E+01 -0.32824704480E+01  0.18529706510E+02  0.18910048276E+02  0.10500000000E+00 0.  1.
    3000001    1    5    5    0    0  0.63692780688E+01  0.61868228380E+01 -0.23016561146E+02  0.24690211967E+02  0.10000000000E+01 0.  1.
        -13    1    6    6    0    0 -0.35958923509E+00  0.12305581059E+01 -0.99153920184E+01  0.99984799619E+01  0.10500000000E+00 0. -1.
         13    1    6    6    0    0 -0.92335020599E+00  0.35238932016E+01 -0.27571497731E+02  0.27811309049E+02  0.10500000000E+00 0.  1.
</event>
<event>
11    0  0.3494755E-009  0.9118800E+02  0.7816531E-02  0.1126479E+00
         25   -1    0    0    0    0  0.00000000000E+00  0.00000000000E+00  0.99999998245E-14  0.12500000000E+03  0.12500000000E+03 0.  0.
    3000001    1    3    3    0    0 -0.15990783284E+02  0.20850588312E+02  0.97805075238E+01  0.28055489845E+02  0.10000000000E+01 0.  1.
    1000022    2    1    0    0    0 -0.42346230948E+02  0.38041312976E+02  0.23788738597E+02  0.62499991100E+02  0.10000001747E+02 0.  0.
    3000022    2    3    3    0    0 -0.26355447664E+02  0.17190724665E+02  0.14008231073E+02  0.34444501255E+02  0.24998571777E+00 0.  0.
    1000022    2    1    0    0    0  0.42346230948E+02 -0.38041312976E+02 -0.23788738597E+02  0.62500008900E+02  0.10000113001E+02 0.  0.
    3000022    2    5    5    0    0  0.19496747424E+02 -0.11842954082E+02 -0.68658791883E+01  0.23823968816E+02  0.24994317478E+00 0.  0.
        -13    1    4    4    0    0 -0.15497650199E+02  0.10172731405E+02  0.82145785395E+01  0.20276882194E+02  0.10500000000E+00 0. -1.
         13    1    4    4    0    0 -0.10857797465E+02  0.70179932595E+01  0.57936525335E+01  0.14167619061E+02  0.10500000000E+00 0.  1.
    3000001    1    5    5    0    0  0.22849483524E+02 -0.26198358894E+02 -0.16922859408E+02  0.38676040084E+02  0.10000000000E+01 0. -1.
        -13    1    6    6    0    0  0.14756784336E+02 -0.89865419160E+01 -0.51910004329E+01  0.18041012445E+02  0.10500000000E+00 0.  1.
         13    1    6    6    0    0  0.47399630882E+01 -0.28564121664E+01 -0.16748787555E+01  0.57829563709E+01  0.10500000000E+00 0. -1.
</event>
<event>
11    0  0.3494755E-009  0.9118800E+02  0.7816531E-02  0.1126479E+00
         25   -1    0    0    0    0  0.00000000000E+00  0.00000000000E+00  0.99999998245E-14  0.12500000000E+03  0.12500000000E+03 0.  0.
    3000001    1    3    3    0    0  0.63381685274E+01 -0.18541588827E+02  0.24680598996E+01  0.19775090800E+02  0.10000000000E+01 0.  1.
    1000022    2    1    0    0    0  0.11610008029E+02 -0.60473229533E+02 -0.38009292229E+01  0.62499995805E+02  0.99999318046E+01 0.  0.
    3000022    2    3    3    0    0  0.52718395012E+01 -0.41931640707E+02 -0.62689891226E+01  0.42724905005E+02  0.24999795507E+00 0.  0.
    1000022    2    1    0    0    0 -0.11610008029E+02  0.60473229533E+02  0.38009292229E+01  0.62500004195E+02  0.99999842392E+01 0.  0.
    3000022    2    5    5    0    0 -0.12248719428E+02  0.57973094714E+02  0.21815728288E+01  0.59293613467E+02  0.24999929086E+00 0.  0.
        -13    1    4    4    0    0  0.17273173154E+01 -0.13899113483E+02 -0.21274238641E+01  0.14167072316E+02  0.10500000000E+00 0. -1.
         13    1    4    4    0    0  0.35445221858E+01 -0.28032527224E+02 -0.41415652584E+01  0.28557832689E+02  0.10500000000E+00 0.  1.
    3000001    1    5    5    0    0  0.63871139953E+00  0.25001348189E+01  0.16193563941E+01  0.32063907273E+01  0.10000000000E+01 0.  1.
        -13    1    6    6    0    0 -0.72668683162E+01  0.34390373370E+02  0.13578709799E+01  0.35176128187E+02  0.10500000000E+00 0.  1.
         13    1    6    6    0    0 -0.49818511120E+01  0.23582721344E+02  0.82370184896E+00  0.24117485280E+02  0.10500000000E+00 0. -1.
</event>
<event>
11    0  0.3494755E-009  0.9118800E+02  0.7816531E-02  0.1126479E+00
         25   -1    0    0    0    0  0.00000000000E+00  0.00000000000E+00  0.99999998245E-14  0.12500000000E+03  0.12500000000E+03 0.  0.
    3000001    1    3    3    0    0  0.25723104930E+01 -0.53099588014E+02  0.30455833601E+02  0.61275940049E+02  0.10000000000E+01 0.  1.
    1000022    2    1    0    0    0  0.30615124549E+01 -0.52936438606E+02  0.31537446580E+02  0.62499999602E+02  0.10000001136E+02 0.  0.
    3000022    2    3    3    0    0  0.48920196195E+00  0.16314940826E+00  0.10816129790E+01  0.12240595534E+01  0.24999772989E+00 0.  0.
    1000022    2    1    0    0    0 -0.30615124549E+01  0.52936438606E+02 -0.31537446580E+02  0.62500000398E+02  0.10000006106E+02 0.  0.
    3000022    2    5    5    0    0  0.34884455403E+00  0.27427853130E+02 -0.21521054388E+02  0.34865844350E+02  0.25000085470E+00 0.  0.
        -13    1    4    4    0    0  0.18834997073E+00  0.13274658791E-02  0.39817801414E+00  0.45282248684E+00  0.10500000000E+00 0.  1.
         13    1    4    4    0    0  0.30085199122E+00  0.16182194238E+00  0.68343496490E+00  0.77123706661E+00  0.10500000000E+00 0. -1.
    3000001    1    5    5    0    0 -0.34103570090E+01  0.25508585476E+02 -0.10016392192E+02  0.27634156048E+02  0.10000000000E+01 0.  1.
        -13    1    6    6    0    0  0.14526653278E+00  0.81653723276E+01 -0.63846456174E+01  0.10366731996E+02  0.10500000000E+00 0. -1.
         13    1    6    6    0    0  0.20357802125E+00  0.19262480802E+02 -0.15136408771E+02  0.24499112354E+02  0.10500000000E+00 0.  1.
</event>
<event>
11    0  0.3494755E-009  0.9118800E+02  0.7816531E-02  0.1126479E+00
         25   -1    0    0    0    0  0.00000000000E+00  0.00000000000E+00  0.99999998245E-14  0.12500000000E+03  0.12500000000E+03 0.  0.
    3000001    1    3    3    0    0  0.14536935635E+01  0.63417553586E+01  0.44865840239E+00  0.65979072718E+01  0.10000000000E+01 0.  1.
    1000022    2    1    0    0    0  0.30987213273E+02  0.48371347461E+02  0.22500110679E+02  0.62500004241E+02  0.10000045392E+02 0.  0.
    3000022    2    3    3    0    0  0.29533519709E+02  0.42029592103E+02  0.22051452277E+02  0.55902096969E+02  0.24999849073E+00 0.  0.
    1000022    2    1    0    0    0 -0.30987213273E+02 -0.48371347461E+02 -0.22500110679E+02  0.62499995759E+02  0.99999923834E+01 0.  0.
    3000022    2    5    5    0    0 -0.17218545955E+02 -0.18504495770E+02 -0.77231463261E+01  0.26431121294E+02  0.24999039625E+00 0.  0.
        -13    1    4    4    0    0  0.22507018413E+02  0.32058704459E+02  0.16819967805E+02  0.42629200689E+02  0.10500000000E+00 0.  1.
         13    1    4    4    0    0  0.70265012963E+01  0.99708876441E+01  0.52314844722E+01  0.13272896280E+02  0.10500000000E+00 0. -1.
    3000001    1    5    5    0    0 -0.13768667318E+02 -0.29866851691E+02 -0.14776964353E+02  0.36068874465E+02  0.10000000000E+01 0. -1.
        -13    1    6    6    0    0 -0.10773363639E+02 -0.11637055047E+02 -0.48917102450E+01  0.16595971450E+02  0.10500000000E+00 0. -1.
         13    1    6    6    0    0 -0.64451823156E+01 -0.68674407233E+01 -0.28314360811E+01  0.98351498438E+01  0.10500000000E+00 0.  1.
</event>
<event>
11    0  0.3494755E-009  0.9118800E+02  0.7816531E-02  0.1126479E+00
         25   -1    0    0    0    0  0.00000000000E+00  0.00000000000E+00  0.99999998245E-14  0.12500000000E+03  0.12500000000E+03 0.  0.
    3000001    1    3    3    0    0  0.80677327560E+01 -0.38662135717E+01 -0.23518534685E+01  0.93041460619E+01  0.10000000000E+01 0. -1.
    1000022    2    1    0    0    0  0.57470151195E+02 -0.21444561526E+02  0.66001921470E+01  0.62500000256E+02  0.99999999101E+01 0.  0.
    3000022    2    3    3    0    0  0.49402418439E+02 -0.17578347954E+02  0.89520456156E+01  0.53195854194E+02  0.25003661011E+00 0.  0.
    1000022    2    1    0    0    0 -0.57470151195E+02  0.21444561526E+02 -0.66001921470E+01  0.62499999744E+02  0.99999967062E+01 0.  0.
    3000022    2    5    5    0    0 -0.18343707241E+02  0.63739171031E+01 -0.67455932360E+01  0.20559278704E+02  0.24999630236E+00 0.  0.
        -13    1    4    4    0    0  0.34318787910E+02 -0.12247852579E+02  0.62536128071E+01  0.36971716143E+02  0.10500000000E+00 0. -1.
         13    1    4    4    0    0  0.15083630529E+02 -0.53304953752E+01  0.26984328085E+01  0.16224138051E+02  0.10500000000E+00 0.  1.
    3000001    1    5    5    0    0 -0.39126443954E+02  0.15070644423E+02  0.14540108899E+00  0.41940721039E+02  0.10000000000E+01 0.  1.
        -13    1    6    6    0    0 -0.96972938883E+01  0.34235606179E+01 -0.36187781449E+01  0.10902516055E+02  0.10500000000E+00 0. -1.
         13    1    6    6    0    0 -0.86464133527E+01  0.29503564852E+01 -0.31268150910E+01  0.96567626496E+01  0.10500000000E+00 0.  1.
</event>
<event>
11    0  0.3494755E-009  0.9118800E+02  0.7816531E-02  0.1126479E+00
         25   -1    0    0    0    0  0.00000000000E+00  0.00000000000E+00  0.99999998245E-14  0.12500000000E+03  0.12500000000E+03 0.  0.
    3000001    1    3    3    0    0 -0.59567100677E+01  0.18505546578E+02  0.19544082128E+01  0.19564185658E+02  0.10000000000E+01 0. -1.
    1000022    2    1    0    0    0 -0.10503293956E+02  0.58065241055E+02  0.18009959497E+02  0.62499999171E+02  0.99999926307E+01 0.  0.
    3000022    2    3    3    0    0 -0.45465838887E+01  0.39559694476E+02  0.16055551284E+02  0.42935813513E+02  0.25000574950E+00 0.  0.
    1000022    2    1    0    0    0  0.10503293956E+02 -0.58065241055E+02 -0.18009959497E+02  0.62500000829E+02  0.10000002996E+02 0.  0.
    3000022    2    5    5    0    0  0.10221322259E+02 -0.51057663843E+02 -0.18823651236E+02  0.55369240655E+02  0.24999805289E+00 0.  0.
        -13    1    4    4    0    0 -0.17513592698E+01  0.14994948824E+02  0.61453648015E+01  0.16300070033E+02  0.10500000000E+00 0. -1.
         13    1    4    4    0    0 -0.27952246189E+01  0.24564745652E+02  0.99101864824E+01  0.26635743480E+02  0.10500000000E+00 0.  1.
    3000001    1    5    5    0    0  0.28197169731E+00 -0.70075772112E+01  0.81369173966E+00  0.71307601738E+01  0.10000000000E+01 0.  1.
        -13    1    6    6    0    0  0.29719225360E+01 -0.15030546368E+02 -0.55655835476E+01  0.16301423034E+02  0.10500000000E+00 0.  1.
         13    1    6    6    0    0  0.72493997230E+01 -0.36027117475E+02 -0.13258067689E+02  0.39067817622E+02  0.10500000000E+00 0. -1.
</event>
<event>
11    0  0.3494755E-009  0.9118800E+02  0.7816531E-02  0.1126479E+00
         25   -1    0    0    0    0  0.00000000000E+00  0.00000000000E+00  0.99999998245E-14  0.12500000000E+03  0.12500000000E+03 0.  0.
    3000001    1    3    3    0    0 -0.48776258115E+00 -0.17073435256E+01  0.11615181417E+01  0.23456467431E+01  0.10000000000E+01 0. -1.
    1000022    2    1    0    0    0  0.15157602251E+02 -0.59790900701E+02  0.12431072980E+01  0.62500000024E+02  0.99999987310E+01 0.  0.
    3000022    2    3    3    0    0  0.15645364832E+02 -0.58083557176E+02  0.81589156286E-01  0.60154353281E+02  0.25001396428E+00 0.  0.
    1000022    2    1    0    0    0 -0.15157602251E+02  0.59790900701E+02 -0.12431072980E+01  0.62499999976E+02  0.99999984252E+01 0.  0.
    3000022    2    5    5    0    0 -0.46049483165E+01  0.28091670490E+02 -0.48627839462E+01  0.28880039236E+02  0.24999735628E+00 0.  0.
        -13    1    4    4    0    0  0.84693690728E+01 -0.31185713733E+02  0.50962661425E-01  0.32315516022E+02  0.10500000000E+00 0.  1.
         13    1    4    4    0    0  0.71759957594E+01 -0.26897843442E+02  0.30626494860E-01  0.27838837260E+02  0.10500000000E+00 0. -1.
    3000001    1    5    5    0    0 -0.10552653935E+02  0.31699230212E+02  0.36196766482E+01  0.33619960739E+02  0.10000000000E+01 0. -1.
        -13    1    6    6    0    0 -0.26386847830E+01  0.15822291868E+02 -0.27895677855E+01  0.16281900711E+02  0.10500000000E+00 0. -1.
         13    1    6    6    0    0 -0.19662635335E+01  0.12269378622E+02 -0.20732161607E+01  0.12598138525E+02  0.10500000000E+00 0.  1.
</event>
<event>
11    0  0.3494755E-009  0.9118800E+02  0.7816531E-02  0.1126479E+00
         25   -1    0    0    0    0  0.00000000000E+00  0.00000000000E+00  0.99999998245E-14  0.12500000000E+03  0.12500000000E+03 0.  0.
    3000001    1    3    3    0    0  0.24015984613E+02  0.44101230138E+01  0.15907858870E+02  0.29159504038E+02  0.10000000000E+01 0. -1.
    1000022    2    1    0    0    0  0.54587144096E+02  0.14032657206E+02  0.25091393854E+02  0.62500001526E+02  0.10000018822E+02 0.  0.
    3000022    2    3    3    0    0  0.30571159483E+02  0.96225341925E+01  0.91835349835E+01  0.33340497488E+02  0.25000306076E+00 0.  0.
    1000022    2    1    0    0    0 -0.54587144096E+02 -0.14032657206E+02 -0.25091393854E+02  0.62499998474E+02  0.99999997429E+01 0.  0.
    3000022    2    5    5    0    0 -0.30835667915E+02 -0.11298239654E+02 -0.18437362435E+02  0.37662812758E+02  0.24999255627E+00 0.  0.
        -13    1    4    4    0    0  0.16025471082E+02  0.49998139583E+01  0.48650117402E+01  0.17478364547E+02  0.10500000000E+00 0. -1.
         13    1    4    4    0    0  0.14545688402E+02  0.46227202342E+01  0.43185232432E+01  0.15862132941E+02  0.10500000000E+00 0.  1.
    3000001    1    5    5    0    0 -0.23751476181E+02 -0.27344175525E+01 -0.66540314184E+01  0.24837185715E+02  0.10000000000E+01 0.  1.
        -13    1    6    6    0    0 -0.14321051348E+02 -0.53123780934E+01 -0.85433904463E+01  0.17501840419E+02  0.10500000000E+00 0. -1.
         13    1    6    6    0    0 -0.16514616567E+02 -0.59858615605E+01 -0.98939719888E+01  0.20160972340E+02  0.10500000000E+00 0.  1.
</event>
<event>
11    0  0.3494755E-009  0.9118800E+02  0.7816531E-02  0.1126479E+00
         25   -1    0    0    0    0  0.00000000000E+00  0.00000000000E+00  0.99999998245E-14  0.12500000000E+03  0.12500000000E+03 0.  0.
    3000001    1    3    3    0    0 -0.21232015031E+02 -0.14558214175E+02 -0.61354744447E+01  0.26483657393E+02  0.10000000000E+01 0. -1.
    1000022    2    1    0    0    0 -0.55436762395E+02 -0.24923609301E+02 -0.10574905722E+02  0.62500003861E+02  0.10000046306E+02 0.  0.
    3000022    2    3    3    0    0 -0.34204747364E+02 -0.10365395126E+02 -0.44394312776E+01  0.36016346468E+02  0.25000893863E+00 0.  0.
    1000022    2    1    0    0    0  0.55436762395E+02  0.24923609301E+02  0.10574905722E+02  0.62499996139E+02  0.99999980432E+01 0.  0.
    3000022    2    5    5    0    0  0.71554427274E+01  0.29688137397E+01  0.48515011946E+01  0.91440570468E+01  0.24999957492E+00 0.  0.
        -13    1    4    4    0    0 -0.14231847839E+02 -0.43275466597E+01 -0.19111385203E+01  0.14997887466E+02  0.10500000000E+00 0. -1.
         13    1    4    4    0    0 -0.19972899525E+02 -0.60378484668E+01 -0.25282927573E+01  0.21018459002E+02  0.10500000000E+00 0.  1.
    3000001    1    5    5    0    0  0.48281319668E+02  0.21954795562E+02  0.57234045278E+01  0.53355939092E+02  0.10000000000E+01 0. -1.
        -13    1    6    6    0    0  0.40547113289E+01  0.16112874833E+01  0.27236690239E+01  0.51445436402E+01  0.10500000000E+00 0. -1.
         13    1    6    6    0    0  0.31007313985E+01  0.13575262564E+01  0.21278321707E+01  0.39995134065E+01  0.10500000000E+00 0.  1.
</event>
<event>
11    0  0.3494755E-009  0.9118800E+02  0.7816531E-02  0.1126479E+00
         25   -1    0    0    0    0  0.00000000000E+00  0.00000000000E+00  0.99999998245E-14  0.12500000000E+03  0.12500000000E+03 0.  0.
    3000001    1    3    3    0    0 -0.29085931098E+02 -0.34606664015E+02 -0.33883355365E+02  0.56503932189E+02  0.10000000000E+01 0.  1.
    1000022    2    1    0    0    0 -0.31893327664E+02 -0.39840700230E+02 -0.34666759663E+02  0.62499999851E+02  0.10000000581E+02 0.  0.
    3000022    2    3    3    0    0 -0.28073965660E+01 -0.52340362149E+01 -0.78340429783E+00  0.59960676619E+01  0.24998906867E+00 0.  0.
    1000022    2    1    0    0    0  0.31893327664E+02  0.39840700230E+02  0.34666759663E+02  0.62500000149E+02  0.10000002438E+02 0.  0.
    3000022    2    5    5    0    0  0.19040081814E+02  0.30884376837E+02  0.25062796519E+02  0.44097343665E+02  0.25000168965E+00 0.  0.
        -13    1    4    4    0    0 -0.19498821698E+01 -0.35621274480E+01 -0.57168015223E+00  0.41022720081E+01  0.10500000000E+00 0.  1.
         13    1    4    4    0    0 -0.85751439616E+00 -0.16719087670E+01 -0.21172414560E+00  0.18937956538E+01  0.10500000000E+00 0. -1.
    3000001    1    5    5    0    0  0.12853245850E+02  0.89563233932E+01  0.96039631433E+01  0.18402656484E+02  0.10000000000E+01 0.  1.
        -13    1    6    6    0    0  0.12528071133E+02  0.20341883400E+02  0.16568387041E+02  0.29073480368E+02  0.10500000000E+00 0. -1.
         13    1    6    6    0    0  0.65120106809E+01  0.10542493437E+02  0.84944094787E+01  0.15023863297E+02  0.10500000000E+00 0.  1.
</event>
<event>
11    0  0.3494755E-009  0.9118800E+02  0.7816531E-02  0.1126479E+00
         25   -1    0    0    0    0  0.00000000000E+00  0.00000000000E+00  0.99999998245E-14  0.12500000000E+03  0.12500000000E+03 0.  0.
    3000001    1    3    3    0    0  0.47867341008E+01 -0.47065966777E+01 -0.24375272631E+02  0.25302545158E+02  0.10000000000E+01 0. -1.
    1000022    2    1    0    0    0  0.21309861691E+02 -0.47742134057E+01 -0.57700488271E+02  0.62500002250E+02  0.10000030775E+02 0.  0.
    3000022    2    3    3    0    0  0.16523127591E+02 -0.67616727933E-01 -0.33325215640E+02  0.37197457092E+02  0.24999840655E+00 0.  0.
    1000022    2    1    0    0    0 -0.21309861691E+02  0.47742134057E+01  0.57700488271E+02  0.62499997750E+02  0.10000002655E+02 0.  0.
    3000022    2    5    5    0    0 -0.36263682312E+01  0.84953344876E+00  0.27617095099E+01  0.46434642773E+01  0.24993489039E+00 0.  0.
        -13    1    4    4    0    0  0.97139950319E+01 -0.50171972383E-01 -0.19733919561E+02  0.21995518247E+02  0.10500000000E+00 0.  1.
         13    1    4    4    0    0  0.68091325588E+01 -0.17444755550E-01 -0.13591296079E+02  0.15201938845E+02  0.10500000000E+00 0. -1.
    3000001    1    5    5    0    0 -0.17683493460E+02  0.39246799569E+01  0.54938778761E+02  0.57856533473E+02  0.10000000000E+01 0.  1.
        -13    1    6    6    0    0 -0.27654720895E+01  0.63254328721E+00  0.21134048476E+01  0.35391315231E+01  0.10500000000E+00 0. -1.
         13    1    6    6    0    0 -0.86089614163E+00  0.21699016155E+00  0.64830466234E+00  0.11043327542E+01  0.10500000000E+00 0.  1.
</event>
<event>
11    0  0.3494755E-009  0.9118800E+02  0.7816531E-02  0.1126479E+00
         25   -1    0    0    0    0  0.00000000000E+00  0.00000000000E+00  0.99999998245E-14  0.12500000000E+03  0.12500000000E+03 0.  0.
    3000001    1    3    3    0    0  0.22942540699E+01 -0.18168977632E+00  0.73492706574E+00  0.26147142681E+01  0.10000000000E+01 0.  1.
    1000022    2    1    0    0    0  0.32295114153E+02 -0.23327531703E+02  0.47107355556E+02  0.62499989978E+02  0.99998833136E+01 0.  0.
    3000022    2    3    3    0    0  0.30000860083E+02 -0.23145841927E+02  0.46372428490E+02  0.59885275710E+02  0.25003712868E+00 0.  0.
    1000022    2    1    0    0    0 -0.32295114153E+02  0.23327531703E+02 -0.47107355556E+02  0.62500010022E+02  0.10000008584E+02 0.  0.
    3000022    2    5    5    0    0 -0.17148997205E+02  0.17425892908E+02 -0.24271747680E+02  0.34451851684E+02  0.25000041021E+00 0.  0.
        -13    1    4    4    0    0  0.12968630499E+02 -0.99272848413E+01  0.20022199407E+02  0.25838650418E+02  0.10500000000E+00 0. -1.
         13    1    4    4    0    0  0.17032229585E+02 -0.13218557086E+02  0.26350229083E+02  0.34046625292E+02  0.10500000000E+00 0.  1.
    3000001    1    5    5    0    0 -0.15146116948E+02  0.59016387948E+01 -0.22835607876E+02  0.28048158338E+02  0.10000000000E+01 0. -1.
        -13    1    6    6    0    0 -0.55663361096E+01  0.56669057718E+01 -0.78140664218E+01  0.11143095519E+02  0.10500000000E+00 0. -1.
         13    1    6    6    0    0 -0.11582661095E+02  0.11758987136E+02 -0.16457681258E+02  0.23308756164E+02  0.10500000000E+00 0.  1.
</event>
<event>
11    0  0.3494755E-009  0.9118800E+02  0.7816531E-02  0.1126479E+00
         25   -1    0    0    0    0  0.00000000000E+00  0.00000000000E+00  0.99999998245E-14  0.12500000000E+03  0.12500000000E+03 0.  0.
    3000001    1    3    3    0    0  0.25293778705E+02  0.12096441352E+02  0.24278117130E+02  0.37101564737E+02  0.10000000000E+01 0.  1.
    1000022    2    1    0    0    0  0.45029546937E+02  0.12571681295E+02  0.40255969848E+02  0.62500003363E+02  0.10000002204E+02 0.  0.
    3000022    2    3    3    0    0  0.19735768232E+02  0.47523994370E+00  0.15977852718E+02  0.25398438627E+02  0.25001294702E+00 0.  0.
    1000022    2    1    0    0    0 -0.45029546937E+02 -0.12571681295E+02 -0.40255969848E+02  0.62499996637E+02  0.99999601610E+01 0.  0.
    3000022    2    5    5    0    0 -0.40004479615E+02 -0.10864649184E+02 -0.30924043370E+02  0.51718062116E+02  0.24999899931E+00 0.  0.
        -13    1    4    4    0    0  0.97056229917E+01  0.18693392343E+00  0.79198299572E+01  0.12528718749E+02  0.10500000000E+00 0.  1.
         13    1    4    4    0    0  0.10030145240E+02  0.28830602027E+00  0.80580227607E+01  0.12869719877E+02  0.10500000000E+00 0. -1.
    3000001    1    5    5    0    0 -0.50250673222E+01 -0.17070321110E+01 -0.93319264781E+01  0.10781934521E+02  0.10000000000E+01 0. -1.
        -13    1    6    6    0    0 -0.27947743019E+02 -0.76149773857E+01 -0.21657895159E+02  0.36168213505E+02  0.10500000000E+00 0. -1.
         13    1    6    6    0    0 -0.12056736596E+02 -0.32496717987E+01 -0.92661482108E+01  0.15549848610E+02  0.10500000000E+00 0.  1.
</event>
<event>
11    0  0.3494755E-009  0.9118800E+02  0.7816531E-02  0.1126479E+00
         25   -1    0    0    0    0  0.00000000000E+00  0.00000000000E+00  0.99999998245E-14  0.12500000000E+03  0.12500000000E+03 0.  0.
    3000001    1    3    3    0    0  0.17127802595E+02  0.66411788145E+01  0.47696693173E+02  0.51121829167E+02  0.10000000000E+01 0. -1.
    1000022    2    1    0    0    0  0.17184046030E+02  0.54134684936E+01  0.59005531718E+02  0.62499999705E+02  0.10000005537E+02 0.  0.
    3000022    2    3    3    0    0  0.56243435060E-01 -0.12277103209E+01  0.11308838545E+02  0.11378170538E+02  0.24999918999E+00 0.  0.
    1000022    2    1    0    0    0 -0.17184046030E+02 -0.54134684936E+01 -0.59005531718E+02  0.62500000295E+02  0.10000009228E+02 0.  0.
    3000022    2    5    5    0    0 -0.16250253003E+02 -0.24004082557E+01 -0.40574417407E+02  0.43774176518E+02  0.24999886844E+00 0.  0.
        -13    1    4    4    0    0  0.19327794653E-01 -0.86480122286E+00  0.82399826920E+01  0.82859274969E+01  0.10500000000E+00 0. -1.
         13    1    4    4    0    0  0.36915640407E-01 -0.36290909802E+00  0.30688558531E+01  0.30922430410E+01  0.10500000000E+00 0.  1.
    3000001    1    5    5    0    0 -0.93379302636E+00 -0.30130602379E+01 -0.18431114310E+02  0.18725823777E+02  0.10000000000E+01 0. -1.
        -13    1    6    6    0    0 -0.86093870743E+01 -0.12067875899E+01 -0.21418127636E+02  0.23115473140E+02  0.10500000000E+00 0. -1.
         13    1    6    6    0    0 -0.76408659291E+01 -0.11936206658E+01 -0.19156289772E+02  0.20658703378E+02  0.10500000000E+00 0.  1.
</event>
<event>
11    0  0.3494755E-009  0.9118800E+02  0.7816531E-02  0.1126479E+00
         25   -1    0    0    0    0  0.00000000000E+00  0.00000000000E+00  0.99999998245E-14  0.12500000000E+03  0.12500000000E+03 0.  0.
    3000001    1    3    3    0    0 -0.53281075530E+01 -0.46608916885E+02 -0.22262237177E+02  0.51936375185E+02  0.10000000000E+01 0.  1.
    1000022    2    1    0    0    0 -0.61118355158E+01 -0.53373707806E+02 -0.30333856389E+02  0.62499999828E+02  0.99999958394E+01 0.  0.
    3000022    2    3    3    0    0 -0.78372796277E+00 -0.67647909210E+01 -0.80716192127E+01  0.10563624643E+02  0.25000632497E+00 0.  0.
    1000022    2    1    0    0    0  0.61118355158E+01  0.53373707806E+02  0.30333856389E+02  0.62500000172E+02  0.99999979856E+01 0.  0.
    3000022    2    5    5    0    0  0.65833395504E+01  0.22658015852E+02  0.98837081017E+01  0.25582733030E+02  0.25000288485E+00 0.  0.
        -13    1    4    4    0    0 -0.24683903659E+00 -0.19484458971E+01 -0.22727312779E+01  0.30056119819E+01  0.10500000000E+00 0. -1.
         13    1    4    4    0    0 -0.53688892619E+00 -0.48163450239E+01 -0.57988879348E+01  0.75580126613E+01  0.10500000000E+00 0.  1.
    3000001    1    5    5    0    0 -0.47150403461E+00  0.30715691954E+02  0.20450148288E+02  0.36917267142E+02  0.10000000000E+01 0.  1.
        -13    1    6    6    0    0  0.28099001534E+01  0.96367321976E+01  0.42748495227E+01  0.10910889504E+02  0.10500000000E+00 0.  1.
         13    1    6    6    0    0  0.37734393970E+01  0.13021283654E+02  0.56088585790E+01  0.14671843526E+02  0.10500000000E+00 0. -1.
</event>
<event>
11    0  0.3494755E-009  0.9118800E+02  0.7816531E-02  0.1126479E+00
         25   -1    0    0    0    0  0.00000000000E+00  0.00000000000E+00  0.99999998245E-14  0.12500000000E+03  0.12500000000E+03 0.  0.
    3000001    1    3    3    0    0 -0.16133312646E+02 -0.59307262868E-01  0.28653738917E+02  0.32898693716E+02  0.10000000000E+01 0.  1.
    1000022    2    1    0    0    0 -0.34896453854E+02  0.72044508509E+01  0.50364504152E+02  0.62500002302E+02  0.10000020283E+02 0.  0.
    3000022    2    3    3    0    0 -0.18763141208E+02  0.72637581137E+01  0.21710765234E+02  0.29601308586E+02  0.24998601418E+00 0.  0.
    1000022    2    1    0    0    0  0.34896453854E+02 -0.72044508509E+01 -0.50364504152E+02  0.62499997698E+02  0.99999915053E+01 0.  0.
    3000022    2    5    5    0    0  0.78250192188E+01  0.23625006907E+01 -0.93109745090E+01  0.12392299376E+02  0.25000443673E+00 0.  0.
        -13    1    4    4    0    0 -0.76154227872E+01  0.29950724901E+01  0.87623179095E+01  0.11989760781E+02  0.10500000000E+00 0.  1.
         13    1    4    4    0    0 -0.11147718421E+02  0.42686856236E+01  0.12948447325E+02  0.17611547805E+02  0.10500000000E+00 0. -1.
    3000001    1    5    5    0    0  0.27071434635E+02 -0.95669515416E+01 -0.41053529643E+02  0.50107698322E+02  0.10000000000E+01 0.  1.
        -13    1    6    6    0    0  0.42378123430E+01  0.12699729159E+01 -0.49384269855E+01  0.66310610579E+01  0.10500000000E+00 0. -1.
         13    1    6    6    0    0  0.35872068758E+01  0.10925277748E+01 -0.43725475235E+01  0.57612383178E+01  0.10500000000E+00 0.  1.
</event>
<event>
11    0  0.3494755E-009  0.9118800E+02  0.7816531E-02  0.1126479E+00
         25   -1    0    0    0    0  0.00000000000E+00  0.00000000000E+00  0.99999998245E-14  0.12500000000E+03  0.12500000000E+03 0.  0.
    3000001    1    3    3    0    0 -0.38042586966E+02  0.30492199891E+01 -0.61557712495E+01  0.38670785941E+02  0.10000000000E+01 0. -1.
    1000022    2    1    0    0    0 -0.60286829303E+02  0.11590939603E+02 -0.61154191833E+01  0.62499999542E+02  0.99999961353E+01 0.  0.
    3000022    2    3    3    0    0 -0.22244242337E+02  0.85417196140E+01  0.40352066112E-01  0.23829213601E+02  0.25000292123E+00 0.  0.
    1000022    2    1    0    0    0  0.60286829303E+02 -0.11590939603E+02  0.61154191833E+01  0.62500000458E+02  0.10000001856E+02 0.  0.
    3000022    2    5    5    0    0  0.45294566068E+02 -0.47574862679E+01  0.25688304873E+01  0.45616803700E+02  0.24999762152E+00 0.  0.
        -13    1    4    4    0    0 -0.16411011747E+02  0.63275679536E+01  0.51607007561E-01  0.17589005403E+02  0.10500000000E+00 0. -1.
         13    1    4    4    0    0 -0.58332305892E+01  0.22141516604E+01 -0.11254941450E-01  0.62402081981E+01  0.10500000000E+00 0.  1.
    3000001    1    5    5    0    0  0.14992263235E+02 -0.68334533352E+01  0.35465886960E+01  0.16883196758E+02  0.10000000000E+01 0. -1.
        -13    1    6    6    0    0  0.20256211767E+02 -0.20924380517E+01  0.10919269373E+01  0.20393522050E+02  0.10500000000E+00 0. -1.
         13    1    6    6    0    0  0.25038354301E+02 -0.26650482163E+01  0.14769035500E+01  0.25223281650E+02  0.10500000000E+00 0.  1.
</event>
<event>
11    0  0.3494755E-009  0.9118800E+02  0.7816531E-02  0.1126479E+00
         25   -1    0    0    0    0  0.00000000000E+00  0.00000000000E+00  0.99999998245E-14  0.12500000000E+03  0.12500000000E+03 0.  0.
    3000001    1    3    3    0    0 -0.96601859321E+01 -0.17964425020E+02  0.11952115652E+02  0.23662054583E+02  0.10000000000E+01 0. -1.
    1000022    2    1    0    0    0 -0.29644126021E+02 -0.50285903155E+02  0.19970072494E+02  0.62499999172E+02  0.99999918731E+01 0.  0.
    3000022    2    3    3    0    0 -0.19983940089E+02 -0.32321478134E+02  0.80179568418E+01  0.38837944589E+02  0.24999535963E+00 0.  0.
    1000022    2    1    0    0    0  0.29644126021E+02  0.50285903155E+02 -0.19970072494E+02  0.62500000828E+02  0.10000002222E+02 0.  0.
    3000022    2    5    5    0    0 -0.14494556734E+00 -0.32095540661E+00 -0.41276146474E+00  0.59740529075E+00  0.24999892824E+00 0.  0.
        -13    1    4    4    0    0 -0.65990424398E+01 -0.10650381540E+02  0.26962022918E+01  0.12816338006E+02  0.10500000000E+00 0.  1.
         13    1    4    4    0    0 -0.13384897649E+02 -0.21671096594E+02  0.53217545500E+01  0.26021606583E+02  0.10500000000E+00 0. -1.
    3000001    1    5    5    0    0  0.29789071588E+02  0.50606858561E+02 -0.19557311029E+02  0.61902595537E+02  0.10000000000E+01 0.  1.
        -13    1    6    6    0    0 -0.10836545783E+00 -0.13643934115E+00 -0.12804951533E+00  0.24037563237E+00  0.10500000000E+00 0. -1.
         13    1    6    6    0    0 -0.36580109518E-01 -0.18451606546E+00 -0.28471194941E+00  0.35702965838E+00  0.10500000000E+00 0.  1.
</event>
<event>
11    0  0.3494755E-009  0.9118800E+02  0.7816531E-02  0.1126479E+00
         25   -1    0    0    0    0  0.00000000000E+00  0.00000000000E+00  0.99999998245E-14  0.12500000000E+03  0.12500000000E+03 0.  0.
    3000001    1    3    3    0    0  0.19050916821E+02 -0.26996696518E+01 -0.22059833322E+02  0.29289279509E+02  0.10000000000E+01 0. -1.
    1000022    2    1    0    0    0  0.32141607997E+02 -0.29188522894E+01 -0.52579915587E+02  0.62500003039E+02  0.10000009671E+02 0.  0.
    3000022    2    3    3    0    0  0.13090691176E+02 -0.21918263754E+00 -0.30520082265E+02  0.33210723531E+02  0.24999889350E+00 0.  0.
    1000022    2    1    0    0    0 -0.32141607997E+02  0.29188522894E+01  0.52579915587E+02  0.62499996961E+02  0.99999716785E+01 0.  0.
    3000022    2    5    5    0    0 -0.18423920096E+02 -0.25557923073E+01  0.24556120204E+02  0.30806467613E+02  0.25000260115E+00 0.  0.
        -13    1    4    4    0    0  0.74933403849E+01 -0.17992504639E+00 -0.17379879980E+02  0.18927592986E+02  0.10500000000E+00 0.  1.
         13    1    4    4    0    0  0.55973507915E+01 -0.39257591144E-01 -0.13140202286E+02  0.14283130544E+02  0.10500000000E+00 0. -1.
    3000001    1    5    5    0    0 -0.13717687901E+02  0.54746445966E+01  0.28023795383E+02  0.31693529347E+02  0.10000000000E+01 0.  1.
        -13    1    6    6    0    0 -0.61564230505E+01 -0.89886047578E+00  0.82645202363E+01  0.10345183163E+02  0.10500000000E+00 0. -1.
         13    1    6    6    0    0 -0.12267497046E+02 -0.16569318315E+01  0.16291599968E+02  0.20461284451E+02  0.10500000000E+00 0.  1.
</event>
<event>
11    0  0.3494755E-009  0.9118800E+02  0.7816531E-02  0.1126479E+00
         25   -1    0    0    0    0  0.00000000000E+00  0.00000000000E+00  0.99999998245E-14  0.12500000000E+03  0.12500000000E+03 0.  0.
    3000001    1    3    3    0    0  0.38191619005E+02  0.30069996229E+02  0.19818193936E+01  0.48659346929E+02  0.10000000000E+01 0. -1.
    1000022    2    1    0    0    0  0.45982807684E+02  0.41120569217E+02 -0.96497544445E+00  0.62500007561E+02  0.99999976140E+01 0.  0.
    3000022    2    3    3    0    0  0.77911886789E+01  0.11050572988E+02 -0.29467948380E+01  0.13840660632E+02  0.25000504168E+00 0.  0.
    1000022    2    1    0    0    0 -0.45982807684E+02 -0.41120569217E+02  0.96497544445E+00  0.62499992439E+02  0.99999030984E+01 0.  0.
    3000022    2    5    5    0    0 -0.33050326356E+02 -0.30150471236E+02  0.50678620859E+01  0.45023556824E+02  0.24990985192E+00 0.  0.
        -13    1    4    4    0    0  0.52350873055E+01  0.73351062692E+01 -0.19502004580E+01  0.92208584147E+01  0.10500000000E+00 0.  1.
         13    1    4    4    0    0  0.25561013734E+01  0.37154667186E+01 -0.99659437999E+00  0.46198022172E+01  0.10500000000E+00 0. -1.
    3000001    1    5    5    0    0 -0.12932481328E+02 -0.10970097981E+02 -0.41028866414E+01  0.17476435615E+02  0.10000000000E+01 0.  1.
        -13    1    6    6    0    0 -0.17666310325E+02 -0.16167325609E+02  0.26568840453E+01  0.24094625867E+02  0.10500000000E+00 0.  1.
         13    1    6    6    0    0 -0.15384016031E+02 -0.13983145626E+02  0.24109780406E+01  0.20928930956E+02  0.10500000000E+00 0. -1.
</event>
<event>
11    0  0.3494755E-009  0.9118800E+02  0.7816531E-02  0.1126479E+00
         25   -1    0    0    0    0  0.00000000000E+00  0.00000000000E+00  0.99999998245E-14  0.12500000000E+03  0.12500000000E+03 0.  0.
    3000001    1    3    3    0    0  0.18833174669E+02 -0.23987685237E+02 -0.30201959859E+02  0.42933156074E+02  0.10000000000E+01 0.  1.
    1000022    2    1    0    0    0  0.30756347063E+02 -0.37049964244E+02 -0.38569381572E+02  0.62500000999E+02  0.10000009742E+02 0.  0.
    3000022    2    3    3    0    0  0.11923172394E+02 -0.13062279007E+02 -0.83674217125E+01  0.19566844924E+02  0.25000277925E+00 0.  0.
    1000022    2    1    0    0    0 -0.30756347063E+02  0.37049964244E+02  0.38569381572E+02  0.62499999001E+02  0.99999972603E+01 0.  0.
    3000022    2    5    5    0    0 -0.83810746873E+01  0.16395946378E+02  0.11261707065E+02  0.21586060608E+02  0.24999202308E+00 0.  0.
        -13    1    4    4    0    0  0.54411765093E+01 -0.60192692621E+01 -0.38990263209E+01  0.90028570747E+01  0.10500000000E+00 0.  1.
         13    1    4    4    0    0  0.64819958845E+01 -0.70430097449E+01 -0.44683953916E+01  0.10563987850E+02  0.10500000000E+00 0. -1.
    3000001    1    5    5    0    0 -0.22375272375E+02  0.20654017867E+02  0.27307674507E+02  0.40913938394E+02  0.10000000000E+01 0.  1.
        -13    1    6    6    0    0 -0.45664264963E+01  0.90575163020E+01  0.62447776178E+01  0.11912141915E+02  0.10500000000E+00 0. -1.
         13    1    6    6    0    0 -0.38146481910E+01  0.73384300757E+01  0.50169294468E+01  0.96739186926E+01  0.10500000000E+00 0.  1.
</event>
<event>
11    0  0.3494755E-009  0.9118800E+02  0.7816531E-02  0.1126479E+00
         25   -1    0    0    0    0  0.00000000000E+00  0.00000000000E+00  0.99999998245E-14  0.12500000000E+03  0.12500000000E+03 0.  0.
    3000001    1    3    3    0    0 -0.15911088786E+02  0.27763922886E+02 -0.48726290758E+02  0.58303083721E+02  0.10000000000E+01 0. -1.
    1000022    2    1    0    0    0 -0.18373465195E+02  0.30823099537E+02 -0.50185670584E+02  0.62500005242E+02  0.10000071751E+02 0.  0.
    3000022    2    3    3    0    0 -0.24623764088E+01  0.30591766516E+01 -0.14593798252E+01  0.41969215210E+01  0.25000282892E+00 0.  0.
    1000022    2    1    0    0    0  0.18373465195E+02 -0.30823099537E+02  0.50185670584E+02  0.62499994758E+02  0.10000006220E+02 0.  0.
    3000022    2    5    5    0    0  0.13968313517E+02 -0.16657756090E+02  0.23963517229E+02  0.32355946541E+02  0.24999629693E+00 0.  0.
        -13    1    4    4    0    0 -0.17736898542E+01  0.22253868664E+01 -0.10181683784E+01  0.30242377966E+01  0.10500000000E+00 0.  1.
         13    1    4    4    0    0 -0.68868655459E+00  0.83378978527E+00 -0.44121144687E+00  0.11726837243E+01  0.10500000000E+00 0. -1.
    3000001    1    5    5    0    0  0.44051516774E+01 -0.14165343448E+02  0.26222153355E+02  0.30144048216E+02  0.10000000000E+01 0.  1.
        -13    1    6    6    0    0  0.89404625731E+01 -0.10673830822E+02  0.15433186225E+02  0.20785975982E+02  0.10500000000E+00 0.  1.
         13    1    6    6    0    0  0.50278509443E+01 -0.59839252672E+01  0.85303310035E+01  0.11569970560E+02  0.10500000000E+00 0. -1.
</event>
<event>
11    0  0.3494755E-009  0.9118800E+02  0.7816531E-02  0.1126479E+00
         25   -1    0    0    0    0  0.00000000000E+00  0.00000000000E+00  0.99999998245E-14  0.12500000000E+03  0.12500000000E+03 0.  0.
    3000001    1    3    3    0    0  0.34137545008E+01 -0.79828168699E+00 -0.44319403786E+00  0.36725188084E+01  0.10000000000E+01 0. -1.
    1000022    2    1    0    0    0  0.53356886605E+02  0.17897015272E+02 -0.25278238521E+02  0.62499999732E+02  0.10000005993E+02 0.  0.
    3000022    2    3    3    0    0  0.49943132105E+02  0.18695296959E+02 -0.24835044484E+02  0.58827480923E+02  0.25000896387E+00 0.  0.
    1000022    2    1    0    0    0 -0.53356886605E+02 -0.17897015272E+02  0.25278238521E+02  0.62500000268E+02  0.10000009347E+02 0.  0.
    3000022    2    5    5    0    0 -0.25945642066E+02 -0.11262043876E+02  0.17366524387E+02  0.33191394141E+02  0.25000245504E+00 0.  0.
        -13    1    4    4    0    0  0.20697608328E+02  0.78161902543E+01 -0.10296270146E+02  0.24403033100E+02  0.10500000000E+00 0.  1.
         13    1    4    4    0    0  0.29245523777E+02  0.10879106704E+02 -0.14538774338E+02  0.34424447823E+02  0.10500000000E+00 0. -1.
    3000001    1    5    5    0    0 -0.27411244539E+02 -0.66349713961E+01  0.79117141346E+01  0.29308606128E+02  0.10000000000E+01 0.  1.
        -13    1    6    6    0    0 -0.16802103245E+02 -0.73096125384E+01  0.11314532598E+02  0.21535337978E+02  0.10500000000E+00 0.  1.
         13    1    6    6    0    0 -0.91435388215E+01 -0.39524313373E+01  0.60519917889E+01  0.11656056163E+02  0.10500000000E+00 0. -1.
</event>
<event>
11    0  0.3494755E-009  0.9118800E+02  0.7816531E-02  0.1126479E+00
         25   -1    0    0    0    0  0.00000000000E+00  0.00000000000E+00  0.99999998245E-14  0.12500000000E+03  0.12500000000E+03 0.  0.
    3000001    1    3    3    0    0 -0.13424690010E+02 -0.50707905908E+01  0.19328956173E+02  0.24094475836E+02  0.10000000000E+01 0. -1.
    1000022    2    1    0    0    0 -0.36859618078E+02 -0.88562580983E+00  0.49465485012E+02  0.62500000488E+02  0.10000003778E+02 0.  0.
    3000022    2    3    3    0    0 -0.23434928068E+02  0.41851647809E+01  0.30136528839E+02  0.38405524652E+02  0.24999100816E+00 0.  0.
    1000022    2    1    0    0    0  0.36859618078E+02  0.88562580983E+00 -0.49465485012E+02  0.62499999512E+02  0.99999976796E+01 0.  0.
    3000022    2    5    5    0    0  0.23287116848E+02  0.29419287322E+01 -0.37610473965E+02  0.44334580214E+02  0.24999025339E+00 0.  0.
        -13    1    4    4    0    0 -0.53889303397E+01  0.96328536062E+00  0.69414486484E+01  0.88409967328E+01  0.10500000000E+00 0. -1.
         13    1    4    4    0    0 -0.18045997729E+02  0.32218794203E+01  0.23195080191E+02  0.29564527919E+02  0.10500000000E+00 0.  1.
    3000001    1    5    5    0    0  0.13572501230E+02 -0.20563029224E+01 -0.11855011047E+02  0.18165419298E+02  0.10000000000E+01 0. -1.
        -13    1    6    6    0    0  0.68442736269E+01  0.88323449024E+00 -0.10982909296E+02  0.12971488205E+02  0.10500000000E+00 0. -1.
         13    1    6    6    0    0  0.16442843221E+02  0.20586942419E+01 -0.26627564669E+02  0.31363092009E+02  0.10500000000E+00 0.  1.
</event>
<event>
11    0  0.3494755E-009  0.9118800E+02  0.7816531E-02  0.1126479E+00
         25   -1    0    0    0    0  0.00000000000E+00  0.00000000000E+00  0.99999998245E-14  0.12500000000E+03  0.12500000000E+03 0.  0.
    3000001    1    3    3    0    0  0.27276053374E+02  0.77361366082E+01 -0.39325985468E+02  0.48490865431E+02  0.10000000000E+01 0. -1.
    1000022    2    1    0    0    0  0.35455511987E+02  0.46629872834E+01 -0.50273388443E+02  0.62500002594E+02  0.99999979028E+01 0.  0.
    3000022    2    3    3    0    0  0.81794586130E+01 -0.30731493248E+01 -0.10947402975E+02  0.14009137163E+02  0.25000432946E+00 0.  0.
    1000022    2    1    0    0    0 -0.35455511987E+02 -0.46629872834E+01  0.50273388443E+02  0.62499997406E+02  0.99999654777E+01 0.  0.
    3000022    2    5    5    0    0 -0.15965631007E+02 -0.67813861090E+01  0.20755085043E+02  0.27050409118E+02  0.25001456984E+00 0.  0.
        -13    1    4    4    0    0  0.28994717436E+01 -0.10290576579E+01 -0.38661929339E+01  0.49421016640E+01  0.10500000000E+00 0. -1.
         13    1    4    4    0    0  0.52799868694E+01 -0.20440916670E+01 -0.70812100415E+01  0.90670354988E+01  0.10500000000E+00 0.  1.
    3000001    1    5    5    0    0 -0.19489880980E+02  0.21183988256E+01  0.29518303400E+02  0.35449588288E+02  0.10000000000E+01 0. -1.
        -13    1    6    6    0    0 -0.75388384507E+01 -0.32054370555E+01  0.96969379028E+01  0.12694508324E+02  0.10500000000E+00 0. -1.
         13    1    6    6    0    0 -0.84267925562E+01 -0.35759490535E+01  0.11058147140E+02  0.14355900794E+02  0.10500000000E+00 0.  1.
</event>
<event>
11    0  0.3494755E-009  0.9118800E+02  0.7816531E-02  0.1126479E+00
         25   -1    0    0    0    0  0.00000000000E+00  0.00000000000E+00  0.99999998245E-14  0.12500000000E+03  0.12500000000E+03 0.  0.
    3000001    1    3    3    0    0 -0.19737216120E+02  0.25798994102E+02 -0.44225480302E+02  0.54882045377E+02  0.10000000000E+01 0. -1.
    1000022    2    1    0    0    0 -0.18817059615E+02  0.29399051453E+02 -0.50871052573E+02  0.62499999770E+02  0.10000001124E+02 0.  0.
    3000022    2    3    3    0    0  0.92015650526E+00  0.36000573511E+01 -0.66455722710E+01  0.76179543928E+01  0.24999479396E+00 0.  0.
    1000022    2    1    0    0    0  0.18817059615E+02 -0.29399051453E+02  0.50871052573E+02  0.62500000230E+02  0.10000004000E+02 0.  0.
    3000022    2    5    5    0    0  0.37028826435E+01 -0.15814239130E+01  0.27214945655E+01  0.48663409346E+01  0.24999991535E+00 0.  0.
        -13    1    4    4    0    0  0.43762450215E+00  0.17073313186E+01 -0.32910713262E+01  0.37347919501E+01  0.10500000000E+00 0. -1.
         13    1    4    4    0    0  0.48253200311E+00  0.18927260325E+01 -0.33545009448E+01  0.38831624427E+01  0.10500000000E+00 0.  1.
    3000001    1    5    5    0    0  0.15114176972E+02 -0.27817627540E+02  0.48149558007E+02  0.57633659295E+02  0.10000000000E+01 0. -1.
        -13    1    6    6    0    0  0.12868466941E+01 -0.50821308359E+00  0.98510244081E+00  0.17016776343E+01  0.10500000000E+00 0. -1.
         13    1    6    6    0    0  0.24160359494E+01 -0.10732108294E+01  0.17363921247E+01  0.31646633002E+01  0.10500000000E+00 0.  1.
</event>
<event>
11    0  0.3494755E-009  0.9118800E+02  0.7816531E-02  0.1126479E+00
         25   -1    0    0    0    0  0.00000000000E+00  0.00000000000E+00  0.99999998245E-14  0.12500000000E+03  0.12500000000E+03 0.  0.
    3000001    1    3    3    0    0  0.40930061100E+00 -0.12931075218E+01 -0.26575737404E+01  0.31468003176E+01  0.10000000000E+01 0. -1.
    1000022    2    1    0    0    0  0.24299571370E+02  0.95175273255E+01 -0.55903465767E+02  0.62500000551E+02  0.10000004446E+02 0.  0.
    3000022    2    3    3    0    0  0.23890270759E+02  0.10810634847E+02 -0.53245892027E+02  0.59353200233E+02  0.24999493370E+00 0.  0.
    1000022    2    1    0    0    0 -0.24299571370E+02 -0.95175273255E+01  0.55903465767E+02  0.62499999449E+02  0.99999975576E+01 0.  0.
    3000022    2    5    5    0    0 -0.17808937560E+01  0.17845346589E+01  0.32565339993E+01  0.41259737939E+01  0.24999908063E+00 0.  0.
        -13    1    4    4    0    0  0.13188870992E+02  0.58982346589E+01 -0.29380481545E+02  0.32740788185E+02  0.10500000000E+00 0. -1.
         13    1    4    4    0    0  0.10701399767E+02  0.49124001884E+01 -0.23865410482E+02  0.26612412049E+02  0.10500000000E+00 0.  1.
    3000001    1    5    5    0    0 -0.22518677614E+02 -0.11302061984E+02  0.52646931768E+02  0.58374025655E+02  0.10000000000E+01 0.  1.
        -13    1    6    6    0    0 -0.84631317505E+00  0.92412790006E+00  0.15498791787E+01  0.19958478986E+01  0.10500000000E+00 0.  1.
         13    1    6    6    0    0 -0.93458058095E+00  0.86040675882E+00  0.17066548206E+01  0.21301258953E+01  0.10500000000E+00 0. -1.
</event>
<event>
11    0  0.3494755E-009  0.9118800E+02  0.7816531E-02  0.1126479E+00
         25   -1    0    0    0    0  0.00000000000E+00  0.00000000000E+00  0.99999998245E-14  0.12500000000E+03  0.12500000000E+03 0.  0.
    3000001    1    3    3    0    0 -0.53339239945E+01  0.38160002485E+02  0.17717773635E+02  0.42421174399E+02  0.10000000000E+01 0.  1.
    1000022    2    1    0    0    0 -0.65355058400E+01  0.52530808800E+02  0.31686769618E+02  0.62499999648E+02  0.99999938727E+01 0.  0.
    3000022    2    3    3    0    0 -0.12015818455E+01  0.14370806315E+02  0.13968995983E+02  0.20078825249E+02  0.25000307813E+00 0.  0.
    1000022    2    1    0    0    0  0.65355058400E+01 -0.52530808800E+02 -0.31686769618E+02  0.62500000352E+02  0.99999982730E+01 0.  0.
    3000022    2    5    5    0    0  0.50735888064E+01 -0.37854501779E+02 -0.17503701846E+02  0.42013648783E+02  0.24999489453E+00 0.  0.
        -13    1    4    4    0    0 -0.57668746079E+00  0.74821303108E+01  0.72036203899E+01  0.10402788767E+02  0.10500000000E+00 0.  1.
         13    1    4    4    0    0 -0.62489438475E+00  0.68886760040E+01  0.67653755927E+01  0.96760364814E+01  0.10500000000E+00 0. -1.
    3000001    1    5    5    0    0  0.14619170336E+01 -0.14676307020E+02 -0.14183067772E+02  0.20486351569E+02  0.10000000000E+01 0.  1.
        -13    1    6    6    0    0  0.28146285606E+01 -0.21222144936E+02 -0.98762285915E+01  0.23576524040E+02  0.10500000000E+00 0.  1.
         13    1    6    6    0    0  0.22589602458E+01 -0.16632356843E+02 -0.76274732544E+01  0.18437124743E+02  0.10500000000E+00 0. -1.
</event>
<event>
11    0  0.3494755E-009  0.9118800E+02  0.7816531E-02  0.1126479E+00
         25   -1    0    0    0    0  0.00000000000E+00  0.00000000000E+00  0.99999998245E-14  0.12500000000E+03  0.12500000000E+03 0.  0.
    3000001    1    3    3    0    0  0.14064232561E+02 -0.19667118913E+00  0.18205843234E+02  0.23028114230E+02  0.10000000000E+01 0.  1.
    1000022    2    1    0    0    0  0.44651105180E+02 -0.86000629420E+01  0.41696130527E+02  0.62500001537E+02  0.10000030737E+02 0.  0.
    3000022    2    3    3    0    0  0.30586872619E+02 -0.84033917528E+01  0.23490287293E+02  0.39471887307E+02  0.25004187187E+00 0.  0.
    1000022    2    1    0    0    0 -0.44651105180E+02  0.86000629420E+01 -0.41696130527E+02  0.62499998463E+02  0.10000011526E+02 0.  0.
    3000022    2    5    5    0    0 -0.39735725988E+02  0.86964423934E+01 -0.32666022992E+02  0.52169795962E+02  0.25004513911E+00 0.  0.
        -13    1    4    4    0    0  0.17115718746E+02 -0.47189935334E+01  0.13067894083E+02  0.22045353455E+02  0.10500000000E+00 0.  1.
         13    1    4    4    0    0  0.13471153873E+02 -0.36843982195E+01  0.10422393210E+02  0.17426533853E+02  0.10500000000E+00 0. -1.
    3000001    1    5    5    0    0 -0.49153791926E+01 -0.96379451473E-01 -0.90301075356E+01  0.10330202501E+02  0.10000000000E+01 0. -1.
        -13    1    6    6    0    0 -0.16410791406E+02  0.36548325671E+01 -0.13478945673E+02  0.21549127062E+02  0.10500000000E+00 0.  1.
         13    1    6    6    0    0 -0.23324934582E+02  0.50416098264E+01 -0.19187077319E+02  0.30620668901E+02  0.10500000000E+00 0. -1.
</event>
<event>
11    0  0.3494755E-009  0.9118800E+02  0.7816531E-02  0.1126479E+00
         25   -1    0    0    0    0  0.00000000000E+00  0.00000000000E+00  0.99999998245E-14  0.12500000000E+03  0.12500000000E+03 0.  0.
    3000001    1    3    3    0    0  0.15470038763E+02 -0.42338490004E+02 -0.87732481408E+01  0.45932991609E+02  0.10000000000E+01 0.  1.
    1000022    2    1    0    0    0  0.19402334316E+02 -0.55917684250E+02 -0.17407237049E+02  0.62499999142E+02  0.10000000116E+02 0.  0.
    3000022    2    3    3    0    0  0.39322955527E+01 -0.13579194245E+02 -0.86339889080E+01  0.16567007533E+02  0.25001895181E+00 0.  0.
    1000022    2    1    0    0    0 -0.19402334316E+02  0.55917684250E+02  0.17407237049E+02  0.62500000858E+02  0.10000010843E+02 0.  0.
    3000022    2    5    5    0    0 -0.92524336909E+01  0.18505303457E+02  0.10160296133E+02  0.23050984751E+02  0.24999038471E+00 0.  0.
        -13    1    4    4    0    0  0.25120235777E+01 -0.84842644790E+01 -0.53702266812E+01  0.10351007961E+02  0.10500000000E+00 0.  1.
         13    1    4    4    0    0  0.14202719749E+01 -0.50949297663E+01 -0.32637622268E+01  0.62159995720E+01  0.10500000000E+00 0. -1.
    3000001    1    5    5    0    0 -0.10149900625E+02  0.37412380792E+02  0.72469409154E+01  0.39449016108E+02  0.10000000000E+01 0. -1.
        -13    1    6    6    0    0 -0.69741006173E+01  0.13910477133E+02  0.76617884434E+01  0.17345128441E+02  0.10500000000E+00 0.  1.
         13    1    6    6    0    0 -0.22783330735E+01  0.45948263248E+01  0.24985076900E+01  0.57058563097E+01  0.10500000000E+00 0. -1.
</event>
<event>
11    0  0.3494755E-009  0.9118800E+02  0.7816531E-02  0.1126479E+00
         25   -1    0    0    0    0  0.00000000000E+00  0.00000000000E+00  0.99999998245E-14  0.12500000000E+03  0.12500000000E+03 0.  0.
    3000001    1    3    3    0    0  0.31035337445E+01 -0.22035313705E+02 -0.69333550073E+01  0.23329345971E+02  0.10000000000E+01 0.  1.
    1000022    2    1    0    0    0  0.20392638030E+02 -0.54932439932E+02 -0.19308477255E+02  0.62500000655E+02  0.10000007261E+02 0.  0.
    3000022    2    3    3    0    0  0.17289104285E+02 -0.32897126227E+02 -0.12375122247E+02  0.39170654684E+02  0.24999342575E+00 0.  0.
    1000022    2    1    0    0    0 -0.20392638030E+02  0.54932439932E+02  0.19308477255E+02  0.62499999345E+02  0.99999990774E+01 0.  0.
    3000022    2    5    5    0    0 -0.28655512991E+01  0.21389932807E+02  0.68134280692E+01  0.22632408401E+02  0.24999653704E+00 0.  0.
        -13    1    4    4    0    0  0.10665216097E+02 -0.20166921180E+02 -0.76155854138E+01  0.24051189378E+02  0.10500000000E+00 0.  1.
         13    1    4    4    0    0  0.66238881876E+01 -0.12730205048E+02 -0.47595368334E+01  0.15119465306E+02  0.10500000000E+00 0. -1.
    3000001    1    5    5    0    0 -0.17527086730E+02  0.33542507126E+02  0.12495049185E+02  0.39867590944E+02  0.10000000000E+01 0.  1.
        -13    1    6    6    0    0 -0.69084514549E+00  0.53296993779E+01  0.17092034449E+01  0.56405109600E+01  0.10500000000E+00 0.  1.
         13    1    6    6    0    0 -0.21747061536E+01  0.16060233429E+02  0.51042246244E+01  0.16991897441E+02  0.10500000000E+00 0. -1.
</event>
<event>
11    0  0.3494755E-009  0.9118800E+02  0.7816531E-02  0.1126479E+00
         25   -1    0    0    0    0  0.00000000000E+00  0.00000000000E+00  0.99999998245E-14  0.12500000000E+03  0.12500000000E+03 0.  0.
    3000001    1    3    3    0    0  0.32077592416E+02 -0.35799159698E+02 -0.38172628493E+02  0.61389749440E+02  0.10000000000E+01 0. -1.
    1000022    2    1    0    0    0  0.31962726345E+02 -0.35371674945E+02 -0.39159653543E+02  0.62500000920E+02  0.10000019282E+02 0.  0.
    3000022    2    3    3    0    0 -0.11486607061E+00  0.42748475275E+00 -0.98702504999E+00  0.11102514804E+01  0.25000494481E+00 0.  0.
    1000022    2    1    0    0    0 -0.31962726345E+02  0.35371674945E+02  0.39159653543E+02  0.62499999080E+02  0.10000007777E+02 0.  0.
    3000022    2    5    5    0    0 -0.21099970322E+02  0.20194053117E+02  0.18186370704E+02  0.34406614346E+02  0.25000495453E+00 0.  0.
        -13    1    4    4    0    0 -0.10189546445E+00  0.27142535147E+00 -0.49319494512E+00  0.58165338560E+00  0.10500000000E+00 0. -1.
         13    1    4    4    0    0 -0.12970606164E-01  0.15605940128E+00 -0.49383010488E+00  0.52859809481E+00  0.10500000000E+00 0.  1.
    3000001    1    5    5    0    0 -0.10862756023E+02  0.15177621828E+02  0.20973282839E+02  0.28093384734E+02  0.10000000000E+01 0.  1.
        -13    1    6    6    0    0 -0.11907696353E+02  0.11350989782E+02  0.10176377381E+02  0.19344453548E+02  0.10500000000E+00 0.  1.
         13    1    6    6    0    0 -0.91922739683E+01  0.88430633358E+01  0.80099933222E+01  0.15062160798E+02  0.10500000000E+00 0. -1.
</event>
<event>
11    0  0.3494755E-009  0.9118800E+02  0.7816531E-02  0.1126479E+00
         25   -1    0    0    0    0  0.00000000000E+00  0.00000000000E+00  0.99999998245E-14  0.12500000000E+03  0.12500000000E+03 0.  0.
    3000001    1    3    3    0    0  0.10528361068E+02  0.88209181738E+01  0.23205283569E+02  0.26984072520E+02  0.10000000000E+01 0.  1.
    1000022    2    1    0    0    0  0.13791847478E+02  0.18429940204E+02  0.57239605182E+02  0.62500001268E+02  0.10000000217E+02 0.  0.
    3000022    2    3    3    0    0  0.32634864099E+01  0.96090220302E+01  0.34034321612E+02  0.35515928748E+02  0.24999863256E+00 0.  0.
    1000022    2    1    0    0    0 -0.13791847478E+02 -0.18429940204E+02 -0.57239605182E+02  0.62499998732E+02  0.99999843682E+01 0.  0.
    3000022    2    5    5    0    0 -0.79262361063E+01 -0.63901216524E+01 -0.35631852272E+02  0.37058740640E+02  0.24997581870E+00 0.  0.
        -13    1    4    4    0    0  0.14188050075E+01  0.43795278441E+01  0.15493726346E+02  0.16163534665E+02  0.10500000000E+00 0. -1.
         13    1    4    4    0    0  0.18446814024E+01  0.52294941861E+01  0.18540595266E+02  0.19352394083E+02  0.10500000000E+00 0.  1.
    3000001    1    5    5    0    0 -0.58656113717E+01 -0.12039818552E+02 -0.21607752909E+02  0.25441258092E+02  0.10000000000E+01 0. -1.
        -13    1    6    6    0    0 -0.23026969456E+01 -0.18814507554E+01 -0.10552774565E+02  0.10964230305E+02  0.10500000000E+00 0. -1.
         13    1    6    6    0    0 -0.56235391607E+01 -0.45086708971E+01 -0.25079077708E+02  0.26094510335E+02  0.10500000000E+00 0.  1.
</event>
<event>
11    0  0.3494755E-009  0.9118800E+02  0.7816531E-02  0.1126479E+00
         25   -1    0    0    0    0  0.00000000000E+00  0.00000000000E+00  0.99999998245E-14  0.12500000000E+03  0.12500000000E+03 0.  0.
    3000001    1    3    3    0    0  0.22871707374E+02  0.34412911689E+01 -0.83325687716E+01  0.24604657800E+02  0.10000000000E+01 0. -1.
    1000022    2    1    0    0    0  0.60431822306E+02  0.50646199611E+00 -0.12409208762E+02  0.62499999874E+02  0.99999935600E+01 0.  0.
    3000022    2    3    3    0    0  0.37560114932E+02 -0.29348291728E+01 -0.40766399899E+01  0.37895342075E+02  0.25000268452E+00 0.  0.
    1000022    2    1    0    0    0 -0.60431822306E+02 -0.50646199611E+00  0.12409208762E+02  0.62500000126E+02  0.99999951297E+01 0.  0.
    3000022    2    5    5    0    0 -0.60691045434E+01 -0.11175325290E+01 -0.15372005836E+01  0.63646206988E+01  0.25000418652E+00 0.  0.
        -13    1    4    4    0    0  0.17733892139E+02 -0.13978360430E+01 -0.18581241780E+01  0.17885986874E+02  0.10500000000E+00 0.  1.
         13    1    4    4    0    0  0.19826222794E+02 -0.15369931298E+01 -0.22185158119E+01  0.20009355201E+02  0.10500000000E+00 0. -1.
    3000001    1    5    5    0    0 -0.54362717763E+02  0.61107053285E+00  0.13946409345E+02  0.56135379427E+02  0.10000000000E+01 0. -1.
        -13    1    6    6    0    0 -0.24032457761E+01 -0.50228103237E+00 -0.58875574533E+00  0.25269615794E+01  0.10500000000E+00 0. -1.
         13    1    6    6    0    0 -0.36658587673E+01 -0.61525149659E+00 -0.94844483829E+00  0.38376591195E+01  0.10500000000E+00 0. -1.
</event>
<event>
11    0  0.3494755E-009  0.9118800E+02  0.7816531E-02  0.1126479E+00
         25   -1    0    0    0    0  0.00000000000E+00  0.00000000000E+00  0.99999998245E-14  0.12500000000E+03  0.12500000000E+03 0.  0.
    3000001    1    3    3    0    0  0.71905149992E+01  0.14730559265E+02  0.10874590044E+02  0.19696435993E+02  0.10000000000E+01 0. -1.
    1000022    2    1    0    0    0  0.34703700084E+02  0.43309389234E+02  0.26948088335E+02  0.62499995691E+02  0.10000000061E+02 0.  0.
    3000022    2    3    3    0    0  0.27513185085E+02  0.28578829969E+02  0.16073498291E+02  0.42803559698E+02  0.24999927275E+00 0.  0.
    1000022    2    1    0    0    0 -0.34703700084E+02 -0.43309389234E+02 -0.26948088335E+02  0.62500004309E+02  0.10000053918E+02 0.  0.
    3000022    2    5    5    0    0 -0.11350799804E+02 -0.76671410104E+01 -0.52458431577E+01  0.14669937869E+02  0.24999835409E+00 0.  0.
        -13    1    4    4    0    0  0.97986067494E+01  0.10178303040E+02  0.56625508697E+01  0.15221236952E+02  0.10500000000E+00 0.  1.
         13    1    4    4    0    0  0.17714578335E+02  0.18400526929E+02  0.10410947421E+02  0.27582322746E+02  0.10500000000E+00 0. -1.
    3000001    1    5    5    0    0 -0.23352900280E+02 -0.35642248223E+02 -0.21702245178E+02  0.47830066440E+02  0.10000000000E+01 0.  1.
        -13    1    6    6    0    0 -0.56275329423E+01 -0.37585140514E+01 -0.25297283815E+01  0.72253792686E+01  0.10500000000E+00 0.  1.
         13    1    6    6    0    0 -0.57232668617E+01 -0.39086269590E+01 -0.27161147761E+01  0.74445586002E+01  0.10500000000E+00 0. -1.
</event>
<event>
11    0  0.3494755E-009  0.9118800E+02  0.7816531E-02  0.1126479E+00
         25   -1    0    0    0    0  0.00000000000E+00  0.00000000000E+00  0.99999998245E-14  0.12500000000E+03  0.12500000000E+03 0.  0.
    3000001    1    3    3    0    0 -0.12286322742E+02  0.75163234448E+01  0.44559666404E+02  0.46840289439E+02  0.10000000000E+01 0. -1.
    1000022    2    1    0    0    0 -0.18133199860E+02  0.46040221021E+01  0.58789789778E+02  0.62499995064E+02  0.10000002209E+02 0.  0.
    3000022    2    3    3    0    0 -0.58468771177E+01 -0.29123013427E+01  0.14230123374E+02  0.15659705625E+02  0.24999579407E+00 0.  0.
    1000022    2    1    0    0    0  0.18133199860E+02 -0.46040221021E+01 -0.58789789778E+02  0.62500004936E+02  0.10000063905E+02 0.  0.
    3000022    2    5    5    0    0  0.16453818222E+02 -0.71946697828E+01 -0.50410158531E+02  0.53513904673E+02  0.25000569582E+00 0.  0.
        -13    1    4    4    0    0 -0.21802868355E+01 -0.10477031410E+01  0.51551463060E+01  0.56954272002E+01  0.10500000000E+00 0.  1.
         13    1    4    4    0    0 -0.36665902822E+01 -0.18645982017E+01  0.90749770679E+01  0.99642784251E+01  0.10500000000E+00 0. -1.
    3000001    1    5    5    0    0  0.16793816373E+01  0.25906476807E+01 -0.83796312472E+01  0.89861002625E+01  0.10000000000E+01 0. -1.
        -13    1    6    6    0    0  0.11441522536E+02 -0.49679810406E+01 -0.35116059423E+02  0.37265774217E+02  0.10500000000E+00 0.  1.
         13    1    6    6    0    0  0.50122956862E+01 -0.22266887422E+01 -0.15294099108E+02  0.16248130457E+02  0.10500000000E+00 0. -1.
</event>
<event>
11    0  0.3494755E-009  0.9118800E+02  0.7816531E-02  0.1126479E+00
         25   -1    0    0    0    0  0.00000000000E+00  0.00000000000E+00  0.99999998245E-14  0.12500000000E+03  0.12500000000E+03 0.  0.
    3000001    1    3    3    0    0 -0.10533420888E+02  0.39613564967E+02 -0.34640178337E+02  0.53676153366E+02  0.10000000000E+01 0. -1.
    1000022    2    1    0    0    0 -0.11360551019E+02  0.43025463286E+02 -0.42731690728E+02  0.62500000187E+02  0.10000001027E+02 0.  0.
    3000022    2    3    3    0    0 -0.82713013163E+00  0.34118983190E+01 -0.80915123910E+01  0.88238468212E+01  0.25001111225E+00 0.  0.
    1000022    2    1    0    0    0  0.11360551019E+02 -0.43025463286E+02  0.42731690728E+02  0.62499999813E+02  0.99999986864E+01 0.  0.
    3000022    2    5    5    0    0  0.10011827026E+02 -0.20985673617E+02  0.18613837739E+02  0.29785443147E+02  0.24998107029E+00 0.  0.
        -13    1    4    4    0    0 -0.21246960175E+00  0.86295578442E+00 -0.21293823537E+01  0.23097900827E+01  0.10500000000E+00 0. -1.
         13    1    4    4    0    0 -0.61466052987E+00  0.25489425346E+01 -0.59621300373E+01  0.65140567386E+01  0.10500000000E+00 0.  1.
    3000001    1    5    5    0    0  0.13487239937E+01 -0.22039789669E+02  0.24117852989E+02  0.32714556666E+02  0.10000000000E+01 0. -1.
        -13    1    6    6    0    0  0.36892567844E+01 -0.77180941729E+01  0.67731045618E+01  0.10911716808E+02  0.10500000000E+00 0. -1.
         13    1    6    6    0    0  0.63225702413E+01 -0.13267579444E+02  0.11840733177E+02  0.18873726339E+02  0.10500000000E+00 0.  1.
</event>
<event>
11    0  0.3494755E-009  0.9118800E+02  0.7816531E-02  0.1126479E+00
         25   -1    0    0    0    0  0.00000000000E+00  0.00000000000E+00  0.99999998245E-14  0.12500000000E+03  0.12500000000E+03 0.  0.
    3000001    1    3    3    0    0 -0.27667952237E+02  0.30185882808E+02 -0.23825831839E+01  0.41029011742E+02  0.10000000000E+01 0.  1.
    1000022    2    1    0    0    0 -0.38230360451E+02  0.48385591168E+02  0.18773714169E+01  0.62500005366E+02  0.10000012721E+02 0.  0.
    3000022    2    3    3    0    0 -0.10562408214E+02  0.18199708360E+02  0.42599546008E+01  0.21470993624E+02  0.25000466922E+00 0.  0.
    1000022    2    1    0    0    0  0.38230360451E+02 -0.48385591168E+02 -0.18773714169E+01  0.62499994634E+02  0.99999456483E+01 0.  0.
    3000022    2    5    5    0    0  0.25759829136E+02 -0.37570029635E+02  0.16780003303E+01  0.45584581817E+02  0.24998071176E+00 0.  0.
        -13    1    4    4    0    0 -0.47575573045E+01  0.81581158021E+01  0.18470195040E+01  0.96234978565E+01  0.10500000000E+00 0. -1.
         13    1    4    4    0    0 -0.58048509095E+01  0.10041592558E+02  0.24129350968E+01  0.11847495768E+02  0.10500000000E+00 0.  1.
    3000001    1    5    5    0    0  0.12470531314E+02 -0.10815561533E+02 -0.35553717472E+01  0.16915412818E+02  0.10000000000E+01 0.  1.
        -13    1    6    6    0    0  0.67502480505E+01 -0.98329705029E+01  0.40761653315E+00  0.11934418037E+02  0.10500000000E+00 0. -1.
         13    1    6    6    0    0  0.19009581086E+02 -0.27737059132E+02  0.12703837971E+01  0.33650163779E+02  0.10500000000E+00 0.  1.
</event>
<event>
11    0  0.3494755E-009  0.9118800E+02  0.7816531E-02  0.1126479E+00
         25   -1    0    0    0    0  0.00000000000E+00  0.00000000000E+00  0.99999998245E-14  0.12500000000E+03  0.12500000000E+03 0.  0.
    3000001    1    3    3    0    0  0.20143001797E+02  0.13702056814E+01 -0.25848667583E+02  0.32814198159E+02  0.10000000000E+01 0.  1.
    1000022    2    1    0    0    0  0.33354829627E+02  0.10414690977E+02 -0.50845250983E+02  0.62499999304E+02  0.99999958923E+01 0.  0.
    3000022    2    3    3    0    0  0.13211827830E+02  0.90444852954E+01 -0.24996583400E+02  0.29685801145E+02  0.24999811935E+00 0.  0.
    1000022    2    1    0    0    0 -0.33354829627E+02 -0.10414690977E+02  0.50845250983E+02  0.62500000696E+02  0.10000004596E+02 0.  0.
    3000022    2    5    5    0    0 -0.54428038595E+01 -0.51661031770E+01  0.70969884353E+01  0.10331625867E+02  0.25002464746E+00 0.  0.
        -13    1    4    4    0    0  0.65986392246E+01  0.44882673763E+01 -0.12576611878E+02  0.14895260152E+02  0.10500000000E+00 0. -1.
         13    1    4    4    0    0  0.66131886056E+01  0.45562179191E+01 -0.12419971522E+02  0.14790540993E+02  0.10500000000E+00 0.  1.
    3000001    1    5    5    0    0 -0.27912025768E+02 -0.52485877998E+01  0.43748262548E+02  0.52168374829E+02  0.10000000000E+01 0. -1.
        -13    1    6    6    0    0 -0.18096965535E+01 -0.17733654681E+01  0.23471209499E+01  0.34554056856E+01  0.10500000000E+00 0. -1.
         13    1    6    6    0    0 -0.36331073060E+01 -0.33927377089E+01  0.47498674854E+01  0.68762201817E+01  0.10500000000E+00 0.  1.
</event>
<event>
11    0  0.3494755E-009  0.9118800E+02  0.7816531E-02  0.1126479E+00
         25   -1    0    0    0    0  0.00000000000E+00  0.00000000000E+00  0.99999998245E-14  0.12500000000E+03  0.12500000000E+03 0.  0.
    3000001    1    3    3    0    0  0.29359191892E+02 -0.19940883977E+02  0.22781466959E+02  0.42185260923E+02  0.10000000000E+01 0. -1.
    1000022    2    1    0    0    0  0.38716939187E+02 -0.34483161415E+02  0.33438898793E+02  0.62499999898E+02  0.10000011677E+02 0.  0.
    3000022    2    3    3    0    0  0.93577472948E+01 -0.14542277438E+02  0.10657431834E+02  0.20314738975E+02  0.24999758350E+00 0.  0.
    1000022    2    1    0    0    0 -0.38716939187E+02  0.34483161415E+02 -0.33438898793E+02  0.62500000102E+02  0.10000012954E+02 0.  0.
    3000022    2    5    5    0    0 -0.16061463295E+02  0.20755945490E+02 -0.17967615659E+02  0.31806879590E+02  0.25000087615E+00 0.  0.
        -13    1    4    4    0    0  0.70305707152E+01 -0.10943767854E+02  0.79887453788E+01  0.15265191029E+02  0.10500000000E+00 0. -1.
         13    1    4    4    0    0  0.23271765797E+01 -0.35985095834E+01  0.26686864555E+01  0.50495479454E+01  0.10500000000E+00 0.  1.
    3000001    1    5    5    0    0 -0.22655475892E+02  0.13727215925E+02 -0.15471283134E+02  0.30693120512E+02  0.10000000000E+01 0.  1.
        -13    1    6    6    0    0 -0.73140950974E+01  0.93523923570E+01 -0.81615604708E+01  0.14407821633E+02  0.10500000000E+00 0. -1.
         13    1    6    6    0    0 -0.87473681981E+01  0.11403553133E+02 -0.98060551881E+01  0.17399057957E+02  0.10500000000E+00 0.  1.
</event>
<event>
11    0  0.3494755E-009  0.9118800E+02  0.7816531E-02  0.1126479E+00
         25   -1    0    0    0    0  0.00000000000E+00  0.00000000000E+00  0.99999998245E-14  0.12500000000E+03  0.12500000000E+03 0.  0.
    3000001    1    3    3    0    0  0.80252286581E+00  0.47496747592E+01  0.84413512696E+01  0.97703564175E+01  0.10000000000E+01 0.  1.
    1000022    2    1    0    0    0  0.15733306886E+01  0.47270432238E+02  0.39614153839E+02  0.62499998234E+02  0.99999730684E+01 0.  0.
    3000022    2    3    3    0    0  0.77080782281E+00  0.42520757479E+02  0.31172802569E+02  0.52729641816E+02  0.25008943598E+00 0.  0.
    1000022    2    1    0    0    0 -0.15733306886E+01 -0.47270432238E+02 -0.39614153839E+02  0.62500001766E+02  0.99999951474E+01 0.  0.
    3000022    2    5    5    0    0  0.29663780739E+01 -0.13988956483E+02 -0.15806576559E+02  0.21316676014E+02  0.25002279595E+00 0.  0.
        -13    1    4    4    0    0  0.37334480868E+00  0.24120612366E+02  0.17662949676E+02  0.29898731470E+02  0.10500000000E+00 0.  1.
         13    1    4    4    0    0  0.39746301413E+00  0.18400145113E+02  0.13509852894E+02  0.22830910347E+02  0.10500000000E+00 0. -1.
    3000001    1    5    5    0    0 -0.45397087625E+01 -0.33281475755E+02 -0.23807577280E+02  0.41183325753E+02  0.10000000000E+01 0.  1.
        -13    1    6    6    0    0  0.20780127946E+01 -0.96178711974E+01 -0.10829020123E+02  0.14632166120E+02  0.10500000000E+00 0. -1.
         13    1    6    6    0    0  0.88836527921E+00 -0.43710852858E+01 -0.49775564357E+01  0.66845098935E+01  0.10500000000E+00 0.  1.
</event>
<event>
11    0  0.3494755E-009  0.9118800E+02  0.7816531E-02  0.1126479E+00
         25   -1    0    0    0    0  0.00000000000E+00  0.00000000000E+00  0.99999998245E-14  0.12500000000E+03  0.12500000000E+03 0.  0.
    3000001    1    3    3    0    0  0.47550715714E+02 -0.12000806323E+02 -0.36006156839E+01  0.49183883038E+02  0.10000000000E+01 0. -1.
    1000022    2    1    0    0    0  0.58792229379E+02 -0.16175636461E+02 -0.93847017204E+01  0.62500000558E+02  0.99999996603E+01 0.  0.
    3000022    2    3    3    0    0  0.11241513664E+02 -0.41748301382E+01 -0.57840860364E+01  0.13316117521E+02  0.24999681796E+00 0.  0.
    1000022    2    1    0    0    0 -0.58792229379E+02  0.16175636461E+02  0.93847017204E+01  0.62499999442E+02  0.99999926802E+01 0.  0.
    3000022    2    5    5    0    0 -0.12676324124E+02 -0.52789114657E+00  0.98303696420E+00  0.12727793114E+02  0.24998707301E+00 0.  0.
        -13    1    4    4    0    0  0.83060828298E+01 -0.30504328123E+01 -0.42609256281E+01  0.98215408427E+01  0.10500000000E+00 0.  1.
         13    1    4    4    0    0  0.29354308344E+01 -0.11243973259E+01 -0.15231604083E+01  0.34945766781E+01  0.10500000000E+00 0. -1.
    3000001    1    5    5    0    0 -0.46115905255E+02  0.16703527607E+02  0.84016647562E+01  0.49772206327E+02  0.10000000000E+01 0. -1.
        -13    1    6    6    0    0 -0.41445004963E+01 -0.21396999803E+00  0.28954538002E+00  0.41614335332E+01  0.10500000000E+00 0. -1.
         13    1    6    6    0    0 -0.85318236274E+01 -0.31392114854E+00  0.69349158418E+00  0.85663595812E+01  0.10500000000E+00 0.  1.
</event>
<event>
11    0  0.3494755E-009  0.9118800E+02  0.7816531E-02  0.1126479E+00
         25   -1    0    0    0    0  0.00000000000E+00  0.00000000000E+00  0.99999998245E-14  0.12500000000E+03  0.12500000000E+03 0.  0.
    3000001    1    3    3    0    0 -0.66790056463E+01  0.16128114603E+02  0.24425138631E+01  0.17654774738E+02  0.10000000000E+01 0.  1.
    1000022    2    1    0    0    0 -0.34794222989E+02  0.48528930426E+02  0.15509803241E+02  0.62500007161E+02  0.10000092842E+02 0.  0.
    3000022    2    3    3    0    0 -0.28115217343E+02  0.32400815823E+02  0.13067289378E+02  0.44845232423E+02  0.25001435932E+00 0.  0.
    1000022    2    1    0    0    0  0.34794222989E+02 -0.48528930426E+02 -0.15509803241E+02  0.62499992839E+02  0.10000003332E+02 0.  0.
    3000022    2    5    5    0    0  0.20418840757E+02 -0.31177968522E+02 -0.14279490691E+02  0.39911917174E+02  0.24999808839E+00 0.  0.
        -13    1    4    4    0    0 -0.82258709015E+01  0.94161346571E+01  0.38212698250E+01  0.13074466415E+02  0.10500000000E+00 0.  1.
         13    1    4    4    0    0 -0.19889346442E+02  0.22984681166E+02  0.92460195526E+01  0.31770766008E+02  0.10500000000E+00 0. -1.
    3000001    1    5    5    0    0  0.14375382232E+02 -0.17350961903E+02 -0.12303125494E+01  0.22588075665E+02  0.10000000000E+01 0.  1.
        -13    1    6    6    0    0  0.97228446540E+01 -0.14963215390E+02 -0.68597389204E+01  0.19118016791E+02  0.10500000000E+00 0.  1.
         13    1    6    6    0    0  0.10695996103E+02 -0.16214753132E+02 -0.74197517709E+01  0.20793900383E+02  0.10500000000E+00 0. -1.
</event>
<event>
11    0  0.3494755E-009  0.9118800E+02  0.7816531E-02  0.1126479E+00
         25   -1    0    0    0    0  0.00000000000E+00  0.00000000000E+00  0.99999998245E-14  0.12500000000E+03  0.12500000000E+03 0.  0.
    3000001    1    3    3    0    0  0.39668585440E+01 -0.76514253920E+01 -0.27404661891E+01  0.90989247810E+01  0.10000000000E+01 0.  1.
    1000022    2    1    0    0    0  0.78440583554E+01 -0.52255299892E+02 -0.31845004340E+02  0.62500001004E+02  0.10000010290E+02 0.  0.
    3000022    2    3    3    0    0  0.38771998114E+01 -0.44603874500E+02 -0.29104538150E+02  0.53401076223E+02  0.25000399896E+00 0.  0.
    1000022    2    1    0    0    0 -0.78440583554E+01  0.52255299892E+02  0.31845004340E+02  0.62499998996E+02  0.99999977455E+01 0.  0.
    3000022    2    5    5    0    0 -0.33497792849E+01  0.45375231439E+02  0.27062047955E+02  0.52939112111E+02  0.25000415412E+00 0.  0.
        -13    1    4    4    0    0  0.29257492757E+01 -0.33654394676E+02 -0.21987679389E+02  0.40306914540E+02  0.10500000000E+00 0. -1.
         13    1    4    4    0    0  0.95145053564E+00 -0.10949479823E+02 -0.71168587615E+01  0.13094161682E+02  0.10500000000E+00 0.  1.
    3000001    1    5    5    0    0 -0.44942790704E+01  0.68800684524E+01  0.47829563841E+01  0.95608868859E+01  0.10000000000E+01 0. -1.
        -13    1    6    6    0    0 -0.17936072178E+01  0.23393666479E+02  0.13939652947E+02  0.27291126900E+02  0.10500000000E+00 0. -1.
         13    1    6    6    0    0 -0.15561720671E+01  0.21981564960E+02  0.13122395009E+02  0.25647985210E+02  0.10500000000E+00 0.  1.
</event>
<event>
11    0  0.3494755E-009  0.9118800E+02  0.7816531E-02  0.1126479E+00
         25   -1    0    0    0    0  0.00000000000E+00  0.00000000000E+00  0.99999998245E-14  0.12500000000E+03  0.12500000000E+03 0.  0.
    3000001    1    3    3    0    0 -0.80372586590E+01  0.32104586365E+01 -0.30797684706E+02  0.32006279926E+02  0.10000000000E+01 0. -1.
    1000022    2    1    0    0    0 -0.23390785416E+02  0.10496036343E+02 -0.56115544316E+02  0.62499999789E+02  0.10000001928E+02 0.  0.
    3000022    2    3    3    0    0 -0.15353526757E+02  0.72855777065E+01 -0.25317859609E+02  0.30493719864E+02  0.25001910161E+00 0.  0.
    1000022    2    1    0    0    0  0.23390785416E+02 -0.10496036343E+02  0.56115544316E+02  0.62500000211E+02  0.10000004561E+02 0.  0.
    3000022    2    5    5    0    0  0.21779843061E+01 -0.38683628903E+01  0.46584352873E+01  0.64398266837E+01  0.25000260444E+00 0.  0.
        -13    1    4    4    0    0 -0.74975890781E+01  0.36321326569E+01 -0.12394724836E+02  0.14934739984E+02  0.10500000000E+00 0.  1.
         13    1    4    4    0    0 -0.78559376784E+01  0.36534450496E+01 -0.12923134773E+02  0.15558979880E+02  0.10500000000E+00 0. -1.
    3000001    1    5    5    0    0  0.21212801109E+02 -0.66276734527E+01  0.51457109028E+02  0.56060173527E+02  0.10000000000E+01 0. -1.
        -13    1    6    6    0    0  0.69400179656E+00 -0.13377813748E+01  0.15565975387E+01  0.21691745891E+01  0.10500000000E+00 0.  1.
         13    1    6    6    0    0  0.14839825096E+01 -0.25305815155E+01  0.31018377486E+01  0.42706520947E+01  0.10500000000E+00 0. -1.
</event>
<event>
11    0  0.3494755E-009  0.9118800E+02  0.7816531E-02  0.1126479E+00
         25   -1    0    0    0    0  0.00000000000E+00  0.00000000000E+00  0.99999998245E-14  0.12500000000E+03  0.12500000000E+03 0.  0.
    3000001    1    3    3    0    0 -0.23749324690E+01  0.24537432132E+02 -0.17664507632E+02  0.30344039114E+02  0.10000000000E+01 0. -1.
    1000022    2    1    0    0    0  0.52164121637E+01  0.49351121386E+02 -0.36653864118E+02  0.62500000396E+02  0.10000007838E+02 0.  0.
    3000022    2    3    3    0    0  0.75913446327E+01  0.24813689254E+02 -0.18989356486E+02  0.32155961282E+02  0.24999695208E+00 0.  0.
    1000022    2    1    0    0    0 -0.52164121637E+01 -0.49351121386E+02  0.36653864118E+02  0.62499999604E+02  0.10000002889E+02 0.  0.
    3000022    2    5    5    0    0 -0.48173232132E+01 -0.44997293731E+02  0.29383420870E+02  0.53957492228E+02  0.24999893756E+00 0.  0.
        -13    1    4    4    0    0  0.37905392634E+01  0.12333252658E+02 -0.93606138784E+01  0.15940810087E+02  0.10500000000E+00 0. -1.
         13    1    4    4    0    0  0.38008053693E+01  0.12480436596E+02 -0.96287426075E+01  0.16215151195E+02  0.10500000000E+00 0. -1.
    3000001    1    5    5    0    0 -0.39908895056E+00 -0.43538276548E+01  0.72704432482E+01  0.85425073757E+01  0.10000000000E+01 0.  1.
        -13    1    6    6    0    0 -0.27793908126E+01 -0.25356676905E+02  0.16579336360E+02  0.30423206539E+02  0.10500000000E+00 0. -1.
         13    1    6    6    0    0 -0.20379324005E+01 -0.19640616826E+02  0.12804084510E+02  0.23534285690E+02  0.10500000000E+00 0.  1.
</event>
<event>
11    0  0.3494755E-009  0.9118800E+02  0.7816531E-02  0.1126479E+00
         25   -1    0    0    0    0  0.00000000000E+00  0.00000000000E+00  0.99999998245E-14  0.12500000000E+03  0.12500000000E+03 0.  0.
    3000001    1    3    3    0    0  0.10575117215E+02 -0.35274966715E+02  0.46804637448E+02  0.59563667344E+02  0.10000000000E+01 0. -1.
    1000022    2    1    0    0    0  0.12563688969E+02 -0.37302751815E+02  0.47506930547E+02  0.62500000227E+02  0.10000000241E+02 0.  0.
    3000022    2    3    3    0    0  0.19885717540E+01 -0.20277851005E+01  0.70229309907E+00  0.29363328824E+01  0.25001032963E+00 0.  0.
    1000022    2    1    0    0    0 -0.12563688969E+02  0.37302751815E+02 -0.47506930547E+02  0.62499999773E+02  0.99999974079E+01 0.  0.
    3000022    2    5    5    0    0 -0.23357674204E+00 -0.37060710795E+00  0.12857950415E+00  0.52052367091E+00  0.25000896025E+00 0.  0.
        -13    1    4    4    0    0  0.10099028061E+01 -0.10976128575E+01  0.31900176643E+00  0.15288704294E+01  0.10500000000E+00 0. -1.
         13    1    4    4    0    0  0.97866894790E+00 -0.93017224294E+00  0.38329133264E+00  0.14074624531E+01  0.10500000000E+00 0.  1.
    3000001    1    5    5    0    0 -0.12330112227E+02  0.37673358923E+02 -0.47635510051E+02  0.61979476102E+02  0.10000000000E+01 0. -1.
        -13    1    6    6    0    0 -0.10027255697E+00 -0.75483585874E-01  0.33027461721E-01  0.16693762502E+00  0.10500000000E+00 0.  1.
         13    1    6    6    0    0 -0.13330418507E+00 -0.29512352208E+00  0.95552042432E-01  0.35358604590E+00  0.10500000000E+00 0. -1.
</event>
<event>
11    0  0.3494755E-009  0.9118800E+02  0.7816531E-02  0.1126479E+00
         25   -1    0    0    0    0  0.00000000000E+00  0.00000000000E+00  0.99999998245E-14  0.12500000000E+03  0.12500000000E+03 0.  0.
    3000001    1    3    3    0    0 -0.15183035916E+02  0.16628277109E+02 -0.10656151464E+02  0.24931460913E+02  0.10000000000E+01 0. -1.
    1000022    2    1    0    0    0 -0.45480000118E+02  0.37569221287E+02 -0.18065814677E+02  0.62499995443E+02  0.99999485801E+01 0.  0.
    3000022    2    3    3    0    0 -0.30296964202E+02  0.20940944179E+02 -0.74096632122E+01  0.37568534530E+02  0.24998974950E+00 0.  0.
    1000022    2    1    0    0    0  0.45480000118E+02 -0.37569221287E+02  0.18065814677E+02  0.62500004557E+02  0.10000005539E+02 0.  0.
    3000022    2    5    5    0    0  0.10076526827E+02 -0.58395338840E+01  0.48150273453E-01  0.11649092920E+02  0.24999704437E+00 0.  0.
        -13    1    4    4    0    0 -0.21196708051E+02  0.14615729555E+02 -0.52164696024E+01  0.26270564568E+02  0.10500000000E+00 0. -1.
         13    1    4    4    0    0 -0.91002561510E+01  0.63252146242E+01 -0.21931936098E+01  0.11297969962E+02  0.10500000000E+00 0.  1.
    3000001    1    5    5    0    0  0.35403473291E+02 -0.31729687403E+02  0.18017664403E+02  0.50850911637E+02  0.10000000000E+01 0.  1.
        -13    1    6    6    0    0  0.46698264708E+01 -0.26659634845E+01 -0.35153076888E-01  0.53783734815E+01  0.10500000000E+00 0. -1.
         13    1    6    6    0    0  0.54067003564E+01 -0.31735703994E+01  0.83303350341E-01  0.62707194382E+01  0.10500000000E+00 0.  1.
</event>
<event>
11    0  0.3494755E-009  0.9118800E+02  0.7816531E-02  0.1126479E+00
         25   -1    0    0    0    0  0.00000000000E+00  0.00000000000E+00  0.99999998245E-14  0.12500000000E+03  0.12500000000E+03 0.  0.
    3000001    1    3    3    0    0  0.37893562347E+02 -0.37105132074E+02 -0.18542061681E+02  0.56191822758E+02  0.10000000000E+01 0. -1.
    1000022    2    1    0    0    0  0.42910340206E+02 -0.38409515390E+02 -0.22128303942E+02  0.62500000226E+02  0.10000001192E+02 0.  0.
    3000022    2    3    3    0    0  0.50167778592E+01 -0.13043833163E+01 -0.35862422608E+01  0.63081774678E+01  0.24998697383E+00 0.  0.
    1000022    2    1    0    0    0 -0.42910340206E+02  0.38409515390E+02  0.22128303942E+02  0.62499999774E+02  0.99999983663E+01 0.  0.
    3000022    2    5    5    0    0 -0.40837269769E+02  0.32769990793E+02  0.19817330010E+02  0.55985212039E+02  0.24999918444E+00 0.  0.
        -13    1    4    4    0    0  0.14010838468E+01 -0.39993037122E+00 -0.10344553393E+01  0.17900008650E+01  0.10500000000E+00 0. -1.
         13    1    4    4    0    0  0.36156940124E+01 -0.90445294507E+00 -0.25517869214E+01  0.45181766027E+01  0.10500000000E+00 0.  1.
    3000001    1    5    5    0    0 -0.20730704370E+01  0.56395245968E+01  0.23109739318E+01  0.65147877347E+01  0.10000000000E+01 0.  1.
        -13    1    6    6    0    0 -0.10365787922E+02  0.83543036555E+01  0.50444900030E+01  0.14237340103E+02  0.10500000000E+00 0. -1.
         13    1    6    6    0    0 -0.30471481847E+02  0.24415687138E+02  0.14772840007E+02  0.41747871937E+02  0.10500000000E+00 0.  1.
</event>
<event>
11    0  0.3494755E-009  0.9118800E+02  0.7816531E-02  0.1126479E+00
         25   -1    0    0    0    0  0.00000000000E+00  0.00000000000E+00  0.99999998245E-14  0.12500000000E+03  0.12500000000E+03 0.  0.
    3000001    1    3    3    0    0  0.21312350802E+02  0.35042426268E+02 -0.30576735607E+02  0.51167613740E+02  0.10000000000E+01 0. -1.
    1000022    2    1    0    0    0  0.27043013121E+02  0.44481718406E+02 -0.33110453250E+02  0.62499998790E+02  0.99999951684E+01 0.  0.
    3000022    2    3    3    0    0  0.57306623181E+01  0.94392921379E+01 -0.25337176433E+01  0.11332385050E+02  0.24999832357E+00 0.  0.
    1000022    2    1    0    0    0 -0.27043013121E+02 -0.44481718406E+02  0.33110453250E+02  0.62500001210E+02  0.10000010295E+02 0.  0.
    3000022    2    5    5    0    0 -0.11709299873E+02 -0.12003010136E+02  0.74681270829E+01  0.18357978782E+02  0.25001397470E+00 0.  0.
        -13    1    4    4    0    0  0.35322258600E+01  0.58708213589E+01 -0.16275774990E+01  0.70429536751E+01  0.10500000000E+00 0. -1.
         13    1    4    4    0    0  0.21984364581E+01  0.35684707789E+01 -0.90614014434E+00  0.42894313751E+01  0.10500000000E+00 0.  1.
    3000001    1    5    5    0    0 -0.15333713248E+02 -0.32478708269E+02  0.25642326167E+02  0.44142022428E+02  0.10000000000E+01 0. -1.
        -13    1    6    6    0    0 -0.35483840489E+01 -0.35716449859E+01  0.22420451878E+01  0.55123015963E+01  0.10500000000E+00 0.  1.
         13    1    6    6    0    0 -0.81609158237E+01 -0.84313651503E+01  0.52260818950E+01  0.12845677185E+02  0.10500000000E+00 0. -1.
</event>
<event>
11    0  0.3494755E-009  0.9118800E+02  0.7816531E-02  0.1126479E+00
         25   -1    0    0    0    0  0.00000000000E+00  0.00000000000E+00  0.99999998245E-14  0.12500000000E+03  0.12500000000E+03 0.  0.
    3000001    1    3    3    0    0  0.32423110847E+01 -0.23914025314E+02  0.36253908507E+02  0.43563047069E+02  0.10000000000E+01 0.  1.
    1000022    2    1    0    0    0 -0.62712578255E+00 -0.37067025675E+02  0.49314218138E+02  0.62499998849E+02  0.10000003320E+02 0.  0.
    3000022    2    3    3    0    0 -0.38694368672E+01 -0.13153000362E+02  0.13060309631E+02  0.18936951781E+02  0.24998978313E+00 0.  0.
    1000022    2    1    0    0    0  0.62712578255E+00  0.37067025675E+02 -0.49314218138E+02  0.62500001151E+02  0.10000017707E+02 0.  0.
    3000022    2    5    5    0    0 -0.68238192174E+00  0.32191867337E+02 -0.36400897617E+02  0.48599072184E+02  0.25000429588E+00 0.  0.
        -13    1    4    4    0    0 -0.16205609590E+01 -0.54735406747E+01  0.55261384512E+01  0.79457596566E+01  0.10500000000E+00 0. -1.
         13    1    4    4    0    0 -0.22488759083E+01 -0.76794596871E+01  0.75341711799E+01  0.10991192124E+02  0.10500000000E+00 0.  1.
    3000001    1    5    5    0    0  0.13095077043E+01  0.48751583387E+01 -0.12913320521E+02  0.13900928967E+02  0.10000000000E+01 0.  1.
        -13    1    6    6    0    0 -0.49756612689E+00  0.23262259934E+02 -0.26245250254E+02  0.35074271128E+02  0.10500000000E+00 0.  1.
         13    1    6    6    0    0 -0.18481579486E+00  0.89296074030E+01 -0.10155647363E+02  0.13524801056E+02  0.10500000000E+00 0. -1.
</event>
<event>
11    0  0.3494755E-009  0.9118800E+02  0.7816531E-02  0.1126479E+00
         25   -1    0    0    0    0  0.00000000000E+00  0.00000000000E+00  0.99999998245E-14  0.12500000000E+03  0.12500000000E+03 0.  0.
    3000001    1    3    3    0    0  0.11306926017E+02  0.10296834974E+02  0.62349937742E+01  0.16545287359E+02  0.10000000000E+01 0.  1.
    1000022    2    1    0    0    0  0.40915986487E+02  0.28685733099E+02  0.36183704665E+02  0.62500001447E+02  0.10000023194E+02 0.  0.
    3000022    2    3    3    0    0  0.29609060471E+02  0.18388898126E+02  0.29948710891E+02  0.45954714088E+02  0.24985325995E+00 0.  0.
    1000022    2    1    0    0    0 -0.40915986487E+02 -0.28685733099E+02 -0.36183704665E+02  0.62499998553E+02  0.10000005112E+02 0.  0.
    3000022    2    5    5    0    0 -0.23487797731E+02 -0.10435796124E+02 -0.17917155151E+02  0.31331604401E+02  0.25000524328E+00 0.  0.
        -13    1    4    4    0    0  0.18282287322E+02  0.11284128026E+02  0.18477651258E+02  0.28337399246E+02  0.10500000000E+00 0. -1.
         13    1    4    4    0    0  0.11326773149E+02  0.71047700996E+01  0.11471059633E+02  0.17617314842E+02  0.10500000000E+00 0.  1.
    3000001    1    5    5    0    0 -0.17428188756E+02 -0.18249936975E+02 -0.18266549514E+02  0.31168394153E+02  0.10000000000E+01 0. -1.
        -13    1    6    6    0    0 -0.10883494219E+02 -0.47869814279E+01 -0.82271233957E+01  0.14458984127E+02  0.10500000000E+00 0. -1.
         13    1    6    6    0    0 -0.12604303512E+02 -0.56488146965E+01 -0.96900317553E+01  0.16872620274E+02  0.10500000000E+00 0.  1.
</event>
<event>
11    0  0.3494755E-009  0.9118800E+02  0.7816531E-02  0.1126479E+00
         25   -1    0    0    0    0  0.00000000000E+00  0.00000000000E+00  0.99999998245E-14  0.12500000000E+03  0.12500000000E+03 0.  0.
    3000001    1    3    3    0    0 -0.24239231700E+02  0.20088777826E+02 -0.29098087746E+02  0.42881208686E+02  0.10000000000E+01 0.  1.
    1000022    2    1    0    0    0 -0.30042631079E+02  0.27695665867E+02 -0.46223807893E+02  0.62500000007E+02  0.99999997346E+01 0.  0.
    3000022    2    3    3    0    0 -0.58033993789E+01  0.76068880414E+01 -0.17125720148E+02  0.19618791320E+02  0.24998453721E+00 0.  0.
    1000022    2    1    0    0    0  0.30042631079E+02 -0.27695665867E+02  0.46223807893E+02  0.62499999993E+02  0.99999996513E+01 0.  0.
    3000022    2    5    5    0    0  0.14105210136E+02 -0.10539525311E+02  0.26758525460E+02  0.32033103773E+02  0.25001156006E+00 0.  0.
        -13    1    4    4    0    0 -0.21448460075E+01  0.28699081881E+01 -0.63147002700E+01  0.72610744318E+01  0.10500000000E+00 0.  1.
         13    1    4    4    0    0 -0.36585533714E+01  0.47369798533E+01 -0.10811019878E+02  0.12357716889E+02  0.10500000000E+00 0. -1.
    3000001    1    5    5    0    0  0.15937420942E+02 -0.17156140556E+02  0.19465282434E+02  0.30466896220E+02  0.10000000000E+01 0. -1.
        -13    1    6    6    0    0  0.68267212555E+01 -0.51495603769E+01  0.12894156508E+02  0.15472310500E+02  0.10500000000E+00 0.  1.
         13    1    6    6    0    0  0.72784888810E+01 -0.53899649343E+01  0.13864368952E+02  0.16560793273E+02  0.10500000000E+00 0. -1.
</event>
<event>
11    0  0.3494755E-009  0.9118800E+02  0.7816531E-02  0.1126479E+00
         25   -1    0    0    0    0  0.00000000000E+00  0.00000000000E+00  0.99999998245E-14  0.12500000000E+03  0.12500000000E+03 0.  0.
    3000001    1    3    3    0    0  0.17234374517E+01  0.50883322429E+02 -0.15784664134E+02  0.53312647279E+02  0.10000000000E+01 0. -1.
    1000022    2    1    0    0    0  0.28109720568E+01  0.57580058481E+02 -0.21974649995E+02  0.62499998935E+02  0.99999962955E+01 0.  0.
    3000022    2    3    3    0    0  0.10875346050E+01  0.66967360525E+01 -0.61899858605E+01  0.91873516565E+01  0.25000046693E+00 0.  0.
    1000022    2    1    0    0    0 -0.28109720568E+01 -0.57580058481E+02  0.21974649995E+02  0.62500001065E+02  0.10000009606E+02 0.  0.
    3000022    2    5    5    0    0  0.12055068290E+01 -0.46658861319E+02  0.15718844472E+02  0.49250859476E+02  0.25000261421E+00 0.  0.
        -13    1    4    4    0    0  0.76920091331E+00  0.47556425721E+01 -0.43355700281E+01  0.64819749141E+01  0.10500000000E+00 0.  1.
         13    1    4    4    0    0  0.31833369171E+00  0.19410934804E+01 -0.18544158324E+01  0.27053767424E+01  0.10500000000E+00 0. -1.
    3000001    1    5    5    0    0 -0.40164788858E+01 -0.10921197162E+02  0.62558055233E+01  0.13249141589E+02  0.10000000000E+01 0. -1.
        -13    1    6    6    0    0  0.83663720214E+00 -0.30363478769E+02  0.10206824571E+02  0.32044205367E+02  0.10500000000E+00 0.  1.
         13    1    6    6    0    0  0.36886962690E+00 -0.16295382550E+02  0.55120199004E+01  0.17206654109E+02  0.10500000000E+00 0. -1.
</event>
<event>
11    0  0.3494755E-009  0.9118800E+02  0.7816531E-02  0.1126479E+00
         25   -1    0    0    0    0  0.00000000000E+00  0.00000000000E+00  0.99999998245E-14  0.12500000000E+03  0.12500000000E+03 0.  0.
    3000001    1    3    3    0    0 -0.52701613306E+00 -0.58564236560E+01  0.14137128914E+02  0.15343854078E+02  0.10000000000E+01 0. -1.
    1000022    2    1    0    0    0 -0.20171360341E+01 -0.70894573860E+01  0.61252927175E+02  0.62499996281E+02  0.99999601908E+01 0.  0.
    3000022    2    3    3    0    0 -0.14901199010E+01 -0.12330337300E+01  0.47115798261E+02  0.47156142203E+02  0.24994435554E+00 0.  0.
    1000022    2    1    0    0    0  0.20171360341E+01  0.70894573860E+01 -0.61252927175E+02  0.62500003719E+02  0.10000006683E+02 0.  0.
    3000022    2    5    5    0    0 -0.11665085791E+00  0.62263938724E+01 -0.58267658966E+02  0.58600035590E+02  0.25000351186E+00 0.  0.
        -13    1    4    4    0    0 -0.86497634052E+00 -0.73236849176E+00  0.26016659504E+02  0.26041546506E+02  0.10500000000E+00 0. -1.
         13    1    4    4    0    0 -0.62514356050E+00 -0.50066523821E+00  0.21099138757E+02  0.21114595696E+02  0.10500000000E+00 0.  1.
    3000001    1    5    5    0    0  0.21337868920E+01  0.86306351354E+00 -0.29852682088E+01  0.38999681290E+01  0.10000000000E+01 0.  1.
        -13    1    6    6    0    0 -0.17770051121E-01  0.18247883900E+01 -0.17476034957E+02  0.17571368508E+02  0.10500000000E+00 0.  1.
         13    1    6    6    0    0 -0.98880806791E-01  0.44016054824E+01 -0.40791624009E+02  0.41028667082E+02  0.10500000000E+00 0. -1.
</event>
<event>
11    0  0.3494755E-009  0.9118800E+02  0.7816531E-02  0.1126479E+00
         25   -1    0    0    0    0  0.00000000000E+00  0.00000000000E+00  0.99999998245E-14  0.12500000000E+03  0.12500000000E+03 0.  0.
    3000001    1    3    3    0    0  0.24640917211E+01  0.15953725278E+01  0.21359557964E+01  0.37655369705E+01  0.10000000000E+01 0.  1.
    1000022    2    1    0    0    0  0.24034333834E+02  0.27787610008E+01  0.56752792008E+02  0.62499999181E+02  0.99999890725E+01 0.  0.
    3000022    2    3    3    0    0  0.21570242113E+02  0.11833884730E+01  0.54616836211E+02  0.58734462211E+02  0.25000073183E+00 0.  0.
    1000022    2    1    0    0    0 -0.24034333834E+02 -0.27787610008E+01 -0.56752792008E+02  0.62500000819E+02  0.99999993084E+01 0.  0.
    3000022    2    5    5    0    0 -0.23183041002E+02 -0.47971624661E+01 -0.52903562333E+02  0.57959602923E+02  0.25001141486E+00 0.  0.
        -13    1    4    4    0    0  0.16172495321E+02  0.86542732421E+00  0.40903551431E+02  0.43993296240E+02  0.10500000000E+00 0. -1.
         13    1    4    4    0    0  0.53977467914E+01  0.31796114876E+00  0.13713284780E+02  0.14741165971E+02  0.10500000000E+00 0.  1.
    3000001    1    5    5    0    0 -0.85129283208E+00  0.20184014654E+01 -0.38492296750E+01  0.45403978958E+01  0.10000000000E+01 0.  1.
        -13    1    6    6    0    0 -0.12270242274E+02 -0.24702416055E+01 -0.27960493183E+02  0.30634313165E+02  0.10500000000E+00 0.  1.
         13    1    6    6    0    0 -0.10912798728E+02 -0.23269208606E+01 -0.24943069150E+02  0.27325289758E+02  0.10500000000E+00 0. -1.
</event>
<event>
11    0  0.3494755E-009  0.9118800E+02  0.7816531E-02  0.1126479E+00
         25   -1    0    0    0    0  0.00000000000E+00  0.00000000000E+00  0.99999998245E-14  0.12500000000E+03  0.12500000000E+03 0.  0.
    3000001    1    3    3    0    0 -0.10288274231E+02 -0.41892636153E+02  0.77119245202E+01  0.43832811116E+02  0.10000000000E+01 0. -1.
    1000022    2    1    0    0    0 -0.20467703615E+02 -0.56983589508E+02  0.11840336213E+02  0.62499999925E+02  0.10000003225E+02 0.  0.
    3000022    2    3    3    0    0 -0.10179429384E+02 -0.15090953355E+02  0.41284116925E+01  0.18667188809E+02  0.24999838374E+00 0.  0.
    1000022    2    1    0    0    0  0.20467703615E+02  0.56983589508E+02 -0.11840336213E+02  0.62500000075E+02  0.10000004162E+02 0.  0.
    3000022    2    5    5    0    0  0.53428665421E+01  0.12243514409E+02  0.14198593783E+01  0.13436084582E+02  0.25000055409E+00 0.  0.
        -13    1    4    4    0    0 -0.40163308304E+01 -0.58963584269E+01  0.15636000850E+01  0.73043703537E+01  0.10500000000E+00 0. -1.
         13    1    4    4    0    0 -0.61630985534E+01 -0.91945949283E+01  0.25648116076E+01  0.11362818456E+02  0.10500000000E+00 0.  1.
    3000001    1    5    5    0    0  0.15124837073E+02  0.44740075100E+02 -0.13260195591E+02  0.49063915493E+02  0.10000000000E+01 0. -1.
        -13    1    6    6    0    0  0.21528007530E+01  0.48458334342E+01  0.51125541577E+00  0.53281384980E+01  0.10500000000E+00 0. -1.
         13    1    6    6    0    0  0.31900657892E+01  0.73976809744E+01  0.90860396258E+00  0.81079460839E+01  0.10500000000E+00 0.  1.
</event>
<event>
11    0  0.3494755E-009  0.9118800E+02  0.7816531E-02  0.1126479E+00
         25   -1    0    0    0    0  0.00000000000E+00  0.00000000000E+00  0.99999998245E-14  0.12500000000E+03  0.12500000000E+03 0.  0.
    3000001    1    3    3    0    0  0.21919015513E+02  0.72469816569E+00 -0.12988478551E+02  0.25508214433E+02  0.10000000000E+01 0. -1.
    1000022    2    1    0    0    0  0.58014756874E+02 -0.50692739480E+00 -0.20982883396E+02  0.62500003460E+02  0.10000002321E+02 0.  0.
    3000022    2    3    3    0    0  0.36095741361E+02 -0.12316255605E+01 -0.79944048444E+01  0.36991789027E+02  0.25000141018E+00 0.  0.
    1000022    2    1    0    0    0 -0.58014756874E+02  0.50692739480E+00  0.20982883396E+02  0.62499996540E+02  0.99999590683E+01 0.  0.
    3000022    2    5    5    0    0 -0.49572703559E+02  0.33798216723E+01  0.15813344740E+02  0.52144036149E+02  0.25000275017E+00 0.  0.
        -13    1    4    4    0    0  0.14054375009E+02 -0.47021884782E+00 -0.31754071591E+01  0.14416684719E+02  0.10500000000E+00 0. -1.
         13    1    4    4    0    0  0.22041366352E+02 -0.76140671267E+00 -0.48189976853E+01  0.22575104308E+02  0.10500000000E+00 0.  1.
    3000001    1    5    5    0    0 -0.84420533148E+01 -0.28728942775E+01  0.51695386557E+01  0.10355960391E+02  0.10000000000E+01 0. -1.
        -13    1    6    6    0    0 -0.12072290034E+02  0.82838785874E+00  0.38286523648E+01  0.12692360578E+02  0.10500000000E+00 0.  1.
         13    1    6    6    0    0 -0.37500413525E+02  0.25514338135E+01  0.11984692375E+02  0.39451675571E+02  0.10500000000E+00 0. -1.
</event>
<event>
11    0  0.3494755E-009  0.9118800E+02  0.7816531E-02  0.1126479E+00
         25   -1    0    0    0    0  0.00000000000E+00  0.00000000000E+00  0.99999998245E-14  0.12500000000E+03  0.12500000000E+03 0.  0.
    3000001    1    3    3    0    0 -0.18415800924E+02  0.11218434685E+01 -0.26621793804E+02  0.32405557576E+02  0.10000000000E+01 0. -1.
    1000022    2    1    0    0    0 -0.42371811347E+02  0.90417088490E+00 -0.44833727770E+02  0.62499989901E+02  0.99998835008E+01 0.  0.
    3000022    2    3    3    0    0 -0.23956010423E+02 -0.21767258358E+00 -0.18211933966E+02  0.30094432325E+02  0.25000291098E+00 0.  0.
    1000022    2    1    0    0    0  0.42371811347E+02 -0.90417088490E+00  0.44833727770E+02  0.62500010099E+02  0.10000009741E+02 0.  0.
    3000022    2    5    5    0    0  0.54612530755E+01  0.23084042410E+01  0.10046718716E+02  0.11668465269E+02  0.25001898223E+00 0.  0.
        -13    1    4    4    0    0 -0.12496707261E+02 -0.61451769372E-01 -0.94457616145E+01  0.15665404756E+02  0.10500000000E+00 0.  1.
         13    1    4    4    0    0 -0.11459303162E+02 -0.15622081421E+00 -0.87661723511E+01  0.14429027569E+02  0.10500000000E+00 0. -1.
    3000001    1    5    5    0    0  0.36910558272E+02 -0.32125751259E+01  0.34787009054E+02  0.50831544830E+02  0.10000000000E+01 0. -1.
        -13    1    6    6    0    0  0.30734304160E+01  0.12960884233E+01  0.55212013641E+01  0.64513959130E+01  0.10500000000E+00 0.  1.
         13    1    6    6    0    0  0.23878226595E+01  0.10123158177E+01  0.45255173515E+01  0.52170693561E+01  0.10500000000E+00 0. -1.
</event>
<event>
11    0  0.3494755E-009  0.9118800E+02  0.7816531E-02  0.1126479E+00
         25   -1    0    0    0    0  0.00000000000E+00  0.00000000000E+00  0.99999998245E-14  0.12500000000E+03  0.12500000000E+03 0.  0.
    3000001    1    3    3    0    0  0.19332825740E+02 -0.13371083188E+02  0.73518877126E+00  0.23538999963E+02  0.10000000000E+01 0.  1.
    1000022    2    1    0    0    0  0.42881234126E+02 -0.44332220748E+02 -0.14505413210E+01  0.62499999556E+02  0.99999918903E+01 0.  0.
    3000022    2    3    3    0    0  0.23548408385E+02 -0.30961137561E+02 -0.21857300923E+01  0.38960999594E+02  0.24999352706E+00 0.  0.
    1000022    2    1    0    0    0 -0.42881234126E+02  0.44332220748E+02  0.14505413210E+01  0.62500000444E+02  0.99999974349E+01 0.  0.
    3000022    2    5    5    0    0 -0.36779766271E+01  0.61531203019E+00 -0.25867755581E+00  0.37464053575E+01  0.25003611829E+00 0.  0.
        -13    1    4    4    0    0  0.11037933985E+02 -0.14486324614E+02 -0.95779846315E+00  0.18237817588E+02  0.10500000000E+00 0.  1.
         13    1    4    4    0    0  0.12510474401E+02 -0.16474812947E+02 -0.12279316291E+01  0.20723182006E+02  0.10500000000E+00 0. -1.
    3000001    1    5    5    0    0 -0.39203257498E+02  0.43716908718E+02  0.17092188769E+01  0.58753595086E+02  0.10000000000E+01 0.  1.
        -13    1    6    6    0    0 -0.20878728725E+01  0.40610477300E+00 -0.18152749972E+00  0.21373140741E+01  0.10500000000E+00 0.  1.
         13    1    6    6    0    0 -0.15901037547E+01  0.20920725719E+00 -0.77150056091E-01  0.16090912834E+01  0.10500000000E+00 0. -1.
</event>
<event>
11    0  0.3494755E-009  0.9118800E+02  0.7816531E-02  0.1126479E+00
         25   -1    0    0    0    0  0.00000000000E+00  0.00000000000E+00  0.99999998245E-14  0.12500000000E+03  0.12500000000E+03 0.  0.
    3000001    1    3    3    0    0 -0.23268341282E+02 -0.14415453085E+02 -0.90584535983E+01  0.28849204066E+02  0.10000000000E+01 0.  1.
    1000022    2    1    0    0    0 -0.53342267033E+02 -0.29504297274E+02 -0.95052269285E+01  0.62500003975E+02  0.10000007402E+02 0.  0.
    3000022    2    3    3    0    0 -0.30073925751E+02 -0.15088844189E+02 -0.44677333017E+00  0.33650799909E+02  0.24999807552E+00 0.  0.
    1000022    2    1    0    0    0  0.53342267033E+02  0.29504297274E+02  0.95052269285E+01  0.62499996025E+02  0.99999577157E+01 0.  0.
    3000022    2    5    5    0    0  0.33192946537E+02  0.12827890238E+02  0.48617199467E+01  0.35916921990E+02  0.24999322756E+00 0.  0.
        -13    1    4    4    0    0 -0.13329208976E+02 -0.66234770237E+01 -0.23091611426E+00  0.14886322818E+02  0.10500000000E+00 0.  1.
         13    1    4    4    0    0 -0.16744716775E+02 -0.84653671649E+01 -0.21585721591E+00  0.18764477090E+02  0.10500000000E+00 0. -1.
    3000001    1    5    5    0    0  0.20149320496E+02  0.16676407036E+02  0.46435069818E+01  0.26583074036E+02  0.10000000000E+01 0.  1.
        -13    1    6    6    0    0  0.15347399531E+02  0.59795071391E+01  0.21999890842E+01  0.16617706068E+02  0.10500000000E+00 0. -1.
         13    1    6    6    0    0  0.17845547006E+02  0.68483830990E+01  0.26617308625E+01  0.19299215921E+02  0.10500000000E+00 0.  1.
</event>
<event>
11    0  0.3494755E-009  0.9118800E+02  0.7816531E-02  0.1126479E+00
         25   -1    0    0    0    0  0.00000000000E+00  0.00000000000E+00  0.99999998245E-14  0.12500000000E+03  0.12500000000E+03 0.  0.
    3000001    1    3    3    0    0  0.17716709449E+02 -0.41048485336E+02  0.18927148701E+02  0.48560239909E+02  0.10000000000E+01 0. -1.
    1000022    2    1    0    0    0  0.18966772963E+02 -0.51677975597E+02  0.27854952308E+02  0.62499999745E+02  0.99999980792E+01 0.  0.
    3000022    2    3    3    0    0  0.12500635137E+01 -0.10629490262E+02  0.89278036078E+01  0.13939759836E+02  0.25001005797E+00 0.  0.
    1000022    2    1    0    0    0 -0.18966772963E+02  0.51677975597E+02 -0.27854952308E+02  0.62500000255E+02  0.10000001265E+02 0.  0.
    3000022    2    5    5    0    0 -0.17183692993E+02  0.50393585854E+02 -0.25182069325E+02  0.58898148699E+02  0.25000903997E+00 0.  0.
        -13    1    4    4    0    0  0.68639162771E+00 -0.52584655253E+01  0.44317078274E+01  0.69118486973E+01  0.10500000000E+00 0. -1.
         13    1    4    4    0    0  0.56367188600E+00 -0.53710247364E+01  0.44960957804E+01  0.70279111392E+01  0.10500000000E+00 0.  1.
    3000001    1    5    5    0    0 -0.17830799692E+01  0.12843897432E+01 -0.26728829836E+01  0.36018515562E+01  0.10000000000E+01 0. -1.
        -13    1    6    6    0    0 -0.80709337342E+01  0.23861822431E+02 -0.11942959301E+02  0.27877801975E+02  0.10500000000E+00 0.  1.
         13    1    6    6    0    0 -0.91127592592E+01  0.26531763423E+02 -0.13239110024E+02  0.31020346724E+02  0.10500000000E+00 0. -1.
</event>
<event>
11    0  0.3494755E-009  0.9118800E+02  0.7816531E-02  0.1126479E+00
         25   -1    0    0    0    0  0.00000000000E+00  0.00000000000E+00  0.99999998245E-14  0.12500000000E+03  0.12500000000E+03 0.  0.
    3000001    1    3    3    0    0  0.35985762296E+02  0.37106192120E+02 -0.24640949287E+02  0.57271467272E+02  0.10000000000E+01 0.  1.
    1000022    2    1    0    0    0  0.37075555190E+02  0.39983934079E+02 -0.28860666869E+02  0.62499999840E+02  0.10000005536E+02 0.  0.
    3000022    2    3    3    0    0  0.10897928934E+01  0.28777419596E+01 -0.42197175818E+01  0.52285325678E+01  0.24997800997E+00 0.  0.
    1000022    2    1    0    0    0 -0.37075555190E+02 -0.39983934079E+02  0.28860666869E+02  0.62500000160E+02  0.10000007541E+02 0.  0.
    3000022    2    5    5    0    0 -0.36170708898E+01 -0.20827806502E+01 -0.18451987699E+00  0.41854181415E+01  0.25000075165E+00 0.  0.
        -13    1    4    4    0    0  0.39860602222E+00  0.11100500131E+01 -0.15225355886E+01  0.19287916972E+01  0.10500000000E+00 0. -1.
         13    1    4    4    0    0  0.69118687119E+00  0.17676919466E+01 -0.26971819932E+01  0.32997408706E+01  0.10500000000E+00 0.  1.
    3000001    1    5    5    0    0 -0.33458484300E+02 -0.37901153429E+02  0.29045186746E+02  0.58314582019E+02  0.10000000000E+01 0.  1.
        -13    1    6    6    0    0 -0.14580849166E+01 -0.89537389178E+00 -0.33720198353E-01  0.17146043514E+01  0.10500000000E+00 0.  1.
         13    1    6    6    0    0 -0.21589859732E+01 -0.11874067584E+01 -0.15079967863E+00  0.24708137901E+01  0.10500000000E+00 0. -1.
</event>
<event>
11    0  0.3494755E-009  0.9118800E+02  0.7816531E-02  0.1126479E+00
         25   -1    0    0    0    0  0.00000000000E+00  0.00000000000E+00  0.99999998245E-14  0.12500000000E+03  0.12500000000E+03 0.  0.
    3000001    1    3    3    0    0  0.50129349650E+02  0.60074363200E+01  0.21505795880E+02  0.54886612611E+02  0.10000000000E+01 0. -1.
    1000022    2    1    0    0    0  0.55868333556E+02  0.36575988508E+01  0.25915272878E+02  0.62500000029E+02  0.99999955813E+01 0.  0.
    3000022    2    3    3    0    0  0.57389839057E+01 -0.23498374692E+01  0.44094769983E+01  0.76133874181E+01  0.25001635525E+00 0.  0.
    1000022    2    1    0    0    0 -0.55868333556E+02 -0.36575988508E+01 -0.25915272878E+02  0.62499999971E+02  0.99999952136E+01 0.  0.
    3000022    2    5    5    0    0 -0.10365072418E+02 -0.33353077960E+01 -0.19627210971E+01  0.11066787136E+02  0.24999813588E+00 0.  0.
        -13    1    4    4    0    0  0.16392268536E+01 -0.71685068037E+00  0.12790985970E+01  0.22018305558E+01  0.10500000000E+00 0. -1.
         13    1    4    4    0    0  0.40997570521E+01 -0.16329867888E+01  0.31303784012E+01  0.54115568623E+01  0.10500000000E+00 0.  1.
    3000001    1    5    5    0    0 -0.45503261138E+02 -0.32229105487E+00 -0.23952551781E+02  0.51433212835E+02  0.10000000000E+01 0. -1.
        -13    1    6    6    0    0 -0.27234267567E+01 -0.89208186270E+00 -0.54683540901E+00  0.29194035886E+01  0.10500000000E+00 0.  1.
         13    1    6    6    0    0 -0.76416456617E+01 -0.24432259333E+01 -0.14158856881E+01  0.81473835469E+01  0.10500000000E+00 0. -1.
</event>
<event>
11    0  0.3494755E-009  0.9118800E+02  0.7816531E-02  0.1126479E+00
         25   -1    0    0    0    0  0.00000000000E+00  0.00000000000E+00  0.99999998245E-14  0.12500000000E+03  0.12500000000E+03 0.  0.
    3000001    1    3    3    0    0 -0.69423047201E+01 -0.18558378926E+02 -0.43196695067E+01  0.20304397746E+02  0.10000000000E+01 0. -1.
    1000022    2    1    0    0    0 -0.32200548973E+02 -0.52338040130E+02 -0.54867429240E+01  0.62500001436E+02  0.10000001637E+02 0.  0.
    3000022    2    3    3    0    0 -0.25258244253E+02 -0.33779661204E+02 -0.11670734173E+01  0.42195603690E+02  0.24999312774E+00 0.  0.
    1000022    2    1    0    0    0  0.32200548973E+02  0.52338040130E+02  0.54867429240E+01  0.62499998564E+02  0.99999836866E+01 0.  0.
    3000022    2    5    5    0    0  0.27627346506E+01  0.20175584982E+01  0.22515238492E+01  0.41030600635E+01  0.24999439496E+00 0.  0.
        -13    1    4    4    0    0 -0.18929123805E+02 -0.25298902936E+02 -0.84925375138E+00  0.31608202650E+02  0.10500000000E+00 0. -1.
         13    1    4    4    0    0 -0.63291204478E+01 -0.84807582681E+01 -0.31781966589E+00  0.10587401040E+02  0.10500000000E+00 0.  1.
    3000001    1    5    5    0    0  0.29437814322E+02  0.50320481632E+02  0.32352190748E+01  0.58396938501E+02  0.10000000000E+01 0.  1.
        -13    1    6    6    0    0  0.20306164498E+01  0.14702875858E+01  0.16070606842E+01  0.29797345174E+01  0.10500000000E+00 0.  1.
         13    1    6    6    0    0  0.73211820080E+00  0.54727091240E+00  0.64446316498E+00  0.11233255461E+01  0.10500000000E+00 0. -1.
</event>
<event>
11    0  0.3494755E-009  0.9118800E+02  0.7816531E-02  0.1126479E+00
         25   -1    0    0    0    0  0.00000000000E+00  0.00000000000E+00  0.99999998245E-14  0.12500000000E+03  0.12500000000E+03 0.  0.
    3000001    1    3    3    0    0  0.11876032046E+01  0.18520868849E+02  0.22885073601E+02  0.29481512479E+02  0.10000000000E+01 0.  1.
    1000022    2    1    0    0    0  0.12294892043E+02  0.40409485641E+02  0.44968427961E+02  0.62499998951E+02  0.99999727718E+01 0.  0.
    3000022    2    3    3    0    0  0.11107288838E+02  0.21888616792E+02  0.22083354360E+02  0.33018486472E+02  0.24999744688E+00 0.  0.
    1000022    2    1    0    0    0 -0.12294892043E+02 -0.40409485641E+02 -0.44968427961E+02  0.62500001049E+02  0.99999858875E+01 0.  0.
    3000022    2    5    5    0    0 -0.13447040970E+02 -0.38105811214E+02 -0.43491247715E+02  0.59366883673E+02  0.24998019393E+00 0.  0.
        -13    1    4    4    0    0  0.43079673995E+01  0.84334966254E+01  0.85957649335E+01  0.12789865059E+02  0.10500000000E+00 0. -1.
         13    1    4    4    0    0  0.67993214386E+01  0.13455120167E+02  0.13487589426E+02  0.20228621413E+02  0.10500000000E+00 0.  1.
    3000001    1    5    5    0    0  0.11521489267E+01 -0.23036744271E+01 -0.14771802459E+01  0.31331173764E+01  0.10000000000E+01 0. -1.
        -13    1    6    6    0    0 -0.75965853826E+01 -0.21350687649E+02 -0.24345641134E+02  0.33260806361E+02  0.10500000000E+00 0. -1.
         13    1    6    6    0    0 -0.58504555869E+01 -0.16755123565E+02 -0.19145606581E+02  0.26106077312E+02  0.10500000000E+00 0.  1.
</event>
<event>
11    0  0.3494755E-009  0.9118800E+02  0.7816531E-02  0.1126479E+00
         25   -1    0    0    0    0  0.00000000000E+00  0.00000000000E+00  0.99999998245E-14  0.12500000000E+03  0.12500000000E+03 0.  0.
    3000001    1    3    3    0    0 -0.39055682318E+01  0.13578116239E+02 -0.56822669012E+01  0.15261286347E+02  0.10000000000E+01 0.  1.
    1000022    2    1    0    0    0 -0.97464211829E+01  0.48061233162E+02 -0.37434944542E+02  0.62499998742E+02  0.99999955450E+01 0.  0.
    3000022    2    3    3    0    0 -0.58408529511E+01  0.34483116923E+02 -0.31752677641E+02  0.47238712395E+02  0.24999090429E+00 0.  0.
    1000022    2    1    0    0    0  0.97464211829E+01 -0.48061233162E+02  0.37434944542E+02  0.62500001258E+02  0.10000011276E+02 0.  0.
    3000022    2    5    5    0    0 -0.16084110381E+01 -0.77691793822E+01  0.83211569662E+01  0.11500055773E+02  0.24999034931E+00 0.  0.
        -13    1    4    4    0    0 -0.30676745195E+01  0.18473062443E+02 -0.16961319254E+02  0.25265827491E+02  0.10500000000E+00 0.  1.
         13    1    4    4    0    0 -0.27731784316E+01  0.16010054480E+02 -0.14791358387E+02  0.21972884903E+02  0.10500000000E+00 0. -1.
    3000001    1    5    5    0    0  0.11354832221E+02 -0.40292053780E+02  0.29113787576E+02  0.50999945486E+02  0.10000000000E+01 0. -1.
        -13    1    6    6    0    0 -0.11740008596E+01 -0.56023617050E+01  0.59484657659E+01  0.82559072585E+01  0.10500000000E+00 0.  1.
         13    1    6    6    0    0 -0.43441017844E+00 -0.21668176772E+01  0.23726912003E+01  0.32441485141E+01  0.10500000000E+00 0. -1.
</event>
<event>
11    0  0.3494755E-009  0.9118800E+02  0.7816531E-02  0.1126479E+00
         25   -1    0    0    0    0  0.00000000000E+00  0.00000000000E+00  0.99999998245E-14  0.12500000000E+03  0.12500000000E+03 0.  0.
    3000001    1    3    3    0    0 -0.11803511444E+02  0.18630744711E+02 -0.74535685162E+01  0.23302000226E+02  0.10000000000E+01 0. -1.
    1000022    2    1    0    0    0 -0.40819110181E+02  0.44387524271E+02 -0.13030656991E+02  0.62499998658E+02  0.99999871879E+01 0.  0.
    3000022    2    3    3    0    0 -0.29015598737E+02  0.25756779560E+02 -0.55770884746E+01  0.39197998432E+02  0.25000372608E+00 0.  0.
    1000022    2    1    0    0    0  0.40819110181E+02 -0.44387524271E+02  0.13030656991E+02  0.62500001342E+02  0.10000003965E+02 0.  0.
    3000022    2    5    5    0    0  0.13461659096E+02 -0.16065791424E+02 -0.15423843679E+00  0.20962161380E+02  0.25000102945E+00 0.  0.
        -13    1    4    4    0    0 -0.20731462894E+02  0.18421566186E+02 -0.39470595297E+01  0.28013174729E+02  0.10500000000E+00 0.  1.
         13    1    4    4    0    0 -0.82841358430E+01  0.73352133738E+01 -0.16300289449E+01  0.11184823703E+02  0.10500000000E+00 0. -1.
    3000001    1    5    5    0    0  0.27357451084E+02 -0.28321732847E+02  0.13184895428E+02  0.41537839963E+02  0.10000000000E+01 0. -1.
        -13    1    6    6    0    0  0.40355679844E+01 -0.48884637644E+01 -0.49664109468E-01  0.63400613922E+01  0.10500000000E+00 0.  1.
         13    1    6    6    0    0  0.94260911119E+01 -0.11177327659E+02 -0.10457432733E+00  0.14622099987E+02  0.10500000000E+00 0. -1.
</event>
<event>
11    0  0.3494755E-009  0.9118800E+02  0.7816531E-02  0.1126479E+00
         25   -1    0    0    0    0  0.00000000000E+00  0.00000000000E+00  0.99999998245E-14  0.12500000000E+03  0.12500000000E+03 0.  0.
    3000001    1    3    3    0    0  0.11794659818E+02  0.31313709772E+02  0.68473339518E+01  0.34169407402E+02  0.10000000000E+01 0. -1.
    1000022    2    1    0    0    0  0.28714649454E+02  0.52453798503E+02  0.15176229725E+02  0.62499999471E+02  0.99999957284E+01 0.  0.
    3000022    2    3    3    0    0  0.16919989636E+02  0.21140088730E+02  0.83288957737E+01  0.28330592069E+02  0.25008276124E+00 0.  0.
    1000022    2    1    0    0    0 -0.28714649454E+02 -0.52453798503E+02 -0.15176229725E+02  0.62500000529E+02  0.10000002342E+02 0.  0.
    3000022    2    5    5    0    0 -0.12157502348E+02 -0.13924336862E+02 -0.23544530332E+01  0.18635932180E+02  0.24999747184E+00 0.  0.
        -13    1    4    4    0    0  0.73563418408E+01  0.91135977420E+01  0.36491446315E+01  0.12267873109E+02  0.10500000000E+00 0.  1.
         13    1    4    4    0    0  0.95636477951E+01  0.12026490988E+02  0.46797511422E+01  0.16062718960E+02  0.10500000000E+00 0. -1.
    3000001    1    5    5    0    0 -0.16557147106E+02 -0.38529461640E+02 -0.12821776692E+02  0.43864068349E+02  0.10000000000E+01 0. -1.
        -13    1    6    6    0    0 -0.70173168672E+01 -0.81245091103E+01 -0.13372700287E+01  0.10818950986E+02  0.10500000000E+00 0.  1.
         13    1    6    6    0    0 -0.51401854809E+01 -0.57998277519E+01 -0.10171830044E+01  0.78169811945E+01  0.10500000000E+00 0. -1.
</event>
<event>
11    0  0.3494755E-009  0.9118800E+02  0.7816531E-02  0.1126479E+00
         25   -1    0    0    0    0  0.00000000000E+00  0.00000000000E+00  0.99999998245E-14  0.12500000000E+03  0.12500000000E+03 0.  0.
    3000001    1    3    3    0    0 -0.15619936932E+02  0.12191326749E+02 -0.88169487154E+01  0.21710584107E+02  0.10000000000E+01 0.  1.
    1000022    2    1    0    0    0 -0.51728020123E+02  0.30205199137E+02 -0.14768476451E+02  0.62500000366E+02  0.10000001417E+02 0.  0.
    3000022    2    3    3    0    0 -0.36108083191E+02  0.18013872389E+02 -0.59515277359E+01  0.40789416259E+02  0.25005231181E+00 0.  0.
    1000022    2    1    0    0    0  0.51728020123E+02 -0.30205199137E+02  0.14768476451E+02  0.62499999634E+02  0.99999968396E+01 0.  0.
    3000022    2    5    5    0    0 -0.33875996212E+00 -0.16539367509E+00  0.56829289321E+00  0.72634251612E+00  0.25000651701E+00 0.  0.
        -13    1    4    4    0    0 -0.14357917500E+02  0.72000075755E+01 -0.23149599857E+01  0.16228369258E+02  0.10500000000E+00 0. -1.
         13    1    4    4    0    0 -0.21750165691E+02  0.10813864813E+02 -0.36365677502E+01  0.24561047001E+02  0.10500000000E+00 0.  1.
    3000001    1    5    5    0    0  0.52066780085E+02 -0.30039805462E+02  0.14200183558E+02  0.61773657118E+02  0.10000000000E+01 0. -1.
        -13    1    6    6    0    0 -0.18870357407E+00 -0.13642742963E+00  0.40736582780E+00  0.48082574814E+00  0.10500000000E+00 0.  1.
         13    1    6    6    0    0 -0.15005638806E+00 -0.28966245460E-01  0.16092706541E+00  0.24551676797E+00  0.10500000000E+00 0. -1.
</event>
<event>
11    0  0.3494755E-009  0.9118800E+02  0.7816531E-02  0.1126479E+00
         25   -1    0    0    0    0  0.00000000000E+00  0.00000000000E+00  0.99999998245E-14  0.12500000000E+03  0.12500000000E+03 0.  0.
    3000001    1    3    3    0    0  0.10920197308E+01  0.20613822314E+01 -0.35509804897E+01  0.43647756225E+01  0.10000000000E+01 0. -1.
    1000022    2    1    0    0    0  0.95994693520E+01  0.53954441682E+02 -0.28337587092E+02  0.62500003137E+02  0.99999980418E+01 0.  0.
    3000022    2    3    3    0    0  0.85074496213E+01  0.51893059451E+02 -0.24786606602E+02  0.58135227515E+02  0.24998614931E+00 0.  0.
    1000022    2    1    0    0    0 -0.95994693520E+01 -0.53954441682E+02  0.28337587092E+02  0.62499996863E+02  0.99999588286E+01 0.  0.
    3000022    2    5    5    0    0 -0.19786655241E+01 -0.25266640847E+02  0.82864289250E+01  0.26665439358E+02  0.24998973072E+00 0.  0.
        -13    1    4    4    0    0  0.45139503832E+01  0.27314564310E+02 -0.13112937959E+02  0.30633663483E+02  0.10500000000E+00 0.  1.
         13    1    4    4    0    0  0.39934992381E+01  0.24578495141E+02 -0.11673668643E+02  0.27501564031E+02  0.10500000000E+00 0. -1.
    3000001    1    5    5    0    0 -0.76208038279E+01 -0.28687800835E+02  0.20051158167E+02  0.35834557505E+02  0.10000000000E+01 0.  1.
        -13    1    6    6    0    0 -0.13850534098E+01 -0.17654041553E+02  0.58382066859E+01  0.18646158811E+02  0.10500000000E+00 0. -1.
         13    1    6    6    0    0 -0.59361211433E+00 -0.76125992939E+01  0.24482222391E+01  0.80192805465E+01  0.10500000000E+00 0.  1.
</event>
<event>
11    0  0.3494755E-009  0.9118800E+02  0.7816531E-02  0.1126479E+00
         25   -1    0    0    0    0  0.00000000000E+00  0.00000000000E+00  0.99999998245E-14  0.12500000000E+03  0.12500000000E+03 0.  0.
    3000001    1    3    3    0    0  0.64518930549E+01 -0.62319421716E+01 -0.16872403088E+01  0.91820916507E+01  0.10000000000E+01 0.  1.
    1000022    2    1    0    0    0  0.50994493338E+02 -0.24543650040E+02 -0.24564629836E+02  0.62499999909E+02  0.99999920770E+01 0.  0.
    3000022    2    3    3    0    0  0.44542600283E+02 -0.18311707868E+02 -0.22877389527E+02  0.53317908258E+02  0.25000880817E+00 0.  0.
    1000022    2    1    0    0    0 -0.50994493338E+02  0.24543650040E+02  0.24564629836E+02  0.62500000091E+02  0.99999932169E+01 0.  0.
    3000022    2    5    5    0    0 -0.39663474988E+02  0.22991926341E+02  0.21377696458E+02  0.50585455717E+02  0.24999851333E+00 0.  0.
        -13    1    4    4    0    0  0.18597915182E+02 -0.75837970284E+01 -0.95078151439E+01  0.22221746113E+02  0.10500000000E+00 0. -1.
         13    1    4    4    0    0  0.25944685101E+02 -0.10727910840E+02 -0.13369574383E+02  0.31096162146E+02  0.10500000000E+00 0.  1.
    3000001    1    5    5    0    0 -0.11331018350E+02  0.15517236990E+01  0.31869333775E+01  0.11914544374E+02  0.10000000000E+01 0.  1.
        -13    1    6    6    0    0 -0.29881807325E+02  0.17312369429E+02  0.16128529241E+02  0.38115364680E+02  0.10500000000E+00 0. -1.
         13    1    6    6    0    0 -0.97816676631E+01  0.56795569114E+01  0.52491672173E+01  0.12470091036E+02  0.10500000000E+00 0.  1.
</event>
<event>
11    0  0.3494755E-009  0.9118800E+02  0.7816531E-02  0.1126479E+00
         25   -1    0    0    0    0  0.00000000000E+00  0.00000000000E+00  0.99999998245E-14  0.12500000000E+03  0.12500000000E+03 0.  0.
    3000001    1    3    3    0    0 -0.29896331285E+02 -0.34166061751E+01 -0.36943279687E+02  0.47657840237E+02  0.10000000000E+01 0. -1.
    1000022    2    1    0    0    0 -0.34340230364E+02 -0.51913666830E+01 -0.50990668322E+02  0.62499997623E+02  0.99999868731E+01 0.  0.
    3000022    2    3    3    0    0 -0.44438990788E+01 -0.17747605079E+01 -0.14047388635E+02  0.14842157386E+02  0.24998902037E+00 0.  0.
    1000022    2    1    0    0    0  0.34340230364E+02  0.51913666830E+01  0.50990668322E+02  0.62500002377E+02  0.10000016588E+02 0.  0.
    3000022    2    5    5    0    0  0.12601820206E+02  0.65455837086E+01  0.17511896720E+02  0.22547273711E+02  0.24997291181E+00 0.  0.
        -13    1    4    4    0    0 -0.21279068873E+01 -0.77751145489E+00 -0.66693450924E+01  0.70444091835E+01  0.10500000000E+00 0.  1.
         13    1    4    4    0    0 -0.23159921914E+01 -0.99724905301E+00 -0.73780435429E+01  0.77977482022E+01  0.10500000000E+00 0. -1.
    3000001    1    5    5    0    0  0.21738410157E+02 -0.13542170256E+01  0.33478771602E+02  0.39952728667E+02  0.10000000000E+01 0.  1.
        -13    1    6    6    0    0  0.79143335387E+01  0.41137660607E+01  0.11093767971E+02  0.14235254102E+02  0.10500000000E+00 0.  1.
         13    1    6    6    0    0  0.46874866675E+01  0.24318176479E+01  0.64181287494E+01  0.83120196086E+01  0.10500000000E+00 0. -1.
</event>
<event>
11    0  0.3494755E-009  0.9118800E+02  0.7816531E-02  0.1126479E+00
         25   -1    0    0    0    0  0.00000000000E+00  0.00000000000E+00  0.99999998245E-14  0.12500000000E+03  0.12500000000E+03 0.  0.
    3000001    1    3    3    0    0 -0.34339157775E+01  0.13572406140E+02  0.10290259428E+02  0.17403776173E+02  0.10000000000E+01 0. -1.
    1000022    2    1    0    0    0 -0.21261769891E+01  0.55461171105E+02  0.26940439802E+02  0.62500004577E+02  0.10000057322E+02 0.  0.
    3000022    2    3    3    0    0  0.13077387883E+01  0.41888764965E+02  0.16650180374E+02  0.45096228404E+02  0.24999739073E+00 0.  0.
    1000022    2    1    0    0    0  0.21261769891E+01 -0.55461171105E+02 -0.26940439802E+02  0.62499995423E+02  0.10000000110E+02 0.  0.
    3000022    2    5    5    0    0 -0.28638430404E+01 -0.36547839618E+02 -0.15375767074E+02  0.39754532950E+02  0.24999837566E+00 0.  0.
        -13    1    4    4    0    0  0.48835914997E+00  0.14205752064E+02  0.56807816079E+01  0.15307651389E+02  0.10500000000E+00 0. -1.
         13    1    4    4    0    0  0.81937963834E+00  0.27683012901E+02  0.10969398766E+02  0.29788577015E+02  0.10500000000E+00 0.  1.
    3000001    1    5    5    0    0  0.49900200296E+01 -0.18913331487E+02 -0.11564672728E+02  0.22745462473E+02  0.10000000000E+01 0.  1.
        -13    1    6    6    0    0 -0.15078539063E+01 -0.19071349381E+02 -0.79519384943E+01  0.20717971461E+02  0.10500000000E+00 0. -1.
         13    1    6    6    0    0 -0.13559891341E+01 -0.17476490237E+02 -0.74238285802E+01  0.19036561489E+02  0.10500000000E+00 0.  1.
</event>
<event>
11    0  0.3494755E-009  0.9118800E+02  0.7816531E-02  0.1126479E+00
         25   -1    0    0    0    0  0.00000000000E+00  0.00000000000E+00  0.99999998245E-14  0.12500000000E+03  0.12500000000E+03 0.  0.
    3000001    1    3    3    0    0  0.59934053271E+00 -0.51666649814E+02  0.27554700389E+02  0.58566743341E+02  0.10000000000E+01 0.  1.
    1000022    2    1    0    0    0  0.13381892806E+00 -0.53281212224E+02  0.31102160594E+02  0.62500001016E+02  0.10000012493E+02 0.  0.
    3000022    2    3    3    0    0 -0.46552160465E+00 -0.16145624100E+01  0.35474602049E+01  0.39332576749E+01  0.25003978080E+00 0.  0.
    1000022    2    1    0    0    0 -0.13381892806E+00  0.53281212224E+02 -0.31102160594E+02  0.62499998984E+02  0.99999997890E+01 0.  0.
    3000022    2    5    5    0    0 -0.18206808586E+01  0.97775012441E+01 -0.20698846984E+01  0.10161758510E+02  0.25000796858E+00 0.  0.
        -13    1    4    4    0    0 -0.23023954549E+00 -0.81945206287E+00  0.19529367591E+01  0.21329554418E+01  0.10500000000E+00 0.  1.
         13    1    4    4    0    0 -0.23528205916E+00 -0.79511034710E+00  0.15945234458E+01  0.18003022332E+01  0.10500000000E+00 0. -1.
    3000001    1    5    5    0    0  0.16868619306E+01  0.43503710980E+02 -0.29032275896E+02  0.52338240474E+02  0.10000000000E+01 0.  1.
        -13    1    6    6    0    0 -0.49771397825E+00  0.27482963641E+01 -0.61991027681E+00  0.28628946645E+01  0.10500000000E+00 0. -1.
         13    1    6    6    0    0 -0.13229668804E+01  0.70292048801E+01 -0.14499744216E+01  0.72988638456E+01  0.10500000000E+00 0.  1.
</event>
<event>
11    0  0.3494755E-009  0.9118800E+02  0.7816531E-02  0.1126479E+00
         25   -1    0    0    0    0  0.00000000000E+00  0.00000000000E+00  0.99999998245E-14  0.12500000000E+03  0.12500000000E+03 0.  0.
    3000001    1    3    3    0    0 -0.52017741256E+01 -0.16970035513E+02 -0.20527519726E+02  0.27155471372E+02  0.10000000000E+01 0. -1.
    1000022    2    1    0    0    0 -0.43107167064E+01 -0.45224614932E+02 -0.41742088599E+02  0.62499999561E+02  0.99999955140E+01 0.  0.
    3000022    2    3    3    0    0  0.89105741919E+00 -0.28254579419E+02 -0.21214568873E+02  0.35344528189E+02  0.24999788501E+00 0.  0.
    1000022    2    1    0    0    0  0.43107167064E+01  0.45224614932E+02  0.41742088599E+02  0.62500000439E+02  0.10000001003E+02 0.  0.
    3000022    2    5    5    0    0  0.32064077007E+01  0.43954160170E+02  0.41484831051E+02  0.60525225736E+02  0.24999290309E+00 0.  0.
        -13    1    4    4    0    0  0.38928486607E+00 -0.10559924548E+02 -0.79566182122E+01  0.13228089339E+02  0.10500000000E+00 0. -1.
         13    1    4    4    0    0  0.50177255312E+00 -0.17694654871E+02 -0.13257950661E+02  0.22116438850E+02  0.10500000000E+00 0.  1.
    3000001    1    5    5    0    0  0.11043090057E+01  0.12704547617E+01  0.25725754731E+00  0.19747747029E+01  0.10000000000E+01 0.  1.
        -13    1    6    6    0    0  0.19642528709E+01  0.26152258489E+02  0.24646461929E+02  0.35989693303E+02  0.10500000000E+00 0.  1.
         13    1    6    6    0    0  0.12421548297E+01  0.17801901681E+02  0.16838369123E+02  0.24535532434E+02  0.10500000000E+00 0. -1.
</event>
<event>
11    0  0.3494755E-009  0.9118800E+02  0.7816531E-02  0.1126479E+00
         25   -1    0    0    0    0  0.00000000000E+00  0.00000000000E+00  0.99999998245E-14  0.12500000000E+03  0.12500000000E+03 0.  0.
    3000001    1    3    3    0    0 -0.46069370144E+00  0.32062779184E+02 -0.20514074731E+02  0.38079670557E+02  0.10000000000E+01 0.  1.
    1000022    2    1    0    0    0  0.28413248895E+01  0.47827496930E+02 -0.38867826019E+02  0.62499997018E+02  0.99999569025E+01 0.  0.
    3000022    2    3    3    0    0  0.33020185909E+01  0.15764717746E+02 -0.18353751288E+02  0.24420326461E+02  0.25001141120E+00 0.  0.
    1000022    2    1    0    0    0 -0.28413248895E+01 -0.47827496930E+02  0.38867826019E+02  0.62500002982E+02  0.99999941789E+01 0.  0.
    3000022    2    5    5    0    0 -0.18864806817E+01 -0.45435959804E+02  0.38731440385E+02  0.59734179718E+02  0.24999921776E+00 0.  0.
        -13    1    4    4    0    0  0.19373908454E+01  0.90394293243E+01 -0.10459618797E+02  0.13959921782E+02  0.10500000000E+00 0. -1.
         13    1    4    4    0    0  0.13646277455E+01  0.67252884219E+01 -0.78941324912E+01  0.10460404678E+02  0.10500000000E+00 0.  1.
    3000001    1    5    5    0    0 -0.95484420777E+00 -0.23915371260E+01  0.13638563401E+00  0.27658232639E+01  0.10000000000E+01 0. -1.
        -13    1    6    6    0    0 -0.13900494475E+01 -0.33617167772E+02  0.28697077062E+02  0.44221934189E+02  0.10500000000E+00 0. -1.
         13    1    6    6    0    0 -0.49643123420E+00 -0.11818792032E+02  0.10034363323E+02  0.15512245529E+02  0.10500000000E+00 0.  1.
</event>
<event>
11    0  0.3494755E-009  0.9118800E+02  0.7816531E-02  0.1126479E+00
         25   -1    0    0    0    0  0.00000000000E+00  0.00000000000E+00  0.99999998245E-14  0.12500000000E+03  0.12500000000E+03 0.  0.
    3000001    1    3    3    0    0 -0.47603639116E+02 -0.75739294241E-01  0.12198739236E+02  0.49152023687E+02  0.10000000000E+01 0. -1.
    1000022    2    1    0    0    0 -0.59496551459E+02 -0.51619406051E+01  0.15484347595E+02  0.62500002270E+02  0.99999998473E+01 0.  0.
    3000022    2    3    3    0    0 -0.11892912343E+02 -0.50862013108E+01  0.32856083591E+01  0.13347978583E+02  0.25000439317E+00 0.  0.
    1000022    2    1    0    0    0  0.59496551459E+02  0.51619406051E+01 -0.15484347595E+02  0.62499997730E+02  0.99999714716E+01 0.  0.
    3000022    2    5    5    0    0  0.38732575279E+02  0.77121536099E+01 -0.11933411935E+02  0.41257223964E+02  0.25001560518E+00 0.  0.
        -13    1    4    4    0    0 -0.72285288049E+01 -0.31419501174E+01  0.19594544750E+01  0.81224359685E+01  0.10500000000E+00 0.  1.
         13    1    4    4    0    0 -0.46643835380E+01 -0.19442511934E+01  0.13261538842E+01  0.52255426146E+01  0.10500000000E+00 0. -1.
    3000001    1    5    5    0    0  0.20763976181E+02 -0.25502130048E+01 -0.35509356604E+01  0.21242773766E+02  0.10000000000E+01 0.  1.
        -13    1    6    6    0    0  0.21233174636E+02  0.42558762253E+01 -0.64799999905E+01  0.22604460012E+02  0.10500000000E+00 0.  1.
         13    1    6    6    0    0  0.17499400642E+02  0.34562773846E+01 -0.54534119442E+01  0.18652763952E+02  0.10500000000E+00 0. -1.
</event>
<event>
11    0  0.3494755E-009  0.9118800E+02  0.7816531E-02  0.1126479E+00
         25   -1    0    0    0    0  0.00000000000E+00  0.00000000000E+00  0.99999998245E-14  0.12500000000E+03  0.12500000000E+03 0.  0.
    3000001    1    3    3    0    0  0.19998665316E+02  0.19460318431E+02  0.75749219956E+01  0.28931471638E+02  0.10000000000E+01 0.  1.
    1000022    2    1    0    0    0  0.45481095989E+02  0.41253064686E+02  0.59920449039E+01  0.62499999459E+02  0.99999945939E+01 0.  0.
    3000022    2    3    3    0    0  0.25482430673E+02  0.21792746255E+02 -0.15828770917E+01  0.33568527821E+02  0.24999576475E+00 0.  0.
    1000022    2    1    0    0    0 -0.45481095989E+02 -0.41253064686E+02 -0.59920449039E+01  0.62500000541E+02  0.10000001355E+02 0.  0.
    3000022    2    5    5    0    0 -0.27186988837E+02 -0.23596786650E+02  0.13249225477E+01  0.36024417011E+02  0.24999792171E+00 0.  0.
        -13    1    4    4    0    0  0.16847464474E+02  0.14352387065E+02 -0.10795749963E+01  0.22158623171E+02  0.10500000000E+00 0. -1.
         13    1    4    4    0    0  0.86349661994E+01  0.74403591891E+01 -0.50330209535E+00  0.11409904650E+02  0.10500000000E+00 0.  1.
    3000001    1    5    5    0    0 -0.18294107152E+02 -0.17656278036E+02 -0.73169674517E+01  0.26475583530E+02  0.10000000000E+01 0. -1.
        -13    1    6    6    0    0 -0.15959560061E+02 -0.13929178022E+02  0.80636874082E+00  0.21198839903E+02  0.10500000000E+00 0.  1.
         13    1    6    6    0    0 -0.11227428777E+02 -0.96676086277E+01  0.51855380689E+00  0.14825577107E+02  0.10500000000E+00 0. -1.
</event>
<event>
11    0  0.3494755E-009  0.9118800E+02  0.7816531E-02  0.1126479E+00
         25   -1    0    0    0    0  0.00000000000E+00  0.00000000000E+00  0.99999998245E-14  0.12500000000E+03  0.12500000000E+03 0.  0.
    3000001    1    3    3    0    0  0.23492534167E+02 -0.62841248508E+01 -0.23505128886E+01  0.24452286142E+02  0.10000000000E+01 0.  1.
    1000022    2    1    0    0    0  0.57603527952E+02 -0.21583318341E+02  0.47163840713E+01  0.62500002908E+02  0.10000001082E+02 0.  0.
    3000022    2    3    3    0    0  0.34110993785E+02 -0.15299193490E+02  0.70668969599E+01  0.38047716766E+02  0.24999998957E+00 0.  0.
    1000022    2    1    0    0    0 -0.57603527952E+02  0.21583318341E+02 -0.47163840713E+01  0.62499997092E+02  0.99999647334E+01 0.  0.
    3000022    2    5    5    0    0 -0.36542271752E+02  0.94792477882E+01 -0.96405493855E-01  0.37752689385E+02  0.24999677749E+00 0.  0.
        -13    1    4    4    0    0  0.15424920055E+02 -0.69640455223E+01  0.31461624218E+01  0.17214396641E+02  0.10500000000E+00 0.  1.
         13    1    4    4    0    0  0.18686073730E+02 -0.83351479678E+01  0.39207345381E+01  0.20833320125E+02  0.10500000000E+00 0. -1.
    3000001    1    5    5    0    0 -0.21061256200E+02  0.12104070553E+02 -0.46199785774E+01  0.24747307707E+02  0.10000000000E+01 0.  1.
        -13    1    6    6    0    0 -0.10721777290E+02  0.27488767040E+01  0.24382270747E-02  0.11069049749E+02  0.10500000000E+00 0. -1.
         13    1    6    6    0    0 -0.25820494462E+02  0.67303710842E+01 -0.98843720930E-01  0.26683639637E+02  0.10500000000E+00 0.  1.
</event>
<event>
11    0  0.3494755E-009  0.9118800E+02  0.7816531E-02  0.1126479E+00
         25   -1    0    0    0    0  0.00000000000E+00  0.00000000000E+00  0.99999998245E-14  0.12500000000E+03  0.12500000000E+03 0.  0.
    3000001    1    3    3    0    0 -0.14958067172E+01 -0.10141510112E+02  0.31720917162E+01  0.10777283096E+02  0.10000000000E+01 0. -1.
    1000022    2    1    0    0    0  0.45455271773E+00 -0.61690404492E+02 -0.58085590373E+00  0.62500000833E+02  0.10000004294E+02 0.  0.
    3000022    2    3    3    0    0  0.19503594349E+01 -0.51548894381E+02 -0.37529476199E+01  0.51722717736E+02  0.25000077819E+00 0.  0.
    1000022    2    1    0    0    0 -0.45455271773E+00  0.61690404492E+02  0.58085590373E+00  0.62499999167E+02  0.99999938863E+01 0.  0.
    3000022    2    5    5    0    0  0.43217528868E+01  0.18496644593E+02 -0.74742658888E+00  0.19011169293E+02  0.25000431834E+00 0.  0.
        -13    1    4    4    0    0  0.52372437852E+00 -0.14013718277E+02 -0.98403447949E+00  0.14058376010E+02  0.10500000000E+00 0. -1.
         13    1    4    4    0    0  0.14266350564E+01 -0.37535176103E+02 -0.27689131404E+01  0.37664341726E+02  0.10500000000E+00 0.  1.
    3000001    1    5    5    0    0 -0.47763056046E+01  0.43193759900E+02  0.13282824926E+01  0.43488829875E+02  0.10000000000E+01 0.  1.
        -13    1    6    6    0    0  0.28451781577E+01  0.12053663281E+02 -0.53601436707E+00  0.12396942109E+02  0.10500000000E+00 0.  1.
         13    1    6    6    0    0  0.14765747291E+01  0.64429813119E+01 -0.21141222181E+00  0.66142271841E+01  0.10500000000E+00 0. -1.
</event>
<event>
11    0  0.3494755E-009  0.9118800E+02  0.7816531E-02  0.1126479E+00
         25   -1    0    0    0    0  0.00000000000E+00  0.00000000000E+00  0.99999998245E-14  0.12500000000E+03  0.12500000000E+03 0.  0.
    3000001    1    3    3    0    0  0.62937868579E+01  0.87173503127E+01 -0.26516783403E+02  0.28631167485E+02  0.10000000000E+01 0.  1.
    1000022    2    1    0    0    0  0.22786180072E+02  0.13655943669E+02 -0.55682630116E+02  0.62500000335E+02  0.99999972771E+01 0.  0.
    3000022    2    3    3    0    0  0.16492393214E+02  0.49385933562E+01 -0.29165846713E+02  0.33868832850E+02  0.24997186767E+00 0.  0.
    1000022    2    1    0    0    0 -0.22786180072E+02 -0.13655943669E+02  0.55682630116E+02  0.62499999665E+02  0.99999930875E+01 0.  0.
    3000022    2    5    5    0    0 -0.71240270391E+01 -0.60390771143E+01  0.30246948301E+02  0.31656951776E+02  0.25000107869E+00 0.  0.
        -13    1    4    4    0    0  0.10587772321E+02  0.31418586991E+01 -0.18809278034E+02  0.21812202180E+02  0.10500000000E+00 0.  1.
         13    1    4    4    0    0  0.59046208933E+01  0.17967346571E+01 -0.10356568679E+02  0.12056630670E+02  0.10500000000E+00 0. -1.
    3000001    1    5    5    0    0 -0.15662153033E+02 -0.76168665546E+01  0.25435681814E+02  0.30843047889E+02  0.10000000000E+01 0.  1.
        -13    1    6    6    0    0 -0.35536439488E+01 -0.30772971891E+01  0.15380878714E+02  0.16083550551E+02  0.10500000000E+00 0.  1.
         13    1    6    6    0    0 -0.35703830903E+01 -0.29617799252E+01  0.14866069587E+02  0.15573401225E+02  0.10500000000E+00 0. -1.
</event>
<event>
11    0  0.3494755E-009  0.9118800E+02  0.7816531E-02  0.1126479E+00
         25   -1    0    0    0    0  0.00000000000E+00  0.00000000000E+00  0.99999998245E-14  0.12500000000E+03  0.12500000000E+03 0.  0.
    3000001    1    3    3    0    0 -0.18797241141E+01 -0.45037849894E+01 -0.55955262474E+01  0.74918192692E+01  0.10000000000E+01 0. -1.
    1000022    2    1    0    0    0 -0.20977091204E+02 -0.51977959724E+02 -0.25777961774E+02  0.62499999604E+02  0.99999992390E+01 0.  0.
    3000022    2    3    3    0    0 -0.19097367090E+02 -0.47474174734E+02 -0.20182435527E+02  0.55008180334E+02  0.25000685673E+00 0.  0.
    1000022    2    1    0    0    0  0.20977091204E+02  0.51977959724E+02  0.25777961774E+02  0.62500000396E+02  0.10000004195E+02 0.  0.
    3000022    2    5    5    0    0  0.69367883021E+01  0.96971648266E+01  0.23509278454E+01  0.12154974412E+02  0.25000717968E+00 0.  0.
        -13    1    4    4    0    0 -0.11143923030E+02 -0.27857340877E+02 -0.11803158706E+02  0.32241960884E+02  0.10500000000E+00 0.  1.
         13    1    4    4    0    0 -0.79534440602E+01 -0.19616833858E+02 -0.83792768204E+01  0.22766219450E+02  0.10500000000E+00 0. -1.
    3000001    1    5    5    0    0  0.14040302902E+02  0.42280794897E+02  0.23427033929E+02  0.50345025985E+02  0.10000000000E+01 0.  1.
        -13    1    6    6    0    0  0.31868142026E+01  0.45682514814E+01  0.10842546313E+01  0.56755034547E+01  0.10500000000E+00 0. -1.
         13    1    6    6    0    0  0.37499740995E+01  0.51289133452E+01  0.12666732142E+01  0.64794709568E+01  0.10500000000E+00 0.  1.
</event>
<event>
11    0  0.3494755E-009  0.9118800E+02  0.7816531E-02  0.1126479E+00
         25   -1    0    0    0    0  0.00000000000E+00  0.00000000000E+00  0.99999998245E-14  0.12500000000E+03  0.12500000000E+03 0.  0.
    3000001    1    3    3    0    0  0.64736096977E+01  0.38354378237E+02 -0.39988971666E+02  0.55795015972E+02  0.10000000000E+01 0. -1.
    1000022    2    1    0    0    0  0.55454343943E+01  0.44579639360E+02 -0.42286568523E+02  0.62499999476E+02  0.99999984514E+01 0.  0.
    3000022    2    3    3    0    0 -0.92817530332E+00  0.62252611229E+01 -0.22975968569E+01  0.67049835039E+01  0.24993404994E+00 0.  0.
    1000022    2    1    0    0    0 -0.55454343943E+01 -0.44579639360E+02  0.42286568523E+02  0.62500000524E+02  0.10000004999E+02 0.  0.
    3000022    2    5    5    0    0  0.10826064244E+01 -0.29491881453E+02  0.27213666035E+02  0.40144604013E+02  0.25000797734E+00 0.  0.
        -13    1    4    4    0    0 -0.39203720849E+00  0.26951170121E+01 -0.10635298060E+01  0.29256571108E+01  0.10500000000E+00 0.  1.
         13    1    4    4    0    0 -0.53613809482E+00  0.35301441108E+01 -0.12340670509E+01  0.37793263931E+01  0.10500000000E+00 0. -1.
    3000001    1    5    5    0    0 -0.66280408187E+01 -0.15087757906E+02  0.15072902488E+02  0.22355396510E+02  0.10000000000E+01 0.  1.
        -13    1    6    6    0    0  0.36061035469E+00 -0.88671457851E+01  0.82242717111E+01  0.12099834064E+02  0.10500000000E+00 0. -1.
         13    1    6    6    0    0  0.72199606971E+00 -0.20624735668E+02  0.18989394324E+02  0.28044769949E+02  0.10500000000E+00 0.  1.
</event>
<event>
11    0  0.3494755E-009  0.9118800E+02  0.7816531E-02  0.1126479E+00
         25   -1    0    0    0    0  0.00000000000E+00  0.00000000000E+00  0.99999998245E-14  0.12500000000E+03  0.12500000000E+03 0.  0.
    3000001    1    3    3    0    0 -0.13539235813E+01 -0.10154496687E+02 -0.41668462366E+01  0.11104481959E+02  0.10000000000E+01 0.  1.
    1000022    2    1    0    0    0  0.97367425072E+01 -0.51003078101E+02 -0.33318642224E+02  0.62499999127E+02  0.99999920415E+01 0.  0.
    3000022    2    3    3    0    0  0.11090666088E+02 -0.40848581414E+02 -0.29151795988E+02  0.51395517168E+02  0.24999565946E+00 0.  0.
    1000022    2    1    0    0    0 -0.97367425072E+01  0.51003078101E+02  0.33318642224E+02  0.62500000873E+02  0.10000002954E+02 0.  0.
    3000022    2    5    5    0    0 -0.66281031810E+00  0.94487258706E+01  0.10784029829E+02  0.14355331486E+02  0.25000922181E+00 0.  0.
        -13    1    4    4    0    0  0.74712746047E+01 -0.27372546632E+02 -0.19585900188E+02  0.34477452987E+02  0.10500000000E+00 0.  1.
         13    1    4    4    0    0  0.36193914837E+01 -0.13476034782E+02 -0.95658957993E+01  0.16918064180E+02  0.10500000000E+00 0. -1.
    3000001    1    5    5    0    0 -0.90739321891E+01  0.41554352230E+02  0.22534612395E+02  0.48144669387E+02  0.10000000000E+01 0. -1.
        -13    1    6    6    0    0 -0.50060602771E+00  0.64745913975E+01  0.73654221607E+01  0.98199495297E+01  0.10500000000E+00 0. -1.
         13    1    6    6    0    0 -0.16220429039E+00  0.29741344732E+01  0.34186076682E+01  0.45353819559E+01  0.10500000000E+00 0.  1.
</event>
<event>
11    0  0.3494755E-009  0.9118800E+02  0.7816531E-02  0.1126479E+00
         25   -1    0    0    0    0  0.00000000000E+00  0.00000000000E+00  0.99999998245E-14  0.12500000000E+03  0.12500000000E+03 0.  0.
    3000001    1    3    3    0    0  0.70024581964E+00  0.66509711608E-01 -0.89046545861E+00  0.15125133000E+01  0.10000000000E+01 0. -1.
    1000022    2    1    0    0    0  0.61607103848E+02 -0.30361348820E+01 -0.12635579847E+01  0.62499999399E+02  0.99999993221E+01 0.  0.
    3000022    2    3    3    0    0  0.60906858029E+02 -0.31026445936E+01 -0.37309252614E+00  0.60987486099E+02  0.25000838392E+00 0.  0.
    1000022    2    1    0    0    0 -0.61607103848E+02  0.30361348820E+01  0.12635579847E+01  0.62500000601E+02  0.10000006839E+02 0.  0.
    3000022    2    5    5    0    0 -0.15643163056E+02  0.22014433211E+01  0.44303153020E+01  0.16408689977E+02  0.25001998833E+00 0.  0.
        -13    1    4    4    0    0  0.26074259579E+02 -0.13716351584E+01 -0.20872915366E+00  0.26111357461E+02  0.10500000000E+00 0.  1.
         13    1    4    4    0    0  0.34832598450E+02 -0.17310094352E+01 -0.16436337248E+00  0.34876128637E+02  0.10500000000E+00 0. -1.
    3000001    1    5    5    0    0 -0.45963940792E+02  0.83469156087E+00 -0.31667573173E+01  0.46091310624E+02  0.10000000000E+01 0. -1.
        -13    1    6    6    0    0 -0.11411777756E+02  0.15778526057E+01  0.32547855329E+01  0.11971756106E+02  0.10500000000E+00 0.  1.
         13    1    6    6    0    0 -0.42313853002E+01  0.62359071543E+00  0.11755297692E+01  0.44369338712E+01  0.10500000000E+00 0. -1.
</event>
<event>
11    0  0.3494755E-009  0.9118800E+02  0.7816531E-02  0.1126479E+00
         25   -1    0    0    0    0  0.00000000000E+00  0.00000000000E+00  0.99999998245E-14  0.12500000000E+03  0.12500000000E+03 0.  0.
    3000001    1    3    3    0    0  0.71788735675E+01 -0.11073428949E+02  0.35896917350E+02  0.38258930064E+02  0.10000000000E+01 0. -1.
    1000022    2    1    0    0    0  0.19075094082E+02 -0.16374373846E+02  0.56340666840E+02  0.62500000176E+02  0.99999974438E+01 0.  0.
    3000022    2    3    3    0    0  0.11896220515E+02 -0.53009448976E+01  0.20443749490E+02  0.24241070112E+02  0.25001524842E+00 0.  0.
    1000022    2    1    0    0    0 -0.19075094082E+02  0.16374373846E+02 -0.56340666840E+02  0.62499999824E+02  0.99999952455E+01 0.  0.
    3000022    2    5    5    0    0 -0.18642194282E+02  0.15295702389E+02 -0.55937905116E+02  0.60914707625E+02  0.24991406031E+00 0.  0.
        -13    1    4    4    0    0  0.63095817209E+01 -0.28147029445E+01  0.10719527644E+02  0.12753535669E+02  0.10500000000E+00 0. -1.
         13    1    4    4    0    0  0.55866387939E+01 -0.24862419531E+01  0.97242218465E+01  0.11487534443E+02  0.10500000000E+00 0.  1.
    3000001    1    5    5    0    0 -0.43289980084E+00  0.10786714578E+01 -0.40276172420E+00  0.15852921995E+01  0.10000000000E+01 0. -1.
        -13    1    6    6    0    0 -0.13556446300E+02  0.11090098706E+02 -0.40558901856E+02  0.44179215367E+02  0.10500000000E+00 0. -1.
         13    1    6    6    0    0 -0.50857479812E+01  0.42056036826E+01 -0.15379003260E+02  0.16735492258E+02  0.10500000000E+00 0.  1.
</event>
<event>
11    0  0.3494755E-009  0.9118800E+02  0.7816531E-02  0.1126479E+00
         25   -1    0    0    0    0  0.00000000000E+00  0.00000000000E+00  0.99999998245E-14  0.12500000000E+03  0.12500000000E+03 0.  0.
    3000001    1    3    3    0    0 -0.32495076267E+02  0.42269621454E+02  0.17804124590E+02  0.56219549375E+02  0.10000000000E+01 0.  1.
    1000022    2    1    0    0    0 -0.33095641941E+02  0.48291930586E+02  0.19463247009E+02  0.62500000776E+02  0.10000001884E+02 0.  0.
    3000022    2    3    3    0    0 -0.60056567432E+00  0.60223091320E+01  0.16591224189E+01  0.62804514018E+01  0.24999239746E+00 0.  0.
    1000022    2    1    0    0    0  0.33095641941E+02 -0.48291930586E+02 -0.19463247009E+02  0.62499999224E+02  0.99999921805E+01 0.  0.
    3000022    2    5    5    0    0  0.32451948812E+02 -0.47442933420E+02 -0.17565054471E+02  0.60104530180E+02  0.24999271709E+00 0.  0.
        -13    1    4    4    0    0 -0.46943571404E+00  0.43909104148E+01  0.11912470659E+01  0.45749927577E+01  0.10500000000E+00 0.  1.
         13    1    4    4    0    0 -0.13112996027E+00  0.16313987172E+01  0.46787535300E+00  0.17054586441E+01  0.10500000000E+00 0. -1.
    3000001    1    5    5    0    0  0.64369312918E+00 -0.84899716637E+00 -0.18981925372E+01  0.23954690441E+01  0.10000000000E+01 0.  1.
        -13    1    6    6    0    0  0.18282346797E+02 -0.26712280495E+02 -0.99599949290E+01  0.33867427679E+02  0.10500000000E+00 0.  1.
         13    1    6    6    0    0  0.14169602015E+02 -0.20730652925E+02 -0.76050595425E+01  0.26237102500E+02  0.10500000000E+00 0. -1.
</event>
<event>
11    0  0.3494755E-009  0.9118800E+02  0.7816531E-02  0.1126479E+00
         25   -1    0    0    0    0  0.00000000000E+00  0.00000000000E+00  0.99999998245E-14  0.12500000000E+03  0.12500000000E+03 0.  0.
    3000001    1    3    3    0    0  0.47997454457E+01 -0.24883873493E+02  0.27865856420E+02  0.37679578958E+02  0.10000000000E+01 0. -1.
    1000022    2    1    0    0    0  0.11157668831E+02 -0.34778361107E+02  0.49721450773E+02  0.62500005481E+02  0.10000002151E+02 0.  0.
    3000022    2    3    3    0    0  0.63579233858E+01 -0.98944876140E+01  0.21855594353E+02  0.24820426523E+02  0.24998669426E+00 0.  0.
    1000022    2    1    0    0    0 -0.11157668831E+02  0.34778361107E+02 -0.49721450773E+02  0.62499994519E+02  0.99999336401E+01 0.  0.
    3000022    2    5    5    0    0 -0.12502927652E+01  0.18385201232E+02 -0.20725302830E+02  0.27734086120E+02  0.24999842109E+00 0.  0.
        -13    1    4    4    0    0  0.36331823211E+01 -0.56793744434E+01  0.12393234478E+02  0.14108812624E+02  0.10500000000E+00 0. -1.
         13    1    4    4    0    0  0.27247410647E+01 -0.42151131706E+01  0.94623598755E+01  0.10711613899E+02  0.10500000000E+00 0.  1.
    3000001    1    5    5    0    0 -0.99073760663E+01  0.16393159876E+02 -0.28996147944E+02  0.34765908399E+02  0.10000000000E+01 0. -1.
        -13    1    6    6    0    0 -0.58205178879E+00  0.90804070259E+01 -0.10146453238E+02  0.13629164111E+02  0.10500000000E+00 0.  1.
         13    1    6    6    0    0 -0.66824097640E+00  0.93047942058E+01 -0.10578849591E+02  0.14104922009E+02  0.10500000000E+00 0. -1.
</event>
<event>
11    0  0.3494755E-009  0.9118800E+02  0.7816531E-02  0.1126479E+00
         25   -1    0    0    0    0  0.00000000000E+00  0.00000000000E+00  0.99999998245E-14  0.12500000000E+03  0.12500000000E+03 0.  0.
    3000001    1    3    3    0    0 -0.81363561157E+01 -0.61757305013E+00  0.86217127697E+01  0.11912834188E+02  0.10000000000E+01 0.  1.
    1000022    2    1    0    0    0 -0.28537130171E+02  0.78319778305E+01  0.54134484529E+02  0.62500000396E+02  0.99999979575E+01 0.  0.
    3000022    2    3    3    0    0 -0.20400774056E+02  0.84495508806E+01  0.45512771760E+02  0.50587166208E+02  0.24999916166E+00 0.  0.
    1000022    2    1    0    0    0  0.28537130171E+02 -0.78319778305E+01 -0.54134484529E+02  0.62499999604E+02  0.99999930029E+01 0.  0.
    3000022    2    5    5    0    0  0.18884902292E+02 -0.32572948573E+01 -0.42791156965E+02  0.46887046405E+02  0.25000372801E+00 0.  0.
        -13    1    4    4    0    0 -0.64403974339E+01  0.27213567539E+01  0.14421926822E+02  0.16027710378E+02  0.10500000000E+00 0. -1.
         13    1    4    4    0    0 -0.13960376622E+02  0.57281941267E+01  0.31090844937E+02  0.34559455830E+02  0.10500000000E+00 0.  1.
    3000001    1    5    5    0    0  0.96522278793E+01 -0.45746829732E+01 -0.11343327565E+02  0.15612953198E+02  0.10000000000E+01 0. -1.
        -13    1    6    6    0    0  0.13757629388E+02 -0.23403650316E+01 -0.31202756456E+02  0.34181467351E+02  0.10500000000E+00 0. -1.
         13    1    6    6    0    0  0.51272729039E+01 -0.91692982570E+00 -0.11588400509E+02  0.12705579054E+02  0.10500000000E+00 0.  1.
</event>
<event>
11    0  0.3494755E-009  0.9118800E+02  0.7816531E-02  0.1126479E+00
         25   -1    0    0    0    0  0.00000000000E+00  0.00000000000E+00  0.99999998245E-14  0.12500000000E+03  0.12500000000E+03 0.  0.
    3000001    1    3    3    0    0 -0.63263766103E+00  0.30285504336E+02 -0.22891974480E+01  0.30394940833E+02  0.10000000000E+01 0.  1.
    1000022    2    1    0    0    0  0.85616593469E+01  0.60737227207E+02 -0.66285231080E+01  0.62499999772E+02  0.99999936670E+01 0.  0.
    3000022    2    3    3    0    0  0.91942970079E+01  0.30451722871E+02 -0.43393256600E+01  0.32105058938E+02  0.25007798847E+00 0.  0.
    1000022    2    1    0    0    0 -0.85616593469E+01 -0.60737227207E+02  0.66285231080E+01  0.62500000228E+02  0.99999965222E+01 0.  0.
    3000022    2    5    5    0    0 -0.27134157610E+01 -0.33800652197E+02 -0.85317479937E+00  0.33921042412E+02  0.24999410703E+00 0.  0.
        -13    1    4    4    0    0  0.34315841833E+01  0.11510452496E+02 -0.16827185839E+01  0.12128843865E+02  0.10500000000E+00 0.  1.
         13    1    4    4    0    0  0.57627128246E+01  0.18941270374E+02 -0.26566070762E+01  0.19976215073E+02  0.10500000000E+00 0. -1.
    3000001    1    5    5    0    0 -0.58482435858E+01 -0.26936575009E+02  0.74816979074E+01  0.28578957816E+02  0.10000000000E+01 0. -1.
        -13    1    6    6    0    0 -0.15077343370E+01 -0.19238808669E+02 -0.53998401787E+00  0.19305637249E+02  0.10500000000E+00 0. -1.
         13    1    6    6    0    0 -0.12056814241E+01 -0.14561843528E+02 -0.31319078150E+00  0.14615405164E+02  0.10500000000E+00 0.  1.
</event>
<event>
11    0  0.3494755E-009  0.9118800E+02  0.7816531E-02  0.1126479E+00
         25   -1    0    0    0    0  0.00000000000E+00  0.00000000000E+00  0.99999998245E-14  0.12500000000E+03  0.12500000000E+03 0.  0.
    3000001    1    3    3    0    0  0.38417023180E+01 -0.12255918774E+02 -0.31223196968E+02  0.33776534023E+02  0.10000000000E+01 0. -1.
    1000022    2    1    0    0    0  0.49943116521E+01 -0.30427788361E+02 -0.53436472621E+02  0.62499999452E+02  0.99999935900E+01 0.  0.
    3000022    2    3    3    0    0  0.11526093341E+01 -0.18171869587E+02 -0.22213275653E+02  0.28723465429E+02  0.24999682000E+00 0.  0.
    1000022    2    1    0    0    0 -0.49943116521E+01  0.30427788361E+02  0.53436472621E+02  0.62500000548E+02  0.10000000445E+02 0.  0.
    3000022    2    5    5    0    0 -0.33965078414E+01  0.13596735531E+02  0.15176316485E+02  0.20658909932E+02  0.24998982419E+00 0.  0.
        -13    1    4    4    0    0  0.50728831566E+00 -0.90618988032E+01 -0.11059574710E+02  0.14307360662E+02  0.10500000000E+00 0. -1.
         13    1    4    4    0    0  0.64532101841E+00 -0.91099707839E+01 -0.11153700944E+02  0.14416104767E+02  0.10500000000E+00 0.  1.
    3000001    1    5    5    0    0 -0.15978038107E+01  0.16831052830E+02  0.38260156136E+02  0.41841090616E+02  0.10000000000E+01 0.  1.
        -13    1    6    6    0    0 -0.17223668499E+01  0.66155143286E+01  0.73992196031E+01  0.10074276804E+02  0.10500000000E+00 0. -1.
         13    1    6    6    0    0 -0.16741409914E+01  0.69812212023E+01  0.77770968822E+01  0.10584633128E+02  0.10500000000E+00 0.  1.
</event>
<event>
11    0  0.3494755E-009  0.9118800E+02  0.7816531E-02  0.1126479E+00
         25   -1    0    0    0    0  0.00000000000E+00  0.00000000000E+00  0.99999998245E-14  0.12500000000E+03  0.12500000000E+03 0.  0.
    3000001    1    3    3    0    0  0.29852834099E+01 -0.52138551757E+01 -0.38150356480E+01  0.71868421317E+01  0.10000000000E+01 0.  1.
    1000022    2    1    0    0    0  0.45649269432E+02 -0.37804838194E+02 -0.17122743526E+02  0.62500000325E+02  0.10000005206E+02 0.  0.
    3000022    2    3    3    0    0  0.42663986022E+02 -0.32590983018E+02 -0.13307707878E+02  0.55313158193E+02  0.25000574027E+00 0.  0.
    1000022    2    1    0    0    0 -0.45649269432E+02  0.37804838194E+02  0.17122743526E+02  0.62499999675E+02  0.10000001148E+02 0.  0.
    3000022    2    5    5    0    0 -0.15498703377E+02  0.71401937282E+01  0.40291675075E+01  0.17535360384E+02  0.25000027331E+00 0.  0.
        -13    1    4    4    0    0  0.29867626983E+02 -0.22872401989E+02 -0.93165056615E+01  0.38756034589E+02  0.10500000000E+00 0. -1.
         13    1    4    4    0    0  0.12796359040E+02 -0.97185810290E+01 -0.39912022165E+01  0.16557123604E+02  0.10500000000E+00 0.  1.
    3000001    1    5    5    0    0 -0.30150566055E+02  0.30664644466E+02  0.13093576019E+02  0.44964639292E+02  0.10000000000E+01 0. -1.
        -13    1    6    6    0    0 -0.48380602929E+01  0.21917176574E+01  0.12903388317E+01  0.54668503718E+01  0.10500000000E+00 0. -1.
         13    1    6    6    0    0 -0.10660643084E+02  0.49484760708E+01  0.27388286757E+01  0.12068510012E+02  0.10500000000E+00 0.  1.
</event>
<event>
11    0  0.3494755E-009  0.9118800E+02  0.7816531E-02  0.1126479E+00
         25   -1    0    0    0    0  0.00000000000E+00  0.00000000000E+00  0.99999998245E-14  0.12500000000E+03  0.12500000000E+03 0.  0.
    3000001    1    3    3    0    0 -0.25199154852E+02  0.52776134123E+02 -0.66378239405E+00  0.58495797672E+02  0.10000000000E+01 0.  1.
    1000022    2    1    0    0    0 -0.25102776579E+02  0.56345553308E+02  0.11309616562E+01  0.62500000431E+02  0.10000010497E+02 0.  0.
    3000022    2    3    3    0    0  0.96378272474E-01  0.35694191855E+01  0.17947440502E+01  0.40042027588E+01  0.24998286884E+00 0.  0.
    1000022    2    1    0    0    0  0.25102776579E+02 -0.56345553308E+02 -0.11309616562E+01  0.62499999569E+02  0.10000005116E+02 0.  0.
    3000022    2    5    5    0    0  0.21820133693E+02 -0.54236356065E+02 -0.10223469000E+01  0.58470575976E+02  0.25001648754E+00 0.  0.
        -13    1    4    4    0    0  0.89605811017E-01  0.27271809949E+01  0.13670443113E+01  0.30537486028E+01  0.10500000000E+00 0. -1.
         13    1    4    4    0    0  0.67724614565E-02  0.84223819060E+00  0.42769973891E+00  0.95045415597E+00  0.10500000000E+00 0.  1.
    3000001    1    5    5    0    0  0.32826428858E+01 -0.21091972436E+01 -0.10861475618E+00  0.40294235932E+01  0.10000000000E+01 0. -1.
        -13    1    6    6    0    0  0.68836989245E+01 -0.17242595884E+02 -0.33361169645E+00  0.18569188067E+02  0.10500000000E+00 0.  1.
         13    1    6    6    0    0  0.14936434769E+02 -0.36993760181E+02 -0.68873520352E+00  0.39901387909E+02  0.10500000000E+00 0. -1.
</event>
<event>
11    0  0.3494755E-009  0.9118800E+02  0.7816531E-02  0.1126479E+00
         25   -1    0    0    0    0  0.00000000000E+00  0.00000000000E+00  0.99999998245E-14  0.12500000000E+03  0.12500000000E+03 0.  0.
    3000001    1    3    3    0    0 -0.18363975184E+02 -0.67814143269E+01  0.73080275797E+01  0.20919618351E+02  0.10000000000E+01 0. -1.
    1000022    2    1    0    0    0 -0.46359119233E+02 -0.26814963808E+02  0.30627427395E+02  0.62499999705E+02  0.10000021711E+02 0.  0.
    3000022    2    3    3    0    0 -0.27995144048E+02 -0.20033549481E+02  0.23319399815E+02  0.41580381354E+02  0.25002138048E+00 0.  0.
    1000022    2    1    0    0    0  0.46359119233E+02  0.26814963808E+02 -0.30627427395E+02  0.62500000295E+02  0.10000025403E+02 0.  0.
    3000022    2    5    5    0    0  0.43025851497E+02  0.22956690344E+02 -0.24864690175E+02  0.54740742071E+02  0.24999292789E+00 0.  0.
        -13    1    4    4    0    0 -0.15507704695E+02 -0.11134003316E+02  0.12860172312E+02  0.23018470663E+02  0.10500000000E+00 0.  1.
         13    1    4    4    0    0 -0.12487439353E+02 -0.88995461652E+01  0.10459227503E+02  0.18561910691E+02  0.10500000000E+00 0. -1.
    3000001    1    5    5    0    0  0.33332677359E+01  0.38582734641E+01 -0.57627372198E+01  0.77592582241E+01  0.10000000000E+01 0. -1.
        -13    1    6    6    0    0  0.27537050985E+02  0.14726295180E+02 -0.15977622873E+02  0.35077747994E+02  0.10500000000E+00 0.  1.
         13    1    6    6    0    0  0.15488800512E+02  0.82303951644E+01 -0.88870673017E+01  0.19662994077E+02  0.10500000000E+00 0. -1.
</event>
<event>
11    0  0.3494755E-009  0.9118800E+02  0.7816531E-02  0.1126479E+00
         25   -1    0    0    0    0  0.00000000000E+00  0.00000000000E+00  0.99999998245E-14  0.12500000000E+03  0.12500000000E+03 0.  0.
    3000001    1    3    3    0    0 -0.43122777437E+02  0.27633952375E+02 -0.10339997857E+02  0.52260164690E+02  0.10000000000E+01 0. -1.
    1000022    2    1    0    0    0 -0.52805385671E+02  0.30633711788E+02 -0.89116183380E+01  0.62499999904E+02  0.99999996388E+01 0.  0.
    3000022    2    3    3    0    0 -0.96826082339E+01  0.29997594135E+01  0.14283795188E+01  0.10239835214E+02  0.24999681266E+00 0.  0.
    1000022    2    1    0    0    0  0.52805385671E+02 -0.30633711788E+02  0.89116183380E+01  0.62500000096E+02  0.10000000839E+02 0.  0.
    3000022    2    5    5    0    0  0.27013775957E+02 -0.10398390916E+02  0.22629782791E+01  0.29035395555E+02  0.24999849772E+00 0.  0.
        -13    1    4    4    0    0 -0.55749321541E+01  0.17146152338E+01  0.75715608740E+00  0.58825236305E+01  0.10500000000E+00 0. -1.
         13    1    4    4    0    0 -0.41076760798E+01  0.12851441798E+01  0.67122343142E+00  0.43573115833E+01  0.10500000000E+00 0.  1.
    3000001    1    5    5    0    0  0.25791609715E+02 -0.20235320872E+02  0.66486400589E+01  0.33464604541E+02  0.10000000000E+01 0.  1.
        -13    1    6    6    0    0  0.10336638286E+02 -0.39985505180E+01  0.80795124107E+00  0.11112979237E+02  0.10500000000E+00 0. -1.
         13    1    6    6    0    0  0.16677137670E+02 -0.63998403984E+01  0.14550270380E+01  0.17922416318E+02  0.10500000000E+00 0.  1.
</event>
<event>
11    0  0.3494755E-009  0.9118800E+02  0.7816531E-02  0.1126479E+00
         25   -1    0    0    0    0  0.00000000000E+00  0.00000000000E+00  0.99999998245E-14  0.12500000000E+03  0.12500000000E+03 0.  0.
    3000001    1    3    3    0    0  0.34071443480E+02  0.19748699086E+02  0.28539031970E+01  0.39497077612E+02  0.10000000000E+01 0.  1.
    1000022    2    1    0    0    0  0.49582222543E+02  0.36681475053E+02  0.15239646119E+01  0.62499999325E+02  0.10000002152E+02 0.  0.
    3000022    2    3    3    0    0  0.15510779063E+02  0.16932775967E+02 -0.13299385851E+01  0.23002921713E+02  0.25000317979E+00 0.  0.
    1000022    2    1    0    0    0 -0.49582222543E+02 -0.36681475053E+02 -0.15239646119E+01  0.62500000675E+02  0.10000010593E+02 0.  0.
    3000022    2    5    5    0    0 -0.33958273479E+02 -0.27289188175E+02  0.30716665268E+01  0.43673352999E+02  0.24999597815E+00 0.  0.
        -13    1    4    4    0    0  0.58684013200E+01  0.63184468037E+01 -0.48931137114E+00  0.86377864457E+01  0.10500000000E+00 0.  1.
         13    1    4    4    0    0  0.96423777432E+01  0.10614329164E+02 -0.84062721397E+00  0.14365135267E+02  0.10500000000E+00 0. -1.
    3000001    1    5    5    0    0 -0.15623949064E+02 -0.93922868779E+01 -0.45956311387E+01  0.18826647676E+02  0.10000000000E+01 0. -1.
        -13    1    6    6    0    0 -0.22809750040E+02 -0.18396575900E+02  0.20735107346E+01  0.29377358178E+02  0.10500000000E+00 0. -1.
         13    1    6    6    0    0 -0.11148523439E+02 -0.88926122749E+01  0.99815579219E+00  0.14295994821E+02  0.10500000000E+00 0.  1.
</event>
<event>
11    0  0.3494755E-009  0.9118800E+02  0.7816531E-02  0.1126479E+00
         25   -1    0    0    0    0  0.00000000000E+00  0.00000000000E+00  0.99999998245E-14  0.12500000000E+03  0.12500000000E+03 0.  0.
    3000001    1    3    3    0    0  0.37892682969E+01 -0.48437853865E+01 -0.10815017121E+02  0.12481402422E+02  0.10000000000E+01 0.  1.
    1000022    2    1    0    0    0  0.14159540276E+02 -0.61958015483E+01 -0.59727460113E+02  0.62499999678E+02  0.99999965272E+01 0.  0.
    3000022    2    3    3    0    0  0.10370271979E+02 -0.13520161618E+01 -0.48912442992E+02  0.50018597256E+02  0.25000674506E+00 0.  0.
    1000022    2    1    0    0    0 -0.14159540276E+02  0.61958015483E+01  0.59727460113E+02  0.62500000322E+02  0.10000000549E+02 0.  0.
    3000022    2    5    5    0    0 -0.81763248976E-01 -0.17390308255E+01  0.27298657638E+01  0.32473958857E+01  0.24999901875E+00 0.  0.
        -13    1    4    4    0    0  0.63718810530E+01 -0.88914396954E+00 -0.30183384993E+02  0.30861613694E+02  0.10500000000E+00 0. -1.
         13    1    4    4    0    0  0.39983909261E+01 -0.46287219225E+00 -0.18729057999E+02  0.19156983562E+02  0.10500000000E+00 0.  1.
    3000001    1    5    5    0    0 -0.14077777027E+02  0.79348323738E+01  0.56997594349E+02  0.59252604436E+02  0.10000000000E+01 0. -1.
        -13    1    6    6    0    0  0.18411494082E-01 -0.89952421354E+00  0.13510686563E+01  0.16266205175E+01  0.10500000000E+00 0. -1.
         13    1    6    6    0    0 -0.10017474306E+00 -0.83950661194E+00  0.13787971075E+01  0.16207753682E+01  0.10500000000E+00 0.  1.
</event>
<event>
11    0  0.3494755E-009  0.9118800E+02  0.7816531E-02  0.1126479E+00
         25   -1    0    0    0    0  0.00000000000E+00  0.00000000000E+00  0.99999998245E-14  0.12500000000E+03  0.12500000000E+03 0.  0.
    3000001    1    3    3    0    0 -0.25138965584E+01 -0.12576818264E+02  0.59161812188E+02  0.60544331320E+02  0.10000000000E+01 0. -1.
    1000022    2    1    0    0    0 -0.13640807273E+01 -0.13816371863E+02  0.60112370549E+02  0.62500000202E+02  0.10000004231E+02 0.  0.
    3000022    2    3    3    0    0  0.11498158311E+01 -0.12395535982E+01  0.95055836015E+00  0.19556688822E+01  0.25002002381E+00 0.  0.
    1000022    2    1    0    0    0  0.13640807273E+01  0.13816371863E+02 -0.60112370549E+02  0.62499999798E+02  0.10000001704E+02 0.  0.
    3000022    2    5    5    0    0 -0.32611920447E+01  0.87960912696E+01 -0.43704779768E+02  0.44700971716E+02  0.25000516140E+00 0.  0.
        -13    1    4    4    0    0  0.67886554204E+00 -0.81534208628E+00  0.57024502681E+00  0.12090680429E+01  0.10500000000E+00 0. -1.
         13    1    4    4    0    0  0.47095028908E+00 -0.42421151193E+00  0.38031333334E+00  0.74660083924E+00  0.10500000000E+00 0.  1.
    3000001    1    5    5    0    0  0.46252727720E+01  0.50202805930E+01 -0.16407590781E+02  0.17799028082E+02  0.10000000000E+01 0.  1.
        -13    1    6    6    0    0 -0.19824877963E+01  0.52121321796E+01 -0.25771121770E+02  0.26367751554E+02  0.10500000000E+00 0.  1.
         13    1    6    6    0    0 -0.12787042485E+01  0.35839590900E+01 -0.17933657998E+02  0.18333220162E+02  0.10500000000E+00 0. -1.
</event>
<event>
11    0  0.3494755E-009  0.9118800E+02  0.7816531E-02  0.1126479E+00
         25   -1    0    0    0    0  0.00000000000E+00  0.00000000000E+00  0.99999998245E-14  0.12500000000E+03  0.12500000000E+03 0.  0.
    3000001    1    3    3    0    0 -0.41320415834E+02  0.21117269435E+02  0.21027856363E+02  0.50955731535E+02  0.10000000000E+01 0.  1.
    1000022    2    1    0    0    0 -0.51020877861E+02  0.27364382637E+02  0.21314557879E+02  0.62499998395E+02  0.10000000351E+02 0.  0.
    3000022    2    3    3    0    0 -0.97004620268E+01  0.62471132019E+01  0.28670151615E+00  0.11544266860E+02  0.25002535363E+00 0.  0.
    1000022    2    1    0    0    0  0.51020877861E+02 -0.27364382637E+02 -0.21314557879E+02  0.62500001605E+02  0.10000020411E+02 0.  0.
    3000022    2    5    5    0    0  0.31510170058E+02 -0.19787579207E+02 -0.93303228206E+01  0.38360872393E+02  0.24999766667E+00 0.  0.
        -13    1    4    4    0    0 -0.32241945972E+01  0.21269315188E+01  0.12903528315E+00  0.38661277256E+01  0.10500000000E+00 0.  1.
         13    1    4    4    0    0 -0.64762674296E+01  0.41201816831E+01  0.15766623300E+00  0.76781391341E+01  0.10500000000E+00 0. -1.
    3000001    1    5    5    0    0  0.19510707803E+02 -0.75768034303E+01 -0.11984235058E+02  0.24139129212E+02  0.10000000000E+01 0.  1.
        -13    1    6    6    0    0  0.12361499884E+02 -0.76924718110E+01 -0.36324371092E+01  0.15006212924E+02  0.10500000000E+00 0. -1.
         13    1    6    6    0    0  0.19148670173E+02 -0.12095107396E+02 -0.56978857114E+01  0.23354659469E+02  0.10500000000E+00 0.  1.
</event>
<event>
11    0  0.3494755E-009  0.9118800E+02  0.7816531E-02  0.1126479E+00
         25   -1    0    0    0    0  0.00000000000E+00  0.00000000000E+00  0.99999998245E-14  0.12500000000E+03  0.12500000000E+03 0.  0.
    3000001    1    3    3    0    0  0.20515335648E+02 -0.98840884511E+01  0.15979706847E+02  0.27837478912E+02  0.10000000000E+01 0.  1.
    1000022    2    1    0    0    0  0.39920200217E+02 -0.31316778887E+02  0.35098249062E+02  0.62499996760E+02  0.99999741258E+01 0.  0.
    3000022    2    3    3    0    0  0.19404864569E+02 -0.21432690436E+02  0.19118542215E+02  0.34662517848E+02  0.24999770628E+00 0.  0.
    1000022    2    1    0    0    0 -0.39920200217E+02  0.31316778887E+02 -0.35098249062E+02  0.62500003240E+02  0.10000014629E+02 0.  0.
    3000022    2    5    5    0    0 -0.17178462851E+02  0.94369734808E+01 -0.17905776344E+02  0.26548735930E+02  0.24999722347E+00 0.  0.
        -13    1    4    4    0    0  0.12169869022E+02 -0.13355449256E+02  0.11927875187E+02  0.21650842208E+02  0.10500000000E+00 0.  1.
         13    1    4    4    0    0  0.72349955471E+01 -0.80772411794E+01  0.71906670281E+01  0.13011675639E+02  0.10500000000E+00 0. -1.
    3000001    1    5    5    0    0 -0.22741737366E+02  0.21879805406E+02 -0.17192472719E+02  0.35951267310E+02  0.10000000000E+01 0. -1.
        -13    1    6    6    0    0 -0.10712783609E+02  0.58329106703E+01 -0.11196814937E+02  0.16557966943E+02  0.10500000000E+00 0.  1.
         13    1    6    6    0    0 -0.64656792420E+01  0.36040628105E+01 -0.67089614068E+01  0.99907689874E+01  0.10500000000E+00 0. -1.
</event>
<event>
11    0  0.3494755E-009  0.9118800E+02  0.7816531E-02  0.1126479E+00
         25   -1    0    0    0    0  0.00000000000E+00  0.00000000000E+00  0.99999998245E-14  0.12500000000E+03  0.12500000000E+03 0.  0.
    3000001    1    3    3    0    0 -0.39820391484E+00 -0.26511315650E+01  0.55962174335E+02  0.56035274794E+02  0.10000000000E+01 0. -1.
    1000022    2    1    0    0    0  0.81925756560E+00 -0.59093773931E+01  0.61405684507E+02  0.62500000193E+02  0.10000000515E+02 0.  0.
    3000022    2    3    3    0    0  0.12174614804E+01 -0.32582458281E+01  0.54435101716E+01  0.64647253993E+01  0.24998633387E+00 0.  0.
    1000022    2    1    0    0    0 -0.81925756560E+00  0.59093773931E+01 -0.61405684507E+02  0.62499999807E+02  0.99999980976E+01 0.  0.
    3000022    2    5    5    0    0  0.21883253183E+01 -0.20580289270E+01 -0.18784222299E+02  0.19024556635E+02  0.24999400716E+00 0.  0.
        -13    1    4    4    0    0  0.35203104590E+00 -0.85481259217E+00  0.14232760539E+01  0.17004029377E+01  0.10500000000E+00 0.  1.
         13    1    4    4    0    0  0.86543043455E+00 -0.24034332359E+01  0.40202341177E+01  0.47643224616E+01  0.10500000000E+00 0. -1.
    3000001    1    5    5    0    0 -0.30075828839E+01  0.79674063201E+01 -0.42621462208E+02  0.43475443172E+02  0.10000000000E+01 0. -1.
        -13    1    6    6    0    0  0.15853874968E+01 -0.14743117049E+01 -0.13747336086E+02  0.13917159300E+02  0.10500000000E+00 0. -1.
         13    1    6    6    0    0  0.60293782145E+00 -0.58371722208E+00 -0.50368862128E+01  0.51073973345E+01  0.10500000000E+00 0.  1.
</event>
<event>
11    0  0.3494755E-009  0.9118800E+02  0.7816531E-02  0.1126479E+00
         25   -1    0    0    0    0  0.00000000000E+00  0.00000000000E+00  0.99999998245E-14  0.12500000000E+03  0.12500000000E+03 0.  0.
    3000001    1    3    3    0    0 -0.42564085876E+02 -0.37071798984E+02 -0.21756298319E+02  0.60500877704E+02  0.10000000000E+01 0.  1.
    1000022    2    1    0    0    0 -0.42808618285E+02 -0.37607687980E+02 -0.23650237283E+02  0.62499997829E+02  0.10000000518E+02 0.  0.
    3000022    2    3    3    0    0 -0.24453240902E+00 -0.53588899542E+00 -0.18939389642E+01  0.19991201246E+01  0.25000671651E+00 0.  0.
    1000022    2    1    0    0    0  0.42808618285E+02  0.37607687980E+02  0.23650237283E+02  0.62500002171E+02  0.10000027659E+02 0.  0.
    3000022    2    5    5    0    0  0.57558384106E+01  0.10003006250E+02  0.61669148102E+01  0.13087518784E+02  0.24999957373E+00 0.  0.
        -13    1    4    4    0    0 -0.86906778140E-01 -0.19818744889E+00 -0.92303757074E+00  0.95386288846E+00  0.10500000000E+00 0.  1.
         13    1    4    4    0    0 -0.15762563088E+00 -0.33770154652E+00 -0.97090139342E+00  0.10452572362E+01  0.10500000000E+00 0. -1.
    3000001    1    5    5    0    0  0.37052779875E+02  0.27604681729E+02  0.17483322473E+02  0.49412483388E+02  0.10000000000E+01 0.  1.
        -13    1    6    6    0    0  0.31111263985E+01  0.55315046093E+01  0.33637335331E+01  0.71834795880E+01  0.10500000000E+00 0.  1.
         13    1    6    6    0    0  0.26447120120E+01  0.44715016409E+01  0.28031812771E+01  0.59040391957E+01  0.10500000000E+00 0. -1.
</event>
<event>
11    0  0.3494755E-009  0.9118800E+02  0.7816531E-02  0.1126479E+00
         25   -1    0    0    0    0  0.00000000000E+00  0.00000000000E+00  0.99999998245E-14  0.12500000000E+03  0.12500000000E+03 0.  0.
    3000001    1    3    3    0    0  0.31435252539E+02  0.24668267212E+02  0.36930875395E+02  0.54420474703E+02  0.10000000000E+01 0.  1.
    1000022    2    1    0    0    0  0.32725081707E+02  0.28002674004E+02  0.44172033682E+02  0.62500004588E+02  0.10000064488E+02 0.  0.
    3000022    2    3    3    0    0  0.12898291688E+01  0.33344067920E+01  0.72411582867E+01  0.80795298853E+01  0.25000378974E+00 0.  0.
    1000022    2    1    0    0    0 -0.32725081707E+02 -0.28002674004E+02 -0.44172033682E+02  0.62499995412E+02  0.10000007135E+02 0.  0.
    3000022    2    5    5    0    0 -0.25112143139E+02 -0.18962641624E+02 -0.37265730953E+02  0.48774980421E+02  0.25000258799E+00 0.  0.
        -13    1    4    4    0    0  0.65467103750E+00  0.18732316878E+01  0.39865208186E+01  0.44543197416E+01  0.10500000000E+00 0. -1.
         13    1    4    4    0    0  0.63515813127E+00  0.14611751042E+01  0.32546374681E+01  0.36252101437E+01  0.10500000000E+00 0.  1.
    3000001    1    5    5    0    0 -0.76129385685E+01 -0.90400323809E+01 -0.69063027294E+01  0.13725014990E+02  0.10000000000E+01 0. -1.
        -13    1    6    6    0    0 -0.16327982203E+02 -0.12360195120E+02 -0.24330538109E+02  0.31801942329E+02  0.10500000000E+00 0. -1.
         13    1    6    6    0    0 -0.87841609354E+01 -0.66024465032E+01 -0.12935192844E+02  0.16973038092E+02  0.10500000000E+00 0.  1.
</event>
<event>
11    0  0.3494755E-009  0.9118800E+02  0.7816531E-02  0.1126479E+00
         25   -1    0    0    0    0  0.00000000000E+00  0.00000000000E+00  0.99999998245E-14  0.12500000000E+03  0.12500000000E+03 0.  0.
    3000001    1    3    3    0    0 -0.57274624745E+01 -0.14726744002E+02  0.31951181517E+02  0.35658923366E+02  0.10000000000E+01 0. -1.
    1000022    2    1    0    0    0 -0.40290834833E+01 -0.20075617091E+02  0.58197819266E+02  0.62500000568E+02  0.99999994181E+01 0.  0.
    3000022    2    3    3    0    0  0.16983789912E+01 -0.53488730891E+01  0.26246637750E+02  0.26841077202E+02  0.24999540179E+00 0.  0.
    1000022    2    1    0    0    0  0.40290834833E+01  0.20075617091E+02 -0.58197819266E+02  0.62499999432E+02  0.99999923147E+01 0.  0.
    3000022    2    5    5    0    0  0.44340612703E-01  0.50613957621E+01 -0.51898740164E+01  0.72537572293E+01  0.25001696936E+00 0.  0.
        -13    1    4    4    0    0  0.11365274009E+01 -0.37290910872E+01  0.18156182929E+02  0.18570293978E+02  0.10500000000E+00 0. -1.
         13    1    4    4    0    0  0.56185159032E+00 -0.16197820019E+01  0.80904548200E+01  0.82707832240E+01  0.10500000000E+00 0.  1.
    3000001    1    5    5    0    0  0.39847428706E+01  0.15014221329E+02 -0.53007945250E+02  0.55246242202E+02  0.10000000000E+01 0. -1.
        -13    1    6    6    0    0 -0.20916528224E-01  0.14268376350E+01 -0.14329349495E+01  0.20250014092E+01  0.10500000000E+00 0.  1.
         13    1    6    6    0    0  0.65257140927E-01  0.36345581271E+01 -0.37569390669E+01  0.52287558201E+01  0.10500000000E+00 0. -1.
</event>
<event>
11    0  0.3494755E-009  0.9118800E+02  0.7816531E-02  0.1126479E+00
         25   -1    0    0    0    0  0.00000000000E+00  0.00000000000E+00  0.99999998245E-14  0.12500000000E+03  0.12500000000E+03 0.  0.
    3000001    1    3    3    0    0 -0.18050292995E+00  0.96721225512E+01  0.50598493908E+02  0.51524655474E+02  0.10000000000E+01 0.  1.
    1000022    2    1    0    0    0  0.41784743549E+01  0.10708073525E+02  0.60614577137E+02  0.62500004911E+02  0.10000058291E+02 0.  0.
    3000022    2    3    3    0    0  0.43589772848E+01  0.10359509743E+01  0.10016083228E+02  0.10975349437E+02  0.24998924869E+00 0.  0.
    1000022    2    1    0    0    0 -0.41784743549E+01 -0.10708073525E+02 -0.60614577137E+02  0.62499995089E+02  0.99999969075E+01 0.  0.
    3000022    2    5    5    0    0 -0.38693929441E+01  0.26820738238E+00 -0.22058611116E+02  0.22398414202E+02  0.24999487285E+00 0.  0.
        -13    1    4    4    0    0  0.19272429338E+01  0.46974762825E+00  0.45959863096E+01  0.50068995714E+01  0.10500000000E+00 0.  1.
         13    1    4    4    0    0  0.24317343511E+01  0.56620334602E+00  0.54200969188E+01  0.59684498651E+01  0.10500000000E+00 0. -1.
    3000001    1    5    5    0    0 -0.30908141078E+00 -0.10976280908E+02 -0.38555966020E+02  0.40101580887E+02  0.10000000000E+01 0.  1.
        -13    1    6    6    0    0 -0.18060985015E+01  0.69625824301E-01 -0.10057735254E+02  0.10219388582E+02  0.10500000000E+00 0. -1.
         13    1    6    6    0    0 -0.20632944426E+01  0.19858155808E+00 -0.12000875863E+02  0.12179025620E+02  0.10500000000E+00 0.  1.
</event>
<event>
11    0  0.3494755E-009  0.9118800E+02  0.7816531E-02  0.1126479E+00
         25   -1    0    0    0    0  0.00000000000E+00  0.00000000000E+00  0.99999998245E-14  0.12500000000E+03  0.12500000000E+03 0.  0.
    3000001    1    3    3    0    0 -0.90403057317E+00 -0.14460562644E+01  0.97174173704E-01  0.19793415110E+01  0.10000000000E+01 0.  1.
    1000022    2    1    0    0    0 -0.29384268392E+02 -0.35059798092E+02 -0.41395958179E+02  0.62500000132E+02  0.99999995865E+01 0.  0.
    3000022    2    3    3    0    0 -0.28480237819E+02 -0.33613741828E+02 -0.41493132353E+02  0.60520658621E+02  0.25000317138E+00 0.  0.
    1000022    2    1    0    0    0  0.29384268392E+02  0.35059798092E+02  0.41395958179E+02  0.62499999868E+02  0.99999979360E+01 0.  0.
    3000022    2    5    5    0    0  0.11201021679E+02  0.80750788183E+01  0.16499243345E+02  0.21516442862E+02  0.24999580453E+00 0.  0.
        -13    1    4    4    0    0 -0.14878632139E+02 -0.17552921966E+02 -0.21578751740E+02  0.31545717863E+02  0.10500000000E+00 0. -1.
         13    1    4    4    0    0 -0.13601605680E+02 -0.16060819862E+02 -0.19914380612E+02  0.28974940758E+02  0.10500000000E+00 0.  1.
    3000001    1    5    5    0    0  0.18183246713E+02  0.26984719274E+02  0.24896714834E+02  0.40983557006E+02  0.10000000000E+01 0. -1.
        -13    1    6    6    0    0  0.67563492362E+01  0.49011460521E+01  0.10062479384E+02  0.13074173166E+02  0.10500000000E+00 0.  1.
         13    1    6    6    0    0  0.44446724425E+01  0.31739327662E+01  0.64367639617E+01  0.84422696963E+01  0.10500000000E+00 0. -1.
</event>
<event>
11    0  0.3494755E-009  0.9118800E+02  0.7816531E-02  0.1126479E+00
         25   -1    0    0    0    0  0.00000000000E+00  0.00000000000E+00  0.99999998245E-14  0.12500000000E+03  0.12500000000E+03 0.  0.
    3000001    1    3    3    0    0  0.52716926242E+02 -0.59139231336E+01 -0.28798717482E+02  0.60368989787E+02  0.10000000000E+01 0.  1.
    1000022    2    1    0    0    0  0.53343053129E+02 -0.74767445069E+01 -0.30081006146E+02  0.62499999866E+02  0.10000001347E+02 0.  0.
    3000022    2    3    3    0    0  0.62612688692E+00 -0.15628213734E+01 -0.12822886638E+01  0.21310100793E+01  0.24998843433E+00 0.  0.
    1000022    2    1    0    0    0 -0.53343053129E+02  0.74767445069E+01  0.30081006146E+02  0.62500000134E+02  0.10000003022E+02 0.  0.
    3000022    2    5    5    0    0 -0.38739571689E+02  0.31816991454E+01  0.25807236888E+02  0.46657835241E+02  0.24997891729E+00 0.  0.
        -13    1    4    4    0    0  0.22768156783E+00 -0.60541307013E+00 -0.42075040384E+00  0.77872959630E+00  0.10500000000E+00 0.  1.
         13    1    4    4    0    0  0.39844531908E+00 -0.95740830323E+00 -0.86153825994E+00  0.13522804830E+01  0.10500000000E+00 0. -1.
    3000001    1    5    5    0    0 -0.14603481440E+02  0.42950453615E+01  0.42737692572E+01  0.15842164893E+02  0.10000000000E+01 0. -1.
        -13    1    6    6    0    0 -0.27232534781E+02  0.22586242141E+01  0.18189666851E+02  0.32826625460E+02  0.10500000000E+00 0.  1.
         13    1    6    6    0    0 -0.11507036908E+02  0.92307493127E+00  0.76175700376E+01  0.13831209781E+02  0.10500000000E+00 0. -1.
</event>
<event>
11    0  0.3494755E-009  0.9118800E+02  0.7816531E-02  0.1126479E+00
         25   -1    0    0    0    0  0.00000000000E+00  0.00000000000E+00  0.99999998245E-14  0.12500000000E+03  0.12500000000E+03 0.  0.
    3000001    1    3    3    0    0 -0.68930723880E+00  0.76365393332E+01 -0.26261320782E+02  0.27376063388E+02  0.10000000000E+01 0.  1.
    1000022    2    1    0    0    0  0.85516097384E+01  0.12672618556E+02 -0.59770600280E+02  0.62500000404E+02  0.10000005125E+02 0.  0.
    3000022    2    3    3    0    0  0.92409169772E+01  0.50360792230E+01 -0.33509279499E+02  0.35123937016E+02  0.24999692759E+00 0.  0.
    1000022    2    1    0    0    0 -0.85516097384E+01 -0.12672618556E+02  0.59770600280E+02  0.62499999596E+02  0.10000000072E+02 0.  0.
    3000022    2    5    5    0    0 -0.95834168018E+01 -0.81630599809E+01  0.51027703582E+02  0.52558219723E+02  0.25000354513E+00 0.  0.
        -13    1    4    4    0    0  0.38747727919E+01  0.21740096199E+01 -0.14030408156E+02  0.14717457662E+02  0.10500000000E+00 0.  1.
         13    1    4    4    0    0  0.53661441853E+01  0.28620696031E+01 -0.19478871343E+02  0.20406479354E+02  0.10500000000E+00 0. -1.
    3000001    1    5    5    0    0  0.10318070633E+01 -0.45095585753E+01  0.87428966983E+01  0.99417798727E+01  0.10000000000E+01 0. -1.
        -13    1    6    6    0    0 -0.60273150898E+01 -0.52110270933E+01  0.32260588040E+02  0.33230105270E+02  0.10500000000E+00 0.  1.
         13    1    6    6    0    0 -0.35561017120E+01 -0.29520328876E+01  0.18767115542E+02  0.19328114453E+02  0.10500000000E+00 0. -1.
</event>
<event>
11    0  0.3494755E-009  0.9118800E+02  0.7816531E-02  0.1126479E+00
         25   -1    0    0    0    0  0.00000000000E+00  0.00000000000E+00  0.99999998245E-14  0.12500000000E+03  0.12500000000E+03 0.  0.
    3000001    1    3    3    0    0 -0.16128858354E+01  0.14716575854E+01 -0.30657967805E+00  0.24209848958E+01  0.10000000000E+01 0.  1.
    1000022    2    1    0    0    0 -0.48623947993E+02  0.21721705542E+02  0.31146896463E+02  0.62500000100E+02  0.10000002159E+02 0.  0.
    3000022    2    3    3    0    0 -0.47011062158E+02  0.20250047956E+02  0.31453476141E+02  0.60079015204E+02  0.24999829731E+00 0.  0.
    1000022    2    1    0    0    0  0.48623947993E+02 -0.21721705542E+02 -0.31146896463E+02  0.62499999900E+02  0.10000000905E+02 0.  0.
    3000022    2    5    5    0    0  0.43077227597E+02 -0.20416250284E+02 -0.24207397352E+02  0.53465235459E+02  0.25000608224E+00 0.  0.
        -13    1    4    4    0    0 -0.31995037524E+02  0.13726790602E+02  0.21397130016E+02  0.40865087842E+02  0.10500000000E+00 0. -1.
         13    1    4    4    0    0 -0.15016024634E+02  0.65232573545E+01  0.10056346125E+02  0.19213927363E+02  0.10500000000E+00 0.  1.
    3000001    1    5    5    0    0  0.55467203962E+01 -0.13054552573E+01 -0.69394991111E+01  0.90347644405E+01  0.10000000000E+01 0.  1.
        -13    1    6    6    0    0  0.21824988615E+02 -0.10271505815E+02 -0.12269098842E+02  0.27062442077E+02  0.10500000000E+00 0. -1.
         13    1    6    6    0    0  0.21252238982E+02 -0.10144744469E+02 -0.11938298510E+02  0.26402793383E+02  0.10500000000E+00 0.  1.
</event>
<event>
11    0  0.3494755E-009  0.9118800E+02  0.7816531E-02  0.1126479E+00
         25   -1    0    0    0    0  0.00000000000E+00  0.00000000000E+00  0.99999998245E-14  0.12500000000E+03  0.12500000000E+03 0.  0.
    3000001    1    3    3    0    0 -0.19818048826E+02 -0.27871632640E+02 -0.35162567296E+02  0.49061075244E+02  0.10000000000E+01 0.  1.
    1000022    2    1    0    0    0 -0.20185286571E+02 -0.36386769593E+02 -0.45550050302E+02  0.62500000952E+02  0.10000012055E+02 0.  0.
    3000022    2    3    3    0    0 -0.36723774487E+00 -0.85151369531E+01 -0.10387483006E+02  0.13438925708E+02  0.25000016194E+00 0.  0.
    1000022    2    1    0    0    0  0.20185286571E+02  0.36386769593E+02  0.45550050302E+02  0.62499999048E+02  0.10000000157E+02 0.  0.
    3000022    2    5    5    0    0  0.20017847353E+02  0.29851394200E+02  0.35894485547E+02  0.50796619273E+02  0.24997709657E+00 0.  0.
        -13    1    4    4    0    0 -0.17057729580E+00 -0.37202894355E+01 -0.44366766466E+01  0.57935114364E+01  0.10500000000E+00 0.  1.
         13    1    4    4    0    0 -0.19666044907E+00 -0.47948475177E+01 -0.59508063595E+01  0.76454142712E+01  0.10500000000E+00 0. -1.
    3000001    1    5    5    0    0  0.16743921745E+00  0.65353753927E+01  0.96555647550E+01  0.11703379775E+02  0.10000000000E+01 0.  1.
        -13    1    6    6    0    0  0.10141834995E+02  0.15028840425E+02  0.18166556275E+02  0.25666274632E+02  0.10500000000E+00 0. -1.
         13    1    6    6    0    0  0.98760123586E+01  0.14822553775E+02  0.17727929272E+02  0.25130344641E+02  0.10500000000E+00 0.  1.
</event>
<event>
11    0  0.3494755E-009  0.9118800E+02  0.7816531E-02  0.1126479E+00
         25   -1    0    0    0    0  0.00000000000E+00  0.00000000000E+00  0.99999998245E-14  0.12500000000E+03  0.12500000000E+03 0.  0.
    3000001    1    3    3    0    0 -0.46264876386E+01  0.15887206052E+01  0.27302933156E+01  0.56905994957E+01  0.10000000000E+01 0. -1.
    1000022    2    1    0    0    0 -0.30488897855E+02  0.37624831536E+02  0.38223671987E+02  0.62499999915E+02  0.10000002431E+02 0.  0.
    3000022    2    3    3    0    0 -0.25862410217E+02  0.36036110931E+02  0.35493378671E+02  0.56809400419E+02  0.24998641608E+00 0.  0.
    1000022    2    1    0    0    0  0.30488897855E+02 -0.37624831536E+02 -0.38223671987E+02  0.62500000085E+02  0.10000003499E+02 0.  0.
    3000022    2    5    5    0    0  0.22624009887E+02 -0.26074499930E+02 -0.21441808210E+02  0.40639131512E+02  0.25000154140E+00 0.  0.
        -13    1    4    4    0    0 -0.95389180990E+01  0.13260987412E+02  0.13144034857E+02  0.20967151045E+02  0.10500000000E+00 0. -1.
         13    1    4    4    0    0 -0.16323492118E+02  0.22775123520E+02  0.22349343814E+02  0.35842249374E+02  0.10500000000E+00 0.  1.
    3000001    1    5    5    0    0  0.78648879684E+01 -0.11550331607E+02 -0.16781863777E+02  0.21860868574E+02  0.10000000000E+01 0.  1.
        -13    1    6    6    0    0  0.15896814962E+02 -0.18380971250E+02 -0.15119461999E+02  0.28621285543E+02  0.10500000000E+00 0. -1.
         13    1    6    6    0    0  0.67271949251E+01 -0.76935286802E+01 -0.63223462106E+01  0.12017845968E+02  0.10500000000E+00 0.  1.
</event>
<event>
11    0  0.3494755E-009  0.9118800E+02  0.7816531E-02  0.1126479E+00
         25   -1    0    0    0    0  0.00000000000E+00  0.00000000000E+00  0.99999998245E-14  0.12500000000E+03  0.12500000000E+03 0.  0.
    3000001    1    3    3    0    0  0.13282923802E+02 -0.10870660712E+02  0.33871964535E+02  0.37985751415E+02  0.10000000000E+01 0.  1.
    1000022    2    1    0    0    0  0.23214294962E+02 -0.24562385361E+02  0.51614298001E+02  0.62499999629E+02  0.99999965194E+01 0.  0.
    3000022    2    3    3    0    0  0.99313711592E+01 -0.13691724649E+02  0.17742333465E+02  0.24514248215E+02  0.25002354857E+00 0.  0.
    1000022    2    1    0    0    0 -0.23214294962E+02  0.24562385361E+02 -0.51614298001E+02  0.62500000371E+02  0.10000001152E+02 0.  0.
    3000022    2    5    5    0    0 -0.51178984463E+01  0.11259089751E+02 -0.14030285916E+02  0.18704849894E+02  0.25000026601E+00 0.  0.
        -13    1    4    4    0    0  0.28797521705E+01 -0.40388729388E+01  0.51786470843E+01  0.71718113335E+01  0.10500000000E+00 0. -1.
         13    1    4    4    0    0  0.70516189887E+01 -0.96528517099E+01  0.12563686381E+02  0.17342436881E+02  0.10500000000E+00 0.  1.
    3000001    1    5    5    0    0 -0.18096396515E+02  0.13303295610E+02 -0.37584012085E+02  0.43795150477E+02  0.10000000000E+01 0.  1.
        -13    1    6    6    0    0 -0.21223725794E+01  0.47356459305E+01 -0.59761480436E+01  0.79155655631E+01  0.10500000000E+00 0. -1.
         13    1    6    6    0    0 -0.29955258669E+01  0.65234438202E+01 -0.80541378725E+01  0.10789284330E+02  0.10500000000E+00 0.  1.
</event>
<event>
11    0  0.3494755E-009  0.9118800E+02  0.7816531E-02  0.1126479E+00
         25   -1    0    0    0    0  0.00000000000E+00  0.00000000000E+00  0.99999998245E-14  0.12500000000E+03  0.12500000000E+03 0.  0.
    3000001    1    3    3    0    0  0.34538568833E+02  0.37577767159E+02  0.14560180409E+02  0.53084839410E+02  0.10000000000E+01 0. -1.
    1000022    2    1    0    0    0  0.42820674245E+02  0.40715426414E+02  0.17745241591E+02  0.62500002281E+02  0.10000029755E+02 0.  0.
    3000022    2    3    3    0    0  0.82821054116E+01  0.31376592558E+01  0.31850611815E+01  0.94151628705E+01  0.25000298603E+00 0.  0.
    1000022    2    1    0    0    0 -0.42820674245E+02 -0.40715426414E+02 -0.17745241591E+02  0.62499997719E+02  0.10000001249E+02 0.  0.
    3000022    2    5    5    0    0 -0.33884154333E+02 -0.37040399919E+02 -0.14401707844E+02  0.52226418704E+02  0.24996167361E+00 0.  0.
        -13    1    4    4    0    0  0.57893142621E+01  0.21448019686E+01  0.22080654973E+01  0.65576606614E+01  0.10500000000E+00 0.  1.
         13    1    4    4    0    0  0.24927911496E+01  0.99285728719E+00  0.97699568415E+00  0.28575022091E+01  0.10500000000E+00 0. -1.
    3000001    1    5    5    0    0 -0.89365199112E+01 -0.36750264957E+01 -0.33435337462E+01  0.10273579015E+02  0.10000000000E+01 0. -1.
        -13    1    6    6    0    0 -0.17243076766E+02 -0.18798012647E+02 -0.72573187059E+01  0.26521098688E+02  0.10500000000E+00 0. -1.
         13    1    6    6    0    0 -0.16641077567E+02 -0.18242387272E+02 -0.71443891384E+01  0.25705320016E+02  0.10500000000E+00 0.  1.
</event>
<event>
11    0  0.3494755E-009  0.9118800E+02  0.7816531E-02  0.1126479E+00
         25   -1    0    0    0    0  0.00000000000E+00  0.00000000000E+00  0.99999998245E-14  0.12500000000E+03  0.12500000000E+03 0.  0.
    3000001    1    3    3    0    0 -0.18266100536E+02 -0.37088729110E+01 -0.21682767164E+02  0.28610287642E+02  0.10000000000E+01 0. -1.
    1000022    2    1    0    0    0 -0.38520357684E+02 -0.18390643646E+02 -0.44544545501E+02  0.62500001539E+02  0.99999964295E+01 0.  0.
    3000022    2    3    3    0    0 -0.20254257149E+02 -0.14681770735E+02 -0.22861778337E+02  0.33889713897E+02  0.24994945252E+00 0.  0.
    1000022    2    1    0    0    0  0.38520357684E+02  0.18390643646E+02  0.44544545501E+02  0.62499998461E+02  0.99999771970E+01 0.  0.
    3000022    2    5    5    0    0  0.29879769400E+02  0.10791490680E+02  0.36684362042E+02  0.48528979326E+02  0.25005083912E+00 0.  0.
        -13    1    4    4    0    0 -0.14384722761E+02 -0.10422188095E+02 -0.16175687347E+02  0.24025114770E+02  0.10500000000E+00 0. -1.
         13    1    4    4    0    0 -0.58695343879E+01 -0.42595826401E+01 -0.66860909904E+01  0.98645991267E+01  0.10500000000E+00 0.  1.
    3000001    1    5    5    0    0  0.86405882843E+01  0.75991529653E+01  0.78601834589E+01  0.13971019136E+02  0.10000000000E+01 0. -1.
        -13    1    6    6    0    0  0.15196014563E+02  0.55260370721E+01  0.18583185311E+02  0.24633346212E+02  0.10500000000E+00 0.  1.
         13    1    6    6    0    0  0.14683754838E+02  0.52654536083E+01  0.18101176731E+02  0.23895633113E+02  0.10500000000E+00 0. -1.
</event>
<event>
11    0  0.3494755E-009  0.9118800E+02  0.7816531E-02  0.1126479E+00
         25   -1    0    0    0    0  0.00000000000E+00  0.00000000000E+00  0.99999998245E-14  0.12500000000E+03  0.12500000000E+03 0.  0.
    3000001    1    3    3    0    0  0.94730953842E+00  0.59593071862E+00  0.12012271688E+02  0.12105668089E+02  0.10000000000E+01 0.  1.
    1000022    2    1    0    0    0  0.84869374174E+00 -0.16208065084E+02  0.59521662620E+02  0.62500000497E+02  0.10000004316E+02 0.  0.
    3000022    2    3    3    0    0 -0.98615796681E-01 -0.16803995803E+02  0.47509390932E+02  0.50394332408E+02  0.25002428793E+00 0.  0.
    1000022    2    1    0    0    0 -0.84869374174E+00  0.16208065084E+02 -0.59521662620E+02  0.62499999503E+02  0.99999980994E+01 0.  0.
    3000022    2    5    5    0    0  0.15993783002E+01  0.12221023460E+02 -0.52980888066E+02  0.54396217090E+02  0.25001611410E+00 0.  0.
        -13    1    4    4    0    0 -0.28528764039E-01 -0.68402572993E+01  0.19152083653E+02  0.20337238432E+02  0.10500000000E+00 0. -1.
         13    1    4    4    0    0 -0.70087032642E-01 -0.99637385034E+01  0.28357307279E+02  0.30057093976E+02  0.10500000000E+00 0.  1.
    3000001    1    5    5    0    0 -0.24480720420E+01  0.39870416240E+01 -0.65407745538E+01  0.81037824130E+01  0.10000000000E+01 0.  1.
        -13    1    6    6    0    0  0.11674472077E+01  0.91298666460E+01 -0.39525329792E+02  0.40583002823E+02  0.10500000000E+00 0.  1.
         13    1    6    6    0    0  0.43193109252E+00  0.30911568140E+01 -0.13455558274E+02  0.13813214267E+02  0.10500000000E+00 0. -1.
</event>
<event>
11    0  0.3494755E-009  0.9118800E+02  0.7816531E-02  0.1126479E+00
         25   -1    0    0    0    0  0.00000000000E+00  0.00000000000E+00  0.99999998245E-14  0.12500000000E+03  0.12500000000E+03 0.  0.
    3000001    1    3    3    0    0 -0.22417635170E+02  0.24444856943E+02 -0.20537594322E+02  0.39024276779E+02  0.10000000000E+01 0.  1.
    1000022    2    1    0    0    0 -0.31490289125E+02  0.44271873889E+02 -0.29233753678E+02  0.62499994744E+02  0.99999931077E+01 0.  0.
    3000022    2    3    3    0    0 -0.90726539546E+01  0.19827016946E+02 -0.86961593551E+01  0.23475717965E+02  0.24999137869E+00 0.  0.
    1000022    2    1    0    0    0  0.31490289125E+02 -0.44271873889E+02  0.29233753678E+02  0.62500005256E+02  0.10000058803E+02 0.  0.
    3000022    2    5    5    0    0  0.13318590024E+02 -0.14229899007E+02  0.15023747955E+02  0.24609964801E+02  0.24999781674E+00 0.  0.
        -13    1    4    4    0    0 -0.27160892942E+01  0.59053017989E+01 -0.26394439147E+01  0.70162254503E+01  0.10500000000E+00 0. -1.
         13    1    4    4    0    0 -0.63565646604E+01  0.13921715147E+02 -0.60567154404E+01  0.16459492515E+02  0.10500000000E+00 0.  1.
    3000001    1    5    5    0    0  0.18171699101E+02 -0.30041974882E+02  0.14210005723E+02  0.37890040455E+02  0.10000000000E+01 0.  1.
        -13    1    6    6    0    0  0.73721457066E+01 -0.79656960478E+01  0.83991442186E+01  0.13724339490E+02  0.10500000000E+00 0.  1.
         13    1    6    6    0    0  0.59464443171E+01 -0.62642029591E+01  0.66246037363E+01  0.10885625310E+02  0.10500000000E+00 0. -1.
</event>
<event>
11    0  0.3494755E-009  0.9118800E+02  0.7816531E-02  0.1126479E+00
         25   -1    0    0    0    0  0.00000000000E+00  0.00000000000E+00  0.99999998245E-14  0.12500000000E+03  0.12500000000E+03 0.  0.
    3000001    1    3    3    0    0 -0.79760629153E+01  0.25811450519E+01  0.86392922870E+01  0.12079621709E+02  0.10000000000E+01 0. -1.
    1000022    2    1    0    0    0 -0.30946991138E+02  0.30335127795E+02  0.43912573211E+02  0.62499994053E+02  0.99999465875E+01 0.  0.
    3000022    2    3    3    0    0 -0.22970928223E+02  0.27753982743E+02  0.35273280924E+02  0.50420372344E+02  0.24999728545E+00 0.  0.
    1000022    2    1    0    0    0  0.30946991138E+02 -0.30335127795E+02 -0.43912573211E+02  0.62500005947E+02  0.10000020925E+02 0.  0.
    3000022    2    5    5    0    0  0.17127371487E+02 -0.22566124570E+02 -0.31291322899E+02  0.42211209584E+02  0.24998723276E+00 0.  0.
        -13    1    4    4    0    0 -0.96731166923E+01  0.11604104669E+02  0.14843081306E+02  0.21179058510E+02  0.10500000000E+00 0. -1.
         13    1    4    4    0    0 -0.13297811530E+02  0.16149878075E+02  0.20430199618E+02  0.29241313834E+02  0.10500000000E+00 0.  1.
    3000001    1    5    5    0    0  0.13819619651E+02 -0.77690032250E+01 -0.12621250312E+02  0.20288796363E+02  0.10000000000E+01 0.  1.
        -13    1    6    6    0    0  0.93949475431E+01 -0.12479226015E+02 -0.17213349330E+02  0.23244494863E+02  0.10500000000E+00 0.  1.
         13    1    6    6    0    0  0.77324239437E+01 -0.10086898555E+02 -0.14077973569E+02  0.18966714721E+02  0.10500000000E+00 0. -1.
</event>
<event>
11    0  0.3494755E-009  0.9118800E+02  0.7816531E-02  0.1126479E+00
         25   -1    0    0    0    0  0.00000000000E+00  0.00000000000E+00  0.99999998245E-14  0.12500000000E+03  0.12500000000E+03 0.  0.
    3000001    1    3    3    0    0 -0.22399999652E+02 -0.38684077596E+02 -0.11128420794E+02  0.46076670813E+02  0.10000000000E+01 0.  1.
    1000022    2    1    0    0    0 -0.27279250717E+02 -0.54347559123E+02 -0.10413223874E+02  0.62500000319E+02  0.10000005305E+02 0.  0.
    3000022    2    3    3    0    0 -0.48792510651E+01 -0.15663481527E+02  0.71519692018E+00  0.16423329506E+02  0.25000182786E+00 0.  0.
    1000022    2    1    0    0    0  0.27279250717E+02  0.54347559123E+02  0.10413223874E+02  0.62499999681E+02  0.10000001323E+02 0.  0.
    3000022    2    5    5    0    0  0.72850793599E+01  0.25122152074E+02  0.55869488969E+01  0.26748297127E+02  0.24999016805E+00 0.  0.
        -13    1    4    4    0    0 -0.31184259828E+01 -0.10094614838E+02  0.40870440271E+00  0.10573736029E+02  0.10500000000E+00 0.  1.
         13    1    4    4    0    0 -0.17608250824E+01 -0.55688666893E+01  0.30649251747E+00  0.58495934762E+01  0.10500000000E+00 0.  1.
    3000001    1    5    5    0    0  0.19994171357E+02  0.29225407048E+02  0.48262749769E+01  0.35751702555E+02  0.10000000000E+01 0.  1.
        -13    1    6    6    0    0  0.50750432423E+01  0.17490792578E+02  0.39376605739E+01  0.18633305792E+02  0.10500000000E+00 0.  1.
         13    1    6    6    0    0  0.22100361176E+01  0.76313594958E+01  0.16492883230E+01  0.81149913350E+01  0.10500000000E+00 0. -1.
</event>
<event>
11    0  0.3494755E-009  0.9118800E+02  0.7816531E-02  0.1126479E+00
         25   -1    0    0    0    0  0.00000000000E+00  0.00000000000E+00  0.99999998245E-14  0.12500000000E+03  0.12500000000E+03 0.  0.
    3000001    1    3    3    0    0 -0.14352262081E+02 -0.82472422518E+01  0.71133598309E+01  0.18044509406E+02  0.10000000000E+01 0. -1.
    1000022    2    1    0    0    0 -0.56816101268E+02 -0.18332416600E+02  0.15559663578E+02  0.62500003456E+02  0.10000021985E+02 0.  0.
    3000022    2    3    3    0    0 -0.42463839186E+02 -0.10085174348E+02  0.84463037469E+01  0.44455494050E+02  0.25004838737E+00 0.  0.
    1000022    2    1    0    0    0  0.56816101268E+02  0.18332416600E+02 -0.15559663578E+02  0.62499996544E+02  0.99999787851E+01 0.  0.
    3000022    2    5    5    0    0  0.42595959848E+02  0.12306567210E+02 -0.72304911704E+01  0.44924490980E+02  0.24999062036E+00 0.  0.
        -13    1    4    4    0    0 -0.20787235702E+02 -0.49279871709E+01  0.40658042063E+01  0.21747092094E+02  0.10500000000E+00 0.  1.
         13    1    4    4    0    0 -0.21676603484E+02 -0.51571871776E+01  0.43804995406E+01  0.22708401957E+02  0.10500000000E+00 0. -1.
    3000001    1    5    5    0    0  0.14220141419E+02  0.60258493899E+01 -0.83291724073E+01  0.17575505564E+02  0.10000000000E+01 0.  1.
        -13    1    6    6    0    0  0.22673378916E+02  0.64912627593E+01 -0.38097768515E+01  0.23890249650E+02  0.10500000000E+00 0.  1.
         13    1    6    6    0    0  0.19922580932E+02  0.58153044510E+01 -0.34207143189E+01  0.21034241330E+02  0.10500000000E+00 0. -1.
</event>
<event>
11    0  0.3494755E-009  0.9118800E+02  0.7816531E-02  0.1126479E+00
         25   -1    0    0    0    0  0.00000000000E+00  0.00000000000E+00  0.99999998245E-14  0.12500000000E+03  0.12500000000E+03 0.  0.
    3000001    1    3    3    0    0 -0.46996284701E+01  0.99559445563E+01 -0.93765673833E+00  0.11094437341E+02  0.10000000000E+01 0. -1.
    1000022    2    1    0    0    0 -0.37347289615E+02  0.47947257888E+02  0.10606172781E+02  0.62500002871E+02  0.99999938666E+01 0.  0.
    3000022    2    3    3    0    0 -0.32647661144E+02  0.37991313332E+02  0.11543829519E+02  0.51405565530E+02  0.25000121967E+00 0.  0.
    1000022    2    1    0    0    0  0.37347289615E+02 -0.47947257888E+02 -0.10606172781E+02  0.62499997129E+02  0.99999579757E+01 0.  0.
    3000022    2    5    5    0    0  0.16341131564E+01 -0.72311087725E+01 -0.15904488903E+01  0.75862552349E+01  0.24996185287E+00 0.  0.
        -13    1    4    4    0    0 -0.10222460835E+02  0.11931187594E+02  0.35761605311E+01  0.16113717512E+02  0.10500000000E+00 0.  1.
         13    1    4    4    0    0 -0.22425200310E+02  0.26060125738E+02  0.79676689878E+01  0.35291848018E+02  0.10500000000E+00 0. -1.
    3000001    1    5    5    0    0  0.35713176458E+02 -0.40716149115E+02 -0.90157238903E+01  0.54913741894E+02  0.10000000000E+01 0.  1.
        -13    1    6    6    0    0  0.93169150294E+00 -0.39782900455E+01 -0.81667466008E+00  0.41680718856E+01  0.10500000000E+00 0. -1.
         13    1    6    6    0    0  0.70242165344E+00 -0.32528187270E+01 -0.77377423019E+00  0.34181833493E+01  0.10500000000E+00 0.  1.
</event>
<event>
11    0  0.3494755E-009  0.9118800E+02  0.7816531E-02  0.1126479E+00
         25   -1    0    0    0    0  0.00000000000E+00  0.00000000000E+00  0.99999998245E-14  0.12500000000E+03  0.12500000000E+03 0.  0.
    3000001    1    3    3    0    0 -0.93480628110E+01  0.12383686279E+02 -0.61878317532E+01  0.16734133559E+02  0.10000000000E+01 0.  1.
    1000022    2    1    0    0    0 -0.44848030675E+02  0.33692654920E+02 -0.25684808947E+02  0.62499999470E+02  0.99999836067E+01 0.  0.
    3000022    2    3    3    0    0 -0.35499967864E+02  0.21308968641E+02 -0.19496977194E+02  0.45765865911E+02  0.24999996374E+00 0.  0.
    1000022    2    1    0    0    0  0.44848030675E+02 -0.33692654920E+02  0.25684808947E+02  0.62500000530E+02  0.99999902268E+01 0.  0.
    3000022    2    5    5    0    0  0.98879364092E+00 -0.28957827536E+01  0.30118977894E+01  0.43008518345E+01  0.25005516948E+00 0.  0.
        -13    1    4    4    0    0 -0.19444879896E+02  0.11641665084E+02 -0.10740041229E+02  0.25079697580E+02  0.10500000000E+00 0.  1.
         13    1    4    4    0    0 -0.16055087968E+02  0.96673035574E+01 -0.87569359649E+01  0.20686168331E+02  0.10500000000E+00 0. -1.
    3000001    1    5    5    0    0  0.43859237034E+02 -0.30796872167E+02  0.22672911158E+02  0.58199148695E+02  0.10000000000E+01 0.  1.
        -13    1    6    6    0    0  0.72213492757E+00 -0.19970649391E+01  0.20458669949E+01  0.29506514510E+01  0.10500000000E+00 0.  1.
         13    1    6    6    0    0  0.26665871335E+00 -0.89871781452E+00  0.96603079448E+00  0.13502003834E+01  0.10500000000E+00 0. -1.
</event>
<event>
11    0  0.3494755E-009  0.9118800E+02  0.7816531E-02  0.1126479E+00
         25   -1    0    0    0    0  0.00000000000E+00  0.00000000000E+00  0.99999998245E-14  0.12500000000E+03  0.12500000000E+03 0.  0.
    3000001    1    3    3    0    0  0.55213631803E+02 -0.95057794771E+01  0.14555216536E+02  0.57894380632E+02  0.10000000000E+01 0. -1.
    1000022    2    1    0    0    0  0.58663070983E+02 -0.81484922334E+01  0.17277046774E+02  0.62499999374E+02  0.99999876797E+01 0.  0.
    3000022    2    3    3    0    0  0.34494391807E+01  0.13572872438E+01  0.27218302379E+01  0.46056187419E+01  0.25000965754E+00 0.  0.
    1000022    2    1    0    0    0 -0.58663070983E+02  0.81484922334E+01 -0.17277046774E+02  0.62500000626E+02  0.99999955104E+01 0.  0.
    3000022    2    5    5    0    0 -0.55811658263E+02  0.91404818207E+01 -0.17769857353E+02  0.59281699815E+02  0.24999339557E+00 0.  0.
        -13    1    4    4    0    0  0.24307151023E+01  0.96243629702E+00  0.18623536656E+01  0.32115488023E+01  0.10500000000E+00 0. -1.
         13    1    4    4    0    0  0.10187240784E+01  0.39485094677E+00  0.85947657234E+00  0.13940699396E+01  0.10500000000E+00 0.  1.
    3000001    1    5    5    0    0 -0.28514127207E+01 -0.99198958738E+00  0.49281057892E+00  0.32183008113E+01  0.10000000000E+01 0. -1.
        -13    1    6    6    0    0 -0.15250133784E+02  0.24940165554E+01 -0.48165418525E+01  0.16186315190E+02  0.10500000000E+00 0.  1.
         13    1    6    6    0    0 -0.40561524479E+02  0.66464652653E+01 -0.12953315500E+02  0.43095384626E+02  0.10500000000E+00 0. -1.
</event>
<event>
11    0  0.3494755E-009  0.9118800E+02  0.7816531E-02  0.1126479E+00
         25   -1    0    0    0    0  0.00000000000E+00  0.00000000000E+00  0.99999998245E-14  0.12500000000E+03  0.12500000000E+03 0.  0.
    3000001    1    3    3    0    0  0.68647092430E+01  0.15029666694E+02  0.25534009026E+01  0.16749178192E+02  0.10000000000E+01 0.  1.
    1000022    2    1    0    0    0  0.25876058628E+02  0.55607268458E+02 -0.66716878047E+01  0.62500002591E+02  0.10000009511E+02 0.  0.
    3000022    2    3    3    0    0  0.19011349385E+02  0.40577601764E+02 -0.92250887074E+01  0.45750824399E+02  0.25000240206E+00 0.  0.
    1000022    2    1    0    0    0 -0.25876058628E+02 -0.55607268458E+02  0.66716878047E+01  0.62499997409E+02  0.99999771209E+01 0.  0.
    3000022    2    5    5    0    0 -0.14707702442E+02 -0.39946804557E+02  0.74841414372E+01  0.43221968713E+02  0.25000181903E+00 0.  0.
        -13    1    4    4    0    0  0.14307922399E+02  0.30594365754E+02 -0.69574742204E+01  0.34484044598E+02  0.10500000000E+00 0. -1.
         13    1    4    4    0    0  0.47034269858E+01  0.99832360096E+01 -0.22676144870E+01  0.11266779801E+02  0.10500000000E+00 0.  1.
    3000001    1    5    5    0    0 -0.11168356186E+02 -0.15660463901E+02 -0.81245363249E+00  0.19278028696E+02  0.10000000000E+01 0. -1.
        -13    1    6    6    0    0 -0.96275145483E+01 -0.26258355316E+02  0.49580271308E+01  0.28403931389E+02  0.10500000000E+00 0.  1.
         13    1    6    6    0    0 -0.50801878938E+01 -0.13688449241E+02  0.25261143065E+01  0.14818037324E+02  0.10500000000E+00 0. -1.
</event>
<event>
11    0  0.3494755E-009  0.9118800E+02  0.7816531E-02  0.1126479E+00
         25   -1    0    0    0    0  0.00000000000E+00  0.00000000000E+00  0.99999998245E-14  0.12500000000E+03  0.12500000000E+03 0.  0.
    3000001    1    3    3    0    0 -0.35345229027E+02  0.71519558665E+01 -0.29988401959E+02  0.46912044719E+02  0.10000000000E+01 0.  1.
    1000022    2    1    0    0    0 -0.43164468725E+02  0.13095813774E+02 -0.42090127676E+02  0.62499995665E+02  0.99999455867E+01 0.  0.
    3000022    2    3    3    0    0 -0.78192396977E+01  0.59438579078E+01 -0.12101725717E+02  0.15587950946E+02  0.24998620330E+00 0.  0.
    1000022    2    1    0    0    0  0.43164468725E+02 -0.13095813774E+02  0.42090127676E+02  0.62500004335E+02  0.99999997695E+01 0.  0.
    3000022    2    5    5    0    0  0.32956746258E+01 -0.52991849883E+00  0.26456477585E+00  0.33578013079E+01  0.25010047657E+00 0.  0.
        -13    1    4    4    0    0 -0.27760525577E+01  0.21123029420E+01 -0.42081936977E+01  0.54670111322E+01  0.10500000000E+00 0. -1.
         13    1    4    4    0    0 -0.50431871400E+01  0.38315549658E+01 -0.78935320191E+01  0.10120939814E+02  0.10500000000E+00 0.  1.
    3000001    1    5    5    0    0  0.39868794099E+02 -0.12565895275E+02  0.41825562900E+02  0.59142203027E+02  0.10000000000E+01 0.  1.
        -13    1    6    6    0    0  0.25324078595E+01 -0.40232818751E+00  0.19202030318E+00  0.25734906905E+01  0.10500000000E+00 0. -1.
         13    1    6    6    0    0  0.76326676635E+00 -0.12759031132E+00  0.72544472669E-01  0.78431061747E+00  0.10500000000E+00 0.  1.
</event>
<event>
11    0  0.3494755E-009  0.9118800E+02  0.7816531E-02  0.1126479E+00
         25   -1    0    0    0    0  0.00000000000E+00  0.00000000000E+00  0.99999998245E-14  0.12500000000E+03  0.12500000000E+03 0.  0.
    3000001    1    3    3    0    0 -0.27488768482E+02 -0.11242272913E+02  0.14150088639E+01  0.29749341892E+02  0.10000000000E+01 0.  1.
    1000022    2    1    0    0    0 -0.59734378323E+02 -0.14033368689E+02  0.64123740244E+01  0.62500001845E+02  0.10000014977E+02 0.  0.
    3000022    2    3    3    0    0 -0.32245609841E+02 -0.27910957764E+01  0.49973651604E+01  0.32750659953E+02  0.24999831389E+00 0.  0.
    1000022    2    1    0    0    0  0.59734378323E+02  0.14033368689E+02 -0.64123740244E+01  0.62499998155E+02  0.99999919150E+01 0.  0.
    3000022    2    5    5    0    0  0.98779922213E+01  0.10133543454E+01  0.23877584186E+01  0.10215943801E+02  0.25000025608E+00 0.  0.
        -13    1    4    4    0    0 -0.10260202620E+02 -0.83778010854E+00  0.15937900732E+01  0.10417524904E+02  0.10500000000E+00 0. -1.
         13    1    4    4    0    0 -0.21985407220E+02 -0.19533156679E+01  0.34035750872E+01  0.22333135049E+02  0.10500000000E+00 0.  1.
    3000001    1    5    5    0    0  0.49856386102E+02  0.13020014344E+02 -0.88001324429E+01  0.52284054354E+02  0.10000000000E+01 0.  1.
        -13    1    6    6    0    0  0.41856433906E+01  0.37815090317E+00  0.96906827913E+00  0.43142469827E+01  0.10500000000E+00 0. -1.
         13    1    6    6    0    0  0.56923488307E+01  0.63520344220E+00  0.14186901394E+01  0.59016968183E+01  0.10500000000E+00 0.  1.
</event>
<event>
11    0  0.3494755E-009  0.9118800E+02  0.7816531E-02  0.1126479E+00
         25   -1    0    0    0    0  0.00000000000E+00  0.00000000000E+00  0.99999998245E-14  0.12500000000E+03  0.12500000000E+03 0.  0.
    3000001    1    3    3    0    0 -0.96126994621E+01 -0.13468113208E+02  0.20153896174E+02  0.26095470781E+02  0.10000000000E+01 0.  1.
    1000022    2    1    0    0    0 -0.17278331311E+02 -0.40855840631E+02  0.42877843508E+02  0.62500000815E+02  0.10000009572E+02 0.  0.
    3000022    2    3    3    0    0 -0.76656318485E+01 -0.27387727423E+02  0.22723947335E+02  0.36404530034E+02  0.24999894424E+00 0.  0.
    1000022    2    1    0    0    0  0.17278331311E+02  0.40855840631E+02 -0.42877843508E+02  0.62499999185E+02  0.99999993828E+01 0.  0.
    3000022    2    5    5    0    0  0.64495741482E+01  0.59590829513E+01 -0.10297671959E+02  0.13535591127E+02  0.25000616754E+00 0.  0.
        -13    1    4    4    0    0 -0.27370695832E+01 -0.96215228843E+01  0.79445411748E+01  0.12774662892E+02  0.10500000000E+00 0. -1.
         13    1    4    4    0    0 -0.49285622653E+01 -0.17766204539E+02  0.14779406160E+02  0.23629867142E+02  0.10500000000E+00 0.  1.
    3000001    1    5    5    0    0  0.10828757162E+02  0.34896757680E+02 -0.32580171550E+02  0.48964408058E+02  0.10000000000E+01 0.  1.
        -13    1    6    6    0    0  0.49238895984E+01  0.45431657549E+01 -0.78296211828E+01  0.10305291685E+02  0.10500000000E+00 0.  1.
         13    1    6    6    0    0  0.15256845498E+01  0.14159171964E+01 -0.24680507757E+01  0.32302994418E+01  0.10500000000E+00 0. -1.
</event>
<event>
11    0  0.3494755E-009  0.9118800E+02  0.7816531E-02  0.1126479E+00
         25   -1    0    0    0    0  0.00000000000E+00  0.00000000000E+00  0.99999998245E-14  0.12500000000E+03  0.12500000000E+03 0.  0.
    3000001    1    3    3    0    0 -0.32232059376E+01  0.21210372909E+01 -0.64468067181E+01  0.75795232414E+01  0.10000000000E+01 0. -1.
    1000022    2    1    0    0    0 -0.27699320224E+01  0.27118596457E+02 -0.55345814001E+02  0.62500000179E+02  0.10000004891E+02 0.  0.
    3000022    2    3    3    0    0  0.45327391520E+00  0.24997559166E+02 -0.48899007283E+02  0.54920476938E+02  0.24990473705E+00 0.  0.
    1000022    2    1    0    0    0  0.27699320224E+01 -0.27118596457E+02  0.55345814001E+02  0.62499999821E+02  0.10000002649E+02 0.  0.
    3000022    2    5    5    0    0  0.27056757093E+01 -0.26138164004E+02  0.55141437024E+02  0.61083261801E+02  0.24999316223E+00 0.  0.
        -13    1    4    4    0    0  0.13961669001E+00  0.62982144936E+01 -0.12300306064E+02  0.13820114070E+02  0.10500000000E+00 0. -1.
         13    1    4    4    0    0  0.31365722518E+00  0.18699344672E+02 -0.36598701219E+02  0.41100362868E+02  0.10500000000E+00 0.  1.
    3000001    1    5    5    0    0  0.64256313112E-01 -0.98043245285E+00  0.20437697652E+00  0.14167380199E+01  0.10000000000E+01 0. -1.
        -13    1    6    6    0    0  0.15100982055E+01 -0.14073883840E+02  0.29605925268E+02  0.32815795570E+02  0.10500000000E+00 0.  1.
         13    1    6    6    0    0  0.11955775038E+01 -0.12064280164E+02  0.25535511757E+02  0.28267466231E+02  0.10500000000E+00 0. -1.
</event>
<event>
11    0  0.3494755E-009  0.9118800E+02  0.7816531E-02  0.1126479E+00
         25   -1    0    0    0    0  0.00000000000E+00  0.00000000000E+00  0.99999998245E-14  0.12500000000E+03  0.12500000000E+03 0.  0.
    3000001    1    3    3    0    0 -0.41910664070E+01 -0.17249588407E+02  0.28615197151E+01  0.18008376743E+02  0.10000000000E+01 0. -1.
    1000022    2    1    0    0    0 -0.90156218692E+01 -0.56174615106E+02  0.23861718021E+02  0.62500003682E+02  0.10000002665E+02 0.  0.
    3000022    2    3    3    0    0 -0.48245554622E+01 -0.38925026699E+02  0.21000198306E+02  0.44491626939E+02  0.24999967408E+00 0.  0.
    1000022    2    1    0    0    0  0.90156218692E+01  0.56174615106E+02 -0.23861718021E+02  0.62499996318E+02  0.99999566447E+01 0.  0.
    3000022    2    5    5    0    0  0.40038716350E+01  0.47368083537E+02 -0.20591156736E+02  0.51805642209E+02  0.25000598618E+00 0.  0.
        -13    1    4    4    0    0 -0.25067706318E+01 -0.20239821177E+02  0.10996015908E+02  0.23170188845E+02  0.10500000000E+00 0.  1.
         13    1    4    4    0    0 -0.23177848304E+01 -0.18685205523E+02  0.10004182398E+02  0.21321438094E+02  0.10500000000E+00 0. -1.
    3000001    1    5    5    0    0  0.50117502341E+01  0.88065315692E+01 -0.32705612850E+01  0.10694354109E+02  0.10000000000E+01 0.  1.
        -13    1    6    6    0    0  0.29672819144E+01  0.34863436287E+02 -0.15126982411E+02  0.38119556314E+02  0.10500000000E+00 0. -1.
         13    1    6    6    0    0  0.10365897207E+01  0.12504647250E+02 -0.54641743251E+01  0.13686085896E+02  0.10500000000E+00 0.  1.
</event>
<event>
11    0  0.3494755E-009  0.9118800E+02  0.7816531E-02  0.1126479E+00
         25   -1    0    0    0    0  0.00000000000E+00  0.00000000000E+00  0.99999998245E-14  0.12500000000E+03  0.12500000000E+03 0.  0.
    3000001    1    3    3    0    0  0.23843421042E+01 -0.71335647293E+00  0.14908019014E+02  0.15147375867E+02  0.10000000000E+01 0.  1.
    1000022    2    1    0    0    0  0.95675134906E+01 -0.19807210139E+02  0.57640153297E+02  0.62499999856E+02  0.99999911038E+01 0.  0.
    3000022    2    3    3    0    0  0.71831713863E+01 -0.19093853666E+02  0.42732134283E+02  0.47352623989E+02  0.24999867709E+00 0.  0.
    1000022    2    1    0    0    0 -0.95675134906E+01  0.19807210139E+02 -0.57640153297E+02  0.62500000144E+02  0.99999928983E+01 0.  0.
    3000022    2    5    5    0    0 -0.19350988430E+01  0.18624579250E+01 -0.19162818037E+02  0.19351730027E+02  0.25000569783E+00 0.  0.
        -13    1    4    4    0    0  0.35462790946E+01 -0.95884437470E+01  0.21499256472E+02  0.23806373155E+02  0.10500000000E+00 0. -1.
         13    1    4    4    0    0  0.36368922917E+01 -0.95054099194E+01  0.21232877810E+02  0.23546250835E+02  0.10500000000E+00 0.  1.
    3000001    1    5    5    0    0 -0.76324146475E+01  0.17944752214E+02 -0.38477335260E+02  0.43148270117E+02  0.10000000000E+01 0.  1.
        -13    1    6    6    0    0 -0.13804635787E+01  0.13188756394E+01 -0.13891407793E+02  0.14022387390E+02  0.10500000000E+00 0. -1.
         13    1    6    6    0    0 -0.55463526436E+00  0.54358228558E+00 -0.52714102444E+01  0.53293426370E+01  0.10500000000E+00 0.  1.
</event>
<event>
11    0  0.3494755E-009  0.9118800E+02  0.7816531E-02  0.1126479E+00
         25   -1    0    0    0    0  0.00000000000E+00  0.00000000000E+00  0.99999998245E-14  0.12500000000E+03  0.12500000000E+03 0.  0.
    3000001    1    3    3    0    0  0.39186432384E+01 -0.18463941941E+02 -0.15253003537E+02  0.24288413569E+02  0.10000000000E+01 0.  1.
    1000022    2    1    0    0    0 -0.22873181376E+01 -0.47357327449E+02 -0.39475332755E+02  0.62500001061E+02  0.99999974570E+01 0.  0.
    3000022    2    3    3    0    0 -0.62059613760E+01 -0.28893385509E+02 -0.24222329219E+02  0.38211587492E+02  0.25000630877E+00 0.  0.
    1000022    2    1    0    0    0  0.22873181376E+01  0.47357327449E+02  0.39475332755E+02  0.62499998939E+02  0.99999841883E+01 0.  0.
    3000022    2    5    5    0    0  0.61460659585E+01  0.32139210416E+02  0.26892292969E+02  0.42355175508E+02  0.24999649684E+00 0.  0.
        -13    1    4    4    0    0 -0.17141951461E+01 -0.78331830879E+01 -0.65975919040E+01  0.10384433842E+02  0.10500000000E+00 0. -1.
         13    1    4    4    0    0 -0.44917662299E+01 -0.21060202421E+02 -0.17624737315E+02  0.27827153650E+02  0.10500000000E+00 0.  1.
    3000001    1    5    5    0    0 -0.38587478209E+01  0.15218117033E+02  0.12583039786E+02  0.20144823430E+02  0.10000000000E+01 0. -1.
        -13    1    6    6    0    0  0.26015841167E+01  0.13566795802E+02  0.11436763209E+02  0.17934234468E+02  0.10500000000E+00 0. -1.
         13    1    6    6    0    0  0.35444818418E+01  0.18572414614E+02  0.15455529760E+02  0.24420941040E+02  0.10500000000E+00 0.  1.
</event>
<event>
11    0  0.3494755E-009  0.9118800E+02  0.7816531E-02  0.1126479E+00
         25   -1    0    0    0    0  0.00000000000E+00  0.00000000000E+00  0.99999998245E-14  0.12500000000E+03  0.12500000000E+03 0.  0.
    3000001    1    3    3    0    0 -0.12144793850E+02 -0.84745223756E+01 -0.13369992453E+02  0.19976742611E+02  0.10000000000E+01 0.  1.
    1000022    2    1    0    0    0 -0.44752396730E+02 -0.30307463894E+02 -0.29747780483E+02  0.62500001374E+02  0.10000017365E+02 0.  0.
    3000022    2    3    3    0    0 -0.32607602880E+02 -0.21832941518E+02 -0.16377788030E+02  0.42523258763E+02  0.24998822372E+00 0.  0.
    1000022    2    1    0    0    0  0.44752396730E+02  0.30307463894E+02  0.29747780483E+02  0.62499998626E+02  0.10000000189E+02 0.  0.
    3000022    2    5    5    0    0  0.27243804233E+02  0.23348509607E+02  0.22104782450E+02  0.42143346766E+02  0.24999907274E+00 0.  0.
        -13    1    4    4    0    0 -0.19062933431E+02 -0.12706980892E+02 -0.95139283050E+01  0.24807028262E+02  0.10500000000E+00 0. -1.
         13    1    4    4    0    0 -0.13544669449E+02 -0.91259606263E+01 -0.68638597248E+01  0.17716230501E+02  0.10500000000E+00 0.  1.
    3000001    1    5    5    0    0  0.17508592498E+02  0.69589542871E+01  0.76429980336E+01  0.20356651860E+02  0.10000000000E+01 0.  1.
        -13    1    6    6    0    0  0.11464892922E+02  0.98457406683E+01  0.92363088886E+01  0.17711657345E+02  0.10500000000E+00 0.  1.
         13    1    6    6    0    0  0.15778911311E+02  0.13502768938E+02  0.12868473561E+02  0.24431689421E+02  0.10500000000E+00 0. -1.
</event>
<event>
11    0  0.3494755E-009  0.9118800E+02  0.7816531E-02  0.1126479E+00
         25   -1    0    0    0    0  0.00000000000E+00  0.00000000000E+00  0.99999998245E-14  0.12500000000E+03  0.12500000000E+03 0.  0.
    3000001    1    3    3    0    0  0.10076512717E+02  0.15740276998E+02 -0.15837900291E+02  0.24517983485E+02  0.10000000000E+01 0.  1.
    1000022    2    1    0    0    0  0.20833736268E+02  0.32153922292E+02 -0.48356288295E+02  0.62500001011E+02  0.10000011154E+02 0.  0.
    3000022    2    3    3    0    0  0.10757223551E+02  0.16413645294E+02 -0.32518388004E+02  0.37982017526E+02  0.24997330137E+00 0.  0.
    1000022    2    1    0    0    0 -0.20833736268E+02 -0.32153922292E+02  0.48356288295E+02  0.62499998989E+02  0.99999985130E+01 0.  0.
    3000022    2    5    5    0    0  0.85623301980E+00 -0.27955143139E+01  0.51763009831E+01  0.59501785559E+01  0.24999543178E+00 0.  0.
        -13    1    4    4    0    0  0.34094400931E+01  0.51126854563E+01 -0.10188462733E+02  0.11898723973E+02  0.10500000000E+00 0.  1.
         13    1    4    4    0    0  0.73477834576E+01  0.11300959837E+02 -0.22329925271E+02  0.26083293553E+02  0.10500000000E+00 0. -1.
    3000001    1    5    5    0    0 -0.21689969288E+02 -0.29358407978E+02  0.43179987312E+02  0.56549820433E+02  0.10000000000E+01 0. -1.
        -13    1    6    6    0    0  0.46800655325E+00 -0.15404865152E+01  0.27136330669E+01  0.31570489795E+01  0.10500000000E+00 0. -1.
         13    1    6    6    0    0  0.38822646655E+00 -0.12550277987E+01  0.24626679162E+01  0.27931295763E+01  0.10500000000E+00 0.  1.
</event>
<event>
11    0  0.3494755E-009  0.9118800E+02  0.7816531E-02  0.1126479E+00
         25   -1    0    0    0    0  0.00000000000E+00  0.00000000000E+00  0.99999998245E-14  0.12500000000E+03  0.12500000000E+03 0.  0.
    3000001    1    3    3    0    0 -0.13221224012E+02  0.40182297742E+02 -0.40796362790E+01  0.42509543027E+02  0.10000000000E+01 0. -1.
    1000022    2    1    0    0    0 -0.21148275137E+02  0.57954834970E+02  0.48706543096E+00  0.62500003154E+02  0.10000036188E+02 0.  0.
    3000022    2    3    3    0    0 -0.79270511251E+01  0.17772537229E+02  0.45667017100E+01  0.19990460127E+02  0.25002498068E+00 0.  0.
    1000022    2    1    0    0    0  0.21148275137E+02 -0.57954834970E+02 -0.48706543096E+00  0.62499996846E+02  0.99999967684E+01 0.  0.
    3000022    2    5    5    0    0  0.25878437843E+01 -0.69930392517E+01  0.32240493131E+01  0.81275166059E+01  0.24999755658E+00 0.  0.
        -13    1    4    4    0    0 -0.50444980630E+01  0.11450272116E+02  0.29435294068E+01  0.12854224310E+02  0.10500000000E+00 0. -1.
         13    1    4    4    0    0 -0.28825530621E+01  0.63222651124E+01  0.16231723031E+01  0.71362358168E+01  0.10500000000E+00 0.  1.
    3000001    1    5    5    0    0  0.18560431352E+02 -0.50961795719E+02 -0.37111147441E+01  0.54372480241E+02  0.10000000000E+01 0. -1.
        -13    1    6    6    0    0  0.19678804115E+01 -0.53488417322E+01  0.24513592457E+01  0.62050663446E+01  0.10500000000E+00 0.  1.
         13    1    6    6    0    0  0.61996337281E+00 -0.16441975195E+01  0.77269006744E+00  0.19224502613E+01  0.10500000000E+00 0. -1.
</event>
<event>
11    0  0.3494755E-009  0.9118800E+02  0.7816531E-02  0.1126479E+00
         25   -1    0    0    0    0  0.00000000000E+00  0.00000000000E+00  0.99999998245E-14  0.12500000000E+03  0.12500000000E+03 0.  0.
    3000001    1    3    3    0    0  0.18282941694E+02 -0.92749262655E+01 -0.98896766060E+01  0.22783676560E+02  0.10000000000E+01 0. -1.
    1000022    2    1    0    0    0  0.52971347495E+02 -0.12860762740E+02 -0.28894421270E+02  0.62500002421E+02  0.99999924247E+01 0.  0.
    3000022    2    3    3    0    0  0.34688405800E+02 -0.35858364742E+01 -0.19004744664E+02  0.39716325861E+02  0.24999995769E+00 0.  0.
    1000022    2    1    0    0    0 -0.52971347495E+02  0.12860762740E+02  0.28894421270E+02  0.62499997579E+02  0.99999621585E+01 0.  0.
    3000022    2    5    5    0    0 -0.32231030258E+02  0.60692792699E+01  0.22366009584E+02  0.39698568546E+02  0.24999504776E+00 0.  0.
        -13    1    4    4    0    0  0.15409973173E+02 -0.16055415239E+01 -0.85176645545E+01  0.17680686391E+02  0.10500000000E+00 0. -1.
         13    1    4    4    0    0  0.19278432627E+02 -0.19802949503E+01 -0.10487080109E+02  0.22035639470E+02  0.10500000000E+00 0.  1.
    3000001    1    5    5    0    0 -0.20740317237E+02  0.67914834698E+01  0.65284116855E+01  0.22801429033E+02  0.10000000000E+01 0. -1.
        -13    1    6    6    0    0 -0.21589361502E+02  0.40229570448E+01  0.15015340124E+02  0.26603687291E+02  0.10500000000E+00 0.  1.
         13    1    6    6    0    0 -0.10641668756E+02  0.20463222251E+01  0.73506694603E+01  0.13094881255E+02  0.10500000000E+00 0. -1.
</event>
<event>
11    0  0.3494755E-009  0.9118800E+02  0.7816531E-02  0.1126479E+00
         25   -1    0    0    0    0  0.00000000000E+00  0.00000000000E+00  0.99999998245E-14  0.12500000000E+03  0.12500000000E+03 0.  0.
    3000001    1    3    3    0    0 -0.87226640111E+01  0.15092597559E+02 -0.23321579242E+01  0.17615627412E+02  0.10000000000E+01 0. -1.
    1000022    2    1    0    0    0 -0.21188953972E+02  0.54187742406E+02 -0.20517472136E+02  0.62499999849E+02  0.10000006040E+02 0.  0.
    3000022    2    3    3    0    0 -0.12466289961E+02  0.39095144846E+02 -0.18185314211E+02  0.44884372436E+02  0.25000023122E+00 0.  0.
    1000022    2    1    0    0    0  0.21188953972E+02 -0.54187742406E+02  0.20517472136E+02  0.62500000151E+02  0.10000007932E+02 0.  0.
    3000022    2    5    5    0    0  0.92755165211E+01 -0.28161026457E+02  0.15379219361E+02  0.33401519495E+02  0.24999710412E+00 0.  0.
        -13    1    4    4    0    0 -0.58971612439E+01  0.18411424645E+02 -0.84992490703E+01  0.21118838224E+02  0.10500000000E+00 0. -1.
         13    1    4    4    0    0 -0.65691287172E+01  0.20683720202E+02 -0.96860651411E+01  0.23765534212E+02  0.10500000000E+00 0.  1.
    3000001    1    5    5    0    0  0.11913437451E+02 -0.26026715948E+02  0.51382527750E+01  0.29098480657E+02  0.10000000000E+01 0.  1.
        -13    1    6    6    0    0  0.29680930662E+01 -0.88831722106E+01  0.48249929413E+01  0.10536218812E+02  0.10500000000E+00 0. -1.
         13    1    6    6    0    0  0.63074234549E+01 -0.19277854247E+02  0.10554226419E+02  0.22865300683E+02  0.10500000000E+00 0.  1.
</event>
<event>
11    0  0.3494755E-009  0.9118800E+02  0.7816531E-02  0.1126479E+00
         25   -1    0    0    0    0  0.00000000000E+00  0.00000000000E+00  0.99999998245E-14  0.12500000000E+03  0.12500000000E+03 0.  0.
    3000001    1    3    3    0    0  0.11226143551E+02  0.14844886964E+02 -0.17562798055E+02  0.25609545945E+02  0.10000000000E+01 0.  1.
    1000022    2    1    0    0    0  0.36657496612E+02  0.29435081978E+02 -0.39950642507E+02  0.62499999887E+02  0.10000002013E+02 0.  0.
    3000022    2    3    3    0    0  0.25431353061E+02  0.14590195014E+02 -0.22387844452E+02  0.36890453942E+02  0.25000753831E+00 0.  0.
    1000022    2    1    0    0    0 -0.36657496612E+02 -0.29435081978E+02  0.39950642507E+02  0.62500000113E+02  0.10000003421E+02 0.  0.
    3000022    2    5    5    0    0 -0.11719017082E+02 -0.42289384036E+01  0.12463046531E+02  0.17624111623E+02  0.25000057230E+00 0.  0.
        -13    1    4    4    0    0  0.68910681147E+01  0.39146114675E+01 -0.60682774053E+01  0.99822852279E+01  0.10500000000E+00 0.  1.
         13    1    4    4    0    0  0.18540284947E+02  0.10675583547E+02 -0.16319567047E+02  0.26908168714E+02  0.10500000000E+00 0. -1.
    3000001    1    5    5    0    0 -0.24938479530E+02 -0.25206143574E+02  0.27487595977E+02  0.44875888490E+02  0.10000000000E+01 0. -1.
        -13    1    6    6    0    0 -0.45061414240E+01 -0.16162749042E+01  0.48752498114E+01  0.68335013589E+01  0.10500000000E+00 0.  1.
         13    1    6    6    0    0 -0.72128756575E+01 -0.26126634994E+01  0.75877967191E+01  0.10790610264E+02  0.10500000000E+00 0. -1.
</event>
<event>
11    0  0.3494755E-009  0.9118800E+02  0.7816531E-02  0.1126479E+00
         25   -1    0    0    0    0  0.00000000000E+00  0.00000000000E+00  0.99999998245E-14  0.12500000000E+03  0.12500000000E+03 0.  0.
    3000001    1    3    3    0    0  0.23664345356E+01  0.10830304689E+02  0.40712068965E+02  0.42206256307E+02  0.10000000000E+01 0.  1.
    1000022    2    1    0    0    0 -0.33169036682E+01  0.16200693725E+02  0.59437241739E+02  0.62499999386E+02  0.99999945287E+01 0.  0.
    3000022    2    3    3    0    0 -0.56833382038E+01  0.53703890359E+01  0.18725172774E+02  0.20293743079E+02  0.25000236845E+00 0.  0.
    1000022    2    1    0    0    0  0.33169036682E+01 -0.16200693725E+02 -0.59437241739E+02  0.62500000614E+02  0.10000002208E+02 0.  0.
    3000022    2    5    5    0    0 -0.84615981134E+00 -0.96136885422E+01 -0.45388245934E+02  0.46403602945E+02  0.25000697967E+00 0.  0.
        -13    1    4    4    0    0 -0.34905741107E+01  0.33382875963E+01  0.11703512869E+02  0.12661418174E+02  0.10500000000E+00 0. -1.
         13    1    4    4    0    0 -0.21927640932E+01  0.20321014396E+01  0.70216599050E+01  0.76323249047E+01  0.10500000000E+00 0.  1.
    3000001    1    5    5    0    0  0.41630634796E+01 -0.65870051823E+01 -0.14048995805E+02  0.16096397669E+02  0.10000000000E+01 0.  1.
        -13    1    6    6    0    0 -0.49971674866E+00 -0.49108863854E+01 -0.23171391909E+02  0.23691579726E+02  0.10500000000E+00 0. -1.
         13    1    6    6    0    0 -0.34644306268E+00 -0.47028021568E+01 -0.22216854026E+02  0.22712023219E+02  0.10500000000E+00 0.  1.
</event>
<event>
11    0  0.3494755E-009  0.9118800E+02  0.7816531E-02  0.1126479E+00
         25   -1    0    0    0    0  0.00000000000E+00  0.00000000000E+00  0.99999998245E-14  0.12500000000E+03  0.12500000000E+03 0.  0.
    3000001    1    3    3    0    0 -0.74724039563E+01  0.39520820034E+02 -0.14791909550E+02  0.42866451045E+02  0.10000000000E+01 0. -1.
    1000022    2    1    0    0    0 -0.17187255570E+02  0.55672986072E+02 -0.20282172889E+02  0.62500001424E+02  0.10000025436E+02 0.  0.
    3000022    2    3    3    0    0 -0.97148516142E+01  0.16152166038E+02 -0.54902633389E+01  0.19633550379E+02  0.24999872802E+00 0.  0.
    1000022    2    1    0    0    0  0.17187255570E+02 -0.55672986072E+02  0.20282172889E+02  0.62499998576E+02  0.10000007636E+02 0.  0.
    3000022    2    5    5    0    0  0.15216033942E+02 -0.52892837778E+02  0.20940818549E+02  0.58887692754E+02  0.24999851994E+00 0.  0.
        -13    1    4    4    0    0 -0.35773846281E+01  0.59155417026E+01 -0.20728323929E+01  0.72179618690E+01  0.10500000000E+00 0.  1.
         13    1    4    4    0    0 -0.61374669861E+01  0.10236624335E+02 -0.34174309460E+01  0.12415588510E+02  0.10500000000E+00 0. -1.
    3000001    1    5    5    0    0  0.19712216284E+01 -0.27801482935E+01 -0.65864566080E+00  0.36123058216E+01  0.10000000000E+01 0.  1.
        -13    1    6    6    0    0  0.93357324264E+01 -0.32270733276E+02  0.12820662752E+02  0.35957426834E+02  0.10500000000E+00 0. -1.
         13    1    6    6    0    0  0.58803015156E+01 -0.20622104502E+02  0.81201557976E+01  0.22930265921E+02  0.10500000000E+00 0.  1.
</event>
<event>
11    0  0.3494755E-009  0.9118800E+02  0.7816531E-02  0.1126479E+00
         25   -1    0    0    0    0  0.00000000000E+00  0.00000000000E+00  0.99999998245E-14  0.12500000000E+03  0.12500000000E+03 0.  0.
    3000001    1    3    3    0    0  0.31821544931E+02  0.75694185978E+01  0.38732026626E+02  0.50705785727E+02  0.10000000000E+01 0. -1.
    1000022    2    1    0    0    0  0.38909670540E+02  0.13722530339E+02  0.45869159151E+02  0.62499998967E+02  0.99999904620E+01 0.  0.
    3000022    2    3    3    0    0  0.70881256095E+01  0.61531117411E+01  0.71371325257E+01  0.11794213240E+02  0.24999302678E+00 0.  0.
    1000022    2    1    0    0    0 -0.38909670540E+02 -0.13722530339E+02 -0.45869159151E+02  0.62500001033E+02  0.10000003369E+02 0.  0.
    3000022    2    5    5    0    0 -0.12889485111E+02 -0.95569333261E+01 -0.16136592678E+02  0.22757986019E+02  0.25000672876E+00 0.  0.
        -13    1    4    4    0    0  0.41541593965E+01  0.36870624562E+01  0.42459807752E+01  0.69921990525E+01  0.10500000000E+00 0. -1.
         13    1    4    4    0    0  0.29339662130E+01  0.24660492850E+01  0.28911517505E+01  0.48020141878E+01  0.10500000000E+00 0.  1.
    3000001    1    5    5    0    0 -0.26020185429E+02 -0.41655970128E+01 -0.29732566473E+02  0.39742015014E+02  0.10000000000E+01 0.  1.
        -13    1    6    6    0    0 -0.64108891925E+01 -0.47153436283E+01 -0.80890318098E+01  0.11348014205E+02  0.10500000000E+00 0. -1.
         13    1    6    6    0    0 -0.64785959182E+01 -0.48415896979E+01 -0.80475608682E+01  0.11409971814E+02  0.10500000000E+00 0.  1.
</event>
<event>
11    0  0.3494755E-009  0.9118800E+02  0.7816531E-02  0.1126479E+00
         25   -1    0    0    0    0  0.00000000000E+00  0.00000000000E+00  0.99999998245E-14  0.12500000000E+03  0.12500000000E+03 0.  0.
    3000001    1    3    3    0    0 -0.14868389358E+02  0.29253582978E+02  0.47610157935E+02  0.57832242372E+02  0.10000000000E+01 0.  1.
    1000022    2    1    0    0    0 -0.17642697124E+02  0.29284743574E+02  0.51355516188E+02  0.62500000223E+02  0.10000000844E+02 0.  0.
    3000022    2    3    3    0    0 -0.27743077658E+01  0.31160596192E-01  0.37453582534E+01  0.46677578512E+01  0.25000069802E+00 0.  0.
    1000022    2    1    0    0    0  0.17642697124E+02 -0.29284743574E+02 -0.51355516188E+02  0.62499999777E+02  0.99999980601E+01 0.  0.
    3000022    2    5    5    0    0  0.85470674223E+01 -0.16035753041E+02 -0.18618765954E+02  0.26017660958E+02  0.24999795974E+00 0.  0.
        -13    1    4    4    0    0 -0.83238487333E+00 -0.24324607174E-02  0.12041666552E+01  0.14676214865E+01  0.10500000000E+00 0. -1.
         13    1    4    4    0    0 -0.19419228924E+01  0.33593056910E-01  0.25411915982E+01  0.32001363647E+01  0.10500000000E+00 0. -1.
    3000001    1    5    5    0    0  0.90956297014E+01 -0.13248990534E+02 -0.32736750234E+02  0.36482338819E+02  0.10000000000E+01 0.  1.
        -13    1    6    6    0    0  0.32934124287E+01 -0.62037223825E+01 -0.72836696959E+01  0.10119071403E+02  0.10500000000E+00 0.  1.
         13    1    6    6    0    0  0.52536549936E+01 -0.98320306581E+01 -0.11335096258E+02  0.15898589555E+02  0.10500000000E+00 0. -1.
</event>
<event>
11    0  0.3494755E-009  0.9118800E+02  0.7816531E-02  0.1126479E+00
         25   -1    0    0    0    0  0.00000000000E+00  0.00000000000E+00  0.99999998245E-14  0.12500000000E+03  0.12500000000E+03 0.  0.
    3000001    1    3    3    0    0 -0.34414015537E+02 -0.83607562094E+01  0.23075406395E+02  0.42281214387E+02  0.10000000000E+01 0.  1.
    1000022    2    1    0    0    0 -0.52282393736E+02 -0.59220690206E+01  0.32213823023E+02  0.62500000008E+02  0.10000000548E+02 0.  0.
    3000022    2    3    3    0    0 -0.17868378199E+02  0.24386871887E+01  0.91384166284E+01  0.20218785621E+02  0.24999765637E+00 0.  0.
    1000022    2    1    0    0    0  0.52282393736E+02  0.59220690206E+01 -0.32213823023E+02  0.62499999992E+02  0.10000000447E+02 0.  0.
    3000022    2    5    5    0    0  0.19826980942E+01 -0.58073630462E+00 -0.38608475417E+01  0.43859992913E+01  0.24999930995E+00 0.  0.
        -13    1    4    4    0    0 -0.98609625418E+01  0.12905174068E+01  0.50817103023E+01  0.11168653546E+02  0.10500000000E+00 0. -1.
         13    1    4    4    0    0 -0.80074156574E+01  0.11481697819E+01  0.40567063261E+01  0.90501320749E+01  0.10500000000E+00 0.  1.
    3000001    1    5    5    0    0  0.50299695642E+02  0.65028053253E+01 -0.28352975482E+02  0.58114000701E+02  0.10000000000E+01 0.  1.
        -13    1    6    6    0    0  0.13014868171E+01 -0.43652115361E+00 -0.25305669167E+01  0.28808353949E+01  0.10500000000E+00 0. -1.
         13    1    6    6    0    0  0.68121127708E+00 -0.14421515100E+00 -0.13302806250E+01  0.15051638964E+01  0.10500000000E+00 0.  1.
</event>
<event>
11    0  0.3494755E-009  0.9118800E+02  0.7816531E-02  0.1126479E+00
         25   -1    0    0    0    0  0.00000000000E+00  0.00000000000E+00  0.99999998245E-14  0.12500000000E+03  0.12500000000E+03 0.  0.
    3000001    1    3    3    0    0  0.46390351273E+02 -0.97857299043E+01  0.12254784844E+02  0.48979638142E+02  0.10000000000E+01 0. -1.
    1000022    2    1    0    0    0  0.59598872600E+02 -0.75383879197E+01  0.14049805643E+02  0.62500000003E+02  0.10000002710E+02 0.  0.
    3000022    2    3    3    0    0  0.13208521327E+02  0.22473419846E+01  0.17950207985E+01  0.13520361861E+02  0.25000708125E+00 0.  0.
    1000022    2    1    0    0    0 -0.59598872600E+02  0.75383879197E+01 -0.14049805643E+02  0.62499999997E+02  0.10000002667E+02 0.  0.
    3000022    2    5    5    0    0 -0.10796449477E+02 -0.12073087495E+01  0.31573407946E+00  0.10871205275E+02  0.25000078147E+00 0.  0.
        -13    1    4    4    0    0  0.87310074060E+01  0.14487964832E+01  0.12269532968E+01  0.89356555979E+01  0.10500000000E+00 0.  1.
         13    1    4    4    0    0  0.44775139214E+01  0.79854550139E+00  0.56806750178E+00  0.45847062633E+01  0.10500000000E+00 0. -1.
    3000001    1    5    5    0    0 -0.48802423123E+02  0.87456966692E+01 -0.14365539722E+02  0.51628794721E+02  0.10000000000E+01 0.  1.
        -13    1    6    6    0    0 -0.60733815160E+01 -0.63660716663E+00  0.12673368202E+00  0.61088720849E+01  0.10500000000E+00 0.  1.
         13    1    6    6    0    0 -0.47230679615E+01 -0.57070158283E+00  0.18900039744E+00  0.47623331904E+01  0.10500000000E+00 0. -1.
</event>
<event>
11    0  0.3494755E-009  0.9118800E+02  0.7816531E-02  0.1126479E+00
         25   -1    0    0    0    0  0.00000000000E+00  0.00000000000E+00  0.99999998245E-14  0.12500000000E+03  0.12500000000E+03 0.  0.
    3000001    1    3    3    0    0 -0.23233192619E+02 -0.48580172143E+02  0.30668822188E+02  0.61978956260E+02  0.10000000000E+01 0.  1.
    1000022    2    1    0    0    0 -0.23445777924E+02 -0.48187956989E+02  0.30569043945E+02  0.62499999210E+02  0.99999876145E+01 0.  0.
    3000022    2    3    3    0    0 -0.21258530548E+00  0.39221515399E+00 -0.99778243280E-01  0.52104294966E+00  0.25000963669E+00 0.  0.
    1000022    2    1    0    0    0  0.23445777924E+02  0.48187956989E+02 -0.30569043945E+02  0.62500000790E+02  0.99999974911E+01 0.  0.
    3000022    2    5    5    0    0  0.14954718067E+02  0.19728203874E+02 -0.15099412126E+02  0.28998282126E+02  0.24999825715E+00 0.  0.
        -13    1    4    4    0    0 -0.86133806216E-01  0.24140784529E+00 -0.10930736407E+00  0.29777488171E+00  0.10500000000E+00 0.  1.
         13    1    4    4    0    0 -0.12645149926E+00  0.15080730870E+00  0.95291207871E-02  0.22326806795E+00  0.10500000000E+00 0. -1.
    3000001    1    5    5    0    0  0.84910598568E+01  0.28459753115E+02 -0.15469631819E+02  0.33501718664E+02  0.10000000000E+01 0.  1.
        -13    1    6    6    0    0  0.87609096076E+01  0.11512231103E+02 -0.88920286317E+01  0.16981289713E+02  0.10500000000E+00 0.  1.
         13    1    6    6    0    0  0.61938084597E+01  0.82159727715E+01 -0.62073834943E+01  0.12016992413E+02  0.10500000000E+00 0. -1.
</event>
<event>
11    0  0.3494755E-009  0.9118800E+02  0.7816531E-02  0.1126479E+00
         25   -1    0    0    0    0  0.00000000000E+00  0.00000000000E+00  0.99999998245E-14  0.12500000000E+03  0.12500000000E+03 0.  0.
    3000001    1    3    3    0    0  0.18929336556E+02 -0.14792148919E+02 -0.16031894725E+02  0.28898946358E+02  0.10000000000E+01 0. -1.
    1000022    2    1    0    0    0  0.46065352285E+02 -0.32288457963E+02 -0.25331577818E+02  0.62499999694E+02  0.99999964114E+01 0.  0.
    3000022    2    3    3    0    0  0.27136015728E+02 -0.17496309045E+02 -0.92996830930E+01  0.33601053336E+02  0.24999978826E+00 0.  0.
    1000022    2    1    0    0    0 -0.46065352285E+02  0.32288457963E+02  0.25331577818E+02  0.62500000306E+02  0.10000000236E+02 0.  0.
    3000022    2    5    5    0    0 -0.31920592661E+02  0.19064129339E+02  0.12402152790E+02  0.39194912365E+02  0.24999637846E+00 0.  0.
        -13    1    4    4    0    0  0.17158578339E+02 -0.11069293584E+02 -0.59425989370E+01  0.21266677648E+02  0.10500000000E+00 0.  1.
         13    1    4    4    0    0  0.99774373887E+01 -0.64270154610E+01 -0.33570841560E+01  0.12334375688E+02  0.10500000000E+00 0. -1.
    3000001    1    5    5    0    0 -0.14144759624E+02  0.13224328625E+02  0.12929425028E+02  0.23305087941E+02  0.10000000000E+01 0.  1.
        -13    1    6    6    0    0 -0.20574868289E+02  0.12335382562E+02  0.80445633167E+01  0.25302428579E+02  0.10500000000E+00 0.  1.
         13    1    6    6    0    0 -0.11345724372E+02  0.67287467772E+01  0.43575894733E+01  0.13892483785E+02  0.10500000000E+00 0. -1.
</event>
<event>
11    0  0.3494755E-009  0.9118800E+02  0.7816531E-02  0.1126479E+00
         25   -1    0    0    0    0  0.00000000000E+00  0.00000000000E+00  0.99999998245E-14  0.12500000000E+03  0.12500000000E+03 0.  0.
    3000001    1    3    3    0    0  0.70255925538E+01 -0.88831936394E+01  0.70554511074E+01  0.13380936824E+02  0.10000000000E+01 0. -1.
    1000022    2    1    0    0    0  0.25872445453E+02 -0.52494524327E+02  0.19524124965E+02  0.62499999899E+02  0.10000000683E+02 0.  0.
    3000022    2    3    3    0    0  0.18846852899E+02 -0.43611330688E+02  0.12468673858E+02  0.49119063074E+02  0.25000199393E+00 0.  0.
    1000022    2    1    0    0    0 -0.25872445453E+02  0.52494524327E+02 -0.19524124965E+02  0.62500000101E+02  0.10000001948E+02 0.  0.
    3000022    2    5    5    0    0 -0.10995342905E+02  0.17332361734E+02 -0.11298250644E+02  0.23431203514E+02  0.25000324665E+00 0.  0.
        -13    1    4    4    0    0  0.64732244918E+01 -0.14881481176E+02  0.42185901927E+01  0.16768084134E+02  0.10500000000E+00 0. -1.
         13    1    4    4    0    0  0.12373628407E+02 -0.28729849512E+02  0.82500836651E+01  0.32350978941E+02  0.10500000000E+00 0.  1.
    3000001    1    5    5    0    0 -0.14877102548E+02  0.35162162593E+02 -0.82258743216E+01  0.39068796587E+02  0.10000000000E+01 0. -1.
        -13    1    6    6    0    0 -0.51410221144E+01  0.81291236547E+01 -0.52190408902E+01  0.10943590480E+02  0.10500000000E+00 0. -1.
         13    1    6    6    0    0 -0.58543207902E+01  0.92032380798E+01 -0.60792097535E+01  0.12487613034E+02  0.10500000000E+00 0.  1.
</event>
<event>
11    0  0.3494755E-009  0.9118800E+02  0.7816531E-02  0.1126479E+00
         25   -1    0    0    0    0  0.00000000000E+00  0.00000000000E+00  0.99999998245E-14  0.12500000000E+03  0.12500000000E+03 0.  0.
    3000001    1    3    3    0    0  0.31764512834E+02  0.41330522550E+01  0.18977919953E+01  0.32104018611E+02  0.10000000000E+01 0. -1.
    1000022    2    1    0    0    0  0.59001775896E+02  0.16773574713E+02  0.66096990742E+01  0.62500003071E+02  0.99999947245E+01 0.  0.
    3000022    2    3    3    0    0  0.27237263062E+02  0.12640522458E+02  0.47119070789E+01  0.30395984460E+02  0.24999168975E+00 0.  0.
    1000022    2    1    0    0    0 -0.59001775896E+02 -0.16773574713E+02 -0.66096990742E+01  0.62499996929E+02  0.99999563378E+01 0.  0.
    3000022    2    5    5    0    0 -0.44373379778E+02 -0.16839337650E+02 -0.42951001620E+01  0.47655750034E+02  0.25000106388E+00 0.  0.
        -13    1    4    4    0    0  0.16040262237E+02  0.73807914989E+01  0.27417631636E+01  0.17868810425E+02  0.10500000000E+00 0. -1.
         13    1    4    4    0    0  0.11197000825E+02  0.52597309593E+01  0.19701439154E+01  0.12527174035E+02  0.10500000000E+00 0.  1.
    3000001    1    5    5    0    0 -0.14628396118E+02  0.65762936719E-01 -0.23145989122E+01  0.14844246895E+02  0.10000000000E+01 0.  1.
        -13    1    6    6    0    0 -0.26311105667E+02 -0.10005552901E+02 -0.24864824361E+01  0.28259139940E+02  0.10500000000E+00 0.  1.
         13    1    6    6    0    0 -0.18062274111E+02 -0.68337847490E+01 -0.18086177259E+01  0.19396610094E+02  0.10500000000E+00 0. -1.
</event>
<event>
11    0  0.3494755E-009  0.9118800E+02  0.7816531E-02  0.1126479E+00
         25   -1    0    0    0    0  0.00000000000E+00  0.00000000000E+00  0.99999998245E-14  0.12500000000E+03  0.12500000000E+03 0.  0.
    3000001    1    3    3    0    0  0.12172365977E+02  0.14993177293E+01 -0.20222711934E+02  0.23672188854E+02  0.10000000000E+01 0.  1.
    1000022    2    1    0    0    0  0.21389478135E+02  0.94666090705E+01 -0.57088733720E+02  0.62500000391E+02  0.10000003445E+02 0.  0.
    3000022    2    3    3    0    0  0.92171121573E+01  0.79672913412E+01 -0.36866021786E+02  0.38827811537E+02  0.24999722847E+00 0.  0.
    1000022    2    1    0    0    0 -0.21389478135E+02 -0.94666090705E+01  0.57088733720E+02  0.62499999609E+02  0.99999985633E+01 0.  0.
    3000022    2    5    5    0    0 -0.14231326325E+02 -0.13539654662E+01  0.27808362264E+02  0.31268696784E+02  0.25003061242E+00 0.  0.
        -13    1    4    4    0    0  0.53734671408E+01  0.45917728851E+01 -0.21224148350E+02  0.22370382776E+02  0.10500000000E+00 0.  1.
         13    1    4    4    0    0  0.38436450165E+01  0.33755184561E+01 -0.15641873435E+02  0.16457428761E+02  0.10500000000E+00 0. -1.
    3000001    1    5    5    0    0 -0.71581518097E+01 -0.81126436043E+01  0.29280371456E+02  0.31231302826E+02  0.10000000000E+01 0.  1.
        -13    1    6    6    0    0 -0.72594807669E+01 -0.73669961287E+00  0.14084316136E+02  0.15862590373E+02  0.10500000000E+00 0. -1.
         13    1    6    6    0    0 -0.69718455580E+01 -0.61726585330E+00  0.13724046127E+02  0.15406106410E+02  0.10500000000E+00 0.  1.
</event>
<event>
11    0  0.3494755E-009  0.9118800E+02  0.7816531E-02  0.1126479E+00
         25   -1    0    0    0    0  0.00000000000E+00  0.00000000000E+00  0.99999998245E-14  0.12500000000E+03  0.12500000000E+03 0.  0.
    3000001    1    3    3    0    0 -0.21557261784E+02  0.10066374621E+02  0.16635594862E+02  0.29048071366E+02  0.10000000000E+01 0. -1.
    1000022    2    1    0    0    0 -0.45676381749E+02  0.29716390558E+02  0.28928434427E+02  0.62499999210E+02  0.99999932697E+01 0.  0.
    3000022    2    3    3    0    0 -0.24119119965E+02  0.19650015936E+02  0.12292839565E+02  0.33451927844E+02  0.24999551443E+00 0.  0.
    1000022    2    1    0    0    0  0.45676381749E+02 -0.29716390558E+02 -0.28928434427E+02  0.62500000790E+02  0.10000003147E+02 0.  0.
    3000022    2    5    5    0    0  0.34810171879E+02 -0.24480684852E+02 -0.26566062438E+02  0.50168418062E+02  0.25000062111E+00 0.  0.
        -13    1    4    4    0    0 -0.12072845021E+02  0.98274542864E+01  0.60785136653E+01  0.16712025552E+02  0.10500000000E+00 0.  1.
         13    1    4    4    0    0 -0.12046274943E+02  0.98225616499E+01  0.62143258996E+01  0.16739902293E+02  0.10500000000E+00 0. -1.
    3000001    1    5    5    0    0  0.10866209870E+02 -0.52357057054E+01 -0.23623719893E+01  0.12331582728E+02  0.10000000000E+01 0.  1.
        -13    1    6    6    0    0  0.13431578618E+02 -0.93720807207E+01 -0.10237234542E+02  0.19314636866E+02  0.10500000000E+00 0. -1.
         13    1    6    6    0    0  0.21378593261E+02 -0.15108604132E+02 -0.16328827896E+02  0.30853781196E+02  0.10500000000E+00 0.  1.
</event>
<event>
11    0  0.3494755E-009  0.9118800E+02  0.7816531E-02  0.1126479E+00
         25   -1    0    0    0    0  0.00000000000E+00  0.00000000000E+00  0.99999998245E-14  0.12500000000E+03  0.12500000000E+03 0.  0.
    3000001    1    3    3    0    0  0.26022255536E+02 -0.38698381483E+02  0.13411644758E+02  0.48534469480E+02  0.10000000000E+01 0.  1.
    1000022    2    1    0    0    0  0.28985413790E+02 -0.50679473297E+02  0.19942088110E+02  0.62500000536E+02  0.99999981326E+01 0.  0.
    3000022    2    3    3    0    0  0.29631582536E+01 -0.11981091813E+02  0.65304433519E+01  0.13965531056E+02  0.24999885147E+00 0.  0.
    1000022    2    1    0    0    0 -0.28985413790E+02  0.50679473297E+02 -0.19942088110E+02  0.62499999464E+02  0.99999914293E+01 0.  0.
    3000022    2    5    5    0    0 -0.26183256420E+02  0.37598766440E+02 -0.15506375743E+02  0.48370862123E+02  0.24991848921E+00 0.  0.
        -13    1    4    4    0    0  0.16168513744E+01 -0.62560706372E+01  0.34186424546E+01  0.73110033112E+01  0.10500000000E+00 0. -1.
         13    1    4    4    0    0  0.13463068793E+01 -0.57250211761E+01  0.31118008973E+01  0.66545277447E+01  0.10500000000E+00 0.  1.
    3000001    1    5    5    0    0 -0.28021573697E+01  0.13080706857E+02 -0.44357123671E+01  0.14129137341E+02  0.10000000000E+01 0. -1.
        -13    1    6    6    0    0 -0.92331649211E+01  0.13343548043E+02 -0.54599070902E+01  0.17120841663E+02  0.10500000000E+00 0.  1.
         13    1    6    6    0    0 -0.16950091499E+02  0.24255218397E+02 -0.10046468652E+02  0.31250020459E+02  0.10500000000E+00 0. -1.
</event>
<event>
11    0  0.3494755E-009  0.9118800E+02  0.7816531E-02  0.1126479E+00
         25   -1    0    0    0    0  0.00000000000E+00  0.00000000000E+00  0.99999998245E-14  0.12500000000E+03  0.12500000000E+03 0.  0.
    3000001    1    3    3    0    0 -0.44146178932E+01  0.11277817059E+01 -0.72937113232E+01  0.86578847061E+01  0.10000000000E+01 0. -1.
    1000022    2    1    0    0    0 -0.22792076471E+02  0.30039828962E+02 -0.48830113788E+02  0.62499993593E+02  0.99999556328E+01 0.  0.
    3000022    2    3    3    0    0 -0.18377458578E+02  0.28912047256E+02 -0.41536402465E+02  0.53842108887E+02  0.24999870174E+00 0.  0.
    1000022    2    1    0    0    0  0.22792076471E+02 -0.30039828962E+02  0.48830113788E+02  0.62500006407E+02  0.10000035722E+02 0.  0.
    3000022    2    5    5    0    0  0.23258867349E+02 -0.28219495968E+02  0.43944449395E+02  0.57170726672E+02  0.24998514706E+00 0.  0.
        -13    1    4    4    0    0 -0.60497639439E+01  0.94342983705E+01 -0.13546124321E+02  0.17581642092E+02  0.10500000000E+00 0. -1.
         13    1    4    4    0    0 -0.12327694634E+02  0.19477748886E+02 -0.27990278143E+02  0.36260466795E+02  0.10500000000E+00 0.  1.
    3000001    1    5    5    0    0 -0.46679087796E+00 -0.18203329943E+01  0.48856643928E+01  0.53292797349E+01  0.10000000000E+01 0. -1.
        -13    1    6    6    0    0  0.74722152884E+01 -0.91275837588E+01  0.14123679223E+02  0.18402068536E+02  0.10500000000E+00 0. -1.
         13    1    6    6    0    0  0.15786652060E+02 -0.19091912209E+02  0.29820770172E+02  0.38768658136E+02  0.10500000000E+00 0.  1.
</event>
<event>
11    0  0.3494755E-009  0.9118800E+02  0.7816531E-02  0.1126479E+00
         25   -1    0    0    0    0  0.00000000000E+00  0.00000000000E+00  0.99999998245E-14  0.12500000000E+03  0.12500000000E+03 0.  0.
    3000001    1    3    3    0    0  0.47235642242E+02 -0.21315707885E+02  0.32563236058E+02  0.61212169078E+02  0.10000000000E+01 0. -1.
    1000022    2    1    0    0    0  0.47598270110E+02 -0.20510081691E+02  0.33466269360E+02  0.62499998116E+02  0.99999905625E+01 0.  0.
    3000022    2    3    3    0    0  0.36262786784E+00  0.80562619348E+00  0.90303330172E+00  0.12878290385E+01  0.25000390846E+00 0.  0.
    1000022    2    1    0    0    0 -0.47598270110E+02  0.20510081691E+02 -0.33466269360E+02  0.62500001884E+02  0.10000014110E+02 0.  0.
    3000022    2    5    5    0    0 -0.35489574795E+02  0.18984168343E+02 -0.28338231141E+02  0.49224246171E+02  0.25000021619E+00 0.  0.
        -13    1    4    4    0    0  0.93013123140E-01  0.33119003281E+00  0.40444889991E+00  0.54124134316E+00  0.10500000000E+00 0. -1.
         13    1    4    4    0    0  0.26961474470E+00  0.47443616067E+00  0.49858440181E+00  0.74658769534E+00  0.10500000000E+00 0.  1.
    3000001    1    5    5    0    0 -0.12108695314E+02  0.15259133481E+01 -0.51280382189E+01  0.13275755713E+02  0.10000000000E+01 0.  1.
        -13    1    6    6    0    0 -0.27161351738E+02  0.14544654711E+02 -0.21696642767E+02  0.37683435900E+02  0.10500000000E+00 0.  1.
         13    1    6    6    0    0 -0.83282230572E+01  0.44395136322E+01 -0.66415883737E+01  0.11540810271E+02  0.10500000000E+00 0. -1.
</event>
<event>
11    0  0.3494755E-009  0.9118800E+02  0.7816531E-02  0.1126479E+00
         25   -1    0    0    0    0  0.00000000000E+00  0.00000000000E+00  0.99999998245E-14  0.12500000000E+03  0.12500000000E+03 0.  0.
    3000001    1    3    3    0    0  0.55250780972E+01  0.56585075749E+01 -0.34227198552E+02  0.35143225758E+02  0.10000000000E+01 0.  1.
    1000022    2    1    0    0    0  0.14830203841E+02  0.16429536946E+02 -0.57588063372E+02  0.62499997226E+02  0.99999990026E+01 0.  0.
    3000022    2    3    3    0    0  0.93051257442E+01  0.10771029371E+02 -0.23360864820E+02  0.27356771468E+02  0.25000235326E+00 0.  0.
    1000022    2    1    0    0    0 -0.14830203841E+02 -0.16429536946E+02  0.57588063372E+02  0.62500002774E+02  0.10000033678E+02 0.  0.
    3000022    2    5    5    0    0 -0.15183501383E+02 -0.16323315366E+02  0.57155232818E+02  0.61349592210E+02  0.24997419446E+00 0.  0.
        -13    1    4    4    0    0  0.49075882759E+01  0.55777904914E+01 -0.12205269649E+02  0.14289009821E+02  0.10500000000E+00 0. -1.
         13    1    4    4    0    0  0.43975374683E+01  0.51932388797E+01 -0.11155595171E+02  0.13067761647E+02  0.10500000000E+00 0.  1.
    3000001    1    5    5    0    0  0.35329754139E+00 -0.10622158008E+00  0.43283055418E+00  0.11504105639E+01  0.10000000000E+01 0. -1.
        -13    1    6    6    0    0 -0.72216353403E+01 -0.77584671010E+01  0.27360173369E+02  0.29341709912E+02  0.10500000000E+00 0.  1.
         13    1    6    6    0    0 -0.79618660424E+01 -0.85648482649E+01  0.29795059449E+02  0.32007882299E+02  0.10500000000E+00 0. -1.
</event>
<event>
11    0  0.3494755E-009  0.9118800E+02  0.7816531E-02  0.1126479E+00
         25   -1    0    0    0    0  0.00000000000E+00  0.00000000000E+00  0.99999998245E-14  0.12500000000E+03  0.12500000000E+03 0.  0.
    3000001    1    3    3    0    0  0.14558417820E+01 -0.28327293150E+01 -0.66914565898E+01  0.74779289887E+01  0.10000000000E+01 0. -1.
    1000022    2    1    0    0    0  0.11614570368E+02 -0.44777371253E+02 -0.40820812950E+02  0.62499998909E+02  0.99999936254E+01 0.  0.
    3000022    2    3    3    0    0  0.10158728586E+02 -0.41944641939E+02 -0.34129356360E+02  0.55022069920E+02  0.24991781195E+00 0.  0.
    1000022    2    1    0    0    0 -0.11614570368E+02  0.44777371253E+02  0.40820812950E+02  0.62500001091E+02  0.10000007265E+02 0.  0.
    3000022    2    5    5    0    0 -0.11229253254E+02  0.43725916908E+02  0.36918570701E+02  0.58318910314E+02  0.24999898480E+00 0.  0.
        -13    1    4    4    0    0  0.64986771283E+01 -0.26921501889E+02 -0.21832592536E+02  0.35265750952E+02  0.10500000000E+00 0.  1.
         13    1    4    4    0    0  0.36600514573E+01 -0.15023140050E+02 -0.12296763824E+02  0.19756318969E+02  0.10500000000E+00 0. -1.
    3000001    1    5    5    0    0 -0.38531711334E+00  0.10514543454E+01  0.39022422490E+01  0.41810907773E+01  0.10000000000E+01 0.  1.
        -13    1    6    6    0    0 -0.43387995331E+01  0.17013348052E+02  0.14288311406E+02  0.22637271504E+02  0.10500000000E+00 0. -1.
         13    1    6    6    0    0 -0.68904537211E+01  0.26712568856E+02  0.22630259295E+02  0.35681638809E+02  0.10500000000E+00 0.  1.
</event>
<event>
11    0  0.3494755E-009  0.9118800E+02  0.7816531E-02  0.1126479E+00
         25   -1    0    0    0    0  0.00000000000E+00  0.00000000000E+00  0.99999998245E-14  0.12500000000E+03  0.12500000000E+03 0.  0.
    3000001    1    3    3    0    0 -0.16134440745E+02  0.38112186985E+01  0.73239227146E+01  0.18151732977E+02  0.10000000000E+01 0.  1.
    1000022    2    1    0    0    0 -0.57232657229E+02  0.19926864972E+02  0.11558218921E+02  0.62500004850E+02  0.10000059021E+02 0.  0.
    3000022    2    3    3    0    0 -0.41098216484E+02  0.16115646274E+02  0.42342962065E+01  0.44348271873E+02  0.25000151976E+00 0.  0.
    1000022    2    1    0    0    0  0.57232657229E+02 -0.19926864972E+02 -0.11558218921E+02  0.62499995150E+02  0.99999984001E+01 0.  0.
    3000022    2    5    5    0    0  0.27321604655E+02 -0.82380024619E+01 -0.56936898655E+00  0.28543325764E+02  0.24999834090E+00 0.  0.
        -13    1    4    4    0    0 -0.20318682208E+02  0.79012319131E+01  0.21194209101E+01  0.21903910209E+02  0.10500000000E+00 0. -1.
         13    1    4    4    0    0 -0.20779534276E+02  0.82144143607E+01  0.21148752963E+01  0.22444361664E+02  0.10500000000E+00 0.  1.
    3000001    1    5    5    0    0  0.29911052575E+02 -0.11688862510E+02 -0.10988849935E+02  0.33956669386E+02  0.10000000000E+01 0. -1.
        -13    1    6    6    0    0  0.18894709065E+02 -0.56977338648E+01 -0.44178108866E+00  0.19740324145E+02  0.10500000000E+00 0.  1.
         13    1    6    6    0    0  0.84268955898E+01 -0.25402685970E+01 -0.12758789789E+00  0.88030016187E+01  0.10500000000E+00 0. -1.
</event>
<event>
11    0  0.3494755E-009  0.9118800E+02  0.7816531E-02  0.1126479E+00
         25   -1    0    0    0    0  0.00000000000E+00  0.00000000000E+00  0.99999998245E-14  0.12500000000E+03  0.12500000000E+03 0.  0.
    3000001    1    3    3    0    0  0.48959388472E+02 -0.26468517417E+01  0.20688496631E+02  0.53226322779E+02  0.10000000000E+01 0. -1.
    1000022    2    1    0    0    0  0.57115747928E+02 -0.67351403021E+01  0.22331094247E+02  0.62499991268E+02  0.10000018102E+02 0.  0.
    3000022    2    3    3    0    0  0.81563594560E+01 -0.40882885604E+01  0.16425976158E+01  0.92736684897E+01  0.24999480219E+00 0.  0.
    1000022    2    1    0    0    0 -0.57115747928E+02  0.67351403021E+01 -0.22331094247E+02  0.62500008732E+02  0.10000127248E+02 0.  0.
    3000022    2    5    5    0    0 -0.36303411450E+02  0.40089322057E+01 -0.90109479946E+01  0.37620059849E+02  0.24999782779E+00 0.  0.
        -13    1    4    4    0    0  0.38216757385E+01 -0.19828818103E+01  0.80607990667E+00  0.43815311866E+01  0.10500000000E+00 0. -1.
         13    1    4    4    0    0  0.43346837175E+01 -0.21054067502E+01  0.83651770913E+00  0.48921373031E+01  0.10500000000E+00 0.  1.
    3000001    1    5    5    0    0 -0.20812336478E+02  0.27262080964E+01 -0.13320146252E+02  0.24879948883E+02  0.10000000000E+01 0.  1.
        -13    1    6    6    0    0 -0.14356089031E+02  0.15831620702E+01 -0.36277617115E+01  0.14892124578E+02  0.10500000000E+00 0.  1.
         13    1    6    6    0    0 -0.21947322419E+02  0.24257701355E+01 -0.53831862831E+01  0.22727935271E+02  0.10500000000E+00 0. -1.
</event>
<event>
11    0  0.3494755E-009  0.9118800E+02  0.7816531E-02  0.1126479E+00
         25   -1    0    0    0    0  0.00000000000E+00  0.00000000000E+00  0.99999998245E-14  0.12500000000E+03  0.12500000000E+03 0.  0.
    3000001    1    3    3    0    0 -0.18929590344E+02  0.12346919979E+02 -0.17944347565E+02  0.28875169836E+02  0.10000000000E+01 0.  1.
    1000022    2    1    0    0    0 -0.37811454542E+02  0.18643234445E+02 -0.45044130476E+02  0.62499998498E+02  0.99999918393E+01 0.  0.
    3000022    2    3    3    0    0 -0.18881864199E+02  0.62963144666E+01 -0.27099782911E+02  0.33624828662E+02  0.24999452543E+00 0.  0.
    1000022    2    1    0    0    0  0.37811454542E+02 -0.18643234445E+02  0.45044130476E+02  0.62500001502E+02  0.10000010612E+02 0.  0.
    3000022    2    5    5    0    0  0.18068326783E+02 -0.13333206972E+02  0.27786640307E+02  0.35726722801E+02  0.25000326079E+00 0.  0.
        -13    1    4    4    0    0 -0.10103374328E+02  0.34298323227E+01 -0.14585034174E+02  0.18071418579E+02  0.10500000000E+00 0. -1.
         13    1    4    4    0    0 -0.87784898705E+01  0.28664821439E+01 -0.12514748737E+02  0.15553410084E+02  0.10500000000E+00 0.  1.
    3000001    1    5    5    0    0  0.19743127759E+02 -0.53100274730E+01  0.17257490169E+02  0.26773278701E+02  0.10000000000E+01 0.  1.
        -13    1    6    6    0    0  0.11951756992E+02 -0.87698429761E+01  0.18283659474E+02  0.23538433886E+02  0.10500000000E+00 0. -1.
         13    1    6    6    0    0  0.61165697908E+01 -0.45633639963E+01  0.95029808326E+01  0.12188288915E+02  0.10500000000E+00 0.  1.
</event>
<event>
11    0  0.3494755E-009  0.9118800E+02  0.7816531E-02  0.1126479E+00
         25   -1    0    0    0    0  0.00000000000E+00  0.00000000000E+00  0.99999998245E-14  0.12500000000E+03  0.12500000000E+03 0.  0.
    3000001    1    3    3    0    0 -0.30714794489E+02 -0.40734362202E+02  0.16706010216E+02  0.53691504373E+02  0.10000000000E+01 0.  1.
    1000022    2    1    0    0    0 -0.35596603953E+02 -0.47956809248E+02  0.15468558801E+02  0.62499999828E+02  0.99999950460E+01 0.  0.
    3000022    2    3    3    0    0 -0.48818094639E+01 -0.72224470455E+01 -0.12374514142E+01  0.88084954550E+01  0.25000242280E+00 0.  0.
    1000022    2    1    0    0    0  0.35596603953E+02  0.47956809248E+02 -0.15468558801E+02  0.62500000172E+02  0.99999971967E+01 0.  0.
    3000022    2    5    5    0    0  0.62960309742E+01  0.14076084225E+02 -0.11565489980E+01  0.15465324351E+02  0.24999715607E+00 0.  0.
        -13    1    4    4    0    0 -0.24525298128E+01 -0.37134750512E+01 -0.58296402138E+00  0.44895068202E+01  0.10500000000E+00 0.  1.
         13    1    4    4    0    0 -0.24292796511E+01 -0.35089719943E+01 -0.65448739285E+00  0.43189886348E+01  0.10500000000E+00 0. -1.
    3000001    1    5    5    0    0  0.29300572978E+02  0.33880725023E+02 -0.14312009803E+02  0.47034675821E+02  0.10000000000E+01 0. -1.
        -13    1    6    6    0    0  0.39551820396E+01  0.87158400466E+01 -0.68596902875E+00  0.95964009500E+01  0.10500000000E+00 0.  1.
         13    1    6    6    0    0  0.23408489346E+01  0.53602441780E+01 -0.47057996922E+00  0.58689234013E+01  0.10500000000E+00 0. -1.
</event>
<event>
11    0  0.3494755E-009  0.9118800E+02  0.7816531E-02  0.1126479E+00
         25   -1    0    0    0    0  0.00000000000E+00  0.00000000000E+00  0.99999998245E-14  0.12500000000E+03  0.12500000000E+03 0.  0.
    3000001    1    3    3    0    0 -0.46760143915E+02 -0.23960136345E+02 -0.30162051677E+02  0.60591654161E+02  0.10000000000E+01 0.  1.
    1000022    2    1    0    0    0 -0.48487938967E+02 -0.24248996442E+02 -0.29447514321E+02  0.62499998919E+02  0.99999855738E+01 0.  0.
    3000022    2    3    3    0    0 -0.17277950522E+01 -0.28886009645E+00  0.71453735650E+00  0.19083447575E+01  0.25000036382E+00 0.  0.
    1000022    2    1    0    0    0  0.48487938967E+02  0.24248996442E+02  0.29447514321E+02  0.62500001081E+02  0.99999990871E+01 0.  0.
    3000022    2    5    5    0    0  0.15227045473E+02  0.45370262040E+01  0.12750037390E+02  0.20373352241E+02  0.25001490890E+00 0.  0.
        -13    1    4    4    0    0 -0.10646555593E+01 -0.13307507552E+00  0.38904697765E+00  0.11461164803E+01  0.10500000000E+00 0.  1.
         13    1    4    4    0    0 -0.66313949294E+00 -0.15578502092E+00  0.32549037885E+00  0.76222827720E+00  0.10500000000E+00 0. -1.
    3000001    1    5    5    0    0  0.33260893494E+02  0.19711970238E+02  0.16697476931E+02  0.42126648840E+02  0.10000000000E+01 0.  1.
        -13    1    6    6    0    0  0.70094746936E+01  0.21308636837E+01  0.59476374034E+01  0.94370933661E+01  0.10500000000E+00 0.  1.
         13    1    6    6    0    0  0.82175707796E+01  0.24061625203E+01  0.68023999866E+01  0.10936258874E+02  0.10500000000E+00 0. -1.
</event>
<event>
11    0  0.3494755E-009  0.9118800E+02  0.7816531E-02  0.1126479E+00
         25   -1    0    0    0    0  0.00000000000E+00  0.00000000000E+00  0.99999998245E-14  0.12500000000E+03  0.12500000000E+03 0.  0.
    3000001    1    3    3    0    0 -0.16092517886E+02 -0.22026207703E+02  0.24632321106E+02  0.36767841938E+02  0.10000000000E+01 0. -1.
    1000022    2    1    0    0    0 -0.34117267606E+02 -0.34608792408E+02  0.38006491833E+02  0.62500000460E+02  0.10000008763E+02 0.  0.
    3000022    2    3    3    0    0 -0.18024749719E+02 -0.12582584704E+02  0.13374170727E+02  0.25732158522E+02  0.24999856223E+00 0.  0.
    1000022    2    1    0    0    0  0.34117267606E+02  0.34608792408E+02 -0.38006491833E+02  0.62499999540E+02  0.10000003010E+02 0.  0.
    3000022    2    5    5    0    0  0.58934936609E+01  0.83912265354E+01 -0.36921483375E+01  0.10901391560E+02  0.24985653487E+00 0.  0.
        -13    1    4    4    0    0 -0.65720093757E+01 -0.45582006424E+01  0.49288477360E+01  0.93953746778E+01  0.10500000000E+00 0. -1.
         13    1    4    4    0    0 -0.11452740344E+02 -0.80243840618E+01  0.84453229913E+01  0.16336783844E+02  0.10500000000E+00 0.  1.
    3000001    1    5    5    0    0  0.28223773945E+02  0.26217565872E+02 -0.34314343496E+02  0.51598607980E+02  0.10000000000E+01 0.  1.
        -13    1    6    6    0    0  0.41121278086E+01  0.59128451235E+01 -0.26249897904E+01  0.76663504335E+01  0.10500000000E+00 0. -1.
         13    1    6    6    0    0  0.17813658523E+01  0.24783814119E+01 -0.10671585470E+01  0.32350411261E+01  0.10500000000E+00 0.  1.
</event>
<event>
11    0  0.3494755E-009  0.9118800E+02  0.7816531E-02  0.1126479E+00
         25   -1    0    0    0    0  0.00000000000E+00  0.00000000000E+00  0.99999998245E-14  0.12500000000E+03  0.12500000000E+03 0.  0.
    3000001    1    3    3    0    0 -0.23740658862E+02  0.33826410237E+02  0.41517283810E+02  0.58587795382E+02  0.10000000000E+01 0. -1.
    1000022    2    1    0    0    0 -0.27057355602E+02  0.35659559033E+02  0.42456396457E+02  0.62499999887E+02  0.99999871583E+01 0.  0.
    3000022    2    3    3    0    0 -0.33166967402E+01  0.18331487954E+01  0.93911264763E+00  0.39122045056E+01  0.24999951179E+00 0.  0.
    1000022    2    1    0    0    0  0.27057355602E+02 -0.35659559033E+02 -0.42456396457E+02  0.62500000113E+02  0.99999885685E+01 0.  0.
    3000022    2    5    5    0    0  0.95545333254E+01 -0.96210121558E+01 -0.74208558200E+01  0.15459126196E+02  0.24999934389E+00 0.  0.
        -13    1    4    4    0    0 -0.22868336875E+01  0.12076690994E+01  0.62940789839E+00  0.26636914744E+01  0.10500000000E+00 0.  1.
         13    1    4    4    0    0 -0.10298630526E+01  0.62547969602E+00  0.30970474924E+00  0.12485130312E+01  0.10500000000E+00 0. -1.
    3000001    1    5    5    0    0  0.17502822277E+02 -0.26038546877E+02 -0.35035540637E+02  0.47040873917E+02  0.10000000000E+01 0. -1.
        -13    1    6    6    0    0  0.36508303375E+01 -0.37571182539E+01 -0.28406488296E+01  0.59602693311E+01  0.10500000000E+00 0. -1.
         13    1    6    6    0    0  0.59037029879E+01 -0.58638939019E+01 -0.45802069904E+01  0.94988568648E+01  0.10500000000E+00 0.  1.
</event>
<event>
11    0  0.3494755E-009  0.9118800E+02  0.7816531E-02  0.1126479E+00
         25   -1    0    0    0    0  0.00000000000E+00  0.00000000000E+00  0.99999998245E-14  0.12500000000E+03  0.12500000000E+03 0.  0.
    3000001    1    3    3    0    0 -0.56105340640E+01 -0.45430881915E+01  0.23717168899E+02  0.24811727940E+02  0.10000000000E+01 0.  1.
    1000022    2    1    0    0    0 -0.10179262774E+02 -0.22490494292E+02  0.56540341562E+02  0.62499999887E+02  0.10000001888E+02 0.  0.
    3000022    2    3    3    0    0 -0.45687287096E+01 -0.17947406101E+02  0.32823172663E+02  0.37688271947E+02  0.25002175332E+00 0.  0.
    1000022    2    1    0    0    0  0.10179262774E+02  0.22490494292E+02 -0.56540341562E+02  0.62500000113E+02  0.10000003307E+02 0.  0.
    3000022    2    5    5    0    0 -0.37231556176E+00  0.10368504881E+02 -0.25517904082E+02  0.27547603059E+02  0.24998644476E+00 0.  0.
        -13    1    4    4    0    0 -0.22280640418E+01 -0.87738068263E+01  0.15906186476E+02  0.18301960245E+02  0.10500000000E+00 0.  1.
         13    1    4    4    0    0 -0.23406646678E+01 -0.91735992743E+01  0.16916986187E+02  0.19386311701E+02  0.10500000000E+00 0. -1.
    3000001    1    5    5    0    0  0.10551578335E+02  0.12121989411E+02 -0.31022437480E+02  0.34952397054E+02  0.10000000000E+01 0. -1.
        -13    1    6    6    0    0 -0.70579918921E-01  0.25126179210E+01 -0.61646406772E+01  0.66582317488E+01  0.10500000000E+00 0.  1.
         13    1    6    6    0    0 -0.30173564283E+00  0.78558869597E+01 -0.19353263405E+02  0.20889371310E+02  0.10500000000E+00 0. -1.
</event>
<event>
11    0  0.3494755E-009  0.9118800E+02  0.7816531E-02  0.1126479E+00
         25   -1    0    0    0    0  0.00000000000E+00  0.00000000000E+00  0.99999998245E-14  0.12500000000E+03  0.12500000000E+03 0.  0.
    3000001    1    3    3    0    0 -0.18987965385E+02  0.80918065109E+01 -0.35459845508E+02  0.41041695939E+02  0.10000000000E+01 0.  1.
    1000022    2    1    0    0    0 -0.31669726637E+02  0.17557756846E+02 -0.49950012912E+02  0.62499998145E+02  0.99999783731E+01 0.  0.
    3000022    2    3    3    0    0 -0.12681761253E+02  0.94659503349E+01 -0.14490167405E+02  0.21458302207E+02  0.24999594790E+00 0.  0.
    1000022    2    1    0    0    0  0.31669726637E+02 -0.17557756846E+02  0.49950012912E+02  0.62500001855E+02  0.10000001556E+02 0.  0.
    3000022    2    5    5    0    0 -0.57220636143E+00 -0.12648022755E+01  0.15355495765E+01  0.20850792589E+01  0.24999619570E+00 0.  0.
        -13    1    4    4    0    0 -0.55573645495E+01  0.42223747491E+01 -0.63513398196E+01  0.94373349926E+01  0.10500000000E+00 0. -1.
         13    1    4    4    0    0 -0.71243967032E+01  0.52435755858E+01 -0.81388275849E+01  0.12020967214E+02  0.10500000000E+00 0.  1.
    3000001    1    5    5    0    0  0.32241932999E+02 -0.16292954570E+02  0.48414463336E+02  0.60414922596E+02  0.10000000000E+01 0.  1.
        -13    1    6    6    0    0 -0.32193831243E+00 -0.81757277852E+00  0.90459201295E+00  0.12654569274E+01  0.10500000000E+00 0. -1.
         13    1    6    6    0    0 -0.25026804900E+00 -0.44722949699E+00  0.63095756359E+00  0.81962233155E+00  0.10500000000E+00 0.  1.
</event>
<event>
11    0  0.3494755E-009  0.9118800E+02  0.7816531E-02  0.1126479E+00
         25   -1    0    0    0    0  0.00000000000E+00  0.00000000000E+00  0.99999998245E-14  0.12500000000E+03  0.12500000000E+03 0.  0.
    3000001    1    3    3    0    0 -0.38734415477E+01  0.19171227605E+01  0.10335859034E+01  0.45549104186E+01  0.10000000000E+01 0.  1.
    1000022    2    1    0    0    0 -0.51357754331E+02 -0.26835105274E-01  0.34185236211E+02  0.62499999067E+02  0.99999929308E+01 0.  0.
    3000022    2    3    3    0    0 -0.47484312783E+02 -0.19439578658E+01  0.33151650307E+02  0.57945088649E+02  0.24989546979E+00 0.  0.
    1000022    2    1    0    0    0  0.51357754331E+02  0.26835105274E-01 -0.34185236211E+02  0.62500000933E+02  0.10000004589E+02 0.  0.
    3000022    2    5    5    0    0  0.32159649831E+02 -0.33152758831E+01 -0.17152703983E+02  0.36599343097E+02  0.25005947321E+00 0.  0.
        -13    1    4    4    0    0 -0.24694880172E+02 -0.10771223413E+01  0.17259851349E+02  0.30148147420E+02  0.10500000000E+00 0.  1.
         13    1    4    4    0    0 -0.22789432611E+02 -0.86683552446E+00  0.15891798958E+02  0.27796941229E+02  0.10500000000E+00 0. -1.
    3000001    1    5    5    0    0  0.19198104499E+02  0.33421109884E+01 -0.17032532228E+02  0.25900657836E+02  0.10000000000E+01 0.  1.
        -13    1    6    6    0    0  0.10579491540E+02 -0.10845763417E+01 -0.55832593913E+01  0.12011900662E+02  0.10500000000E+00 0.  1.
         13    1    6    6    0    0  0.21580158292E+02 -0.22306995414E+01 -0.11569444591E+02  0.24587442435E+02  0.10500000000E+00 0. -1.
</event>
<event>
11    0  0.3494755E-009  0.9118800E+02  0.7816531E-02  0.1126479E+00
         25   -1    0    0    0    0  0.00000000000E+00  0.00000000000E+00  0.99999998245E-14  0.12500000000E+03  0.12500000000E+03 0.  0.
    3000001    1    3    3    0    0  0.52222139749E+01  0.18007029017E+02 -0.49080042023E+02  0.52548788167E+02  0.10000000000E+01 0.  1.
    1000022    2    1    0    0    0  0.74441939591E+01  0.17296906766E+02 -0.58750753683E+02  0.62500000706E+02  0.10000001130E+02 0.  0.
    3000022    2    3    3    0    0  0.22219799842E+01 -0.71012225095E+00 -0.96707116600E+01  0.99512125397E+01  0.24999667283E+00 0.  0.
    1000022    2    1    0    0    0 -0.74441939591E+01 -0.17296906766E+02  0.58750753683E+02  0.62499999294E+02  0.99999923007E+01 0.  0.
    3000022    2    5    5    0    0 -0.74411056462E+01 -0.73789857426E+01  0.21218558425E+02  0.23666626432E+02  0.25000237374E+00 0.  0.
        -13    1    4    4    0    0  0.89207944612E+00 -0.35111916594E+00 -0.40269468680E+01  0.41408231651E+01  0.10500000000E+00 0. -1.
         13    1    4    4    0    0  0.13299005381E+01 -0.35900308501E+00 -0.56437647920E+01  0.58103893746E+01  0.10500000000E+00 0.  1.
    3000001    1    5    5    0    0 -0.30883128578E-02 -0.99179210235E+01  0.37532195258E+02  0.38833372862E+02  0.10000000000E+01 0. -1.
        -13    1    6    6    0    0 -0.32630927044E+01 -0.32542923284E+01  0.91854787685E+01  0.10277268011E+02  0.10500000000E+00 0. -1.
         13    1    6    6    0    0 -0.41780129418E+01 -0.41246934143E+01  0.12033079656E+02  0.13389358421E+02  0.10500000000E+00 0.  1.
</event>
<event>
11    0  0.3494755E-009  0.9118800E+02  0.7816531E-02  0.1126479E+00
         25   -1    0    0    0    0  0.00000000000E+00  0.00000000000E+00  0.99999998245E-14  0.12500000000E+03  0.12500000000E+03 0.  0.
    3000001    1    3    3    0    0 -0.28317691025E+02 -0.14762901725E+02  0.10257260099E+02  0.33556613016E+02  0.10000000000E+01 0.  1.
    1000022    2    1    0    0    0 -0.46654834316E+02 -0.33011789589E+02  0.23233561437E+02  0.62499999669E+02  0.99999882327E+01 0.  0.
    3000022    2    3    3    0    0 -0.18337143290E+02 -0.18248887864E+02  0.12976301338E+02  0.28943386653E+02  0.25000440891E+00 0.  0.
    1000022    2    1    0    0    0  0.46654834316E+02  0.33011789589E+02 -0.23233561437E+02  0.62500000331E+02  0.99999923712E+01 0.  0.
    3000022    2    5    5    0    0  0.92378944737E+01  0.26869516316E+01 -0.59802222561E+01  0.11330664815E+02  0.25000706575E+00 0.  0.
        -13    1    4    4    0    0 -0.12070321864E+02 -0.11955162007E+02  0.85635027439E+01  0.19025329768E+02  0.10500000000E+00 0.  1.
         13    1    4    4    0    0 -0.62668214266E+01 -0.62937258569E+01  0.44127985945E+01  0.99180568858E+01  0.10500000000E+00 0. -1.
    3000001    1    5    5    0    0  0.37416939842E+02  0.30324837957E+02 -0.17253339181E+02  0.51169335516E+02  0.10000000000E+01 0. -1.
        -13    1    6    6    0    0  0.60543669328E+01  0.17030962670E+01 -0.39016498261E+01  0.74020127139E+01  0.10500000000E+00 0.  1.
         13    1    6    6    0    0  0.31835275409E+01  0.98385536469E+00 -0.20785724300E+01  0.39286521008E+01  0.10500000000E+00 0. -1.
</event>
<event>
11    0  0.3494755E-009  0.9118800E+02  0.7816531E-02  0.1126479E+00
         25   -1    0    0    0    0  0.00000000000E+00  0.00000000000E+00  0.99999998245E-14  0.12500000000E+03  0.12500000000E+03 0.  0.
    3000001    1    3    3    0    0  0.86710746555E+01 -0.45403993312E+01 -0.29530590375E+02  0.31126492408E+02  0.10000000000E+01 0. -1.
    1000022    2    1    0    0    0  0.82319113022E+01 -0.56701165027E+01 -0.60879681715E+02  0.62500002911E+02  0.10000006665E+02 0.  0.
    3000022    2    3    3    0    0 -0.43916335330E+00 -0.11297171715E+01 -0.31349091340E+02  0.31373510502E+02  0.25001609967E+00 0.  0.
    1000022    2    1    0    0    0 -0.82319113022E+01  0.56701165027E+01  0.60879681715E+02  0.62499997089E+02  0.99999702783E+01 0.  0.
    3000022    2    5    5    0    0 -0.15882313143E+01  0.57194277016E+01  0.42835812247E+02  0.43245851023E+02  0.24997570284E+00 0.  0.
        -13    1    4    4    0    0 -0.25011758160E+00 -0.77714918029E+00 -0.20306747147E+02  0.20323423047E+02  0.10500000000E+00 0. -1.
         13    1    4    4    0    0 -0.18904577170E+00 -0.35256799124E+00 -0.11042344193E+02  0.11050087456E+02  0.10500000000E+00 0.  1.
    3000001    1    5    5    0    0 -0.66436799878E+01 -0.49311198875E-01  0.18043869468E+02  0.19254146066E+02  0.10000000000E+01 0.  1.
        -13    1    6    6    0    0 -0.44304894978E+00  0.17576324893E+01  0.13227721374E+02  0.13351749027E+02  0.10500000000E+00 0.  1.
         13    1    6    6    0    0 -0.11451823645E+01  0.39617952123E+01  0.29608090873E+02  0.29894101995E+02  0.10500000000E+00 0. -1.
</event>
<event>
11    0  0.3494755E-009  0.9118800E+02  0.7816531E-02  0.1126479E+00
         25   -1    0    0    0    0  0.00000000000E+00  0.00000000000E+00  0.99999998245E-14  0.12500000000E+03  0.12500000000E+03 0.  0.
    3000001    1    3    3    0    0 -0.11641877843E+02 -0.13207803438E+02  0.51796130779E+01  0.18379547954E+02  0.10000000000E+01 0. -1.
    1000022    2    1    0    0    0 -0.47302805272E+02 -0.39177981451E+02  0.58121115648E+01  0.62500001794E+02  0.99999983147E+01 0.  0.
    3000022    2    3    3    0    0 -0.35660927429E+02 -0.25970178013E+02  0.63249848697E+00  0.44120453840E+02  0.25000320007E+00 0.  0.
    1000022    2    1    0    0    0  0.47302805272E+02  0.39177981451E+02 -0.58121115648E+01  0.62499998206E+02  0.99999758885E+01 0.  0.
    3000022    2    5    5    0    0  0.30079711111E+02  0.23978288597E+02  0.11212884464E+01  0.38484634976E+02  0.24999389827E+00 0.  0.
        -13    1    4    4    0    0 -0.11080666564E+02 -0.81248212877E+01  0.17748156612E+00  0.13741776347E+02  0.10500000000E+00 0.  1.
         13    1    4    4    0    0 -0.24580260865E+02 -0.17845356725E+02  0.45501692085E+00  0.30378677493E+02  0.10500000000E+00 0. -1.
    3000001    1    5    5    0    0  0.17223094161E+02  0.15199692854E+02 -0.69334000112E+01  0.24015363229E+02  0.10000000000E+01 0.  1.
        -13    1    6    6    0    0  0.22760261021E+02  0.18141040958E+02  0.82646820610E+00  0.29117364638E+02  0.10500000000E+00 0. -1.
         13    1    6    6    0    0  0.73194500895E+01  0.58372476390E+01  0.29482024028E+00  0.93672703381E+01  0.10500000000E+00 0.  1.
</event>
<event>
11    0  0.3494755E-009  0.9118800E+02  0.7816531E-02  0.1126479E+00
         25   -1    0    0    0    0  0.00000000000E+00  0.00000000000E+00  0.99999998245E-14  0.12500000000E+03  0.12500000000E+03 0.  0.
    3000001    1    3    3    0    0  0.51538438663E+02  0.30251652251E+02  0.97630601583E+01  0.60561460248E+02  0.10000000000E+01 0.  1.
    1000022    2    1    0    0    0  0.52324571511E+02  0.30603264659E+02  0.11481725764E+02  0.62500003240E+02  0.99999893418E+01 0.  0.
    3000022    2    3    3    0    0  0.78613284825E+00  0.35161240861E+00  0.17186656059E+01  0.19385429920E+01  0.25000265220E+00 0.  0.
    1000022    2    1    0    0    0 -0.52324571511E+02 -0.30603264659E+02 -0.11481725764E+02  0.62499996760E+02  0.99999488449E+01 0.  0.
    3000022    2    5    5    0    0 -0.36612849866E+01 -0.55629816200E+01 -0.19077967678E+01  0.69320982355E+01  0.25005035772E+00 0.  0.
        -13    1    4    4    0    0  0.60963194403E+00  0.25411875821E+00  0.13136677432E+01  0.14741015535E+01  0.10500000000E+00 0.  1.
         13    1    4    4    0    0  0.17650090422E+00  0.97493650399E-01  0.40499786266E+00  0.46444143852E+00  0.10500000000E+00 0. -1.
    3000001    1    5    5    0    0 -0.48663286524E+02 -0.25040283039E+02 -0.95739289963E+01  0.55567898525E+02  0.10000000000E+01 0.  1.
        -13    1    6    6    0    0 -0.14184735738E+01 -0.22101762556E+01 -0.80949937980E+00  0.27501382886E+01  0.10500000000E+00 0. -1.
         13    1    6    6    0    0 -0.22428114129E+01 -0.33528053644E+01 -0.10982973880E+01  0.41819599469E+01  0.10500000000E+00 0.  1.
</event>
<event>
11    0  0.3494755E-009  0.9118800E+02  0.7816531E-02  0.1126479E+00
         25   -1    0    0    0    0  0.00000000000E+00  0.00000000000E+00  0.99999998245E-14  0.12500000000E+03  0.12500000000E+03 0.  0.
    3000001    1    3    3    0    0 -0.17004575185E+02 -0.21779652580E+01  0.63713081907E+01  0.18316459208E+02  0.10000000000E+01 0.  1.
    1000022    2    1    0    0    0 -0.59382484050E+02 -0.14527343796E+02  0.83022230560E+01  0.62499999620E+02  0.99999957555E+01 0.  0.
    3000022    2    3    3    0    0 -0.42377908866E+02 -0.12349378538E+02  0.19309148653E+01  0.44183540412E+02  0.25000199743E+00 0.  0.
    1000022    2    1    0    0    0  0.59382484050E+02  0.14527343796E+02 -0.83022230560E+01  0.62500000380E+02  0.10000000500E+02 0.  0.
    3000022    2    5    5    0    0  0.34928295069E+02  0.13022461702E+02 -0.28948743476E+01  0.37390013345E+02  0.24999039498E+00 0.  0.
        -13    1    4    4    0    0 -0.29512142137E+02 -0.85668066085E+01  0.13785064508E+01  0.30761469634E+02  0.10500000000E+00 0. -1.
         13    1    4    4    0    0 -0.12865766729E+02 -0.37825719300E+01  0.55240841452E+00  0.13422070778E+02  0.10500000000E+00 0.  1.
    3000001    1    5    5    0    0  0.24454188981E+02  0.15048820948E+01 -0.54073487084E+01  0.25109987035E+02  0.10000000000E+01 0. -1.
        -13    1    6    6    0    0  0.11825660003E+02  0.44162062050E+01 -0.10345896186E+01  0.12666116707E+02  0.10500000000E+00 0.  1.
         13    1    6    6    0    0  0.23102635067E+02  0.86062554967E+01 -0.18602847290E+01  0.24723896638E+02  0.10500000000E+00 0. -1.
</event>
<event>
11    0  0.3494755E-009  0.9118800E+02  0.7816531E-02  0.1126479E+00
         25   -1    0    0    0    0  0.00000000000E+00  0.00000000000E+00  0.99999998245E-14  0.12500000000E+03  0.12500000000E+03 0.  0.
    3000001    1    3    3    0    0  0.23661957841E+01  0.65603463628E+01  0.49182728395E+01  0.85922310614E+01  0.10000000000E+01 0. -1.
    1000022    2    1    0    0    0 -0.66313657443E+01  0.47093368013E+02  0.39299998007E+02  0.62499999369E+02  0.99999877706E+01 0.  0.
    3000022    2    3    3    0    0 -0.89975615284E+01  0.40533021650E+02  0.34381725167E+02  0.53907768308E+02  0.25000185587E+00 0.  0.
    1000022    2    1    0    0    0  0.66313657443E+01 -0.47093368013E+02 -0.39299998007E+02  0.62500000631E+02  0.99999956527E+01 0.  0.
    3000022    2    5    5    0    0  0.78771523535E+01 -0.38023093766E+02 -0.35229249212E+02  0.52430598715E+02  0.24998563253E+00 0.  0.
        -13    1    4    4    0    0 -0.39425321633E+01  0.17531811545E+02  0.14936350316E+02  0.23366933082E+02  0.10500000000E+00 0. -1.
         13    1    4    4    0    0 -0.50550293651E+01  0.23001210105E+02  0.19445374852E+02  0.30540835226E+02  0.10500000000E+00 0.  1.
    3000001    1    5    5    0    0 -0.12457866093E+01 -0.90702742470E+01 -0.40707487948E+01  0.10069401916E+02  0.10000000000E+01 0.  1.
        -13    1    6    6    0    0  0.24556390757E+01 -0.11642414423E+02 -0.10823111967E+02  0.16084985375E+02  0.10500000000E+00 0.  1.
         13    1    6    6    0    0  0.54215132778E+01 -0.26380679343E+02 -0.24406137245E+02  0.36345613340E+02  0.10500000000E+00 0. -1.
</event>
<event>
11    0  0.3494755E-009  0.9118800E+02  0.7816531E-02  0.1126479E+00
         25   -1    0    0    0    0  0.00000000000E+00  0.00000000000E+00  0.99999998245E-14  0.12500000000E+03  0.12500000000E+03 0.  0.
    3000001    1    3    3    0    0  0.17890708925E+02  0.54294585030E+02  0.22931490881E+02  0.61602213462E+02  0.10000000000E+01 0. -1.
    1000022    2    1    0    0    0  0.17099939734E+02  0.54629070896E+02  0.23011012430E+02  0.62499999372E+02  0.99999951284E+01 0.  0.
    3000022    2    3    3    0    0 -0.79076919065E+00  0.33448586590E+00  0.79521548992E-01  0.89778590970E+00  0.24999831108E+00 0.  0.
    1000022    2    1    0    0    0 -0.17099939734E+02 -0.54629070896E+02 -0.23011012430E+02  0.62500000628E+02  0.10000002980E+02 0.  0.
    3000022    2    5    5    0    0 -0.36431629061E+01 -0.30548659063E+01 -0.25241069407E+01  0.53887341439E+01  0.24999631915E+00 0.  0.
        -13    1    4    4    0    0 -0.42086519635E+00  0.24921240990E+00  0.52323620451E-01  0.50298817084E+00  0.10500000000E+00 0. -1.
         13    1    4    4    0    0 -0.36990399430E+00  0.85273455998E-01  0.27197928541E-01  0.39479773886E+00  0.10500000000E+00 0.  1.
    3000001    1    5    5    0    0 -0.13456776828E+02 -0.51574204989E+02 -0.20486905490E+02  0.57111266484E+02  0.10000000000E+01 0. -1.
        -13    1    6    6    0    0 -0.24927272815E+01 -0.20735014221E+01 -0.17752085247E+01  0.36980383656E+01  0.10500000000E+00 0.  1.
         13    1    6    6    0    0 -0.11504356246E+01 -0.98136448421E+00 -0.74889841602E+00  0.16906957783E+01  0.10500000000E+00 0. -1.
</event>
<event>
11    0  0.3494755E-009  0.9118800E+02  0.7816531E-02  0.1126479E+00
         25   -1    0    0    0    0  0.00000000000E+00  0.00000000000E+00  0.99999998245E-14  0.12500000000E+03  0.12500000000E+03 0.  0.
    3000001    1    3    3    0    0 -0.26402129112E+02  0.10559784567E+02 -0.23662935044E+02  0.37006971866E+02  0.10000000000E+01 0. -1.
    1000022    2    1    0    0    0 -0.38121252047E+02  0.18018636981E+02 -0.45037203364E+02  0.62499993626E+02  0.99999190032E+01 0.  0.
    3000022    2    3    3    0    0 -0.11719122935E+02  0.74588524142E+01 -0.21374268319E+02  0.25493021760E+02  0.24998112428E+00 0.  0.
    1000022    2    1    0    0    0  0.38121252047E+02 -0.18018636981E+02  0.45037203364E+02  0.62500006374E+02  0.99999986802E+01 0.  0.
    3000022    2    5    5    0    0  0.81427727897E+01 -0.45510577337E+01  0.16533315434E+02  0.18984991304E+02  0.25000078289E+00 0.  0.
        -13    1    4    4    0    0 -0.38877275482E+01  0.25123259559E+01 -0.72018614037E+01  0.85617778455E+01  0.10500000000E+00 0.  1.
         13    1    4    4    0    0 -0.78313953872E+01  0.49465264583E+01 -0.14172406916E+02  0.16931243915E+02  0.10500000000E+00 0. -1.
    3000001    1    5    5    0    0  0.29978479258E+02 -0.13467579248E+02  0.28503887930E+02  0.43515015070E+02  0.10000000000E+01 0.  1.
        -13    1    6    6    0    0  0.41698429869E+01 -0.23625464370E+01  0.86196189429E+01  0.98629646619E+01  0.10500000000E+00 0. -1.
         13    1    6    6    0    0  0.39729298028E+01 -0.21885112967E+01  0.79136964910E+01  0.91220266425E+01  0.10500000000E+00 0.  1.
</event>
<event>
11    0  0.3494755E-009  0.9118800E+02  0.7816531E-02  0.1126479E+00
         25   -1    0    0    0    0  0.00000000000E+00  0.00000000000E+00  0.99999998245E-14  0.12500000000E+03  0.12500000000E+03 0.  0.
    3000001    1    3    3    0    0  0.70822309420E+01  0.21144601837E+02  0.10327760265E+02  0.24595016041E+02  0.10000000000E+01 0. -1.
    1000022    2    1    0    0    0  0.58610693854E+01  0.55015570246E+02  0.27298072544E+02  0.62499999077E+02  0.10000000811E+02 0.  0.
    3000022    2    3    3    0    0 -0.12211615566E+01  0.33870968409E+02  0.16970312278E+02  0.37904983036E+02  0.25000728649E+00 0.  0.
    1000022    2    1    0    0    0 -0.58610693854E+01 -0.55015570246E+02 -0.27298072544E+02  0.62500000923E+02  0.10000012343E+02 0.  0.
    3000022    2    5    5    0    0 -0.24587746193E+01 -0.11967139475E+02 -0.18283225467E+01  0.12355697493E+02  0.24999471718E+00 0.  0.
        -13    1    4    4    0    0 -0.72336867522E+00  0.18437565913E+02  0.92026183067E+01  0.20619561289E+02  0.10500000000E+00 0. -1.
         13    1    4    4    0    0 -0.49779288141E+00  0.15433402496E+02  0.77676939715E+01  0.17285421747E+02  0.10500000000E+00 0.  1.
    3000001    1    5    5    0    0 -0.34022947660E+01 -0.43048430771E+02 -0.25469749997E+02  0.50144303430E+02  0.10000000000E+01 0.  1.
        -13    1    6    6    0    0 -0.61974175664E+00 -0.31862335080E+01 -0.48638194848E+00  0.32838630014E+01  0.10500000000E+00 0. -1.
         13    1    6    6    0    0 -0.18390328627E+01 -0.87809059669E+01 -0.13419405982E+01  0.90718344914E+01  0.10500000000E+00 0.  1.
</event>
<event>
11    0  0.3494755E-009  0.9118800E+02  0.7816531E-02  0.1126479E+00
         25   -1    0    0    0    0  0.00000000000E+00  0.00000000000E+00  0.99999998245E-14  0.12500000000E+03  0.12500000000E+03 0.  0.
    3000001    1    3    3    0    0  0.15882809402E+02  0.27461617360E+02 -0.42480034835E+02  0.53027892869E+02  0.10000000000E+01 0.  1.
    1000022    2    1    0    0    0  0.14945992681E+02  0.30957574842E+02 -0.51229833756E+02  0.62500000415E+02  0.10000002394E+02 0.  0.
    3000022    2    3    3    0    0 -0.93681672084E+00  0.34959574821E+01 -0.87497989214E+01  0.94721075464E+01  0.24999184380E+00 0.  0.
    1000022    2    1    0    0    0 -0.14945992681E+02 -0.30957574842E+02  0.51229833756E+02  0.62499999585E+02  0.99999972063E+01 0.  0.
    3000022    2    5    5    0    0 -0.17910160421E+01 -0.63549514186E+01  0.42641083110E+01  0.78637308959E+01  0.24999583733E+00 0.  0.
        -13    1    4    4    0    0 -0.52867432944E+00  0.21941851989E+01 -0.53991857561E+01  0.58528776737E+01  0.10500000000E+00 0.  1.
         13    1    4    4    0    0 -0.40814239140E+00  0.13017722832E+01 -0.33506131653E+01  0.36192298728E+01  0.10500000000E+00 0. -1.
    3000001    1    5    5    0    0 -0.13154976639E+02 -0.24602623423E+02  0.46965725445E+02  0.54636268689E+02  0.10000000000E+01 0.  1.
        -13    1    6    6    0    0 -0.84697127911E+00 -0.29286537087E+01  0.18931253497E+01  0.35901701189E+01  0.10500000000E+00 0. -1.
         13    1    6    6    0    0 -0.94404476299E+00 -0.34262977100E+01  0.23709829612E+01  0.42735607770E+01  0.10500000000E+00 0.  1.
</event>
<event>
11    0  0.3494755E-009  0.9118800E+02  0.7816531E-02  0.1126479E+00
         25   -1    0    0    0    0  0.00000000000E+00  0.00000000000E+00  0.99999998245E-14  0.12500000000E+03  0.12500000000E+03 0.  0.
    3000001    1    3    3    0    0  0.20938781849E+01 -0.72798843999E+01  0.14125168066E+02  0.16059309313E+02  0.10000000000E+01 0. -1.
    1000022    2    1    0    0    0 -0.44092693251E+00 -0.14916227908E+02  0.59862857924E+02  0.62500000021E+02  0.99999986079E+01 0.  0.
    3000022    2    3    3    0    0 -0.25348051175E+01 -0.76363435084E+01  0.45737689858E+02  0.46440690707E+02  0.25000128639E+00 0.  0.
    1000022    2    1    0    0    0  0.44092693251E+00  0.14916227908E+02 -0.59862857924E+02  0.62499999979E+02  0.99999983496E+01 0.  0.
    3000022    2    5    5    0    0  0.28715407512E+01  0.14215093549E+02 -0.42063647124E+02  0.44494129325E+02  0.25000816970E+00 0.  0.
        -13    1    4    4    0    0 -0.18532703300E+01 -0.55226064367E+01  0.33295282100E+02  0.33801192699E+02  0.10500000000E+00 0. -1.
         13    1    4    4    0    0 -0.68153478749E+00 -0.21137370717E+01  0.12442407759E+02  0.12639498008E+02  0.10500000000E+00 0.  1.
    3000001    1    5    5    0    0 -0.24306138187E+01  0.70113435913E+00 -0.17799210800E+02  0.18005870655E+02  0.10000000000E+01 0.  1.
        -13    1    6    6    0    0  0.17830120325E+01  0.88194581152E+01 -0.26283233456E+02  0.27780953174E+02  0.10500000000E+00 0.  1.
         13    1    6    6    0    0  0.10885287187E+01  0.53956354339E+01 -0.15780413668E+02  0.16713176151E+02  0.10500000000E+00 0. -1.
</event>
<event>
11    0  0.3494755E-009  0.9118800E+02  0.7816531E-02  0.1126479E+00
         25   -1    0    0    0    0  0.00000000000E+00  0.00000000000E+00  0.99999998245E-14  0.12500000000E+03  0.12500000000E+03 0.  0.
    3000001    1    3    3    0    0  0.11432539017E+02 -0.25307172922E+02  0.14746113242E+02  0.31457968870E+02  0.10000000000E+01 0. -1.
    1000022    2    1    0    0    0  0.24913616622E+02 -0.52761193759E+02  0.20045403382E+02  0.62500000016E+02  0.99999972571E+01 0.  0.
    3000022    2    3    3    0    0  0.13481077606E+02 -0.27454020837E+02  0.52992901404E+01  0.31042031146E+02  0.25001630105E+00 0.  0.
    1000022    2    1    0    0    0 -0.24913616622E+02  0.52761193759E+02 -0.20045403382E+02  0.62499999984E+02  0.99999970632E+01 0.  0.
    3000022    2    5    5    0    0 -0.46756627270E+01  0.49277561239E+01 -0.49309399129E+01  0.83976937509E+01  0.24997911093E+00 0.  0.
        -13    1    4    4    0    0  0.10393214092E+02 -0.21169545444E+02  0.40885921201E+01  0.23935249403E+02  0.10500000000E+00 0.  1.
         13    1    4    4    0    0  0.30878635135E+01 -0.62844753928E+01  0.12106980203E+01  0.71067817426E+01  0.10500000000E+00 0. -1.
    3000001    1    5    5    0    0 -0.20237953895E+02  0.47833437635E+02 -0.15114463469E+02  0.54102306234E+02  0.10000000000E+01 0.  1.
        -13    1    6    6    0    0 -0.25831090173E+01  0.27587986402E+01 -0.28188028353E+01  0.47159406863E+01  0.10500000000E+00 0. -1.
         13    1    6    6    0    0 -0.20925537097E+01  0.21689574837E+01 -0.21121370777E+01  0.36817530646E+01  0.10500000000E+00 0.  1.
</event>
<event>
11    0  0.3494755E-009  0.9118800E+02  0.7816531E-02  0.1126479E+00
         25   -1    0    0    0    0  0.00000000000E+00  0.00000000000E+00  0.99999998245E-14  0.12500000000E+03  0.12500000000E+03 0.  0.
    3000001    1    3    3    0    0  0.53340145948E+02  0.13535876890E+01  0.30159519382E+02  0.61299265727E+02  0.10000000000E+01 0.  1.
    1000022    2    1    0    0    0  0.54177631013E+02  0.17864791515E+01  0.29459173702E+02  0.62499999728E+02  0.99999920404E+01 0.  0.
    3000022    2    3    3    0    0  0.83748506499E+00  0.43289146259E+00 -0.70034567979E+00  0.12007340002E+01  0.25000363088E+00 0.  0.
    1000022    2    1    0    0    0 -0.54177631013E+02 -0.17864791515E+01 -0.29459173702E+02  0.62500000272E+02  0.99999954462E+01 0.  0.
    3000022    2    5    5    0    0 -0.48924155668E+02 -0.40328556614E+01 -0.28016745038E+02  0.56522893022E+02  0.25000104813E+00 0.  0.
        -13    1    4    4    0    0  0.18958704694E+00  0.12310545873E+00 -0.19221998718E+00  0.31475661361E+00  0.10500000000E+00 0. -1.
         13    1    4    4    0    0  0.64789801805E+00  0.30978600386E+00 -0.50812569261E+00  0.88597738655E+00  0.10500000000E+00 0.  1.
    3000001    1    5    5    0    0 -0.52534753455E+01  0.22463765099E+01 -0.14424286639E+01  0.59771072502E+01  0.10000000000E+01 0.  1.
        -13    1    6    6    0    0 -0.31718776459E+02 -0.25822069109E+01 -0.18216147779E+02  0.36668619247E+02  0.10500000000E+00 0.  1.
         13    1    6    6    0    0 -0.17205379209E+02 -0.14506487505E+01 -0.98005972585E+01  0.19854273775E+02  0.10500000000E+00 0. -1.
</event>
<event>
11    0  0.3494755E-009  0.9118800E+02  0.7816531E-02  0.1126479E+00
         25   -1    0    0    0    0  0.00000000000E+00  0.00000000000E+00  0.99999998245E-14  0.12500000000E+03  0.12500000000E+03 0.  0.
    3000001    1    3    3    0    0  0.15743514697E+01 -0.20761599797E+02  0.29627909756E+01  0.21054708240E+02  0.10000000000E+01 0. -1.
    1000022    2    1    0    0    0  0.13976604161E+02 -0.57315811964E+02  0.18049990185E+02  0.62500001991E+02  0.10000016914E+02 0.  0.
    3000022    2    3    3    0    0  0.12402252691E+02 -0.36554212166E+02  0.15087199209E+02  0.41445293751E+02  0.24999045807E+00 0.  0.
    1000022    2    1    0    0    0 -0.13976604161E+02  0.57315811964E+02 -0.18049990185E+02  0.62499998009E+02  0.99999920267E+01 0.  0.
    3000022    2    5    5    0    0 -0.15693590388E+01  0.18721532968E+02 -0.20291919202E+01  0.18898116401E+02  0.24999839712E+00 0.  0.
        -13    1    4    4    0    0  0.29008303538E+01 -0.85827522100E+01  0.35310540159E+01  0.97240845174E+01  0.10500000000E+00 0.  1.
         13    1    4    4    0    0  0.95014223375E+01 -0.27971459957E+02  0.11556145193E+02  0.31721209234E+02  0.10500000000E+00 0. -1.
    3000001    1    5    5    0    0 -0.12407245122E+02  0.38594278996E+02 -0.16020798265E+02  0.43601881608E+02  0.10000000000E+01 0. -1.
        -13    1    6    6    0    0 -0.64941668416E+00  0.80047989078E+01 -0.80538891129E+00  0.80720644126E+01  0.10500000000E+00 0.  1.
         13    1    6    6    0    0 -0.91994235467E+00  0.10716734060E+02 -0.12238030089E+01  0.10826051988E+02  0.10500000000E+00 0. -1.
</event>
<event>
11    0  0.3494755E-009  0.9118800E+02  0.7816531E-02  0.1126479E+00
         25   -1    0    0    0    0  0.00000000000E+00  0.00000000000E+00  0.99999998245E-14  0.12500000000E+03  0.12500000000E+03 0.  0.
    3000001    1    3    3    0    0  0.30370509223E+02  0.20233020143E+02  0.21688243898E+02  0.42463194156E+02  0.10000000000E+01 0. -1.
    1000022    2    1    0    0    0  0.42088664737E+02  0.35016855402E+02  0.28436141170E+02  0.62499999644E+02  0.99999984654E+01 0.  0.
    3000022    2    3    3    0    0  0.11718155514E+02  0.14783835259E+02  0.67478972728E+01  0.20036805488E+02  0.25000591581E+00 0.  0.
    1000022    2    1    0    0    0 -0.42088664737E+02 -0.35016855402E+02 -0.28436141170E+02  0.62500000356E+02  0.10000002911E+02 0.  0.
    3000022    2    5    5    0    0 -0.27570893892E+02 -0.16977165481E+02 -0.14724612979E+02  0.35570423900E+02  0.24998254697E+00 0.  0.
        -13    1    4    4    0    0  0.49063884335E+01  0.62191835508E+01  0.28996992237E+01  0.84362415854E+01  0.10500000000E+00 0. -1.
         13    1    4    4    0    0  0.68117670801E+01  0.85646517083E+01  0.38481980491E+01  0.11600563903E+02  0.10500000000E+00 0.  1.
    3000001    1    5    5    0    0 -0.14517770845E+02 -0.18039689921E+02 -0.13711528191E+02  0.26929576456E+02  0.10000000000E+01 0. -1.
        -13    1    6    6    0    0 -0.19168093568E+02 -0.11845310139E+02 -0.10279901713E+02  0.24767207908E+02  0.10500000000E+00 0.  1.
         13    1    6    6    0    0 -0.84028003232E+01 -0.51318553423E+01 -0.44447112657E+01  0.10803215992E+02  0.10500000000E+00 0. -1.
</event>
<event>
11    0  0.3494755E-009  0.9118800E+02  0.7816531E-02  0.1126479E+00
         25   -1    0    0    0    0  0.00000000000E+00  0.00000000000E+00  0.99999998245E-14  0.12500000000E+03  0.12500000000E+03 0.  0.
    3000001    1    3    3    0    0  0.26827095374E+01  0.80068159749E+01  0.61425385263E+01  0.10489843281E+02  0.10000000000E+01 0.  1.
    1000022    2    1    0    0    0  0.25642746243E+01  0.57314308302E+02  0.22687976421E+02  0.62500004161E+02  0.10000040283E+02 0.  0.
    3000022    2    3    3    0    0 -0.11843491308E+00  0.49307492327E+02  0.16545437894E+02  0.52010160880E+02  0.24998654795E+00 0.  0.
    1000022    2    1    0    0    0 -0.25642746243E+01 -0.57314308302E+02 -0.22687976421E+02  0.62499995839E+02  0.99999882645E+01 0.  0.
    3000022    2    5    5    0    0 -0.38484016703E+00 -0.11258931636E+02 -0.89183077221E+01  0.14370468202E+02  0.25000039590E+00 0.  0.
        -13    1    4    4    0    0 -0.82180836415E-01  0.24828024630E+02  0.82637643576E+01  0.26167506322E+02  0.10500000000E+00 0.  1.
         13    1    4    4    0    0 -0.36254076669E-01  0.24479467696E+02  0.82816735369E+01  0.25842654559E+02  0.10500000000E+00 0. -1.
    3000001    1    5    5    0    0 -0.21794344573E+01 -0.46055376666E+02 -0.13769668699E+02  0.48129527636E+02  0.10000000000E+01 0.  1.
        -13    1    6    6    0    0 -0.80378024407E-01 -0.33686011383E+01 -0.27058879159E+01  0.43228218410E+01  0.10500000000E+00 0. -1.
         13    1    6    6    0    0 -0.30446214262E+00 -0.78903304973E+01 -0.62124198062E+01  0.10047646361E+02  0.10500000000E+00 0.  1.
</event>
<event>
11    0  0.3494755E-009  0.9118800E+02  0.7816531E-02  0.1126479E+00
         25   -1    0    0    0    0  0.00000000000E+00  0.00000000000E+00  0.99999998245E-14  0.12500000000E+03  0.12500000000E+03 0.  0.
    3000001    1    3    3    0    0 -0.19608570101E+02 -0.21515267350E+02  0.49724635509E+02  0.57627616010E+02  0.10000000000E+01 0. -1.
    1000022    2    1    0    0    0 -0.21288456751E+02 -0.25474205445E+02  0.52001123673E+02  0.62499997745E+02  0.99999660455E+01 0.  0.
    3000022    2    3    3    0    0 -0.16798866500E+01 -0.39589380942E+01  0.22764881648E+01  0.48723817343E+01  0.24999082015E+00 0.  0.
    1000022    2    1    0    0    0  0.21288456751E+02  0.25474205445E+02 -0.52001123673E+02  0.62500002255E+02  0.99999942359E+01 0.  0.
    3000022    2    5    5    0    0  0.95203113862E-02  0.32084156665E+01 -0.93013729910E+01  0.98423604660E+01  0.24999660065E+00 0.  0.
        -13    1    4    4    0    0 -0.98956368426E+00 -0.24584137181E+01  0.13605232462E+01  0.29807856008E+01  0.10500000000E+00 0. -1.
         13    1    4    4    0    0 -0.69032296576E+00 -0.15005243761E+01  0.91596491857E+00  0.18915961335E+01  0.10500000000E+00 0.  1.
    3000001    1    5    5    0    0  0.21278936440E+02  0.22265789778E+02 -0.42699750682E+02  0.52657641789E+02  0.10000000000E+01 0. -1.
        -13    1    6    6    0    0  0.20699730760E-01  0.22436270157E+01 -0.63588064969E+01  0.67438665267E+01  0.10500000000E+00 0.  1.
         13    1    6    6    0    0 -0.11179419374E-01  0.96478865074E+00 -0.29425664941E+01  0.30984939393E+01  0.10500000000E+00 0. -1.
</event>
<event>
11    0  0.3494755E-009  0.9118800E+02  0.7816531E-02  0.1126479E+00
         25   -1    0    0    0    0  0.00000000000E+00  0.00000000000E+00  0.99999998245E-14  0.12500000000E+03  0.12500000000E+03 0.  0.
    3000001    1    3    3    0    0  0.10000471648E+02  0.36406949161E+02  0.42159078604E+02  0.56602679169E+02  0.10000000000E+01 0. -1.
    1000022    2    1    0    0    0  0.78884343895E+01  0.40316399013E+02  0.46028366854E+02  0.62499999735E+02  0.99999992540E+01 0.  0.
    3000022    2    3    3    0    0 -0.21120372586E+01  0.39094498521E+01  0.38692882504E+01  0.58973205657E+01  0.24999752422E+00 0.  0.
    1000022    2    1    0    0    0 -0.78884343895E+01 -0.40316399013E+02 -0.46028366854E+02  0.62500000265E+02  0.10000002567E+02 0.  0.
    3000022    2    5    5    0    0  0.21686507722E+01 -0.61013598310E+01 -0.88971792516E+01  0.11006904019E+02  0.24999899186E+00 0.  0.
        -13    1    4    4    0    0 -0.14964855363E+01  0.28372923926E+01  0.28203597211E+01  0.42726047135E+01  0.10500000000E+00 0.  1.
         13    1    4    4    0    0 -0.61555172227E+00  0.10721574595E+01  0.10489285293E+01  0.16247158522E+01  0.10500000000E+00 0. -1.
    3000001    1    5    5    0    0 -0.10057085162E+02 -0.34215039182E+02 -0.37131187603E+02  0.51493096246E+02  0.10000000000E+01 0.  1.
        -13    1    6    6    0    0  0.10878419249E+01 -0.32094608713E+01 -0.47329269793E+01  0.58219981045E+01  0.10500000000E+00 0.  1.
         13    1    6    6    0    0  0.10808088472E+01 -0.28918989597E+01 -0.41642522724E+01  0.51849059148E+01  0.10500000000E+00 0. -1.
</event>
<event>
11    0  0.3494755E-009  0.9118800E+02  0.7816531E-02  0.1126479E+00
         25   -1    0    0    0    0  0.00000000000E+00  0.00000000000E+00  0.99999998245E-14  0.12500000000E+03  0.12500000000E+03 0.  0.
    3000001    1    3    3    0    0  0.29351538867E+02 -0.16207601295E+02 -0.33955088646E+01  0.33715406776E+02  0.10000000000E+01 0.  1.
    1000022    2    1    0    0    0  0.51384299075E+02 -0.34119982188E+02  0.13155835667E+01  0.62499999923E+02  0.99999927131E+01 0.  0.
    3000022    2    3    3    0    0  0.22032760208E+02 -0.17912380894E+02  0.47110924313E+01  0.28784593147E+02  0.24999818746E+00 0.  0.
    1000022    2    1    0    0    0 -0.51384299075E+02  0.34119982188E+02 -0.13155835667E+01  0.62500000077E+02  0.99999936794E+01 0.  0.
    3000022    2    5    5    0    0 -0.17796688828E+02  0.68789095450E+01 -0.23808869239E+01  0.19229473479E+02  0.24999592692E+00 0.  0.
        -13    1    4    4    0    0  0.12644338519E+02 -0.10195597768E+02  0.26989799777E+01  0.16465874661E+02  0.10500000000E+00 0. -1.
         13    1    4    4    0    0  0.93884216890E+01 -0.77167831256E+01  0.20121124535E+01  0.12318718486E+02  0.10500000000E+00 0.  1.
    3000001    1    5    5    0    0 -0.33587610247E+02  0.27241072643E+02  0.10653033572E+01  0.43270526599E+02  0.10000000000E+01 0.  1.
        -13    1    6    6    0    0 -0.72501745694E+01  0.28708589090E+01 -0.97313807969E+00  0.78590638682E+01  0.10500000000E+00 0.  1.
         13    1    6    6    0    0 -0.10546514258E+02  0.40080506360E+01 -0.14077488442E+01  0.11370409611E+02  0.10500000000E+00 0. -1.
</event>
<event>
11    0  0.3494755E-009  0.9118800E+02  0.7816531E-02  0.1126479E+00
         25   -1    0    0    0    0  0.00000000000E+00  0.00000000000E+00  0.99999998245E-14  0.12500000000E+03  0.12500000000E+03 0.  0.
    3000001    1    3    3    0    0 -0.24133755682E+02  0.82999344577E+01  0.23402047015E+02  0.34640769042E+02  0.10000000000E+01 0. -1.
    1000022    2    1    0    0    0 -0.36337567629E+02  0.17817913433E+02  0.46565586667E+02  0.62500004677E+02  0.99999931335E+01 0.  0.
    3000022    2    3    3    0    0 -0.12203811947E+02  0.95179789755E+01  0.23163539652E+02  0.27859235635E+02  0.24998229587E+00 0.  0.
    1000022    2    1    0    0    0  0.36337567629E+02 -0.17817913433E+02 -0.46565586667E+02  0.62499995323E+02  0.99999346720E+01 0.  0.
    3000022    2    5    5    0    0  0.31518750662E+02 -0.16055429162E+02 -0.34782720269E+02  0.49609561338E+02  0.24999597736E+00 0.  0.
        -13    1    4    4    0    0 -0.77756766099E+01  0.60465588570E+01  0.14639041419E+02  0.17644675668E+02  0.10500000000E+00 0. -1.
         13    1    4    4    0    0 -0.44281353372E+01  0.34714201185E+01  0.85244982333E+01  0.10214559968E+02  0.10500000000E+00 0.  1.
    3000001    1    5    5    0    0  0.48188169672E+01 -0.17624842715E+01 -0.11782866399E+02  0.12890433986E+02  0.10000000000E+01 0. -1.
        -13    1    6    6    0    0  0.23440986105E+02 -0.11952269432E+02 -0.25834131318E+02  0.36874787323E+02  0.10500000000E+00 0. -1.
         13    1    6    6    0    0  0.80777645561E+01 -0.41031597293E+01 -0.89485889503E+01  0.12734774014E+02  0.10500000000E+00 0.  1.
</event>
<event>
11    0  0.3494755E-009  0.9118800E+02  0.7816531E-02  0.1126479E+00
         25   -1    0    0    0    0  0.00000000000E+00  0.00000000000E+00  0.99999998245E-14  0.12500000000E+03  0.12500000000E+03 0.  0.
    3000001    1    3    3    0    0  0.28830453031E+02 -0.22337343272E+02  0.41511445096E+02  0.55266192201E+02  0.10000000000E+01 0.  1.
    1000022    2    1    0    0    0  0.29298100319E+02 -0.24847199080E+02  0.48275128030E+02  0.62499999947E+02  0.10000001132E+02 0.  0.
    3000022    2    3    3    0    0  0.46764728790E+00 -0.25098558079E+01  0.67636829341E+01  0.72338077461E+01  0.24999502439E+00 0.  0.
    1000022    2    1    0    0    0 -0.29298100319E+02  0.24847199080E+02 -0.48275128030E+02  0.62500000053E+02  0.10000001794E+02 0.  0.
    3000022    2    5    5    0    0 -0.15924094322E+02  0.17380621920E+02 -0.23039768590E+02  0.32962952520E+02  0.25000771099E+00 0.  0.
        -13    1    4    4    0    0  0.22732547529E+00 -0.15306093929E+01  0.40167937702E+01  0.43058215450E+01  0.10500000000E+00 0.  1.
         13    1    4    4    0    0  0.24032181262E+00 -0.97924641499E+00  0.27468891639E+01  0.29279862011E+01  0.10500000000E+00 0. -1.
    3000001    1    5    5    0    0 -0.13374005997E+02  0.74665771599E+01 -0.25235359441E+02  0.29537047533E+02  0.10000000000E+01 0. -1.
        -13    1    6    6    0    0 -0.38168953553E+01  0.41387830447E+01 -0.55033271273E+01  0.78737443262E+01  0.10500000000E+00 0.  1.
         13    1    6    6    0    0 -0.12107198967E+02  0.13241838875E+02 -0.17536441462E+02  0.25089208194E+02  0.10500000000E+00 0. -1.
</event>
<event>
11    0  0.3494755E-009  0.9118800E+02  0.7816531E-02  0.1126479E+00
         25   -1    0    0    0    0  0.00000000000E+00  0.00000000000E+00  0.99999998245E-14  0.12500000000E+03  0.12500000000E+03 0.  0.
    3000001    1    3    3    0    0  0.21003176467E+02 -0.22903823307E+02 -0.30739142375E+02  0.43722001529E+02  0.10000000000E+01 0.  1.
    1000022    2    1    0    0    0  0.31856858574E+02 -0.36029255194E+02 -0.38643026345E+02  0.62500000979E+02  0.99999984669E+01 0.  0.
    3000022    2    3    3    0    0  0.10853682107E+02 -0.13125431887E+02 -0.79038839693E+01  0.18777999450E+02  0.25000809106E+00 0.  0.
    1000022    2    1    0    0    0 -0.31856858574E+02  0.36029255194E+02  0.38643026345E+02  0.62499999021E+02  0.99999862267E+01 0.  0.
    3000022    2    5    5    0    0 -0.11405968636E+01 -0.78208315713E-01 -0.22245684130E+00  0.11912440359E+01  0.24999512175E+00 0.  0.
        -13    1    4    4    0    0  0.76928553361E+01 -0.93380663913E+01 -0.55739687944E+01  0.13321398585E+02  0.10500000000E+00 0. -1.
         13    1    4    4    0    0  0.31608267706E+01 -0.37873654956E+01 -0.23299151749E+01  0.54566008644E+01  0.10500000000E+00 0.  1.
    3000001    1    5    5    0    0 -0.30716261710E+02  0.36107463509E+02  0.38865483186E+02  0.61308754985E+02  0.10000000000E+01 0.  1.
        -13    1    6    6    0    0 -0.76602671285E+00 -0.48967217292E-01 -0.20181099743E+00  0.80059190094E+00  0.10500000000E+00 0. -1.
         13    1    6    6    0    0 -0.37457015074E+00 -0.29241098421E-01 -0.20645843868E-01  0.39065213494E+00  0.10500000000E+00 0.  1.
</event>
<event>
11    0  0.3494755E-009  0.9118800E+02  0.7816531E-02  0.1126479E+00
         25   -1    0    0    0    0  0.00000000000E+00  0.00000000000E+00  0.99999998245E-14  0.12500000000E+03  0.12500000000E+03 0.  0.
    3000001    1    3    3    0    0  0.17954015937E+02  0.20202557524E+02  0.22923103761E-01  0.27046081865E+02  0.10000000000E+01 0. -1.
    1000022    2    1    0    0    0  0.33972141147E+02  0.50990604300E+02 -0.72181827411E+01  0.62499999479E+02  0.99999835883E+01 0.  0.
    3000022    2    3    3    0    0  0.16018125210E+02  0.30788046776E+02 -0.72411058448E+01  0.35453917614E+02  0.25000157040E+00 0.  0.
    1000022    2    1    0    0    0 -0.33972141147E+02 -0.50990604300E+02  0.72181827411E+01  0.62500000521E+02  0.99999901009E+01 0.  0.
    3000022    2    5    5    0    0 -0.22679974845E+02 -0.35971126811E+02  0.94151907567E+01  0.43554695877E+02  0.24998581088E+00 0.  0.
        -13    1    4    4    0    0  0.68293315957E+01  0.13241061385E+02 -0.31479304497E+01  0.15227802460E+02  0.10500000000E+00 0.  1.
         13    1    4    4    0    0  0.91887936144E+01  0.17546985390E+02 -0.40931753951E+01  0.20226115153E+02  0.10500000000E+00 0. -1.
    3000001    1    5    5    0    0 -0.11292166302E+02 -0.15019477489E+02 -0.21970080156E+01  0.18945304644E+02  0.10000000000E+01 0.  1.
        -13    1    6    6    0    0 -0.13064267628E+02 -0.20641556962E+02  0.54597002247E+01  0.25031346628E+02  0.10500000000E+00 0.  1.
         13    1    6    6    0    0 -0.96157072176E+01 -0.15329569849E+02  0.39554905320E+01  0.18523349249E+02  0.10500000000E+00 0. -1.
</event>
<event>
11    0  0.3494755E-009  0.9118800E+02  0.7816531E-02  0.1126479E+00
         25   -1    0    0    0    0  0.00000000000E+00  0.00000000000E+00  0.99999998245E-14  0.12500000000E+03  0.12500000000E+03 0.  0.
    3000001    1    3    3    0    0 -0.11259077527E+02  0.15824301602E+02  0.31807248875E+02  0.37281046511E+02  0.10000000000E+01 0.  1.
    1000022    2    1    0    0    0 -0.11069453163E+02  0.28867640518E+02  0.53388917787E+02  0.62499999908E+02  0.99999991803E+01 0.  0.
    3000022    2    3    3    0    0  0.18962436318E+00  0.13043338916E+02  0.21581668912E+02  0.25218953398E+02  0.25005987764E+00 0.  0.
    1000022    2    1    0    0    0  0.11069453163E+02 -0.28867640518E+02 -0.53388917787E+02  0.62500000092E+02  0.10000000325E+02 0.  0.
    3000022    2    5    5    0    0  0.10172198720E+02 -0.19300307022E+02 -0.29184085163E+02  0.36438287597E+02  0.24999653075E+00 0.  0.
        -13    1    4    4    0    0  0.13305349951E+00  0.69109103660E+01  0.11549617966E+02  0.13460426646E+02  0.10500000000E+00 0. -1.
         13    1    4    4    0    0  0.56570863664E-01  0.61324285504E+01  0.10032050946E+02  0.11758526752E+02  0.10500000000E+00 0.  1.
    3000001    1    5    5    0    0  0.89725444339E+00 -0.95673334968E+01 -0.24204832625E+02  0.26061712495E+02  0.10000000000E+01 0.  1.
        -13    1    6    6    0    0  0.32027103404E+01 -0.59890645816E+01 -0.91299693525E+01  0.11379526065E+02  0.10500000000E+00 0.  1.
         13    1    6    6    0    0  0.69694883796E+01 -0.13311242440E+02 -0.20054115810E+02  0.25058761532E+02  0.10500000000E+00 0. -1.
</event>
<event>
11    0  0.3494755E-009  0.9118800E+02  0.7816531E-02  0.1126479E+00
         25   -1    0    0    0    0  0.00000000000E+00  0.00000000000E+00  0.99999998245E-14  0.12500000000E+03  0.12500000000E+03 0.  0.
    3000001    1    3    3    0    0 -0.39474905165E+02 -0.22515084081E+02 -0.23458242635E+01  0.45515931722E+02  0.10000000000E+01 0.  1.
    1000022    2    1    0    0    0 -0.53179009669E+02 -0.31156100001E+02  0.27459764271E+01  0.62499999498E+02  0.99999957075E+01 0.  0.
    3000022    2    3    3    0    0 -0.13704104503E+02 -0.86410159193E+01  0.50918006906E+01  0.16984067777E+02  0.24997522912E+00 0.  0.
    1000022    2    1    0    0    0  0.53179009669E+02  0.31156100001E+02 -0.27459764271E+01  0.62500000502E+02  0.10000001981E+02 0.  0.
    3000022    2    5    5    0    0  0.42817527991E+01  0.22042021961E+01 -0.29730404053E+01  0.56651021216E+01  0.24999688661E+00 0.  0.
        -13    1    4    4    0    0 -0.58098621465E+01 -0.35867838880E+01  0.21500097169E+01  0.71591258966E+01  0.10500000000E+00 0. -1.
         13    1    4    4    0    0 -0.78942423567E+01 -0.50542320313E+01  0.29417909737E+01  0.98249418800E+01  0.10500000000E+00 0.  1.
    3000001    1    5    5    0    0  0.48897256870E+02  0.28951897804E+02  0.22706397823E+00  0.56834898380E+02  0.10000000000E+01 0.  1.
        -13    1    6    6    0    0  0.28138946386E+01  0.15094241058E+01 -0.19744556328E+01  0.37557774447E+01  0.10500000000E+00 0. -1.
         13    1    6    6    0    0  0.14678581604E+01  0.69477809027E+00 -0.99858477253E+00  0.19093246769E+01  0.10500000000E+00 0.  1.
</event>
<event>
11    0  0.3494755E-009  0.9118800E+02  0.7816531E-02  0.1126479E+00
         25   -1    0    0    0    0  0.00000000000E+00  0.00000000000E+00  0.99999998245E-14  0.12500000000E+03  0.12500000000E+03 0.  0.
    3000001    1    3    3    0    0  0.23395023753E+02 -0.29160662108E+02 -0.30536875743E+01  0.37523277559E+02  0.10000000000E+01 0. -1.
    1000022    2    1    0    0    0  0.33858588135E+02 -0.51572040908E+02  0.41302317801E+00  0.62499999961E+02  0.10000000654E+02 0.  0.
    3000022    2    3    3    0    0  0.10463564382E+02 -0.22411378800E+02  0.34667107524E+01  0.24976722402E+02  0.24999842864E+00 0.  0.
    1000022    2    1    0    0    0 -0.33858588135E+02  0.51572040908E+02 -0.41302317801E+00  0.62500000039E+02  0.10000001144E+02 0.  0.
    3000022    2    5    5    0    0 -0.27613292518E+02  0.35956024245E+02 -0.30846082731E+01  0.45441246842E+02  0.25000619159E+00 0.  0.
        -13    1    4    4    0    0  0.31554146975E+01 -0.66983779645E+01  0.99957078012E+00  0.74722872010E+01  0.10500000000E+00 0. -1.
         13    1    4    4    0    0  0.73081496845E+01 -0.15713000835E+02  0.24671399722E+01  0.17504435201E+02  0.10500000000E+00 0.  1.
    3000001    1    5    5    0    0 -0.62452956169E+01  0.15616016662E+02  0.26715850951E+01  0.17058753198E+02  0.10000000000E+01 0. -1.
        -13    1    6    6    0    0 -0.75970143755E+01  0.98716709839E+01 -0.88330401411E+00  0.12488225111E+02  0.10500000000E+00 0.  1.
         13    1    6    6    0    0 -0.20016278143E+02  0.26084353261E+02 -0.22013042590E+01  0.32953021731E+02  0.10500000000E+00 0. -1.
</event>
<event>
11    0  0.3494755E-009  0.9118800E+02  0.7816531E-02  0.1126479E+00
         25   -1    0    0    0    0  0.00000000000E+00  0.00000000000E+00  0.99999998245E-14  0.12500000000E+03  0.12500000000E+03 0.  0.
    3000001    1    3    3    0    0 -0.12393951303E+02  0.37736112617E+01 -0.72000899605E+01  0.14855688011E+02  0.10000000000E+01 0. -1.
    1000022    2    1    0    0    0 -0.41047534180E+02  0.14352104129E+02 -0.43764906178E+02  0.62500001442E+02  0.10000010609E+02 0.  0.
    3000022    2    3    3    0    0 -0.28653582878E+02  0.10578492867E+02 -0.36564816218E+02  0.47644313430E+02  0.24998825137E+00 0.  0.
    1000022    2    1    0    0    0  0.41047534180E+02 -0.14352104129E+02  0.43764906178E+02  0.62499998558E+02  0.99999925880E+01 0.  0.
    3000022    2    5    5    0    0  0.42553740431E+01 -0.50510922120E+01  0.55004610139E+01  0.85987960300E+01  0.24996203526E+00 0.  0.
        -13    1    4    4    0    0 -0.21521113330E+02  0.79190575551E+01 -0.27439209775E+02  0.35760188053E+02  0.10500000000E+00 0. -1.
         13    1    4    4    0    0 -0.71324695479E+01  0.26594353123E+01 -0.91256064427E+01  0.11884125377E+02  0.10500000000E+00 0.  1.
    3000001    1    5    5    0    0  0.36792160137E+02 -0.93010119171E+01  0.38264445164E+02  0.53901202528E+02  0.10000000000E+01 0. -1.
        -13    1    6    6    0    0  0.21133927167E+01 -0.26111714742E+01  0.27776669789E+01  0.43601724837E+01  0.10500000000E+00 0.  1.
         13    1    6    6    0    0  0.21419813265E+01 -0.24399207379E+01  0.27227940350E+01  0.42386235463E+01  0.10500000000E+00 0. -1.
</event>
<event>
11    0  0.3494755E-009  0.9118800E+02  0.7816531E-02  0.1126479E+00
         25   -1    0    0    0    0  0.00000000000E+00  0.00000000000E+00  0.99999998245E-14  0.12500000000E+03  0.12500000000E+03 0.  0.
    3000001    1    3    3    0    0 -0.77106278121E+01  0.29987150964E+02  0.49643485003E+02  0.58516310611E+02  0.10000000000E+01 0. -1.
    1000022    2    1    0    0    0 -0.87566535952E+01  0.33568632062E+02  0.51016838359E+02  0.62499999115E+02  0.10000002627E+02 0.  0.
    3000022    2    3    3    0    0 -0.10460257831E+01  0.35814810976E+01  0.13733533552E+01  0.39836885040E+01  0.24999573448E+00 0.  0.
    1000022    2    1    0    0    0  0.87566535952E+01 -0.33568632062E+02 -0.51016838359E+02  0.62500000885E+02  0.10000013695E+02 0.  0.
    3000022    2    5    5    0    0  0.24784052666E+01 -0.10028862044E+02 -0.80592961512E+01  0.13104782422E+02  0.25000261742E+00 0.  0.
        -13    1    4    4    0    0 -0.54700736995E+00  0.16427657995E+01  0.61701665465E+00  0.18410950782E+01  0.10500000000E+00 0. -1.
         13    1    4    4    0    0 -0.49901841317E+00  0.19387152981E+01  0.75633670058E+00  0.21425934258E+01  0.10500000000E+00 0.  1.
    3000001    1    5    5    0    0  0.62782483286E+01 -0.23539770017E+02 -0.42957542207E+02  0.49395218463E+02  0.10000000000E+01 0. -1.
        -13    1    6    6    0    0  0.17602650384E+01 -0.70526681671E+01 -0.56171983534E+01  0.91870889635E+01  0.10500000000E+00 0. -1.
         13    1    6    6    0    0  0.71814022821E+00 -0.29761938772E+01 -0.24420977978E+01  0.39176934587E+01  0.10500000000E+00 0.  1.
</event>
<event>
11    0  0.3494755E-009  0.9118800E+02  0.7816531E-02  0.1126479E+00
         25   -1    0    0    0    0  0.00000000000E+00  0.00000000000E+00  0.99999998245E-14  0.12500000000E+03  0.12500000000E+03 0.  0.
    3000001    1    3    3    0    0  0.50502465648E+02  0.14038986089E+02  0.27747523042E+02  0.59317090302E+02  0.10000000000E+01 0.  1.
    1000022    2    1    0    0    0  0.52213351491E+02  0.12969097929E+02  0.30196325751E+02  0.62500002731E+02  0.10000033873E+02 0.  0.
    3000022    2    3    3    0    0  0.17108858436E+01 -0.10698881604E+01  0.24488027085E+01  0.31829124287E+01  0.25001155642E+00 0.  0.
    1000022    2    1    0    0    0 -0.52213351491E+02 -0.12969097929E+02 -0.30196325751E+02  0.62499997269E+02  0.99999997378E+01 0.  0.
    3000022    2    5    5    0    0 -0.44002868274E+02 -0.89462654260E+01 -0.21283498477E+02  0.49692432862E+02  0.24998999528E+00 0.  0.
        -13    1    4    4    0    0  0.11665749804E+01 -0.78148271988E+00  0.17233294469E+01  0.22254217149E+01  0.10500000000E+00 0.  1.
         13    1    4    4    0    0  0.54431086313E+00 -0.28840544053E+00  0.72547326163E+00  0.95749071389E+00  0.10500000000E+00 0. -1.
    3000001    1    5    5    0    0 -0.82104832176E+01 -0.40228325030E+01 -0.89128272743E+01  0.12807564407E+02  0.10000000000E+01 0.  1.
        -13    1    6    6    0    0 -0.27376617948E+02 -0.55621209252E+01 -0.13174318734E+02  0.30886730137E+02  0.10500000000E+00 0.  1.
         13    1    6    6    0    0 -0.16626250325E+02 -0.33841445007E+01 -0.81091797427E+01  0.18805702725E+02  0.10500000000E+00 0. -1.
</event>
<event>
11    0  0.3494755E-009  0.9118800E+02  0.7816531E-02  0.1126479E+00
         25   -1    0    0    0    0  0.00000000000E+00  0.00000000000E+00  0.99999998245E-14  0.12500000000E+03  0.12500000000E+03 0.  0.
    3000001    1    3    3    0    0  0.28004437599E+02  0.45262657428E+01  0.21284081374E+02  0.35478834913E+02  0.10000000000E+01 0.  1.
    1000022    2    1    0    0    0  0.50345541816E+02  0.14885196236E+02  0.32403817139E+02  0.62500000493E+02  0.10000002437E+02 0.  0.
    3000022    2    3    3    0    0  0.22341104216E+02  0.10358930493E+02  0.11119735764E+02  0.27021165580E+02  0.24997450039E+00 0.  0.
    1000022    2    1    0    0    0 -0.50345541816E+02 -0.14885196236E+02 -0.32403817139E+02  0.62499999507E+02  0.99999962768E+01 0.  0.
    3000022    2    5    5    0    0 -0.13519874539E+02 -0.67947817485E+01 -0.13639999369E+02  0.20373221393E+02  0.25000118250E+00 0.  0.
        -13    1    4    4    0    0  0.15237907450E+02  0.70495433848E+01  0.75281650686E+01  0.18400385314E+02  0.10500000000E+00 0. -1.
         13    1    4    4    0    0  0.71031967661E+01  0.33093871084E+01  0.35915706955E+01  0.86207802658E+01  0.10500000000E+00 0.  1.
    3000001    1    5    5    0    0 -0.36825667277E+02 -0.80904144874E+01 -0.18763817769E+02  0.42126778114E+02  0.10000000000E+01 0.  1.
        -13    1    6    6    0    0 -0.96625211244E+01 -0.48742213737E+01 -0.97036988962E+01  0.14535994832E+02  0.10500000000E+00 0.  1.
         13    1    6    6    0    0 -0.38573534142E+01 -0.19205603748E+01 -0.39363004729E+01  0.58372265613E+01  0.10500000000E+00 0. -1.
</event>
<event>
11    0  0.3494755E-009  0.9118800E+02  0.7816531E-02  0.1126479E+00
         25   -1    0    0    0    0  0.00000000000E+00  0.00000000000E+00  0.99999998245E-14  0.12500000000E+03  0.12500000000E+03 0.  0.
    3000001    1    3    3    0    0  0.44055951224E+01 -0.16171887835E+01  0.38109480558E+01  0.61276335586E+01  0.10000000000E+01 0. -1.
    1000022    2    1    0    0    0  0.21309127265E+02 -0.27527823876E+02  0.50935154579E+02  0.62500000451E+02  0.10000004614E+02 0.  0.
    3000022    2    3    3    0    0  0.16903532143E+02 -0.25910635092E+02  0.47124206523E+02  0.56372366893E+02  0.24999771954E+00 0.  0.
    1000022    2    1    0    0    0 -0.21309127265E+02  0.27527823876E+02 -0.50935154579E+02  0.62499999549E+02  0.99999989709E+01 0.  0.
    3000022    2    5    5    0    0 -0.40189135283E+00 -0.63733263305E+00 -0.29367641515E+01  0.30421654279E+01  0.24995452553E+00 0.  0.
        -13    1    4    4    0    0  0.95106483324E+01 -0.14696695372E+02  0.26687311704E+02  0.31916593139E+02  0.10500000000E+00 0. -1.
         13    1    4    4    0    0  0.73928838103E+01 -0.11213939720E+02  0.20436894819E+02  0.24455773754E+02  0.10500000000E+00 0.  1.
    3000001    1    5    5    0    0 -0.20907235912E+02  0.28165156509E+02 -0.47998390428E+02  0.59457834121E+02  0.10000000000E+01 0.  1.
        -13    1    6    6    0    0 -0.13169735116E+00 -0.33091185704E+00 -0.13103178670E+01  0.13619121712E+01  0.10500000000E+00 0. -1.
         13    1    6    6    0    0 -0.27019400167E+00 -0.30642077601E+00 -0.16264462845E+01  0.16802532568E+01  0.10500000000E+00 0.  1.
</event>
<event>
11    0  0.3494755E-009  0.9118800E+02  0.7816531E-02  0.1126479E+00
         25   -1    0    0    0    0  0.00000000000E+00  0.00000000000E+00  0.99999998245E-14  0.12500000000E+03  0.12500000000E+03 0.  0.
    3000001    1    3    3    0    0 -0.22318595895E+02  0.20243954539E+02 -0.20400952526E+01  0.30217534756E+02  0.10000000000E+01 0.  1.
    1000022    2    1    0    0    0 -0.41737048181E+02  0.43444251990E+02 -0.13299087874E+02  0.62500000239E+02  0.10000003486E+02 0.  0.
    3000022    2    3    3    0    0 -0.19418452286E+02  0.23200297451E+02 -0.11258992621E+02  0.32282465483E+02  0.25014352980E+00 0.  0.
    1000022    2    1    0    0    0  0.41737048181E+02 -0.43444251990E+02  0.13299087874E+02  0.62499999761E+02  0.10000000504E+02 0.  0.
    3000022    2    5    5    0    0  0.11492449723E+02 -0.66036200244E+01  0.46325048046E+01  0.14043033682E+02  0.24999235473E+00 0.  0.
        -13    1    4    4    0    0 -0.12527350162E+02  0.14942048177E+02 -0.73151584131E+01  0.20825990335E+02  0.10500000000E+00 0. -1.
         13    1    4    4    0    0 -0.68911021240E+01  0.82582492740E+01 -0.39438342081E+01  0.11456475148E+02  0.10500000000E+00 0.  1.
    3000001    1    5    5    0    0  0.30244598458E+02 -0.36840631965E+02  0.86665830692E+01  0.48456966079E+02  0.10000000000E+01 0. -1.
        -13    1    6    6    0    0  0.74405987655E+01 -0.43354584440E+01  0.29860489987E+01  0.91151644818E+01  0.10500000000E+00 0.  1.
         13    1    6    6    0    0  0.40518509575E+01 -0.22681615805E+01  0.16464558058E+01  0.49278692005E+01  0.10500000000E+00 0. -1.
</event>
<event>
11    0  0.3494755E-009  0.9118800E+02  0.7816531E-02  0.1126479E+00
         25   -1    0    0    0    0  0.00000000000E+00  0.00000000000E+00  0.99999998245E-14  0.12500000000E+03  0.12500000000E+03 0.  0.
    3000001    1    3    3    0    0  0.57379416742E+02  0.17776441635E+02  0.43547583316E+01  0.60235896798E+02  0.10000000000E+01 0.  1.
    1000022    2    1    0    0    0  0.59266196685E+02  0.16553447244E+02  0.44442394111E+01  0.62499999912E+02  0.10000002000E+02 0.  0.
    3000022    2    3    3    0    0  0.18867799424E+01 -0.12229943913E+01  0.89481079436E-01  0.22641031149E+01  0.25000443812E+00 0.  0.
    1000022    2    1    0    0    0 -0.59266196685E+02 -0.16553447244E+02 -0.44442394111E+01  0.62500000088E+02  0.10000003095E+02 0.  0.
    3000022    2    5    5    0    0 -0.50430382242E+02 -0.13876729590E+02 -0.23908461267E+00  0.52305895854E+02  0.25000473520E+00 0.  0.
        -13    1    4    4    0    0  0.11228816191E+01 -0.65677858308E+00  0.25734030787E-01  0.13053384535E+01  0.10500000000E+00 0. -1.
         13    1    4    4    0    0  0.76389832331E+00 -0.56621580824E+00  0.63747048649E-01  0.95876466146E+00  0.10500000000E+00 0.  1.
    3000001    1    5    5    0    0 -0.88358144422E+01 -0.26767176537E+01 -0.42051547984E+01  0.10194104234E+02  0.10000000000E+01 0. -1.
        -13    1    6    6    0    0 -0.24634270114E+02 -0.68341179377E+01 -0.15831254320E+00  0.25565377367E+02  0.10500000000E+00 0.  1.
         13    1    6    6    0    0 -0.25796112128E+02 -0.70426116525E+01 -0.80772069476E-01  0.26740518487E+02  0.10500000000E+00 0. -1.
</event>
<event>
11    0  0.3494755E-009  0.9118800E+02  0.7816531E-02  0.1126479E+00
         25   -1    0    0    0    0  0.00000000000E+00  0.00000000000E+00  0.99999998245E-14  0.12500000000E+03  0.12500000000E+03 0.  0.
    3000001    1    3    3    0    0  0.33299407875E+01  0.29272059797E+02 -0.14488632877E+02  0.32846041970E+02  0.10000000000E+01 0.  1.
    1000022    2    1    0    0    0  0.15226023787E+01  0.51249990146E+02 -0.34312829802E+02  0.62499999194E+02  0.99999901118E+01 0.  0.
    3000022    2    3    3    0    0 -0.18073384088E+01  0.21977930349E+02 -0.19824196925E+02  0.29653957224E+02  0.25000159255E+00 0.  0.
    1000022    2    1    0    0    0 -0.15226023787E+01 -0.51249990146E+02  0.34312829802E+02  0.62500000806E+02  0.10000000190E+02 0.  0.
    3000022    2    5    5    0    0 -0.92613678449E+00 -0.46639117849E+02  0.34018120825E+02  0.57735258639E+02  0.25000505837E+00 0.  0.
        -13    1    4    4    0    0 -0.70860056847E+00  0.92077607187E+01 -0.82443526118E+01  0.12380038255E+02  0.10500000000E+00 0. -1.
         13    1    4    4    0    0 -0.10987378403E+01  0.12770169630E+02 -0.11579844313E+02  0.17273918969E+02  0.10500000000E+00 0.  1.
    3000001    1    5    5    0    0 -0.59646559419E+00 -0.46108722968E+01  0.29470897708E+00  0.47647421676E+01  0.10000000000E+01 0. -1.
        -13    1    6    6    0    0 -0.66217322600E+00 -0.30969156020E+02  0.22556576862E+02  0.38318889372E+02  0.10500000000E+00 0.  1.
         13    1    6    6    0    0 -0.26396355849E+00 -0.15669961830E+02  0.11461543963E+02  0.19416369267E+02  0.10500000000E+00 0. -1.
</event>
<event>
11    0  0.3494755E-009  0.9118800E+02  0.7816531E-02  0.1126479E+00
         25   -1    0    0    0    0  0.00000000000E+00  0.00000000000E+00  0.99999998245E-14  0.12500000000E+03  0.12500000000E+03 0.  0.
    3000001    1    3    3    0    0 -0.24875595517E+01 -0.32420411076E+02 -0.33368196141E+02  0.46601582812E+02  0.10000000000E+01 0.  1.
    1000022    2    1    0    0    0 -0.72779374391E+01 -0.39690780979E+02 -0.46668235654E+02  0.62499996323E+02  0.99999426607E+01 0.  0.
    3000022    2    3    3    0    0 -0.47903778874E+01 -0.72703699026E+01 -0.13300039512E+02  0.15898413510E+02  0.25000458500E+00 0.  0.
    1000022    2    1    0    0    0  0.72779374391E+01  0.39690780979E+02  0.46668235654E+02  0.62500003677E+02  0.99999886259E+01 0.  0.
    3000022    2    5    5    0    0 -0.26691791984E+00 -0.45033142332E+00  0.14300506081E+01  0.15432392165E+01  0.24999794184E+00 0.  0.
        -13    1    4    4    0    0 -0.16818438552E+01 -0.25924121272E+01 -0.46252701334E+01  0.55635733299E+01  0.10500000000E+00 0.  1.
         13    1    4    4    0    0 -0.31085340322E+01 -0.46779577754E+01 -0.86747693789E+01  0.10334840180E+02  0.10500000000E+00 0. -1.
    3000001    1    5    5    0    0  0.75448553590E+01  0.40141112402E+02  0.45238185046E+02  0.60956764461E+02  0.10000000000E+01 0. -1.
        -13    1    6    6    0    0 -0.75931525419E-01 -0.23091200877E+00  0.77179242392E+00  0.81595005851E+00  0.10500000000E+00 0. -1.
         13    1    6    6    0    0 -0.19098639442E+00 -0.21941941455E+00  0.65825818413E+00  0.72728915797E+00  0.10500000000E+00 0.  1.
</event>
<event>
11    0  0.3494755E-009  0.9118800E+02  0.7816531E-02  0.1126479E+00
         25   -1    0    0    0    0  0.00000000000E+00  0.00000000000E+00  0.99999998245E-14  0.12500000000E+03  0.12500000000E+03 0.  0.
    3000001    1    3    3    0    0 -0.12566576202E+02  0.27388804974E+00 -0.10797721913E+02  0.16600742471E+02  0.10000000000E+01 0. -1.
    1000022    2    1    0    0    0 -0.55410345946E+02 -0.26781151189E+01 -0.26995763164E+02  0.62500001407E+02  0.10000010434E+02 0.  0.
    3000022    2    3    3    0    0 -0.42843769744E+02 -0.29520031686E+01 -0.16198041251E+02  0.45899258936E+02  0.25000377760E+00 0.  0.
    1000022    2    1    0    0    0  0.55410345946E+02  0.26781151189E+01  0.26995763164E+02  0.62499998593E+02  0.99999928433E+01 0.  0.
    3000022    2    5    5    0    0  0.40776232400E+02 -0.22023258043E+01  0.20994612700E+02  0.45917182493E+02  0.25003613906E+00 0.  0.
        -13    1    4    4    0    0 -0.18670181238E+02 -0.13138805514E+01 -0.71234769921E+01  0.20026405045E+02  0.10500000000E+00 0. -1.
         13    1    4    4    0    0 -0.24173588506E+02 -0.16381226173E+01 -0.90745642589E+01  0.25872853891E+02  0.10500000000E+00 0.  1.
    3000001    1    5    5    0    0  0.14634113546E+02  0.48804409232E+01  0.60011504638E+01  0.16582816099E+02  0.10000000000E+01 0. -1.
        -13    1    6    6    0    0  0.17989789430E+02 -0.90586840004E+00  0.92509101779E+01  0.20249530498E+02  0.10500000000E+00 0. -1.
         13    1    6    6    0    0  0.22786442970E+02 -0.12964574042E+01  0.11743702522E+02  0.25667651995E+02  0.10500000000E+00 0.  1.
</event>
<event>
11    0  0.3494755E-009  0.9118800E+02  0.7816531E-02  0.1126479E+00
         25   -1    0    0    0    0  0.00000000000E+00  0.00000000000E+00  0.99999998245E-14  0.12500000000E+03  0.12500000000E+03 0.  0.
    3000001    1    3    3    0    0  0.12226919189E+02 -0.15298711697E+02 -0.39745838928E+00  0.19613926318E+02  0.10000000000E+01 0. -1.
    1000022    2    1    0    0    0  0.44734857207E+02 -0.41332849700E+02  0.98304754471E+01  0.62500002207E+02  0.10000005732E+02 0.  0.
    3000022    2    3    3    0    0  0.32507938018E+02 -0.26034138004E+02  0.10227933836E+02  0.42886075889E+02  0.24999761505E+00 0.  0.
    1000022    2    1    0    0    0 -0.44734857207E+02  0.41332849700E+02 -0.98304754471E+01  0.62499997793E+02  0.99999781476E+01 0.  0.
    3000022    2    5    5    0    0 -0.24264796200E+02  0.16853205794E+02 -0.75425063563E+01  0.30492011821E+02  0.25000523239E+00 0.  0.
        -13    1    4    4    0    0  0.16955701241E+02 -0.13665314157E+02  0.53420037477E+01  0.22422859867E+02  0.10500000000E+00 0.  1.
         13    1    4    4    0    0  0.15552236777E+02 -0.12368823847E+02  0.48859300886E+01  0.20463216022E+02  0.10500000000E+00 0. -1.
    3000001    1    5    5    0    0 -0.20470061007E+02  0.24479643907E+02 -0.22879690907E+01  0.32007985972E+02  0.10000000000E+01 0. -1.
        -13    1    6    6    0    0 -0.18402438362E+02  0.12803797999E+02 -0.57142515414E+01  0.23135485224E+02  0.10500000000E+00 0.  1.
         13    1    6    6    0    0 -0.58623578379E+01  0.40494077947E+01 -0.18282548150E+01  0.73565265973E+01  0.10500000000E+00 0. -1.
</event>
<event>
11    0  0.3494755E-009  0.9118800E+02  0.7816531E-02  0.1126479E+00
         25   -1    0    0    0    0  0.00000000000E+00  0.00000000000E+00  0.99999998245E-14  0.12500000000E+03  0.12500000000E+03 0.  0.
    3000001    1    3    3    0    0 -0.15059335982E+02  0.20180497034E+02 -0.17554611348E+02  0.30711568510E+02  0.10000000000E+01 0.  1.
    1000022    2    1    0    0    0 -0.26998079861E+02  0.35098993927E+02 -0.42958287099E+02  0.62500000507E+02  0.99999970991E+01 0.  0.
    3000022    2    3    3    0    0 -0.11938743879E+02  0.14918496894E+02 -0.25403675751E+02  0.31788431997E+02  0.25002441439E+00 0.  0.
    1000022    2    1    0    0    0  0.26998079861E+02 -0.35098993927E+02  0.42958287099E+02  0.62499999493E+02  0.99999907640E+01 0.  0.
    3000022    2    5    5    0    0  0.25261517573E+02 -0.30086532937E+02  0.40930017299E+02  0.56733346032E+02  0.25000332758E+00 0.  0.
        -13    1    4    4    0    0 -0.84503923434E+01  0.10541060988E+02 -0.17890605593E+02  0.22418918149E+02  0.10500000000E+00 0. -1.
         13    1    4    4    0    0 -0.34883515356E+01  0.43774359054E+01 -0.75130701579E+01  0.93695138475E+01  0.10500000000E+00 0.  1.
    3000001    1    5    5    0    0  0.17365622881E+01 -0.50124609899E+01  0.20282698002E+01  0.57666534609E+01  0.10000000000E+01 0. -1.
        -13    1    6    6    0    0  0.13701743828E+02 -0.16240918322E+02  0.22202429159E+02  0.30732134606E+02  0.10500000000E+00 0.  1.
         13    1    6    6    0    0  0.11559773745E+02 -0.13845614616E+02  0.18727588140E+02  0.26001211427E+02  0.10500000000E+00 0. -1.
</event>
<event>
11    0  0.3494755E-009  0.9118800E+02  0.7816531E-02  0.1126479E+00
         25   -1    0    0    0    0  0.00000000000E+00  0.00000000000E+00  0.99999998245E-14  0.12500000000E+03  0.12500000000E+03 0.  0.
    3000001    1    3    3    0    0 -0.57263713912E+01  0.45926441636E+01  0.40413306745E+01  0.84389610346E+01  0.10000000000E+01 0.  1.
    1000022    2    1    0    0    0 -0.56248027840E+02  0.19824053897E+02  0.15792923413E+02  0.62500001383E+02  0.99999997035E+01 0.  0.
    3000022    2    3    3    0    0 -0.50521656449E+02  0.15231409734E+02  0.11751592739E+02  0.54061040348E+02  0.25007757940E+00 0.  0.
    1000022    2    1    0    0    0  0.56248027840E+02 -0.19824053897E+02 -0.15792923413E+02  0.62499998617E+02  0.99999824156E+01 0.  0.
    3000022    2    5    5    0    0  0.44367489599E+02 -0.19209321248E+02 -0.14588135116E+02  0.50500973657E+02  0.24999611265E+00 0.  0.
        -13    1    4    4    0    0 -0.19272094562E+02  0.58283014266E+01  0.44239607253E+01  0.20614683597E+02  0.10500000000E+00 0. -1.
         13    1    4    4    0    0 -0.31249561888E+02  0.94031083071E+01  0.73276320137E+01  0.33446356751E+02  0.10500000000E+00 0.  1.
    3000001    1    5    5    0    0  0.11880538242E+02 -0.61473264905E+00 -0.12047882978E+01  0.11999024960E+02  0.10000000000E+01 0.  1.
        -13    1    6    6    0    0  0.19648210606E+02 -0.85277768206E+01 -0.63966065359E+01  0.22354032246E+02  0.10500000000E+00 0. -1.
         13    1    6    6    0    0  0.24719278993E+02 -0.10681544428E+02 -0.81915285798E+01  0.28146941410E+02  0.10500000000E+00 0.  1.
</event>
<event>
11    0  0.3494755E-009  0.9118800E+02  0.7816531E-02  0.1126479E+00
         25   -1    0    0    0    0  0.00000000000E+00  0.00000000000E+00  0.99999998245E-14  0.12500000000E+03  0.12500000000E+03 0.  0.
    3000001    1    3    3    0    0  0.11471403638E+02  0.77609856077E+01  0.10405259596E+02  0.17352101495E+02  0.10000000000E+01 0.  1.
    1000022    2    1    0    0    0  0.30625207555E+02  0.39546705539E+02  0.36116542365E+02  0.62500000193E+02  0.10000006749E+02 0.  0.
    3000022    2    3    3    0    0  0.19153803917E+02  0.31785719931E+02  0.25711282769E+02  0.45147898698E+02  0.24999843358E+00 0.  0.
    1000022    2    1    0    0    0 -0.30625207555E+02 -0.39546705539E+02 -0.36116542365E+02  0.62499999807E+02  0.10000004339E+02 0.  0.
    3000022    2    5    5    0    0 -0.14212608443E+02 -0.26288853269E+02 -0.21267474234E+02  0.36680648910E+02  0.24999837864E+00 0.  0.
        -13    1    4    4    0    0  0.13581693654E+02  0.22474589657E+02  0.18158585782E+02  0.31926710531E+02  0.10500000000E+00 0. -1.
         13    1    4    4    0    0  0.55721102636E+01  0.93111302740E+01  0.75526969870E+01  0.13221188167E+02  0.10500000000E+00 0.  1.
    3000001    1    5    5    0    0 -0.16412599112E+02 -0.13257852269E+02 -0.14849068130E+02  0.25819350897E+02  0.10000000000E+01 0. -1.
        -13    1    6    6    0    0 -0.86605521739E+01 -0.16099168403E+02 -0.12949479280E+02  0.22402866465E+02  0.10500000000E+00 0.  1.
         13    1    6    6    0    0 -0.55520562686E+01 -0.10189684867E+02 -0.83179949542E+01  0.14277782445E+02  0.10500000000E+00 0. -1.
</event>
<event>
11    0  0.3494755E-009  0.9118800E+02  0.7816531E-02  0.1126479E+00
         25   -1    0    0    0    0  0.00000000000E+00  0.00000000000E+00  0.99999998245E-14  0.12500000000E+03  0.12500000000E+03 0.  0.
    3000001    1    3    3    0    0 -0.24513153766E+01 -0.28178703185E+02 -0.76979820536E+01  0.29330993640E+02  0.10000000000E+01 0. -1.
    1000022    2    1    0    0    0 -0.11861433075E+01 -0.56240494973E+02 -0.25334752473E+02  0.62500000161E+02  0.10000006328E+02 0.  0.
    3000022    2    3    3    0    0  0.12651720691E+01 -0.28061791788E+02 -0.17636770420E+02  0.33169006521E+02  0.25000802479E+00 0.  0.
    1000022    2    1    0    0    0  0.11861433075E+01  0.56240494973E+02  0.25334752473E+02  0.62499999839E+02  0.10000004311E+02 0.  0.
    3000022    2    5    5    0    0 -0.37708402217E+01  0.11468347777E+02  0.56232971009E+01  0.13320142955E+02  0.25000267211E+00 0.  0.
        -13    1    4    4    0    0  0.84457923832E+00 -0.18614389713E+02 -0.11635383842E+02  0.21968204311E+02  0.10500000000E+00 0. -1.
         13    1    4    4    0    0  0.42059283075E+00 -0.94474020752E+01 -0.60013865774E+01  0.11200802210E+02  0.10500000000E+00 0.  1.
    3000001    1    5    5    0    0  0.49569835292E+01  0.44772147195E+02  0.19711455373E+02  0.49179856884E+02  0.10000000000E+01 0. -1.
        -13    1    6    6    0    0 -0.25831598150E+01  0.77919250978E+01  0.37718458507E+01  0.90346365440E+01  0.10500000000E+00 0. -1.
         13    1    6    6    0    0 -0.11876804067E+01  0.36764226795E+01  0.18514512502E+01  0.42855064110E+01  0.10500000000E+00 0.  1.
</event>
<event>
11    0  0.3494755E-009  0.9118800E+02  0.7816531E-02  0.1126479E+00
         25   -1    0    0    0    0  0.00000000000E+00  0.00000000000E+00  0.99999998245E-14  0.12500000000E+03  0.12500000000E+03 0.  0.
    3000001    1    3    3    0    0  0.64091592953E+01  0.46688961108E+02  0.28322270563E+02  0.54991703211E+02  0.10000000000E+01 0.  1.
    1000022    2    1    0    0    0  0.56317351708E+01  0.50801194918E+02  0.34551004268E+02  0.62499998779E+02  0.10000005269E+02 0.  0.
    3000022    2    3    3    0    0 -0.77742412449E+00  0.41122338099E+01  0.62287337050E+01  0.75082955684E+01  0.25004718917E+00 0.  0.
    1000022    2    1    0    0    0 -0.56317351708E+01 -0.50801194918E+02 -0.34551004268E+02  0.62500001221E+02  0.10000020529E+02 0.  0.
    3000022    2    5    5    0    0 -0.91878764175E+00  0.29482545281E-01 -0.23489241970E+00  0.98118151384E+00  0.25000552624E+00 0.  0.
        -13    1    4    4    0    0 -0.25832108908E+00  0.16385319452E+01  0.24034335781E+01  0.29221626726E+01  0.10500000000E+00 0.  1.
         13    1    4    4    0    0 -0.51910303541E+00  0.24737018647E+01  0.38253001269E+01  0.45861328958E+01  0.10500000000E+00 0. -1.
    3000001    1    5    5    0    0 -0.47129475291E+01 -0.50830677463E+02 -0.34316111848E+02  0.61518819707E+02  0.10000000000E+01 0.  1.
        -13    1    6    6    0    0 -0.68108549260E+00  0.28749099173E-01 -0.13522067206E+00  0.70286100268E+00  0.10500000000E+00 0. -1.
         13    1    6    6    0    0 -0.23770214915E+00  0.73344610799E-03 -0.99671747641E-01  0.27832051116E+00  0.10500000000E+00 0.  1.
</event>
<event>
11    0  0.3494755E-009  0.9118800E+02  0.7816531E-02  0.1126479E+00
         25   -1    0    0    0    0  0.00000000000E+00  0.00000000000E+00  0.99999998245E-14  0.12500000000E+03  0.12500000000E+03 0.  0.
    3000001    1    3    3    0    0 -0.24745427347E+02 -0.28868851975E+01 -0.39414824207E+02  0.46639024947E+02  0.10000000000E+01 0. -1.
    1000022    2    1    0    0    0 -0.31241891870E+02  0.15773086326E+01 -0.53176181741E+02  0.62500000121E+02  0.10000000025E+02 0.  0.
    3000022    2    3    3    0    0 -0.64964645230E+01  0.44641938301E+01 -0.13761357533E+02  0.15860975174E+02  0.24998892242E+00 0.  0.
    1000022    2    1    0    0    0  0.31241891870E+02 -0.15773086326E+01  0.53176181741E+02  0.62499999879E+02  0.99999985091E+01 0.  0.
    3000022    2    5    5    0    0  0.59493564231E+00 -0.13144696879E+01  0.64235286659E+01  0.65883232820E+01  0.25000833314E+00 0.  0.
        -13    1    4    4    0    0 -0.47933465923E+01  0.32886791723E+01 -0.10079792185E+02  0.11636357580E+02  0.10500000000E+00 0.  1.
         13    1    4    4    0    0 -0.17031179307E+01  0.11755146578E+01 -0.36815653487E+01  0.42246175938E+01  0.10500000000E+00 0. -1.
    3000001    1    5    5    0    0  0.30646956228E+02 -0.26283894466E+00  0.46752653075E+02  0.55911676597E+02  0.10000000000E+01 0.  1.
        -13    1    6    6    0    0  0.35660211317E+00 -0.71366183125E+00  0.38054030539E+01  0.38895495471E+01  0.10500000000E+00 0.  1.
         13    1    6    6    0    0  0.23833352914E+00 -0.60080785669E+00  0.26181256120E+01  0.26987737349E+01  0.10500000000E+00 0. -1.
</event>
<event>
11    0  0.3494755E-009  0.9118800E+02  0.7816531E-02  0.1126479E+00
         25   -1    0    0    0    0  0.00000000000E+00  0.00000000000E+00  0.99999998245E-14  0.12500000000E+03  0.12500000000E+03 0.  0.
    3000001    1    3    3    0    0 -0.30401923858E+02 -0.13116289098E+02  0.16525269409E+02  0.37018894406E+02  0.10000000000E+01 0.  1.
    1000022    2    1    0    0    0 -0.45624676032E+02 -0.26110822380E+02  0.32293404929E+02  0.62499998771E+02  0.99999868058E+01 0.  0.
    3000022    2    3    3    0    0 -0.15222752173E+02 -0.12994533281E+02  0.15768135520E+02  0.25481104365E+02  0.25000590484E+00 0.  0.
    1000022    2    1    0    0    0  0.45624676032E+02  0.26110822380E+02 -0.32293404929E+02  0.62500001229E+02  0.10000002173E+02 0.  0.
    3000022    2    5    5    0    0  0.30113658580E+02  0.21068417474E+02 -0.25857675611E+02  0.44937651686E+02  0.25000630944E+00 0.  0.
        -13    1    4    4    0    0 -0.70159963554E+01 -0.60386391697E+01  0.73635799943E+01  0.11828892730E+02  0.10500000000E+00 0.  1.
         13    1    4    4    0    0 -0.82067558179E+01 -0.69558941114E+01  0.84045555252E+01  0.13652211635E+02  0.10500000000E+00 0. -1.
    3000001    1    5    5    0    0  0.15511017452E+02  0.50424049056E+01 -0.64357293179E+01  0.17562349543E+02  0.10000000000E+01 0. -1.
        -13    1    6    6    0    0  0.17788231745E+02  0.12518477618E+02 -0.15277253032E+02  0.26580800509E+02  0.10500000000E+00 0.  1.
         13    1    6    6    0    0  0.12325426834E+02  0.85499398558E+01 -0.10580422579E+02  0.18356851177E+02  0.10500000000E+00 0. -1.
</event>
<event>
11    0  0.3494755E-009  0.9118800E+02  0.7816531E-02  0.1126479E+00
         25   -1    0    0    0    0  0.00000000000E+00  0.00000000000E+00  0.99999998245E-14  0.12500000000E+03  0.12500000000E+03 0.  0.
    3000001    1    3    3    0    0  0.12910823406E+02 -0.62684747250E+01 -0.22567891261E+02  0.26763647965E+02  0.10000000000E+01 0.  1.
    1000022    2    1    0    0    0  0.39125836582E+02 -0.13547588017E+02 -0.45737093108E+02  0.62499999443E+02  0.10000000753E+02 0.  0.
    3000022    2    3    3    0    0  0.26215013176E+02 -0.72791132923E+01 -0.23169201847E+02  0.35736351478E+02  0.24999322042E+00 0.  0.
    1000022    2    1    0    0    0 -0.39125836582E+02  0.13547588017E+02  0.45737093108E+02  0.62500000557E+02  0.10000007720E+02 0.  0.
    3000022    2    5    5    0    0 -0.28517443111E+02  0.10276251121E+02  0.39285765158E+02  0.49621363617E+02  0.24996898087E+00 0.  0.
        -13    1    4    4    0    0  0.18159218802E+02 -0.50801850078E+01 -0.16097790028E+02  0.24793454297E+02  0.10500000000E+00 0.  1.
         13    1    4    4    0    0  0.80557943737E+01 -0.21989282844E+01 -0.70714118188E+01  0.10942897181E+02  0.10500000000E+00 0. -1.
    3000001    1    5    5    0    0 -0.10608393471E+02  0.32713368961E+01  0.64513279500E+01  0.12878636940E+02  0.10000000000E+01 0.  1.
        -13    1    6    6    0    0 -0.18708987275E+02  0.67700776202E+01  0.25865120241E+02  0.32632432118E+02  0.10500000000E+00 0. -1.
         13    1    6    6    0    0 -0.98084558363E+01  0.35061735010E+01  0.13420644916E+02  0.16988931499E+02  0.10500000000E+00 0.  1.
</event>
<event>
11    0  0.3494755E-009  0.9118800E+02  0.7816531E-02  0.1126479E+00
         25   -1    0    0    0    0  0.00000000000E+00  0.00000000000E+00  0.99999998245E-14  0.12500000000E+03  0.12500000000E+03 0.  0.
    3000001    1    3    3    0    0  0.43680820307E+01 -0.28434821865E+01  0.60407467318E+01  0.80409049645E+01  0.10000000000E+01 0.  1.
    1000022    2    1    0    0    0  0.11164308610E+02 -0.30876100537E+02  0.52232889313E+02  0.62499999015E+02  0.99999889879E+01 0.  0.
    3000022    2    3    3    0    0  0.67962265790E+01 -0.28032618351E+02  0.46192142582E+02  0.54459094051E+02  0.25000244942E+00 0.  0.
    1000022    2    1    0    0    0 -0.11164308610E+02  0.30876100537E+02 -0.52232889313E+02  0.62500000985E+02  0.10000001297E+02 0.  0.
    3000022    2    5    5    0    0 -0.87567956086E+00  0.10646799659E+02 -0.23931841510E+02  0.26209095671E+02  0.25000030784E+00 0.  0.
        -13    1    4    4    0    0  0.28339170528E+01 -0.11667276411E+02  0.19349034418E+02  0.22771749661E+02  0.10500000000E+00 0. -1.
         13    1    4    4    0    0  0.39623095261E+01 -0.16365341940E+02  0.26843108163E+02  0.31687344389E+02  0.10500000000E+00 0.  1.
    3000001    1    5    5    0    0 -0.10288629049E+02  0.20229300878E+02 -0.28301047804E+02  0.36290905314E+02  0.10000000000E+01 0. -1.
        -13    1    6    6    0    0 -0.65885706878E+00  0.77686469486E+01 -0.17536864194E+02  0.19192149405E+02  0.10500000000E+00 0.  1.
         13    1    6    6    0    0 -0.21682249208E+00  0.28781527103E+01 -0.63949773160E+01  0.70169462653E+01  0.10500000000E+00 0. -1.
</event>
<event>
11    0  0.3494755E-009  0.9118800E+02  0.7816531E-02  0.1126479E+00
         25   -1    0    0    0    0  0.00000000000E+00  0.00000000000E+00  0.99999998245E-14  0.12500000000E+03  0.12500000000E+03 0.  0.
    3000001    1    3    3    0    0 -0.30820448848E+02 -0.24120371201E+02  0.15943146293E+02  0.42271459495E+02  0.10000000000E+01 0.  1.
    1000022    2    1    0    0    0 -0.49141582709E+02 -0.29967605088E+02  0.22210299686E+02  0.62499998841E+02  0.99999968545E+01 0.  0.
    3000022    2    3    3    0    0 -0.18321133860E+02 -0.58472338870E+01  0.62671533931E+01  0.20228539346E+02  0.25000471249E+00 0.  0.
    1000022    2    1    0    0    0  0.49141582709E+02  0.29967605088E+02 -0.22210299686E+02  0.62500001159E+02  0.10000011346E+02 0.  0.
    3000022    2    5    5    0    0  0.66687144676E+00  0.22582621649E+01  0.85001965173E-01  0.23694282957E+01  0.24999916518E+00 0.  0.
        -13    1    4    4    0    0 -0.10951577297E+02 -0.34574762504E+01  0.37972175739E+01  0.12096324798E+02  0.10500000000E+00 0. -1.
         13    1    4    4    0    0 -0.73695565630E+01 -0.23897576366E+01  0.24699358192E+01  0.81322145476E+01  0.10500000000E+00 0.  1.
    3000001    1    5    5    0    0  0.48474711262E+02  0.27709342923E+02 -0.22295301652E+02  0.60130572864E+02  0.10000000000E+01 0.  1.
        -13    1    6    6    0    0  0.23370370377E+00  0.80768475687E+00  0.88111656358E-01  0.85191592991E+00  0.10500000000E+00 0. -1.
         13    1    6    6    0    0  0.43316774299E+00  0.14505774080E+01 -0.31096911853E-02  0.15175123658E+01  0.10500000000E+00 0.  1.
</event>
<event>
11    0  0.3494755E-009  0.9118800E+02  0.7816531E-02  0.1126479E+00
         25   -1    0    0    0    0  0.00000000000E+00  0.00000000000E+00  0.99999998245E-14  0.12500000000E+03  0.12500000000E+03 0.  0.
    3000001    1    3    3    0    0  0.18512494391E+02 -0.30002652008E+02 -0.83687410325E+01  0.36247860662E+02  0.10000000000E+01 0.  1.
    1000022    2    1    0    0    0  0.37591643216E+02 -0.45953017999E+02 -0.16776130825E+02  0.62499999297E+02  0.99999921891E+01 0.  0.
    3000022    2    3    3    0    0  0.19079148825E+02 -0.15950365991E+02 -0.84073897921E+01  0.26252138635E+02  0.24996934554E+00 0.  0.
    1000022    2    1    0    0    0 -0.37591643216E+02  0.45953017999E+02  0.16776130825E+02  0.62500000703E+02  0.10000000972E+02 0.  0.
    3000022    2    5    5    0    0 -0.35834386445E+02  0.45695593482E+02  0.15533005752E+02  0.60112621661E+02  0.24999940992E+00 0.  0.
        -13    1    4    4    0    0  0.52507964565E+01 -0.43488639733E+01 -0.22833294599E+01  0.71908344236E+01  0.10500000000E+00 0.  1.
         13    1    4    4    0    0  0.13828352369E+02 -0.11601502018E+02 -0.61240603323E+01  0.19061304212E+02  0.10500000000E+00 0. -1.
    3000001    1    5    5    0    0 -0.17572567711E+01  0.25742451739E+00  0.12431250729E+01  0.23873790417E+01  0.10000000000E+01 0.  1.
        -13    1    6    6    0    0 -0.22058624315E+02  0.28223191731E+02  0.95618164852E+01  0.37075204891E+02  0.10500000000E+00 0.  1.
         13    1    6    6    0    0 -0.13775762130E+02  0.17472401751E+02  0.59711892666E+01  0.23037416770E+02  0.10500000000E+00 0. -1.
</event>
<event>
11    0  0.3494755E-009  0.9118800E+02  0.7816531E-02  0.1126479E+00
         25   -1    0    0    0    0  0.00000000000E+00  0.00000000000E+00  0.99999998245E-14  0.12500000000E+03  0.12500000000E+03 0.  0.
    3000001    1    3    3    0    0  0.28585469015E+00  0.12616268807E+02 -0.14990905316E+02  0.19620886670E+02  0.10000000000E+01 0.  1.
    1000022    2    1    0    0    0  0.98720340041E+01  0.30009182948E+02 -0.52992846120E+02  0.62499999297E+02  0.10000002782E+02 0.  0.
    3000022    2    3    3    0    0  0.95861793140E+01  0.17392914141E+02 -0.38001940803E+02  0.42879112627E+02  0.24999736782E+00 0.  0.
    1000022    2    1    0    0    0 -0.98720340041E+01 -0.30009182948E+02  0.52992846120E+02  0.62500000703E+02  0.10000011574E+02 0.  0.
    3000022    2    5    5    0    0 -0.20169421278E+01 -0.18815718320E+02  0.25262551663E+02  0.31565144159E+02  0.24999560552E+00 0.  0.
        -13    1    4    4    0    0  0.44935204755E+01  0.82612025961E+01 -0.18087230218E+02  0.20386223695E+02  0.10500000000E+00 0. -1.
         13    1    4    4    0    0  0.50926588385E+01  0.91317115447E+01 -0.19914710586E+02  0.22492888932E+02  0.10500000000E+00 0.  1.
    3000001    1    5    5    0    0 -0.78550918763E+01 -0.11193464627E+02  0.27730294457E+02  0.30934856544E+02  0.10000000000E+01 0.  1.
        -13    1    6    6    0    0 -0.72146186173E+00 -0.71893790881E+01  0.97071049271E+01  0.12101511887E+02  0.10500000000E+00 0. -1.
         13    1    6    6    0    0 -0.12954802661E+01 -0.11626339232E+02  0.15555446736E+02  0.19463632272E+02  0.10500000000E+00 0.  1.
</event>
<event>
11    0  0.3494755E-009  0.9118800E+02  0.7816531E-02  0.1126479E+00
         25   -1    0    0    0    0  0.00000000000E+00  0.00000000000E+00  0.99999998245E-14  0.12500000000E+03  0.12500000000E+03 0.  0.
    3000001    1    3    3    0    0  0.94762652884E+01 -0.31515202648E+02  0.15816507797E+02  0.36526285339E+02  0.10000000000E+01 0.  1.
    1000022    2    1    0    0    0  0.17450423076E+02 -0.56018099541E+02  0.19071046838E+02  0.62499996466E+02  0.99999994501E+01 0.  0.
    3000022    2    3    3    0    0  0.79741577878E+01 -0.24502896893E+02  0.32545390409E+01  0.25973711127E+02  0.24999352125E+00 0.  0.
    1000022    2    1    0    0    0 -0.17450423076E+02  0.56018099541E+02 -0.19071046838E+02  0.62500003534E+02  0.10000043623E+02 0.  0.
    3000022    2    5    5    0    0 -0.15200016534E+02  0.35149444315E+02 -0.97859997475E+01  0.39526601521E+02  0.24999690932E+00 0.  0.
        -13    1    4    4    0    0  0.56961539519E+01 -0.17630713260E+02  0.23465080604E+01  0.18676331143E+02  0.10500000000E+00 0.  1.
         13    1    4    4    0    0  0.22780038359E+01 -0.68721836338E+01  0.90803098049E+00  0.72973799843E+01  0.10500000000E+00 0. -1.
    3000001    1    5    5    0    0 -0.22504065417E+01  0.20868655227E+02 -0.92850470906E+01  0.22973402013E+02  0.10000000000E+01 0. -1.
        -13    1    6    6    0    0 -0.92948271577E+01  0.21517018908E+02 -0.60525634545E+01  0.24207859549E+02  0.10500000000E+00 0.  1.
         13    1    6    6    0    0 -0.59051893768E+01  0.13632425407E+02 -0.37334362930E+01  0.15318741972E+02  0.10500000000E+00 0. -1.
</event>
<event>
11    0  0.3494755E-009  0.9118800E+02  0.7816531E-02  0.1126479E+00
         25   -1    0    0    0    0  0.00000000000E+00  0.00000000000E+00  0.99999998245E-14  0.12500000000E+03  0.12500000000E+03 0.  0.
    3000001    1    3    3    0    0  0.12951407151E+01 -0.13898501944E+02 -0.18006882749E+02  0.22805560114E+02  0.10000000000E+01 0. -1.
    1000022    2    1    0    0    0 -0.50041208056E+01 -0.29456475291E+02 -0.53977077161E+02  0.62500000739E+02  0.10000003595E+02 0.  0.
    3000022    2    3    3    0    0 -0.62992615207E+01 -0.15557973347E+02 -0.35970194412E+02  0.39694440625E+02  0.25000027381E+00 0.  0.
    1000022    2    1    0    0    0  0.50041208056E+01  0.29456475291E+02  0.53977077161E+02  0.62499999261E+02  0.99999943621E+01 0.  0.
    3000022    2    5    5    0    0  0.17436016291E+01 -0.53710271481E-01  0.23663803259E+01  0.29504731086E+01  0.25000856696E+00 0.  0.
        -13    1    4    4    0    0 -0.26151019995E+01 -0.65042601179E+01 -0.15171163188E+02  0.16712850614E+02  0.10500000000E+00 0.  1.
         13    1    4    4    0    0 -0.36841595212E+01 -0.90537132291E+01 -0.20799031224E+02  0.22981590011E+02  0.10500000000E+00 0. -1.
    3000001    1    5    5    0    0  0.32605191765E+01  0.29510185562E+02  0.51610696835E+02  0.59549526153E+02  0.10000000000E+01 0. -1.
        -13    1    6    6    0    0  0.50287216889E+00 -0.50144145367E-01  0.65047997384E+00  0.83038789125E+00  0.10500000000E+00 0.  1.
         13    1    6    6    0    0  0.12407294602E+01 -0.35661261144E-02  0.17159003520E+01  0.21200852173E+01  0.10500000000E+00 0. -1.
</event>
<event>
11    0  0.3494755E-009  0.9118800E+02  0.7816531E-02  0.1126479E+00
         25   -1    0    0    0    0  0.00000000000E+00  0.00000000000E+00  0.99999998245E-14  0.12500000000E+03  0.12500000000E+03 0.  0.
    3000001    1    3    3    0    0  0.34117909327E+02 -0.29100044685E+02  0.13806101996E+02  0.46930297142E+02  0.10000000000E+01 0.  1.
    1000022    2    1    0    0    0  0.42279613647E+02 -0.42284349418E+02  0.15189437898E+02  0.62499992963E+02  0.99999080462E+01 0.  0.
    3000022    2    3    3    0    0  0.81617043195E+01 -0.13184304733E+02  0.13833359024E+01  0.15569695821E+02  0.25000211032E+00 0.  0.
    1000022    2    1    0    0    0 -0.42279613647E+02  0.42284349418E+02 -0.15189437898E+02  0.62500007037E+02  0.99999960069E+01 0.  0.
    3000022    2    5    5    0    0 -0.37729382078E+02  0.35329966213E+02 -0.99893841900E+01  0.52645636856E+02  0.24999781331E+00 0.  0.
        -13    1    4    4    0    0  0.31689188297E+01 -0.52248814220E+01  0.51686678365E+00  0.61334825911E+01  0.10500000000E+00 0. -1.
         13    1    4    4    0    0  0.49927854898E+01 -0.79594233108E+01  0.86646911871E+00  0.94362132300E+01  0.10500000000E+00 0.  1.
    3000001    1    5    5    0    0 -0.45502315687E+01  0.69543832048E+01 -0.52000537080E+01  0.98543701804E+01  0.10000000000E+01 0. -1.
        -13    1    6    6    0    0 -0.27983924880E+02  0.26245385983E+02 -0.74087737269E+01  0.39074560653E+02  0.10500000000E+00 0. -1.
         13    1    6    6    0    0 -0.97454571984E+01  0.90845802303E+01 -0.25806104631E+01  0.13571076204E+02  0.10500000000E+00 0.  1.
</event>
<event>
11    0  0.3494755E-009  0.9118800E+02  0.7816531E-02  0.1126479E+00
         25   -1    0    0    0    0  0.00000000000E+00  0.00000000000E+00  0.99999998245E-14  0.12500000000E+03  0.12500000000E+03 0.  0.
    3000001    1    3    3    0    0 -0.61391708199E+01 -0.26554412177E+02 -0.23768130850E+02  0.36176653639E+02  0.10000000000E+01 0. -1.
    1000022    2    1    0    0    0 -0.18521484629E+02 -0.44598052942E+02 -0.38395550479E+02  0.62500000098E+02  0.99999998268E+01 0.  0.
    3000022    2    3    3    0    0 -0.12382313809E+02 -0.18043640765E+02 -0.14627419629E+02  0.26323346459E+02  0.24999290349E+00 0.  0.
    1000022    2    1    0    0    0  0.18521484629E+02  0.44598052942E+02  0.38395550479E+02  0.62499999902E+02  0.99999986077E+01 0.  0.
    3000022    2    5    5    0    0  0.13371044972E+01  0.10732572811E+02  0.12463517318E+02  0.16503869534E+02  0.24995615933E+00 0.  0.
        -13    1    4    4    0    0 -0.81098346676E+01 -0.11830609915E+02 -0.96533481481E+01  0.17289618410E+02  0.10500000000E+00 0. -1.
         13    1    4    4    0    0 -0.42724791413E+01 -0.62130308500E+01 -0.49740714811E+01  0.90337280485E+01  0.10500000000E+00 0.  1.
    3000001    1    5    5    0    0  0.17184380132E+02  0.33865480131E+02  0.25932033161E+02  0.45996130369E+02  0.10000000000E+01 0. -1.
        -13    1    6    6    0    0  0.37666548634E+00  0.29697493081E+01  0.33932742135E+01  0.45262150556E+01  0.10500000000E+00 0.  1.
         13    1    6    6    0    0  0.96043901087E+00  0.77628235028E+01  0.90702431042E+01  0.11977654478E+02  0.10500000000E+00 0. -1.
</event>
<event>
11    0  0.3494755E-009  0.9118800E+02  0.7816531E-02  0.1126479E+00
         25   -1    0    0    0    0  0.00000000000E+00  0.00000000000E+00  0.99999998245E-14  0.12500000000E+03  0.12500000000E+03 0.  0.
    3000001    1    3    3    0    0 -0.38344595844E+02 -0.14293398188E+02 -0.16563254885E+02  0.44158245828E+02  0.10000000000E+01 0. -1.
    1000022    2    1    0    0    0 -0.56376578015E+02 -0.17200281702E+02 -0.18223109290E+02  0.62500000597E+02  0.10000006156E+02 0.  0.
    3000022    2    3    3    0    0 -0.18031982171E+02 -0.29068835140E+01 -0.16598544046E+01  0.18341754769E+02  0.24999716297E+00 0.  0.
    1000022    2    1    0    0    0  0.56376578015E+02  0.17200281702E+02  0.18223109290E+02  0.62499999403E+02  0.99999986903E+01 0.  0.
    3000022    2    5    5    0    0  0.90857048955E+01  0.20111616236E+01 -0.70584642349E+00  0.93357123898E+01  0.25000425626E+00 0.  0.
        -13    1    4    4    0    0 -0.84540302076E+01 -0.12948302386E+01 -0.78245863671E+00  0.85889742471E+01  0.10500000000E+00 0.  1.
         13    1    4    4    0    0 -0.95779519636E+01 -0.16120532753E+01 -0.87739576785E+00  0.97527805222E+01  0.10500000000E+00 0. -1.
    3000001    1    5    5    0    0  0.47290873120E+02  0.15189120079E+02  0.18928955713E+02  0.53164287013E+02  0.10000000000E+01 0.  1.
        -13    1    6    6    0    0  0.30994665528E+01  0.63849614481E+00 -0.21096119869E+00  0.31733105531E+01  0.10500000000E+00 0.  1.
         13    1    6    6    0    0  0.59862383426E+01  0.13726654788E+01 -0.49488522480E+00  0.61624018367E+01  0.10500000000E+00 0. -1.
</event>
<event>
11    0  0.3494755E-009  0.9118800E+02  0.7816531E-02  0.1126479E+00
         25   -1    0    0    0    0  0.00000000000E+00  0.00000000000E+00  0.99999998245E-14  0.12500000000E+03  0.12500000000E+03 0.  0.
    3000001    1    3    3    0    0 -0.10714432749E+02  0.39082211261E+01  0.13904800265E+02  0.18011572167E+02  0.10000000000E+01 0.  1.
    1000022    2    1    0    0    0 -0.45450281165E+02  0.23228078950E+01  0.41654847048E+02  0.62500000989E+02  0.10000017327E+02 0.  0.
    3000022    2    3    3    0    0 -0.34735848417E+02 -0.15854132311E+01  0.27750046783E+02  0.44488428823E+02  0.25000464474E+00 0.  0.
    1000022    2    1    0    0    0  0.45450281165E+02 -0.23228078950E+01 -0.41654847048E+02  0.62499999011E+02  0.10000004963E+02 0.  0.
    3000022    2    5    5    0    0  0.43201567315E+02 -0.43118294046E+01 -0.39201081951E+02  0.58495765789E+02  0.24999560082E+00 0.  0.
        -13    1    4    4    0    0 -0.19995768138E+02 -0.85273175912E+00  0.15939186842E+02  0.25585671714E+02  0.10500000000E+00 0. -1.
         13    1    4    4    0    0 -0.14740080278E+02 -0.73268147199E+00  0.11810859941E+02  0.18902757108E+02  0.10500000000E+00 0.  1.
    3000001    1    5    5    0    0  0.22487138499E+01  0.19890215096E+01 -0.24537650969E+01  0.40042332218E+01  0.10000000000E+01 0. -1.
        -13    1    6    6    0    0  0.14085140637E+02 -0.13708765584E+01 -0.12830103885E+02  0.19102174745E+02  0.10500000000E+00 0.  1.
         13    1    6    6    0    0  0.29116426678E+02 -0.29409528463E+01 -0.26370978066E+02  0.39393591044E+02  0.10500000000E+00 0. -1.
</event>
<event>
11    0  0.3494755E-009  0.9118800E+02  0.7816531E-02  0.1126479E+00
         25   -1    0    0    0    0  0.00000000000E+00  0.00000000000E+00  0.99999998245E-14  0.12500000000E+03  0.12500000000E+03 0.  0.
    3000001    1    3    3    0    0 -0.85531206876E+01  0.51888443499E+01 -0.71355961064E+01  0.12328694618E+02  0.10000000000E+01 0. -1.
    1000022    2    1    0    0    0 -0.43399203783E+02  0.38582711937E+02 -0.20835869139E+02  0.62499999961E+02  0.10000000145E+02 0.  0.
    3000022    2    3    3    0    0 -0.34846083096E+02  0.33393867587E+02 -0.13700273032E+02  0.50171305343E+02  0.24999828376E+00 0.  0.
    1000022    2    1    0    0    0  0.43399203783E+02 -0.38582711937E+02  0.20835869139E+02  0.62500000039E+02  0.10000000637E+02 0.  0.
    3000022    2    5    5    0    0  0.14851579705E+02 -0.83233946489E+01  0.33000170818E+01  0.17343613662E+02  0.25000785282E+00 0.  0.
        -13    1    4    4    0    0 -0.26107044738E+02  0.25051558320E+02 -0.10257856914E+02  0.37608416780E+02  0.10500000000E+00 0. -1.
         13    1    4    4    0    0 -0.87390383573E+01  0.83423092664E+01 -0.34424161181E+01  0.12562888563E+02  0.10500000000E+00 0.  1.
    3000001    1    5    5    0    0  0.28547624079E+02 -0.30259317288E+02  0.17535852057E+02  0.45156386377E+02  0.10000000000E+01 0.  1.
        -13    1    6    6    0    0  0.35313928894E+01 -0.19628976406E+01  0.77374648244E+00  0.41150226617E+01  0.10500000000E+00 0. -1.
         13    1    6    6    0    0  0.11320186815E+02 -0.63604970083E+01  0.25262705993E+01  0.13228591001E+02  0.10500000000E+00 0.  1.
</event>
<event>
11    0  0.3494755E-009  0.9118800E+02  0.7816531E-02  0.1126479E+00
         25   -1    0    0    0    0  0.00000000000E+00  0.00000000000E+00  0.99999998245E-14  0.12500000000E+03  0.12500000000E+03 0.  0.
    3000001    1    3    3    0    0  0.15861560081E+02 -0.17935159351E+01 -0.15163658809E+02  0.22039562975E+02  0.10000000000E+01 0. -1.
    1000022    2    1    0    0    0  0.52431738090E+02 -0.59721100256E+01 -0.31960859710E+02  0.62500000828E+02  0.10000014637E+02 0.  0.
    3000022    2    3    3    0    0  0.36570178008E+02 -0.41785940905E+01 -0.16797200901E+02  0.40460437853E+02  0.25001001140E+00 0.  0.
    1000022    2    1    0    0    0 -0.52431738090E+02  0.59721100256E+01  0.31960859710E+02  0.62499999172E+02  0.10000004291E+02 0.  0.
    3000022    2    5    5    0    0 -0.52200402469E+02  0.56089716073E+01  0.31846514831E+02  0.61405256996E+02  0.24999895426E+00 0.  0.
        -13    1    4    4    0    0  0.18156336426E+02 -0.21403830704E+01 -0.83627518851E+01  0.20104239259E+02  0.10500000000E+00 0.  1.
         13    1    4    4    0    0  0.18413841583E+02 -0.20382110201E+01 -0.84344490160E+01  0.20356198594E+02  0.10500000000E+00 0. -1.
    3000001    1    5    5    0    0 -0.23133562060E+00  0.36313841833E+00  0.11434487967E+00  0.10947421759E+01  0.10000000000E+01 0. -1.
        -13    1    6    6    0    0 -0.14569626793E+02  0.15369849789E+01  0.88550716025E+01  0.17118985537E+02  0.10500000000E+00 0.  1.
         13    1    6    6    0    0 -0.37630775676E+02  0.40719866284E+01  0.22991443228E+02  0.44286271460E+02  0.10500000000E+00 0. -1.
</event>
<event>
11    0  0.3494755E-009  0.9118800E+02  0.7816531E-02  0.1126479E+00
         25   -1    0    0    0    0  0.00000000000E+00  0.00000000000E+00  0.99999998245E-14  0.12500000000E+03  0.12500000000E+03 0.  0.
    3000001    1    3    3    0    0  0.32168618793E+02 -0.20434576497E+02 -0.16349097547E+02  0.41481139597E+02  0.10000000000E+01 0.  1.
    1000022    2    1    0    0    0  0.43310255821E+02 -0.33157864403E+02 -0.28827552659E+02  0.62499999592E+02  0.99999962792E+01 0.  0.
    3000022    2    3    3    0    0  0.11141637028E+02 -0.12723287906E+02 -0.12478455113E+02  0.21018859995E+02  0.25000535511E+00 0.  0.
    1000022    2    1    0    0    0 -0.43310255821E+02  0.33157864403E+02  0.28827552659E+02  0.62500000408E+02  0.10000001381E+02 0.  0.
    3000022    2    5    5    0    0 -0.33032639358E+01  0.18539329982E+01  0.52726249078E+01  0.64970527849E+01  0.25000255844E+00 0.  0.
        -13    1    4    4    0    0  0.72742138582E+01 -0.82924880087E+01 -0.80698423921E+01  0.13667952512E+02  0.10500000000E+00 0.  1.
         13    1    4    4    0    0  0.38674231697E+01 -0.44307998977E+01 -0.44086127205E+01  0.73509074832E+01  0.10500000000E+00 0. -1.
    3000001    1    5    5    0    0 -0.40006991885E+02  0.31303931405E+02  0.23554927751E+02  0.56002947623E+02  0.10000000000E+01 0.  1.
        -13    1    6    6    0    0 -0.90757163766E+00  0.53967583813E+00  0.14243709090E+01  0.17761739144E+01  0.10500000000E+00 0.  1.
         13    1    6    6    0    0 -0.23956922981E+01  0.13142571601E+01  0.38482539989E+01  0.47208788705E+01  0.10500000000E+00 0.  1.
</event>
<event>
11    0  0.3494755E-009  0.9118800E+02  0.7816531E-02  0.1126479E+00
         25   -1    0    0    0    0  0.00000000000E+00  0.00000000000E+00  0.99999998245E-14  0.12500000000E+03  0.12500000000E+03 0.  0.
    3000001    1    3    3    0    0 -0.30783446660E+01 -0.57652353154E+01 -0.74932984914E+01  0.99931809954E+01  0.10000000000E+01 0. -1.
    1000022    2    1    0    0    0 -0.30844627010E+02 -0.17491556534E+02 -0.50486675935E+02  0.62500000069E+02  0.99999998131E+01 0.  0.
    3000022    2    3    3    0    0 -0.27766282344E+02 -0.11726321219E+02 -0.42993377443E+02  0.52506819073E+02  0.25000134155E+00 0.  0.
    1000022    2    1    0    0    0  0.30844627010E+02  0.17491556534E+02  0.50486675935E+02  0.62499999931E+02  0.99999989538E+01 0.  0.
    3000022    2    5    5    0    0  0.33811017448E+01  0.45061592594E+01  0.13473149101E+02  0.14605669045E+02  0.25000253629E+00 0.  0.
        -13    1    4    4    0    0 -0.10892681381E+02 -0.45361149302E+01 -0.16797205682E+02  0.20527639661E+02  0.10500000000E+00 0. -1.
         13    1    4    4    0    0 -0.16873600964E+02 -0.71902062883E+01 -0.26196171762E+02  0.31979179413E+02  0.10500000000E+00 0.  1.
    3000001    1    5    5    0    0  0.27463525265E+02  0.12985397275E+02  0.37013526834E+02  0.47894330886E+02  0.10000000000E+01 0. -1.
        -13    1    6    6    0    0  0.21715881959E+01  0.29092009607E+01  0.85314048047E+01  0.92722779544E+01  0.10500000000E+00 0. -1.
         13    1    6    6    0    0  0.12095135489E+01  0.15969582987E+01  0.49417442965E+01  0.53333910906E+01  0.10500000000E+00 0.  1.
</event>
<event>
11    0  0.3494755E-009  0.9118800E+02  0.7816531E-02  0.1126479E+00
         25   -1    0    0    0    0  0.00000000000E+00  0.00000000000E+00  0.99999998245E-14  0.12500000000E+03  0.12500000000E+03 0.  0.
    3000001    1    3    3    0    0 -0.33193990330E+02 -0.41028930337E+02 -0.11115929967E+02  0.53942358288E+02  0.10000000000E+01 0. -1.
    1000022    2    1    0    0    0 -0.40308114682E+02 -0.44416758902E+02 -0.14444980814E+02  0.62500000199E+02  0.99999986790E+01 0.  0.
    3000022    2    3    3    0    0 -0.71141243517E+01 -0.33878285652E+01 -0.33290508474E+01  0.85576419112E+01  0.25001571207E+00 0.  0.
    1000022    2    1    0    0    0  0.40308114682E+02  0.44416758902E+02  0.14444980814E+02  0.62499999801E+02  0.99999961926E+01 0.  0.
    3000022    2    5    5    0    0  0.13587405294E+02  0.15054260907E+02  0.97731128097E+01  0.22512764972E+02  0.24999715072E+00 0.  0.
        -13    1    4    4    0    0 -0.21371606011E+01 -0.98189432109E+00 -0.95961244097E+00  0.25423321831E+01  0.10500000000E+00 0. -1.
         13    1    4    4    0    0 -0.49769637506E+01 -0.24059342441E+01 -0.23694384064E+01  0.60153097280E+01  0.10500000000E+00 0.  1.
    3000001    1    5    5    0    0  0.26720709388E+02  0.29362497995E+02  0.46718680043E+01  0.39987234830E+02  0.10000000000E+01 0. -1.
        -13    1    6    6    0    0  0.78824559503E+01  0.86633998894E+01  0.55945835141E+01  0.12980677916E+02  0.10500000000E+00 0. -1.
         13    1    6    6    0    0  0.57049493441E+01  0.63908610179E+01  0.41785292956E+01  0.95320870560E+01  0.10500000000E+00 0.  1.
</event>
<event>
11    0  0.3494755E-009  0.9118800E+02  0.7816531E-02  0.1126479E+00
         25   -1    0    0    0    0  0.00000000000E+00  0.00000000000E+00  0.99999998245E-14  0.12500000000E+03  0.12500000000E+03 0.  0.
    3000001    1    3    3    0    0 -0.20182419937E+02 -0.98631296510E+01  0.42256638840E+02  0.47866845802E+02  0.10000000000E+01 0.  1.
    1000022    2    1    0    0    0 -0.27747532947E+02 -0.17339304503E+02  0.52303658708E+02  0.62500000933E+02  0.10000016857E+02 0.  0.
    3000022    2    3    3    0    0 -0.75651130100E+01 -0.74761748520E+01  0.10047019868E+02  0.14633155131E+02  0.24999117037E+00 0.  0.
    1000022    2    1    0    0    0  0.27747532947E+02  0.17339304503E+02 -0.52303658708E+02  0.62499999067E+02  0.10000005189E+02 0.  0.
    3000022    2    5    5    0    0  0.68593054913E+00  0.23005668301E+01 -0.10921039772E+01  0.26492071497E+01  0.24999793410E+00 0.  0.
        -13    1    4    4    0    0 -0.18936487577E+01 -0.18461784295E+01  0.24745265840E+01  0.36233392369E+01  0.10500000000E+00 0. -1.
         13    1    4    4    0    0 -0.56714642524E+01 -0.56299964225E+01  0.75724932843E+01  0.11009815894E+02  0.10500000000E+00 0.  1.
    3000001    1    5    5    0    0  0.27061602398E+02  0.15038737673E+02 -0.51211554731E+02  0.59850791917E+02  0.10000000000E+01 0.  1.
        -13    1    6    6    0    0  0.22455198529E+00  0.65442958185E+00 -0.28183911066E+00  0.75442690567E+00  0.10500000000E+00 0. -1.
         13    1    6    6    0    0  0.46137856383E+00  0.16461372483E+01 -0.81026486659E+00  0.18947802441E+01  0.10500000000E+00 0. -1.
</event>
<event>
11    0  0.3494755E-009  0.9118800E+02  0.7816531E-02  0.1126479E+00
         25   -1    0    0    0    0  0.00000000000E+00  0.00000000000E+00  0.99999998245E-14  0.12500000000E+03  0.12500000000E+03 0.  0.
    3000001    1    3    3    0    0  0.24254483665E+01 -0.18835209926E+02  0.28591607472E+02  0.34338432558E+02  0.10000000000E+01 0.  1.
    1000022    2    1    0    0    0  0.12874228435E+02 -0.31349214003E+02  0.51553186262E+02  0.62500000240E+02  0.10000001990E+02 0.  0.
    3000022    2    3    3    0    0  0.10448780069E+02 -0.12514004077E+02  0.22961578791E+02  0.28161567682E+02  0.24998157155E+00 0.  0.
    1000022    2    1    0    0    0 -0.12874228435E+02  0.31349214003E+02 -0.51553186262E+02  0.62499999760E+02  0.99999989877E+01 0.  0.
    3000022    2    5    5    0    0 -0.45628854202E+01  0.13877086811E+02 -0.13956077502E+02  0.20204654408E+02  0.24999752455E+00 0.  0.
        -13    1    4    4    0    0  0.42952777006E+01 -0.50637209372E+01  0.92879157646E+01  0.11417840624E+02  0.10500000000E+00 0.  1.
         13    1    4    4    0    0  0.61535023681E+01 -0.74502831401E+01  0.13673663026E+02  0.16743727059E+02  0.10500000000E+00 0. -1.
    3000001    1    5    5    0    0 -0.83113430151E+01  0.17472127192E+02 -0.37597108760E+02  0.42295345352E+02  0.10000000000E+01 0.  1.
        -13    1    6    6    0    0 -0.25499383080E+01  0.79362712260E+01 -0.80089617635E+01  0.11560323520E+02  0.10500000000E+00 0. -1.
         13    1    6    6    0    0 -0.20129471122E+01  0.59408155854E+01 -0.59471157387E+01  0.86443308883E+01  0.10500000000E+00 0.  1.
</event>
<event>
11    0  0.3494755E-009  0.9118800E+02  0.7816531E-02  0.1126479E+00
         25   -1    0    0    0    0  0.00000000000E+00  0.00000000000E+00  0.99999998245E-14  0.12500000000E+03  0.12500000000E+03 0.  0.
    3000001    1    3    3    0    0  0.21324891156E+00 -0.61545856629E+00  0.63369780149E+00  0.13512354527E+01  0.10000000000E+01 0.  1.
    1000022    2    1    0    0    0  0.55815954414E+02 -0.23244314175E+02  0.12269111095E+02  0.62499999220E+02  0.99999953397E+01 0.  0.
    3000022    2    3    3    0    0  0.55602705503E+02 -0.22628855609E+02  0.11635413294E+02  0.61148763767E+02  0.25000474492E+00 0.  0.
    1000022    2    1    0    0    0 -0.55815954414E+02  0.23244314175E+02 -0.12269111095E+02  0.62500000780E+02  0.10000005087E+02 0.  0.
    3000022    2    5    5    0    0 -0.46834670096E+02  0.16130848679E+02 -0.12128191373E+02  0.50998491411E+02  0.24999634971E+00 0.  0.
        -13    1    4    4    0    0  0.25238197369E+02 -0.10298153409E+02  0.52201128389E+01  0.27753903746E+02  0.10500000000E+00 0.  1.
         13    1    4    4    0    0  0.30364508134E+02 -0.12330702200E+02  0.64153004547E+01  0.33394860022E+02  0.10500000000E+00 0. -1.
    3000001    1    5    5    0    0 -0.89812843187E+01  0.71134654968E+01 -0.14091972175E+00  0.11501509369E+02  0.10000000000E+01 0.  1.
        -13    1    6    6    0    0 -0.11747820784E+02  0.40391231186E+01 -0.30684162495E+01  0.12796562508E+02  0.10500000000E+00 0. -1.
         13    1    6    6    0    0 -0.35086849312E+02  0.12091725560E+02 -0.90597751238E+01  0.38201928904E+02  0.10500000000E+00 0.  1.
</event>
<event>
11    0  0.3494755E-009  0.9118800E+02  0.7816531E-02  0.1126479E+00
         25   -1    0    0    0    0  0.00000000000E+00  0.00000000000E+00  0.99999998245E-14  0.12500000000E+03  0.12500000000E+03 0.  0.
    3000001    1    3    3    0    0 -0.98858620168E+01 -0.20717366138E+02  0.36560816078E+02  0.43181394139E+02  0.10000000000E+01 0.  1.
    1000022    2    1    0    0    0 -0.14826293039E+02 -0.23707487074E+02  0.54994411773E+02  0.62500002578E+02  0.10000054373E+02 0.  0.
    3000022    2    3    3    0    0 -0.49404310224E+01 -0.29901209360E+01  0.18433595694E+02  0.19318608439E+02  0.24999981952E+00 0.  0.
    1000022    2    1    0    0    0  0.14826293039E+02  0.23707487074E+02 -0.54994411773E+02  0.62499997422E+02  0.10000022143E+02 0.  0.
    3000022    2    5    5    0    0  0.63326405820E+01  0.14505778071E+02 -0.21286682116E+02  0.26527443728E+02  0.25000211875E+00 0.  0.
        -13    1    4    4    0    0 -0.29380986462E+01 -0.17039296302E+01  0.10807771223E+02  0.11329375254E+02  0.10500000000E+00 0. -1.
         13    1    4    4    0    0 -0.20023323762E+01 -0.12861913058E+01  0.76258244711E+01  0.79892331850E+01  0.10500000000E+00 0.  1.
    3000001    1    5    5    0    0  0.84936524573E+01  0.92017090030E+01 -0.33707729656E+02  0.35972553693E+02  0.10000000000E+01 0.  1.
        -13    1    6    6    0    0  0.43999204468E+01  0.10002392592E+02 -0.14632209303E+02  0.18262522596E+02  0.10500000000E+00 0.  1.
         13    1    6    6    0    0  0.19327201352E+01  0.45033854789E+01 -0.66544728132E+01  0.82649211318E+01  0.10500000000E+00 0. -1.
</event>
<event>
11    0  0.3494755E-009  0.9118800E+02  0.7816531E-02  0.1126479E+00
         25   -1    0    0    0    0  0.00000000000E+00  0.00000000000E+00  0.99999998245E-14  0.12500000000E+03  0.12500000000E+03 0.  0.
    3000001    1    3    3    0    0 -0.98842589159E+00  0.23157907688E+01 -0.12876024971E-01  0.27092505274E+01  0.10000000000E+01 0. -1.
    1000022    2    1    0    0    0 -0.13448219737E+02  0.45802930719E+02  0.39083078165E+02  0.62500001932E+02  0.10000008307E+02 0.  0.
    3000022    2    3    3    0    0 -0.12459793845E+02  0.43487139950E+02  0.39095954190E+02  0.59790751404E+02  0.25003162846E+00 0.  0.
    1000022    2    1    0    0    0  0.13448219737E+02 -0.45802930719E+02 -0.39083078165E+02  0.62499998068E+02  0.99999841596E+01 0.  0.
    3000022    2    5    5    0    0  0.12766079639E+02 -0.30375725343E+02 -0.23016175500E+02  0.40192839081E+02  0.24999869151E+00 0.  0.
        -13    1    4    4    0    0 -0.46473887915E+01  0.16298981478E+02  0.14573741081E+02  0.22353075267E+02  0.10500000000E+00 0. -1.
         13    1    4    4    0    0 -0.78124050534E+01  0.27188158471E+02  0.24522213109E+02  0.37437676137E+02  0.10500000000E+00 0.  1.
    3000001    1    5    5    0    0  0.68214009797E+00 -0.15427205376E+02 -0.16066902664E+02  0.22307158987E+02  0.10000000000E+01 0. -1.
        -13    1    6    6    0    0  0.66597521589E+01 -0.15855393740E+02 -0.12095166619E+02  0.21024982521E+02  0.10500000000E+00 0.  1.
         13    1    6    6    0    0  0.61063274797E+01 -0.14520331602E+02 -0.10921008882E+02  0.19167856561E+02  0.10500000000E+00 0. -1.
</event>
<event>
11    0  0.3494755E-009  0.9118800E+02  0.7816531E-02  0.1126479E+00
         25   -1    0    0    0    0  0.00000000000E+00  0.00000000000E+00  0.99999998245E-14  0.12500000000E+03  0.12500000000E+03 0.  0.
    3000001    1    3    3    0    0  0.47628779410E+02 -0.73541466208E+01  0.37177966018E+02  0.60875161255E+02  0.10000000000E+01 0.  1.
    1000022    2    1    0    0    0  0.47901388767E+02 -0.87730491998E+01  0.37877971601E+02  0.62499996596E+02  0.99999701937E+01 0.  0.
    3000022    2    3    3    0    0  0.27260935718E+00 -0.14189025790E+01  0.70000558256E+00  0.16248353411E+01  0.24996335716E+00 0.  0.
    1000022    2    1    0    0    0 -0.47901388767E+02  0.87730491998E+01 -0.37877971601E+02  0.62500003404E+02  0.10000012744E+02 0.  0.
    3000022    2    5    5    0    0 -0.26406150422E+02  0.68818693865E+01 -0.26697164288E+02  0.38176510959E+02  0.25000317116E+00 0.  0.
        -13    1    4    4    0    0  0.17692409545E+00 -0.57972059766E+00  0.30029756927E+00  0.68453030394E+00  0.10500000000E+00 0. -1.
         13    1    4    4    0    0  0.95685261730E-01 -0.83918198129E+00  0.39970801329E+00  0.94030503717E+00  0.10500000000E+00 0.  1.
    3000001    1    5    5    0    0 -0.21495238344E+02  0.18911798133E+01 -0.11180807312E+02  0.24323492445E+02  0.10000000000E+01 0. -1.
        -13    1    6    6    0    0 -0.19304438502E+02  0.50483114018E+01 -0.19477129629E+02  0.27883981019E+02  0.10500000000E+00 0. -1.
         13    1    6    6    0    0 -0.71017119208E+01  0.18335579847E+01 -0.72200346589E+01  0.10292529940E+02  0.10500000000E+00 0.  1.
</event>
<event>
11    0  0.3494755E-009  0.9118800E+02  0.7816531E-02  0.1126479E+00
         25   -1    0    0    0    0  0.00000000000E+00  0.00000000000E+00  0.99999998245E-14  0.12500000000E+03  0.12500000000E+03 0.  0.
    3000001    1    3    3    0    0  0.21898321772E+02 -0.73793973871E+00 -0.17852423301E+02  0.28280559917E+02  0.10000000000E+01 0.  1.
    1000022    2    1    0    0    0  0.50415084486E+02  0.79191214801E+01 -0.34667806298E+02  0.62500000361E+02  0.10000001143E+02 0.  0.
    3000022    2    3    3    0    0  0.28516762713E+02  0.86570612188E+01 -0.16815382997E+02  0.34219440444E+02  0.25006868685E+00 0.  0.
    1000022    2    1    0    0    0 -0.50415084486E+02 -0.79191214801E+01  0.34667806298E+02  0.62499999639E+02  0.99999966291E+01 0.  0.
    3000022    2    5    5    0    0 -0.21756972264E+02  0.13513247227E+01  0.16119562798E+02  0.27112630340E+02  0.24999714469E+00 0.  0.
        -13    1    4    4    0    0  0.83897199987E+01  0.25103872637E+01 -0.49104086433E+01  0.10040546993E+02  0.10500000000E+00 0. -1.
         13    1    4    4    0    0  0.20127042715E+02  0.61466739551E+01 -0.11904974354E+02  0.24178893451E+02  0.10500000000E+00 0.  1.
    3000001    1    5    5    0    0 -0.28658112222E+02 -0.92704462028E+01  0.18548243501E+02  0.35387369298E+02  0.10000000000E+01 0.  1.
        -13    1    6    6    0    0 -0.83428402240E+01  0.54439753574E+00  0.61137166582E+01  0.10357987645E+02  0.10500000000E+00 0. -1.
         13    1    6    6    0    0 -0.13414132040E+02  0.80692718692E+00  0.10005846139E+02  0.16754642695E+02  0.10500000000E+00 0.  1.
</event>
<event>
11    0  0.3494755E-009  0.9118800E+02  0.7816531E-02  0.1126479E+00
         25   -1    0    0    0    0  0.00000000000E+00  0.00000000000E+00  0.99999998245E-14  0.12500000000E+03  0.12500000000E+03 0.  0.
    3000001    1    3    3    0    0  0.74516679599E+01 -0.23279025224E+02  0.27350374095E+02  0.36694459172E+02  0.10000000000E+01 0.  1.
    1000022    2    1    0    0    0  0.10575915217E+02 -0.45132372458E+02  0.40712024648E+02  0.62499999590E+02  0.99999985695E+01 0.  0.
    3000022    2    3    3    0    0  0.31242472573E+01 -0.21853347234E+02  0.13361650553E+02  0.25805540418E+02  0.25000902421E+00 0.  0.
    1000022    2    1    0    0    0 -0.10575915217E+02  0.45132372458E+02 -0.40712024648E+02  0.62500000410E+02  0.10000003698E+02 0.  0.
    3000022    2    5    5    0    0 -0.16016610155E+01  0.26041123320E+00 -0.16260366146E+01  0.23107604815E+01  0.24997382259E+00 0.  0.
        -13    1    4    4    0    0  0.10645568319E+01 -0.71119335426E+01  0.43276201022E+01  0.83935809231E+01  0.10500000000E+00 0. -1.
         13    1    4    4    0    0  0.20596904254E+01 -0.14741413691E+02  0.90340304511E+01  0.17411959495E+02  0.10500000000E+00 0.  1.
    3000001    1    5    5    0    0 -0.89742542018E+01  0.44871961225E+02 -0.39085988034E+02  0.60189239929E+02  0.10000000000E+01 0.  1.
        -13    1    6    6    0    0 -0.11618205305E+01  0.17415331016E+00 -0.12199073028E+01  0.16968662728E+01  0.10500000000E+00 0.  1.
         13    1    6    6    0    0 -0.43984048499E+00  0.86257923035E-01 -0.40612931189E+00  0.61389420872E+00  0.10500000000E+00 0. -1.
</event>
<event>
11    0  0.3494755E-009  0.9118800E+02  0.7816531E-02  0.1126479E+00
         25   -1    0    0    0    0  0.00000000000E+00  0.00000000000E+00  0.99999998245E-14  0.12500000000E+03  0.12500000000E+03 0.  0.
    3000001    1    3    3    0    0  0.35352967873E+02 -0.13133379921E+01 -0.16211988213E+02  0.38927955969E+02  0.10000000000E+01 0. -1.
    1000022    2    1    0    0    0  0.57619066812E+02  0.41830487972E+01 -0.21651642177E+02  0.62500010700E+02  0.10000148547E+02 0.  0.
    3000022    2    3    3    0    0  0.22266098939E+02  0.54963867893E+01 -0.54396539648E+01  0.23572054731E+02  0.24999855928E+00 0.  0.
    1000022    2    1    0    0    0 -0.57619066812E+02 -0.41830487972E+01  0.21651642177E+02  0.62499989300E+02  0.10000014802E+02 0.  0.
    3000022    2    5    5    0    0 -0.10300307724E+02  0.28760904164E+01  0.27142871533E+01  0.11036217349E+02  0.25000669799E+00 0.  0.
        -13    1    4    4    0    0  0.97184091509E+01  0.24619269742E+01 -0.23522728321E+01  0.10298192721E+02  0.10500000000E+00 0.  1.
         13    1    4    4    0    0  0.12547689788E+02  0.30344598151E+01 -0.30873811327E+01  0.13273862009E+02  0.10500000000E+00 0. -1.
    3000001    1    5    5    0    0 -0.47318759089E+02 -0.70591392136E+01  0.18937355024E+02  0.51463771951E+02  0.10000000000E+01 0. -1.
        -13    1    6    6    0    0 -0.37810510212E+01  0.10292773700E+01  0.93981766101E+00  0.40311339553E+01  0.10500000000E+00 0. -1.
         13    1    6    6    0    0 -0.65192567023E+01  0.18468130464E+01  0.17744694923E+01  0.70050833941E+01  0.10500000000E+00 0.  1.
</event>
<event>
11    0  0.3494755E-009  0.9118800E+02  0.7816531E-02  0.1126479E+00
         25   -1    0    0    0    0  0.00000000000E+00  0.00000000000E+00  0.99999998245E-14  0.12500000000E+03  0.12500000000E+03 0.  0.
    3000001    1    3    3    0    0  0.62766804809E+01  0.83870227681E+01  0.44336880519E+01  0.11419126872E+02  0.10000000000E+01 0. -1.
    1000022    2    1    0    0    0  0.28136741880E+02  0.54499613064E+02  0.66607733603E+01  0.62500000799E+02  0.10000006520E+02 0.  0.
    3000022    2    3    3    0    0  0.21860061399E+02  0.46112590296E+02  0.22270853084E+01  0.51080873927E+02  0.25000812105E+00 0.  0.
    1000022    2    1    0    0    0 -0.28136741880E+02 -0.54499613064E+02 -0.66607733603E+01  0.62499999201E+02  0.99999965294E+01 0.  0.
    3000022    2    5    5    0    0 -0.18495782581E+02 -0.28491419029E+02 -0.56195089073E-01  0.33969406720E+02  0.25000688581E+00 0.  0.
        -13    1    4    4    0    0  0.14101237893E+02  0.29775181817E+02  0.14936627906E+01  0.32979515095E+02  0.10500000000E+00 0. -1.
         13    1    4    4    0    0  0.77588235054E+01  0.16337408479E+02  0.73342251782E+00  0.18101358833E+02  0.10500000000E+00 0.  1.
    3000001    1    5    5    0    0 -0.96409592988E+01 -0.26008194035E+02 -0.66045782712E+01  0.28530592481E+02  0.10000000000E+01 0.  1.
        -13    1    6    6    0    0 -0.55362847783E+01 -0.84696048555E+01  0.15322108075E-01  0.10119086684E+02  0.10500000000E+00 0.  1.
         13    1    6    6    0    0 -0.12959497802E+02 -0.20021814173E+02 -0.71517197148E-01  0.23850320035E+02  0.10500000000E+00 0. -1.
</event>
<event>
11    0  0.3494755E-009  0.9118800E+02  0.7816531E-02  0.1126479E+00
         25   -1    0    0    0    0  0.00000000000E+00  0.00000000000E+00  0.99999998245E-14  0.12500000000E+03  0.12500000000E+03 0.  0.
    3000001    1    3    3    0    0  0.18696132202E+02 -0.45153171367E+02  0.14051338209E+02  0.50860538233E+02  0.10000000000E+01 0.  1.
    1000022    2    1    0    0    0  0.23103823177E+02 -0.53071644649E+02  0.21350965334E+02  0.62499997637E+02  0.99999936417E+01 0.  0.
    3000022    2    3    3    0    0  0.44076909749E+01 -0.79184732812E+01  0.72996271245E+01  0.11639459404E+02  0.25000045995E+00 0.  0.
    1000022    2    1    0    0    0 -0.23103823177E+02  0.53071644649E+02 -0.21350965334E+02  0.62500002363E+02  0.10000023180E+02 0.  0.
    3000022    2    5    5    0    0 -0.18099773682E+02  0.30388098228E+02 -0.10931468399E+02  0.37021585891E+02  0.24999849735E+00 0.  0.
        -13    1    4    4    0    0  0.27023115348E+01 -0.49524266998E+01  0.45915297647E+01  0.72747638056E+01  0.10500000000E+00 0. -1.
         13    1    4    4    0    0  0.17053794402E+01 -0.29660465814E+01  0.27080973599E+01  0.43646955986E+01  0.10500000000E+00 0.  1.
    3000001    1    5    5    0    0 -0.50040494947E+01  0.22683546420E+02 -0.10419496935E+02  0.25478416472E+02  0.10000000000E+01 0.  1.
        -13    1    6    6    0    0 -0.50652314935E+01  0.85710522478E+01 -0.30990856788E+01  0.10427601055E+02  0.10500000000E+00 0. -1.
         13    1    6    6    0    0 -0.13034542189E+02  0.21817045980E+02 -0.78323827205E+01  0.26593984836E+02  0.10500000000E+00 0.  1.
</event>
<event>
11    0  0.3494755E-009  0.9118800E+02  0.7816531E-02  0.1126479E+00
         25   -1    0    0    0    0  0.00000000000E+00  0.00000000000E+00  0.99999998245E-14  0.12500000000E+03  0.12500000000E+03 0.  0.
    3000001    1    3    3    0    0 -0.16615471475E+02 -0.32978275783E+01 -0.38646804911E+02  0.42208116386E+02  0.10000000000E+01 0. -1.
    1000022    2    1    0    0    0 -0.19469340513E+02 -0.50303948260E+00 -0.58540086117E+02  0.62500000050E+02  0.10000002747E+02 0.  0.
    3000022    2    3    3    0    0 -0.28538690380E+01  0.27947880957E+01 -0.19893281207E+02  0.20291883664E+02  0.24999296550E+00 0.  0.
    1000022    2    1    0    0    0  0.19469340513E+02  0.50303948260E+00  0.58540086117E+02  0.62499999950E+02  0.10000002120E+02 0.  0.
    3000022    2    5    5    0    0  0.34238885657E+01  0.36173832947E+01  0.20253440887E+02  0.20858399734E+02  0.24999377243E+00 0.  0.
        -13    1    4    4    0    0 -0.10694740304E+01  0.98867973395E+00 -0.74700686610E+01  0.76114527601E+01  0.10500000000E+00 0.  1.
         13    1    4    4    0    0 -0.17843950076E+01  0.18061083617E+01 -0.12423212546E+02  0.12680430904E+02  0.10500000000E+00 0. -1.
    3000001    1    5    5    0    0  0.16045451947E+02 -0.31143438121E+01  0.38286645231E+02  0.41641600216E+02  0.10000000000E+01 0.  1.
        -13    1    6    6    0    0  0.13422397616E+01  0.13732062333E+01  0.80355392643E+01  0.82624584238E+01  0.10500000000E+00 0.  1.
         13    1    6    6    0    0  0.20816488041E+01  0.22441770614E+01  0.12217901622E+02  0.12595941310E+02  0.10500000000E+00 0. -1.
</event>
<event>
11    0  0.3494755E-009  0.9118800E+02  0.7816531E-02  0.1126479E+00
         25   -1    0    0    0    0  0.00000000000E+00  0.00000000000E+00  0.99999998245E-14  0.12500000000E+03  0.12500000000E+03 0.  0.
    3000001    1    3    3    0    0 -0.97590783085E+01 -0.38094616979E+02  0.70003648810E+01  0.39955532291E+02  0.10000000000E+01 0. -1.
    1000022    2    1    0    0    0 -0.10927920554E+02 -0.58328752639E+02  0.16869719005E+02  0.62500001291E+02  0.99999955031E+01 0.  0.
    3000022    2    3    3    0    0 -0.11688422454E+01 -0.20234135660E+02  0.98693541239E+01  0.22544469000E+02  0.24998714660E+00 0.  0.
    1000022    2    1    0    0    0  0.10927920554E+02  0.58328752639E+02 -0.16869719005E+02  0.62499998709E+02  0.99999793616E+01 0.  0.
    3000022    2    5    5    0    0  0.18279359855E+01  0.30947983410E+02 -0.11880852014E+02  0.33201448633E+02  0.25003919554E+00 0.  0.
        -13    1    4    4    0    0 -0.36275192694E+00 -0.58435343839E+01  0.28130403832E+01  0.64963608469E+01  0.10500000000E+00 0. -1.
         13    1    4    4    0    0 -0.80609031847E+00 -0.14390601276E+02  0.70563137407E+01  0.16048108153E+02  0.10500000000E+00 0.  1.
    3000001    1    5    5    0    0  0.90999845684E+01  0.27380769229E+02 -0.49888669905E+01  0.29298550076E+02  0.10000000000E+01 0. -1.
        -13    1    6    6    0    0  0.78884778897E+00  0.12747076830E+02 -0.49514487099E+01  0.13698106361E+02  0.10500000000E+00 0.  1.
         13    1    6    6    0    0  0.10390881966E+01  0.18200906580E+02 -0.69294033045E+01  0.19503342272E+02  0.10500000000E+00 0. -1.
</event>
<event>
11    0  0.3494755E-009  0.9118800E+02  0.7816531E-02  0.1126479E+00
         25   -1    0    0    0    0  0.00000000000E+00  0.00000000000E+00  0.99999998245E-14  0.12500000000E+03  0.12500000000E+03 0.  0.
    3000001    1    3    3    0    0  0.14411801685E+02  0.16182048880E+02 -0.50502398955E+01  0.22272486542E+02  0.10000000000E+01 0.  1.
    1000022    2    1    0    0    0  0.33932097306E+02  0.44669671676E+02 -0.25680405029E+02  0.62499999628E+02  0.99999977919E+01 0.  0.
    3000022    2    3    3    0    0  0.19520295621E+02  0.28487622796E+02 -0.20630165133E+02  0.40227513086E+02  0.25000391987E+00 0.  0.
    1000022    2    1    0    0    0 -0.33932097306E+02 -0.44669671676E+02  0.25680405029E+02  0.62500000372E+02  0.10000002437E+02 0.  0.
    3000022    2    5    5    0    0 -0.26421570685E+02 -0.27262615445E+02  0.18069902336E+02  0.42046800916E+02  0.24999682111E+00 0.  0.
        -13    1    4    4    0    0  0.11869446601E+02  0.17229061736E+02 -0.12459102621E+02  0.24350864339E+02  0.10500000000E+00 0. -1.
         13    1    4    4    0    0  0.76508490204E+01  0.11258561060E+02 -0.81710625124E+01  0.15876648747E+02  0.10500000000E+00 0.  1.
    3000001    1    5    5    0    0 -0.75105266211E+01 -0.17407056231E+02  0.76105026928E+01  0.20453199456E+02  0.10000000000E+01 0.  1.
        -13    1    6    6    0    0 -0.17709417283E+02 -0.18347679812E+02  0.12127902264E+02  0.28237525624E+02  0.10500000000E+00 0. -1.
         13    1    6    6    0    0 -0.87121534018E+01 -0.89149356331E+01  0.59420000717E+01  0.13809275292E+02  0.10500000000E+00 0.  1.
</event>
<event>
11    0  0.3494755E-009  0.9118800E+02  0.7816531E-02  0.1126479E+00
         25   -1    0    0    0    0  0.00000000000E+00  0.00000000000E+00  0.99999998245E-14  0.12500000000E+03  0.12500000000E+03 0.  0.
    3000001    1    3    3    0    0 -0.29103572338E+00 -0.37120411517E+00 -0.15210033158E+01  0.18804109588E+01  0.10000000000E+01 0. -1.
    1000022    2    1    0    0    0  0.17856522808E+02 -0.46736909751E+02 -0.36097866100E+02  0.62499999598E+02  0.99999936454E+01 0.  0.
    3000022    2    3    3    0    0  0.18147558531E+02 -0.46365705636E+02 -0.34576862785E+02  0.60619588639E+02  0.25009403450E+00 0.  0.
    1000022    2    1    0    0    0 -0.17856522808E+02  0.46736909751E+02  0.36097866100E+02  0.62500000402E+02  0.99999986712E+01 0.  0.
    3000022    2    5    5    0    0 -0.54493889416E+01  0.85969430474E+01  0.11844228451E+02  0.15618949111E+02  0.25010826774E+00 0.  0.
        -13    1    4    4    0    0  0.12878240743E+02 -0.32954563754E+02 -0.24617215866E+02  0.43103024242E+02  0.10500000000E+00 0. -1.
         13    1    4    4    0    0  0.52693177882E+01 -0.13411141882E+02 -0.99596469186E+01  0.17516564397E+02  0.10500000000E+00 0.  1.
    3000001    1    5    5    0    0 -0.12407133866E+02  0.38139966703E+02  0.24253637650E+02  0.46881051291E+02  0.10000000000E+01 0. -1.
        -13    1    6    6    0    0 -0.24340397049E+01  0.37218231260E+01  0.51454091119E+01  0.68016745435E+01  0.10500000000E+00 0.  1.
         13    1    6    6    0    0 -0.30153492367E+01  0.48751199214E+01  0.66988193387E+01  0.88172745675E+01  0.10500000000E+00 0. -1.
</event>
<event>
11    0  0.3494755E-009  0.9118800E+02  0.7816531E-02  0.1126479E+00
         25   -1    0    0    0    0  0.00000000000E+00  0.00000000000E+00  0.99999998245E-14  0.12500000000E+03  0.12500000000E+03 0.  0.
    3000001    1    3    3    0    0  0.19444098967E+02  0.37895348133E+02 -0.14839592381E+02  0.45114785789E+02  0.10000000000E+01 0.  1.
    1000022    2    1    0    0    0  0.28609165672E+02  0.48598155386E+02 -0.25019697986E+02  0.62499997363E+02  0.99999657895E+01 0.  0.
    3000022    2    3    3    0    0  0.91650667047E+01  0.10702807252E+02 -0.10180105605E+02  0.17385211574E+02  0.25000112100E+00 0.  0.
    1000022    2    1    0    0    0 -0.28609165672E+02 -0.48598155386E+02  0.25019697986E+02  0.62500002637E+02  0.99999987459E+01 0.  0.
    3000022    2    5    5    0    0 -0.93987304484E+01 -0.82070383773E+01  0.66074586939E+01  0.14121353313E+02  0.24999203602E+00 0.  0.
        -13    1    4    4    0    0  0.45877489256E+01  0.53092017615E+01 -0.51435040044E+01  0.87006736516E+01  0.10500000000E+00 0.  1.
         13    1    4    4    0    0  0.45773177791E+01  0.53936054909E+01 -0.50366016008E+01  0.86845379225E+01  0.10500000000E+00 0. -1.
    3000001    1    5    5    0    0 -0.19210435224E+02 -0.40391117008E+02  0.18412239292E+02  0.48378649324E+02  0.10000000000E+01 0. -1.
        -13    1    6    6    0    0 -0.29803325247E+01 -0.25639843185E+01  0.20367279226E+01  0.44289596040E+01  0.10500000000E+00 0.  1.
         13    1    6    6    0    0 -0.64183979237E+01 -0.56430540589E+01  0.45707307714E+01  0.96923937086E+01  0.10500000000E+00 0. -1.
</event>
<event>
11    0  0.3494755E-009  0.9118800E+02  0.7816531E-02  0.1126479E+00
         25   -1    0    0    0    0  0.00000000000E+00  0.00000000000E+00  0.99999998245E-14  0.12500000000E+03  0.12500000000E+03 0.  0.
    3000001    1    3    3    0    0  0.10687920604E+01 -0.36260567221E+00 -0.43734528851E+00  0.15700542167E+01  0.10000000000E+01 0.  1.
    1000022    2    1    0    0    0  0.32343378024E+02 -0.51053972592E+02  0.12395478140E+02  0.62499999712E+02  0.99999933134E+01 0.  0.
    3000022    2    3    3    0    0  0.31274585963E+02 -0.50691366920E+02  0.12832823429E+02  0.60929945495E+02  0.24998708322E+00 0.  0.
    1000022    2    1    0    0    0 -0.32343378024E+02  0.51053972592E+02 -0.12395478140E+02  0.62500000288E+02  0.99999969153E+01 0.  0.
    3000022    2    5    5    0    0 -0.18569407579E+02  0.20114434088E+02 -0.56000371305E+01  0.27943447753E+02  0.24999981655E+00 0.  0.
        -13    1    4    4    0    0  0.88699004755E+01 -0.14319157127E+02  0.36013166461E+01  0.17224804843E+02  0.10500000000E+00 0. -1.
         13    1    4    4    0    0  0.22404685488E+02 -0.36372209792E+02  0.92315067824E+01  0.43705140653E+02  0.10500000000E+00 0.  1.
    3000001    1    5    5    0    0 -0.13773970444E+02  0.30939538504E+02 -0.67954410095E+01  0.34556552535E+02  0.10000000000E+01 0.  1.
        -13    1    6    6    0    0 -0.91982167377E+01  0.99637847309E+01 -0.27047590695E+01  0.13827904539E+02  0.10500000000E+00 0.  1.
         13    1    6    6    0    0 -0.93711908418E+01  0.10150649357E+02 -0.28952780611E+01  0.14115543214E+02  0.10500000000E+00 0. -1.
</event>
<event>
11    0  0.3494755E-009  0.9118800E+02  0.7816531E-02  0.1126479E+00
         25   -1    0    0    0    0  0.00000000000E+00  0.00000000000E+00  0.99999998245E-14  0.12500000000E+03  0.12500000000E+03 0.  0.
    3000001    1    3    3    0    0  0.44690862583E+02  0.16807452423E+02 -0.10282749036E+02  0.48851802251E+02  0.10000000000E+01 0.  1.
    1000022    2    1    0    0    0  0.54184347814E+02  0.25357825155E+02 -0.15076047352E+02  0.62500001639E+02  0.10000007825E+02 0.  0.
    3000022    2    3    3    0    0  0.94934852311E+01  0.85503727322E+01 -0.47932983158E+01  0.13648199389E+02  0.25000423767E+00 0.  0.
    1000022    2    1    0    0    0 -0.54184347814E+02 -0.25357825155E+02  0.15076047352E+02  0.62499998361E+02  0.99999873339E+01 0.  0.
    3000022    2    5    5    0    0 -0.12022131256E+02 -0.28030222677E+01 -0.21598446069E-01  0.12347126589E+02  0.24998944105E+00 0.  0.
        -13    1    4    4    0    0  0.63099268096E+01  0.57341982652E+01 -0.31583551895E+01  0.90929884301E+01  0.10500000000E+00 0.  1.
         13    1    4    4    0    0  0.31835584215E+01  0.28161744670E+01 -0.16349431262E+01  0.45552109586E+01  0.10500000000E+00 0. -1.
    3000001    1    5    5    0    0 -0.42162216558E+02 -0.22554802887E+02  0.15097645798E+02  0.50152871772E+02  0.10000000000E+01 0.  1.
        -13    1    6    6    0    0 -0.50717415569E+01 -0.12379103307E+01 -0.45404266055E-01  0.52218838511E+01  0.10500000000E+00 0.  1.
         13    1    6    6    0    0 -0.69503896995E+01 -0.15651119370E+01  0.23805819987E-01  0.71252427374E+01  0.10500000000E+00 0. -1.
</event>
<event>
11    0  0.3494755E-009  0.9118800E+02  0.7816531E-02  0.1126479E+00
         25   -1    0    0    0    0  0.00000000000E+00  0.00000000000E+00  0.99999998245E-14  0.12500000000E+03  0.12500000000E+03 0.  0.
    3000001    1    3    3    0    0 -0.46719716206E+00  0.12683238255E+01 -0.74988364296E+00  0.18409899490E+01  0.10000000000E+01 0. -1.
    1000022    2    1    0    0    0 -0.55727615288E+02  0.20497393774E+02 -0.16749322745E+02  0.62499999973E+02  0.99999963473E+01 0.  0.
    3000022    2    3    3    0    0 -0.55260418126E+02  0.19229069948E+02 -0.15999439102E+02  0.60659010024E+02  0.25000584138E+00 0.  0.
    1000022    2    1    0    0    0  0.55727615288E+02 -0.20497393774E+02  0.16749322745E+02  0.62500000027E+02  0.99999966869E+01 0.  0.
    3000022    2    5    5    0    0  0.49276833537E+02 -0.21044633214E+02  0.15913286032E+02  0.55896136492E+02  0.24998370983E+00 0.  0.
        -13    1    4    4    0    0 -0.29979383652E+02  0.10486593916E+02 -0.87290643529E+01  0.32938422634E+02  0.10500000000E+00 0.  1.
         13    1    4    4    0    0 -0.25281034474E+02  0.87424760326E+01 -0.72703747492E+01  0.27720587390E+02  0.10500000000E+00 0. -1.
    3000001    1    5    5    0    0  0.64507817510E+01  0.54723943991E+00  0.83603671339E+00  0.66038635350E+01  0.10000000000E+01 0. -1.
        -13    1    6    6    0    0  0.26969579420E+02 -0.11588220334E+02  0.87004719435E+01  0.30616242448E+02  0.10500000000E+00 0.  1.
         13    1    6    6    0    0  0.22307254118E+02 -0.94564128794E+01  0.72128140881E+01  0.25279894044E+02  0.10500000000E+00 0. -1.
</event>
<event>
11    0  0.3494755E-009  0.9118800E+02  0.7816531E-02  0.1126479E+00
         25   -1    0    0    0    0  0.00000000000E+00  0.00000000000E+00  0.99999998245E-14  0.12500000000E+03  0.12500000000E+03 0.  0.
    3000001    1    3    3    0    0  0.10786767690E+02 -0.23114154287E+02 -0.15599369724E+02  0.29915862371E+02  0.10000000000E+01 0. -1.
    1000022    2    1    0    0    0  0.30959986662E+02 -0.45972605941E+02 -0.27097021998E+02  0.62500000943E+02  0.10000012285E+02 0.  0.
    3000022    2    3    3    0    0  0.20173218972E+02 -0.22858451654E+02 -0.11497652274E+02  0.32584138573E+02  0.25000604600E+00 0.  0.
    1000022    2    1    0    0    0 -0.30959986662E+02  0.45972605941E+02  0.27097021998E+02  0.62499999057E+02  0.10000000491E+02 0.  0.
    3000022    2    5    5    0    0 -0.98311394190E+01  0.23153216112E+02  0.10805026939E+02  0.27377615297E+02  0.24998714976E+00 0.  0.
        -13    1    4    4    0    0  0.66265737201E+01 -0.74820462858E+01 -0.37166294470E+01  0.10663810545E+02  0.10500000000E+00 0. -1.
         13    1    4    4    0    0  0.13546645252E+02 -0.15376405368E+02 -0.77810228271E+01  0.21920328028E+02  0.10500000000E+00 0.  1.
    3000001    1    5    5    0    0 -0.21128847243E+02  0.22819389828E+02  0.16291995060E+02  0.35122383760E+02  0.10000000000E+01 0. -1.
        -13    1    6    6    0    0 -0.34884682400E+01  0.83260445904E+01  0.38357918810E+01  0.98090138922E+01  0.10500000000E+00 0. -1.
         13    1    6    6    0    0 -0.63426711790E+01  0.14827171522E+02  0.69692350577E+01  0.17568601405E+02  0.10500000000E+00 0.  1.
</event>
<event>
11    0  0.3494755E-009  0.9118800E+02  0.7816531E-02  0.1126479E+00
         25   -1    0    0    0    0  0.00000000000E+00  0.00000000000E+00  0.99999998245E-14  0.12500000000E+03  0.12500000000E+03 0.  0.
    3000001    1    3    3    0    0  0.17995621187E+02  0.47385474576E+02 -0.18906144961E+02  0.54107928254E+02  0.10000000000E+01 0. -1.
    1000022    2    1    0    0    0  0.20741693669E+02  0.52447946555E+02 -0.25004902046E+02  0.62500000580E+02  0.99999996048E+01 0.  0.
    3000022    2    3    3    0    0  0.27460724827E+01  0.50624719786E+01 -0.60987570849E+01  0.83920723256E+01  0.25000664561E+00 0.  0.
    1000022    2    1    0    0    0 -0.20741693669E+02 -0.52447946555E+02  0.25004902046E+02  0.62499999420E+02  0.99999923572E+01 0.  0.
    3000022    2    5    5    0    0 -0.16460896408E+02 -0.48211200067E+02  0.20508495968E+02  0.54917591254E+02  0.24999952382E+00 0.  0.
        -13    1    4    4    0    0  0.21003192997E+01  0.38868106922E+01 -0.46607550591E+01  0.64227954380E+01  0.10500000000E+00 0. -1.
         13    1    4    4    0    0  0.64575318304E+00  0.11756612864E+01 -0.14380020259E+01  0.19692768876E+01  0.10500000000E+00 0.  1.
    3000001    1    5    5    0    0 -0.42807972610E+01 -0.42367464874E+01  0.44964060772E+01  0.75824081662E+01  0.10000000000E+01 0.  1.
        -13    1    6    6    0    0 -0.12349891291E+02 -0.36086929717E+02  0.15355466756E+02  0.41116756871E+02  0.10500000000E+00 0. -1.
         13    1    6    6    0    0 -0.41110051178E+01 -0.12124270350E+02  0.51530292124E+01  0.13800834383E+02  0.10500000000E+00 0.  1.
</event>
<event>
11    0  0.3494755E-009  0.9118800E+02  0.7816531E-02  0.1126479E+00
         25   -1    0    0    0    0  0.00000000000E+00  0.00000000000E+00  0.99999998245E-14  0.12500000000E+03  0.12500000000E+03 0.  0.
    3000001    1    3    3    0    0 -0.13588833524E+02  0.30385601564E+02 -0.27610820781E+02  0.43258509026E+02  0.10000000000E+01 0. -1.
    1000022    2    1    0    0    0 -0.15166597493E+02  0.47386640396E+02 -0.36479180349E+02  0.62499999982E+02  0.10000001564E+02 0.  0.
    3000022    2    3    3    0    0 -0.15777639693E+01  0.17001038832E+02 -0.88683595679E+01  0.19241490956E+02  0.25002454449E+00 0.  0.
    1000022    2    1    0    0    0  0.15166597493E+02 -0.47386640396E+02  0.36479180349E+02  0.62500000018E+02  0.10000001787E+02 0.  0.
    3000022    2    5    5    0    0  0.20769395956E+01 -0.61168727299E+01  0.94509013031E+01  0.11450409077E+02  0.25004499918E+00 0.  0.
        -13    1    4    4    0    0 -0.10056535163E+01  0.10223875094E+02 -0.53047364964E+01  0.11562448496E+02  0.10500000000E+00 0.  1.
         13    1    4    4    0    0 -0.57211045298E+00  0.67771637379E+01 -0.35636230716E+01  0.76790424597E+01  0.10500000000E+00 0. -1.
    3000001    1    5    5    0    0  0.13089657898E+02 -0.41269767666E+02  0.27028279046E+02  0.51049590941E+02  0.10000000000E+01 0. -1.
        -13    1    6    6    0    0  0.92693886252E+00 -0.29291103069E+01  0.44558398740E+01  0.54133572603E+01  0.10500000000E+00 0.  1.
         13    1    6    6    0    0  0.11500007331E+01 -0.31877624230E+01  0.49950614290E+01  0.60370518162E+01  0.10500000000E+00 0. -1.
</event>
<event>
11    0  0.3494755E-009  0.9118800E+02  0.7816531E-02  0.1126479E+00
         25   -1    0    0    0    0  0.00000000000E+00  0.00000000000E+00  0.99999998245E-14  0.12500000000E+03  0.12500000000E+03 0.  0.
    3000001    1    3    3    0    0 -0.24202720694E+02  0.65719256075E+01 -0.10695040289E+01  0.25121817889E+02  0.10000000000E+01 0. -1.
    1000022    2    1    0    0    0 -0.60706649373E+02  0.61860707984E+01 -0.90931989699E+01  0.62499991641E+02  0.99998968768E+01 0.  0.
    3000022    2    3    3    0    0 -0.36503928679E+02 -0.38585480907E+00 -0.80236949410E+01  0.37378173751E+02  0.24999911985E+00 0.  0.
    1000022    2    1    0    0    0  0.60706649373E+02 -0.61860707984E+01  0.90931989699E+01  0.62500008359E+02  0.10000001366E+02 0.  0.
    3000022    2    5    5    0    0  0.12052939402E+02  0.23149475406E+01  0.36903410016E-01  0.12275837922E+02  0.25000899254E+00 0.  0.
        -13    1    4    4    0    0 -0.25789858161E+02 -0.27744822623E+00 -0.57134016663E+01  0.26416808003E+02  0.10500000000E+00 0. -1.
         13    1    4    4    0    0 -0.10714070518E+02 -0.10840658284E+00 -0.23102932747E+01  0.10961365748E+02  0.10500000000E+00 0.  1.
    3000001    1    5    5    0    0  0.48653709972E+02 -0.85010183389E+01  0.90562955598E+01  0.50224170437E+02  0.10000000000E+01 0.  1.
        -13    1    6    6    0    0  0.64922904168E+01  0.12710160447E+01  0.82716823114E-01  0.66168862553E+01  0.10500000000E+00 0.  1.
         13    1    6    6    0    0  0.55606489849E+01  0.10439314958E+01 -0.45813413098E-01  0.56589516670E+01  0.10500000000E+00 0. -1.
</event>
<event>
11    0  0.3494755E-009  0.9118800E+02  0.7816531E-02  0.1126479E+00
         25   -1    0    0    0    0  0.00000000000E+00  0.00000000000E+00  0.99999998245E-14  0.12500000000E+03  0.12500000000E+03 0.  0.
    3000001    1    3    3    0    0  0.12777854443E+02  0.42745049686E+02 -0.10217608645E+02  0.45780043286E+02  0.10000000000E+01 0.  1.
    1000022    2    1    0    0    0  0.19002362565E+02  0.58124803567E+02 -0.81650156873E+01  0.62500000567E+02  0.10000000849E+02 0.  0.
    3000022    2    3    3    0    0  0.62245081220E+01  0.15379753881E+02  0.20525929581E+01  0.16719957281E+02  0.25000568008E+00 0.  0.
    1000022    2    1    0    0    0 -0.19002362565E+02 -0.58124803567E+02  0.81650156873E+01  0.62499999433E+02  0.99999937596E+01 0.  0.
    3000022    2    5    5    0    0 -0.14807363883E+02 -0.29951900866E+02  0.56593015610E+01  0.33889003927E+02  0.25000474959E+00 0.  0.
        -13    1    4    4    0    0  0.36189803639E+01  0.91066834262E+01  0.12287003414E+01  0.98767115695E+01  0.10500000000E+00 0.  1.
         13    1    4    4    0    0  0.26055277580E+01  0.62730704546E+01  0.82389261665E+00  0.68432457117E+01  0.10500000000E+00 0. -1.
    3000001    1    5    5    0    0 -0.41949986820E+01 -0.28172902701E+02  0.25057141263E+01  0.28610995506E+02  0.10000000000E+01 0.  1.
        -13    1    6    6    0    0 -0.34626878166E+01 -0.69771619839E+01  0.13217521492E+01  0.79012056048E+01  0.10500000000E+00 0. -1.
         13    1    6    6    0    0 -0.11344676066E+02 -0.22974738882E+02  0.43375494118E+01  0.25987798322E+02  0.10500000000E+00 0.  1.
</event>
<event>
11    0  0.3494755E-009  0.9118800E+02  0.7816531E-02  0.1126479E+00
         25   -1    0    0    0    0  0.00000000000E+00  0.00000000000E+00  0.99999998245E-14  0.12500000000E+03  0.12500000000E+03 0.  0.
    3000001    1    3    3    0    0  0.10590977668E+02  0.25041683843E+01 -0.36150487683E+02  0.37766353107E+02  0.10000000000E+01 0. -1.
    1000022    2    1    0    0    0  0.10964933482E+02  0.87460462880E+01 -0.60079339001E+02  0.62500000320E+02  0.99999986629E+01 0.  0.
    3000022    2    3    3    0    0  0.37395581393E+00  0.62418779037E+01 -0.23928851318E+02  0.24733647213E+02  0.24999270311E+00 0.  0.
    1000022    2    1    0    0    0 -0.10964933482E+02 -0.87460462880E+01  0.60079339001E+02  0.62499999680E+02  0.99999946671E+01 0.  0.
    3000022    2    5    5    0    0 -0.12020570001E+02 -0.65341703700E+01  0.40655824758E+02  0.42896947136E+02  0.25000244318E+00 0.  0.
        -13    1    4    4    0    0  0.10773345206E+00  0.15092403204E+01 -0.57519326465E+01  0.59485432680E+01  0.10500000000E+00 0.  1.
         13    1    4    4    0    0  0.26622236187E+00  0.47326375833E+01 -0.18176918671E+02  0.18785103945E+02  0.10500000000E+00 0. -1.
    3000001    1    5    5    0    0  0.10556365190E+01 -0.22118759180E+01  0.19423514242E+02  0.19603052544E+02  0.10000000000E+01 0. -1.
        -13    1    6    6    0    0 -0.54323357951E+01 -0.28932760019E+01  0.18160079360E+02  0.19175005230E+02  0.10500000000E+00 0. -1.
         13    1    6    6    0    0 -0.65882342063E+01 -0.36408943681E+01  0.22495745398E+02  0.23721941906E+02  0.10500000000E+00 0.  1.
</event>
<event>
11    0  0.3494755E-009  0.9118800E+02  0.7816531E-02  0.1126479E+00
         25   -1    0    0    0    0  0.00000000000E+00  0.00000000000E+00  0.99999998245E-14  0.12500000000E+03  0.12500000000E+03 0.  0.
    3000001    1    3    3    0    0  0.14079404642E+02 -0.13420233904E+01  0.30377951651E+01  0.14500305559E+02  0.10000000000E+01 0. -1.
    1000022    2    1    0    0    0  0.60503324132E+02 -0.11464185767E+02 -0.37644041188E+01  0.62500002309E+02  0.99999881959E+01 0.  0.
    3000022    2    3    3    0    0  0.46423919490E+02 -0.10122162376E+02 -0.68021992840E+01  0.47999696750E+02  0.25000188564E+00 0.  0.
    1000022    2    1    0    0    0 -0.60503324132E+02  0.11464185767E+02  0.37644041188E+01  0.62499997691E+02  0.99999593346E+01 0.  0.
    3000022    2    5    5    0    0 -0.54802926325E+02  0.84707937539E+01  0.11130079384E+01  0.55465452033E+02  0.25000405264E+00 0.  0.
        -13    1    4    4    0    0  0.33071372096E+02 -0.71869920413E+01 -0.48805825979E+01  0.34193561067E+02  0.10500000000E+00 0. -1.
         13    1    4    4    0    0  0.13352547394E+02 -0.29351703350E+01 -0.19216166860E+01  0.13806135683E+02  0.10500000000E+00 0.  1.
    3000001    1    5    5    0    0 -0.57003978075E+01  0.29933920128E+01  0.26513961805E+01  0.70345456578E+01  0.10000000000E+01 0. -1.
        -13    1    6    6    0    0 -0.40231459780E+02  0.62077874444E+01  0.78441461664E+00  0.40715271241E+02  0.10500000000E+00 0. -1.
         13    1    6    6    0    0 -0.14571466545E+02  0.22630063095E+01  0.32859332173E+00  0.14750180792E+02  0.10500000000E+00 0.  1.
</event>
<event>
11    0  0.3494755E-009  0.9118800E+02  0.7816531E-02  0.1126479E+00
         25   -1    0    0    0    0  0.00000000000E+00  0.00000000000E+00  0.99999998245E-14  0.12500000000E+03  0.12500000000E+03 0.  0.
    3000001    1    3    3    0    0  0.61416752594E+01 -0.26225354268E+02 -0.16166385396E+01  0.27001905519E+02  0.10000000000E+01 0.  1.
    1000022    2    1    0    0    0  0.15979756779E+02 -0.59136166503E+02  0.73356090893E+01  0.62499999104E+02  0.99999955917E+01 0.  0.
    3000022    2    3    3    0    0  0.98380815200E+01 -0.32910812236E+02  0.89522476289E+01  0.35498093585E+02  0.25000117658E+00 0.  0.
    1000022    2    1    0    0    0 -0.15979756779E+02  0.59136166503E+02 -0.73356090893E+01  0.62500000896E+02  0.10000006794E+02 0.  0.
    3000022    2    5    5    0    0 -0.24131214461E+01  0.16616752347E+01  0.25601778237E+00  0.29516714535E+01  0.24999913081E+00 0.  0.
        -13    1    4    4    0    0  0.57295325338E+01 -0.18982698518E+02  0.51283059944E+01  0.20481233689E+02  0.10500000000E+00 0.  1.
         13    1    4    4    0    0  0.41085489862E+01 -0.13928113718E+02  0.38239416345E+01  0.15016859896E+02  0.10500000000E+00 0. -1.
    3000001    1    5    5    0    0 -0.13566635333E+02  0.57474491269E+02 -0.75916268716E+01  0.59548329443E+02  0.10000000000E+01 0. -1.
        -13    1    6    6    0    0 -0.12527864170E+01  0.89129021175E+00  0.70750708084E-01  0.15426933302E+01  0.10500000000E+00 0.  1.
         13    1    6    6    0    0 -0.11603350290E+01  0.77038502297E+00  0.18526707429E+00  0.14089781233E+01  0.10500000000E+00 0. -1.
</event>
<event>
11    0  0.3494755E-009  0.9118800E+02  0.7816531E-02  0.1126479E+00
         25   -1    0    0    0    0  0.00000000000E+00  0.00000000000E+00  0.99999998245E-14  0.12500000000E+03  0.12500000000E+03 0.  0.
    3000001    1    3    3    0    0 -0.34056040704E+00 -0.45693829248E+02 -0.15307770640E+02  0.48201347022E+02  0.10000000000E+01 0. -1.
    1000022    2    1    0    0    0  0.46435031452E+01 -0.58804360885E+02 -0.18075816459E+02  0.62500001068E+02  0.10000000614E+02 0.  0.
    3000022    2    3    3    0    0  0.49840635522E+01 -0.13110531637E+02 -0.27680458190E+01  0.14298654046E+02  0.25000116364E+00 0.  0.
    1000022    2    1    0    0    0 -0.46435031452E+01  0.58804360885E+02  0.18075816459E+02  0.62499998932E+02  0.99999872637E+01 0.  0.
    3000022    2    5    5    0    0 -0.68031548542E+00  0.46706567182E+02  0.11367096715E+02  0.48075353719E+02  0.25000081197E+00 0.  0.
        -13    1    4    4    0    0  0.20935696452E+01 -0.53487595916E+01 -0.11645423954E+01  0.58616931870E+01  0.10500000000E+00 0. -1.
         13    1    4    4    0    0  0.28904939070E+01 -0.77617720452E+01 -0.16035034236E+01  0.84369608591E+01  0.10500000000E+00 0.  1.
    3000001    1    5    5    0    0 -0.39631876597E+01  0.12097793703E+02  0.67087197444E+01  0.14424645213E+02  0.10000000000E+01 0. -1.
        -13    1    6    6    0    0 -0.30140989071E+00  0.25198993285E+02  0.61469051534E+01  0.25939845383E+02  0.10500000000E+00 0.  1.
         13    1    6    6    0    0 -0.37890559471E+00  0.21507573897E+02  0.52201915613E+01  0.22135508336E+02  0.10500000000E+00 0. -1.
</event>
<event>
11    0  0.3494755E-009  0.9118800E+02  0.7816531E-02  0.1126479E+00
         25   -1    0    0    0    0  0.00000000000E+00  0.00000000000E+00  0.99999998245E-14  0.12500000000E+03  0.12500000000E+03 0.  0.
    3000001    1    3    3    0    0 -0.13721664289E+02  0.34740253964E+02 -0.38522370023E+02  0.53666957325E+02  0.10000000000E+01 0. -1.
    1000022    2    1    0    0    0 -0.17998541916E+02  0.37125417339E+02 -0.45869441754E+02  0.62500000181E+02  0.10000010604E+02 0.  0.
    3000022    2    3    3    0    0 -0.42768776270E+01  0.23851633750E+01 -0.73470717319E+01  0.88330428564E+01  0.24999301602E+00 0.  0.
    1000022    2    1    0    0    0  0.17998541916E+02 -0.37125417339E+02  0.45869441754E+02  0.62499999819E+02  0.10000008341E+02 0.  0.
    3000022    2    5    5    0    0  0.56673362612E+01 -0.41548521205E+01  0.54836690934E+01  0.89170973485E+01  0.25000391330E+00 0.  0.
        -13    1    4    4    0    0 -0.26544951989E+01  0.14381618303E+01 -0.44388298562E+01  0.53692541105E+01  0.10500000000E+00 0. -1.
         13    1    4    4    0    0 -0.16223824281E+01  0.94700154471E+00 -0.29082418757E+01  0.34637887459E+01  0.10500000000E+00 0.  1.
    3000001    1    5    5    0    0  0.12331205655E+02 -0.32970565218E+02  0.40385772661E+02  0.53582902470E+02  0.10000000000E+01 0.  1.
        -13    1    6    6    0    0  0.22745110439E+01 -0.17454840517E+01  0.22238221516E+01  0.36299483503E+01  0.10500000000E+00 0.  1.
         13    1    6    6    0    0  0.33928252173E+01 -0.24093680688E+01  0.32598469418E+01  0.52871489982E+01  0.10500000000E+00 0. -1.
</event>
<event>
11    0  0.3494755E-009  0.9118800E+02  0.7816531E-02  0.1126479E+00
         25   -1    0    0    0    0  0.00000000000E+00  0.00000000000E+00  0.99999998245E-14  0.12500000000E+03  0.12500000000E+03 0.  0.
    3000001    1    3    3    0    0  0.18988961725E+01 -0.13522650607E+02  0.79023352734E+01  0.15808693459E+02  0.10000000000E+01 0. -1.
    1000022    2    1    0    0    0  0.26075263572E+01 -0.43373271544E+02  0.43797375106E+02  0.62500000074E+02  0.10000003241E+02 0.  0.
    3000022    2    3    3    0    0  0.70863018468E+00 -0.29850620938E+02  0.35895039833E+02  0.46691306615E+02  0.25000334433E+00 0.  0.
    1000022    2    1    0    0    0 -0.26075263572E+01  0.43373271544E+02 -0.43797375106E+02  0.62499999926E+02  0.10000002321E+02 0.  0.
    3000022    2    5    5    0    0 -0.45681336152E+01  0.93562206476E+01 -0.86650680935E+01  0.13548159015E+02  0.24999621588E+00 0.  0.
        -13    1    4    4    0    0  0.48778286511E+00 -0.18525360463E+02  0.22335853629E+02  0.29022892598E+02  0.10500000000E+00 0. -1.
         13    1    4    4    0    0  0.22084731957E+00 -0.11325260474E+02  0.13559186204E+02  0.17668414016E+02  0.10500000000E+00 0.  1.
    3000001    1    5    5    0    0  0.19606072580E+01  0.34017050897E+02 -0.35132307013E+02  0.48951840911E+02  0.10000000000E+01 0. -1.
        -13    1    6    6    0    0 -0.10820249650E+01  0.22236121557E+01 -0.20373698042E+01  0.32057962759E+01  0.10500000000E+00 0.  1.
         13    1    6    6    0    0 -0.34861086502E+01  0.71326084919E+01 -0.66276982893E+01  0.10342362739E+02  0.10500000000E+00 0. -1.
</event>
<event>
11    0  0.3494755E-009  0.9118800E+02  0.7816531E-02  0.1126479E+00
         25   -1    0    0    0    0  0.00000000000E+00  0.00000000000E+00  0.99999998245E-14  0.12500000000E+03  0.12500000000E+03 0.  0.
    3000001    1    3    3    0    0  0.24426023036E+01  0.25748002866E+01 -0.56591262724E+01  0.67543772990E+01  0.10000000000E+01 0.  1.
    1000022    2    1    0    0    0  0.74696047066E+01  0.28074036231E+01 -0.61176575553E+02  0.62500000724E+02  0.10000009229E+02 0.  0.
    3000022    2    3    3    0    0  0.50270024030E+01  0.23260333656E+00 -0.55517449280E+02  0.55745623425E+02  0.24999798848E+00 0.  0.
    1000022    2    1    0    0    0 -0.74696047066E+01 -0.28074036231E+01  0.61176575553E+02  0.62499999276E+02  0.10000000178E+02 0.  0.
    3000022    2    5    5    0    0 -0.43371492817E+01  0.14489628051E+01  0.95208100007E+01  0.10564972108E+02  0.24991092937E+00 0.  0.
        -13    1    4    4    0    0  0.34524500897E+01  0.20320818901E+00 -0.37870059695E+02  0.38027794460E+02  0.10500000000E+00 0.  1.
         13    1    4    4    0    0  0.15745523133E+01  0.29395147549E-01 -0.17647389586E+02  0.17717828965E+02  0.10500000000E+00 0. -1.
    3000001    1    5    5    0    0 -0.31324554249E+01 -0.42563664282E+01  0.51655765552E+02  0.51935027168E+02  0.10000000000E+01 0.  1.
        -13    1    6    6    0    0 -0.26864742840E+01  0.83585228373E+00  0.58961533266E+01  0.65338688516E+01  0.10500000000E+00 0.  1.
         13    1    6    6    0    0 -0.16506749977E+01  0.61311052139E+00  0.36246566741E+01  0.40311032565E+01  0.10500000000E+00 0. -1.
</event>
<event>
11    0  0.3494755E-009  0.9118800E+02  0.7816531E-02  0.1126479E+00
         25   -1    0    0    0    0  0.00000000000E+00  0.00000000000E+00  0.99999998245E-14  0.12500000000E+03  0.12500000000E+03 0.  0.
    3000001    1    3    3    0    0 -0.24097545488E+02 -0.38386474447E+02 -0.17637746323E+02  0.48644662753E+02  0.10000000000E+01 0.  1.
    1000022    2    1    0    0    0 -0.26107178805E+02 -0.50202493632E+02 -0.24584035950E+02  0.62500000011E+02  0.10000001287E+02 0.  0.
    3000022    2    3    3    0    0 -0.20096333167E+01 -0.11816019185E+02 -0.69462896272E+01  0.13855337257E+02  0.24999098120E+00 0.  0.
    1000022    2    1    0    0    0  0.26107178805E+02  0.50202493632E+02  0.24584035950E+02  0.62499999989E+02  0.10000001155E+02 0.  0.
    3000022    2    5    5    0    0  0.26113619388E+01  0.37392756271E+01 -0.68245124202E+00  0.46184017689E+01  0.25000362067E+00 0.  0.
        -13    1    4    4    0    0 -0.77974438390E+00 -0.48723409383E+01 -0.28109928819E+01  0.56798251298E+01  0.10500000000E+00 0. -1.
         13    1    4    4    0    0 -0.12298889328E+01 -0.69436782463E+01 -0.41352967454E+01  0.81755121276E+01  0.10500000000E+00 0.  1.
    3000001    1    5    5    0    0  0.23495816866E+02  0.46463218004E+02  0.25266487192E+02  0.57881598221E+02  0.10000000000E+01 0.  1.
        -13    1    6    6    0    0  0.88230133010E+00  0.12679763259E+01 -0.17634964893E+00  0.15583144095E+01  0.10500000000E+00 0. -1.
         13    1    6    6    0    0  0.17290606087E+01  0.24712993013E+01 -0.50610159309E+00  0.30600873595E+01  0.10500000000E+00 0.  1.
</event>
<event>
11    0  0.3494755E-009  0.9118800E+02  0.7816531E-02  0.1126479E+00
         25   -1    0    0    0    0  0.00000000000E+00  0.00000000000E+00  0.99999998245E-14  0.12500000000E+03  0.12500000000E+03 0.  0.
    3000001    1    3    3    0    0 -0.21725600185E+02  0.48204540264E+01  0.20310009964E+02  0.30145231549E+02  0.10000000000E+01 0. -1.
    1000022    2    1    0    0    0 -0.50695439923E+02  0.10439408392E+02  0.33574415630E+02  0.62500002738E+02  0.10000004040E+02 0.  0.
    3000022    2    3    3    0    0 -0.28969839738E+02  0.56189543652E+01  0.13264405666E+02  0.32354771189E+02  0.24999680302E+00 0.  0.
    1000022    2    1    0    0    0  0.50695439923E+02 -0.10439408392E+02 -0.33574415630E+02  0.62499997262E+02  0.99999698124E+01 0.  0.
    3000022    2    5    5    0    0  0.98369415312E+01  0.18869115692E+01 -0.59620580571E+01  0.11659094975E+02  0.25001078946E+00 0.  0.
        -13    1    4    4    0    0 -0.12104048294E+02  0.22830433085E+01  0.55233731265E+01  0.13499590644E+02  0.10500000000E+00 0.  1.
         13    1    4    4    0    0 -0.16865791444E+02  0.33359110567E+01  0.77410325398E+01  0.18855180545E+02  0.10500000000E+00 0. -1.
    3000001    1    5    5    0    0  0.40858498392E+02 -0.12326319961E+02 -0.27612357573E+02  0.50840902287E+02  0.10000000000E+01 0. -1.
        -13    1    6    6    0    0  0.62379941320E+01  0.11484999187E+01 -0.37335189848E+01  0.73608295636E+01  0.10500000000E+00 0. -1.
         13    1    6    6    0    0  0.35989473992E+01  0.73841165049E+00 -0.22285390723E+01  0.42982654111E+01  0.10500000000E+00 0.  1.
</event>
<event>
11    0  0.3494755E-009  0.9118800E+02  0.7816531E-02  0.1126479E+00
         25   -1    0    0    0    0  0.00000000000E+00  0.00000000000E+00  0.99999998245E-14  0.12500000000E+03  0.12500000000E+03 0.  0.
    3000001    1    3    3    0    0 -0.20335814913E+02 -0.16719119350E+02  0.24169466652E+02  0.35752446605E+02  0.10000000000E+01 0. -1.
    1000022    2    1    0    0    0 -0.27846885679E+02 -0.30691396417E+02  0.45703820622E+02  0.62499999991E+02  0.99999961708E+01 0.  0.
    3000022    2    3    3    0    0 -0.75110707663E+01 -0.13972277066E+02  0.21534353971E+02  0.26747553386E+02  0.25000149609E+00 0.  0.
    1000022    2    1    0    0    0  0.27846885679E+02  0.30691396417E+02 -0.45703820622E+02  0.62500000009E+02  0.99999962815E+01 0.  0.
    3000022    2    5    5    0    0  0.13363549873E+02  0.21791632876E+02 -0.26123363217E+02  0.36550681726E+02  0.25000051207E+00 0.  0.
        -13    1    4    4    0    0 -0.18230875372E+01 -0.33918481477E+01  0.52651412165E+01  0.65238806745E+01  0.10500000000E+00 0. -1.
         13    1    4    4    0    0 -0.56879832290E+01 -0.10580428919E+02  0.16269212754E+02  0.20223672712E+02  0.10500000000E+00 0.  1.
    3000001    1    5    5    0    0  0.14483335807E+02  0.88997635406E+01 -0.19580457405E+02  0.25949318283E+02  0.10000000000E+01 0. -1.
        -13    1    6    6    0    0  0.46651467543E+01  0.76073013815E+01 -0.92004564635E+01  0.12817724162E+02  0.10500000000E+00 0.  1.
         13    1    6    6    0    0  0.86984031182E+01  0.14184331495E+02 -0.16922906754E+02  0.23732957564E+02  0.10500000000E+00 0. -1.
</event>
<event>
11    0  0.3494755E-009  0.9118800E+02  0.7816531E-02  0.1126479E+00
         25   -1    0    0    0    0  0.00000000000E+00  0.00000000000E+00  0.99999998245E-14  0.12500000000E+03  0.12500000000E+03 0.  0.
    3000001    1    3    3    0    0  0.22337078998E+01 -0.86204627730E+00  0.20179507176E+02  0.20345640433E+02  0.10000000000E+01 0.  1.
    1000022    2    1    0    0    0  0.84632370112E+01  0.11292553243E+02  0.60059153534E+02  0.62499999954E+02  0.99999965779E+01 0.  0.
    3000022    2    3    3    0    0  0.62295291115E+01  0.12154599520E+02  0.39879646358E+02  0.42154359521E+02  0.25002103892E+00 0.  0.
    1000022    2    1    0    0    0 -0.84632370112E+01 -0.11292553243E+02 -0.60059153534E+02  0.62500000046E+02  0.99999971519E+01 0.  0.
    3000022    2    5    5    0    0 -0.47054315326E+01 -0.10867410657E+02 -0.54029093410E+02  0.55312269296E+02  0.24999930046E+00 0.  0.
        -13    1    4    4    0    0  0.19466157253E+01  0.38496379355E+01  0.12733658491E+02  0.13444928731E+02  0.10500000000E+00 0. -1.
         13    1    4    4    0    0  0.42829133861E+01  0.83049615847E+01  0.27145987867E+02  0.28709430790E+02  0.10500000000E+00 0.  1.
    3000001    1    5    5    0    0 -0.37578054787E+01 -0.42514258551E+00 -0.60300601245E+01  0.71877307502E+01  0.10000000000E+01 0. -1.
        -13    1    6    6    0    0 -0.35402773428E+01 -0.81241930574E+01 -0.40508841173E+02  0.41467014779E+02  0.10500000000E+00 0. -1.
         13    1    6    6    0    0 -0.11651541898E+01 -0.27432176001E+01 -0.13520252237E+02  0.13845254517E+02  0.10500000000E+00 0.  1.
</event>
<event>
11    0  0.3494755E-009  0.9118800E+02  0.7816531E-02  0.1126479E+00
         25   -1    0    0    0    0  0.00000000000E+00  0.00000000000E+00  0.99999998245E-14  0.12500000000E+03  0.12500000000E+03 0.  0.
    3000001    1    3    3    0    0 -0.35079258904E+02 -0.86677450705E+01 -0.92475794096E+01  0.37312222325E+02  0.10000000000E+01 0. -1.
    1000022    2    1    0    0    0 -0.59936639714E+02 -0.12424681366E+02 -0.77121067957E+01  0.62499999737E+02  0.99999944335E+01 0.  0.
    3000022    2    3    3    0    0 -0.24857380810E+02 -0.37569362955E+01  0.15354726138E+01  0.25187777412E+02  0.25000756049E+00 0.  0.
    1000022    2    1    0    0    0  0.59936639714E+02  0.12424681366E+02  0.77121067957E+01  0.62500000263E+02  0.99999977148E+01 0.  0.
    3000022    2    5    5    0    0  0.18632719206E+02  0.84692266143E+01  0.37140763501E+01  0.20802953375E+02  0.24996311195E+00 0.  0.
        -13    1    4    4    0    0 -0.14674599472E+02 -0.22530330847E+01  0.96056561823E+00  0.14877961522E+02  0.10500000000E+00 0. -1.
         13    1    4    4    0    0 -0.10182781338E+02 -0.15039032108E+01  0.57490699560E+00  0.10309815891E+02  0.10500000000E+00 0.  1.
    3000001    1    5    5    0    0  0.41303920508E+02  0.39554547517E+01  0.39980304456E+01  0.41697046887E+02  0.10000000000E+01 0. -1.
        -13    1    6    6    0    0  0.77003523927E+01  0.35607633005E+01  0.15730278793E+01  0.86290152372E+01  0.10500000000E+00 0.  1.
         13    1    6    6    0    0  0.10932366813E+02  0.49084633137E+01  0.21410484708E+01  0.12173938138E+02  0.10500000000E+00 0. -1.
</event>
<event>
11    0  0.3494755E-009  0.9118800E+02  0.7816531E-02  0.1126479E+00
         25   -1    0    0    0    0  0.00000000000E+00  0.00000000000E+00  0.99999998245E-14  0.12500000000E+03  0.12500000000E+03 0.  0.
    3000001    1    3    3    0    0  0.10561182876E+02  0.65152206086E+01  0.20257104214E+02  0.23776815482E+02  0.10000000000E+01 0.  1.
    1000022    2    1    0    0    0  0.30073252057E+02  0.47606074754E+01  0.53658049105E+02  0.62500001427E+02  0.10000003590E+02 0.  0.
    3000022    2    3    3    0    0  0.19512069180E+02 -0.17546131332E+01  0.33400944891E+02  0.38723185945E+02  0.24999833649E+00 0.  0.
    1000022    2    1    0    0    0 -0.30073252057E+02 -0.47606074754E+01 -0.53658049105E+02  0.62499998573E+02  0.99999857554E+01 0.  0.
    3000022    2    5    5    0    0 -0.30125730983E+02 -0.36272366846E+01 -0.49334101434E+02  0.57919190037E+02  0.24999400377E+00 0.  0.
        -13    1    4    4    0    0  0.55783576596E+01 -0.49948282311E+00  0.94677073607E+01  0.11000730200E+02  0.10500000000E+00 0. -1.
         13    1    4    4    0    0  0.13933711521E+02 -0.12551303101E+01  0.23933237530E+02  0.27722455745E+02  0.10500000000E+00 0.  1.
    3000001    1    5    5    0    0  0.52478926121E-01 -0.11333707907E+01 -0.43239476707E+01  0.45808085363E+01  0.10000000000E+01 0.  1.
        -13    1    6    6    0    0 -0.19594590480E+02 -0.24138267412E+01 -0.32068438735E+02  0.37658602252E+02  0.10500000000E+00 0.  1.
         13    1    6    6    0    0 -0.10531140502E+02 -0.12134099435E+01 -0.17265662699E+02  0.20260587785E+02  0.10500000000E+00 0. -1.
</event>
<event>
11    0  0.3494755E-009  0.9118800E+02  0.7816531E-02  0.1126479E+00
         25   -1    0    0    0    0  0.00000000000E+00  0.00000000000E+00  0.99999998245E-14  0.12500000000E+03  0.12500000000E+03 0.  0.
    3000001    1    3    3    0    0  0.38687946593E+01 -0.40354375258E+00  0.20968885580E+01  0.45307131117E+01  0.10000000000E+01 0.  1.
    1000022    2    1    0    0    0  0.40883849918E+02  0.23133700270E+02  0.39994907651E+02  0.62500002579E+02  0.10000020601E+02 0.  0.
    3000022    2    3    3    0    0  0.37015055259E+02  0.23537244022E+02  0.37898019093E+02  0.57969289467E+02  0.24999629124E+00 0.  0.
    1000022    2    1    0    0    0 -0.40883849918E+02 -0.23133700270E+02 -0.39994907651E+02  0.62499997421E+02  0.99999883666E+01 0.  0.
    3000022    2    5    5    0    0 -0.83615448328E+01 -0.72351950921E+00 -0.53755729802E+01  0.99698645179E+01  0.25000233762E+00 0.  0.
        -13    1    4    4    0    0  0.20337006944E+02  0.12967043303E+02  0.20917268044E+02  0.31926183469E+02  0.10500000000E+00 0. -1.
         13    1    4    4    0    0  0.16678048315E+02  0.10570200720E+02  0.16980751049E+02  0.26043105998E+02  0.10500000000E+00 0.  1.
    3000001    1    5    5    0    0 -0.32522305086E+02 -0.22410180761E+02 -0.34619334671E+02  0.52530132903E+02  0.10000000000E+01 0.  1.
        -13    1    6    6    0    0 -0.37531649791E+01 -0.26078685340E+00 -0.24324573619E+01  0.44813090678E+01  0.10500000000E+00 0. -1.
         13    1    6    6    0    0 -0.46083798536E+01 -0.46273265581E+00 -0.29431156183E+01  0.54885554501E+01  0.10500000000E+00 0.  1.
</event>
<event>
11    0  0.3494755E-009  0.9118800E+02  0.7816531E-02  0.1126479E+00
         25   -1    0    0    0    0  0.00000000000E+00  0.00000000000E+00  0.99999998245E-14  0.12500000000E+03  0.12500000000E+03 0.  0.
    3000001    1    3    3    0    0 -0.31929520918E+01 -0.68911950855E+01  0.94063299382E+01  0.12131057484E+02  0.10000000000E+01 0. -1.
    1000022    2    1    0    0    0 -0.25603943872E+02 -0.18499307017E+02  0.52994941346E+02  0.62499999898E+02  0.99999938539E+01 0.  0.
    3000022    2    3    3    0    0 -0.22410991780E+02 -0.11608111931E+02  0.43588611408E+02  0.50368942414E+02  0.25000058089E+00 0.  0.
    1000022    2    1    0    0    0  0.25603943872E+02  0.18499307017E+02 -0.52994941346E+02  0.62500000102E+02  0.99999951307E+01 0.  0.
    3000022    2    5    5    0    0  0.11048758703E+02  0.24753743113E+01 -0.15563862144E+02  0.19248346667E+02  0.24999543140E+00 0.  0.
        -13    1    4    4    0    0 -0.10832235535E+02 -0.56838628167E+01  0.21164733248E+02  0.24445870441E+02  0.10500000000E+00 0.  1.
         13    1    4    4    0    0 -0.11578756245E+02 -0.59242491148E+01  0.22423878160E+02  0.25923071973E+02  0.10500000000E+00 0. -1.
    3000001    1    5    5    0    0  0.14555185169E+02  0.16023932706E+02 -0.37431079202E+02  0.43251653435E+02  0.10000000000E+01 0.  1.
        -13    1    6    6    0    0  0.71921476160E+01  0.16015186380E+01 -0.10032699960E+02  0.12448210424E+02  0.10500000000E+00 0.  1.
         13    1    6    6    0    0  0.38566110874E+01  0.87385567330E+00 -0.55311621842E+01  0.68001362431E+01  0.10500000000E+00 0. -1.
</event>
<event>
11    0  0.3494755E-009  0.9118800E+02  0.7816531E-02  0.1126479E+00
         25   -1    0    0    0    0  0.00000000000E+00  0.00000000000E+00  0.99999998245E-14  0.12500000000E+03  0.12500000000E+03 0.  0.
    3000001    1    3    3    0    0 -0.17455834735E+01  0.13413624523E+01  0.87258338673E+01  0.90546392292E+01  0.10000000000E+01 0. -1.
    1000022    2    1    0    0    0 -0.17854851334E+02  0.29952347325E+02  0.50895100116E+02  0.62499999051E+02  0.99999919562E+01 0.  0.
    3000022    2    3    3    0    0 -0.16109267861E+02  0.28610984873E+02  0.42169266248E+02  0.53445359822E+02  0.25000828294E+00 0.  0.
    1000022    2    1    0    0    0  0.17854851334E+02 -0.29952347325E+02 -0.50895100116E+02  0.62500000949E+02  0.10000003821E+02 0.  0.
    3000022    2    5    5    0    0  0.15801775595E+02 -0.29644473830E+02 -0.44893303411E+02  0.56071045376E+02  0.24999557071E+00 0.  0.
        -13    1    4    4    0    0 -0.62699906997E+01  0.11204095349E+02  0.16574766273E+02  0.20966125965E+02  0.10500000000E+00 0. -1.
         13    1    4    4    0    0 -0.98392771611E+01  0.17406889524E+02  0.25594499975E+02  0.32479233857E+02  0.10500000000E+00 0.  1.
    3000001    1    5    5    0    0  0.20530757393E+01 -0.30787349524E+00 -0.60017967043E+01  0.64289555731E+01  0.10000000000E+01 0.  1.
        -13    1    6    6    0    0  0.67557277404E+01 -0.12570223873E+02 -0.18999008043E+02  0.23761812161E+02  0.10500000000E+00 0.  1.
         13    1    6    6    0    0  0.90460478547E+01 -0.17074249957E+02 -0.25894295368E+02  0.32309233215E+02  0.10500000000E+00 0. -1.
</event>
<event>
11    0  0.3494755E-009  0.9118800E+02  0.7816531E-02  0.1126479E+00
         25   -1    0    0    0    0  0.00000000000E+00  0.00000000000E+00  0.99999998245E-14  0.12500000000E+03  0.12500000000E+03 0.  0.
    3000001    1    3    3    0    0  0.31337468833E+02  0.54753834036E+01  0.34725341714E+01  0.32016796683E+02  0.10000000000E+01 0. -1.
    1000022    2    1    0    0    0  0.61621252614E+02  0.25314388240E+01  0.16314765149E+01  0.62500011166E+02  0.10000136193E+02 0.  0.
    3000022    2    3    3    0    0  0.30283783781E+02 -0.29439445796E+01 -0.18410576565E+01  0.30483214483E+02  0.25000424930E+00 0.  0.
    1000022    2    1    0    0    0 -0.61621252614E+02 -0.25314388240E+01 -0.16314765149E+01  0.62499988834E+02  0.99999966212E+01 0.  0.
    3000022    2    5    5    0    0 -0.54297820040E+02 -0.11147819830E+01  0.15434695687E+01  0.54331766023E+02  0.25000165841E+00 0.  0.
        -13    1    4    4    0    0  0.19030529153E+02 -0.18386054356E+01 -0.10980730535E+01  0.19150934682E+02  0.10500000000E+00 0.  1.
         13    1    4    4    0    0  0.11253254629E+02 -0.11053391440E+01 -0.74298460306E+00  0.11332279801E+02  0.10500000000E+00 0. -1.
    3000001    1    5    5    0    0 -0.73234325736E+01 -0.14166568410E+01 -0.31749460836E+01  0.81682228116E+01  0.10000000000E+01 0.  1.
        -13    1    6    6    0    0 -0.35126325150E+02 -0.76405317179E+00  0.96091569166E+00  0.35147928528E+02  0.10500000000E+00 0.  1.
         13    1    6    6    0    0 -0.19171494890E+02 -0.35072881123E+00  0.58255387702E+00  0.19183837495E+02  0.10500000000E+00 0. -1.
</event>
<event>
11    0  0.3494755E-009  0.9118800E+02  0.7816531E-02  0.1126479E+00
         25   -1    0    0    0    0  0.00000000000E+00  0.00000000000E+00  0.99999998245E-14  0.12500000000E+03  0.12500000000E+03 0.  0.
    3000001    1    3    3    0    0 -0.15764118573E+01  0.27437035055E+02  0.34605416312E+02  0.44201932142E+02  0.10000000000E+01 0.  1.
    1000022    2    1    0    0    0  0.40823929129E+01  0.38499003240E+02  0.48035516160E+02  0.62500000122E+02  0.10000001008E+02 0.  0.
    3000022    2    3    3    0    0  0.56588047702E+01  0.11061968185E+02  0.13430099848E+02  0.18298067980E+02  0.24999666319E+00 0.  0.
    1000022    2    1    0    0    0 -0.40823929129E+01 -0.38499003240E+02 -0.48035516160E+02  0.62499999878E+02  0.99999994770E+01 0.  0.
    3000022    2    5    5    0    0  0.21366666672E+01 -0.10375289155E+02 -0.85508064276E+01  0.13615827606E+02  0.25000267509E+00 0.  0.
        -13    1    4    4    0    0  0.39957267890E+01  0.77099221659E+01  0.93899401647E+01  0.12790259328E+02  0.10500000000E+00 0.  1.
         13    1    4    4    0    0  0.16630779812E+01  0.33520460196E+01  0.40401596831E+01  0.55078086527E+01  0.10500000000E+00 0. -1.
    3000001    1    5    5    0    0 -0.62190595802E+01 -0.28123714085E+02 -0.39484709733E+02  0.48884172271E+02  0.10000000000E+01 0.  1.
        -13    1    6    6    0    0  0.52608562245E+00 -0.25442439515E+01 -0.20684725923E+01  0.33225814109E+01  0.10500000000E+00 0. -1.
         13    1    6    6    0    0  0.16105810448E+01 -0.78310452037E+01 -0.64823338353E+01  0.10293246195E+02  0.10500000000E+00 0.  1.
</event>
<event>
11    0  0.3494755E-009  0.9118800E+02  0.7816531E-02  0.1126479E+00
         25   -1    0    0    0    0  0.00000000000E+00  0.00000000000E+00  0.99999998245E-14  0.12500000000E+03  0.12500000000E+03 0.  0.
    3000001    1    3    3    0    0 -0.97544287082E+00  0.86885329929E-02 -0.20377674805E+00  0.14117681282E+01  0.10000000000E+01 0. -1.
    1000022    2    1    0    0    0 -0.31190158984E+02  0.40708433251E+02 -0.34296463360E+02  0.62499999995E+02  0.10000002259E+02 0.  0.
    3000022    2    3    3    0    0 -0.30214716113E+02  0.40699744718E+02 -0.34092686612E+02  0.61088231867E+02  0.25000455468E+00 0.  0.
    1000022    2    1    0    0    0  0.31190158984E+02 -0.40708433251E+02  0.34296463360E+02  0.62500000005E+02  0.10000002319E+02 0.  0.
    3000022    2    5    5    0    0  0.29077345344E+02 -0.40160131548E+02  0.33907986678E+02  0.60067813670E+02  0.25000060671E+00 0.  0.
        -13    1    4    4    0    0 -0.17427015271E+02  0.23383566091E+02 -0.19570964100E+02  0.35121584320E+02  0.10500000000E+00 0.  1.
         13    1    4    4    0    0 -0.12787700842E+02  0.17316178628E+02 -0.14521722513E+02  0.25966647547E+02  0.10500000000E+00 0. -1.
    3000001    1    5    5    0    0  0.21128136400E+01 -0.54830170310E+00  0.38847668193E+00  0.24321863348E+01  0.10000000000E+01 0.  1.
        -13    1    6    6    0    0  0.11595856228E+02 -0.16110596626E+02  0.13539144131E+02  0.24027789205E+02  0.10500000000E+00 0. -1.
         13    1    6    6    0    0  0.17481489116E+02 -0.24049534923E+02  0.20368842547E+02  0.36040024465E+02  0.10500000000E+00 0.  1.
</event>
<event>
11    0  0.3494755E-009  0.9118800E+02  0.7816531E-02  0.1126479E+00
         25   -1    0    0    0    0  0.00000000000E+00  0.00000000000E+00  0.99999998245E-14  0.12500000000E+03  0.12500000000E+03 0.  0.
    3000001    1    3    3    0    0  0.20740927051E+02 -0.35509902990E+02 -0.87694477405E+01  0.42059986673E+02  0.10000000000E+01 0.  1.
    1000022    2    1    0    0    0  0.24856533472E+02 -0.55429736588E+02 -0.10767867355E+02  0.62500000504E+02  0.10000007060E+02 0.  0.
    3000022    2    3    3    0    0  0.41156064211E+01 -0.19919833598E+02 -0.19984196146E+01  0.20440013831E+02  0.24999533917E+00 0.  0.
    1000022    2    1    0    0    0 -0.24856533472E+02  0.55429736588E+02  0.10767867355E+02  0.62499999496E+02  0.10000000757E+02 0.  0.
    3000022    2    5    5    0    0 -0.20874620742E+02  0.51892853572E+02  0.83056912189E+01  0.56547900556E+02  0.25001549170E+00 0.  0.
        -13    1    4    4    0    0  0.16713880970E+01 -0.80784057746E+01 -0.87436890706E+00  0.82963681220E+01  0.10500000000E+00 0. -1.
         13    1    4    4    0    0  0.24442183240E+01 -0.11841427823E+02 -0.11240507076E+01  0.12143645709E+02  0.10500000000E+00 0.  1.
    3000001    1    5    5    0    0 -0.39819127301E+01  0.35368830157E+01  0.24621761362E+01  0.59520989393E+01  0.10000000000E+01 0. -1.
        -13    1    6    6    0    0 -0.87667238523E+01  0.21827045071E+02  0.35571222975E+01  0.23789482711E+02  0.10500000000E+00 0. -1.
         13    1    6    6    0    0 -0.12107896890E+02  0.30065808501E+02  0.47485689214E+01  0.32758417845E+02  0.10500000000E+00 0.  1.
</event>
<event>
11    0  0.3494755E-009  0.9118800E+02  0.7816531E-02  0.1126479E+00
         25   -1    0    0    0    0  0.00000000000E+00  0.00000000000E+00  0.99999998245E-14  0.12500000000E+03  0.12500000000E+03 0.  0.
    3000001    1    3    3    0    0  0.37264803850E+02 -0.10241125110E+02  0.64236678918E+01  0.39189408757E+02  0.10000000000E+01 0. -1.
    1000022    2    1    0    0    0  0.60389320927E+02 -0.11957220618E+02  0.40503267735E+01  0.62499996942E+02  0.99999631929E+01 0.  0.
    3000022    2    3    3    0    0  0.23124517077E+02 -0.17160955079E+01 -0.23733411182E+01  0.23310588185E+02  0.24999932106E+00 0.  0.
    1000022    2    1    0    0    0 -0.60389320927E+02  0.11957220618E+02 -0.40503267735E+01  0.62500003058E+02  0.10000001418E+02 0.  0.
    3000022    2    5    5    0    0 -0.23138915254E+02  0.10927701834E+01 -0.48859268486E+01  0.23675690656E+02  0.25000208539E+00 0.  0.
        -13    1    4    4    0    0  0.13919453233E+02 -0.99355834871E+00 -0.13789546958E+01  0.14023226360E+02  0.10500000000E+00 0. -1.
         13    1    4    4    0    0  0.92050638437E+01 -0.72253715916E+00 -0.99438642247E+00  0.92873618251E+01  0.10500000000E+00 0.  1.
    3000001    1    5    5    0    0 -0.37250405673E+02  0.10864450434E+02  0.83560007503E+00  0.38824312402E+02  0.10000000000E+01 0. -1.
        -13    1    6    6    0    0 -0.15046277469E+02  0.73623223861E+00 -0.31258603639E+01  0.15385529942E+02  0.10500000000E+00 0.  1.
         13    1    6    6    0    0 -0.80926377853E+01  0.35653794475E+00 -0.17600664846E+01  0.82901607138E+01  0.10500000000E+00 0. -1.
</event>
<event>
11    0  0.3494755E-009  0.9118800E+02  0.7816531E-02  0.1126479E+00
         25   -1    0    0    0    0  0.00000000000E+00  0.00000000000E+00  0.99999998245E-14  0.12500000000E+03  0.12500000000E+03 0.  0.
    3000001    1    3    3    0    0  0.23512838837E+01  0.30975478052E+02  0.26107850323E+02  0.40590991918E+02  0.10000000000E+01 0. -1.
    1000022    2    1    0    0    0 -0.13564606310E+01  0.50367448375E+02  0.35602387288E+02  0.62499999481E+02  0.10000005662E+02 0.  0.
    3000022    2    3    3    0    0 -0.37077445147E+01  0.19391970324E+02  0.94945369648E+01  0.21909007562E+02  0.24999555367E+00 0.  0.
    1000022    2    1    0    0    0  0.13564606310E+01 -0.50367448375E+02 -0.35602387288E+02  0.62500000519E+02  0.10000012150E+02 0.  0.
    3000022    2    5    5    0    0 -0.93625170052E+00 -0.46800560770E+02 -0.34011807049E+02  0.57862203357E+02  0.25000580112E+00 0.  0.
        -13    1    4    4    0    0 -0.10820495624E+01  0.58988870104E+01  0.28986959853E+01  0.66619188401E+01  0.10500000000E+00 0. -1.
         13    1    4    4    0    0 -0.26256949523E+01  0.13493083313E+02  0.65958409795E+01  0.15247088722E+02  0.10500000000E+00 0.  1.
    3000001    1    5    5    0    0  0.22927123315E+01 -0.35668876055E+01 -0.15905802387E+01  0.46377971626E+01  0.10000000000E+01 0. -1.
        -13    1    6    6    0    0 -0.28510722556E+00 -0.16081481456E+02 -0.11635213784E+02  0.19851563080E+02  0.10500000000E+00 0.  1.
         13    1    6    6    0    0 -0.65114447496E+00 -0.30719079314E+02 -0.22376593265E+02  0.38010640276E+02  0.10500000000E+00 0. -1.
</event>
<event>
11    0  0.3494755E-009  0.9118800E+02  0.7816531E-02  0.1126479E+00
         25   -1    0    0    0    0  0.00000000000E+00  0.00000000000E+00  0.99999998245E-14  0.12500000000E+03  0.12500000000E+03 0.  0.
    3000001    1    3    3    0    0  0.66836185245E+01  0.12188999887E+02 -0.18587361720E+02  0.23232143478E+02  0.10000000000E+01 0.  1.
    1000022    2    1    0    0    0  0.13468492301E+02  0.42367656343E+02 -0.42776532176E+02  0.62499996534E+02  0.99999636443E+01 0.  0.
    3000022    2    3    3    0    0  0.67848737769E+01  0.30178656455E+02 -0.24189170456E+02  0.39267853057E+02  0.24999742696E+00 0.  0.
    1000022    2    1    0    0    0 -0.13468492301E+02 -0.42367656343E+02  0.42776532176E+02  0.62500003466E+02  0.10000006965E+02 0.  0.
    3000022    2    5    5    0    0 -0.63817949123E+01 -0.33365655211E+02  0.30149525060E+02  0.45420816923E+02  0.24998916541E+00 0.  0.
        -13    1    4    4    0    0  0.20185416301E+01  0.91088845408E+01 -0.72502177983E+01  0.11816216442E+02  0.10500000000E+00 0.  1.
         13    1    4    4    0    0  0.47663321468E+01  0.21069771915E+02 -0.16938952658E+02  0.27451636614E+02  0.10500000000E+00 0. -1.
    3000001    1    5    5    0    0 -0.70866973891E+01 -0.90020011314E+01  0.12627007116E+02  0.17079186543E+02  0.10000000000E+01 0. -1.
        -13    1    6    6    0    0 -0.35579101351E+01 -0.18261354813E+02  0.16486211733E+02  0.24858439340E+02  0.10500000000E+00 0. -1.
         13    1    6    6    0    0 -0.28238847772E+01 -0.15104300398E+02  0.13663313328E+02  0.20562377583E+02  0.10500000000E+00 0.  1.
</event>
<event>
11    0  0.3494755E-009  0.9118800E+02  0.7816531E-02  0.1126479E+00
         25   -1    0    0    0    0  0.00000000000E+00  0.00000000000E+00  0.99999998245E-14  0.12500000000E+03  0.12500000000E+03 0.  0.
    3000001    1    3    3    0    0 -0.13645343420E+02  0.20126378344E+02  0.31644146341E+02  0.39920151552E+02  0.10000000000E+01 0.  1.
    1000022    2    1    0    0    0 -0.26749414056E+02  0.26392178416E+02  0.48930272093E+02  0.62500000082E+02  0.10000012467E+02 0.  0.
    3000022    2    3    3    0    0 -0.13104070636E+02  0.62658000722E+01  0.17286125751E+02  0.22579848530E+02  0.24999674058E+00 0.  0.
    1000022    2    1    0    0    0  0.26749414056E+02 -0.26392178416E+02 -0.48930272093E+02  0.62499999918E+02  0.10000011438E+02 0.  0.
    3000022    2    5    5    0    0  0.25908793076E+02 -0.23067860929E+02 -0.40390024198E+02  0.53242918062E+02  0.25000498937E+00 0.  0.
        -13    1    4    4    0    0 -0.35848986941E+01  0.16881455261E+01  0.46721814844E+01  0.61271232064E+01  0.10500000000E+00 0.  1.
         13    1    4    4    0    0 -0.95191719415E+01  0.45776545461E+01  0.12613944267E+02  0.16452725323E+02  0.10500000000E+00 0. -1.
    3000001    1    5    5    0    0  0.84062097949E+00 -0.33243174874E+01 -0.85402478945E+01  0.92570818559E+01  0.10000000000E+01 0.  1.
        -13    1    6    6    0    0  0.16783502516E+02 -0.14962821379E+02 -0.26094981557E+02  0.34446060265E+02  0.10500000000E+00 0.  1.
         13    1    6    6    0    0  0.91252905599E+01 -0.81050395494E+01 -0.14295042642E+02  0.18796857797E+02  0.10500000000E+00 0. -1.
</event>
<event>
11    0  0.3494755E-009  0.9118800E+02  0.7816531E-02  0.1126479E+00
         25   -1    0    0    0    0  0.00000000000E+00  0.00000000000E+00  0.99999998245E-14  0.12500000000E+03  0.12500000000E+03 0.  0.
    3000001    1    3    3    0    0  0.28339398759E+01 -0.10443823892E+02 -0.45029108310E+01  0.11763540226E+02  0.10000000000E+01 0. -1.
    1000022    2    1    0    0    0  0.79282990441E+01 -0.46040834045E+02 -0.40294338502E+02  0.62500000524E+02  0.10000001245E+02 0.  0.
    3000022    2    3    3    0    0  0.50943591682E+01 -0.35597010153E+02 -0.35791427671E+02  0.50736460298E+02  0.24996328450E+00 0.  0.
    1000022    2    1    0    0    0 -0.79282990441E+01  0.46040834045E+02  0.40294338502E+02  0.62499999476E+02  0.99999946984E+01 0.  0.
    3000022    2    5    5    0    0 -0.76682415287E+01  0.20182606187E+02  0.14833040399E+02  0.26195822321E+02  0.24999787972E+00 0.  0.
        -13    1    4    4    0    0  0.26127407982E+01 -0.17781455889E+02 -0.17899452649E+02  0.25365488723E+02  0.10500000000E+00 0. -1.
         13    1    4    4    0    0  0.24816183700E+01 -0.17815554264E+02 -0.17891975022E+02  0.25370971575E+02  0.10500000000E+00 0.  1.
    3000001    1    5    5    0    0 -0.26005751536E+00  0.25858227857E+02  0.25461298103E+02  0.36304177156E+02  0.10000000000E+01 0. -1.
        -13    1    6    6    0    0 -0.43652262656E+01  0.11644467331E+02  0.85014950108E+01  0.15064370620E+02  0.10500000000E+00 0.  1.
         13    1    6    6    0    0 -0.33030152631E+01  0.85381388566E+01  0.63315453877E+01  0.11131451700E+02  0.10500000000E+00 0. -1.
</event>
<event>
11    0  0.3494755E-009  0.9118800E+02  0.7816531E-02  0.1126479E+00
         25   -1    0    0    0    0  0.00000000000E+00  0.00000000000E+00  0.99999998245E-14  0.12500000000E+03  0.12500000000E+03 0.  0.
    3000001    1    3    3    0    0  0.29310308920E+02 -0.79729904418E+01 -0.21886715374E+02  0.37452517878E+02  0.10000000000E+01 0. -1.
    1000022    2    1    0    0    0  0.51214417089E+02 -0.17190471319E+02 -0.29796332425E+02  0.62500002218E+02  0.10000001466E+02 0.  0.
    3000022    2    3    3    0    0  0.21904108170E+02 -0.92174808772E+01 -0.79096170505E+01  0.25047484340E+02  0.25004286247E+00 0.  0.
    1000022    2    1    0    0    0 -0.51214417089E+02  0.17190471319E+02  0.29796332425E+02  0.62499997782E+02  0.99999737426E+01 0.  0.
    3000022    2    5    5    0    0 -0.71960061459E+01  0.61379578512E+01  0.38700627769E+01  0.10222373374E+02  0.25000092361E+00 0.  0.
        -13    1    4    4    0    0  0.88431536872E+01 -0.37773005101E+01 -0.31615579269E+01  0.10123035108E+02  0.10500000000E+00 0.  1.
         13    1    4    4    0    0  0.13060954483E+02 -0.54401803671E+01 -0.47480591237E+01  0.14924449232E+02  0.10500000000E+00 0. -1.
    3000001    1    5    5    0    0 -0.44018410943E+02  0.11052513468E+02  0.25926269648E+02  0.52277624408E+02  0.10000000000E+01 0. -1.
        -13    1    6    6    0    0 -0.41002032377E+01  0.34393376017E+01  0.21368051716E+01  0.57634773419E+01  0.10500000000E+00 0. -1.
         13    1    6    6    0    0 -0.30958029083E+01  0.26986202495E+01  0.17332576053E+01  0.44588960320E+01  0.10500000000E+00 0.  1.
</event>
<event>
11    0  0.3494755E-009  0.9118800E+02  0.7816531E-02  0.1126479E+00
         25   -1    0    0    0    0  0.00000000000E+00  0.00000000000E+00  0.99999998245E-14  0.12500000000E+03  0.12500000000E+03 0.  0.
    3000001    1    3    3    0    0  0.28985266141E+02  0.65739060657E+01  0.22198709086E+01  0.29820961102E+02  0.10000000000E+01 0. -1.
    1000022    2    1    0    0    0  0.57937853721E+02  0.21095226647E+02 -0.21086306501E+01  0.62499998649E+02  0.10000001342E+02 0.  0.
    3000022    2    3    3    0    0  0.28952587581E+02  0.14521320581E+02 -0.43285015587E+01  0.32679037547E+02  0.24998046322E+00 0.  0.
    1000022    2    1    0    0    0 -0.57937853721E+02 -0.21095226647E+02  0.21086306501E+01  0.62500001351E+02  0.10000018225E+02 0.  0.
    3000022    2    5    5    0    0 -0.37263965207E+02 -0.14820819356E+02  0.59202743792E+01  0.40538524145E+02  0.25000353199E+00 0.  0.
        -13    1    4    4    0    0  0.12999027959E+02  0.64557809078E+01 -0.19051906595E+01  0.14638736675E+02  0.10500000000E+00 0. -1.
         13    1    4    4    0    0  0.15953559622E+02  0.80655396732E+01 -0.24233108992E+01  0.18040300872E+02  0.10500000000E+00 0.  1.
    3000001    1    5    5    0    0 -0.20673888514E+02 -0.62744072906E+01 -0.38116437291E+01  0.21961477206E+02  0.10000000000E+01 0.  1.
        -13    1    6    6    0    0 -0.28216732349E+02 -0.11199352501E+02  0.44784549896E+01  0.30686757160E+02  0.10500000000E+00 0.  1.
         13    1    6    6    0    0 -0.90472328585E+01 -0.36214668546E+01  0.14418193896E+01  0.98517669850E+01  0.10500000000E+00 0. -1.
</event>
<event>
11    0  0.3494755E-009  0.9118800E+02  0.7816531E-02  0.1126479E+00
         25   -1    0    0    0    0  0.00000000000E+00  0.00000000000E+00  0.99999998245E-14  0.12500000000E+03  0.12500000000E+03 0.  0.
    3000001    1    3    3    0    0 -0.23328585640E+02 -0.32622005529E+02  0.39045122343E+01  0.40307113126E+02  0.10000000000E+01 0.  1.
    1000022    2    1    0    0    0 -0.31920629243E+02 -0.52792991192E+02  0.47384630395E+00  0.62499991327E+02  0.99998947695E+01 0.  0.
    3000022    2    3    3    0    0 -0.85920436027E+01 -0.20170985662E+02 -0.34306659303E+01  0.22192878202E+02  0.24999660778E+00 0.  0.
    1000022    2    1    0    0    0  0.31920629243E+02  0.52792991192E+02 -0.47384630395E+00  0.62500008673E+02  0.10000003176E+02 0.  0.
    3000022    2    5    5    0    0  0.67679133258E+01  0.12264430625E+02  0.40297317119E+01  0.14578139401E+02  0.25000272448E+00 0.  0.
        -13    1    4    4    0    0 -0.52404157780E+01 -0.12378903099E+02 -0.21579089787E+01  0.13614947507E+02  0.10500000000E+00 0.  1.
         13    1    4    4    0    0 -0.33516278247E+01 -0.77920825632E+01 -0.12727569516E+01  0.85779306948E+01  0.10500000000E+00 0. -1.
    3000001    1    5    5    0    0  0.25152715917E+02  0.40528560566E+02 -0.45035780158E+01  0.47921869272E+02  0.10000000000E+01 0. -1.
        -13    1    6    6    0    0  0.37500818803E+01  0.69156264962E+01  0.22959841072E+01  0.81958264967E+01  0.10500000000E+00 0. -1.
         13    1    6    6    0    0  0.30178314455E+01  0.53488041292E+01  0.17337476047E+01  0.63823129039E+01  0.10500000000E+00 0.  1.
</event>
<event>
11    0  0.3494755E-009  0.9118800E+02  0.7816531E-02  0.1126479E+00
         25   -1    0    0    0    0  0.00000000000E+00  0.00000000000E+00  0.99999998245E-14  0.12500000000E+03  0.12500000000E+03 0.  0.
    3000001    1    3    3    0    0  0.33732685340E+02 -0.20525277957E+02 -0.14367403820E+02  0.42030981287E+02  0.10000000000E+01 0. -1.
    1000022    2    1    0    0    0  0.46684587496E+02 -0.29698577904E+02 -0.27290910409E+02  0.62499999881E+02  0.99999977538E+01 0.  0.
    3000022    2    3    3    0    0  0.12951902156E+02 -0.91732999462E+01 -0.12923506590E+02  0.20469018594E+02  0.24999655393E+00 0.  0.
    1000022    2    1    0    0    0 -0.46684587496E+02  0.29698577904E+02  0.27290910409E+02  0.62500000119E+02  0.99999992362E+01 0.  0.
    3000022    2    5    5    0    0 -0.16673086018E+02  0.15444207709E+02  0.81642780050E+01  0.24150223618E+02  0.25003257076E+00 0.  0.
        -13    1    4    4    0    0  0.34489365109E+01 -0.24843902104E+01 -0.34729328973E+01  0.54899586230E+01  0.10500000000E+00 0.  1.
         13    1    4    4    0    0  0.95029656453E+01 -0.66889097359E+01 -0.94505736922E+01  0.14979059971E+02  0.10500000000E+00 0. -1.
    3000001    1    5    5    0    0 -0.30011501477E+02  0.14254370194E+02  0.19126632404E+02  0.38349776501E+02  0.10000000000E+01 0.  1.
        -13    1    6    6    0    0 -0.53514303493E+01  0.49190448319E+01  0.26564069650E+01  0.77396596698E+01  0.10500000000E+00 0.  1.
         13    1    6    6    0    0 -0.11321655669E+02  0.10525162878E+02  0.55078710400E+01  0.16410563948E+02  0.10500000000E+00 0. -1.
</event>
<event>
11    0  0.3494755E-009  0.9118800E+02  0.7816531E-02  0.1126479E+00
         25   -1    0    0    0    0  0.00000000000E+00  0.00000000000E+00  0.99999998245E-14  0.12500000000E+03  0.12500000000E+03 0.  0.
    3000001    1    3    3    0    0 -0.29888595377E+02 -0.14056281451E+02  0.32649505116E+02  0.46453173909E+02  0.10000000000E+01 0. -1.
    1000022    2    1    0    0    0 -0.36461938816E+02 -0.15850155636E+02  0.47175732579E+02  0.62499999511E+02  0.99999889347E+01 0.  0.
    3000022    2    3    3    0    0 -0.65733434382E+01 -0.17938741847E+01  0.14526227462E+02  0.16046825602E+02  0.24999815412E+00 0.  0.
    1000022    2    1    0    0    0  0.36461938816E+02  0.15850155636E+02 -0.47175732579E+02  0.62500000489E+02  0.99999950455E+01 0.  0.
    3000022    2    5    5    0    0  0.29518191340E+02  0.82673901933E+01 -0.35907274087E+02  0.47213008714E+02  0.24999767029E+00 0.  0.
        -13    1    4    4    0    0 -0.37787196641E+01 -0.10316271799E+01  0.81958188698E+01  0.90843518693E+01  0.10500000000E+00 0.  1.
         13    1    4    4    0    0 -0.27946237740E+01 -0.76224700485E+00  0.63304085925E+01  0.69624737330E+01  0.10500000000E+00 0. -1.
    3000001    1    5    5    0    0  0.69437474751E+01  0.75827654423E+01 -0.11268458492E+02  0.15286991775E+02  0.10000000000E+01 0. -1.
        -13    1    6    6    0    0  0.10891707688E+02  0.30234181961E+01 -0.13158818973E+02  0.17347504019E+02  0.10500000000E+00 0. -1.
         13    1    6    6    0    0  0.18626483653E+02  0.52439719971E+01 -0.22748455114E+02  0.29865504694E+02  0.10500000000E+00 0.  1.
</event>
<event>
11    0  0.3494755E-009  0.9118800E+02  0.7816531E-02  0.1126479E+00
         25   -1    0    0    0    0  0.00000000000E+00  0.00000000000E+00  0.99999998245E-14  0.12500000000E+03  0.12500000000E+03 0.  0.
    3000001    1    3    3    0    0  0.14617261884E+02  0.23729563423E+01  0.69815024341E+01  0.16402336511E+02  0.10000000000E+01 0. -1.
    1000022    2    1    0    0    0  0.59375405888E+02  0.12645729894E+02  0.10995299659E+02  0.62499998094E+02  0.99999919122E+01 0.  0.
    3000022    2    3    3    0    0  0.44758144004E+02  0.10272773552E+02  0.40137972252E+01  0.46097661583E+02  0.25000823070E+00 0.  0.
    1000022    2    1    0    0    0 -0.59375405888E+02 -0.12645729894E+02 -0.10995299659E+02  0.62500001906E+02  0.10000015739E+02 0.  0.
    3000022    2    5    5    0    0 -0.57503915762E+02 -0.11224311843E+02 -0.90388932985E+01  0.59282793424E+02  0.24999961233E+00 0.  0.
        -13    1    4    4    0    0  0.11694615250E+02  0.27109489189E+01  0.10683254782E+01  0.12052618562E+02  0.10500000000E+00 0. -1.
         13    1    4    4    0    0  0.33063528754E+02  0.75618246333E+01  0.29454717469E+01  0.34045043021E+02  0.10500000000E+00 0.  1.
    3000001    1    5    5    0    0 -0.18714901259E+01 -0.14214180518E+01 -0.19564063608E+01  0.32172084822E+01  0.10000000000E+01 0. -1.
        -13    1    6    6    0    0 -0.21244935001E+02 -0.41021351873E+01 -0.33786972612E+01  0.21899803572E+02  0.10500000000E+00 0.  1.
         13    1    6    6    0    0 -0.36258980760E+02 -0.71221766554E+01 -0.56601960373E+01  0.37382989852E+02  0.10500000000E+00 0. -1.
</event>
<event>
11    0  0.3494755E-009  0.9118800E+02  0.7816531E-02  0.1126479E+00
         25   -1    0    0    0    0  0.00000000000E+00  0.00000000000E+00  0.99999998245E-14  0.12500000000E+03  0.12500000000E+03 0.  0.
    3000001    1    3    3    0    0  0.32397577944E+01  0.10401469226E+02  0.34949522168E+01  0.11484828411E+02  0.10000000000E+01 0. -1.
    1000022    2    1    0    0    0  0.57239142527E+01  0.61353469694E+02  0.30396382242E+01  0.62499994744E+02  0.99999252301E+01 0.  0.
    3000022    2    3    3    0    0  0.24841564584E+01  0.50952000468E+02 -0.45531399261E+00  0.51015166333E+02  0.25000037167E+00 0.  0.
    1000022    2    1    0    0    0 -0.57239142527E+01 -0.61353469694E+02 -0.30396382242E+01  0.62500005256E+02  0.99999909328E+01 0.  0.
    3000022    2    5    5    0    0 -0.15564676567E+01 -0.89062414956E+00 -0.14427575735E+00  0.18163466136E+01  0.24999316889E+00 0.  0.
        -13    1    4    4    0    0  0.75602355267E+00  0.16512274018E+02 -0.13121101135E+00  0.16530426679E+02  0.10500000000E+00 0.  1.
         13    1    4    4    0    0  0.17281329057E+01  0.34439726449E+02 -0.32410298126E+00  0.34484739654E+02  0.10500000000E+00 0. -1.
    3000001    1    5    5    0    0 -0.41674465960E+01 -0.60462845544E+02 -0.28953624669E+01  0.60683658643E+02  0.10000000000E+01 0. -1.
        -13    1    6    6    0    0 -0.40839081066E+00 -0.24686526055E+00 -0.72484159208E-01  0.49396808038E+00  0.10500000000E+00 0. -1.
         13    1    6    6    0    0 -0.11480768461E+01 -0.64375888901E+00 -0.71791598141E-01  0.13223785333E+01  0.10500000000E+00 0.  1.
</event>
<event>
11    0  0.3494755E-009  0.9118800E+02  0.7816531E-02  0.1126479E+00
         25   -1    0    0    0    0  0.00000000000E+00  0.00000000000E+00  0.99999998245E-14  0.12500000000E+03  0.12500000000E+03 0.  0.
    3000001    1    3    3    0    0 -0.26479478887E+02 -0.39483237229E+01  0.87942728408E+00  0.26805325119E+02  0.10000000000E+01 0.  1.
    1000022    2    1    0    0    0 -0.61197433410E+02  0.62450041770E+00  0.77932032978E+01  0.62500001328E+02  0.10000014583E+02 0.  0.
    3000022    2    3    3    0    0 -0.34717954522E+02  0.45728241406E+01  0.69137760137E+01  0.35694676210E+02  0.25004817567E+00 0.  0.
    1000022    2    1    0    0    0  0.61197433410E+02 -0.62450041770E+00 -0.77932032978E+01  0.62499998672E+02  0.99999979794E+01 0.  0.
    3000022    2    5    5    0    0  0.31034043956E+02  0.22102762201E+01 -0.82311728700E+01  0.32184031934E+02  0.24999887864E+00 0.  0.
        -13    1    4    4    0    0 -0.26234666517E+02  0.34631651027E+01  0.52026377358E+01  0.26969050858E+02  0.10500000000E+00 0. -1.
         13    1    4    4    0    0 -0.84832880060E+01  0.11096590379E+01  0.17111382779E+01  0.87256253517E+01  0.10500000000E+00 0.  1.
    3000001    1    5    5    0    0  0.30163389454E+02 -0.28347766378E+01  0.43796957221E+00  0.30315966738E+02  0.10000000000E+01 0. -1.
        -13    1    6    6    0    0  0.15389134247E+02  0.11313016886E+01 -0.41423004679E+01  0.15977326890E+02  0.10500000000E+00 0. -1.
         13    1    6    6    0    0  0.15644909709E+02  0.10789745315E+01 -0.40888724020E+01  0.16206705044E+02  0.10500000000E+00 0.  1.
</event>
<event>
11    0  0.3494755E-009  0.9118800E+02  0.7816531E-02  0.1126479E+00
         25   -1    0    0    0    0  0.00000000000E+00  0.00000000000E+00  0.99999998245E-14  0.12500000000E+03  0.12500000000E+03 0.  0.
    3000001    1    3    3    0    0 -0.20595028209E+02 -0.13791397837E+01  0.42018305292E+02  0.46825155558E+02  0.10000000000E+01 0. -1.
    1000022    2    1    0    0    0 -0.24696519527E+02  0.31605230687E+01  0.56447701895E+02  0.62500000085E+02  0.99999989255E+01 0.  0.
    3000022    2    3    3    0    0 -0.41014913186E+01  0.45396628524E+01  0.14429396603E+02  0.15674844526E+02  0.24998948159E+00 0.  0.
    1000022    2    1    0    0    0  0.24696519527E+02 -0.31605230687E+01 -0.56447701895E+02  0.62499999915E+02  0.99999978660E+01 0.  0.
    3000022    2    5    5    0    0  0.33834769965E+01 -0.10708928273E+00 -0.18927974944E+02  0.19229927691E+02  0.24999763173E+00 0.  0.
        -13    1    4    4    0    0 -0.28818187445E+01  0.32503787800E+01  0.10204141285E+02  0.11090778415E+02  0.10500000000E+00 0. -1.
         13    1    4    4    0    0 -0.12196725741E+01  0.12892840724E+01  0.42252553187E+01  0.45840661116E+01  0.10500000000E+00 0.  1.
    3000001    1    5    5    0    0  0.21313042531E+02 -0.30534337860E+01 -0.37519726951E+02  0.43270072224E+02  0.10000000000E+01 0. -1.
        -13    1    6    6    0    0  0.25284592566E+01 -0.66478922874E-01 -0.13976101108E+02  0.14203519030E+02  0.10500000000E+00 0.  1.
         13    1    6    6    0    0  0.85501773997E+00 -0.40610359859E-01 -0.49518738361E+01  0.50264086608E+01  0.10500000000E+00 0. -1.
</event>
<event>
11    0  0.3494755E-009  0.9118800E+02  0.7816531E-02  0.1126479E+00
         25   -1    0    0    0    0  0.00000000000E+00  0.00000000000E+00  0.99999998245E-14  0.12500000000E+03  0.12500000000E+03 0.  0.
    3000001    1    3    3    0    0 -0.81327218050E+01  0.15157017351E+02 -0.80324865458E+01  0.19010449206E+02  0.10000000000E+01 0.  1.
    1000022    2    1    0    0    0 -0.14554779522E+02  0.48774150510E+02 -0.34863887878E+02  0.62500000397E+02  0.10000000340E+02 0.  0.
    3000022    2    3    3    0    0 -0.64220577165E+01  0.33617133160E+02 -0.26831401332E+02  0.43489551191E+02  0.24999631001E+00 0.  0.
    1000022    2    1    0    0    0  0.14554779522E+02 -0.48774150510E+02  0.34863887878E+02  0.62499999603E+02  0.99999953747E+01 0.  0.
    3000022    2    5    5    0    0  0.50734142377E+01 -0.32929845799E+02  0.23868390308E+02  0.40986300567E+02  0.25000369366E+00 0.  0.
        -13    1    4    4    0    0 -0.28325421836E+01  0.14720350368E+02 -0.11672169324E+02  0.18999015025E+02  0.10500000000E+00 0.  1.
         13    1    4    4    0    0 -0.35895155329E+01  0.18896782791E+02 -0.15159232008E+02  0.24490536166E+02  0.10500000000E+00 0. -1.
    3000001    1    5    5    0    0  0.94813652838E+01 -0.15844304711E+02  0.10995497570E+02  0.21513699036E+02  0.10000000000E+01 0. -1.
        -13    1    6    6    0    0  0.27868628586E+01 -0.17702323843E+02  0.12877420374E+02  0.22067574731E+02  0.10500000000E+00 0. -1.
         13    1    6    6    0    0  0.22865513791E+01 -0.15227521956E+02  0.10990969934E+02  0.18918725835E+02  0.10500000000E+00 0.  1.
</event>
<event>
11    0  0.3494755E-009  0.9118800E+02  0.7816531E-02  0.1126479E+00
         25   -1    0    0    0    0  0.00000000000E+00  0.00000000000E+00  0.99999998245E-14  0.12500000000E+03  0.12500000000E+03 0.  0.
    3000001    1    3    3    0    0  0.23846919256E+01  0.26417133581E+01  0.26445383999E+02  0.26702504375E+02  0.10000000000E+01 0. -1.
    1000022    2    1    0    0    0  0.32379046958E+01 -0.49990237866E+01  0.61406640433E+02  0.62500001605E+02  0.10000022282E+02 0.  0.
    3000022    2    3    3    0    0  0.85321277017E+00 -0.76407371447E+01  0.34961256435E+02  0.35797497230E+02  0.25004059327E+00 0.  0.
    1000022    2    1    0    0    0 -0.32379046958E+01  0.49990237866E+01 -0.61406640433E+02  0.62499998395E+02  0.10000002222E+02 0.  0.
    3000022    2    5    5    0    0 -0.80952245716E+00 -0.30263592081E+01 -0.14143191305E+02  0.14488151565E+02  0.24999763915E+00 0.  0.
        -13    1    4    4    0    0  0.25408649053E+00 -0.26716396811E+01  0.12372098532E+02  0.12660255354E+02  0.10500000000E+00 0. -1.
         13    1    4    4    0    0  0.59912627964E+00 -0.49690974636E+01  0.22589157903E+02  0.23137241876E+02  0.10500000000E+00 0.  1.
    3000001    1    5    5    0    0 -0.24283822386E+01  0.80253829947E+01 -0.47263449128E+02  0.48011846830E+02  0.10000000000E+01 0. -1.
        -13    1    6    6    0    0 -0.63393356423E+00 -0.22850953035E+01 -0.10662222377E+02  0.10923256992E+02  0.10500000000E+00 0. -1.
         13    1    6    6    0    0 -0.17558889292E+00 -0.74126390458E+00 -0.34809689281E+01  0.35648945726E+01  0.10500000000E+00 0.  1.
</event>
<event>
11    0  0.3494755E-009  0.9118800E+02  0.7816531E-02  0.1126479E+00
         25   -1    0    0    0    0  0.00000000000E+00  0.00000000000E+00  0.99999998245E-14  0.12500000000E+03  0.12500000000E+03 0.  0.
    3000001    1    3    3    0    0 -0.15571121659E+01 -0.24647937353E+00 -0.15295605650E+00  0.18731646842E+01  0.10000000000E+01 0. -1.
    1000022    2    1    0    0    0 -0.39264671946E+02  0.70358166569E+01 -0.47064135859E+02  0.62500000258E+02  0.99999984554E+01 0.  0.
    3000022    2    3    3    0    0 -0.37707559780E+02  0.72822960305E+01 -0.46911179802E+02  0.60626835574E+02  0.25000251281E+00 0.  0.
    1000022    2    1    0    0    0  0.39264671946E+02 -0.70358166569E+01  0.47064135859E+02  0.62499999742E+02  0.99999952294E+01 0.  0.
    3000022    2    5    5    0    0  0.18881785253E+02 -0.47160106881E+01  0.15685648113E+02  0.24997292335E+02  0.24999238516E+00 0.  0.
        -13    1    4    4    0    0 -0.21672689737E+02  0.42271883883E+01 -0.27052181134E+02  0.34919996151E+02  0.10500000000E+00 0.  1.
         13    1    4    4    0    0 -0.16034870043E+02  0.30551076422E+01 -0.19858998668E+02  0.25706839423E+02  0.10500000000E+00 0. -1.
    3000001    1    5    5    0    0  0.20382886692E+02 -0.23198059688E+01  0.31378487746E+02  0.37502707407E+02  0.10000000000E+01 0.  1.
        -13    1    6    6    0    0  0.13449455398E+02 -0.33574391332E+01  0.11117767465E+02  0.17770087970E+02  0.10500000000E+00 0.  1.
         13    1    6    6    0    0  0.54323298552E+01 -0.13585715550E+01  0.45678806482E+01  0.72272043655E+01  0.10500000000E+00 0. -1.
</event>
<event>
11    0  0.3494755E-009  0.9118800E+02  0.7816531E-02  0.1126479E+00
         25   -1    0    0    0    0  0.00000000000E+00  0.00000000000E+00  0.99999998245E-14  0.12500000000E+03  0.12500000000E+03 0.  0.
    3000001    1    3    3    0    0  0.20911217550E+01 -0.77783236419E+01  0.10075042066E+02  0.12937603391E+02  0.10000000000E+01 0.  1.
    1000022    2    1    0    0    0 -0.71854128511E+01 -0.43495967198E+02  0.43159246113E+02  0.62500000585E+02  0.10000011386E+02 0.  0.
    3000022    2    3    3    0    0 -0.92765346061E+01 -0.35717643556E+02  0.33084204047E+02  0.49562397194E+02  0.25000531317E+00 0.  0.
    1000022    2    1    0    0    0  0.71854128511E+01  0.43495967198E+02 -0.43159246113E+02  0.62499999415E+02  0.10000004076E+02 0.  0.
    3000022    2    5    5    0    0 -0.19503860171E+01  0.59634911383E+01 -0.86737854551E+01  0.10708141204E+02  0.25000352031E+00 0.  0.
        -13    1    4    4    0    0 -0.29996133150E+01 -0.11618434959E+02  0.10823697451E+02  0.16160110224E+02  0.10500000000E+00 0.  1.
         13    1    4    4    0    0 -0.62769212911E+01 -0.24099208597E+02  0.22260506596E+02  0.33402286970E+02  0.10500000000E+00 0. -1.
    3000001    1    5    5    0    0  0.91357988682E+01  0.37532476060E+02 -0.34485460658E+02  0.51791858211E+02  0.10000000000E+01 0.  1.
        -13    1    6    6    0    0 -0.13149896698E+01  0.39976875449E+01 -0.57263442517E+01  0.71072320229E+01  0.10500000000E+00 0. -1.
         13    1    6    6    0    0 -0.63539634730E+00  0.19658035934E+01 -0.29474412034E+01  0.36009091815E+01  0.10500000000E+00 0.  1.
</event>
<event>
11    0  0.3494755E-009  0.9118800E+02  0.7816531E-02  0.1126479E+00
         25   -1    0    0    0    0  0.00000000000E+00  0.00000000000E+00  0.99999998245E-14  0.12500000000E+03  0.12500000000E+03 0.  0.
    3000001    1    3    3    0    0 -0.39849459013E+00 -0.14047656382E+00  0.27843664242E+02  0.27864819577E+02  0.10000000000E+01 0.  1.
    1000022    2    1    0    0    0 -0.10105602302E+02 -0.60534909418E+01  0.60559739604E+02  0.62500000613E+02  0.10000003262E+02 0.  0.
    3000022    2    3    3    0    0 -0.97071077117E+01 -0.59130143780E+01  0.32716075362E+02  0.34635181037E+02  0.24999835742E+00 0.  0.
    1000022    2    1    0    0    0  0.10105602302E+02  0.60534909418E+01 -0.60559739604E+02  0.62499999387E+02  0.99999955963E+01 0.  0.
    3000022    2    5    5    0    0 -0.17687081459E+01 -0.37392397914E+00 -0.52849784288E+01  0.55912115399E+01  0.25000368773E+00 0.  0.
        -13    1    4    4    0    0 -0.59345922758E+01 -0.35425416933E+01  0.19872058638E+02  0.21039931717E+02  0.10500000000E+00 0. -1.
         13    1    4    4    0    0 -0.37725154359E+01 -0.23704726847E+01  0.12844016724E+02  0.13595249320E+02  0.10500000000E+00 0.  1.
    3000001    1    5    5    0    0  0.11874310448E+02  0.64274149210E+01 -0.55274761176E+02  0.56908787847E+02  0.10000000000E+01 0. -1.
        -13    1    6    6    0    0 -0.10504253626E+01 -0.15655949928E+00 -0.31085252940E+01  0.32866181437E+01  0.10500000000E+00 0.  1.
         13    1    6    6    0    0 -0.71828278333E+00 -0.21736447985E+00 -0.21764531348E+01  0.23045933962E+01  0.10500000000E+00 0. -1.
</event>
<event>
11    0  0.3494755E-009  0.9118800E+02  0.7816531E-02  0.1126479E+00
         25   -1    0    0    0    0  0.00000000000E+00  0.00000000000E+00  0.99999998245E-14  0.12500000000E+03  0.12500000000E+03 0.  0.
    3000001    1    3    3    0    0 -0.98906030766E+01 -0.20865221849E+01  0.38217774744E+01  0.10852814709E+02  0.10000000000E+01 0. -1.
    1000022    2    1    0    0    0 -0.56153385224E+02  0.90531287435E+01  0.23897448399E+02  0.62500001478E+02  0.10000016625E+02 0.  0.
    3000022    2    3    3    0    0 -0.46262782148E+02  0.11139650928E+02  0.20075670925E+02  0.51647186768E+02  0.25000629800E+00 0.  0.
    1000022    2    1    0    0    0  0.56153385224E+02 -0.90531287435E+01 -0.23897448399E+02  0.62499998522E+02  0.99999981551E+01 0.  0.
    3000022    2    5    5    0    0  0.29108581211E+02 -0.69746847172E+01 -0.77633941339E+01  0.30923914840E+02  0.24998704287E+00 0.  0.
        -13    1    4    4    0    0 -0.28235970075E+02  0.68467124287E+01  0.12213111109E+02  0.31516957104E+02  0.10500000000E+00 0. -1.
         13    1    4    4    0    0 -0.18026812073E+02  0.42929384998E+01  0.78625598161E+01  0.20130229664E+02  0.10500000000E+00 0.  1.
    3000001    1    5    5    0    0  0.27044804014E+02 -0.20784440264E+01 -0.16134054265E+02  0.31576083683E+02  0.10000000000E+01 0. -1.
        -13    1    6    6    0    0  0.17635092994E+02 -0.42641537833E+01 -0.47571235603E+01  0.18756885722E+02  0.10500000000E+00 0.  1.
         13    1    6    6    0    0  0.11473488216E+02 -0.27105309339E+01 -0.30062705737E+01  0.12167029118E+02  0.10500000000E+00 0. -1.
</event>
<event>
11    0  0.3494755E-009  0.9118800E+02  0.7816531E-02  0.1126479E+00
         25   -1    0    0    0    0  0.00000000000E+00  0.00000000000E+00  0.99999998245E-14  0.12500000000E+03  0.12500000000E+03 0.  0.
    3000001    1    3    3    0    0 -0.58562976645E+01 -0.23172012712E+02  0.45963039530E+02  0.51815435908E+02  0.10000000000E+01 0.  1.
    1000022    2    1    0    0    0 -0.42857252420E+01 -0.30776366178E+02  0.53298197203E+02  0.62500000853E+02  0.10000006282E+02 0.  0.
    3000022    2    3    3    0    0  0.15705724225E+01 -0.76043534657E+01  0.73351576727E+01  0.10684564946E+02  0.25000125284E+00 0.  0.
    1000022    2    1    0    0    0  0.42857252420E+01  0.30776366178E+02 -0.53298197203E+02  0.62499999147E+02  0.99999956165E+01 0.  0.
    3000022    2    5    5    0    0  0.56507727731E+01  0.26610453908E+02 -0.50005676727E+02  0.56926950531E+02  0.25000320348E+00 0.  0.
        -13    1    4    4    0    0  0.10731243242E+01 -0.49295979118E+01  0.47405802761E+01  0.69236303874E+01  0.10500000000E+00 0.  1.
         13    1    4    4    0    0  0.49744809825E+00 -0.26747555539E+01  0.25945773966E+01  0.37609345581E+01  0.10500000000E+00 0. -1.
    3000001    1    5    5    0    0 -0.13650475311E+01  0.41659122693E+01 -0.32925204753E+01  0.55730486161E+01  0.10000000000E+01 0.  1.
        -13    1    6    6    0    0  0.19522147733E+01  0.94503357632E+01 -0.17695160195E+02  0.20155637124E+02  0.10500000000E+00 0.  1.
         13    1    6    6    0    0  0.36985579998E+01  0.17160118145E+02 -0.32310516532E+02  0.36771313406E+02  0.10500000000E+00 0. -1.
</event>
<event>
11    0  0.3494755E-009  0.9118800E+02  0.7816531E-02  0.1126479E+00
         25   -1    0    0    0    0  0.00000000000E+00  0.00000000000E+00  0.99999998245E-14  0.12500000000E+03  0.12500000000E+03 0.  0.
    3000001    1    3    3    0    0  0.32685592024E+01 -0.11898008410E+02 -0.88083681574E+01  0.15193203513E+02  0.10000000000E+01 0. -1.
    1000022    2    1    0    0    0  0.23703125189E+02 -0.52226924635E+02 -0.22732361968E+02  0.62500000845E+02  0.10000001223E+02 0.  0.
    3000022    2    3    3    0    0  0.20434565986E+02 -0.40328916224E+02 -0.13923993811E+02  0.47306797332E+02  0.24999855233E+00 0.  0.
    1000022    2    1    0    0    0 -0.23703125189E+02  0.52226924635E+02  0.22732361968E+02  0.62499999155E+02  0.99999906604E+01 0.  0.
    3000022    2    5    5    0    0 -0.14711055225E+02  0.33920785912E+02  0.95260173742E+01  0.38181702037E+02  0.25000147563E+00 0.  0.
        -13    1    4    4    0    0  0.87335487788E+01 -0.17103917290E+02 -0.59417717345E+01  0.20103097704E+02  0.10500000000E+00 0. -1.
         13    1    4    4    0    0  0.11701017208E+02 -0.23224998934E+02 -0.79822220763E+01  0.27203699628E+02  0.10500000000E+00 0.  1.
    3000001    1    5    5    0    0 -0.89920699640E+01  0.18306138723E+02  0.13206344594E+02  0.24318297118E+02  0.10000000000E+01 0.  1.
        -13    1    6    6    0    0 -0.68911651677E+01  0.15780748485E+02  0.43834376800E+01  0.17769235521E+02  0.10500000000E+00 0.  1.
         13    1    6    6    0    0 -0.78198900572E+01  0.18140037427E+02  0.51425796942E+01  0.20412466516E+02  0.10500000000E+00 0. -1.
</event>
<event>
11    0  0.3494755E-009  0.9118800E+02  0.7816531E-02  0.1126479E+00
         25   -1    0    0    0    0  0.00000000000E+00  0.00000000000E+00  0.99999998245E-14  0.12500000000E+03  0.12500000000E+03 0.  0.
    3000001    1    3    3    0    0  0.21032040616E+01 -0.14591809781E+01 -0.19084338065E+01  0.33458625264E+01  0.10000000000E+01 0.  1.
    1000022    2    1    0    0    0  0.15723344523E+02 -0.89111525452E+01 -0.58988287107E+02  0.62500002363E+02  0.10000003840E+02 0.  0.
    3000022    2    3    3    0    0  0.13620140462E+02 -0.74519715671E+01 -0.57079853301E+02  0.59154139836E+02  0.25000100426E+00 0.  0.
    1000022    2    1    0    0    0 -0.15723344523E+02  0.89111525452E+01  0.58988287107E+02  0.62499997637E+02  0.99999743067E+01 0.  0.
    3000022    2    5    5    0    0 -0.52534525302E+01  0.58249563861E+01  0.38212396332E+02  0.39009980979E+02  0.25000439537E+00 0.  0.
        -13    1    4    4    0    0  0.31612623877E+01 -0.17266549139E+01 -0.13207892953E+02  0.13690667564E+02  0.10500000000E+00 0.  1.
         13    1    4    4    0    0  0.10458878074E+02 -0.57253166532E+01 -0.43871960347E+02  0.45463472273E+02  0.10500000000E+00 0. -1.
    3000001    1    5    5    0    0 -0.10469891993E+02  0.30861961591E+01  0.20775890775E+02  0.23490016658E+02  0.10000000000E+01 0. -1.
        -13    1    6    6    0    0 -0.33558471067E+01  0.38060103451E+01  0.24699315488E+02  0.25215365061E+02  0.10500000000E+00 0. -1.
         13    1    6    6    0    0 -0.18976054235E+01  0.20189460409E+01  0.13513080844E+02  0.13794615919E+02  0.10500000000E+00 0.  1.
</event>
<event>
11    0  0.3494755E-009  0.9118800E+02  0.7816531E-02  0.1126479E+00
         25   -1    0    0    0    0  0.00000000000E+00  0.00000000000E+00  0.99999998245E-14  0.12500000000E+03  0.12500000000E+03 0.  0.
    3000001    1    3    3    0    0  0.70152783491E+01 -0.72678383753E+01 -0.49496733187E+01  0.11293133796E+02  0.10000000000E+01 0.  1.
    1000022    2    1    0    0    0  0.28619697214E+02 -0.32743443448E+02 -0.43761053732E+02  0.62499999777E+02  0.99999995479E+01 0.  0.
    3000022    2    3    3    0    0  0.21604418865E+02 -0.25475605072E+02 -0.38811380414E+02  0.51206865982E+02  0.25001149670E+00 0.  0.
    1000022    2    1    0    0    0 -0.28619697214E+02  0.32743443448E+02  0.43761053732E+02  0.62500000223E+02  0.10000002332E+02 0.  0.
    3000022    2    5    5    0    0 -0.13168081535E+02  0.19449685492E+02  0.17766479454E+02  0.29451636881E+02  0.24997143372E+00 0.  0.
        -13    1    4    4    0    0  0.79952243495E+01 -0.93363297898E+01 -0.14286696364E+02  0.18847052404E+02  0.10500000000E+00 0. -1.
         13    1    4    4    0    0  0.13609194515E+02 -0.16139275283E+02 -0.24524684050E+02  0.32359813577E+02  0.10500000000E+00 0.  1.
    3000001    1    5    5    0    0 -0.15451615679E+02  0.13293757956E+02  0.25994574278E+02  0.33048363342E+02  0.10000000000E+01 0.  1.
        -13    1    6    6    0    0 -0.58711615416E+01  0.87816999059E+01  0.79583500983E+01  0.13226305318E+02  0.10500000000E+00 0. -1.
         13    1    6    6    0    0 -0.72969199934E+01  0.10667985586E+02  0.98081293556E+01  0.16225331562E+02  0.10500000000E+00 0.  1.
</event>
<event>
11    0  0.3494755E-009  0.9118800E+02  0.7816531E-02  0.1126479E+00
         25   -1    0    0    0    0  0.00000000000E+00  0.00000000000E+00  0.99999998245E-14  0.12500000000E+03  0.12500000000E+03 0.  0.
    3000001    1    3    3    0    0 -0.46432334159E+01 -0.26925143220E+02  0.36835518184E+02  0.45873503832E+02  0.10000000000E+01 0.  1.
    1000022    2    1    0    0    0 -0.38916734077E+00 -0.36048986224E+02  0.50065647846E+02  0.62500001542E+02  0.10000011974E+02 0.  0.
    3000022    2    3    3    0    0  0.42540660752E+01 -0.91238430036E+01  0.13230129663E+02  0.16626497710E+02  0.25001174437E+00 0.  0.
    1000022    2    1    0    0    0  0.38916734077E+00  0.36048986224E+02 -0.50065647846E+02  0.62499998458E+02  0.99999926977E+01 0.  0.
    3000022    2    5    5    0    0 -0.11450976536E+01  0.29721702913E+01 -0.10961196531E+01  0.33777149026E+01  0.24986955074E+00 0.  0.
        -13    1    4    4    0    0  0.22066658163E+01 -0.48150391854E+01  0.68650270638E+01  0.86714242180E+01  0.10500000000E+00 0. -1.
         13    1    4    4    0    0  0.20474002589E+01 -0.43088038182E+01  0.63651025990E+01  0.79550734918E+01  0.10500000000E+00 0.  1.
    3000001    1    5    5    0    0  0.15342649944E+01  0.33076815933E+02 -0.48969528193E+02  0.59122283555E+02  0.10000000000E+01 0.  1.
        -13    1    6    6    0    0 -0.67219972186E+00  0.18626693054E+01 -0.63480158527E+00  0.20821593263E+01  0.10500000000E+00 0. -1.
         13    1    6    6    0    0 -0.47289793175E+00  0.11095009859E+01 -0.46131806787E+00  0.12955555763E+01  0.10500000000E+00 0.  1.
</event>
<event>
11    0  0.3494755E-009  0.9118800E+02  0.7816531E-02  0.1126479E+00
         25   -1    0    0    0    0  0.00000000000E+00  0.00000000000E+00  0.99999998245E-14  0.12500000000E+03  0.12500000000E+03 0.  0.
    3000001    1    3    3    0    0  0.46938394308E+01  0.30876183119E+01 -0.31765825203E+01  0.65311707948E+01  0.10000000000E+01 0. -1.
    1000022    2    1    0    0    0  0.43937889509E+02  0.47791416597E+01 -0.43044999482E+02  0.62500000402E+02  0.99999870150E+01 0.  0.
    3000022    2    3    3    0    0  0.39244050078E+02  0.16915233478E+01 -0.39868416962E+02  0.55968829607E+02  0.24999753280E+00 0.  0.
    1000022    2    1    0    0    0 -0.43937889509E+02 -0.47791416597E+01  0.43044999482E+02  0.62499999598E+02  0.99999819962E+01 0.  0.
    3000022    2    5    5    0    0 -0.29157827191E+02 -0.46006006632E+01  0.22242459450E+02  0.36961248831E+02  0.24999952831E+00 0.  0.
        -13    1    4    4    0    0  0.23078801654E+02  0.93102016742E+00 -0.23454144668E+02  0.32918168410E+02  0.10500000000E+00 0.  1.
         13    1    4    4    0    0  0.16165248424E+02  0.76050318039E+00 -0.16414272294E+02  0.23050661197E+02  0.10500000000E+00 0. -1.
    3000001    1    5    5    0    0 -0.14780062317E+02 -0.17854099645E+00  0.20802540032E+02  0.25538750767E+02  0.10000000000E+01 0. -1.
        -13    1    6    6    0    0 -0.10446141770E+02 -0.16974809168E+01  0.79354146084E+01  0.13228195242E+02  0.10500000000E+00 0.  1.
         13    1    6    6    0    0 -0.18711685421E+02 -0.29031197464E+01  0.14307044842E+02  0.23733053589E+02  0.10500000000E+00 0. -1.
</event>
<event>
11    0  0.3494755E-009  0.9118800E+02  0.7816531E-02  0.1126479E+00
         25   -1    0    0    0    0  0.00000000000E+00  0.00000000000E+00  0.99999998245E-14  0.12500000000E+03  0.12500000000E+03 0.  0.
    3000001    1    3    3    0    0 -0.11119568603E+02 -0.17136995495E+02  0.59343714664E+00  0.20461514806E+02  0.10000000000E+01 0. -1.
    1000022    2    1    0    0    0 -0.33849209547E+02 -0.49177489350E+02  0.15558116131E+02  0.62499996450E+02  0.10000006650E+02 0.  0.
    3000022    2    3    3    0    0 -0.22729640945E+02 -0.32040493854E+02  0.14964678985E+02  0.42038481644E+02  0.24999582117E+00 0.  0.
    1000022    2    1    0    0    0  0.33849209547E+02  0.49177489350E+02 -0.15558116131E+02  0.62500003550E+02  0.10000051025E+02 0.  0.
    3000022    2    5    5    0    0  0.10195381325E+02  0.77330804968E+01 -0.29997684521E+01  0.13145624705E+02  0.25000759420E+00 0.  0.
        -13    1    4    4    0    0 -0.74098600219E+01 -0.10374605791E+02  0.48906172595E+01  0.13655315194E+02  0.10500000000E+00 0.  1.
         13    1    4    4    0    0 -0.15319780923E+02 -0.21665888063E+02  0.10074061725E+02  0.28383166450E+02  0.10500000000E+00 0. -1.
    3000001    1    5    5    0    0  0.23653828223E+02  0.41444408853E+02 -0.12558347679E+02  0.49354378845E+02  0.10000000000E+01 0.  1.
        -13    1    6    6    0    0  0.23783781124E+01  0.18134460473E+01 -0.69046238166E+00  0.30713241953E+01  0.10500000000E+00 0.  1.
         13    1    6    6    0    0  0.78170032121E+01  0.59196344494E+01 -0.23093060704E+01  0.10074300510E+02  0.10500000000E+00 0. -1.
</event>
<event>
11    0  0.3494755E-009  0.9118800E+02  0.7816531E-02  0.1126479E+00
         25   -1    0    0    0    0  0.00000000000E+00  0.00000000000E+00  0.99999998245E-14  0.12500000000E+03  0.12500000000E+03 0.  0.
    3000001    1    3    3    0    0 -0.11858575220E+01 -0.37712214275E+01 -0.14618311645E+02  0.15176409472E+02  0.10000000000E+01 0. -1.
    1000022    2    1    0    0    0 -0.18977620901E+02 -0.23289453776E+02 -0.53886002233E+02  0.62500000396E+02  0.10000003029E+02 0.  0.
    3000022    2    3    3    0    0 -0.17791763379E+02 -0.19518232349E+02 -0.39267690588E+02  0.47323590924E+02  0.24999129636E+00 0.  0.
    1000022    2    1    0    0    0  0.18977620901E+02  0.23289453776E+02  0.53886002233E+02  0.62499999604E+02  0.99999980825E+01 0.  0.
    3000022    2    5    5    0    0  0.14699160759E+02  0.21667556603E+02  0.49888309974E+02  0.56342295891E+02  0.24999601318E+00 0.  0.
        -13    1    4    4    0    0 -0.72842856156E+01 -0.80796200951E+01 -0.16216898821E+02  0.19527926418E+02  0.10500000000E+00 0.  1.
         13    1    4    4    0    0 -0.10507477764E+02 -0.11438612254E+02 -0.23050791767E+02  0.27795664506E+02  0.10500000000E+00 0. -1.
    3000001    1    5    5    0    0  0.42784601423E+01  0.16218971729E+01  0.39976922587E+01  0.61577037135E+01  0.10000000000E+01 0. -1.
        -13    1    6    6    0    0  0.95152401039E+01  0.13951058374E+02  0.32258962633E+02  0.36411859595E+02  0.10500000000E+00 0. -1.
         13    1    6    6    0    0  0.51839206552E+01  0.77164982289E+01  0.17629347341E+02  0.19930436295E+02  0.10500000000E+00 0.  1.
</event>
<event>
11    0  0.3494755E-009  0.9118800E+02  0.7816531E-02  0.1126479E+00
         25   -1    0    0    0    0  0.00000000000E+00  0.00000000000E+00  0.99999998245E-14  0.12500000000E+03  0.12500000000E+03 0.  0.
    3000001    1    3    3    0    0 -0.13044634536E+02  0.32606469055E+02  0.40018943954E+02  0.53252795135E+02  0.10000000000E+01 0.  1.
    1000022    2    1    0    0    0 -0.11602632871E+02  0.39674739494E+02  0.45798951534E+02  0.62500000130E+02  0.10000000558E+02 0.  0.
    3000022    2    3    3    0    0  0.14420016644E+01  0.70682704383E+01  0.57800075796E+01  0.92472049950E+01  0.24999362271E+00 0.  0.
    1000022    2    1    0    0    0  0.11602632871E+02 -0.39674739494E+02 -0.45798951534E+02  0.62499999870E+02  0.99999989389E+01 0.  0.
    3000022    2    5    5    0    0  0.52685594568E+01 -0.26148358970E+02 -0.35166337703E+02  0.44138738123E+02  0.25000008450E+00 0.  0.
        -13    1    4    4    0    0  0.10975459273E+01  0.52439229530E+01  0.43083576303E+01  0.68757767175E+01  0.10500000000E+00 0. -1.
         13    1    4    4    0    0  0.34445573710E+00  0.18243474853E+01  0.14716499493E+01  0.23714282775E+01  0.10500000000E+00 0.  1.
    3000001    1    5    5    0    0  0.63340734147E+01 -0.13526380524E+02 -0.10632613830E+02  0.18361261748E+02  0.10000000000E+01 0. -1.
        -13    1    6    6    0    0  0.22984157630E+01 -0.11657773982E+02 -0.15738662506E+02  0.19720621991E+02  0.10500000000E+00 0. -1.
         13    1    6    6    0    0  0.29701436938E+01 -0.14490584988E+02 -0.19427675198E+02  0.24418116132E+02  0.10500000000E+00 0.  1.
</event>
<event>
11    0  0.3494755E-009  0.9118800E+02  0.7816531E-02  0.1126479E+00
         25   -1    0    0    0    0  0.00000000000E+00  0.00000000000E+00  0.99999998245E-14  0.12500000000E+03  0.12500000000E+03 0.  0.
    3000001    1    3    3    0    0  0.91134552354E+01 -0.50927625588E+01  0.13900450126E+02  0.17413035649E+02  0.10000000000E+01 0. -1.
    1000022    2    1    0    0    0  0.18058628752E+02 -0.20935294245E+02  0.55152963686E+02  0.62499999574E+02  0.99999962938E+01 0.  0.
    3000022    2    3    3    0    0  0.89451735167E+01 -0.15842531686E+02  0.41252513559E+02  0.45086963924E+02  0.25000298786E+00 0.  0.
    1000022    2    1    0    0    0 -0.18058628752E+02  0.20935294245E+02 -0.55152963686E+02  0.62500000426E+02  0.10000001621E+02 0.  0.
    3000022    2    5    5    0    0 -0.10751341289E+02  0.18826393233E+02 -0.39123208560E+02  0.44729323373E+02  0.24999933913E+00 0.  0.
        -13    1    4    4    0    0  0.38022284948E+01 -0.66059826932E+01  0.17319942658E+02  0.18923197075E+02  0.10500000000E+00 0. -1.
         13    1    4    4    0    0  0.51429450219E+01 -0.92365489931E+01  0.23932570901E+02  0.26163766849E+02  0.10500000000E+00 0.  1.
    3000001    1    5    5    0    0 -0.73072874630E+01  0.21089010118E+01 -0.16029755126E+02  0.17770677053E+02  0.10000000000E+01 0.  1.
        -13    1    6    6    0    0 -0.78725250304E+01  0.13713019530E+02 -0.28522415224E+02  0.32612309795E+02  0.10500000000E+00 0. -1.
         13    1    6    6    0    0 -0.28788162587E+01  0.51133737031E+01 -0.10600793336E+02  0.12117013578E+02  0.10500000000E+00 0.  1.
</event>
<event>
11    0  0.3494755E-009  0.9118800E+02  0.7816531E-02  0.1126479E+00
         25   -1    0    0    0    0  0.00000000000E+00  0.00000000000E+00  0.99999998245E-14  0.12500000000E+03  0.12500000000E+03 0.  0.
    3000001    1    3    3    0    0 -0.23252612432E+01  0.23210858499E+01  0.85595498410E+01  0.92228072111E+01  0.10000000000E+01 0.  1.
    1000022    2    1    0    0    0 -0.21262217671E+02 -0.67997621485E+01  0.57514617197E+02  0.62500000341E+02  0.10000009284E+02 0.  0.
    3000022    2    3    3    0    0 -0.18936956428E+02 -0.91208479985E+01  0.48955067356E+02  0.53277193130E+02  0.25000192483E+00 0.  0.
    1000022    2    1    0    0    0  0.21262217671E+02  0.67997621485E+01 -0.57514617197E+02  0.62499999659E+02  0.10000005020E+02 0.  0.
    3000022    2    5    5    0    0  0.54639377363E+01  0.84286315586E-01 -0.56722248524E+01  0.78802513198E+01  0.25001263247E+00 0.  0.
        -13    1    4    4    0    0 -0.64143373009E+01 -0.31124394641E+01  0.16734561876E+02  0.18190315792E+02  0.10500000000E+00 0.  1.
         13    1    4    4    0    0 -0.12522619127E+02 -0.60084085344E+01  0.32220505480E+02  0.35086877338E+02  0.10500000000E+00 0. -1.
    3000001    1    5    5    0    0  0.15798279935E+02  0.67154758330E+01 -0.51842392345E+02  0.54619748339E+02  0.10000000000E+01 0. -1.
        -13    1    6    6    0    0  0.15759064118E+01  0.44111003647E-01 -0.15845438767E+01  0.22376843157E+01  0.10500000000E+00 0.  1.
         13    1    6    6    0    0  0.38880313245E+01  0.40175311938E-01 -0.40876809757E+01  0.56425670040E+01  0.10500000000E+00 0. -1.
</event>
<event>
11    0  0.3494755E-009  0.9118800E+02  0.7816531E-02  0.1126479E+00
         25   -1    0    0    0    0  0.00000000000E+00  0.00000000000E+00  0.99999998245E-14  0.12500000000E+03  0.12500000000E+03 0.  0.
    3000001    1    3    3    0    0  0.13800871383E+02 -0.66407357698E+01 -0.22410417832E+02  0.27162294636E+02  0.10000000000E+01 0.  1.
    1000022    2    1    0    0    0  0.28110069057E+02 -0.25528212512E+02 -0.48624936109E+02  0.62499999499E+02  0.99999954662E+01 0.  0.
    3000022    2    3    3    0    0  0.14309197673E+02 -0.18887476742E+02 -0.26214518277E+02  0.35337704863E+02  0.25000144002E+00 0.  0.
    1000022    2    1    0    0    0 -0.28110069057E+02  0.25528212512E+02  0.48624936109E+02  0.62500000501E+02  0.10000001730E+02 0.  0.
    3000022    2    5    5    0    0 -0.24261158886E+01 -0.36360443592E+00  0.53996994653E+01  0.59361187557E+01  0.25001014948E+00 0.  0.
        -13    1    4    4    0    0  0.84639341323E+01 -0.11116403386E+02 -0.15537961566E+02  0.20896216879E+02  0.10500000000E+00 0.  1.
         13    1    4    4    0    0  0.58452635411E+01 -0.77710733566E+01 -0.10676556711E+02  0.14441487984E+02  0.10500000000E+00 0. -1.
    3000001    1    5    5    0    0 -0.25683953168E+02  0.25891816948E+02  0.43225236644E+02  0.56563881745E+02  0.10000000000E+01 0.  1.
        -13    1    6    6    0    0 -0.11393893245E+01 -0.19462500520E+00  0.23931720638E+01  0.26597715037E+01  0.10500000000E+00 0. -1.
         13    1    6    6    0    0 -0.12867265641E+01 -0.16897943073E+00  0.30065274016E+01  0.32763472519E+01  0.10500000000E+00 0.  1.
</event>
<event>
11    0  0.3494755E-009  0.9118800E+02  0.7816531E-02  0.1126479E+00
         25   -1    0    0    0    0  0.00000000000E+00  0.00000000000E+00  0.99999998245E-14  0.12500000000E+03  0.12500000000E+03 0.  0.
    3000001    1    3    3    0    0  0.55105973970E+01  0.88199485491E+00  0.38423045316E+01  0.68489344215E+01  0.10000000000E+01 0.  1.
    1000022    2    1    0    0    0  0.45222542994E+02 -0.18511076213E+02  0.37663136869E+02  0.62499999458E+02  0.99999858002E+01 0.  0.
    3000022    2    3    3    0    0  0.39711945597E+02 -0.19393071068E+02  0.33820832337E+02  0.55651065036E+02  0.25002228042E+00 0.  0.
    1000022    2    1    0    0    0 -0.45222542994E+02  0.18511076213E+02 -0.37663136869E+02  0.62500000542E+02  0.99999925773E+01 0.  0.
    3000022    2    5    5    0    0 -0.41014646005E+02  0.18642197632E+02 -0.31514662568E+02  0.54981534866E+02  0.24999995955E+00 0.  0.
        -13    1    4    4    0    0  0.16304641664E+02 -0.80332536816E+01  0.13917990427E+02  0.22893142795E+02  0.10500000000E+00 0.  1.
         13    1    4    4    0    0  0.23407303933E+02 -0.11359817386E+02  0.19902841910E+02  0.32757922241E+02  0.10500000000E+00 0. -1.
    3000001    1    5    5    0    0 -0.42078969896E+01 -0.13112141899E+00 -0.61484743005E+01  0.75184656763E+01  0.10000000000E+01 0. -1.
        -13    1    6    6    0    0 -0.12343899405E+02  0.56332344473E+01 -0.94410992232E+01  0.16530292266E+02  0.10500000000E+00 0.  1.
         13    1    6    6    0    0 -0.28670746600E+02  0.13008963185E+02 -0.22073563345E+02  0.38451242600E+02  0.10500000000E+00 0. -1.
</event>
<event>
11    0  0.3494755E-009  0.9118800E+02  0.7816531E-02  0.1126479E+00
         25   -1    0    0    0    0  0.00000000000E+00  0.00000000000E+00  0.99999998245E-14  0.12500000000E+03  0.12500000000E+03 0.  0.
    3000001    1    3    3    0    0  0.32248864457E+02  0.63806495269E+01  0.35876980219E+02  0.48670932360E+02  0.10000000000E+01 0. -1.
    1000022    2    1    0    0    0  0.37211004910E+02  0.64706531592E+01  0.48782391643E+02  0.62499998956E+02  0.99999948154E+01 0.  0.
    3000022    2    3    3    0    0  0.49621404531E+01  0.90003632247E-01  0.12905411424E+02  0.13829066596E+02  0.25000070731E+00 0.  0.
    1000022    2    1    0    0    0 -0.37211004910E+02 -0.64706531592E+01 -0.48782391643E+02  0.62500001044E+02  0.10000007870E+02 0.  0.
    3000022    2    5    5    0    0 -0.20336221656E+01  0.14542498505E+01 -0.11860089589E+01  0.27784137488E+01  0.25000793826E+00 0.  0.
        -13    1    4    4    0    0  0.16652883801E+01  0.64313646551E-01  0.44545883223E+01  0.47572790285E+01  0.10500000000E+00 0. -1.
         13    1    4    4    0    0  0.32968520730E+01  0.25689985697E-01  0.84508231017E+01  0.90717875671E+01  0.10500000000E+00 0.  1.
    3000001    1    5    5    0    0 -0.35177382744E+02 -0.79249030097E+01 -0.47596382684E+02  0.59721587296E+02  0.10000000000E+01 0. -1.
        -13    1    6    6    0    0 -0.78144157764E+00  0.59237172293E+00 -0.40435072148E+00  0.10658703971E+01  0.10500000000E+00 0. -1.
         13    1    6    6    0    0 -0.12521805879E+01  0.86187812758E+00 -0.78165823740E+00  0.17125433518E+01  0.10500000000E+00 0. -1.
</event>
<event>
11    0  0.3494755E-009  0.9118800E+02  0.7816531E-02  0.1126479E+00
         25   -1    0    0    0    0  0.00000000000E+00  0.00000000000E+00  0.99999998245E-14  0.12500000000E+03  0.12500000000E+03 0.  0.
    3000001    1    3    3    0    0  0.34287184616E+02  0.40351413673E+02 -0.10576265051E+02  0.54006527353E+02  0.10000000000E+01 0.  1.
    1000022    2    1    0    0    0  0.36483235646E+02  0.47643848384E+02 -0.14327844186E+02  0.62499999548E+02  0.10000002622E+02 0.  0.
    3000022    2    3    3    0    0  0.21960510298E+01  0.72924347107E+01 -0.37515791356E+01  0.84934721948E+01  0.24995955324E+00 0.  0.
    1000022    2    1    0    0    0 -0.36483235646E+02 -0.47643848384E+02  0.14327844186E+02  0.62500000452E+02  0.10000008274E+02 0.  0.
    3000022    2    5    5    0    0 -0.23920862523E+02 -0.36301260645E+02  0.70224110681E+01  0.44038232711E+02  0.24998962886E+00 0.  0.
        -13    1    4    4    0    0  0.14930506710E+01  0.47671890686E+01 -0.24680096720E+01  0.55729156340E+01  0.10500000000E+00 0. -1.
         13    1    4    4    0    0  0.70300035880E+00  0.25252456421E+01 -0.12835694636E+01  0.29205565609E+01  0.10500000000E+00 0.  1.
    3000001    1    5    5    0    0 -0.12562373123E+02 -0.11342587739E+02  0.73054331183E+01  0.18461767742E+02  0.10000000000E+01 0.  1.
        -13    1    6    6    0    0 -0.10877868709E+02 -0.16386558444E+02  0.31799701100E+01  0.19924120061E+02  0.10500000000E+00 0.  1.
         13    1    6    6    0    0 -0.13042993814E+02 -0.19914702201E+02  0.38424409580E+01  0.24114112650E+02  0.10500000000E+00 0. -1.
</event>
<event>
11    0  0.3494755E-009  0.9118800E+02  0.7816531E-02  0.1126479E+00
         25   -1    0    0    0    0  0.00000000000E+00  0.00000000000E+00  0.99999998245E-14  0.12500000000E+03  0.12500000000E+03 0.  0.
    3000001    1    3    3    0    0  0.13326471996E+02 -0.25941138633E+02 -0.11957243216E+02  0.31535903266E+02  0.10000000000E+01 0. -1.
    1000022    2    1    0    0    0  0.20842846039E+02 -0.55586349250E+02 -0.16792365381E+02  0.62500000088E+02  0.10000001100E+02 0.  0.
    3000022    2    3    3    0    0  0.75163740430E+01 -0.29645210616E+02 -0.48351221653E+01  0.30964096822E+02  0.24998887116E+00 0.  0.
    1000022    2    1    0    0    0 -0.20842846039E+02  0.55586349250E+02  0.16792365381E+02  0.62499999912E+02  0.10000000000E+02 0.  0.
    3000022    2    5    5    0    0 -0.28662440651E+01  0.24810792544E+01  0.27620560446E+01  0.46970804367E+01  0.25000345630E+00 0.  0.
        -13    1    4    4    0    0  0.48803240709E+01 -0.19442560169E+02 -0.31402653597E+01  0.20290465753E+02  0.10500000000E+00 0.  1.
         13    1    4    4    0    0  0.26360499721E+01 -0.10202650447E+02 -0.16948568056E+01  0.10673631069E+02  0.10500000000E+00 0. -1.
    3000001    1    5    5    0    0 -0.17976601974E+02  0.53105269995E+02  0.14030309336E+02  0.57802919475E+02  0.10000000000E+01 0. -1.
        -13    1    6    6    0    0 -0.12849816161E+01  0.11275349956E+01  0.11648778928E+01  0.20713470074E+01  0.10500000000E+00 0. -1.
         13    1    6    6    0    0 -0.15812624490E+01  0.13535442588E+01  0.15971781518E+01  0.26257334293E+01  0.10500000000E+00 0.  1.
</event>
<event>
11    0  0.3494755E-009  0.9118800E+02  0.7816531E-02  0.1126479E+00
         25   -1    0    0    0    0  0.00000000000E+00  0.00000000000E+00  0.99999998245E-14  0.12500000000E+03  0.12500000000E+03 0.  0.
    3000001    1    3    3    0    0 -0.22883381068E+02 -0.16612704803E+02 -0.92827207870E+01  0.29779187282E+02  0.10000000000E+01 0. -1.
    1000022    2    1    0    0    0 -0.52787466883E+02 -0.29629501398E+02 -0.11909073764E+02  0.62499999788E+02  0.99999961257E+01 0.  0.
    3000022    2    3    3    0    0 -0.29904085816E+02 -0.13016796595E+02 -0.26263529773E+01  0.32720812506E+02  0.24999806533E+00 0.  0.
    1000022    2    1    0    0    0  0.52787466883E+02  0.29629501398E+02  0.11909073764E+02  0.62500000212E+02  0.99999987770E+01 0.  0.
    3000022    2    5    5    0    0  0.89559200525E+01  0.78717085002E+01 -0.73309860493E+00  0.11948733447E+02  0.24999743735E+00 0.  0.
        -13    1    4    4    0    0 -0.22692731754E+02 -0.98558438361E+01 -0.19882969497E+01  0.24820597937E+02  0.10500000000E+00 0. -1.
         13    1    4    4    0    0 -0.72113540617E+01 -0.31609527591E+01 -0.63805602756E+00  0.79002145694E+01  0.10500000000E+00 0.  1.
    3000001    1    5    5    0    0  0.43831546831E+02  0.21757792898E+02  0.12642172369E+02  0.50551266765E+02  0.10000000000E+01 0.  1.
        -13    1    6    6    0    0  0.47943603743E+01  0.42546711950E+01 -0.33417706706E+00  0.64195652258E+01  0.10500000000E+00 0.  1.
         13    1    6    6    0    0  0.41615596782E+01  0.36170373052E+01 -0.39892153787E+00  0.55291682210E+01  0.10500000000E+00 0. -1.
</event>
<event>
11    0  0.3494755E-009  0.9118800E+02  0.7816531E-02  0.1126479E+00
         25   -1    0    0    0    0  0.00000000000E+00  0.00000000000E+00  0.99999998245E-14  0.12500000000E+03  0.12500000000E+03 0.  0.
    3000001    1    3    3    0    0 -0.14990411406E+02 -0.10214860302E+02 -0.34768977393E+01  0.18497151754E+02  0.10000000000E+01 0. -1.
    1000022    2    1    0    0    0 -0.56043923678E+02 -0.20795546177E+02 -0.15260206342E+02  0.62499999852E+02  0.99999980897E+01 0.  0.
    3000022    2    3    3    0    0 -0.41053512272E+02 -0.10580685875E+02 -0.11783308602E+02  0.44002848098E+02  0.24999123541E+00 0.  0.
    1000022    2    1    0    0    0  0.56043923678E+02  0.20795546177E+02  0.15260206342E+02  0.62500000148E+02  0.99999999458E+01 0.  0.
    3000022    2    5    5    0    0  0.55338570446E+02  0.20782420413E+02  0.14009734031E+02  0.60750321187E+02  0.24999887989E+00 0.  0.
        -13    1    4    4    0    0 -0.26128740027E+02 -0.67778993031E+01 -0.74605645288E+01  0.28005749811E+02  0.10500000000E+00 0.  1.
         13    1    4    4    0    0 -0.14924772245E+02 -0.38027865720E+01 -0.43227440736E+01  0.15997098287E+02  0.10500000000E+00 0. -1.
    3000001    1    5    5    0    0  0.70535323177E+00  0.13125764133E-01  0.12504723112E+01  0.17496789615E+01  0.10000000000E+01 0. -1.
        -13    1    6    6    0    0  0.28088706057E+02  0.10543108170E+02  0.71800436986E+01  0.30849580068E+02  0.10500000000E+00 0. -1.
         13    1    6    6    0    0  0.27249864389E+02  0.10239312243E+02  0.68296903319E+01  0.29900741119E+02  0.10500000000E+00 0.  1.
</event>
<event>
11    0  0.3494755E-009  0.9118800E+02  0.7816531E-02  0.1126479E+00
         25   -1    0    0    0    0  0.00000000000E+00  0.00000000000E+00  0.99999998245E-14  0.12500000000E+03  0.12500000000E+03 0.  0.
    3000001    1    3    3    0    0 -0.34727433349E+01  0.42636555346E+01 -0.18144075593E+01  0.58762896098E+01  0.10000000000E+01 0.  1.
    1000022    2    1    0    0    0 -0.10029101713E+02  0.56626952862E+02 -0.22339551065E+02  0.62500001585E+02  0.99999992400E+01 0.  0.
    3000022    2    3    3    0    0 -0.65563583779E+01  0.52363297327E+02 -0.20525143506E+02  0.56623711975E+02  0.24999958037E+00 0.  0.
    1000022    2    1    0    0    0  0.10029101713E+02 -0.56626952862E+02  0.22339551065E+02  0.62499998415E+02  0.99999794232E+01 0.  0.
    3000022    2    5    5    0    0  0.77088676007E+01 -0.20963262625E+02  0.56344028935E+01  0.23036797036E+02  0.25000425592E+00 0.  0.
        -13    1    4    4    0    0 -0.27398317396E+01  0.22030916708E+02 -0.85680174073E+01  0.23796846771E+02  0.10500000000E+00 0.  1.
         13    1    4    4    0    0 -0.38165266382E+01  0.30332380619E+02 -0.11957126099E+02  0.32826865204E+02  0.10500000000E+00 0. -1.
    3000001    1    5    5    0    0  0.23202341121E+01 -0.35663690236E+02  0.16705148172E+02  0.39463201379E+02  0.10000000000E+01 0.  1.
        -13    1    6    6    0    0  0.26193783112E+01 -0.71025473681E+01  0.18539426897E+01  0.77945782664E+01  0.10500000000E+00 0. -1.
         13    1    6    6    0    0  0.50894892894E+01 -0.13860715257E+02  0.37804602038E+01  0.15242218770E+02  0.10500000000E+00 0.  1.
</event>
<event>
11    0  0.3494755E-009  0.9118800E+02  0.7816531E-02  0.1126479E+00
         25   -1    0    0    0    0  0.00000000000E+00  0.00000000000E+00  0.99999998245E-14  0.12500000000E+03  0.12500000000E+03 0.  0.
    3000001    1    3    3    0    0 -0.88521992388E+01 -0.46974761519E+02  0.64103050851E+01  0.48239834809E+02  0.10000000000E+01 0.  1.
    1000022    2    1    0    0    0 -0.16352951204E+02 -0.59092294607E+02  0.68506698072E+01  0.62500000043E+02  0.10000001676E+02 0.  0.
    3000022    2    3    3    0    0 -0.75007519648E+01 -0.12117533088E+02  0.44036472204E+00  0.14260165234E+02  0.25000643892E+00 0.  0.
    1000022    2    1    0    0    0  0.16352951204E+02  0.59092294607E+02 -0.68506698072E+01  0.62499999957E+02  0.10000001143E+02 0.  0.
    3000022    2    5    5    0    0  0.69612690809E+01  0.15508364518E+02  0.17222006489E+01  0.17087922676E+02  0.24997816284E+00 0.  0.
        -13    1    4    4    0    0 -0.53364368856E+01 -0.86877612728E+01  0.33667636007E+00  0.10201917983E+02  0.10500000000E+00 0.  1.
         13    1    4    4    0    0 -0.21643150791E+01 -0.34297718156E+01  0.10368836197E+00  0.40582472504E+01  0.10500000000E+00 0. -1.
    3000001    1    5    5    0    0  0.93916821227E+01  0.43583930090E+02 -0.85728704560E+01  0.45412077281E+02  0.10000000000E+01 0.  1.
        -13    1    6    6    0    0  0.32731765172E+01  0.74568254729E+01  0.82881130675E+00  0.81863229736E+01  0.10500000000E+00 0.  1.
         13    1    6    6    0    0  0.36880925637E+01  0.80515390447E+01  0.89338934211E+00  0.89015997025E+01  0.10500000000E+00 0. -1.
</event>
<event>
11    0  0.3494755E-009  0.9118800E+02  0.7816531E-02  0.1126479E+00
         25   -1    0    0    0    0  0.00000000000E+00  0.00000000000E+00  0.99999998245E-14  0.12500000000E+03  0.12500000000E+03 0.  0.
    3000001    1    3    3    0    0  0.14173390293E+02  0.63488232579E+01  0.23760278821E+02  0.28403228669E+02  0.10000000000E+01 0.  1.
    1000022    2    1    0    0    0  0.29537961829E+02  0.24002545123E+02  0.48555503688E+02  0.62499997975E+02  0.99999723541E+01 0.  0.
    3000022    2    3    3    0    0  0.15364571536E+02  0.17653721865E+02  0.24795224867E+02  0.34096769306E+02  0.25009346714E+00 0.  0.
    1000022    2    1    0    0    0 -0.29537961829E+02 -0.24002545123E+02 -0.48555503688E+02  0.62500002025E+02  0.99999976658E+01 0.  0.
    3000022    2    5    5    0    0 -0.24493780768E+02 -0.22811995977E+02 -0.45203501663E+02  0.56247235643E+02  0.24999636216E+00 0.  0.
        -13    1    4    4    0    0  0.47897546533E+01  0.54776517975E+01  0.77762542746E+01  0.10650238232E+02  0.10500000000E+00 0.  1.
         13    1    4    4    0    0  0.10574816882E+02  0.12176070067E+02  0.17018970592E+02  0.23446531074E+02  0.10500000000E+00 0. -1.
    3000001    1    5    5    0    0 -0.50441810607E+01 -0.11905491454E+01 -0.33520020258E+01  0.62527663815E+01  0.10000000000E+01 0.  1.
        -13    1    6    6    0    0 -0.16742123454E+02 -0.15656481314E+02 -0.30984115448E+02  0.38541543041E+02  0.10500000000E+00 0. -1.
         13    1    6    6    0    0 -0.77516573144E+01 -0.71555146629E+01 -0.14219386214E+02  0.17705692602E+02  0.10500000000E+00 0.  1.
</event>
<event>
11    0  0.3494755E-009  0.9118800E+02  0.7816531E-02  0.1126479E+00
         25   -1    0    0    0    0  0.00000000000E+00  0.00000000000E+00  0.99999998245E-14  0.12500000000E+03  0.12500000000E+03 0.  0.
    3000001    1    3    3    0    0  0.48267337977E+01  0.24255984179E+02 -0.41178163964E+01  0.25091961651E+02  0.10000000000E+01 0. -1.
    1000022    2    1    0    0    0  0.23479273388E+01  0.59163965522E+02 -0.17330960232E+02  0.62499999746E+02  0.10000010332E+02 0.  0.
    3000022    2    3    3    0    0 -0.24788064589E+01  0.34907981343E+02 -0.13213143835E+02  0.37408038095E+02  0.25000235368E+00 0.  0.
    1000022    2    1    0    0    0 -0.23479273388E+01 -0.59163965522E+02  0.17330960232E+02  0.62500000254E+02  0.10000013503E+02 0.  0.
    3000022    2    5    5    0    0 -0.88045661790E+00 -0.41082198254E+02  0.72665903146E+01  0.41729942004E+02  0.25001527738E+00 0.  0.
        -13    1    4    4    0    0 -0.78528628518E+00  0.10418215756E+02 -0.39424846762E+01  0.11167367842E+02  0.10500000000E+00 0. -1.
         13    1    4    4    0    0 -0.16935201737E+01  0.24489765587E+02 -0.92706591592E+01  0.26240670253E+02  0.10500000000E+00 0.  1.
    3000001    1    5    5    0    0 -0.14674707209E+01 -0.18081767269E+02  0.10064369917E+02  0.20770058250E+02  0.10000000000E+01 0. -1.
        -13    1    6    6    0    0 -0.36319421640E+00 -0.19614711714E+02  0.35058685364E+01  0.19929148624E+02  0.10500000000E+00 0. -1.
         13    1    6    6    0    0 -0.51726240150E+00 -0.21467486539E+02  0.37607217782E+01  0.21800793380E+02  0.10500000000E+00 0.  1.
</event>
<event>
11    0  0.3494755E-009  0.9118800E+02  0.7816531E-02  0.1126479E+00
         25   -1    0    0    0    0  0.00000000000E+00  0.00000000000E+00  0.99999998245E-14  0.12500000000E+03  0.12500000000E+03 0.  0.
    3000001    1    3    3    0    0 -0.28303363195E+02  0.44286936656E+01 -0.13400943222E+02  0.31642992510E+02  0.10000000000E+01 0.  1.
    1000022    2    1    0    0    0 -0.50687992904E+02  0.68199009815E+01 -0.34503140408E+02  0.62499997302E+02  0.99999645338E+01 0.  0.
    3000022    2    3    3    0    0 -0.22384629709E+02  0.23912073159E+01 -0.21102197186E+02  0.30857004792E+02  0.24999803657E+00 0.  0.
    1000022    2    1    0    0    0  0.50687992904E+02 -0.68199009815E+01  0.34503140408E+02  0.62500002698E+02  0.99999982647E+01 0.  0.
    3000022    2    5    5    0    0  0.24178211080E+02 -0.28835130121E+01  0.22361403786E+02  0.33060480780E+02  0.24994360181E+00 0.  0.
        -13    1    4    4    0    0 -0.13249284055E+02  0.14753592090E+01 -0.12465105274E+02  0.18251303714E+02  0.10500000000E+00 0. -1.
         13    1    4    4    0    0 -0.91353456540E+01  0.91584810690E+00 -0.86370919125E+01  0.12605701078E+02  0.10500000000E+00 0.  1.
    3000001    1    5    5    0    0  0.26509781824E+02 -0.39363879694E+01  0.12141736622E+02  0.29439521919E+02  0.10000000000E+01 0. -1.
        -13    1    6    6    0    0  0.15337645742E+02 -0.18632629377E+01  0.14123174349E+02  0.20932993201E+02  0.10500000000E+00 0.  1.
         13    1    6    6    0    0  0.88405653379E+01 -0.10202500744E+01  0.82382294373E+01  0.12127487579E+02  0.10500000000E+00 0. -1.
</event>
<event>
11    0  0.3494755E-009  0.9118800E+02  0.7816531E-02  0.1126479E+00
         25   -1    0    0    0    0  0.00000000000E+00  0.00000000000E+00  0.99999998245E-14  0.12500000000E+03  0.12500000000E+03 0.  0.
    3000001    1    3    3    0    0 -0.51928784704E+01 -0.24108139003E+02 -0.30825167666E+01  0.24873083094E+02  0.10000000000E+01 0.  1.
    1000022    2    1    0    0    0 -0.21593368401E+02 -0.57791065963E+02  0.41130468339E+00  0.62500000671E+02  0.10000002416E+02 0.  0.
    3000022    2    3    3    0    0 -0.16400489930E+02 -0.33682926960E+02  0.34938214500E+01  0.37626917577E+02  0.24999892998E+00 0.  0.
    1000022    2    1    0    0    0  0.21593368401E+02  0.57791065963E+02 -0.41130468339E+00  0.62499999329E+02  0.99999940320E+01 0.  0.
    3000022    2    5    5    0    0  0.14250070948E+02  0.37454731849E+02 -0.49662364623E+01  0.40381276351E+02  0.25003054814E+00 0.  0.
        -13    1    4    4    0    0 -0.49004632115E+01 -0.10106973570E+02  0.10895521213E+01  0.11285548425E+02  0.10500000000E+00 0.  1.
         13    1    4    4    0    0 -0.11500026719E+02 -0.23575953390E+02  0.24042693287E+01  0.26341369151E+02  0.10500000000E+00 0. -1.
    3000001    1    5    5    0    0  0.73432974530E+01  0.20336334114E+02  0.45549317789E+01  0.22118722978E+02  0.10000000000E+01 0. -1.
        -13    1    6    6    0    0  0.92723897091E+01  0.24399424602E+02 -0.32905541621E+01  0.26308703950E+02  0.10500000000E+00 0.  1.
         13    1    6    6    0    0  0.49776812385E+01  0.13055307247E+02 -0.16756823002E+01  0.14072572402E+02  0.10500000000E+00 0. -1.
</event>
<event>
11    0  0.3494755E-009  0.9118800E+02  0.7816531E-02  0.1126479E+00
         25   -1    0    0    0    0  0.00000000000E+00  0.00000000000E+00  0.99999998245E-14  0.12500000000E+03  0.12500000000E+03 0.  0.
    3000001    1    3    3    0    0  0.67321230499E+01 -0.61472000117E+01 -0.16673749287E+01  0.93214638279E+01  0.10000000000E+01 0.  1.
    1000022    2    1    0    0    0  0.53275042164E+02 -0.22347455399E+02 -0.21647428769E+02  0.62499999405E+02  0.99999936442E+01 0.  0.
    3000022    2    3    3    0    0  0.46542919114E+02 -0.16200255387E+02 -0.19980053840E+02  0.53178535577E+02  0.25000069041E+00 0.  0.
    1000022    2    1    0    0    0 -0.53275042164E+02  0.22347455399E+02  0.21647428769E+02  0.62500000595E+02  0.10000001084E+02 0.  0.
    3000022    2    5    5    0    0 -0.29586251620E+02  0.13949631007E+02  0.17197875635E+02  0.36956297358E+02  0.24999583976E+00 0.  0.
        -13    1    4    4    0    0  0.28490677174E+02 -0.99623763982E+01 -0.12284288025E+02  0.32586536892E+02  0.10500000000E+00 0. -1.
         13    1    4    4    0    0  0.18052241940E+02 -0.62378789890E+01 -0.76957658151E+01  0.20591998685E+02  0.10500000000E+00 0.  1.
    3000001    1    5    5    0    0 -0.23688790544E+02  0.83978243919E+01  0.44495531339E+01  0.25543703237E+02  0.10000000000E+01 0. -1.
        -13    1    6    6    0    0 -0.10812278935E+02  0.51588866382E+01  0.62751488968E+01  0.13524348628E+02  0.10500000000E+00 0.  1.
         13    1    6    6    0    0 -0.18773972685E+02  0.87907443689E+01  0.10922726738E+02  0.23431948731E+02  0.10500000000E+00 0. -1.
</event>
<event>
11    0  0.3494755E-009  0.9118800E+02  0.7816531E-02  0.1126479E+00
         25   -1    0    0    0    0  0.00000000000E+00  0.00000000000E+00  0.99999998245E-14  0.12500000000E+03  0.12500000000E+03 0.  0.
    3000001    1    3    3    0    0 -0.34281137982E+02  0.39507682294E+02 -0.28490555381E+02  0.59571512718E+02  0.10000000000E+01 0.  1.
    1000022    2    1    0    0    0 -0.33860636243E+02  0.42052609799E+02 -0.29854398189E+02  0.62500001205E+02  0.10000019088E+02 0.  0.
    3000022    2    3    3    0    0  0.42050173951E+00  0.25449275052E+01 -0.13638428084E+01  0.29284884875E+01  0.24999979083E+00 0.  0.
    1000022    2    1    0    0    0  0.33860636243E+02 -0.42052609799E+02  0.29854398189E+02  0.62499998795E+02  0.10000004023E+02 0.  0.
    3000022    2    5    5    0    0  0.97574295085E+01 -0.17378380753E+02  0.14928618468E+02  0.24902644444E+02  0.25000547562E+00 0.  0.
        -13    1    4    4    0    0  0.12429857335E+00  0.64750631469E+00 -0.37945089383E+00  0.76793394490E+00  0.10500000000E+00 0.  1.
         13    1    4    4    0    0  0.29620316616E+00  0.18974211905E+01 -0.98439191456E+00  0.21605545426E+01  0.10500000000E+00 0. -1.
    3000001    1    5    5    0    0  0.24103206734E+02 -0.24674229046E+02  0.14925779721E+02  0.37597354351E+02  0.10000000000E+01 0. -1.
        -13    1    6    6    0    0  0.28648590681E+01 -0.50208208276E+01  0.43106227611E+01  0.72116955601E+01  0.10500000000E+00 0.  1.
         13    1    6    6    0    0  0.68925704404E+01 -0.12357559925E+02  0.10617995707E+02  0.17690948884E+02  0.10500000000E+00 0. -1.
</event>
<event>
11    0  0.3494755E-009  0.9118800E+02  0.7816531E-02  0.1126479E+00
         25   -1    0    0    0    0  0.00000000000E+00  0.00000000000E+00  0.99999998245E-14  0.12500000000E+03  0.12500000000E+03 0.  0.
    3000001    1    3    3    0    0 -0.19440998459E+02  0.63931106713E+01 -0.13136361302E+01  0.20531681008E+02  0.10000000000E+01 0. -1.
    1000022    2    1    0    0    0 -0.61003208814E+02  0.81875191715E+01  0.42217165389E+01  0.62500000697E+02  0.10000012040E+02 0.  0.
    3000022    2    3    3    0    0 -0.41562210356E+02  0.17944085002E+01  0.55353526690E+01  0.41968319689E+02  0.24999374339E+00 0.  0.
    1000022    2    1    0    0    0  0.61003208814E+02 -0.81875191715E+01 -0.42217165389E+01  0.62499999303E+02  0.10000003326E+02 0.  0.
    3000022    2    5    5    0    0  0.23821518789E+01  0.22472802473E-01  0.17952090548E+01  0.29933973329E+01  0.24999888213E+00 0.  0.
        -13    1    4    4    0    0 -0.12310738178E+02  0.50379338825E+00  0.16749263230E+01  0.12434809425E+02  0.10500000000E+00 0. -1.
         13    1    4    4    0    0 -0.29251472178E+02  0.12906151120E+01  0.38604263460E+01  0.29533510264E+02  0.10500000000E+00 0.  1.
    3000001    1    5    5    0    0  0.58621056935E+02 -0.82099919740E+01 -0.60169255937E+01  0.59506601970E+02  0.10000000000E+01 0.  1.
        -13    1    6    6    0    0  0.11927265446E+01 -0.56171008668E-01  0.88914407203E+00  0.14924322340E+01  0.10500000000E+00 0. -1.
         13    1    6    6    0    0  0.11894253343E+01  0.78643811141E-01  0.90606498278E+00  0.15009650988E+01  0.10500000000E+00 0.  1.
</event>
<event>
11    0  0.3494755E-009  0.9118800E+02  0.7816531E-02  0.1126479E+00
         25   -1    0    0    0    0  0.00000000000E+00  0.00000000000E+00  0.99999998245E-14  0.12500000000E+03  0.12500000000E+03 0.  0.
    3000001    1    3    3    0    0  0.38044812878E+02  0.25153917892E+02  0.37599408487E+01  0.45774059547E+02  0.10000000000E+01 0. -1.
    1000022    2    1    0    0    0  0.47775863216E+02  0.38614240796E+02  0.57146662788E+01  0.62500000032E+02  0.99999947500E+01 0.  0.
    3000022    2    3    3    0    0  0.97310503381E+01  0.13460322904E+02  0.19547254301E+01  0.16725940485E+02  0.25000045525E+00 0.  0.
    1000022    2    1    0    0    0 -0.47775863216E+02 -0.38614240796E+02 -0.57146662788E+01  0.62499999968E+02  0.99999943532E+01 0.  0.
    3000022    2    5    5    0    0 -0.85922200610E-01 -0.19994915090E+01  0.40270696862E+00  0.20566993068E+01  0.24998043286E+00 0.  0.
        -13    1    4    4    0    0  0.63726009421E+01  0.87351062715E+01  0.12406585665E+01  0.10884042586E+02  0.10500000000E+00 0. -1.
         13    1    4    4    0    0  0.33584493961E+01  0.47252166324E+01  0.71406686366E+00  0.58418978984E+01  0.10500000000E+00 0.  1.
    3000001    1    5    5    0    0 -0.47689941015E+02 -0.36614749287E+02 -0.61173732475E+01  0.60443300661E+02  0.10000000000E+01 0.  1.
        -13    1    6    6    0    0  0.46082221027E-02 -0.78980326804E+00  0.20961115792E+00  0.82387637145E+00  0.10500000000E+00 0.  1.
         13    1    6    6    0    0 -0.90530422712E-01 -0.12096882409E+01  0.19309581071E+00  0.12328229353E+01  0.10500000000E+00 0. -1.
</event>
<event>
11    0  0.3494755E-009  0.9118800E+02  0.7816531E-02  0.1126479E+00
         25   -1    0    0    0    0  0.00000000000E+00  0.00000000000E+00  0.99999998245E-14  0.12500000000E+03  0.12500000000E+03 0.  0.
    3000001    1    3    3    0    0 -0.51669959221E+01  0.31341376894E+01 -0.15836572779E+02  0.16979920592E+02  0.10000000000E+01 0.  1.
    1000022    2    1    0    0    0 -0.27003280421E+02  0.23058705890E+02 -0.50451648218E+02  0.62500000664E+02  0.10000010216E+02 0.  0.
    3000022    2    3    3    0    0 -0.21836284499E+02  0.19924568201E+02 -0.34615075439E+02  0.45520080073E+02  0.25000696558E+00 0.  0.
    1000022    2    1    0    0    0  0.27003280421E+02 -0.23058705890E+02  0.50451648218E+02  0.62499999336E+02  0.10000001911E+02 0.  0.
    3000022    2    5    5    0    0  0.34007812365E+01 -0.58411383205E+00  0.17140751511E+01  0.38609655409E+01  0.24999859411E+00 0.  0.
        -13    1    4    4    0    0 -0.11192869627E+02  0.10121214605E+02 -0.17669139896E+02  0.23236369020E+02  0.10500000000E+00 0. -1.
         13    1    4    4    0    0 -0.10643414873E+02  0.98033535961E+01 -0.16945935543E+02  0.22283711053E+02  0.10500000000E+00 0.  1.
    3000001    1    5    5    0    0  0.23602499185E+02 -0.22474592058E+02  0.48737573067E+02  0.58639033795E+02  0.10000000000E+01 0. -1.
        -13    1    6    6    0    0  0.17456831669E+01 -0.28420361282E+00  0.95206736903E+00  0.20113773112E+01  0.10500000000E+00 0. -1.
         13    1    6    6    0    0  0.16550980696E+01 -0.29991021923E+00  0.76200778206E+00  0.18495882297E+01  0.10500000000E+00 0.  1.
</event>
<event>
11    0  0.3494755E-009  0.9118800E+02  0.7816531E-02  0.1126479E+00
         25   -1    0    0    0    0  0.00000000000E+00  0.00000000000E+00  0.99999998245E-14  0.12500000000E+03  0.12500000000E+03 0.  0.
    3000001    1    3    3    0    0 -0.33419051476E+02 -0.44551278591E+02  0.58498052080E+01  0.56007764164E+02  0.10000000000E+01 0.  1.
    1000022    2    1    0    0    0 -0.34476812377E+02 -0.50498500702E+02  0.82158831165E+01  0.62500000800E+02  0.10000009990E+02 0.  0.
    3000022    2    3    3    0    0 -0.10577609008E+01 -0.59472221113E+01  0.23660779085E+01  0.64922366365E+01  0.25000582166E+00 0.  0.
    1000022    2    1    0    0    0  0.34476812377E+02  0.50498500702E+02 -0.82158831165E+01  0.62499999200E+02  0.99999999890E+01 0.  0.
    3000022    2    5    5    0    0  0.15807853393E+02  0.22969860609E+02  0.12186348967E+01  0.27911472416E+02  0.24999229358E+00 0.  0.
        -13    1    4    4    0    0 -0.49854443991E+00 -0.31605088374E+01  0.12798256416E+01  0.34476573703E+01  0.10500000000E+00 0.  1.
         13    1    4    4    0    0 -0.55921646090E+00 -0.27867132739E+01  0.10862522669E+01  0.30445792663E+01  0.10500000000E+00 0. -1.
    3000001    1    5    5    0    0  0.18668958984E+02  0.27528640093E+02 -0.94345180132E+01  0.34588526784E+02  0.10000000000E+01 0.  1.
        -13    1    6    6    0    0  0.68018008955E+01  0.97691282919E+01  0.52820688532E+00  0.11915972076E+02  0.10500000000E+00 0.  1.
         13    1    6    6    0    0  0.90060524977E+01  0.13200732317E+02  0.69042801139E+00  0.15995500340E+02  0.10500000000E+00 0. -1.
</event>
<event>
11    0  0.3494755E-009  0.9118800E+02  0.7816531E-02  0.1126479E+00
         25   -1    0    0    0    0  0.00000000000E+00  0.00000000000E+00  0.99999998245E-14  0.12500000000E+03  0.12500000000E+03 0.  0.
    3000001    1    3    3    0    0  0.22694747109E+02  0.10302900236E+02  0.38779014771E+02  0.46108711609E+02  0.10000000000E+01 0. -1.
    1000022    2    1    0    0    0  0.33400295407E+02  0.17659823183E+02  0.48772952719E+02  0.62500001326E+02  0.10000008034E+02 0.  0.
    3000022    2    3    3    0    0  0.10705548298E+02  0.73569229466E+01  0.99939379476E+01  0.16391289717E+02  0.25000653868E+00 0.  0.
    1000022    2    1    0    0    0 -0.33400295407E+02 -0.17659823183E+02 -0.48772952719E+02  0.62499998674E+02  0.99999914617E+01 0.  0.
    3000022    2    5    5    0    0 -0.15394144816E+02 -0.62868209059E+01 -0.14132715509E+02  0.21824297404E+02  0.24999557653E+00 0.  0.
        -13    1    4    4    0    0  0.41529343282E+01  0.27831750193E+01  0.38221353260E+01  0.62938597198E+01  0.10500000000E+00 0.  1.
         13    1    4    4    0    0  0.65526139700E+01  0.45737479273E+01  0.61718026216E+01  0.10097429997E+02  0.10500000000E+00 0. -1.
    3000001    1    5    5    0    0 -0.18006150591E+02 -0.11373002277E+02 -0.34640237210E+02  0.40675701271E+02  0.10000000000E+01 0. -1.
        -13    1    6    6    0    0 -0.45626290499E+01 -0.19073796756E+01 -0.41782571926E+01  0.64749161571E+01  0.10500000000E+00 0.  1.
         13    1    6    6    0    0 -0.10831515766E+02 -0.43794412302E+01 -0.99544583164E+01  0.15349381246E+02  0.10500000000E+00 0. -1.
</event>
<event>
11    0  0.3494755E-009  0.9118800E+02  0.7816531E-02  0.1126479E+00
         25   -1    0    0    0    0  0.00000000000E+00  0.00000000000E+00  0.99999998245E-14  0.12500000000E+03  0.12500000000E+03 0.  0.
    3000001    1    3    3    0    0  0.34948189945E+02  0.35565298597E+02  0.11196559246E+02  0.51113886407E+02  0.10000000000E+01 0.  1.
    1000022    2    1    0    0    0  0.43155616128E+02  0.40548331527E+02  0.17311167666E+02  0.62499992527E+02  0.99999073431E+01 0.  0.
    3000022    2    3    3    0    0  0.82074261825E+01  0.49830329304E+01  0.61146084200E+01  0.11386106119E+02  0.25002940325E+00 0.  0.
    1000022    2    1    0    0    0 -0.43155616128E+02 -0.40548331527E+02 -0.17311167666E+02  0.62500007473E+02  0.10000000761E+02 0.  0.
    3000022    2    5    5    0    0 -0.34594519191E+02 -0.28367980889E+02 -0.98223620542E+01  0.45804632907E+02  0.25000322565E+00 0.  0.
        -13    1    4    4    0    0  0.50717042928E+01  0.31496121261E+01  0.38101928727E+01  0.70831374197E+01  0.10500000000E+00 0. -1.
         13    1    4    4    0    0  0.31357218896E+01  0.18334208043E+01  0.23044155473E+01  0.43029686995E+01  0.10500000000E+00 0.  1.
    3000001    1    5    5    0    0 -0.85610969362E+01 -0.12180350638E+02 -0.74888056122E+01  0.16695374566E+02  0.10000000000E+01 0. -1.
        -13    1    6    6    0    0 -0.24424753047E+02 -0.20048465310E+02 -0.69798504532E+01  0.32361070131E+02  0.10500000000E+00 0.  1.
         13    1    6    6    0    0 -0.10169766144E+02 -0.83195155796E+01 -0.28425116010E+01  0.13443562776E+02  0.10500000000E+00 0. -1.
</event>
<event>
11    0  0.3494755E-009  0.9118800E+02  0.7816531E-02  0.1126479E+00
         25   -1    0    0    0    0  0.00000000000E+00  0.00000000000E+00  0.99999998245E-14  0.12500000000E+03  0.12500000000E+03 0.  0.
    3000001    1    3    3    0    0  0.11095361650E+02 -0.40273669229E+00  0.88445400997E+01  0.14230078586E+02  0.10000000000E+01 0. -1.
    1000022    2    1    0    0    0  0.41907582959E+02  0.14379290910E+02  0.42932977367E+02  0.62500000674E+02  0.10000001102E+02 0.  0.
    3000022    2    3    3    0    0  0.30812221310E+02  0.14782027602E+02  0.34088437267E+02  0.48269922088E+02  0.25000196559E+00 0.  0.
    1000022    2    1    0    0    0 -0.41907582959E+02 -0.14379290910E+02 -0.42932977367E+02  0.62499999326E+02  0.99999926830E+01 0.  0.
    3000022    2    5    5    0    0 -0.29461293983E+02 -0.62705552492E+01 -0.24655611373E+02  0.38926204321E+02  0.25000872291E+00 0.  0.
        -13    1    4    4    0    0  0.20915531598E+02  0.10090536757E+02  0.23163126663E+02  0.32799692924E+02  0.10500000000E+00 0. -1.
         13    1    4    4    0    0  0.98966897114E+01  0.46914908446E+01  0.10925310604E+02  0.15470229164E+02  0.10500000000E+00 0.  1.
    3000001    1    5    5    0    0 -0.12446288976E+02 -0.81087356605E+01 -0.18277365994E+02  0.23573795006E+02  0.10000000000E+01 0. -1.
        -13    1    6    6    0    0 -0.11629254069E+02 -0.24741160132E+01 -0.96515275596E+01  0.15314170219E+02  0.10500000000E+00 0. -1.
         13    1    6    6    0    0 -0.17832039913E+02 -0.37964392360E+01 -0.15004083813E+02  0.23612034102E+02  0.10500000000E+00 0.  1.
</event>
<event>
11    0  0.3494755E-009  0.9118800E+02  0.7816531E-02  0.1126479E+00
         25   -1    0    0    0    0  0.00000000000E+00  0.00000000000E+00  0.99999998245E-14  0.12500000000E+03  0.12500000000E+03 0.  0.
    3000001    1    3    3    0    0  0.34445926947E+02 -0.11609939269E+02  0.11776035885E+00  0.36363806739E+02  0.10000000000E+01 0.  1.
    1000022    2    1    0    0    0  0.58220541536E+02 -0.18588895187E+02  0.84303941967E+01  0.62499997650E+02  0.99999839423E+01 0.  0.
    3000022    2    3    3    0    0  0.23774614589E+02 -0.69789559177E+01  0.83126338378E+01  0.26136190910E+02  0.24993881042E+00 0.  0.
    1000022    2    1    0    0    0 -0.58220541536E+02  0.18588895187E+02 -0.84303941967E+01  0.62500002350E+02  0.10000013323E+02 0.  0.
    3000022    2    5    5    0    0 -0.23188649606E+02  0.12188871143E+02 -0.17777010812E+01  0.26258422837E+02  0.24999688852E+00 0.  0.
        -13    1    4    4    0    0  0.82456392469E+01 -0.23946294879E+01  0.29335212095E+01  0.90742155948E+01  0.10500000000E+00 0. -1.
         13    1    4    4    0    0  0.15528975342E+02 -0.45843264298E+01  0.53791126284E+01  0.17061975315E+02  0.10500000000E+00 0.  1.
    3000001    1    5    5    0    0 -0.35031891930E+02  0.64000240437E+01 -0.66526931155E+01  0.36241579514E+02  0.10000000000E+01 0.  1.
        -13    1    6    6    0    0 -0.11804572467E+02  0.62805533586E+01 -0.91807291387E+00  0.13403252012E+02  0.10500000000E+00 0.  1.
         13    1    6    6    0    0 -0.11384077139E+02  0.59083177844E+01 -0.85962816729E+00  0.12855170825E+02  0.10500000000E+00 0. -1.
</event>
<event>
11    0  0.3494755E-009  0.9118800E+02  0.7816531E-02  0.1126479E+00
         25   -1    0    0    0    0  0.00000000000E+00  0.00000000000E+00  0.99999998245E-14  0.12500000000E+03  0.12500000000E+03 0.  0.
    3000001    1    3    3    0    0 -0.37615979424E+02 -0.10122055106E+02 -0.47701757270E+02  0.61594444183E+02  0.10000000000E+01 0. -1.
    1000022    2    1    0    0    0 -0.37449228176E+02 -0.93789967515E+01 -0.48123173037E+02  0.62500000281E+02  0.99999990485E+01 0.  0.
    3000022    2    3    3    0    0  0.16675124789E+00  0.74305835457E+00 -0.42141576696E+00  0.90555609808E+00  0.24999780232E+00 0.  0.
    1000022    2    1    0    0    0  0.37449228176E+02  0.93789967515E+01  0.48123173037E+02  0.62499999719E+02  0.99999955332E+01 0.  0.
    3000022    2    5    5    0    0  0.13781832441E+02  0.91135088622E+00  0.23735452961E+02  0.27462768979E+02  0.24997377139E+00 0.  0.
        -13    1    4    4    0    0  0.12007336019E+00  0.58299767863E+00 -0.31289370332E+00  0.68061103039E+00  0.10500000000E+00 0.  1.
         13    1    4    4    0    0  0.46677887702E-01  0.16006067594E+00 -0.10852206363E+00  0.22494506769E+00  0.10500000000E+00 0. -1.
    3000001    1    5    5    0    0  0.23667395735E+02  0.84676458653E+01  0.24387720076E+02  0.35037230740E+02  0.10000000000E+01 0. -1.
        -13    1    6    6    0    0  0.54588309095E+01  0.36150983648E+00  0.95267184148E+01  0.10986305704E+02  0.10500000000E+00 0.  1.
         13    1    6    6    0    0  0.83230015310E+01  0.54984104974E+00  0.14208734546E+02  0.16476463275E+02  0.10500000000E+00 0. -1.
</event>
<event>
11    0  0.3494755E-009  0.9118800E+02  0.7816531E-02  0.1126479E+00
         25   -1    0    0    0    0  0.00000000000E+00  0.00000000000E+00  0.99999998245E-14  0.12500000000E+03  0.12500000000E+03 0.  0.
    3000001    1    3    3    0    0 -0.29057770265E+02 -0.15687741350E+02  0.29696321806E+02  0.44422187815E+02  0.10000000000E+01 0. -1.
    1000022    2    1    0    0    0 -0.36791753035E+02 -0.26894624635E+02  0.41584801551E+02  0.62499996705E+02  0.99999971260E+01 0.  0.
    3000022    2    3    3    0    0 -0.77339827693E+01 -0.11206883285E+02  0.11888479745E+02  0.18077808890E+02  0.25000239360E+00 0.  0.
    1000022    2    1    0    0    0  0.36791753035E+02  0.26894624635E+02 -0.41584801551E+02  0.62500003295E+02  0.10000038312E+02 0.  0.
    3000022    2    5    5    0    0  0.33990805507E+02  0.23607403741E+02 -0.40566481081E+02  0.57951585456E+02  0.24999831173E+00 0.  0.
        -13    1    4    4    0    0 -0.50255297029E+01 -0.73750031477E+01  0.77676559255E+01  0.11831911249E+02  0.10500000000E+00 0. -1.
         13    1    4    4    0    0 -0.27084530664E+01 -0.38318801370E+01  0.41208238191E+01  0.62458976413E+01  0.10500000000E+00 0. -1.
    3000001    1    5    5    0    0  0.28009475277E+01  0.32872208940E+01 -0.10183204695E+01  0.45484178389E+01  0.10000000000E+01 0. -1.
        -13    1    6    6    0    0  0.24201606536E+02  0.16804399833E+02 -0.28939954983E+02  0.41299366001E+02  0.10500000000E+00 0.  1.
         13    1    6    6    0    0  0.97891989714E+01  0.68030039079E+01 -0.11626526098E+02  0.16652219455E+02  0.10500000000E+00 0. -1.
</event>
<event>
11    0  0.3494755E-009  0.9118800E+02  0.7816531E-02  0.1126479E+00
         25   -1    0    0    0    0  0.00000000000E+00  0.00000000000E+00  0.99999998245E-14  0.12500000000E+03  0.12500000000E+03 0.  0.
    3000001    1    3    3    0    0  0.25575921103E+01  0.16630529597E+01  0.35208945172E+01  0.47648421538E+01  0.10000000000E+01 0. -1.
    1000022    2    1    0    0    0  0.32257687979E+02 -0.10137412532E+02  0.51603529917E+02  0.62500004834E+02  0.10000036882E+02 0.  0.
    3000022    2    3    3    0    0  0.29700095869E+02 -0.11800465492E+02  0.48082635400E+02  0.57735162680E+02  0.25000436880E+00 0.  0.
    1000022    2    1    0    0    0 -0.32257687979E+02  0.10137412532E+02 -0.51603529917E+02  0.62499995166E+02  0.99999764620E+01 0.  0.
    3000022    2    5    5    0    0 -0.98356144354E+01  0.21134914269E+01 -0.24031663624E+02  0.26053589269E+02  0.24999989101E+00 0.  0.
        -13    1    4    4    0    0  0.22369377366E+02 -0.88661985404E+01  0.36176428630E+02  0.43448170661E+02  0.10500000000E+00 0. -1.
         13    1    4    4    0    0  0.73307185027E+01 -0.29342669512E+01  0.11906206770E+02  0.14286992019E+02  0.10500000000E+00 0.  1.
    3000001    1    5    5    0    0 -0.22422073544E+02  0.80239211051E+01 -0.27571866294E+02  0.36446405897E+02  0.10000000000E+01 0.  1.
        -13    1    6    6    0    0 -0.48482212583E+01  0.97264576054E+00 -0.11824217298E+02  0.12816958643E+02  0.10500000000E+00 0.  1.
         13    1    6    6    0    0 -0.49873931770E+01  0.11408456663E+01 -0.12207446326E+02  0.13236630627E+02  0.10500000000E+00 0. -1.
</event>
<event>
11    0  0.3494755E-009  0.9118800E+02  0.7816531E-02  0.1126479E+00
         25   -1    0    0    0    0  0.00000000000E+00  0.00000000000E+00  0.99999998245E-14  0.12500000000E+03  0.12500000000E+03 0.  0.
    3000001    1    3    3    0    0  0.14781069020E+01 -0.19800785499E+02 -0.86301845004E+01  0.21673393617E+02  0.10000000000E+01 0. -1.
    1000022    2    1    0    0    0 -0.66973248408E+01 -0.58876482554E+02 -0.17174275024E+02  0.62499999753E+02  0.99999944319E+01 0.  0.
    3000022    2    3    3    0    0 -0.81754317428E+01 -0.39075697055E+02 -0.85440905239E+01  0.40826606136E+02  0.25000238537E+00 0.  0.
    1000022    2    1    0    0    0  0.66973248408E+01  0.58876482554E+02  0.17174275024E+02  0.62500000247E+02  0.99999975171E+01 0.  0.
    3000022    2    5    5    0    0  0.22692530853E+01  0.47864191255E+02  0.11366454102E+02  0.49248239497E+02  0.25000119169E+00 0.  0.
        -13    1    4    4    0    0 -0.31628880720E+01 -0.14846207168E+02 -0.32741291362E+01  0.15528833660E+02  0.10500000000E+00 0.  1.
         13    1    4    4    0    0 -0.50125436708E+01 -0.24229489886E+02 -0.52699613877E+01  0.25297772476E+02  0.10500000000E+00 0. -1.
    3000001    1    5    5    0    0  0.44280717555E+01  0.11012291298E+02  0.58078209225E+01  0.13251760750E+02  0.10000000000E+01 0.  1.
        -13    1    6    6    0    0  0.14065330005E+01  0.28661216743E+02  0.68493882572E+01  0.29502013911E+02  0.10500000000E+00 0.  1.
         13    1    6    6    0    0  0.86272008477E+00  0.19202974512E+02  0.45170658446E+01  0.19746225586E+02  0.10500000000E+00 0. -1.
</event>
<event>
11    0  0.3494755E-009  0.9118800E+02  0.7816531E-02  0.1126479E+00
         25   -1    0    0    0    0  0.00000000000E+00  0.00000000000E+00  0.99999998245E-14  0.12500000000E+03  0.12500000000E+03 0.  0.
    3000001    1    3    3    0    0  0.19057834994E+02  0.23130512264E+02 -0.17015548781E+02  0.34478262319E+02  0.10000000000E+01 0. -1.
    1000022    2    1    0    0    0  0.31843065595E+02  0.47050975392E+02 -0.24051509965E+02  0.62500002609E+02  0.10000004137E+02 0.  0.
    3000022    2    3    3    0    0  0.12785230601E+02  0.23920463129E+02 -0.70359611834E+01  0.28021740290E+02  0.25000260642E+00 0.  0.
    1000022    2    1    0    0    0 -0.31843065595E+02 -0.47050975392E+02  0.24051509965E+02  0.62499997391E+02  0.99999715189E+01 0.  0.
    3000022    2    5    5    0    0 -0.11533468269E+02 -0.23619076591E+02  0.14595924448E+02  0.30066346310E+02  0.25000120770E+00 0.  0.
        -13    1    4    4    0    0  0.78944436526E+01  0.14852383085E+02 -0.44116023141E+01  0.17389329598E+02  0.10500000000E+00 0. -1.
         13    1    4    4    0    0  0.48907869486E+01  0.90680800435E+01 -0.26243588694E+01  0.10632410692E+02  0.10500000000E+00 0.  1.
    3000001    1    5    5    0    0 -0.20309597325E+02 -0.23431898801E+02  0.94555855173E+01  0.32433651081E+02  0.10000000000E+01 0.  1.
        -13    1    6    6    0    0 -0.59581453115E+01 -0.12116990712E+02  0.74331678137E+01  0.15413759056E+02  0.10500000000E+00 0. -1.
         13    1    6    6    0    0 -0.55753229579E+01 -0.11502085879E+02  0.71627566338E+01  0.14652587254E+02  0.10500000000E+00 0.  1.
</event>
<event>
11    0  0.3494755E-009  0.9118800E+02  0.7816531E-02  0.1126479E+00
         25   -1    0    0    0    0  0.00000000000E+00  0.00000000000E+00  0.99999998245E-14  0.12500000000E+03  0.12500000000E+03 0.  0.
    3000001    1    3    3    0    0  0.45448272569E+01 -0.12917665472E+02 -0.58503743560E+01  0.14924758496E+02  0.10000000000E+01 0.  1.
    1000022    2    1    0    0    0  0.23170946373E+02 -0.43172962740E+02 -0.37489364790E+02  0.62499999313E+02  0.99999987060E+01 0.  0.
    3000022    2    3    3    0    0  0.18626119116E+02 -0.30255297268E+02 -0.31638990434E+02  0.47575240817E+02  0.24999399181E+00 0.  0.
    1000022    2    1    0    0    0 -0.23170946373E+02  0.43172962740E+02  0.37489364790E+02  0.62500000687E+02  0.10000007295E+02 0.  0.
    3000022    2    5    5    0    0 -0.17414727276E+02  0.26794208964E+02  0.28978022914E+02  0.43139200752E+02  0.24993895059E+00 0.  0.
        -13    1    4    4    0    0  0.60149457477E+01 -0.97214445707E+01 -0.10239604927E+02  0.15347527193E+02  0.10500000000E+00 0.  1.
         13    1    4    4    0    0  0.12611173368E+02 -0.20533852697E+02 -0.21399385508E+02  0.32227713624E+02  0.10500000000E+00 0. -1.
    3000001    1    5    5    0    0 -0.57562190970E+01  0.16378753777E+02  0.85113418766E+01  0.19360799935E+02  0.10000000000E+01 0. -1.
        -13    1    6    6    0    0 -0.67981700375E+01  0.10413552274E+02  0.11200989834E+02  0.16737096076E+02  0.10500000000E+00 0. -1.
         13    1    6    6    0    0 -0.10616557238E+02  0.16380656690E+02  0.17777033080E+02  0.26402104676E+02  0.10500000000E+00 0.  1.
</event>
<event>
11    0  0.3494755E-009  0.9118800E+02  0.7816531E-02  0.1126479E+00
         25   -1    0    0    0    0  0.00000000000E+00  0.00000000000E+00  0.99999998245E-14  0.12500000000E+03  0.12500000000E+03 0.  0.
    3000001    1    3    3    0    0 -0.22749800015E+02  0.32681656155E+02 -0.31091554003E+02  0.50530473777E+02  0.10000000000E+01 0.  1.
    1000022    2    1    0    0    0 -0.23784846611E+02  0.42445043512E+02 -0.37933484944E+02  0.62500000693E+02  0.10000007977E+02 0.  0.
    3000022    2    3    3    0    0 -0.10350465957E+01  0.97633873570E+01 -0.68419309408E+01  0.11969526916E+02  0.25000290541E+00 0.  0.
    1000022    2    1    0    0    0  0.23784846611E+02 -0.42445043512E+02  0.37933484944E+02  0.62499999307E+02  0.99999993176E+01 0.  0.
    3000022    2    5    5    0    0  0.24131741890E+02 -0.37803141742E+02  0.33338481949E+02  0.55883229634E+02  0.24996698068E+00 0.  0.
        -13    1    4    4    0    0 -0.66799911258E+00  0.61861314667E+01 -0.44057796756E+01  0.76247206433E+01  0.10500000000E+00 0.  1.
         13    1    4    4    0    0 -0.36704748307E+00  0.35772558903E+01 -0.24361512652E+01  0.43448062726E+01  0.10500000000E+00 0. -1.
    3000001    1    5    5    0    0 -0.34689527918E+00 -0.46419017700E+01  0.45950029954E+01  0.66167696730E+01  0.10000000000E+01 0.  1.
        -13    1    6    6    0    0  0.65454417103E+01 -0.10206255306E+02  0.90449822292E+01  0.15127233160E+02  0.10500000000E+00 0. -1.
         13    1    6    6    0    0  0.17586300180E+02 -0.27596886436E+02  0.24293499720E+02  0.40755996474E+02  0.10500000000E+00 0.  1.
</event>
<event>
11    0  0.3494755E-009  0.9118800E+02  0.7816531E-02  0.1126479E+00
         25   -1    0    0    0    0  0.00000000000E+00  0.00000000000E+00  0.99999998245E-14  0.12500000000E+03  0.12500000000E+03 0.  0.
    3000001    1    3    3    0    0 -0.74279470461E+00  0.17671052066E+01 -0.12882366613E+01  0.25167356794E+01  0.10000000000E+01 0.  1.
    1000022    2    1    0    0    0  0.23511299683E+02  0.48758789166E+02 -0.29598129129E+02  0.62499999696E+02  0.99999990178E+01 0.  0.
    3000022    2    3    3    0    0  0.24254094388E+02  0.46991683959E+02 -0.28309892467E+02  0.59983264017E+02  0.24998932013E+00 0.  0.
    1000022    2    1    0    0    0 -0.23511299683E+02 -0.48758789166E+02  0.29598129129E+02  0.62500000304E+02  0.10000002819E+02 0.  0.
    3000022    2    5    5    0    0  0.96930216203E+00 -0.18867467649E+01  0.81765189417E+00  0.22870108800E+01  0.25000821791E+00 0.  0.
        -13    1    4    4    0    0  0.11533673406E+02  0.22365742051E+02 -0.13395725260E+02  0.28508043076E+02  0.10500000000E+00 0. -1.
         13    1    4    4    0    0  0.12720420981E+02  0.24625941908E+02 -0.14914167207E+02  0.31475220941E+02  0.10500000000E+00 0.  1.
    3000001    1    5    5    0    0 -0.24480601845E+02 -0.46872042401E+02  0.28780477235E+02  0.60212989424E+02  0.10000000000E+01 0.  1.
        -13    1    6    6    0    0  0.40814674737E+00 -0.67229066932E+00  0.32632509648E+00  0.85794614052E+00  0.10500000000E+00 0.  1.
         13    1    6    6    0    0  0.56115541466E+00 -0.12144560955E+01  0.49132679769E+00  0.14290647394E+01  0.10500000000E+00 0. -1.
</event>
<event>
11    0  0.3494755E-009  0.9118800E+02  0.7816531E-02  0.1126479E+00
         25   -1    0    0    0    0  0.00000000000E+00  0.00000000000E+00  0.99999998245E-14  0.12500000000E+03  0.12500000000E+03 0.  0.
    3000001    1    3    3    0    0  0.27437215282E+02 -0.80626459806E+01 -0.32414754486E+02  0.43237985048E+02  0.10000000000E+01 0.  1.
    1000022    2    1    0    0    0  0.33911137108E+02 -0.12040454054E+02 -0.50113010133E+02  0.62500003955E+02  0.99999477999E+01 0.  0.
    3000022    2    3    3    0    0  0.64739218255E+01 -0.39778080732E+01 -0.17698255647E+02  0.19262018906E+02  0.24999707322E+00 0.  0.
    1000022    2    1    0    0    0 -0.33911137108E+02  0.12040454054E+02  0.50113010133E+02  0.62499996045E+02  0.99998983681E+01 0.  0.
    3000022    2    5    5    0    0 -0.16745509122E+02  0.46027325275E+01  0.32169938616E+02  0.36559057336E+02  0.25000062011E+00 0.  0.
        -13    1    4    4    0    0  0.37175473945E+01 -0.22134536425E+01 -0.10140774082E+02  0.11025690892E+02  0.10500000000E+00 0.  1.
         13    1    4    4    0    0  0.27563744310E+01 -0.17643544307E+01 -0.75574815651E+01  0.82363280148E+01  0.10500000000E+00 0. -1.
    3000001    1    5    5    0    0 -0.17165627986E+02  0.74377215263E+01  0.17943071517E+02  0.25940938709E+02  0.10000000000E+01 0. -1.
        -13    1    6    6    0    0 -0.12870254460E+02  0.35274643528E+01  0.24721965068E+02  0.28094003567E+02  0.10500000000E+00 0.  1.
         13    1    6    6    0    0 -0.38752546621E+01  0.10752681747E+01  0.74479735477E+01  0.84650537690E+01  0.10500000000E+00 0. -1.
</event>
<event>
11    0  0.3494755E-009  0.9118800E+02  0.7816531E-02  0.1126479E+00
         25   -1    0    0    0    0  0.00000000000E+00  0.00000000000E+00  0.99999998245E-14  0.12500000000E+03  0.12500000000E+03 0.  0.
    3000001    1    3    3    0    0 -0.36884541334E+02 -0.14939431357E+02  0.31273522756E+02  0.50623010818E+02  0.10000000000E+01 0.  1.
    1000022    2    1    0    0    0 -0.41674728207E+02 -0.20472697823E+02  0.40624322386E+02  0.62500000311E+02  0.10000007116E+02 0.  0.
    3000022    2    3    3    0    0 -0.47901868726E+01 -0.55332664668E+01  0.93507996292E+01  0.11876989493E+02  0.24999529082E+00 0.  0.
    1000022    2    1    0    0    0  0.41674728207E+02  0.20472697823E+02 -0.40624322386E+02  0.62499999689E+02  0.10000003228E+02 0.  0.
    3000022    2    5    5    0    0  0.67054379377E-01  0.12885562424E+01 -0.27453848238E+01  0.30437660349E+01  0.25000072976E+00 0.  0.
        -13    1    4    4    0    0 -0.34939167285E+01 -0.39824494643E+01  0.67408399411E+01  0.85742233440E+01  0.10500000000E+00 0.  1.
         13    1    4    4    0    0 -0.12962701441E+01 -0.15508170025E+01  0.26099596881E+01  0.33027661491E+01  0.10500000000E+00 0. -1.
    3000001    1    5    5    0    0  0.41607673827E+02  0.19184141581E+02 -0.37878937562E+02  0.59456233654E+02  0.10000000000E+01 0.  1.
        -13    1    6    6    0    0 -0.21375840675E-01  0.75049384887E+00 -0.16397851381E+01  0.18065487103E+01  0.10500000000E+00 0. -1.
         13    1    6    6    0    0  0.88430220052E-01  0.53806239354E+00 -0.11055996857E+01  0.12372173246E+01  0.10500000000E+00 0.  1.
</event>
<event>
11    0  0.3494755E-009  0.9118800E+02  0.7816531E-02  0.1126479E+00
         25   -1    0    0    0    0  0.00000000000E+00  0.00000000000E+00  0.99999998245E-14  0.12500000000E+03  0.12500000000E+03 0.  0.
    3000001    1    3    3    0    0 -0.18024124824E+02  0.47278023857E+01 -0.17040288446E+01  0.18738327177E+02  0.10000000000E+01 0.  1.
    1000022    2    1    0    0    0 -0.61536132441E+02  0.34419239484E+01  0.27762777195E+01  0.62499999157E+02  0.99999870219E+01 0.  0.
    3000022    2    3    3    0    0 -0.43512007616E+02 -0.12858784373E+01  0.44803065641E+01  0.43761671980E+02  0.24999488129E+00 0.  0.
    1000022    2    1    0    0    0  0.61536132441E+02 -0.34419239484E+01 -0.27762777195E+01  0.62500000843E+02  0.99999975568E+01 0.  0.
    3000022    2    5    5    0    0  0.23076606848E+02  0.35031323188E+01 -0.12559973483E+01  0.23376092963E+02  0.24994642897E+00 0.  0.
        -13    1    4    4    0    0 -0.12917215339E+02 -0.39503667804E+00  0.13732873682E+01  0.12996439870E+02  0.10500000000E+00 0. -1.
         13    1    4    4    0    0 -0.30594792277E+02 -0.89084175929E+00  0.31070191959E+01  0.30765232110E+02  0.10500000000E+00 0.  1.
    3000001    1    5    5    0    0  0.38459525593E+02 -0.69450562672E+01 -0.15202803711E+01  0.39123907880E+02  0.10000000000E+01 0. -1.
        -13    1    6    6    0    0  0.67581050196E+01  0.10637273290E+01 -0.39102674481E+00  0.68532785002E+01  0.10500000000E+00 0.  1.
         13    1    6    6    0    0  0.16318501829E+02  0.24394049897E+01 -0.86497060353E+00  0.16522814463E+02  0.10500000000E+00 0. -1.
</event>
<event>
11    0  0.3494755E-009  0.9118800E+02  0.7816531E-02  0.1126479E+00
         25   -1    0    0    0    0  0.00000000000E+00  0.00000000000E+00  0.99999998245E-14  0.12500000000E+03  0.12500000000E+03 0.  0.
    3000001    1    3    3    0    0 -0.10006227776E+02  0.42582428071E+01  0.10914976265E+01  0.10974907433E+02  0.10000000000E+01 0. -1.
    1000022    2    1    0    0    0 -0.49645673382E+02  0.35182383955E+02 -0.10186113240E+02  0.62500000000E+02  0.10000003538E+02 0.  0.
    3000022    2    3    3    0    0 -0.39639445607E+02  0.30924141147E+02 -0.11277610866E+02  0.51525092567E+02  0.25000688977E+00 0.  0.
    1000022    2    1    0    0    0  0.49645673382E+02 -0.35182383955E+02  0.10186113240E+02  0.62500000000E+02  0.10000003539E+02 0.  0.
    3000022    2    5    5    0    0  0.30378418842E+02 -0.27039673762E+02  0.79502380833E+01  0.41439848897E+02  0.25000495821E+00 0.  0.
        -13    1    4    4    0    0 -0.22054552386E+02  0.17276488521E+02 -0.63208758907E+01  0.28720112005E+02  0.10500000000E+00 0.  1.
         13    1    4    4    0    0 -0.17584893221E+02  0.13647652627E+02 -0.49567349754E+01  0.22804980562E+02  0.10500000000E+00 0. -1.
    3000001    1    5    5    0    0  0.19267254540E+02 -0.81427101923E+01  0.22358751563E+01  0.21060151103E+02  0.10000000000E+01 0.  1.
        -13    1    6    6    0    0  0.13900045893E+02 -0.12284615160E+02  0.36124991461E+01  0.18899317991E+02  0.10500000000E+00 0.  1.
         13    1    6    6    0    0  0.16478372950E+02 -0.14755058602E+02  0.43377389372E+01  0.22540530905E+02  0.10500000000E+00 0. -1.
</event>
<event>
11    0  0.3494755E-009  0.9118800E+02  0.7816531E-02  0.1126479E+00
         25   -1    0    0    0    0  0.00000000000E+00  0.00000000000E+00  0.99999998245E-14  0.12500000000E+03  0.12500000000E+03 0.  0.
    3000001    1    3    3    0    0  0.32892300223E+01 -0.63455388484E+01 -0.47704341560E+02  0.48247166767E+02  0.10000000000E+01 0.  1.
    1000022    2    1    0    0    0  0.21586065032E+01 -0.12949060407E+02 -0.60281939124E+02  0.62500000459E+02  0.10000006270E+02 0.  0.
    3000022    2    3    3    0    0 -0.11306235190E+01 -0.66035215587E+01 -0.12577597564E+02  0.14252833692E+02  0.25000249641E+00 0.  0.
    1000022    2    1    0    0    0 -0.21586065032E+01  0.12949060407E+02  0.60281939124E+02  0.62499999541E+02  0.10000000529E+02 0.  0.
    3000022    2    5    5    0    0  0.73591276202E+00  0.86919969965E+01  0.19267104292E+02  0.21151269125E+02  0.24999687475E+00 0.  0.
        -13    1    4    4    0    0 -0.33702544326E+00 -0.22903001539E+01 -0.43207383560E+01  0.49029446137E+01  0.10500000000E+00 0. -1.
         13    1    4    4    0    0 -0.79359807575E+00 -0.43132214048E+01 -0.82568592085E+01  0.93498890786E+01  0.10500000000E+00 0.  1.
    3000001    1    5    5    0    0 -0.28945192653E+01  0.42570634106E+01  0.41014834832E+02  0.41348730416E+02  0.10000000000E+01 0. -1.
        -13    1    6    6    0    0  0.19063280012E+00  0.26758401288E+01  0.58509240194E+01  0.64374527680E+01  0.10500000000E+00 0. -1.
         13    1    6    6    0    0  0.54527996191E+00  0.60161568677E+01  0.13416180272E+02  0.14713816357E+02  0.10500000000E+00 0.  1.
</event>
<event>
11    0  0.3494755E-009  0.9118800E+02  0.7816531E-02  0.1126479E+00
         25   -1    0    0    0    0  0.00000000000E+00  0.00000000000E+00  0.99999998245E-14  0.12500000000E+03  0.12500000000E+03 0.  0.
    3000001    1    3    3    0    0  0.13144685955E+02  0.11542052859E+02  0.15013203313E+02  0.23073751900E+02  0.10000000000E+01 0. -1.
    1000022    2    1    0    0    0  0.35853241540E+02  0.39610791992E+02  0.30850937560E+02  0.62499998721E+02  0.99999860290E+01 0.  0.
    3000022    2    3    3    0    0  0.22708555584E+02  0.28068739134E+02  0.15837734248E+02  0.39426246820E+02  0.24999791111E+00 0.  0.
    1000022    2    1    0    0    0 -0.35853241540E+02 -0.39610791992E+02 -0.30850937560E+02  0.62500001279E+02  0.10000002021E+02 0.  0.
    3000022    2    5    5    0    0 -0.76906431225E+01 -0.59107404942E+01 -0.97860411356E+01  0.13780854305E+02  0.24999885387E+00 0.  0.
        -13    1    4    4    0    0  0.73514734056E+01  0.90609669557E+01  0.51718263841E+01  0.12763388913E+02  0.10500000000E+00 0.  1.
         13    1    4    4    0    0  0.15357082179E+02  0.19007772178E+02  0.10665907864E+02  0.26662857907E+02  0.10500000000E+00 0. -1.
    3000001    1    5    5    0    0 -0.28162598417E+02 -0.33700051498E+02 -0.21064896425E+02  0.48719146975E+02  0.10000000000E+01 0. -1.
        -13    1    6    6    0    0 -0.29266311180E+01 -0.22700495156E+01 -0.36540372499E+01  0.52039703812E+01  0.10500000000E+00 0. -1.
         13    1    6    6    0    0 -0.47640120045E+01 -0.36406909786E+01 -0.61320038857E+01  0.85768839234E+01  0.10500000000E+00 0.  1.
</event>
<event>
11    0  0.3494755E-009  0.9118800E+02  0.7816531E-02  0.1126479E+00
         25   -1    0    0    0    0  0.00000000000E+00  0.00000000000E+00  0.99999998245E-14  0.12500000000E+03  0.12500000000E+03 0.  0.
    3000001    1    3    3    0    0  0.85758061817E+00 -0.40356215779E+02  0.17846053180E+02  0.44145681676E+02  0.10000000000E+01 0. -1.
    1000022    2    1    0    0    0 -0.47839004175E+01 -0.57026988735E+02  0.23049662232E+02  0.62500000798E+02  0.10000001165E+02 0.  0.
    3000022    2    3    3    0    0 -0.56414810357E+01 -0.16670772956E+02  0.52036090515E+01  0.18354319122E+02  0.25000805618E+00 0.  0.
    1000022    2    1    0    0    0  0.47839004175E+01  0.57026988735E+02 -0.23049662232E+02  0.62499999202E+02  0.99999911925E+01 0.  0.
    3000022    2    5    5    0    0  0.24997839726E+01  0.51139083440E+01 -0.13370882041E+00  0.56992419502E+01  0.25000459435E+00 0.  0.
        -13    1    4    4    0    0 -0.25321276893E+01 -0.76421359732E+01  0.24254343215E+01  0.84087852580E+01  0.10500000000E+00 0. -1.
         13    1    4    4    0    0 -0.31093533464E+01 -0.90286369828E+01  0.27781747300E+01  0.99455338635E+01  0.10500000000E+00 0.  1.
    3000001    1    5    5    0    0  0.22841164449E+01  0.51913080391E+02 -0.22915953411E+02  0.56800757252E+02  0.10000000000E+01 0. -1.
        -13    1    6    6    0    0  0.17773274570E+01  0.35290368899E+01 -0.86019109062E-01  0.39536588809E+01  0.10500000000E+00 0. -1.
         13    1    6    6    0    0  0.72245651560E+00  0.15848714542E+01 -0.47689711345E-01  0.17455830693E+01  0.10500000000E+00 0.  1.
</event>
<event>
11    0  0.3494755E-009  0.9118800E+02  0.7816531E-02  0.1126479E+00
         25   -1    0    0    0    0  0.00000000000E+00  0.00000000000E+00  0.99999998245E-14  0.12500000000E+03  0.12500000000E+03 0.  0.
    3000001    1    3    3    0    0 -0.11635342078E+02  0.43678884610E+02 -0.10455352085E+02  0.46406255325E+02  0.10000000000E+01 0.  1.
    1000022    2    1    0    0    0 -0.11535750155E+02  0.59765580680E+02 -0.10062400928E+02  0.62500001373E+02  0.10000004674E+02 0.  0.
    3000022    2    3    3    0    0  0.99591923170E-01  0.16086696070E+02  0.39295115740E+00  0.16093746048E+02  0.25008445861E+00 0.  0.
    1000022    2    1    0    0    0  0.11535750155E+02 -0.59765580680E+02  0.10062400928E+02  0.62499998627E+02  0.99999875155E+01 0.  0.
    3000022    2    5    5    0    0  0.83270635952E+01 -0.56010764102E+02  0.96567970571E+01  0.57444424331E+02  0.24994763189E+00 0.  0.
        -13    1    4    4    0    0  0.80374027787E-01  0.94404985959E+01  0.29109824807E+00  0.94459111214E+01  0.10500000000E+00 0. -1.
         13    1    4    4    0    0  0.19217895384E-01  0.66461974743E+01  0.10185290934E+00  0.66478349265E+01  0.10500000000E+00 0.  1.
    3000001    1    5    5    0    0  0.32086865594E+01 -0.37548165777E+01  0.40560387092E+00  0.50555742966E+01  0.10000000000E+01 0. -1.
        -13    1    6    6    0    0  0.59260641533E+01 -0.39859257500E+02  0.68291049224E+01  0.40872072909E+02  0.10500000000E+00 0.  1.
         13    1    6    6    0    0  0.24009994419E+01 -0.16151506602E+02  0.28276921347E+01  0.16572351422E+02  0.10500000000E+00 0. -1.
</event>
<event>
11    0  0.3494755E-009  0.9118800E+02  0.7816531E-02  0.1126479E+00
         25   -1    0    0    0    0  0.00000000000E+00  0.00000000000E+00  0.99999998245E-14  0.12500000000E+03  0.12500000000E+03 0.  0.
    3000001    1    3    3    0    0  0.46239735189E+02 -0.32909549742E+01 -0.14420656510E+02  0.48558200432E+02  0.10000000000E+01 0.  1.
    1000022    2    1    0    0    0  0.57953393204E+02  0.13210849402E+00 -0.21157431573E+02  0.62500000373E+02  0.99999949653E+01 0.  0.
    3000022    2    3    3    0    0  0.11713658016E+02  0.34230634682E+01 -0.67367750631E+01  0.13941799941E+02  0.24999948662E+00 0.  0.
    1000022    2    1    0    0    0 -0.57953393204E+02 -0.13210849402E+00  0.21157431573E+02  0.62499999627E+02  0.99999903024E+01 0.  0.
    3000022    2    5    5    0    0 -0.57887247617E+01  0.21325656398E+01  0.46515870083E+01  0.77302608339E+01  0.25000057861E+00 0.  0.
        -13    1    4    4    0    0  0.34619594215E+01  0.97985024164E+00 -0.19499299782E+01  0.40937173146E+01  0.10500000000E+00 0.  1.
         13    1    4    4    0    0  0.82516985941E+01  0.24432132266E+01 -0.47868450850E+01  0.98480826269E+01  0.10500000000E+00 0. -1.
    3000001    1    5    5    0    0 -0.52164668443E+02 -0.22646741338E+01  0.16505844564E+02  0.54769738793E+02  0.10000000000E+01 0.  1.
        -13    1    6    6    0    0 -0.14893532227E+01  0.57795165327E+00  0.12247881871E+01  0.20157708795E+01  0.10500000000E+00 0.  1.
         13    1    6    6    0    0 -0.42993715389E+01  0.15546139865E+01  0.34267988213E+01  0.57144899544E+01  0.10500000000E+00 0. -1.
</event>
<event>
11    0  0.3494755E-009  0.9118800E+02  0.7816531E-02  0.1126479E+00
         25   -1    0    0    0    0  0.00000000000E+00  0.00000000000E+00  0.99999998245E-14  0.12500000000E+03  0.12500000000E+03 0.  0.
    3000001    1    3    3    0    0  0.28637686788E+02  0.19976396570E+02 -0.36202715129E+02  0.50307157614E+02  0.10000000000E+01 0. -1.
    1000022    2    1    0    0    0  0.31624636392E+02  0.23452079447E+02 -0.47498761808E+02  0.62500000092E+02  0.99999990466E+01 0.  0.
    3000022    2    3    3    0    0  0.29869496041E+01  0.34756828768E+01 -0.11296046679E+02  0.12192842479E+02  0.24999545367E+00 0.  0.
    1000022    2    1    0    0    0 -0.31624636392E+02 -0.23452079447E+02  0.47498761808E+02  0.62499999908E+02  0.99999978918E+01 0.  0.
    3000022    2    5    5    0    0 -0.13763249352E+02 -0.14114408664E+02  0.17600400982E+02  0.26428775605E+02  0.25000112855E+00 0.  0.
        -13    1    4    4    0    0  0.17869829942E+01  0.19801561622E+01 -0.65687546918E+01  0.70904082992E+01  0.10500000000E+00 0. -1.
         13    1    4    4    0    0  0.11999666099E+01  0.14955267146E+01 -0.47272919876E+01  0.51024341794E+01  0.10500000000E+00 0.  1.
    3000001    1    5    5    0    0 -0.17861387040E+02 -0.93376707828E+01  0.29898360826E+02  0.36071224303E+02  0.10000000000E+01 0.  1.
        -13    1    6    6    0    0 -0.92294600879E+01 -0.94591167495E+01  0.11727852115E+02  0.17669503769E+02  0.10500000000E+00 0. -1.
         13    1    6    6    0    0 -0.45337892641E+01 -0.46552919145E+01  0.58725488673E+01  0.87592718362E+01  0.10500000000E+00 0.  1.
</event>
<event>
11    0  0.3494755E-009  0.9118800E+02  0.7816531E-02  0.1126479E+00
         25   -1    0    0    0    0  0.00000000000E+00  0.00000000000E+00  0.99999998245E-14  0.12500000000E+03  0.12500000000E+03 0.  0.
    3000001    1    3    3    0    0 -0.46036668520E+01 -0.26952160046E+02  0.11141440599E+02  0.29542247346E+02  0.10000000000E+01 0. -1.
    1000022    2    1    0    0    0 -0.19603224756E+01 -0.59279850883E+02  0.16979602148E+02  0.62500000855E+02  0.99999816419E+01 0.  0.
    3000022    2    3    3    0    0  0.26433443764E+01 -0.32327690837E+02  0.58381615493E+01  0.32957753509E+02  0.25004348203E+00 0.  0.
    1000022    2    1    0    0    0  0.19603224756E+01  0.59279850883E+02 -0.16979602148E+02  0.62499999145E+02  0.99999709532E+01 0.  0.
    3000022    2    5    5    0    0  0.36186895944E+01  0.38863532902E+02 -0.15297815810E+02  0.41923200883E+02  0.24999949912E+00 0.  0.
        -13    1    4    4    0    0  0.61457400065E+00 -0.76663706667E+01  0.13962118589E+01  0.78173763474E+01  0.10500000000E+00 0. -1.
         13    1    4    4    0    0  0.20287703757E+01 -0.24661320170E+02  0.44419496903E+01  0.25140377162E+02  0.10500000000E+00 0.  1.
    3000001    1    5    5    0    0 -0.16583671188E+01  0.20416317981E+02 -0.16817863382E+01  0.20576798261E+02  0.10000000000E+01 0. -1.
        -13    1    6    6    0    0  0.17606950434E+01  0.19528135768E+02 -0.76459056174E+01  0.21045641623E+02  0.10500000000E+00 0. -1.
         13    1    6    6    0    0  0.18579945510E+01  0.19335397134E+02 -0.76519101923E+01  0.20877559260E+02  0.10500000000E+00 0.  1.
</event>
<event>
11    0  0.3494755E-009  0.9118800E+02  0.7816531E-02  0.1126479E+00
         25   -1    0    0    0    0  0.00000000000E+00  0.00000000000E+00  0.99999998245E-14  0.12500000000E+03  0.12500000000E+03 0.  0.
    3000001    1    3    3    0    0  0.23700264342E+01  0.23740376181E+02 -0.16574845166E+02  0.29067988902E+02  0.10000000000E+01 0. -1.
    1000022    2    1    0    0    0  0.13595370505E+02  0.52472153158E+02 -0.29463348476E+02  0.62500000107E+02  0.10000007688E+02 0.  0.
    3000022    2    3    3    0    0  0.11225344071E+02  0.28731776977E+02 -0.12888503310E+02  0.33432011206E+02  0.24999579952E+00 0.  0.
    1000022    2    1    0    0    0 -0.13595370505E+02 -0.52472153158E+02  0.29463348476E+02  0.62499999893E+02  0.10000006347E+02 0.  0.
    3000022    2    5    5    0    0 -0.77113054183E+01 -0.38281166895E+02  0.16577692557E+02  0.42423983318E+02  0.24999979304E+00 0.  0.
        -13    1    4    4    0    0  0.68394559916E+01  0.17469211855E+02 -0.77725951713E+01  0.20307037741E+02  0.10500000000E+00 0.  1.
         13    1    4    4    0    0  0.43858880795E+01  0.11262565122E+02 -0.51159081389E+01  0.13124973465E+02  0.10500000000E+00 0. -1.
    3000001    1    5    5    0    0 -0.58840650871E+01 -0.14190986262E+02  0.12885655919E+02  0.20076016575E+02  0.10000000000E+01 0.  1.
        -13    1    6    6    0    0 -0.44351069926E+01 -0.21895410984E+02  0.94177775274E+01  0.24244272617E+02  0.10500000000E+00 0.  1.
         13    1    6    6    0    0 -0.32761984256E+01 -0.16385755911E+02  0.71599150301E+01  0.18179710700E+02  0.10500000000E+00 0. -1.
</event>
<event>
11    0  0.3494755E-009  0.9118800E+02  0.7816531E-02  0.1126479E+00
         25   -1    0    0    0    0  0.00000000000E+00  0.00000000000E+00  0.99999998245E-14  0.12500000000E+03  0.12500000000E+03 0.  0.
    3000001    1    3    3    0    0  0.54537029670E+00 -0.11684738235E+02  0.60296520090E+01  0.13198001354E+02  0.10000000000E+01 0.  1.
    1000022    2    1    0    0    0  0.69708444228E+01 -0.43840727718E+02  0.42844462442E+02  0.62500000746E+02  0.10000002625E+02 0.  0.
    3000022    2    3    3    0    0  0.64254741261E+01 -0.32155989483E+02  0.36814810433E+02  0.49301999393E+02  0.24999897672E+00 0.  0.
    1000022    2    1    0    0    0 -0.69708444228E+01  0.43840727718E+02 -0.42844462442E+02  0.62499999254E+02  0.99999932975E+01 0.  0.
    3000022    2    5    5    0    0 -0.53086658566E+01  0.28422728759E+02 -0.21197521440E+02  0.35852905900E+02  0.25000587528E+00 0.  0.
        -13    1    4    4    0    0  0.23243763151E+01 -0.11439708989E+02  0.13171084379E+02  0.17599947606E+02  0.10500000000E+00 0. -1.
         13    1    4    4    0    0  0.41010978110E+01 -0.20716280494E+02  0.23643726054E+02  0.31702051786E+02  0.10500000000E+00 0.  1.
    3000001    1    5    5    0    0 -0.16621785662E+01  0.15417998959E+02 -0.21646941002E+02  0.26647093354E+02  0.10000000000E+01 0.  1.
        -13    1    6    6    0    0 -0.39841040904E+01  0.21430315035E+02 -0.15960497324E+02  0.27016291155E+02  0.10500000000E+00 0.  1.
         13    1    6    6    0    0 -0.13245617662E+01  0.69924137242E+01 -0.52370241157E+01  0.88366147450E+01  0.10500000000E+00 0. -1.
</event>
<event>
11    0  0.3494755E-009  0.9118800E+02  0.7816531E-02  0.1126479E+00
         25   -1    0    0    0    0  0.00000000000E+00  0.00000000000E+00  0.99999998245E-14  0.12500000000E+03  0.12500000000E+03 0.  0.
    3000001    1    3    3    0    0 -0.53099941057E+01 -0.17606740656E+02 -0.14110119942E+02  0.23201052535E+02  0.10000000000E+01 0.  1.
    1000022    2    1    0    0    0 -0.10220201656E+02 -0.38954783460E+02 -0.46736731612E+02  0.62500001100E+02  0.10000018968E+02 0.  0.
    3000022    2    3    3    0    0 -0.49102075508E+01 -0.21348042804E+02 -0.32626611670E+02  0.39298948565E+02  0.24999900687E+00 0.  0.
    1000022    2    1    0    0    0  0.10220201656E+02  0.38954783460E+02  0.46736731612E+02  0.62499998900E+02  0.10000005221E+02 0.  0.
    3000022    2    5    5    0    0  0.11362268480E+01  0.19412319802E+02  0.26894177521E+02  0.33188679636E+02  0.24999981331E+00 0.  0.
        -13    1    4    4    0    0 -0.16906405096E+01 -0.71968989408E+01 -0.10936247025E+02  0.13200990254E+02  0.10500000000E+00 0.  1.
         13    1    4    4    0    0 -0.32195670412E+01 -0.14151143863E+02 -0.21690364644E+02  0.26097958311E+02  0.10500000000E+00 0. -1.
    3000001    1    5    5    0    0  0.90839748084E+01  0.19542463658E+02  0.19842554091E+02  0.29311319264E+02  0.10000000000E+01 0. -1.
        -13    1    6    6    0    0  0.65850989359E+00  0.12265267930E+02  0.16989321437E+02  0.20964696529E+02  0.10500000000E+00 0. -1.
         13    1    6    6    0    0  0.47771695444E+00  0.71470518719E+01  0.99048560839E+01  0.12223983107E+02  0.10500000000E+00 0.  1.
</event>
<event>
11    0  0.3494755E-009  0.9118800E+02  0.7816531E-02  0.1126479E+00
         25   -1    0    0    0    0  0.00000000000E+00  0.00000000000E+00  0.99999998245E-14  0.12500000000E+03  0.12500000000E+03 0.  0.
    3000001    1    3    3    0    0 -0.26400286583E+02  0.62134904739E+01  0.52225843570E+02  0.58856786627E+02  0.10000000000E+01 0.  1.
    1000022    2    1    0    0    0 -0.28724540780E+02  0.44780659841E+01  0.54415968661E+02  0.62500000660E+02  0.10000005963E+02 0.  0.
    3000022    2    3    3    0    0 -0.23242541966E+01 -0.17354244898E+01  0.21901250915E+01  0.36432140330E+01  0.25000968662E+00 0.  0.
    1000022    2    1    0    0    0  0.28724540780E+02 -0.44780659841E+01 -0.54415968661E+02  0.62499999340E+02  0.99999977086E+01 0.  0.
    3000022    2    5    5    0    0  0.19892082728E+02 -0.23489442141E+01 -0.45577086729E+02  0.49784996054E+02  0.25000643884E+00 0.  0.
        -13    1    4    4    0    0 -0.15239699049E+01 -0.10785885243E+01  0.14477950865E+01  0.23649467411E+01  0.10500000000E+00 0. -1.
         13    1    4    4    0    0 -0.80028429170E+00 -0.65683596550E+00  0.74233000499E+00  0.12782672919E+01  0.10500000000E+00 0.  1.
    3000001    1    5    5    0    0  0.88324580515E+01 -0.21291217700E+01 -0.88388819322E+01  0.12715003286E+02  0.10000000000E+01 0.  1.
        -13    1    6    6    0    0  0.10930794769E+02 -0.13528213734E+01 -0.25124215499E+02  0.27432638032E+02  0.10500000000E+00 0. -1.
         13    1    6    6    0    0  0.89612879593E+01 -0.99612284066E+00 -0.20452871229E+02  0.22352358022E+02  0.10500000000E+00 0.  1.
</event>
<event>
11    0  0.3494755E-009  0.9118800E+02  0.7816531E-02  0.1126479E+00
         25   -1    0    0    0    0  0.00000000000E+00  0.00000000000E+00  0.99999998245E-14  0.12500000000E+03  0.12500000000E+03 0.  0.
    3000001    1    3    3    0    0  0.30064665970E+02  0.19014143042E+02  0.32455750095E+01  0.35734514585E+02  0.10000000000E+01 0.  1.
    1000022    2    1    0    0    0  0.48884081414E+02  0.37631215685E+02 -0.69948615769E+00  0.62500010998E+02  0.10000014212E+02 0.  0.
    3000022    2    3    3    0    0  0.18819415444E+02  0.18617072643E+02 -0.39450611672E+01  0.26765496413E+02  0.24999830931E+00 0.  0.
    1000022    2    1    0    0    0 -0.48884081414E+02 -0.37631215685E+02  0.69948615769E+00  0.62499989002E+02  0.99998767358E+01 0.  0.
    3000022    2    5    5    0    0 -0.71262156702E+01 -0.84672011907E+01 -0.28565007444E+01  0.11432346255E+02  0.24999720804E+00 0.  0.
        -13    1    4    4    0    0  0.95369572985E+01  0.94632731488E+01 -0.19368960567E+01  0.13574597030E+02  0.10500000000E+00 0.  1.
         13    1    4    4    0    0  0.92824581454E+01  0.91537994942E+01 -0.20081651105E+01  0.13190899382E+02  0.10500000000E+00 0. -1.
    3000001    1    5    5    0    0 -0.41757865744E+02 -0.29164014494E+02  0.35559869021E+01  0.51067642747E+02  0.10000000000E+01 0.  1.
        -13    1    6    6    0    0 -0.49038248733E+01 -0.57545669049E+01 -0.19317958233E+01  0.78041911018E+01  0.10500000000E+00 0.  1.
         13    1    6    6    0    0 -0.22223907969E+01 -0.27126342858E+01 -0.92470492113E+00  0.36281551530E+01  0.10500000000E+00 0. -1.
</event>
<event>
11    0  0.3494755E-009  0.9118800E+02  0.7816531E-02  0.1126479E+00
         25   -1    0    0    0    0  0.00000000000E+00  0.00000000000E+00  0.99999998245E-14  0.12500000000E+03  0.12500000000E+03 0.  0.
    3000001    1    3    3    0    0  0.10495873780E+02 -0.48105915915E+02  0.27436872070E+02  0.56374856642E+02  0.10000000000E+01 0. -1.
    1000022    2    1    0    0    0  0.14266517172E+02 -0.51456022542E+02  0.30902984216E+02  0.62500001415E+02  0.99999987704E+01 0.  0.
    3000022    2    3    3    0    0  0.37706433911E+01 -0.33501066265E+01  0.34661121466E+01  0.61251447730E+01  0.24999817218E+00 0.  0.
    1000022    2    1    0    0    0 -0.14266517172E+02  0.51456022542E+02 -0.30902984216E+02  0.62499998585E+02  0.99999810831E+01 0.  0.
    3000022    2    5    5    0    0 -0.20807628374E+01  0.14196155846E+02 -0.38447985909E+01  0.14856156547E+02  0.24999267475E+00 0.  0.
        -13    1    4    4    0    0  0.21219467667E+01 -0.19715418980E+01  0.19772054744E+01  0.35085612471E+01  0.10500000000E+00 0.  1.
         13    1    4    4    0    0  0.16486966244E+01 -0.13785647285E+01  0.14889066721E+01  0.26165835259E+01  0.10500000000E+00 0. -1.
    3000001    1    5    5    0    0 -0.12185754334E+02  0.37259866695E+02 -0.27058185625E+02  0.47643842038E+02  0.10000000000E+01 0. -1.
        -13    1    6    6    0    0 -0.11036712235E+01  0.70765173702E+01 -0.19363520836E+01  0.74199509872E+01  0.10500000000E+00 0.  1.
         13    1    6    6    0    0 -0.97709161388E+00  0.71196384762E+01 -0.19084465073E+01  0.74362055596E+01  0.10500000000E+00 0. -1.
</event>
<event>
11    0  0.3494755E-009  0.9118800E+02  0.7816531E-02  0.1126479E+00
         25   -1    0    0    0    0  0.00000000000E+00  0.00000000000E+00  0.99999998245E-14  0.12500000000E+03  0.12500000000E+03 0.  0.
    3000001    1    3    3    0    0 -0.11616695686E+02 -0.90582581351E+01  0.23581929808E+02  0.27822779742E+02  0.10000000000E+01 0.  1.
    1000022    2    1    0    0    0 -0.16739721559E+02 -0.16227869378E+02  0.57119943787E+02  0.62499999986E+02  0.99999998829E+01 0.  0.
    3000022    2    3    3    0    0 -0.51230258729E+01 -0.71696112425E+01  0.33538013979E+02  0.34677220244E+02  0.25000550572E+00 0.  0.
    1000022    2    1    0    0    0  0.16739721559E+02  0.16227869378E+02 -0.57119943787E+02  0.62500000014E+02  0.10000000054E+02 0.  0.
    3000022    2    5    5    0    0  0.13110365569E+01  0.23626200135E+01 -0.18056628300E+02  0.18259384312E+02  0.24999942356E+00 0.  0.
        -13    1    4    4    0    0 -0.26697753268E+01 -0.38441959606E+01  0.17907871954E+02  0.18509685189E+02  0.10500000000E+00 0.  1.
         13    1    4    4    0    0 -0.24532505461E+01 -0.33254152819E+01  0.15630142025E+02  0.16167535055E+02  0.10500000000E+00 0. -1.
    3000001    1    5    5    0    0  0.15428685002E+02  0.13865249364E+02 -0.39063315487E+02  0.44240615702E+02  0.10000000000E+01 0. -1.
        -13    1    6    6    0    0  0.93528242743E+00  0.15829318600E+01 -0.12183426785E+02  0.12321823717E+02  0.10500000000E+00 0.  1.
         13    1    6    6    0    0  0.37575412949E+00  0.77968815359E+00 -0.58732015149E+01  0.59375605948E+01  0.10500000000E+00 0. -1.
</event>
<event>
11    0  0.3494755E-009  0.9118800E+02  0.7816531E-02  0.1126479E+00
         25   -1    0    0    0    0  0.00000000000E+00  0.00000000000E+00  0.99999998245E-14  0.12500000000E+03  0.12500000000E+03 0.  0.
    3000001    1    3    3    0    0 -0.59714670655E+01 -0.55556383341E+02 -0.15660717101E+01  0.55907269022E+02  0.10000000000E+01 0. -1.
    1000022    2    1    0    0    0 -0.53902564316E+01 -0.61271908322E+02 -0.47904416492E+01  0.62499999153E+02  0.99999974519E+01 0.  0.
    3000022    2    3    3    0    0  0.58121063382E+00 -0.57155249813E+01 -0.32243699392E+01  0.65927301311E+01  0.24999492972E+00 0.  0.
    1000022    2    1    0    0    0  0.53902564316E+01  0.61271908322E+02  0.47904416492E+01  0.62500000847E+02  0.10000008041E+02 0.  0.
    3000022    2    5    5    0    0 -0.26643773285E+01  0.89793509133E+01  0.13897494571E+01  0.94721459708E+01  0.24999273137E+00 0.  0.
        -13    1    4    4    0    0  0.28569109892E+00 -0.24496288552E+01 -0.13220526029E+01  0.28002051741E+01  0.10500000000E+00 0. -1.
         13    1    4    4    0    0  0.29551953490E+00 -0.32658961260E+01 -0.19023173363E+01  0.37925249570E+01  0.10500000000E+00 0.  1.
    3000001    1    5    5    0    0  0.80546337602E+01  0.52292557409E+02  0.34006921922E+01  0.53027854876E+02  0.10000000000E+01 0. -1.
        -13    1    6    6    0    0 -0.95750914938E+00  0.34386780926E+01  0.52020162130E+00  0.36087346151E+01  0.10500000000E+00 0. -1.
         13    1    6    6    0    0 -0.17068681791E+01  0.55406728207E+01  0.86954783579E+00  0.58634113556E+01  0.10500000000E+00 0.  1.
</event>
<event>
11    0  0.3494755E-009  0.9118800E+02  0.7816531E-02  0.1126479E+00
         25   -1    0    0    0    0  0.00000000000E+00  0.00000000000E+00  0.99999998245E-14  0.12500000000E+03  0.12500000000E+03 0.  0.
    3000001    1    3    3    0    0  0.61013759831E+01  0.36671143560E+01 -0.20152586659E+02  0.21396290931E+02  0.10000000000E+01 0. -1.
    1000022    2    1    0    0    0  0.15579421323E+02  0.23562242051E+02 -0.54848451529E+02  0.62500001822E+02  0.99999986698E+01 0.  0.
    3000022    2    3    3    0    0  0.94780453403E+01  0.19895127695E+02 -0.34695864871E+02  0.41103710891E+02  0.25012079737E+00 0.  0.
    1000022    2    1    0    0    0 -0.15579421323E+02 -0.23562242051E+02  0.54848451529E+02  0.62499998178E+02  0.99999758895E+01 0.  0.
    3000022    2    5    5    0    0 -0.87899479028E+01 -0.20267094673E+02  0.44154751945E+02  0.49373301854E+02  0.25001205888E+00 0.  0.
        -13    1    4    4    0    0  0.30454340823E+01  0.65105040526E+01 -0.11339706517E+02  0.13426142434E+02  0.10500000000E+00 0.  1.
         13    1    4    4    0    0  0.64326112580E+01  0.13384623643E+02 -0.23356158354E+02  0.27677568457E+02  0.10500000000E+00 0. -1.
    3000001    1    5    5    0    0 -0.67894734206E+01 -0.32951473786E+01  0.10693699584E+02  0.13126696323E+02  0.10000000000E+01 0. -1.
        -13    1    6    6    0    0 -0.48045416460E+01 -0.10958090835E+02  0.23809527219E+02  0.26647100903E+02  0.10500000000E+00 0. -1.
         13    1    6    6    0    0 -0.39854062568E+01 -0.93090038374E+01  0.20345224727E+02  0.22726200951E+02  0.10500000000E+00 0.  1.
</event>
<event>
11    0  0.3494755E-009  0.9118800E+02  0.7816531E-02  0.1126479E+00
         25   -1    0    0    0    0  0.00000000000E+00  0.00000000000E+00  0.99999998245E-14  0.12500000000E+03  0.12500000000E+03 0.  0.
    3000001    1    3    3    0    0  0.56163150859E+01  0.10698493469E+02  0.17093546689E+02  0.20956862744E+02  0.10000000000E+01 0.  1.
    1000022    2    1    0    0    0  0.74946602954E+01  0.23279762743E+02  0.56640385954E+02  0.62499991117E+02  0.99999141153E+01 0.  0.
    3000022    2    3    3    0    0  0.18783452096E+01  0.12581269274E+02  0.39546839264E+02  0.41543128373E+02  0.25000386246E+00 0.  0.
    1000022    2    1    0    0    0 -0.74946602954E+01 -0.23279762743E+02 -0.56640385954E+02  0.62500008883E+02  0.10000025153E+02 0.  0.
    3000022    2    5    5    0    0 -0.22861694282E+01 -0.20102437685E+02 -0.42822043459E+02  0.47361635095E+02  0.25000270744E+00 0.  0.
        -13    1    4    4    0    0  0.10836840790E+01  0.68640695523E+01  0.21495266288E+02  0.22590868062E+02  0.10500000000E+00 0.  1.
         13    1    4    4    0    0  0.79466113058E+00  0.57171997218E+01  0.18051572976E+02  0.18952260311E+02  0.10500000000E+00 0. -1.
    3000001    1    5    5    0    0 -0.52084908672E+01 -0.31773250588E+01 -0.13818342495E+02  0.15138373788E+02  0.10000000000E+01 0.  1.
        -13    1    6    6    0    0 -0.11165023604E+01 -0.95588007812E+01 -0.20511826012E+02  0.22657521516E+02  0.10500000000E+00 0.  1.
         13    1    6    6    0    0 -0.11696670678E+01 -0.10543636903E+02 -0.22310217446E+02  0.24704113579E+02  0.10500000000E+00 0. -1.
</event>
<event>
11    0  0.3494755E-009  0.9118800E+02  0.7816531E-02  0.1126479E+00
         25   -1    0    0    0    0  0.00000000000E+00  0.00000000000E+00  0.99999998245E-14  0.12500000000E+03  0.12500000000E+03 0.  0.
    3000001    1    3    3    0    0 -0.53208801823E+02 -0.42101524378E+01 -0.28399720269E+02  0.60468554525E+02  0.10000000000E+01 0. -1.
    1000022    2    1    0    0    0 -0.53967327782E+02 -0.29226057068E+01 -0.29752915156E+02  0.62499999828E+02  0.99999963081E+01 0.  0.
    3000022    2    3    3    0    0 -0.75852595913E+00  0.12875467310E+01 -0.13531948878E+01  0.20314453034E+01  0.24999080194E+00 0.  0.
    1000022    2    1    0    0    0  0.53967327782E+02  0.29226057068E+01  0.29752915156E+02  0.62500000172E+02  0.99999984552E+01 0.  0.
    3000022    2    5    5    0    0  0.33356341963E+02 -0.21991961853E+01  0.21185471880E+02  0.39577376514E+02  0.24999989816E+00 0.  0.
        -13    1    4    4    0    0 -0.47065163759E+00  0.67159812067E+00 -0.76136024913E+00  0.11239445843E+01  0.10500000000E+00 0.  1.
         13    1    4    4    0    0 -0.28787432154E+00  0.61594861032E+00 -0.59183463870E+00  0.90750071908E+00  0.10500000000E+00 0. -1.
    3000001    1    5    5    0    0  0.20610985819E+02  0.51218018921E+01  0.85674432769E+01  0.22922623658E+02  0.10000000000E+01 0. -1.
        -13    1    6    6    0    0  0.20007045621E+02 -0.12663362134E+01  0.12745851968E+02  0.23756120249E+02  0.10500000000E+00 0.  1.
         13    1    6    6    0    0  0.13349296342E+02 -0.93285997189E+00  0.84396199116E+01  0.15821256265E+02  0.10500000000E+00 0. -1.
</event>
<event>
11    0  0.3494755E-009  0.9118800E+02  0.7816531E-02  0.1126479E+00
         25   -1    0    0    0    0  0.00000000000E+00  0.00000000000E+00  0.99999998245E-14  0.12500000000E+03  0.12500000000E+03 0.  0.
    3000001    1    3    3    0    0  0.18909711544E+02  0.11213148424E+02  0.14378170346E+02  0.26287709500E+02  0.10000000000E+01 0. -1.
    1000022    2    1    0    0    0  0.50267503926E+02  0.26628488265E+02  0.23882044792E+02  0.62500000092E+02  0.99999804876E+01 0.  0.
    3000022    2    3    3    0    0  0.31357792383E+02  0.15415339841E+02  0.95038744458E+01  0.36212290592E+02  0.25002979787E+00 0.  0.
    1000022    2    1    0    0    0 -0.50267503926E+02 -0.26628488265E+02 -0.23882044792E+02  0.62499999908E+02  0.99999793402E+01 0.  0.
    3000022    2    5    5    0    0 -0.24383800396E+02 -0.12386931445E+02 -0.61643129323E+01  0.28036888160E+02  0.25010277744E+00 0.  0.
        -13    1    4    4    0    0  0.22746235569E+02  0.11152108780E+02  0.69180601317E+01  0.26260832885E+02  0.10500000000E+00 0. -1.
         13    1    4    4    0    0  0.86115568133E+01  0.42632310617E+01  0.25858143141E+01  0.99514577074E+01  0.10500000000E+00 0.  1.
    3000001    1    5    5    0    0 -0.25883703530E+02 -0.14241556820E+02 -0.17717731860E+02  0.34463111748E+02  0.10000000000E+01 0.  1.
        -13    1    6    6    0    0 -0.17562697759E+02 -0.89640390470E+01 -0.44563446072E+01  0.20215646932E+02  0.10500000000E+00 0.  1.
         13    1    6    6    0    0 -0.68211026367E+01 -0.34228923976E+01 -0.17079683250E+01  0.78212412279E+01  0.10500000000E+00 0. -1.
</event>
<event>
11    0  0.3494755E-009  0.9118800E+02  0.7816531E-02  0.1126479E+00
         25   -1    0    0    0    0  0.00000000000E+00  0.00000000000E+00  0.99999998245E-14  0.12500000000E+03  0.12500000000E+03 0.  0.
    3000001    1    3    3    0    0  0.14041069366E+02  0.18281972066E+02 -0.25298424036E+02  0.34240215979E+02  0.10000000000E+01 0.  1.
    1000022    2    1    0    0    0  0.31310834130E+02  0.35525388721E+02 -0.39545271456E+02  0.62500000453E+02  0.99999992160E+01 0.  0.
    3000022    2    3    3    0    0  0.17269764764E+02  0.17243416655E+02 -0.14246847420E+02  0.28259784474E+02  0.25012825570E+00 0.  0.
    1000022    2    1    0    0    0 -0.31310834130E+02 -0.35525388721E+02  0.39545271456E+02  0.62499999547E+02  0.99999935559E+01 0.  0.
    3000022    2    5    5    0    0 -0.13260019138E+02 -0.15493980081E+02  0.10813894909E+02  0.23084504469E+02  0.24999432802E+00 0.  0.
        -13    1    4    4    0    0  0.10942887931E+02  0.10911058011E+02 -0.89535604561E+01  0.17859878304E+02  0.10500000000E+00 0. -1.
         13    1    4    4    0    0  0.63268768335E+01  0.63323586440E+01 -0.52932869638E+01  0.10399906170E+02  0.10500000000E+00 0.  1.
    3000001    1    5    5    0    0 -0.18050814992E+02 -0.20031408640E+02  0.28731376547E+02  0.39415495078E+02  0.10000000000E+01 0. -1.
        -13    1    6    6    0    0 -0.67240963501E+01 -0.77731305950E+01  0.54956034344E+01  0.11655372713E+02  0.10500000000E+00 0.  1.
         13    1    6    6    0    0 -0.65359227881E+01 -0.77208494863E+01  0.53182914750E+01  0.11429131756E+02  0.10500000000E+00 0. -1.
</event>
<event>
11    0  0.3494755E-009  0.9118800E+02  0.7816531E-02  0.1126479E+00
         25   -1    0    0    0    0  0.00000000000E+00  0.00000000000E+00  0.99999998245E-14  0.12500000000E+03  0.12500000000E+03 0.  0.
    3000001    1    3    3    0    0 -0.15678110761E+02 -0.64575303011E+01 -0.21328490791E+02  0.27265497870E+02  0.10000000000E+01 0. -1.
    1000022    2    1    0    0    0 -0.40016999665E+02 -0.22125532575E+02 -0.41416790963E+02  0.62499999632E+02  0.99999963210E+01 0.  0.
    3000022    2    3    3    0    0 -0.24338888904E+02 -0.15668002274E+02 -0.20088300171E+02  0.35234501763E+02  0.25000468991E+00 0.  0.
    1000022    2    1    0    0    0  0.40016999665E+02  0.22125532575E+02  0.41416790963E+02  0.62500000368E+02  0.10000000920E+02 0.  0.
    3000022    2    5    5    0    0  0.32191280023E+02  0.14515273942E+02  0.35371972209E+02  0.49982102855E+02  0.25000144032E+00 0.  0.
        -13    1    4    4    0    0 -0.15900765411E+02 -0.10278029240E+02 -0.13086761590E+02  0.23016224269E+02  0.10500000000E+00 0. -1.
         13    1    4    4    0    0 -0.84381234931E+01 -0.53899730343E+01 -0.70015385815E+01  0.12218277493E+02  0.10500000000E+00 0.  1.
    3000001    1    5    5    0    0  0.78257196419E+01  0.76102586332E+01  0.60448187539E+01  0.12517897513E+02  0.10000000000E+01 0. -1.
        -13    1    6    6    0    0  0.15984607633E+02  0.72455159823E+01  0.17497043392E+02  0.24782306904E+02  0.10500000000E+00 0.  1.
         13    1    6    6    0    0  0.16206672390E+02  0.72697579599E+01  0.17874928817E+02  0.25199795951E+02  0.10500000000E+00 0. -1.
</event>
<event>
11    0  0.3494755E-009  0.9118800E+02  0.7816531E-02  0.1126479E+00
         25   -1    0    0    0    0  0.00000000000E+00  0.00000000000E+00  0.99999998245E-14  0.12500000000E+03  0.12500000000E+03 0.  0.
    3000001    1    3    3    0    0 -0.43505754895E+02 -0.27717412720E+01 -0.82610286916E+00  0.43613251480E+02  0.10000000000E+01 0. -1.
    1000022    2    1    0    0    0 -0.60888123662E+02 -0.98721150074E+01  0.11949822827E+01  0.62500001818E+02  0.99999993403E+01 0.  0.
    3000022    2    3    3    0    0 -0.17382368767E+02 -0.71003737354E+01  0.20210851518E+01  0.18886750339E+02  0.25000405458E+00 0.  0.
    1000022    2    1    0    0    0  0.60888123662E+02  0.98721150074E+01 -0.11949822827E+01  0.62499998182E+02  0.99999766091E+01 0.  0.
    3000022    2    5    5    0    0  0.41325023318E+02  0.10806307940E+02  0.12739630110E+01  0.42734287913E+02  0.25007642085E+00 0.  0.
        -13    1    4    4    0    0 -0.85461389063E+01 -0.34601568176E+01  0.93056300816E+00  0.92674779698E+01  0.10500000000E+00 0.  1.
         13    1    4    4    0    0 -0.88362298611E+01 -0.36402169178E+01  0.10905221437E+01  0.96192723691E+01  0.10500000000E+00 0. -1.
    3000001    1    5    5    0    0  0.19563100345E+02 -0.93419293291E+00 -0.24689452936E+01  0.19765710268E+02  0.10000000000E+01 0.  1.
        -13    1    6    6    0    0  0.30844722773E+02  0.80660842148E+01  0.97939241284E+00  0.31897160877E+02  0.10500000000E+00 0.  1.
         13    1    6    6    0    0  0.10480300544E+02  0.27402237256E+01  0.29457059811E+00  0.10837127036E+02  0.10500000000E+00 0. -1.
</event>
<event>
11    0  0.3494755E-009  0.9118800E+02  0.7816531E-02  0.1126479E+00
         25   -1    0    0    0    0  0.00000000000E+00  0.00000000000E+00  0.99999998245E-14  0.12500000000E+03  0.12500000000E+03 0.  0.
    3000001    1    3    3    0    0  0.58741161846E+01  0.32580977917E+02 -0.11937425287E+02  0.35206923828E+02  0.10000000000E+01 0.  1.
    1000022    2    1    0    0    0  0.21763282864E+01  0.56862486964E+02 -0.23836345048E+02  0.62500001811E+02  0.10000002630E+02 0.  0.
    3000022    2    3    3    0    0 -0.36977878982E+01  0.24281509048E+02 -0.11898919761E+02  0.27293077983E+02  0.24999469756E+00 0.  0.
    1000022    2    1    0    0    0 -0.21763282864E+01 -0.56862486964E+02  0.23836345048E+02  0.62499998189E+02  0.99999799915E+01 0.  0.
    3000022    2    5    5    0    0 -0.37593879263E+01 -0.43239366451E+02  0.14045052506E+02  0.45619094778E+02  0.24999959188E+00 0.  0.
        -13    1    4    4    0    0 -0.12762173955E+01  0.80279601227E+01 -0.39381928218E+01  0.90331202955E+01  0.10500000000E+00 0. -1.
         13    1    4    4    0    0 -0.24215705026E+01  0.16253548925E+02 -0.79607269391E+01  0.18259957688E+02  0.10500000000E+00 0.  1.
    3000001    1    5    5    0    0  0.15830596399E+01 -0.13623120513E+02  0.97912925414E+01  0.16880903411E+02  0.10000000000E+01 0.  1.
        -13    1    6    6    0    0 -0.12452365565E+01 -0.13985326490E+02  0.44990279411E+01  0.14744227634E+02  0.10500000000E+00 0. -1.
         13    1    6    6    0    0 -0.25141513697E+01 -0.29254039961E+02  0.95460245650E+01  0.30874867144E+02  0.10500000000E+00 0.  1.
</event>
<event>
11    0  0.3494755E-009  0.9118800E+02  0.7816531E-02  0.1126479E+00
         25   -1    0    0    0    0  0.00000000000E+00  0.00000000000E+00  0.99999998245E-14  0.12500000000E+03  0.12500000000E+03 0.  0.
    3000001    1    3    3    0    0  0.12834780339E+02  0.77613490991E+01 -0.35878978658E+02  0.38900787084E+02  0.10000000000E+01 0.  1.
    1000022    2    1    0    0    0  0.16464689288E+02  0.61387903726E+01 -0.59139484454E+02  0.62499993753E+02  0.99999928532E+01 0.  0.
    3000022    2    3    3    0    0  0.36299089485E+01 -0.16225587265E+01 -0.23260505796E+02  0.23599206669E+02  0.24997947829E+00 0.  0.
    1000022    2    1    0    0    0 -0.16464689288E+02 -0.61387903726E+01  0.59139484454E+02  0.62500006247E+02  0.10000070943E+02 0.  0.
    3000022    2    5    5    0    0 -0.14282655658E+01  0.13455453533E+01  0.17166451946E+02  0.17280046301E+02  0.24998588350E+00 0.  0.
        -13    1    4    4    0    0  0.12151170046E+01 -0.49959944125E+00 -0.74908519646E+01  0.76059185568E+01  0.10500000000E+00 0.  1.
         13    1    4    4    0    0  0.24147919439E+01 -0.11229592852E+01 -0.15769653831E+02  0.15993288112E+02  0.10500000000E+00 0. -1.
    3000001    1    5    5    0    0 -0.15036423722E+02 -0.74843357259E+01  0.41973032508E+02  0.45219959946E+02  0.10000000000E+01 0.  1.
        -13    1    6    6    0    0 -0.39354933301E+00  0.32684375008E+00  0.44769229334E+01  0.45072798744E+01  0.10500000000E+00 0.  1.
         13    1    6    6    0    0 -0.10347162328E+01  0.10187016033E+01  0.12689529012E+02  0.12772766427E+02  0.10500000000E+00 0. -1.
</event>
<event>
11    0  0.3494755E-009  0.9118800E+02  0.7816531E-02  0.1126479E+00
         25   -1    0    0    0    0  0.00000000000E+00  0.00000000000E+00  0.99999998245E-14  0.12500000000E+03  0.12500000000E+03 0.  0.
    3000001    1    3    3    0    0  0.19266145437E+02 -0.31289999784E+02 -0.24265904168E+02  0.44046368199E+02  0.10000000000E+01 0.  1.
    1000022    2    1    0    0    0  0.31923633326E+02 -0.39908453887E+02 -0.34560771535E+02  0.62500000464E+02  0.10000003633E+02 0.  0.
    3000022    2    3    3    0    0  0.12657487889E+02 -0.86184541026E+01 -0.10294867367E+02  0.18453632265E+02  0.24999779304E+00 0.  0.
    1000022    2    1    0    0    0 -0.31923633326E+02  0.39908453887E+02  0.34560771535E+02  0.62499999536E+02  0.99999978270E+01 0.  0.
    3000022    2    5    5    0    0 -0.11528491890E+02  0.79050449603E+01  0.73725678295E+01  0.15805477396E+02  0.24999649834E+00 0.  0.
        -13    1    4    4    0    0  0.76606145033E+01 -0.51473395516E+01 -0.62365297990E+01  0.11139364792E+02  0.10500000000E+00 0. -1.
         13    1    4    4    0    0  0.49968733856E+01 -0.34711145509E+01 -0.40583375679E+01  0.73142674734E+01  0.10500000000E+00 0.  1.
    3000001    1    5    5    0    0 -0.20395141436E+02  0.32003408926E+02  0.27188203705E+02  0.46694522139E+02  0.10000000000E+01 0.  1.
        -13    1    6    6    0    0 -0.85639222805E+01  0.58924476215E+01  0.54541694976E+01  0.11739705861E+02  0.10500000000E+00 0.  1.
         13    1    6    6    0    0 -0.29645696092E+01  0.20125973388E+01  0.19183983319E+01  0.40657715351E+01  0.10500000000E+00 0. -1.
</event>
<event>
11    0  0.3494755E-009  0.9118800E+02  0.7816531E-02  0.1126479E+00
         25   -1    0    0    0    0  0.00000000000E+00  0.00000000000E+00  0.99999998245E-14  0.12500000000E+03  0.12500000000E+03 0.  0.
    3000001    1    3    3    0    0 -0.65036172034E+01 -0.97970174772E+01 -0.18110209061E+02  0.21616157392E+02  0.10000000000E+01 0. -1.
    1000022    2    1    0    0    0 -0.30624349793E+02 -0.23084135081E+02 -0.48327237484E+02  0.62499999374E+02  0.99999973098E+01 0.  0.
    3000022    2    3    3    0    0 -0.24120732590E+02 -0.13287117604E+02 -0.30217028423E+02  0.40883841982E+02  0.24998713390E+00 0.  0.
    1000022    2    1    0    0    0  0.30624349793E+02  0.23084135081E+02  0.48327237484E+02  0.62500000626E+02  0.10000005136E+02 0.  0.
    3000022    2    5    5    0    0  0.26448037185E+02  0.17255582712E+02  0.33731989930E+02  0.46207828859E+02  0.24999516408E+00 0.  0.
        -13    1    4    4    0    0 -0.17576277145E+02 -0.96468506568E+01 -0.21969709090E+02  0.29743341916E+02  0.10500000000E+00 0.  1.
         13    1    4    4    0    0 -0.65444554453E+01 -0.36402669474E+01 -0.82473193338E+01  0.11140500066E+02  0.10500000000E+00 0. -1.
    3000001    1    5    5    0    0  0.41763126086E+01  0.58285523698E+01  0.14595247554E+02  0.16292171767E+02  0.10000000000E+01 0.  1.
        -13    1    6    6    0    0  0.10162375156E+02  0.65980870235E+01  0.13023120959E+02  0.17788235598E+02  0.10500000000E+00 0.  1.
         13    1    6    6    0    0  0.16285662029E+02  0.10657495688E+02  0.20708868971E+02  0.28419593261E+02  0.10500000000E+00 0. -1.
</event>
<event>
11    0  0.3494755E-009  0.9118800E+02  0.7816531E-02  0.1126479E+00
         25   -1    0    0    0    0  0.00000000000E+00  0.00000000000E+00  0.99999998245E-14  0.12500000000E+03  0.12500000000E+03 0.  0.
    3000001    1    3    3    0    0 -0.22486339198E+02  0.73688305338E+01  0.28412284650E+02  0.36989093433E+02  0.10000000000E+01 0.  1.
    1000022    2    1    0    0    0 -0.39866298863E+02  0.18827312424E+02  0.43156234864E+02  0.62500000373E+02  0.99999980444E+01 0.  0.
    3000022    2    3    3    0    0 -0.17379959665E+02  0.11458481890E+02  0.14743950214E+02  0.25510906941E+02  0.24999964794E+00 0.  0.
    1000022    2    1    0    0    0  0.39866298863E+02 -0.18827312424E+02 -0.43156234864E+02  0.62499999627E+02  0.99999933773E+01 0.  0.
    3000022    2    5    5    0    0  0.29499526276E+02 -0.88913910895E+01 -0.29094179382E+02  0.42377029890E+02  0.25000478953E+00 0.  0.
        -13    1    4    4    0    0 -0.83413871348E+01  0.54383500980E+01  0.69980864512E+01  0.12171221389E+02  0.10500000000E+00 0.  1.
         13    1    4    4    0    0 -0.90385725306E+01  0.60201317918E+01  0.77458637629E+01  0.13339685552E+02  0.10500000000E+00 0. -1.
    3000001    1    5    5    0    0  0.10366772587E+02 -0.99359213342E+01 -0.14062055482E+02  0.20122969737E+02  0.10000000000E+01 0. -1.
        -13    1    6    6    0    0  0.11125806063E+02 -0.34165893629E+01 -0.10986790964E+02  0.16005537920E+02  0.10500000000E+00 0.  1.
         13    1    6    6    0    0  0.18373720213E+02 -0.54748017266E+01 -0.18107388418E+02  0.26371491970E+02  0.10500000000E+00 0. -1.
</event>
<event>
11    0  0.3494755E-009  0.9118800E+02  0.7816531E-02  0.1126479E+00
         25   -1    0    0    0    0  0.00000000000E+00  0.00000000000E+00  0.99999998245E-14  0.12500000000E+03  0.12500000000E+03 0.  0.
    3000001    1    3    3    0    0  0.15809889311E+02  0.20716439791E+02 -0.15340213323E+02  0.30256331940E+02  0.10000000000E+01 0. -1.
    1000022    2    1    0    0    0  0.27460857138E+02  0.49017471018E+02 -0.25484092926E+02  0.62500001251E+02  0.10000001221E+02 0.  0.
    3000022    2    3    3    0    0  0.11650967826E+02  0.28301031227E+02 -0.10143879603E+02  0.32243669311E+02  0.24999493743E+00 0.  0.
    1000022    2    1    0    0    0 -0.27460857138E+02 -0.49017471018E+02  0.25484092926E+02  0.62499998749E+02  0.99999855772E+01 0.  0.
    3000022    2    5    5    0    0 -0.27387309993E+02 -0.43978857678E+02  0.24311918115E+02  0.57230555955E+02  0.25000221837E+00 0.  0.
        -13    1    4    4    0    0  0.35262570263E+01  0.84476702801E+01 -0.30257135984E+01  0.96417627826E+01  0.10500000000E+00 0.  1.
         13    1    4    4    0    0  0.81247107998E+01  0.19853360947E+02 -0.71181660047E+01  0.22601906529E+02  0.10500000000E+00 0. -1.
    3000001    1    5    5    0    0 -0.73547144623E-01 -0.50386133397E+01  0.11721748117E+01  0.52694427939E+01  0.10000000000E+01 0.  1.
        -13    1    6    6    0    0 -0.82516828527E+01 -0.13178006640E+02  0.72685664294E+01  0.17163717891E+02  0.10500000000E+00 0. -1.
         13    1    6    6    0    0 -0.19135627140E+02 -0.30800851038E+02  0.17043351685E+02  0.40066838063E+02  0.10500000000E+00 0.  1.
</event>
<event>
11    0  0.3494755E-009  0.9118800E+02  0.7816531E-02  0.1126479E+00
         25   -1    0    0    0    0  0.00000000000E+00  0.00000000000E+00  0.99999998245E-14  0.12500000000E+03  0.12500000000E+03 0.  0.
    3000001    1    3    3    0    0  0.25270362537E+02  0.22880137874E+02 -0.31095646874E+02  0.46152260902E+02  0.10000000000E+01 0. -1.
    1000022    2    1    0    0    0  0.33660159044E+02  0.25770933533E+02 -0.44823018807E+02  0.62500001068E+02  0.99999898255E+01 0.  0.
    3000022    2    3    3    0    0  0.83897965067E+01  0.28907956593E+01 -0.13727371933E+02  0.16347740166E+02  0.24996674241E+00 0.  0.
    1000022    2    1    0    0    0 -0.33660159044E+02 -0.25770933533E+02  0.44823018807E+02  0.62499998932E+02  0.99999764792E+01 0.  0.
    3000022    2    5    5    0    0 -0.32620541191E+02 -0.22122611093E+02  0.42391393706E+02  0.57884388189E+02  0.25001296903E+00 0.  0.
        -13    1    4    4    0    0  0.59726872717E+01  0.20139788270E+01 -0.97290547339E+01  0.11592870006E+02  0.10500000000E+00 0. -1.
         13    1    4    4    0    0  0.24171092350E+01  0.87681683234E+00 -0.39983171990E+01  0.47548701596E+01  0.10500000000E+00 0.  1.
    3000001    1    5    5    0    0 -0.10396178532E+01 -0.36483224402E+01  0.24316251004E+01  0.46156107436E+01  0.10000000000E+01 0.  1.
        -13    1    6    6    0    0 -0.19639887939E+02 -0.13262387832E+02  0.25426877868E+02  0.34758499283E+02  0.10500000000E+00 0. -1.
         13    1    6    6    0    0 -0.12980653251E+02 -0.88602232605E+01  0.16964515838E+02  0.23125888906E+02  0.10500000000E+00 0.  1.
</event>
<event>
11    0  0.3494755E-009  0.9118800E+02  0.7816531E-02  0.1126479E+00
         25   -1    0    0    0    0  0.00000000000E+00  0.00000000000E+00  0.99999998245E-14  0.12500000000E+03  0.12500000000E+03 0.  0.
    3000001    1    3    3    0    0 -0.29575601981E+01  0.41993078898E+01  0.85136365979E+01  0.99931655244E+01  0.10000000000E+01 0.  1.
    1000022    2    1    0    0    0 -0.37922499673E+02  0.21172537513E+02  0.43816167942E+02  0.62500010163E+02  0.10000118558E+02 0.  0.
    3000022    2    3    3    0    0 -0.34964939475E+02  0.16973229623E+02  0.35302531344E+02  0.52506844639E+02  0.24999672239E+00 0.  0.
    1000022    2    1    0    0    0  0.37922499673E+02 -0.21172537513E+02 -0.43816167942E+02  0.62499989837E+02  0.99999915152E+01 0.  0.
    3000022    2    5    5    0    0  0.81388771514E+01 -0.46763712883E+00 -0.63001465556E+01  0.10306034908E+02  0.25000627766E+00 0.  0.
        -13    1    4    4    0    0 -0.13955963709E+02  0.67074460853E+01  0.14041116965E+02  0.20902697114E+02  0.10500000000E+00 0. -1.
         13    1    4    4    0    0 -0.21008975766E+02  0.10265783538E+02  0.21261414379E+02  0.31604147525E+02  0.10500000000E+00 0.  1.
    3000001    1    5    5    0    0  0.29783622521E+02 -0.20704900384E+02 -0.37516021386E+02  0.52193954928E+02  0.10000000000E+01 0. -1.
        -13    1    6    6    0    0  0.41812592417E+01 -0.17296745265E+00 -0.32447750834E+01  0.52964551284E+01  0.10500000000E+00 0. -1.
         13    1    6    6    0    0  0.39576179097E+01 -0.29466967618E+00 -0.30553714722E+01  0.50095797798E+01  0.10500000000E+00 0.  1.
</event>
<event>
11    0  0.3494755E-009  0.9118800E+02  0.7816531E-02  0.1126479E+00
         25   -1    0    0    0    0  0.00000000000E+00  0.00000000000E+00  0.99999998245E-14  0.12500000000E+03  0.12500000000E+03 0.  0.
    3000001    1    3    3    0    0  0.10623265644E+02  0.77717490777E+01 -0.89381914519E+01  0.15941929717E+02  0.10000000000E+01 0.  1.
    1000022    2    1    0    0    0  0.30991574816E+02  0.25390127065E+02 -0.46916028489E+02  0.62499999600E+02  0.99999979424E+01 0.  0.
    3000022    2    3    3    0    0  0.20368309171E+02  0.17618377988E+02 -0.37977837037E+02  0.46558069882E+02  0.25000753083E+00 0.  0.
    1000022    2    1    0    0    0 -0.30991574816E+02 -0.25390127065E+02  0.46916028489E+02  0.62500000400E+02  0.10000002948E+02 0.  0.
    3000022    2    5    5    0    0 -0.16979998455E+01  0.80397100432E-02  0.54914051656E+01  0.57533720642E+01  0.24998260532E+00 0.  0.
        -13    1    4    4    0    0  0.78700588434E+01  0.67269643786E+01 -0.14612956169E+02  0.17909198445E+02  0.10500000000E+00 0.  1.
         13    1    4    4    0    0  0.12498250328E+02  0.10891413609E+02 -0.23364880868E+02  0.28648871438E+02  0.10500000000E+00 0. -1.
    3000001    1    5    5    0    0 -0.29293574970E+02 -0.25398166775E+02  0.41424623323E+02  0.56746628336E+02  0.10000000000E+01 0. -1.
        -13    1    6    6    0    0 -0.70764219230E+00  0.54311803438E-01  0.24321842820E+01  0.25357942791E+01  0.10500000000E+00 0.  1.
         13    1    6    6    0    0 -0.99035765324E+00 -0.46272093395E-01  0.30592208837E+01  0.32175777851E+01  0.10500000000E+00 0. -1.
</event>
<event>
11    0  0.3494755E-009  0.9118800E+02  0.7816531E-02  0.1126479E+00
         25   -1    0    0    0    0  0.00000000000E+00  0.00000000000E+00  0.99999998245E-14  0.12500000000E+03  0.12500000000E+03 0.  0.
    3000001    1    3    3    0    0 -0.19960310582E+02 -0.15856152608E+02  0.16397549545E+02  0.30326740760E+02  0.10000000000E+01 0.  1.
    1000022    2    1    0    0    0 -0.47655188267E+02 -0.27160263062E+02  0.28240983163E+02  0.62499999569E+02  0.99999978903E+01 0.  0.
    3000022    2    3    3    0    0 -0.27694877684E+02 -0.11304110454E+02  0.11843433619E+02  0.32173258809E+02  0.24999881291E+00 0.  0.
    1000022    2    1    0    0    0  0.47655188267E+02  0.27160263062E+02 -0.28240983163E+02  0.62500000431E+02  0.10000003273E+02 0.  0.
    3000022    2    5    5    0    0  0.12089300075E+02  0.91667800983E+01 -0.34857947527E+01  0.15569017218E+02  0.24999682549E+00 0.  0.
        -13    1    4    4    0    0 -0.12156812039E+02 -0.50333974610E+01  0.52073152392E+01  0.14150983215E+02  0.10500000000E+00 0.  1.
         13    1    4    4    0    0 -0.15538065646E+02 -0.62707129933E+01  0.66361183794E+01  0.18022275594E+02  0.10500000000E+00 0. -1.
    3000001    1    5    5    0    0  0.35565888192E+02  0.17993482964E+02 -0.24755188410E+02  0.46930983212E+02  0.10000000000E+01 0.  1.
        -13    1    6    6    0    0  0.53230360893E+01  0.39672980667E+01 -0.14877645341E+01  0.68043100655E+01  0.10500000000E+00 0. -1.
         13    1    6    6    0    0  0.67662639857E+01  0.51994820316E+01 -0.19980302186E+01  0.87647071529E+01  0.10500000000E+00 0.  1.
</event>
<event>
11    0  0.3494755E-009  0.9118800E+02  0.7816531E-02  0.1126479E+00
         25   -1    0    0    0    0  0.00000000000E+00  0.00000000000E+00  0.99999998245E-14  0.12500000000E+03  0.12500000000E+03 0.  0.
    3000001    1    3    3    0    0  0.10071113057E+02  0.51979798658E+01 -0.94537246793E+01  0.14792539444E+02  0.10000000000E+01 0. -1.
    1000022    2    1    0    0    0  0.52945498927E+02  0.13284842593E+02 -0.28749556613E+02  0.62500001572E+02  0.10000014588E+02 0.  0.
    3000022    2    3    3    0    0  0.42874385869E+02  0.80868627267E+01 -0.19295831934E+02  0.47707462128E+02  0.25000044076E+00 0.  0.
    1000022    2    1    0    0    0 -0.52945498927E+02 -0.13284842593E+02  0.28749556613E+02  0.62499998428E+02  0.99999949376E+01 0.  0.
    3000022    2    5    5    0    0 -0.32232401224E+02 -0.95244508616E+01  0.12396578398E+02  0.35824300519E+02  0.24999768991E+00 0.  0.
        -13    1    4    4    0    0  0.23249076964E+02  0.44274259780E+01 -0.10409308897E+02  0.25855104277E+02  0.10500000000E+00 0. -1.
         13    1    4    4    0    0  0.19625308906E+02  0.36594367487E+01 -0.88865230373E+01  0.21852357851E+02  0.10500000000E+00 0.  1.
    3000001    1    5    5    0    0 -0.20713097703E+02 -0.37603917309E+01  0.16352978215E+02  0.26675697909E+02  0.10000000000E+01 0.  1.
        -13    1    6    6    0    0 -0.11297922838E+02 -0.33973989924E+01  0.43558862954E+01  0.12576571504E+02  0.10500000000E+00 0. -1.
         13    1    6    6    0    0 -0.20934478386E+02 -0.61270518693E+01  0.80406921025E+01  0.23247729015E+02  0.10500000000E+00 0.  1.
</event>
<event>
11    0  0.3494755E-009  0.9118800E+02  0.7816531E-02  0.1126479E+00
         25   -1    0    0    0    0  0.00000000000E+00  0.00000000000E+00  0.99999998245E-14  0.12500000000E+03  0.12500000000E+03 0.  0.
    3000001    1    3    3    0    0  0.94256366858E+01  0.25953572625E+02 -0.43498445186E+02  0.51531983200E+02  0.10000000000E+01 0. -1.
    1000022    2    1    0    0    0  0.75244054434E+01  0.29315580651E+02 -0.53760859565E+02  0.62500001604E+02  0.10000011658E+02 0.  0.
    3000022    2    3    3    0    0 -0.19012312424E+01  0.33620080265E+01 -0.10262414379E+02  0.10968018404E+02  0.25000124689E+00 0.  0.
    1000022    2    1    0    0    0 -0.75244054434E+01 -0.29315580651E+02  0.53760859565E+02  0.62499998396E+02  0.99999916065E+01 0.  0.
    3000022    2    5    5    0    0 -0.93896536840E+01 -0.19161891014E+02  0.33120133844E+02  0.39399865873E+02  0.25000299145E+00 0.  0.
        -13    1    4    4    0    0 -0.13747786782E+01  0.24700339088E+01 -0.74166109945E+01  0.79377722043E+01  0.10500000000E+00 0.  1.
         13    1    4    4    0    0 -0.52645256419E+00  0.89197411777E+00 -0.28458033844E+01  0.30302461999E+01  0.10500000000E+00 0. -1.
    3000001    1    5    5    0    0  0.18652482405E+01 -0.10153689637E+02  0.20640725721E+02  0.23100132522E+02  0.10000000000E+01 0. -1.
        -13    1    6    6    0    0 -0.52333569358E+01 -0.10530003495E+02  0.18267347092E+02  0.21725008474E+02  0.10500000000E+00 0.  1.
         13    1    6    6    0    0 -0.41562967481E+01 -0.86318875186E+01  0.14852786751E+02  0.17674857399E+02  0.10500000000E+00 0. -1.
</event>
<event>
11    0  0.3494755E-009  0.9118800E+02  0.7816531E-02  0.1126479E+00
         25   -1    0    0    0    0  0.00000000000E+00  0.00000000000E+00  0.99999998245E-14  0.12500000000E+03  0.12500000000E+03 0.  0.
    3000001    1    3    3    0    0 -0.14260494547E+02 -0.71973046089E+01 -0.57823118077E+01  0.17017579975E+02  0.10000000000E+01 0. -1.
    1000022    2    1    0    0    0 -0.56431082631E+02 -0.24233168267E+02 -0.58767659701E+01  0.62500000480E+02  0.10000007528E+02 0.  0.
    3000022    2    3    3    0    0 -0.42170588083E+02 -0.17035863659E+02 -0.94454162393E-01  0.45482420505E+02  0.25000697861E+00 0.  0.
    1000022    2    1    0    0    0  0.56431082631E+02  0.24233168267E+02  0.58767659701E+01  0.62499999520E+02  0.10000001532E+02 0.  0.
    3000022    2    5    5    0    0  0.21480849157E+02  0.14042995949E+02  0.37667366720E+00  0.25667820015E+02  0.24997113406E+00 0.  0.
        -13    1    4    4    0    0 -0.12824491399E+02 -0.52178534183E+01 -0.60816140515E-01  0.13845876554E+02  0.10500000000E+00 0.  1.
         13    1    4    4    0    0 -0.29346096684E+02 -0.11818010240E+02 -0.33638021878E-01  0.31636543951E+02  0.10500000000E+00 0. -1.
    3000001    1    5    5    0    0  0.34950233474E+02  0.10190172318E+02  0.55000923029E+01  0.36832179505E+02  0.10000000000E+01 0.  1.
        -13    1    6    6    0    0  0.10817411447E+02  0.70788318174E+01  0.25728652069E+00  0.12930718142E+02  0.10500000000E+00 0. -1.
         13    1    6    6    0    0  0.10663437710E+02  0.69641641317E+01  0.11938714650E+00  0.12737101873E+02  0.10500000000E+00 0.  1.
</event>
<event>
11    0  0.3494755E-009  0.9118800E+02  0.7816531E-02  0.1126479E+00
         25   -1    0    0    0    0  0.00000000000E+00  0.00000000000E+00  0.99999998245E-14  0.12500000000E+03  0.12500000000E+03 0.  0.
    3000001    1    3    3    0    0 -0.39110189121E+01  0.22424437089E+01  0.61743866148E+00  0.46589540906E+01  0.10000000000E+01 0. -1.
    1000022    2    1    0    0    0 -0.32083092047E+02  0.52532829502E+02 -0.41506510343E+01  0.62499993055E+02  0.99999128518E+01 0.  0.
    3000022    2    3    3    0    0 -0.28172073135E+02  0.50290385793E+02 -0.47680896958E+01  0.57841038964E+02  0.25000229696E+00 0.  0.
    1000022    2    1    0    0    0  0.32083092047E+02 -0.52532829502E+02  0.41506510343E+01  0.62500006945E+02  0.99999996678E+01 0.  0.
    3000022    2    5    5    0    0  0.56597526229E+01 -0.13747215078E+02  0.45741014168E+01  0.15556465719E+02  0.24999952449E+00 0.  0.
        -13    1    4    4    0    0 -0.12350448390E+02  0.21957520923E+02 -0.21334293299E+01  0.25282975422E+02  0.10500000000E+00 0.  1.
         13    1    4    4    0    0 -0.15821624745E+02  0.28332864871E+02 -0.26346603659E+01  0.32558063542E+02  0.10500000000E+00 0. -1.
    3000001    1    5    5    0    0  0.26423339424E+02 -0.38785614424E+02 -0.42345038244E+00  0.46943541226E+02  0.10000000000E+01 0.  1.
        -13    1    6    6    0    0  0.27396951841E+01 -0.68130170256E+01  0.22268622341E+01  0.76741821129E+01  0.10500000000E+00 0.  1.
         13    1    6    6    0    0  0.29200574388E+01 -0.69341980522E+01  0.23472391827E+01  0.78822836066E+01  0.10500000000E+00 0. -1.
</event>
<event>
11    0  0.3494755E-009  0.9118800E+02  0.7816531E-02  0.1126479E+00
         25   -1    0    0    0    0  0.00000000000E+00  0.00000000000E+00  0.99999998245E-14  0.12500000000E+03  0.12500000000E+03 0.  0.
    3000001    1    3    3    0    0  0.17486791236E+02 -0.16340347254E+01 -0.38841803621E+01  0.18015126819E+02  0.10000000000E+01 0. -1.
    1000022    2    1    0    0    0  0.59807806800E+02 -0.15087568990E+02 -0.12812029146E+01  0.62499999891E+02  0.10000000661E+02 0.  0.
    3000022    2    3    3    0    0  0.42321015564E+02 -0.13453534264E+02  0.26029774475E+01  0.44484873072E+02  0.24999616029E+00 0.  0.
    1000022    2    1    0    0    0 -0.59807806800E+02  0.15087568990E+02  0.12812029146E+01  0.62500000109E+02  0.10000002029E+02 0.  0.
    3000022    2    5    5    0    0 -0.13995865063E+02  0.17179722856E+01 -0.34905265838E+01  0.14528659456E+02  0.25000422464E+00 0.  0.
        -13    1    4    4    0    0  0.26147121349E+02 -0.82659338154E+01  0.16499982950E+01  0.27472370412E+02  0.10500000000E+00 0.  1.
         13    1    4    4    0    0  0.16173894215E+02 -0.51876004490E+01  0.95297915247E+00  0.17012502660E+02  0.10500000000E+00 0. -1.
    3000001    1    5    5    0    0 -0.45811941736E+02  0.13369596704E+02  0.47717294985E+01  0.47971340653E+02  0.10000000000E+01 0.  1.
        -13    1    6    6    0    0 -0.36338992094E+01  0.47788606307E+00 -0.90848157808E+00  0.37775603676E+01  0.10500000000E+00 0.  1.
         13    1    6    6    0    0 -0.10361965854E+02  0.12400862226E+01 -0.25820450058E+01  0.10751099088E+02  0.10500000000E+00 0. -1.
</event>
<event>
11    0  0.3494755E-009  0.9118800E+02  0.7816531E-02  0.1126479E+00
         25   -1    0    0    0    0  0.00000000000E+00  0.00000000000E+00  0.99999998245E-14  0.12500000000E+03  0.12500000000E+03 0.  0.
    3000001    1    3    3    0    0  0.25778773137E+02 -0.10355243942E+02 -0.10777326220E+02  0.29814878534E+02  0.10000000000E+01 0. -1.
    1000022    2    1    0    0    0  0.54307755847E+02 -0.12173831150E+02 -0.26621712217E+02  0.62499999971E+02  0.99999962473E+01 0.  0.
    3000022    2    3    3    0    0  0.28528982710E+02 -0.18185872082E+01 -0.15844385997E+02  0.32685121437E+02  0.24996359621E+00 0.  0.
    1000022    2    1    0    0    0 -0.54307755847E+02  0.12173831150E+02  0.26621712217E+02  0.62500000029E+02  0.99999966142E+01 0.  0.
    3000022    2    5    5    0    0 -0.27531852302E+02  0.59783169438E+01  0.80044971150E+01  0.29289548285E+02  0.24999997910E+00 0.  0.
        -13    1    4    4    0    0  0.18815403010E+02 -0.12162039908E+01 -0.10390405782E+02  0.21528355717E+02  0.10500000000E+00 0.  1.
         13    1    4    4    0    0  0.97135797004E+01 -0.60238321748E+00 -0.54539802151E+01  0.11156765720E+02  0.10500000000E+00 0. -1.
    3000001    1    5    5    0    0 -0.26775903545E+02  0.61955142064E+01  0.18617215102E+02  0.33210451744E+02  0.10000000000E+01 0.  1.
        -13    1    6    6    0    0 -0.15726318769E+02  0.33762988974E+01  0.46255006015E+01  0.16736868796E+02  0.10500000000E+00 0. -1.
         13    1    6    6    0    0 -0.11805533533E+02  0.26020180464E+01  0.33789965135E+01  0.12552679489E+02  0.10500000000E+00 0.  1.
</event>
<event>
11    0  0.3494755E-009  0.9118800E+02  0.7816531E-02  0.1126479E+00
         25   -1    0    0    0    0  0.00000000000E+00  0.00000000000E+00  0.99999998245E-14  0.12500000000E+03  0.12500000000E+03 0.  0.
    3000001    1    3    3    0    0 -0.42633573606E+02  0.33020640945E+02 -0.30065087171E+02  0.61748633940E+02  0.10000000000E+01 0. -1.
    1000022    2    1    0    0    0 -0.43042055727E+02  0.32919154215E+02 -0.29495092127E+02  0.62499999931E+02  0.10000012820E+02 0.  0.
    3000022    2    3    3    0    0 -0.40848212107E+00 -0.10148672970E+00  0.56999504405E+00  0.75136599162E+00  0.24999860715E+00 0.  0.
    1000022    2    1    0    0    0  0.43042055727E+02 -0.32919154215E+02  0.29495092127E+02  0.62500000069E+02  0.10000013678E+02 0.  0.
    3000022    2    5    5    0    0  0.32386361575E+02 -0.28116945186E+02  0.26417554895E+02  0.50372499715E+02  0.24999647009E+00 0.  0.
        -13    1    4    4    0    0 -0.30782890751E+00 -0.35364923085E-01  0.34551088140E+00  0.47582778739E+00  0.10500000000E+00 0.  1.
         13    1    4    4    0    0 -0.10065321356E+00 -0.66121806618E-01  0.22448416264E+00  0.27553820423E+00  0.10500000000E+00 0.  1.
    3000001    1    5    5    0    0  0.10655694152E+02 -0.48022090287E+01  0.30775372322E+01  0.12127500354E+02  0.10000000000E+01 0.  1.
        -13    1    6    6    0    0  0.21882397569E+02 -0.19043729392E+02  0.17912580146E+02  0.34093613845E+02  0.10500000000E+00 0.  1.
         13    1    6    6    0    0  0.10503964007E+02 -0.90732157946E+01  0.85049747488E+01  0.16278885870E+02  0.10500000000E+00 0. -1.
</event>
<event>
11    0  0.3494755E-009  0.9118800E+02  0.7816531E-02  0.1126479E+00
         25   -1    0    0    0    0  0.00000000000E+00  0.00000000000E+00  0.99999998245E-14  0.12500000000E+03  0.12500000000E+03 0.  0.
    3000001    1    3    3    0    0  0.35241354804E+02 -0.89202198244E+01  0.18206286976E+02  0.40669304095E+02  0.10000000000E+01 0. -1.
    1000022    2    1    0    0    0  0.51909979621E+02 -0.83109072221E+01  0.32288280387E+02  0.62500001540E+02  0.99999989527E+01 0.  0.
    3000022    2    3    3    0    0  0.16668624817E+02  0.60931260234E+00  0.14081993411E+02  0.21830697445E+02  0.24999473422E+00 0.  0.
    1000022    2    1    0    0    0 -0.51909979621E+02  0.83109072221E+01 -0.32288280387E+02  0.62499998460E+02  0.99999796987E+01 0.  0.
    3000022    2    5    5    0    0 -0.27912168205E+02  0.29233027062E+01 -0.11690286281E+02  0.30403291520E+02  0.25001857373E+00 0.  0.
        -13    1    4    4    0    0  0.40802394638E+01  0.12970113114E+00  0.34633248174E+01  0.53545140074E+01  0.10500000000E+00 0.  1.
         13    1    4    4    0    0  0.12588385354E+02  0.47961147120E+00  0.10618668593E+02  0.16476183438E+02  0.10500000000E+00 0. -1.
    3000001    1    5    5    0    0 -0.23997811416E+02  0.53876045159E+01 -0.20597994106E+02  0.32096706940E+02  0.10000000000E+01 0. -1.
        -13    1    6    6    0    0 -0.16240940979E+02  0.17524027911E+01 -0.67614277776E+01  0.17679564757E+02  0.10500000000E+00 0.  1.
         13    1    6    6    0    0 -0.11671227227E+02  0.11708999151E+01 -0.49288585030E+01  0.12723726763E+02  0.10500000000E+00 0. -1.
</event>
<event>
11    0  0.3494755E-009  0.9118800E+02  0.7816531E-02  0.1126479E+00
         25   -1    0    0    0    0  0.00000000000E+00  0.00000000000E+00  0.99999998245E-14  0.12500000000E+03  0.12500000000E+03 0.  0.
    3000001    1    3    3    0    0 -0.10973348767E+02  0.10239444006E+02  0.30047043865E+01  0.15339127914E+02  0.10000000000E+01 0. -1.
    1000022    2    1    0    0    0 -0.54239593147E+02  0.28695967086E+02  0.63920438990E+01  0.62499998561E+02  0.99999801594E+01 0.  0.
    3000022    2    3    3    0    0 -0.43266244379E+02  0.18456523080E+02  0.33873395125E+01  0.47160870647E+02  0.25000853852E+00 0.  0.
    1000022    2    1    0    0    0  0.54239593147E+02 -0.28695967086E+02 -0.63920438990E+01  0.62500001439E+02  0.99999981485E+01 0.  0.
    3000022    2    5    5    0    0  0.44764965524E+02 -0.27414996409E+02 -0.64402785629E+01  0.52886896788E+02  0.24999469529E+00 0.  0.
        -13    1    4    4    0    0 -0.18453058312E+02  0.78066474402E+01  0.14689573355E+01  0.20090494418E+02  0.10500000000E+00 0. -1.
         13    1    4    4    0    0 -0.24813186067E+02  0.10649875640E+02  0.19183821770E+01  0.27070376228E+02  0.10500000000E+00 0.  1.
    3000001    1    5    5    0    0  0.94746276224E+01 -0.12809706766E+01  0.48234663909E-01  0.96131046515E+01  0.10000000000E+01 0. -1.
        -13    1    6    6    0    0  0.19535544880E+02 -0.11891560031E+02 -0.27827884455E+01  0.23039133019E+02  0.10500000000E+00 0.  1.
         13    1    6    6    0    0  0.25229420644E+02 -0.15523436378E+02 -0.36574901174E+01  0.29847763768E+02  0.10500000000E+00 0. -1.
</event>
<event>
11    0  0.3494755E-009  0.9118800E+02  0.7816531E-02  0.1126479E+00
         25   -1    0    0    0    0  0.00000000000E+00  0.00000000000E+00  0.99999998245E-14  0.12500000000E+03  0.12500000000E+03 0.  0.
    3000001    1    3    3    0    0  0.23407279878E+02  0.23331465094E+02 -0.15408819742E+02  0.36478620321E+02  0.10000000000E+01 0.  1.
    1000022    2    1    0    0    0  0.41106223444E+02  0.33468891276E+02 -0.31565217266E+02  0.62499990302E+02  0.99998778765E+01 0.  0.
    3000022    2    3    3    0    0  0.17698943567E+02  0.10137426183E+02 -0.16156397524E+02  0.26021369981E+02  0.25000346031E+00 0.  0.
    1000022    2    1    0    0    0 -0.41106223444E+02 -0.33468891276E+02  0.31565217266E+02  0.62500009698E+02  0.99999991054E+01 0.  0.
    3000022    2    5    5    0    0 -0.38211358379E+01 -0.76064166992E+01  0.41274785325E+01  0.94634670519E+01  0.24995101911E+00 0.  0.
        -13    1    4    4    0    0  0.12072265430E+02  0.68790883857E+01 -0.10954702303E+02  0.17694009641E+02  0.10500000000E+00 0. -1.
         13    1    4    4    0    0  0.56266781363E+01  0.32583377968E+01 -0.52016952209E+01  0.83273603392E+01  0.10500000000E+00 0.  1.
    3000001    1    5    5    0    0 -0.37285087606E+02 -0.25862474577E+02  0.27437738734E+02  0.53036542646E+02  0.10000000000E+01 0.  1.
        -13    1    6    6    0    0 -0.28245349322E+01 -0.55789646219E+01  0.30003174333E+01  0.69365534335E+01  0.10500000000E+00 0. -1.
         13    1    6    6    0    0 -0.99660090569E+00 -0.20274520773E+01  0.11271610992E+01  0.25269136184E+01  0.10500000000E+00 0.  1.
</event>
<event>
11    0  0.3494755E-009  0.9118800E+02  0.7816531E-02  0.1126479E+00
         25   -1    0    0    0    0  0.00000000000E+00  0.00000000000E+00  0.99999998245E-14  0.12500000000E+03  0.12500000000E+03 0.  0.
    3000001    1    3    3    0    0 -0.94308403960E+01  0.12654819815E+01 -0.25934288944E+02  0.27642893088E+02  0.10000000000E+01 0. -1.
    1000022    2    1    0    0    0 -0.30960446810E+02  0.13665673242E+01 -0.53346341558E+02  0.62499991327E+02  0.99999992658E+01 0.  0.
    3000022    2    3    3    0    0 -0.21529606414E+02  0.10108534270E+00 -0.27412052614E+02  0.34857098239E+02  0.24999712299E+00 0.  0.
    1000022    2    1    0    0    0  0.30960446810E+02 -0.13665673242E+01  0.53346341558E+02  0.62500008673E+02  0.10000107679E+02 0.  0.
    3000022    2    5    5    0    0  0.19830771138E+02 -0.21265553051E+01  0.42310158261E+02  0.46775995061E+02  0.25000100661E+00 0.  0.
        -13    1    4    4    0    0 -0.82936664721E+01  0.12842544662E-01 -0.10650046583E+02  0.13498873497E+02  0.10500000000E+00 0. -1.
         13    1    4    4    0    0 -0.13235939942E+02  0.88242798042E-01 -0.16762006031E+02  0.21358224742E+02  0.10500000000E+00 0.  1.
    3000001    1    5    5    0    0  0.11129675673E+02  0.75998798093E+00  0.11036183297E+02  0.15724013612E+02  0.10000000000E+01 0. -1.
        -13    1    6    6    0    0  0.72141867083E+01 -0.72026823356E+00  0.15322242523E+02  0.16951265945E+02  0.10500000000E+00 0. -1.
         13    1    6    6    0    0  0.12616584429E+02 -0.14062870716E+01  0.26987915738E+02  0.29824729116E+02  0.10500000000E+00 0.  1.
</event>
<event>
11    0  0.3494755E-009  0.9118800E+02  0.7816531E-02  0.1126479E+00
         25   -1    0    0    0    0  0.00000000000E+00  0.00000000000E+00  0.99999998245E-14  0.12500000000E+03  0.12500000000E+03 0.  0.
    3000001    1    3    3    0    0  0.14119666407E+01  0.24857907872E+02  0.10707703283E+02  0.27121285795E+02  0.10000000000E+01 0. -1.
    1000022    2    1    0    0    0 -0.23106334312E+00  0.60014731683E+02  0.14297854822E+02  0.62500001797E+02  0.10000008142E+02 0.  0.
    3000022    2    3    3    0    0 -0.16430299838E+01  0.35156823811E+02  0.35901515387E+01  0.35378716002E+02  0.25009970737E+00 0.  0.
    1000022    2    1    0    0    0  0.23106334312E+00 -0.60014731683E+02 -0.14297854822E+02  0.62499998203E+02  0.99999856815E+01 0.  0.
    3000022    2    5    5    0    0  0.27837517547E+00 -0.59679196433E+02 -0.14519376055E+02  0.61421159026E+02  0.25003091995E+00 0.  0.
        -13    1    4    4    0    0 -0.87303412766E+00  0.19707163045E+02  0.19662904982E+01  0.19824524892E+02  0.10500000000E+00 0.  1.
         13    1    4    4    0    0 -0.76999585614E+00  0.15449660766E+02  0.16238610405E+01  0.15554191110E+02  0.10500000000E+00 0. -1.
    3000001    1    5    5    0    0 -0.47311832353E-01 -0.33553525039E+00  0.22152123325E+00  0.10788391773E+01  0.10000000000E+01 0. -1.
        -13    1    6    6    0    0  0.89277983958E-01 -0.14721323573E+02 -0.35683305450E+01  0.15148245647E+02  0.10500000000E+00 0.  1.
         13    1    6    6    0    0  0.18909719151E+00 -0.44957872860E+02 -0.10951045510E+02  0.46272913379E+02  0.10500000000E+00 0. -1.
</event>
<event>
11    0  0.3494755E-009  0.9118800E+02  0.7816531E-02  0.1126479E+00
         25   -1    0    0    0    0  0.00000000000E+00  0.00000000000E+00  0.99999998245E-14  0.12500000000E+03  0.12500000000E+03 0.  0.
    3000001    1    3    3    0    0 -0.30124499692E+01  0.18077425380E+02  0.10608183656E+02  0.21199097237E+02  0.10000000000E+01 0.  1.
    1000022    2    1    0    0    0 -0.19073534853E+02  0.45810524603E+02  0.36658501630E+02  0.62500002766E+02  0.10000035386E+02 0.  0.
    3000022    2    3    3    0    0 -0.16061084884E+02  0.27733099223E+02  0.26050317974E+02  0.41300905528E+02  0.24998151934E+00 0.  0.
    1000022    2    1    0    0    0  0.19073534853E+02 -0.45810524603E+02 -0.36658501630E+02  0.62499997234E+02  0.10000000816E+02 0.  0.
    3000022    2    5    5    0    0  0.94065287382E+01 -0.33497543559E+02 -0.27377840580E+02  0.44273884677E+02  0.25000439084E+00 0.  0.
        -13    1    4    4    0    0 -0.52433694777E+01  0.90271820778E+01  0.85507138134E+01  0.13494764595E+02  0.10500000000E+00 0.  1.
         13    1    4    4    0    0 -0.10817715406E+02  0.18705917146E+02  0.17499604161E+02  0.27806140934E+02  0.10500000000E+00 0. -1.
    3000001    1    5    5    0    0  0.96670061147E+01 -0.12312981045E+02 -0.92806610495E+01  0.18226112557E+02  0.10000000000E+01 0.  1.
        -13    1    6    6    0    0  0.54401642977E+01 -0.19408968085E+02 -0.15779259225E+02  0.25598817871E+02  0.10500000000E+00 0.  1.
         13    1    6    6    0    0  0.39663644405E+01 -0.14088575474E+02 -0.11598581355E+02  0.18675066806E+02  0.10500000000E+00 0. -1.
</event>
<event>
11    0  0.3494755E-009  0.9118800E+02  0.7816531E-02  0.1126479E+00
         25   -1    0    0    0    0  0.00000000000E+00  0.00000000000E+00  0.99999998245E-14  0.12500000000E+03  0.12500000000E+03 0.  0.
    3000001    1    3    3    0    0  0.18274906410E+00  0.56874822638E+01 -0.29027261880E+01  0.64658078416E+01  0.10000000000E+01 0. -1.
    1000022    2    1    0    0    0 -0.18377036083E+02  0.41383121829E+02 -0.41904314718E+02  0.62500000195E+02  0.10000010241E+02 0.  0.
    3000022    2    3    3    0    0 -0.18559785147E+02  0.35695639565E+02 -0.39001588530E+02  0.56034192353E+02  0.24999220030E+00 0.  0.
    1000022    2    1    0    0    0  0.18377036083E+02 -0.41383121829E+02  0.41904314718E+02  0.62499999805E+02  0.10000007808E+02 0.  0.
    3000022    2    5    5    0    0  0.16259180886E+02 -0.25041880519E+02  0.26564421079E+02  0.39964831400E+02  0.25007713492E+00 0.  0.
        -13    1    4    4    0    0 -0.96784503277E+01  0.18475085660E+02 -0.20188964404E+02  0.29027685054E+02  0.10500000000E+00 0.  1.
         13    1    4    4    0    0 -0.88813348193E+01  0.17220553905E+02 -0.18812624127E+02  0.27006507299E+02  0.10500000000E+00 0. -1.
    3000001    1    5    5    0    0  0.21178551971E+01 -0.16341241310E+02  0.15339893640E+02  0.22535168406E+02  0.10000000000E+01 0.  1.
        -13    1    6    6    0    0  0.61505168103E+01 -0.94679421057E+01  0.99642268036E+01  0.15058805582E+02  0.10500000000E+00 0. -1.
         13    1    6    6    0    0  0.10108664076E+02 -0.15573938413E+02  0.16600194275E+02  0.24906025818E+02  0.10500000000E+00 0.  1.
</event>
<event>
11    0  0.3494755E-009  0.9118800E+02  0.7816531E-02  0.1126479E+00
         25   -1    0    0    0    0  0.00000000000E+00  0.00000000000E+00  0.99999998245E-14  0.12500000000E+03  0.12500000000E+03 0.  0.
    3000001    1    3    3    0    0 -0.88984256619E+01 -0.25041574442E+01 -0.10597475838E+02  0.14098201229E+02  0.10000000000E+01 0. -1.
    1000022    2    1    0    0    0 -0.24047178451E+02 -0.17458646782E+02 -0.54066420099E+02  0.62499989202E+02  0.99999864479E+01 0.  0.
    3000022    2    3    3    0    0 -0.15148752789E+02 -0.14954489338E+02 -0.43468944261E+02  0.48401787972E+02  0.25000263894E+00 0.  0.
    1000022    2    1    0    0    0  0.24047178451E+02  0.17458646782E+02  0.54066420099E+02  0.62500010798E+02  0.10000121426E+02 0.  0.
    3000022    2    5    5    0    0  0.11073814201E+02  0.64074778998E+01  0.14103915488E+02  0.19043845662E+02  0.24998296807E+00 0.  0.
        -13    1    4    4    0    0 -0.95878463750E+01 -0.94222346677E+01 -0.27565969809E+02  0.30669186829E+02  0.10500000000E+00 0. -1.
         13    1    4    4    0    0 -0.55609064143E+01 -0.55322546701E+01 -0.15902974453E+02  0.17732601144E+02  0.10500000000E+00 0.  1.
    3000001    1    5    5    0    0  0.12973364250E+02  0.11051168882E+02  0.39962504611E+02  0.43456165137E+02  0.10000000000E+01 0. -1.
        -13    1    6    6    0    0  0.51507309343E+01  0.29963717514E+01  0.64712361631E+01  0.87975107450E+01  0.10500000000E+00 0. -1.
         13    1    6    6    0    0  0.59230832667E+01  0.34111061484E+01  0.76326793252E+01  0.10246334917E+02  0.10500000000E+00 0.  1.
</event>
<event>
11    0  0.3494755E-009  0.9118800E+02  0.7816531E-02  0.1126479E+00
         25   -1    0    0    0    0  0.00000000000E+00  0.00000000000E+00  0.99999998245E-14  0.12500000000E+03  0.12500000000E+03 0.  0.
    3000001    1    3    3    0    0  0.93354239787E+01  0.19253989010E+02  0.11967685229E+02  0.24537557405E+02  0.10000000000E+01 0. -1.
    1000022    2    1    0    0    0  0.19329119944E+02  0.54838938152E+02  0.20623430732E+02  0.62499999266E+02  0.99999998830E+01 0.  0.
    3000022    2    3    3    0    0  0.99936959658E+01  0.35584949141E+02  0.86557455026E+01  0.37962441861E+02  0.24999474310E+00 0.  0.
    1000022    2    1    0    0    0 -0.19329119944E+02 -0.54838938152E+02 -0.20623430732E+02  0.62500000734E+02  0.10000009059E+02 0.  0.
    3000022    2    5    5    0    0 -0.17431900112E+02 -0.41956804381E+02 -0.19333444233E+02  0.49377010269E+02  0.25000366344E+00 0.  0.
        -13    1    4    4    0    0  0.50853334197E+01  0.18001062859E+02  0.43174559232E+01  0.19197664720E+02  0.10500000000E+00 0.  1.
         13    1    4    4    0    0  0.49083625461E+01  0.17583886282E+02  0.43382895794E+01  0.18764777141E+02  0.10500000000E+00 0. -1.
    3000001    1    5    5    0    0 -0.18972198328E+01 -0.12882133771E+02 -0.12899864989E+01  0.13122990465E+02  0.10000000000E+01 0.  1.
        -13    1    6    6    0    0 -0.10163527679E+02 -0.24381394908E+02 -0.11301893266E+02  0.28731403184E+02  0.10500000000E+00 0. -1.
         13    1    6    6    0    0 -0.72683724322E+01 -0.17575409473E+02 -0.80315509671E+01  0.20645607085E+02  0.10500000000E+00 0.  1.
</event>
<event>
11    0  0.3494755E-009  0.9118800E+02  0.7816531E-02  0.1126479E+00
         25   -1    0    0    0    0  0.00000000000E+00  0.00000000000E+00  0.99999998245E-14  0.12500000000E+03  0.12500000000E+03 0.  0.
    3000001    1    3    3    0    0  0.31117288055E+01 -0.62645749812E+01  0.25249781133E+02  0.26219824620E+02  0.10000000000E+01 0.  1.
    1000022    2    1    0    0    0 -0.16694242352E+01 -0.21732980411E+02  0.57716035245E+02  0.62500000269E+02  0.99999947205E+01 0.  0.
    3000022    2    3    3    0    0 -0.47811530407E+01 -0.15468405430E+02  0.32466254112E+02  0.36280175649E+02  0.24999619932E+00 0.  0.
    1000022    2    1    0    0    0  0.16694242352E+01  0.21732980411E+02 -0.57716035245E+02  0.62499999731E+02  0.99999913574E+01 0.  0.
    3000022    2    5    5    0    0  0.19951723513E+01  0.22109616728E+02 -0.57005591615E+02  0.61176105135E+02  0.24999900027E+00 0.  0.
        -13    1    4    4    0    0 -0.22899034188E+01 -0.74622208327E+01  0.15505177288E+02  0.17359433895E+02  0.10500000000E+00 0.  1.
         13    1    4    4    0    0 -0.24912496220E+01 -0.80061845974E+01  0.16961076824E+02  0.18920741754E+02  0.10500000000E+00 0. -1.
    3000001    1    5    5    0    0 -0.32574811607E+00 -0.37663631714E+00 -0.71044362991E+00  0.13238945962E+01  0.10000000000E+01 0. -1.
        -13    1    6    6    0    0  0.54086475077E+00  0.58450908831E+01 -0.14990197673E+02  0.16098902863E+02  0.10500000000E+00 0. -1.
         13    1    6    6    0    0  0.14543076005E+01  0.16264525845E+02 -0.42015393942E+02  0.45077202272E+02  0.10500000000E+00 0.  1.
</event>
<event>
11    0  0.3494755E-009  0.9118800E+02  0.7816531E-02  0.1126479E+00
         25   -1    0    0    0    0  0.00000000000E+00  0.00000000000E+00  0.99999998245E-14  0.12500000000E+03  0.12500000000E+03 0.  0.
    3000001    1    3    3    0    0  0.14916233049E+02 -0.38296860698E+01 -0.17753189138E+01  0.15534228690E+02  0.10000000000E+01 0.  1.
    1000022    2    1    0    0    0  0.52820669600E+02 -0.26166629344E+02 -0.18208083072E+02  0.62499999009E+02  0.99999979404E+01 0.  0.
    3000022    2    3    3    0    0  0.37904436551E+02 -0.22336943274E+02 -0.16432764158E+02  0.46965770319E+02  0.24999736779E+00 0.  0.
    1000022    2    1    0    0    0 -0.52820669600E+02  0.26166629344E+02  0.18208083072E+02  0.62500000991E+02  0.10000010324E+02 0.  0.
    3000022    2    5    5    0    0 -0.12302898799E+02  0.56120780679E+01  0.86714084748E+01  0.16065881088E+02  0.24994215123E+00 0.  0.
        -13    1    4    4    0    0  0.15619049099E+02 -0.92032806540E+01 -0.68396932614E+01  0.19376467646E+02  0.10500000000E+00 0.  1.
         13    1    4    4    0    0  0.22285387452E+02 -0.13133662620E+02 -0.95930708969E+01  0.27589302672E+02  0.10500000000E+00 0. -1.
    3000001    1    5    5    0    0 -0.40517770801E+02  0.20554551276E+02  0.95366745973E+01  0.46434119903E+02  0.10000000000E+01 0. -1.
        -13    1    6    6    0    0 -0.81220704669E+01  0.36503462506E+01  0.56816529094E+01  0.10563392504E+02  0.10500000000E+00 0.  1.
         13    1    6    6    0    0 -0.41808283323E+01  0.19617318173E+01  0.29897555653E+01  0.55024885832E+01  0.10500000000E+00 0. -1.
</event>
<event>
11    0  0.3494755E-009  0.9118800E+02  0.7816531E-02  0.1126479E+00
         25   -1    0    0    0    0  0.00000000000E+00  0.00000000000E+00  0.99999998245E-14  0.12500000000E+03  0.12500000000E+03 0.  0.
    3000001    1    3    3    0    0  0.20398187222E+01 -0.12238398302E+02  0.21086537917E+02  0.24486349968E+02  0.10000000000E+01 0. -1.
    1000022    2    1    0    0    0 -0.30922292018E+01 -0.38366320842E+02  0.48215284332E+02  0.62500000555E+02  0.99999984894E+01 0.  0.
    3000022    2    3    3    0    0 -0.51320479240E+01 -0.26127922539E+02  0.27128746416E+02  0.38013650588E+02  0.24999359051E+00 0.  0.
    1000022    2    1    0    0    0  0.30922292018E+01  0.38366320842E+02 -0.48215284332E+02  0.62499999445E+02  0.99999915505E+01 0.  0.
    3000022    2    5    5    0    0 -0.35626258060E+01  0.10384432474E+02 -0.13859189177E+02  0.17682430947E+02  0.24999818407E+00 0.  0.
        -13    1    4    4    0    0 -0.12433106598E+01 -0.62390583102E+01  0.64739323007E+01  0.90771413137E+01  0.10500000000E+00 0. -1.
         13    1    4    4    0    0 -0.38887372641E+01 -0.19888864229E+02  0.20654814115E+02  0.28936509274E+02  0.10500000000E+00 0.  1.
    3000001    1    5    5    0    0  0.66548550078E+01  0.27981888367E+02 -0.34356095155E+02  0.44817568498E+02  0.10000000000E+01 0. -1.
        -13    1    6    6    0    0 -0.23342584739E+01  0.67732151724E+01 -0.89539649056E+01  0.11467768699E+02  0.10500000000E+00 0.  1.
         13    1    6    6    0    0 -0.12283673321E+01  0.36112173018E+01 -0.49052242715E+01  0.62146622481E+01  0.10500000000E+00 0. -1.
</event>
<event>
11    0  0.3494755E-009  0.9118800E+02  0.7816531E-02  0.1126479E+00
         25   -1    0    0    0    0  0.00000000000E+00  0.00000000000E+00  0.99999998245E-14  0.12500000000E+03  0.12500000000E+03 0.  0.
    3000001    1    3    3    0    0 -0.10025029202E+02  0.77508073318E+01 -0.11575149089E+02  0.17191867299E+02  0.10000000000E+01 0.  1.
    1000022    2    1    0    0    0 -0.23071440897E+02  0.36623506860E+02 -0.43962228006E+02  0.62500001430E+02  0.10000002381E+02 0.  0.
    3000022    2    3    3    0    0 -0.13046411695E+02  0.28872699529E+02 -0.32387078917E+02  0.45308134131E+02  0.25000286351E+00 0.  0.
    1000022    2    1    0    0    0  0.23071440897E+02 -0.36623506860E+02  0.43962228006E+02  0.62499998570E+02  0.99999845087E+01 0.  0.
    3000022    2    5    5    0    0  0.62827771070E+01 -0.16263351724E+02  0.22530030925E+02  0.28489202920E+02  0.24998411043E+00 0.  0.
        -13    1    4    4    0    0 -0.34332983813E+01  0.76483289823E+01 -0.86083251263E+01  0.12016603533E+02  0.10500000000E+00 0.  1.
         13    1    4    4    0    0 -0.96131133141E+01  0.21224370546E+02 -0.23778753791E+02  0.33291530597E+02  0.10500000000E+00 0. -1.
    3000001    1    5    5    0    0  0.16788663790E+02 -0.20360155136E+02  0.21432197081E+02  0.34010795650E+02  0.10000000000E+01 0. -1.
        -13    1    6    6    0    0  0.43850883303E+01 -0.11221981672E+02  0.15548176667E+02  0.19670248981E+02  0.10500000000E+00 0.  1.
         13    1    6    6    0    0  0.18976887767E+01 -0.50413700522E+01  0.69818542579E+01  0.88189539388E+01  0.10500000000E+00 0. -1.
</event>
<event>
11    0  0.3494755E-009  0.9118800E+02  0.7816531E-02  0.1126479E+00
         25   -1    0    0    0    0  0.00000000000E+00  0.00000000000E+00  0.99999998245E-14  0.12500000000E+03  0.12500000000E+03 0.  0.
    3000001    1    3    3    0    0  0.41153916495E+02  0.38698639100E+02  0.12304604061E+02  0.57824154055E+02  0.10000000000E+01 0.  1.
    1000022    2    1    0    0    0  0.45721136480E+02  0.39633136298E+02  0.12043347322E+02  0.62500000362E+02  0.10000000831E+02 0.  0.
    3000022    2    3    3    0    0  0.45672199848E+01  0.93449719807E+00 -0.26125673851E+00  0.46758463065E+01  0.25000039308E+00 0.  0.
    1000022    2    1    0    0    0 -0.45721136480E+02 -0.39633136298E+02 -0.12043347322E+02  0.62499999638E+02  0.99999963082E+01 0.  0.
    3000022    2    5    5    0    0 -0.45263392458E+02 -0.39217676287E+02 -0.12596416445E+02  0.61200760605E+02  0.25012229917E+00 0.  0.
        -13    1    4    4    0    0  0.24224493474E+01  0.49684704927E+00 -0.71069242199E-01  0.24761247279E+01  0.10500000000E+00 0.  1.
         13    1    4    4    0    0  0.21447706374E+01  0.43765014880E+00 -0.19018749631E+00  0.21997215786E+01  0.10500000000E+00 0. -1.
    3000001    1    5    5    0    0 -0.45774402178E+00 -0.41546001101E+00  0.55306912294E+00  0.12992390330E+01  0.10000000000E+01 0.  1.
        -13    1    6    6    0    0 -0.21654437823E+02 -0.18673109285E+02 -0.60218379423E+01  0.29221109578E+02  0.10500000000E+00 0.  1.
         13    1    6    6    0    0 -0.23608954636E+02 -0.20544567002E+02 -0.65745785029E+01  0.31979651027E+02  0.10500000000E+00 0. -1.
</event>
<event>
11    0  0.3494755E-009  0.9118800E+02  0.7816531E-02  0.1126479E+00
         25   -1    0    0    0    0  0.00000000000E+00  0.00000000000E+00  0.99999998245E-14  0.12500000000E+03  0.12500000000E+03 0.  0.
    3000001    1    3    3    0    0  0.49827105815E+01  0.82112832894E+00  0.11954022113E+02  0.13015387092E+02  0.10000000000E+01 0. -1.
    1000022    2    1    0    0    0  0.18776466314E+02 -0.14358355173E+02  0.56987120951E+02  0.62500000084E+02  0.10000000283E+02 0.  0.
    3000022    2    3    3    0    0  0.13793755733E+02 -0.15179483502E+02  0.45033098838E+02  0.49484612992E+02  0.25003080544E+00 0.  0.
    1000022    2    1    0    0    0 -0.18776466314E+02  0.14358355173E+02 -0.56987120951E+02  0.62499999916E+02  0.99999992362E+01 0.  0.
    3000022    2    5    5    0    0 -0.14922562953E+02  0.15459746245E+02 -0.46349766530E+02  0.51088648441E+02  0.25000621031E+00 0.  0.
        -13    1    4    4    0    0  0.86678697176E+01 -0.94796028361E+01  0.28092887531E+02  0.30890389933E+02  0.10500000000E+00 0. -1.
         13    1    4    4    0    0  0.51258860152E+01 -0.56998806659E+01  0.16940211307E+02  0.18594223059E+02  0.10500000000E+00 0.  1.
    3000001    1    5    5    0    0 -0.38539033615E+01 -0.11013910720E+01 -0.10637354421E+02  0.11411351475E+02  0.10000000000E+01 0.  1.
        -13    1    6    6    0    0 -0.70829788985E+01  0.72641347696E+01 -0.21781184273E+02  0.24028467645E+02  0.10500000000E+00 0. -1.
         13    1    6    6    0    0 -0.78395840542E+01  0.81956114755E+01 -0.24568582258E+02  0.27060180797E+02  0.10500000000E+00 0.  1.
</event>
<event>
11    0  0.3494755E-009  0.9118800E+02  0.7816531E-02  0.1126479E+00
         25   -1    0    0    0    0  0.00000000000E+00  0.00000000000E+00  0.99999998245E-14  0.12500000000E+03  0.12500000000E+03 0.  0.
    3000001    1    3    3    0    0 -0.30747175599E+01 -0.21595435943E+01 -0.36763307451E+00  0.39054667693E+01  0.10000000000E+01 0.  1.
    1000022    2    1    0    0    0 -0.34977019411E+02 -0.33327797414E+02 -0.38368162575E+02  0.62500002664E+02  0.10000023313E+02 0.  0.
    3000022    2    3    3    0    0 -0.31902301851E+02 -0.31168253820E+02 -0.38000529500E+02  0.58594535895E+02  0.24996962978E+00 0.  0.
    1000022    2    1    0    0    0  0.34977019411E+02  0.33327797414E+02  0.38368162575E+02  0.62499997336E+02  0.99999900141E+01 0.  0.
    3000022    2    5    5    0    0  0.10157866213E+02  0.70603241100E+01  0.15036713771E+02  0.19472947443E+02  0.24999706370E+00 0.  0.
        -13    1    4    4    0    0 -0.95106398527E+01 -0.92322712354E+01 -0.11312574689E+02  0.17426200781E+02  0.10500000000E+00 0.  1.
         13    1    4    4    0    0 -0.22391661999E+02 -0.21935982584E+02 -0.26687954812E+02  0.41168335114E+02  0.10500000000E+00 0. -1.
    3000001    1    5    5    0    0  0.24819153198E+02  0.26267473304E+02  0.23331448804E+02  0.43027049893E+02  0.10000000000E+01 0. -1.
        -13    1    6    6    0    0  0.68393898451E+01  0.48105065044E+01  0.10127558935E+02  0.13133799955E+02  0.10500000000E+00 0.  1.
         13    1    6    6    0    0  0.33184763683E+01  0.22498176055E+01  0.49091548362E+01  0.63391474877E+01  0.10500000000E+00 0. -1.
</event>
<event>
11    0  0.3494755E-009  0.9118800E+02  0.7816531E-02  0.1126479E+00
         25   -1    0    0    0    0  0.00000000000E+00  0.00000000000E+00  0.99999998245E-14  0.12500000000E+03  0.12500000000E+03 0.  0.
    3000001    1    3    3    0    0 -0.34661714015E+01  0.13998121073E+02  0.74203457696E+00  0.14474541549E+02  0.10000000000E+01 0.  1.
    1000022    2    1    0    0    0 -0.18344352194E+02  0.57220654117E+02 -0.13983264214E+02  0.62499998883E+02  0.99999833643E+01 0.  0.
    3000022    2    3    3    0    0 -0.14878180792E+02  0.43222533045E+02 -0.14725298791E+02  0.48025457334E+02  0.25000229973E+00 0.  0.
    1000022    2    1    0    0    0  0.18344352194E+02 -0.57220654117E+02  0.13983264214E+02  0.62500001117E+02  0.99999973225E+01 0.  0.
    3000022    2    5    5    0    0  0.12476331546E+02 -0.33565732861E+02  0.12969388003E+02  0.38086543538E+02  0.25000431775E+00 0.  0.
        -13    1    4    4    0    0 -0.73463789014E+01  0.21134869692E+02 -0.72002928979E+01  0.23505472612E+02  0.10500000000E+00 0. -1.
         13    1    4    4    0    0 -0.75318018911E+01  0.22087663353E+02 -0.75250058934E+01  0.24519984723E+02  0.10500000000E+00 0.  1.
    3000001    1    5    5    0    0  0.58680206484E+01 -0.23654921257E+02  0.10138762114E+01  0.24413457579E+02  0.10000000000E+01 0. -1.
        -13    1    6    6    0    0  0.61428824904E+01 -0.16429800352E+02  0.64153636442E+01  0.18677292646E+02  0.10500000000E+00 0.  1.
         13    1    6    6    0    0  0.63334490552E+01 -0.17135932509E+02  0.65540243587E+01  0.19409250892E+02  0.10500000000E+00 0. -1.
</event>
<event>
11    0  0.3494755E-009  0.9118800E+02  0.7816531E-02  0.1126479E+00
         25   -1    0    0    0    0  0.00000000000E+00  0.00000000000E+00  0.99999998245E-14  0.12500000000E+03  0.12500000000E+03 0.  0.
    3000001    1    3    3    0    0 -0.68602909582E+01 -0.26488432762E+02  0.21156234070E+02  0.34601833799E+02  0.10000000000E+01 0. -1.
    1000022    2    1    0    0    0 -0.19965627983E+02 -0.43286204842E+02  0.39165398492E+02  0.62499996998E+02  0.99999677664E+01 0.  0.
    3000022    2    3    3    0    0 -0.13105337025E+02 -0.16797772080E+02  0.18009164422E+02  0.27898163199E+02  0.25000263361E+00 0.  0.
    1000022    2    1    0    0    0  0.19965627983E+02  0.43286204842E+02 -0.39165398492E+02  0.62500003002E+02  0.10000005295E+02 0.  0.
    3000022    2    5    5    0    0  0.24367541078E+01  0.12103076334E+02 -0.60846166434E+01  0.13766164136E+02  0.24997602924E+00 0.  0.
        -13    1    4    4    0    0 -0.47132392403E+01 -0.61312867306E+01  0.65125397215E+01  0.10110959387E+02  0.10500000000E+00 0. -1.
         13    1    4    4    0    0 -0.83920977850E+01 -0.10666485349E+02  0.11496624701E+02  0.17787203812E+02  0.10500000000E+00 0.  1.
    3000001    1    5    5    0    0  0.17528873876E+02  0.31183128508E+02 -0.33080781849E+02  0.48733838866E+02  0.10000000000E+01 0. -1.
        -13    1    6    6    0    0  0.85717619243E+00  0.41209809324E+01 -0.21281773815E+01  0.47177747760E+01  0.10500000000E+00 0. -1.
         13    1    6    6    0    0  0.15795779154E+01  0.79820954012E+01 -0.39564392619E+01  0.90483893604E+01  0.10500000000E+00 0.  1.
</event>
<event>
11    0  0.3494755E-009  0.9118800E+02  0.7816531E-02  0.1126479E+00
         25   -1    0    0    0    0  0.00000000000E+00  0.00000000000E+00  0.99999998245E-14  0.12500000000E+03  0.12500000000E+03 0.  0.
    3000001    1    3    3    0    0  0.60341935749E+01  0.12503070657E+02 -0.74568008107E+01  0.15790571436E+02  0.10000000000E+01 0. -1.
    1000022    2    1    0    0    0  0.10978679091E+02  0.45901012068E+02 -0.39734313442E+02  0.62500000362E+02  0.10000003852E+02 0.  0.
    3000022    2    3    3    0    0  0.49444855159E+01  0.33397941411E+02 -0.32277512632E+02  0.46709428926E+02  0.25000270384E+00 0.  0.
    1000022    2    1    0    0    0 -0.10978679091E+02 -0.45901012068E+02  0.39734313442E+02  0.62499999638E+02  0.99999993273E+01 0.  0.
    3000022    2    5    5    0    0 -0.20818919833E+01 -0.42391526724E+01  0.82800683767E+01  0.95355504121E+01  0.24999945527E+00 0.  0.
        -13    1    4    4    0    0  0.30538810230E+01  0.20771981539E+02 -0.20150493774E+02  0.29100770277E+02  0.10500000000E+00 0. -1.
         13    1    4    4    0    0  0.18906044929E+01  0.12625959872E+02 -0.12127018858E+02  0.17608658649E+02  0.10500000000E+00 0.  1.
    3000001    1    5    5    0    0 -0.88967871075E+01 -0.41661859396E+02  0.31454245066E+02  0.52964449226E+02  0.10000000000E+01 0.  1.
        -13    1    6    6    0    0 -0.78748555386E+00 -0.16528350515E+01  0.33287622675E+01  0.38004842374E+01  0.10500000000E+00 0.  1.
         13    1    6    6    0    0 -0.12944064295E+01 -0.25863176209E+01  0.49513061092E+01  0.57350661746E+01  0.10500000000E+00 0. -1.
</event>
<event>
11    0  0.3494755E-009  0.9118800E+02  0.7816531E-02  0.1126479E+00
         25   -1    0    0    0    0  0.00000000000E+00  0.00000000000E+00  0.99999998245E-14  0.12500000000E+03  0.12500000000E+03 0.  0.
    3000001    1    3    3    0    0  0.30675441623E+02 -0.14009837790E+02 -0.24974947074E+02  0.41976258230E+02  0.10000000000E+01 0. -1.
    1000022    2    1    0    0    0  0.48677396277E+02 -0.21800267105E+02 -0.31008216128E+02  0.62500000442E+02  0.10000001687E+02 0.  0.
    3000022    2    3    3    0    0  0.18001954654E+02 -0.77904293142E+01 -0.60332690543E+01  0.20523742212E+02  0.24999729615E+00 0.  0.
    1000022    2    1    0    0    0 -0.48677396277E+02  0.21800267105E+02  0.31008216128E+02  0.62499999558E+02  0.99999961562E+01 0.  0.
    3000022    2    5    5    0    0 -0.33688703463E+02  0.10545953848E+02  0.17698550952E+02  0.39489835146E+02  0.24998097492E+00 0.  0.
        -13    1    4    4    0    0  0.58864474221E+01 -0.26036465541E+01 -0.19896656802E+01  0.67378804642E+01  0.10500000000E+00 0. -1.
         13    1    4    4    0    0  0.12115507232E+02 -0.51867827601E+01 -0.40436033741E+01  0.13785861748E+02  0.10500000000E+00 0.  1.
    3000001    1    5    5    0    0 -0.14988692814E+02  0.11254313256E+02  0.13309665176E+02  0.23010164412E+02  0.10000000000E+01 0.  1.
        -13    1    6    6    0    0 -0.23474659301E+02  0.73200199243E+01  0.12285613091E+02  0.27487990742E+02  0.10500000000E+00 0. -1.
         13    1    6    6    0    0 -0.10214044162E+02  0.32259339240E+01  0.54129378606E+01  0.12001844404E+02  0.10500000000E+00 0.  1.
</event>
<event>
11    0  0.3494755E-009  0.9118800E+02  0.7816531E-02  0.1126479E+00
         25   -1    0    0    0    0  0.00000000000E+00  0.00000000000E+00  0.99999998245E-14  0.12500000000E+03  0.12500000000E+03 0.  0.
    3000001    1    3    3    0    0 -0.35150671870E+01  0.34293793513E+02  0.58195408591E+01  0.34975520392E+02  0.10000000000E+01 0.  1.
    1000022    2    1    0    0    0  0.24572265680E+01  0.60896637351E+02  0.95818365263E+01  0.62499999853E+02  0.99999993671E+01 0.  0.
    3000022    2    3    3    0    0  0.59722937550E+01  0.26602843838E+02  0.37622956671E+01  0.27524479461E+02  0.25001595407E+00 0.  0.
    1000022    2    1    0    0    0 -0.24572265680E+01 -0.60896637351E+02 -0.95818365263E+01  0.62500000147E+02  0.10000001205E+02 0.  0.
    3000022    2    5    5    0    0  0.96534973509E-01 -0.51019731741E+02 -0.49770832490E+01  0.51262619884E+02  0.24998749089E+00 0.  0.
        -13    1    4    4    0    0  0.16585638375E+01  0.75615360479E+01  0.10527466552E+01  0.78132555268E+01  0.10500000000E+00 0. -1.
         13    1    4    4    0    0  0.43137299175E+01  0.19041307790E+02  0.27095490120E+01  0.19711223934E+02  0.10500000000E+00 0.  1.
    3000001    1    5    5    0    0 -0.25537615415E+01 -0.98769056100E+01 -0.46047532772E+01  0.11237380263E+02  0.10000000000E+01 0.  1.
        -13    1    6    6    0    0  0.56925144881E-01 -0.29107665740E+02 -0.27737416552E+01  0.29239769374E+02  0.10500000000E+00 0. -1.
         13    1    6    6    0    0  0.39609828628E-01 -0.21912066001E+02 -0.22033415938E+01  0.22022850509E+02  0.10500000000E+00 0.  1.
</event>
<event>
11    0  0.3494755E-009  0.9118800E+02  0.7816531E-02  0.1126479E+00
         25   -1    0    0    0    0  0.00000000000E+00  0.00000000000E+00  0.99999998245E-14  0.12500000000E+03  0.12500000000E+03 0.  0.
    3000001    1    3    3    0    0  0.29895093761E+02 -0.19104064918E+01  0.10199038680E+02  0.31660490740E+02  0.10000000000E+01 0.  1.
    1000022    2    1    0    0    0  0.59505708799E+02 -0.10140248325E+02  0.12747389073E+02  0.62500001273E+02  0.10000010753E+02 0.  0.
    3000022    2    3    3    0    0  0.29610615039E+02 -0.82298418328E+01  0.25483503933E+01  0.30839510532E+02  0.25000113852E+00 0.  0.
    1000022    2    1    0    0    0 -0.59505708799E+02  0.10140248325E+02 -0.12747389073E+02  0.62499998727E+02  0.99999948469E+01 0.  0.
    3000022    2    5    5    0    0 -0.20135630875E+02  0.41027072738E+01  0.36744024811E+00  0.20554156432E+02  0.24999320318E+00 0.  0.
        -13    1    4    4    0    0  0.20221920420E+02 -0.56222818366E+01  0.16901280117E+01  0.21057152614E+02  0.10500000000E+00 0.  1.
         13    1    4    4    0    0  0.93886946188E+01 -0.26075599962E+01  0.85822238164E+00  0.97823579179E+01  0.10500000000E+00 0. -1.
    3000001    1    5    5    0    0 -0.39370077925E+02  0.60375410508E+01 -0.13114829321E+02  0.41945842295E+02  0.10000000000E+01 0. -1.
        -13    1    6    6    0    0 -0.55468967987E+01  0.10920941972E+01  0.94422921935E-01  0.56551458442E+01  0.10500000000E+00 0.  1.
         13    1    6    6    0    0 -0.14588734076E+02  0.30106130766E+01  0.27301732618E+00  0.14899010588E+02  0.10500000000E+00 0. -1.
</event>
<event>
11    0  0.3494755E-009  0.9118800E+02  0.7816531E-02  0.1126479E+00
         25   -1    0    0    0    0  0.00000000000E+00  0.00000000000E+00  0.99999998245E-14  0.12500000000E+03  0.12500000000E+03 0.  0.
    3000001    1    3    3    0    0  0.23350723787E+02  0.55754011446E+01  0.13002836683E+01  0.24063086604E+02  0.10000000000E+01 0.  1.
    1000022    2    1    0    0    0  0.61578054838E+02  0.32508992293E+01 -0.19557323823E+01  0.62499999698E+02  0.99999944789E+01 0.  0.
    3000022    2    3    3    0    0  0.38227331051E+02 -0.23245019153E+01 -0.32560160506E+01  0.38436913093E+02  0.24999834172E+00 0.  0.
    1000022    2    1    0    0    0 -0.61578054838E+02 -0.32508992293E+01  0.19557323823E+01  0.62500000302E+02  0.99999982593E+01 0.  0.
    3000022    2    5    5    0    0 -0.43626581102E+01  0.20214576273E+01 -0.11481630519E+01  0.49497306554E+01  0.24995688037E+00 0.  0.
        -13    1    4    4    0    0  0.11326531532E+02 -0.65541746129E+00 -0.99468678066E+00  0.11389482665E+02  0.10500000000E+00 0. -1.
         13    1    4    4    0    0  0.26900799519E+02 -0.16690844541E+01 -0.22613292699E+01  0.27047430428E+02  0.10500000000E+00 0.  1.
    3000001    1    5    5    0    0 -0.57215396728E+02 -0.52723568566E+01  0.31038954342E+01  0.57550269647E+02  0.10000000000E+01 0. -1.
        -13    1    6    6    0    0 -0.15014633943E+01  0.75236278845E+00 -0.37755702426E+00  0.17245336751E+01  0.10500000000E+00 0. -1.
         13    1    6    6    0    0 -0.28611947158E+01  0.12690948389E+01 -0.77060602763E+00  0.32251969803E+01  0.10500000000E+00 0.  1.
</event>
<event>
11    0  0.3494755E-009  0.9118800E+02  0.7816531E-02  0.1126479E+00
         25   -1    0    0    0    0  0.00000000000E+00  0.00000000000E+00  0.99999998245E-14  0.12500000000E+03  0.12500000000E+03 0.  0.
    3000001    1    3    3    0    0  0.31901849240E+01 -0.13955928409E+02  0.81558922870E+01  0.16506477413E+02  0.10000000000E+01 0. -1.
    1000022    2    1    0    0    0 -0.26109440027E+00 -0.47032625543E+02  0.39926356617E+02  0.62500000036E+02  0.10000000804E+02 0.  0.
    3000022    2    3    3    0    0 -0.34512793243E+01 -0.33076697134E+02  0.31770464330E+02  0.45993522623E+02  0.24999448611E+00 0.  0.
    1000022    2    1    0    0    0  0.26109440027E+00  0.47032625543E+02 -0.39926356617E+02  0.62499999964E+02  0.10000000351E+02 0.  0.
    3000022    2    5    5    0    0 -0.41935903632E+01  0.22202560531E+02 -0.21994155152E+02  0.31533240459E+02  0.24999748336E+00 0.  0.
        -13    1    4    4    0    0 -0.26602771968E+01 -0.25416961813E+02  0.24420960597E+02  0.35348173419E+02  0.10500000000E+00 0. -1.
         13    1    4    4    0    0 -0.79100212750E+00 -0.76597353212E+01  0.73495037325E+01  0.10645349204E+02  0.10500000000E+00 0.  1.
    3000001    1    5    5    0    0  0.44546847635E+01  0.24830065012E+02 -0.17932201465E+02  0.30966759504E+02  0.10000000000E+01 0.  1.
        -13    1    6    6    0    0 -0.20283186959E+01  0.10376471808E+02 -0.10286162984E+02  0.14751319190E+02  0.10500000000E+00 0. -1.
         13    1    6    6    0    0 -0.21652716673E+01  0.11826088723E+02 -0.11707992167E+02  0.16781921269E+02  0.10500000000E+00 0.  1.
</event>
<event>
11    0  0.3494755E-009  0.9118800E+02  0.7816531E-02  0.1126479E+00
         25   -1    0    0    0    0  0.00000000000E+00  0.00000000000E+00  0.99999998245E-14  0.12500000000E+03  0.12500000000E+03 0.  0.
    3000001    1    3    3    0    0  0.40738085383E+02 -0.18995706837E+02  0.28616914330E+00  0.44961209633E+02  0.10000000000E+01 0.  1.
    1000022    2    1    0    0    0  0.53073888334E+02 -0.31454779173E+02 -0.96129444369E-01  0.62500000081E+02  0.10000000678E+02 0.  0.
    3000022    2    3    3    0    0  0.12335802951E+02 -0.12459072336E+02 -0.38229858767E+00  0.17538790448E+02  0.25000049452E+00 0.  0.
    1000022    2    1    0    0    0 -0.53073888334E+02  0.31454779173E+02  0.96129444369E-01  0.62499999919E+02  0.99999996672E+01 0.  0.
    3000022    2    5    5    0    0 -0.32379313002E+01  0.52195244005E+01  0.52522518916E+00  0.61697653236E+01  0.25001715469E+00 0.  0.
        -13    1    4    4    0    0  0.44507778654E+01 -0.44185890878E+01 -0.15738056995E+00  0.62744837858E+01  0.10500000000E+00 0.  1.
         13    1    4    4    0    0  0.78850250857E+01 -0.80404832479E+01 -0.22491801772E+00  0.11264306662E+02  0.10500000000E+00 0. -1.
    3000001    1    5    5    0    0 -0.49835957034E+02  0.26235254772E+02 -0.42909574479E+00  0.56330234596E+02  0.10000000000E+01 0.  1.
        -13    1    6    6    0    0 -0.23002054531E+01  0.36930703905E+01  0.32889696365E+00  0.43645059569E+01  0.10500000000E+00 0. -1.
         13    1    6    6    0    0 -0.93772584704E+00  0.15264540100E+01  0.19632822551E+00  0.18052593667E+01  0.10500000000E+00 0.  1.
</event>
<event>
11    0  0.3494755E-009  0.9118800E+02  0.7816531E-02  0.1126479E+00
         25   -1    0    0    0    0  0.00000000000E+00  0.00000000000E+00  0.99999998245E-14  0.12500000000E+03  0.12500000000E+03 0.  0.
    3000001    1    3    3    0    0  0.21575848232E+02 -0.23580604439E+02 -0.24214987870E+02  0.40111441886E+02  0.10000000000E+01 0.  1.
    1000022    2    1    0    0    0  0.29566350879E+02 -0.33171951748E+02 -0.42798393047E+02  0.62499999778E+02  0.10000001890E+02 0.  0.
    3000022    2    3    3    0    0  0.79905026467E+01 -0.95913473091E+01 -0.18583405176E+02  0.22388557892E+02  0.25000153802E+00 0.  0.
    1000022    2    1    0    0    0 -0.29566350879E+02  0.33171951748E+02  0.42798393047E+02  0.62500000222E+02  0.10000004667E+02 0.  0.
    3000022    2    5    5    0    0 -0.21902829131E+00  0.41907092837E+01  0.29079054852E+01  0.51115975983E+01  0.24999600764E+00 0.  0.
        -13    1    4    4    0    0  0.57246664576E+01 -0.68685402100E+01 -0.13235326852E+02  0.15972900568E+02  0.10500000000E+00 0. -1.
         13    1    4    4    0    0  0.22658361891E+01 -0.27228070991E+01 -0.53480783244E+01  0.64156573240E+01  0.10500000000E+00 0.  1.
    3000001    1    5    5    0    0 -0.29347322588E+02  0.28981242464E+02  0.39890487561E+02  0.57388402624E+02  0.10000000000E+01 0.  1.
        -13    1    6    6    0    0 -0.35444999630E-01  0.19646468731E+01  0.13548306949E+01  0.23890761594E+01  0.10500000000E+00 0.  1.
         13    1    6    6    0    0 -0.18358329168E+00  0.22260624106E+01  0.15530747904E+01  0.27225214389E+01  0.10500000000E+00 0. -1.
</event>
<event>
11    0  0.3494755E-009  0.9118800E+02  0.7816531E-02  0.1126479E+00
         25   -1    0    0    0    0  0.00000000000E+00  0.00000000000E+00  0.99999998245E-14  0.12500000000E+03  0.12500000000E+03 0.  0.
    3000001    1    3    3    0    0 -0.29590386272E+01  0.43788447237E+01 -0.14086860871E+01  0.55600887766E+01  0.10000000000E+01 0. -1.
    1000022    2    1    0    0    0 -0.55796857511E+01  0.60344118031E+02 -0.11563077044E+02  0.62500001903E+02  0.10000000657E+02 0.  0.
    3000022    2    3    3    0    0 -0.26206471239E+01  0.55965273308E+02 -0.10154390957E+02  0.56939913127E+02  0.24988684777E+00 0.  0.
    1000022    2    1    0    0    0  0.55796857511E+01 -0.60344118031E+02  0.11563077044E+02  0.62499998097E+02  0.99999768632E+01 0.  0.
    3000022    2    5    5    0    0 -0.13461310218E+01 -0.12137624947E+01 -0.71029037698E-01  0.18310743530E+01  0.25000008107E+00 0.  0.
        -13    1    4    4    0    0 -0.13080176776E+01  0.27019009097E+02 -0.49558999807E+01  0.27501086023E+02  0.10500000000E+00 0.  1.
         13    1    4    4    0    0 -0.13126294463E+01  0.28946264211E+02 -0.51984909762E+01  0.29438827104E+02  0.10500000000E+00 0. -1.
    3000001    1    5    5    0    0  0.69258167729E+01 -0.59130355537E+02  0.11634106082E+02  0.60668923744E+02  0.10000000000E+01 0. -1.
        -13    1    6    6    0    0 -0.53236416621E+00 -0.40513460907E+00 -0.47186542304E-01  0.67882046721E+00  0.10500000000E+00 0. -1.
         13    1    6    6    0    0 -0.81376685563E+00 -0.80862788562E+00 -0.23842495394E-01  0.11522538858E+01  0.10500000000E+00 0.  1.
</event>
<event>
11    0  0.3494755E-009  0.9118800E+02  0.7816531E-02  0.1126479E+00
         25   -1    0    0    0    0  0.00000000000E+00  0.00000000000E+00  0.99999998245E-14  0.12500000000E+03  0.12500000000E+03 0.  0.
    3000001    1    3    3    0    0  0.22276702519E+02  0.16242585577E+02 -0.54449911097E+02  0.61039871230E+02  0.10000000000E+01 0. -1.
    1000022    2    1    0    0    0  0.22990405296E+02  0.17489972253E+02 -0.54514148633E+02  0.62499998576E+02  0.99999777914E+01 0.  0.
    3000022    2    3    3    0    0  0.71370277692E+00  0.12473866762E+01 -0.64237535611E-01  0.14601273461E+01  0.25000046426E+00 0.  0.
    1000022    2    1    0    0    0 -0.22990405296E+02 -0.17489972253E+02  0.54514148633E+02  0.62500001424E+02  0.99999955874E+01 0.  0.
    3000022    2    5    5    0    0 -0.19871549945E+02 -0.18279871340E+02  0.45940482144E+02  0.53288109309E+02  0.25000140806E+00 0.  0.
        -13    1    4    4    0    0  0.27208907167E+00  0.41042141906E+00  0.22923018436E-01  0.50401256821E+00  0.10500000000E+00 0. -1.
         13    1    4    4    0    0  0.44161370525E+00  0.83696525712E+00 -0.87160554046E-01  0.95611477787E+00  0.10500000000E+00 0.  1.
    3000001    1    5    5    0    0 -0.31188553505E+01  0.78989908746E+00  0.85736664888E+01  0.92118921144E+01  0.10000000000E+01 0.  1.
        -13    1    6    6    0    0 -0.11828434308E+02 -0.10800535190E+02  0.27206475890E+02  0.31571613419E+02  0.10500000000E+00 0.  1.
         13    1    6    6    0    0 -0.80431156369E+01 -0.74793361501E+01  0.18734006254E+02  0.21716495890E+02  0.10500000000E+00 0. -1.
</event>
<event>
11    0  0.3494755E-009  0.9118800E+02  0.7816531E-02  0.1126479E+00
         25   -1    0    0    0    0  0.00000000000E+00  0.00000000000E+00  0.99999998245E-14  0.12500000000E+03  0.12500000000E+03 0.  0.
    3000001    1    3    3    0    0  0.83374244569E+01 -0.69917619580E+01 -0.32014628250E+01  0.11386252503E+02  0.10000000000E+01 0.  1.
    1000022    2    1    0    0    0  0.55079946156E+02 -0.27665338304E+02 -0.26605337513E+01  0.62500000144E+02  0.10000008300E+02 0.  0.
    3000022    2    3    3    0    0  0.46742521700E+02 -0.20673576346E+02  0.54092907369E+00  0.51113747640E+02  0.24999954542E+00 0.  0.
    1000022    2    1    0    0    0 -0.55079946156E+02  0.27665338304E+02  0.26605337513E+01  0.62499999856E+02  0.10000006506E+02 0.  0.
    3000022    2    5    5    0    0 -0.33120161790E+02  0.17943973943E+02  0.62909125614E+01  0.38191221508E+02  0.25000317439E+00 0.  0.
        -13    1    4    4    0    0  0.10935365213E+02 -0.48483419689E+01  0.11865615299E+00  0.11963015359E+02  0.10500000000E+00 0.  1.
         13    1    4    4    0    0  0.35807156486E+02 -0.15825234377E+02  0.42227292071E+00  0.39150732281E+02  0.10500000000E+00 0. -1.
    3000001    1    5    5    0    0 -0.21959784367E+02  0.97213643610E+01 -0.36303788101E+01  0.24308778348E+02  0.10000000000E+01 0.  1.
        -13    1    6    6    0    0 -0.20394117680E+02  0.11050064046E+02  0.39359231024E+01  0.23527143198E+02  0.10500000000E+00 0.  1.
         13    1    6    6    0    0 -0.12726044109E+02  0.68939098968E+01  0.23549894590E+01  0.14664078310E+02  0.10500000000E+00 0. -1.
</event>
<event>
11    0  0.3494755E-009  0.9118800E+02  0.7816531E-02  0.1126479E+00
         25   -1    0    0    0    0  0.00000000000E+00  0.00000000000E+00  0.99999998245E-14  0.12500000000E+03  0.12500000000E+03 0.  0.
    3000001    1    3    3    0    0 -0.39076453446E+02  0.14716348600E+02 -0.16252917973E+02  0.44818494761E+02  0.10000000000E+01 0. -1.
    1000022    2    1    0    0    0 -0.51338764810E+02  0.25886903089E+02 -0.22370747191E+02  0.62500007803E+02  0.10000006086E+02 0.  0.
    3000022    2    3    3    0    0 -0.12262311364E+02  0.11170554489E+02 -0.61178292185E+01  0.17681513042E+02  0.25000302857E+00 0.  0.
    1000022    2    1    0    0    0  0.51338764810E+02 -0.25886903089E+02  0.22370747191E+02  0.62499992197E+02  0.99999085496E+01 0.  0.
    3000022    2    5    5    0    0  0.46131145538E+02 -0.25519765684E+02  0.18303630764E+02  0.55807046330E+02  0.24998339741E+00 0.  0.
        -13    1    4    4    0    0 -0.92084012671E+01  0.84082811466E+01 -0.45767185748E+01  0.13283494407E+02  0.10500000000E+00 0. -1.
         13    1    4    4    0    0 -0.30539100966E+01  0.27622733427E+01 -0.15411106437E+01  0.43980186350E+01  0.10500000000E+00 0.  1.
    3000001    1    5    5    0    0  0.52076192716E+01 -0.36713740580E+00  0.40671164269E+01  0.66929458673E+01  0.10000000000E+01 0.  1.
        -13    1    6    6    0    0  0.11328737803E+02 -0.62414844020E+01  0.44978124949E+01  0.13694443033E+02  0.10500000000E+00 0. -1.
         13    1    6    6    0    0  0.34802407736E+02 -0.19278281282E+02  0.13805818269E+02  0.42112603297E+02  0.10500000000E+00 0.  1.
</event>
<event>
11    0  0.3494755E-009  0.9118800E+02  0.7816531E-02  0.1126479E+00
         25   -1    0    0    0    0  0.00000000000E+00  0.00000000000E+00  0.99999998245E-14  0.12500000000E+03  0.12500000000E+03 0.  0.
    3000001    1    3    3    0    0 -0.32364489618E+02 -0.15565843106E+02  0.33416020587E+01  0.36082155758E+02  0.10000000000E+01 0. -1.
    1000022    2    1    0    0    0 -0.58410059698E+02 -0.19763292660E+02  0.19816053327E+01  0.62499997439E+02  0.10000005470E+02 0.  0.
    3000022    2    3    3    0    0 -0.26045570080E+02 -0.41974495533E+01 -0.13599967261E+01  0.26417841680E+02  0.24992876426E+00 0.  0.
    1000022    2    1    0    0    0  0.58410059698E+02  0.19763292660E+02 -0.19816053327E+01  0.62500002561E+02  0.10000037489E+02 0.  0.
    3000022    2    5    5    0    0  0.57993896273E+02  0.19257411793E+02 -0.25811959327E+01  0.61162610945E+02  0.24998259613E+00 0.  0.
        -13    1    4    4    0    0 -0.12126772377E+02 -0.19151459640E+01 -0.57786750306E+00  0.12291108502E+02  0.10500000000E+00 0.  1.
         13    1    4    4    0    0 -0.13918797703E+02 -0.22823035893E+01 -0.78212922300E+00  0.14126733178E+02  0.10500000000E+00 0. -1.
    3000001    1    5    5    0    0  0.41616342533E+00  0.50588086627E+00  0.59959060001E+00  0.13373916162E+01  0.10000000000E+01 0. -1.
        -13    1    6    6    0    0  0.36314310183E+02  0.12107105763E+02 -0.16553150378E+01  0.38315300167E+02  0.10500000000E+00 0.  1.
         13    1    6    6    0    0  0.21679586090E+02  0.71503060306E+01 -0.92588089485E+00  0.22847310778E+02  0.10500000000E+00 0. -1.
</event>
<event>
11    0  0.3494755E-009  0.9118800E+02  0.7816531E-02  0.1126479E+00
         25   -1    0    0    0    0  0.00000000000E+00  0.00000000000E+00  0.99999998245E-14  0.12500000000E+03  0.12500000000E+03 0.  0.
    3000001    1    3    3    0    0  0.24088237681E+02  0.15487181576E+02  0.47808018390E+02  0.55737802344E+02  0.10000000000E+01 0.  1.
    1000022    2    1    0    0    0  0.29255653912E+02  0.18280648451E+02  0.51148554527E+02  0.62499998868E+02  0.99999917311E+01 0.  0.
    3000022    2    3    3    0    0  0.51674162309E+01  0.27934668745E+01  0.33405361371E+01  0.67621965235E+01  0.24994490789E+00 0.  0.
    1000022    2    1    0    0    0 -0.29255653912E+02 -0.18280648451E+02 -0.51148554527E+02  0.62500001132E+02  0.10000005887E+02 0.  0.
    3000022    2    5    5    0    0 -0.57864970954E+01 -0.66066757917E+01 -0.19541679038E+02  0.21425951691E+02  0.24994518474E+00 0.  0.
        -13    1    4    4    0    0  0.33373129156E+01  0.17988034122E+01  0.22207224514E+01  0.43949953832E+01  0.10500000000E+00 0.  1.
         13    1    4    4    0    0  0.18301033153E+01  0.99466346230E+00  0.11198136858E+01  0.23672011403E+01  0.10500000000E+00 0. -1.
    3000001    1    5    5    0    0 -0.23469156817E+02 -0.11673972659E+02 -0.31606875489E+02  0.41074049442E+02  0.10000000000E+01 0.  1.
        -13    1    6    6    0    0 -0.28281532737E+01 -0.31643461548E+01 -0.95711405599E+01  0.10470400859E+02  0.10500000000E+00 0. -1.
         13    1    6    6    0    0 -0.29583438217E+01 -0.34423296369E+01 -0.99705384779E+01  0.10955550832E+02  0.10500000000E+00 0.  1.
</event>
<event>
11    0  0.3494755E-009  0.9118800E+02  0.7816531E-02  0.1126479E+00
         25   -1    0    0    0    0  0.00000000000E+00  0.00000000000E+00  0.99999998245E-14  0.12500000000E+03  0.12500000000E+03 0.  0.
    3000001    1    3    3    0    0 -0.15649915014E+02 -0.22568722461E+02 -0.12238204436E+02  0.30083894716E+02  0.10000000000E+01 0. -1.
    1000022    2    1    0    0    0 -0.36709949549E+02 -0.39049472126E+02 -0.30557624475E+02  0.62499999032E+02  0.99999898127E+01 0.  0.
    3000022    2    3    3    0    0 -0.21060034535E+02 -0.16480749664E+02 -0.18319420039E+02  0.32416104316E+02  0.25000865014E+00 0.  0.
    1000022    2    1    0    0    0  0.36709949549E+02  0.39049472126E+02  0.30557624475E+02  0.62500000968E+02  0.10000001915E+02 0.  0.
    3000022    2    5    5    0    0  0.34264078833E+02  0.33989989283E+02  0.29848792875E+02  0.56748210601E+02  0.25000111343E+00 0.  0.
        -13    1    4    4    0    0 -0.77082477173E+01 -0.59593285831E+01 -0.66592728940E+01  0.11802017646E+02  0.10500000000E+00 0.  1.
         13    1    4    4    0    0 -0.13351786817E+02 -0.10521421081E+02 -0.11660147145E+02  0.20614086670E+02  0.10500000000E+00 0. -1.
    3000001    1    5    5    0    0  0.24458707155E+01  0.50594828428E+01  0.70883160003E+00  0.57517903674E+01  0.10000000000E+01 0.  1.
        -13    1    6    6    0    0  0.13283320638E+02  0.13096064353E+02  0.11510458264E+02  0.21919287926E+02  0.10500000000E+00 0. -1.
         13    1    6    6    0    0  0.20980758195E+02  0.20893924930E+02  0.18338334611E+02  0.34828922675E+02  0.10500000000E+00 0.  1.
</event>
<event>
11    0  0.3494755E-009  0.9118800E+02  0.7816531E-02  0.1126479E+00
         25   -1    0    0    0    0  0.00000000000E+00  0.00000000000E+00  0.99999998245E-14  0.12500000000E+03  0.12500000000E+03 0.  0.
    3000001    1    3    3    0    0 -0.18892461757E+02 -0.29516237414E+02  0.11950920614E+02  0.37039949863E+02  0.10000000000E+01 0.  1.
    1000022    2    1    0    0    0 -0.32358072306E+02 -0.45120096127E+02  0.26895763741E+02  0.62499995245E+02  0.99999690268E+01 0.  0.
    3000022    2    3    3    0    0 -0.13465610549E+02 -0.15603858712E+02  0.14944843127E+02  0.25460045382E+02  0.25000113558E+00 0.  0.
    1000022    2    1    0    0    0  0.32358072306E+02  0.45120096127E+02 -0.26895763741E+02  0.62500004755E+02  0.10000028469E+02 0.  0.
    3000022    2    5    5    0    0  0.24756103242E+02  0.26437692278E+02 -0.17546451316E+02  0.40246200810E+02  0.25001028734E+00 0.  0.
        -13    1    4    4    0    0 -0.10216877870E+02 -0.11840186204E+02  0.11364340753E+02  0.19332197716E+02  0.10500000000E+00 0. -1.
         13    1    4    4    0    0 -0.32487326792E+01 -0.37636725080E+01  0.35805023738E+01  0.61278476660E+01  0.10500000000E+00 0.  1.
    3000001    1    5    5    0    0  0.76019690634E+01  0.18682403849E+02 -0.93493124255E+01  0.22253803945E+02  0.10000000000E+01 0. -1.
        -13    1    6    6    0    0  0.13065044446E+02  0.14041608172E+02 -0.93237875926E+01  0.21326185466E+02  0.10500000000E+00 0. -1.
         13    1    6    6    0    0  0.11691058796E+02  0.12396084106E+02 -0.82226637230E+01  0.18920015344E+02  0.10500000000E+00 0.  1.
</event>
<event>
11    0  0.3494755E-009  0.9118800E+02  0.7816531E-02  0.1126479E+00
         25   -1    0    0    0    0  0.00000000000E+00  0.00000000000E+00  0.99999998245E-14  0.12500000000E+03  0.12500000000E+03 0.  0.
    3000001    1    3    3    0    0  0.10253667286E+01 -0.77634706093E+01 -0.13935402121E+02  0.16016188220E+02  0.10000000000E+01 0. -1.
    1000022    2    1    0    0    0 -0.10792140086E+02 -0.22803670235E+02 -0.56300729812E+02  0.62499997887E+02  0.99999947374E+01 0.  0.
    3000022    2    3    3    0    0 -0.11817506815E+02 -0.15040199625E+02 -0.42365327691E+02  0.46483809667E+02  0.24999744426E+00 0.  0.
    1000022    2    1    0    0    0  0.10792140086E+02  0.22803670235E+02  0.56300729812E+02  0.62500002113E+02  0.10000021148E+02 0.  0.
    3000022    2    5    5    0    0  0.97282728476E+01  0.12536340638E+02  0.25862132745E+02  0.30343228923E+02  0.25000440756E+00 0.  0.
        -13    1    4    4    0    0 -0.28999604110E+01 -0.36634452690E+01 -0.10313809233E+02  0.11323263113E+02  0.10500000000E+00 0.  1.
         13    1    4    4    0    0 -0.89175464040E+01 -0.11376754356E+02 -0.32051518458E+02  0.35160546554E+02  0.10500000000E+00 0. -1.
    3000001    1    5    5    0    0  0.10638672388E+01  0.10267329596E+02  0.30438597067E+02  0.32156773189E+02  0.10000000000E+01 0.  1.
        -13    1    6    6    0    0  0.42054107945E+01  0.53189857113E+01  0.11008947000E+02  0.12930004950E+02  0.10500000000E+00 0. -1.
         13    1    6    6    0    0  0.55228620532E+01  0.72173549269E+01  0.14853185744E+02  0.17413223974E+02  0.10500000000E+00 0.  1.
</event>
<event>
11    0  0.3494755E-009  0.9118800E+02  0.7816531E-02  0.1126479E+00
         25   -1    0    0    0    0  0.00000000000E+00  0.00000000000E+00  0.99999998245E-14  0.12500000000E+03  0.12500000000E+03 0.  0.
    3000001    1    3    3    0    0 -0.20383797769E+02  0.79440812681E+01 -0.19162137624E+02  0.29099744965E+02  0.10000000000E+01 0.  1.
    1000022    2    1    0    0    0 -0.41986430547E+02  0.26473488868E+02 -0.36640743817E+02  0.62499997249E+02  0.99999792891E+01 0.  0.
    3000022    2    3    3    0    0 -0.21602632777E+02  0.18529407600E+02 -0.17478606193E+02  0.33400252284E+02  0.24997857174E+00 0.  0.
    1000022    2    1    0    0    0  0.41986430547E+02 -0.26473488868E+02  0.36640743817E+02  0.62500002751E+02  0.10000013672E+02 0.  0.
    3000022    2    5    5    0    0  0.18342318725E+02 -0.15408394862E+02  0.12946724549E+02  0.27231222246E+02  0.25000004626E+00 0.  0.
        -13    1    4    4    0    0 -0.12343366845E+02  0.10501197465E+02 -0.99475606929E+01  0.19015752470E+02  0.10500000000E+00 0. -1.
         13    1    4    4    0    0 -0.92592659323E+01  0.80282101353E+01 -0.75310455000E+01  0.14384499814E+02  0.10500000000E+00 0.  1.
    3000001    1    5    5    0    0  0.23644111822E+02 -0.11065094006E+02  0.23694019268E+02  0.35268780505E+02  0.10000000000E+01 0. -1.
        -13    1    6    6    0    0  0.12532143888E+02 -0.10587548890E+02  0.88448071365E+01  0.18638467217E+02  0.10500000000E+00 0. -1.
         13    1    6    6    0    0  0.58101748372E+01 -0.48208459718E+01  0.41019174121E+01  0.85927550284E+01  0.10500000000E+00 0.  1.
</event>
<event>
11    0  0.3494755E-009  0.9118800E+02  0.7816531E-02  0.1126479E+00
         25   -1    0    0    0    0  0.00000000000E+00  0.00000000000E+00  0.99999998245E-14  0.12500000000E+03  0.12500000000E+03 0.  0.
    3000001    1    3    3    0    0 -0.13268916903E+02 -0.29492791510E+00 -0.39266562271E+01  0.13876950940E+02  0.10000000000E+01 0. -1.
    1000022    2    1    0    0    0 -0.52354957299E+02  0.77961258405E+01 -0.31692725752E+02  0.62499999189E+02  0.99999950583E+01 0.  0.
    3000022    2    3    3    0    0 -0.39086040396E+02  0.80910537556E+01 -0.27766069525E+02  0.48623048250E+02  0.24999902935E+00 0.  0.
    1000022    2    1    0    0    0  0.52354957299E+02 -0.77961258405E+01  0.31692725752E+02  0.62500000811E+02  0.10000005193E+02 0.  0.
    3000022    2    5    5    0    0  0.28589091921E+02 -0.91993080052E+01  0.18156139091E+02  0.35095175400E+02  0.25001008586E+00 0.  0.
        -13    1    4    4    0    0 -0.10572713730E+02  0.22247143488E+01 -0.75257578816E+01  0.13167372033E+02  0.10500000000E+00 0. -1.
         13    1    4    4    0    0 -0.28513326666E+02  0.58663394069E+01 -0.20240311643E+02  0.35455676217E+02  0.10500000000E+00 0.  1.
    3000001    1    5    5    0    0  0.23765865378E+02  0.14031821647E+01  0.13536586661E+02  0.27404825411E+02  0.10000000000E+01 0.  1.
        -13    1    6    6    0    0  0.20100568367E+02 -0.65019152903E+01  0.12807676252E+02  0.24705370814E+02  0.10500000000E+00 0.  1.
         13    1    6    6    0    0  0.84885235544E+01 -0.26973927149E+01  0.53484628390E+01  0.10389804586E+02  0.10500000000E+00 0. -1.
</event>
<event>
11    0  0.3494755E-009  0.9118800E+02  0.7816531E-02  0.1126479E+00
         25   -1    0    0    0    0  0.00000000000E+00  0.00000000000E+00  0.99999998245E-14  0.12500000000E+03  0.12500000000E+03 0.  0.
    3000001    1    3    3    0    0 -0.16572542997E+02 -0.43307663422E+02 -0.20122734235E+02  0.50558157854E+02  0.10000000000E+01 0.  1.
    1000022    2    1    0    0    0 -0.20422787202E+02 -0.54608901919E+02 -0.20174933639E+02  0.62499999710E+02  0.99999805277E+01 0.  0.
    3000022    2    3    3    0    0 -0.38502442058E+01 -0.11301238497E+02 -0.52199403141E-01  0.11941841856E+02  0.24998028185E+00 0.  0.
    1000022    2    1    0    0    0  0.20422787202E+02  0.54608901919E+02  0.20174933639E+02  0.62500000290E+02  0.99999841485E+01 0.  0.
    3000022    2    5    5    0    0  0.54929058149E+01  0.25072793314E+02  0.53393803998E+01  0.26218094198E+02  0.25000288027E+00 0.  0.
        -13    1    4    4    0    0 -0.18520427246E+01 -0.52797911537E+01 -0.69123371642E-01  0.55966114677E+01  0.10500000000E+00 0. -1.
         13    1    4    4    0    0 -0.19982014812E+01 -0.60214473431E+01  0.16923968502E-01  0.63452303887E+01  0.10500000000E+00 0.  1.
    3000001    1    5    5    0    0  0.14929881388E+02  0.29536108605E+02  0.14835553239E+02  0.36281906092E+02  0.10000000000E+01 0.  1.
        -13    1    6    6    0    0  0.13238421636E+01  0.59716732605E+01  0.12821489820E+01  0.62504696317E+01  0.10500000000E+00 0.  1.
         13    1    6    6    0    0  0.41690636513E+01  0.19101120054E+02  0.40572314178E+01  0.19967624566E+02  0.10500000000E+00 0. -1.
</event>
<event>
11    0  0.3494755E-009  0.9118800E+02  0.7816531E-02  0.1126479E+00
         25   -1    0    0    0    0  0.00000000000E+00  0.00000000000E+00  0.99999998245E-14  0.12500000000E+03  0.12500000000E+03 0.  0.
    3000001    1    3    3    0    0  0.20000768250E+01  0.17469662393E+01 -0.88714220922E+01  0.93142003567E+01  0.10000000000E+01 0.  1.
    1000022    2    1    0    0    0 -0.47739639862E+00 -0.66035981761E+01 -0.61338525815E+02  0.62499999911E+02  0.99999911815E+01 0.  0.
    3000022    2    3    3    0    0 -0.24774732236E+01 -0.83505644154E+01 -0.52467103722E+02  0.53185799555E+02  0.25000325885E+00 0.  0.
    1000022    2    1    0    0    0  0.47739639862E+00  0.66035981761E+01  0.61338525815E+02  0.62500000089E+02  0.99999922877E+01 0.  0.
    3000022    2    5    5    0    0 -0.30773326437E+01  0.61529679768E+01  0.51903813969E+02  0.52358355559E+02  0.25000250238E+00 0.  0.
        -13    1    4    4    0    0 -0.85254422983E+00 -0.28831264852E+01 -0.18456303379E+02  0.18699877257E+02  0.10500000000E+00 0.  1.
         13    1    4    4    0    0 -0.16249289938E+01 -0.54674379302E+01 -0.34010800343E+02  0.34485922298E+02  0.10500000000E+00 0. -1.
    3000001    1    5    5    0    0  0.35547290423E+01  0.45063019931E+00  0.94347118459E+01  0.10141644529E+02  0.10000000000E+01 0.  1.
        -13    1    6    6    0    0 -0.11839070982E+01  0.23349631536E+01  0.20209361979E+02  0.20378494192E+02  0.10500000000E+00 0.  1.
         13    1    6    6    0    0 -0.18934255455E+01  0.38180048232E+01  0.31694451990E+02  0.31979861367E+02  0.10500000000E+00 0. -1.
</event>
<event>
11    0  0.3494755E-009  0.9118800E+02  0.7816531E-02  0.1126479E+00
         25   -1    0    0    0    0  0.00000000000E+00  0.00000000000E+00  0.99999998245E-14  0.12500000000E+03  0.12500000000E+03 0.  0.
    3000001    1    3    3    0    0 -0.25591989610E+02 -0.60121114546E+01  0.16006915154E+02  0.30794751973E+02  0.10000000000E+01 0. -1.
    1000022    2    1    0    0    0 -0.55933458989E+02 -0.11616491036E+02  0.23297095781E+02  0.62500005086E+02  0.10000063272E+02 0.  0.
    3000022    2    3    3    0    0 -0.30341469379E+02 -0.56043795813E+01  0.72901806266E+01  0.31705253113E+02  0.25001358863E+00 0.  0.
    1000022    2    1    0    0    0  0.55933458989E+02  0.11616491036E+02 -0.23297095781E+02  0.62499994914E+02  0.99999997017E+01 0.  0.
    3000022    2    5    5    0    0  0.26712002138E+01 -0.45963227511E+00  0.74161668107E+00  0.28211824189E+01  0.25000505728E+00 0.  0.
        -13    1    4    4    0    0 -0.78429446463E+01 -0.14734783264E+01  0.19052563579E+01  0.82051170554E+01  0.10500000000E+00 0.  1.
         13    1    4    4    0    0 -0.22498524733E+02 -0.41309012550E+01  0.53849242687E+01  0.23500136057E+02  0.10500000000E+00 0. -1.
    3000001    1    5    5    0    0  0.53262258775E+02  0.12076123311E+02 -0.24038712462E+02  0.59678812495E+02  0.10000000000E+01 0.  1.
        -13    1    6    6    0    0  0.12293382029E+01 -0.26743141658E+00  0.38405565919E+00  0.13195892274E+01  0.10500000000E+00 0. -1.
         13    1    6    6    0    0  0.14418620108E+01 -0.19220085853E+00  0.35756102188E+00  0.15015931915E+01  0.10500000000E+00 0.  1.
</event>
<event>
11    0  0.3494755E-009  0.9118800E+02  0.7816531E-02  0.1126479E+00
         25   -1    0    0    0    0  0.00000000000E+00  0.00000000000E+00  0.99999998245E-14  0.12500000000E+03  0.12500000000E+03 0.  0.
    3000001    1    3    3    0    0  0.11872019049E+02  0.34070145238E+02 -0.26218624375E+02  0.44610939208E+02  0.10000000000E+01 0. -1.
    1000022    2    1    0    0    0  0.22116322402E+02  0.44697135233E+02 -0.36321954461E+02  0.62499998541E+02  0.99999913540E+01 0.  0.
    3000022    2    3    3    0    0  0.10244303353E+02  0.10626989995E+02 -0.10103330087E+02  0.17889059334E+02  0.24999492208E+00 0.  0.
    1000022    2    1    0    0    0 -0.22116322402E+02 -0.44697135233E+02  0.36321954461E+02  0.62500001459E+02  0.10000009591E+02 0.  0.
    3000022    2    5    5    0    0 -0.54771280738E+01 -0.17607831823E+02  0.87777188752E+01  0.20424140670E+02  0.24999997232E+00 0.  0.
        -13    1    4    4    0    0  0.58531928628E+01  0.61232335610E+01 -0.58639770628E+01  0.10302965977E+02  0.10500000000E+00 0.  1.
         13    1    4    4    0    0  0.43911104901E+01  0.45037564338E+01 -0.42393530239E+01  0.75860933565E+01  0.10500000000E+00 0. -1.
    3000001    1    5    5    0    0 -0.16639194328E+02 -0.27089303410E+02  0.27544235586E+02  0.42075860789E+02  0.10000000000E+01 0. -1.
        -13    1    6    6    0    0 -0.15088142985E+01 -0.47319455886E+01  0.23579963698E+01  0.54990000474E+01  0.10500000000E+00 0. -1.
         13    1    6    6    0    0 -0.39683137753E+01 -0.12875886235E+02  0.64197225054E+01  0.14925140622E+02  0.10500000000E+00 0.  1.
</event>
<event>
11    0  0.3494755E-009  0.9118800E+02  0.7816531E-02  0.1126479E+00
         25   -1    0    0    0    0  0.00000000000E+00  0.00000000000E+00  0.99999998245E-14  0.12500000000E+03  0.12500000000E+03 0.  0.
    3000001    1    3    3    0    0 -0.23673643784E+02 -0.10980364502E+02 -0.37314099533E+02  0.45545052844E+02  0.10000000000E+01 0. -1.
    1000022    2    1    0    0    0 -0.27976235441E+02 -0.19087383905E+02 -0.51567932910E+02  0.62500002640E+02  0.10000032579E+02 0.  0.
    3000022    2    3    3    0    0 -0.43025916568E+01 -0.81070194028E+01 -0.14253833377E+02  0.16954949796E+02  0.24999614175E+00 0.  0.
    1000022    2    1    0    0    0  0.27976235441E+02  0.19087383905E+02  0.51567932910E+02  0.62499997360E+02  0.99999995771E+01 0.  0.
    3000022    2    5    5    0    0  0.17931759070E+02  0.16535623191E+02  0.30997046859E+02  0.39444318206E+02  0.25001417052E+00 0.  0.
        -13    1    4    4    0    0 -0.20987761599E+01 -0.38545601171E+01 -0.69059358274E+01  0.81832432274E+01  0.10500000000E+00 0. -1.
         13    1    4    4    0    0 -0.22038154969E+01 -0.42524592856E+01 -0.73478975500E+01  0.87717065686E+01  0.10500000000E+00 0.  1.
    3000001    1    5    5    0    0  0.10044476372E+02  0.25517607137E+01  0.20570886051E+02  0.23055679154E+02  0.10000000000E+01 0. -1.
        -13    1    6    6    0    0  0.10474449465E+02  0.95974043072E+01  0.18127643215E+02  0.23031429277E+02  0.10500000000E+00 0. -1.
         13    1    6    6    0    0  0.74573096050E+01  0.69382188841E+01  0.12869403644E+02  0.16412888928E+02  0.10500000000E+00 0.  1.
</event>
<event>
11    0  0.3494755E-009  0.9118800E+02  0.7816531E-02  0.1126479E+00
         25   -1    0    0    0    0  0.00000000000E+00  0.00000000000E+00  0.99999998245E-14  0.12500000000E+03  0.12500000000E+03 0.  0.
    3000001    1    3    3    0    0  0.58877196555E+02  0.34604662431E+01  0.14014249246E+01  0.59003924383E+02  0.10000000000E+01 0. -1.
    1000022    2    1    0    0    0  0.61444379279E+02  0.41883607451E+01  0.36463703755E+01  0.62499998849E+02  0.99999864261E+01 0.  0.
    3000022    2    3    3    0    0  0.25671827243E+01  0.72789450197E+00  0.22449454509E+01  0.34960744663E+01  0.24999810112E+00 0.  0.
    1000022    2    1    0    0    0 -0.61444379279E+02 -0.41883607451E+01 -0.36463703755E+01  0.62500001151E+02  0.10000000811E+02 0.  0.
    3000022    2    5    5    0    0 -0.57005470623E+02 -0.13455164224E+01 -0.30810868138E+01  0.57105075813E+02  0.24998443213E+00 0.  0.
        -13    1    4    4    0    0  0.18337659679E+01  0.53061625272E+00  0.15493308238E+01  0.24608336462E+01  0.10500000000E+00 0.  1.
         13    1    4    4    0    0  0.73341675633E+00  0.19727824926E+00  0.69561462715E+00  0.10352408201E+01  0.10500000000E+00 0. -1.
    3000001    1    5    5    0    0 -0.44389086561E+01 -0.28428443226E+01 -0.56528356172E+00  0.53949253382E+01  0.10000000000E+01 0.  1.
        -13    1    6    6    0    0 -0.43339193772E+02 -0.10277749079E+01 -0.23239165294E+01  0.43413749563E+02  0.10500000000E+00 0.  1.
         13    1    6    6    0    0 -0.13666276851E+02 -0.31774151448E+00 -0.75717028446E+00  0.13691326249E+02  0.10500000000E+00 0. -1.
</event>
<event>
11    0  0.3494755E-009  0.9118800E+02  0.7816531E-02  0.1126479E+00
         25   -1    0    0    0    0  0.00000000000E+00  0.00000000000E+00  0.99999998245E-14  0.12500000000E+03  0.12500000000E+03 0.  0.
    3000001    1    3    3    0    0  0.10749255201E+01 -0.11345802692E+02  0.40358340115E+02  0.41948519883E+02  0.10000000000E+01 0.  1.
    1000022    2    1    0    0    0 -0.44170142651E+01 -0.19810832179E+02  0.58260371477E+02  0.62500000322E+02  0.10000003449E+02 0.  0.
    3000022    2    3    3    0    0 -0.54919397853E+01 -0.84650294876E+01  0.17902031362E+02  0.20551480439E+02  0.24998899723E+00 0.  0.
    1000022    2    1    0    0    0  0.44170142651E+01  0.19810832179E+02 -0.58260371477E+02  0.62499999678E+02  0.99999994187E+01 0.  0.
    3000022    2    5    5    0    0  0.41092410046E+01  0.20058302004E+02 -0.48021974502E+02  0.52205305009E+02  0.24999019302E+00 0.  0.
        -13    1    4    4    0    0 -0.21605426973E+01 -0.32202043636E+01  0.69076550624E+01  0.79223976391E+01  0.10500000000E+00 0. -1.
         13    1    4    4    0    0 -0.33313970880E+01 -0.52448251240E+01  0.10994376300E+02  0.12629082800E+02  0.10500000000E+00 0.  1.
    3000001    1    5    5    0    0  0.30777326056E+00 -0.24746982493E+00 -0.10238396975E+02  0.10294694668E+02  0.10000000000E+01 0.  1.
        -13    1    6    6    0    0  0.25126255037E+01  0.12302948206E+02 -0.29294357897E+02  0.31872343044E+02  0.10500000000E+00 0.  1.
         13    1    6    6    0    0  0.15966155009E+01  0.77553537985E+01 -0.18727616605E+02  0.20332961966E+02  0.10500000000E+00 0. -1.
</event>
<event>
11    0  0.3494755E-009  0.9118800E+02  0.7816531E-02  0.1126479E+00
         25   -1    0    0    0    0  0.00000000000E+00  0.00000000000E+00  0.99999998245E-14  0.12500000000E+03  0.12500000000E+03 0.  0.
    3000001    1    3    3    0    0  0.18590353843E+02 -0.20094639901E+02 -0.29549219274E+02  0.40293326600E+02  0.10000000000E+01 0. -1.
    1000022    2    1    0    0    0  0.31721600569E+02 -0.24485066410E+02 -0.46909184064E+02  0.62500000585E+02  0.10000005190E+02 0.  0.
    3000022    2    3    3    0    0  0.13131246726E+02 -0.43904265096E+01 -0.17359964790E+02  0.22206673985E+02  0.25001295105E+00 0.  0.
    1000022    2    1    0    0    0 -0.31721600569E+02  0.24485066410E+02  0.46909184064E+02  0.62499999415E+02  0.99999978782E+01 0.  0.
    3000022    2    5    5    0    0 -0.13786451447E+02  0.16570141742E+02  0.26871439329E+02  0.34449565896E+02  0.24999596621E+00 0.  0.
        -13    1    4    4    0    0  0.90017498333E+01 -0.30366941993E+01 -0.11842585604E+02  0.15182584448E+02  0.10500000000E+00 0.  1.
         13    1    4    4    0    0  0.41294968926E+01 -0.13537323103E+01 -0.55173791857E+01  0.70240895376E+01  0.10500000000E+00 0. -1.
    3000001    1    5    5    0    0 -0.17935149122E+02  0.79149246686E+01  0.20037744735E+02  0.28050433519E+02  0.10000000000E+01 0. -1.
        -13    1    6    6    0    0 -0.68101404894E+01  0.81853932399E+01  0.13382328663E+02  0.17101942037E+02  0.10500000000E+00 0. -1.
         13    1    6    6    0    0 -0.69763109577E+01  0.83847485018E+01  0.13489110665E+02  0.17347623859E+02  0.10500000000E+00 0.  1.
</event>
<event>
11    0  0.3494755E-009  0.9118800E+02  0.7816531E-02  0.1126479E+00
         25   -1    0    0    0    0  0.00000000000E+00  0.00000000000E+00  0.99999998245E-14  0.12500000000E+03  0.12500000000E+03 0.  0.
    3000001    1    3    3    0    0 -0.72120087540E-01  0.26700002064E+01  0.25688468314E+01  0.38383689834E+01  0.10000000000E+01 0. -1.
    1000022    2    1    0    0    0 -0.14058643917E+02  0.14474613751E+02  0.58301716042E+02  0.62500000021E+02  0.99999998572E+01 0.  0.
    3000022    2    3    3    0    0 -0.13986523829E+02  0.11804613545E+02  0.55732869211E+02  0.58661631038E+02  0.24999153097E+00 0.  0.
    1000022    2    1    0    0    0  0.14058643917E+02 -0.14474613751E+02 -0.58301716042E+02  0.62499999979E+02  0.99999995946E+01 0.  0.
    3000022    2    5    5    0    0  0.10446427060E+02 -0.14728459465E+02 -0.41092662721E+02  0.44885685786E+02  0.25000496127E+00 0.  0.
        -13    1    4    4    0    0 -0.65651101052E+01  0.54752574727E+01  0.26175404407E+02  0.27536193200E+02  0.10500000000E+00 0.  1.
         13    1    4    4    0    0 -0.74214137240E+01  0.63293560719E+01  0.29557464804E+02  0.31125437838E+02  0.10500000000E+00 0. -1.
    3000001    1    5    5    0    0  0.36122168566E+01  0.25384571377E+00 -0.17209053321E+02  0.17614314193E+02  0.10000000000E+01 0. -1.
        -13    1    6    6    0    0  0.42237558946E+01 -0.60654342954E+01 -0.16811905041E+02  0.18365205775E+02  0.10500000000E+00 0.  1.
         13    1    6    6    0    0  0.62226711655E+01 -0.86630251694E+01 -0.24280757680E+02  0.26520480012E+02  0.10500000000E+00 0. -1.
</event>
<event>
11    0  0.3494755E-009  0.9118800E+02  0.7816531E-02  0.1126479E+00
         25   -1    0    0    0    0  0.00000000000E+00  0.00000000000E+00  0.99999998245E-14  0.12500000000E+03  0.12500000000E+03 0.  0.
    3000001    1    3    3    0    0  0.13840201536E+02 -0.29053375489E+02  0.38259220208E+02  0.50004177193E+02  0.10000000000E+01 0. -1.
    1000022    2    1    0    0    0  0.18028512358E+02 -0.39348109003E+02  0.43965315849E+02  0.62499997041E+02  0.99999846253E+01 0.  0.
    3000022    2    3    3    0    0  0.41883108221E+01 -0.10294733514E+02  0.57060956407E+01  0.12495819848E+02  0.25000108290E+00 0.  0.
    1000022    2    1    0    0    0 -0.18028512358E+02  0.39348109003E+02 -0.43965315849E+02  0.62500002959E+02  0.10000021614E+02 0.  0.
    3000022    2    5    5    0    0 -0.11079579218E+02  0.18345795230E+02 -0.15575835122E+02  0.26495177289E+02  0.25000313654E+00 0.  0.
        -13    1    4    4    0    0  0.20440249278E+01 -0.50925152407E+01  0.27467813409E+01  0.61373921267E+01  0.10500000000E+00 0.  1.
         13    1    4    4    0    0  0.21442858942E+01 -0.52022182729E+01  0.29593142999E+01  0.63584277208E+01  0.10500000000E+00 0. -1.
    3000001    1    5    5    0    0 -0.69489331402E+01  0.21002313772E+02 -0.28389480727E+02  0.36004825670E+02  0.10000000000E+01 0.  1.
        -13    1    6    6    0    0 -0.63111699859E+01  0.10491177504E+02 -0.88211607812E+01  0.15090380199E+02  0.10500000000E+00 0.  1.
         13    1    6    6    0    0 -0.47684092316E+01  0.78546177263E+01 -0.67546743411E+01  0.11404797091E+02  0.10500000000E+00 0. -1.
</event>
<event>
11    0  0.3494755E-009  0.9118800E+02  0.7816531E-02  0.1126479E+00
         25   -1    0    0    0    0  0.00000000000E+00  0.00000000000E+00  0.99999998245E-14  0.12500000000E+03  0.12500000000E+03 0.  0.
    3000001    1    3    3    0    0  0.35898842395E+01 -0.12594670170E+01  0.64258686224E+01  0.75342759156E+01  0.10000000000E+01 0.  1.
    1000022    2    1    0    0    0  0.17393886488E+02  0.11754287306E+02  0.58013269869E+02  0.62499999315E+02  0.99999938125E+01 0.  0.
    3000022    2    3    3    0    0  0.13804002249E+02  0.13013754323E+02  0.51587401247E+02  0.54965723400E+02  0.25000357023E+00 0.  0.
    1000022    2    1    0    0    0 -0.17393886488E+02 -0.11754287306E+02 -0.58013269869E+02  0.62500000685E+02  0.10000002370E+02 0.  0.
    3000022    2    5    5    0    0 -0.44519304457E+01 -0.21937408662E+01 -0.48411944821E+01  0.69377124359E+01  0.25001229818E+00 0.  0.
        -13    1    4    4    0    0  0.91667288239E+01  0.87062392177E+01  0.34451394876E+02  0.36697917551E+02  0.10500000000E+00 0.  1.
         13    1    4    4    0    0  0.46372734250E+01  0.43075151049E+01  0.17136006371E+02  0.18267805849E+02  0.10500000000E+00 0. -1.
    3000001    1    5    5    0    0 -0.12941956043E+02 -0.95605464394E+01 -0.53172075387E+02  0.55562288249E+02  0.10000000000E+01 0. -1.
        -13    1    6    6    0    0 -0.17968471248E+01 -0.94378477341E+00 -0.19290993133E+01  0.28021132113E+01  0.10500000000E+00 0. -1.
         13    1    6    6    0    0 -0.26550833209E+01 -0.12499560927E+01 -0.29120951687E+01  0.41355992246E+01  0.10500000000E+00 0.  1.
</event>
<event>
11    0  0.3494755E-009  0.9118800E+02  0.7816531E-02  0.1126479E+00
         25   -1    0    0    0    0  0.00000000000E+00  0.00000000000E+00  0.99999998245E-14  0.12500000000E+03  0.12500000000E+03 0.  0.
    3000001    1    3    3    0    0  0.53742282784E+01  0.37133244688E+02  0.30023980312E+01  0.37653347588E+02  0.10000000000E+01 0.  1.
    1000022    2    1    0    0    0  0.64724363933E+01  0.60069687736E+02  0.12489607806E+02  0.62499999885E+02  0.99999932486E+01 0.  0.
    3000022    2    3    3    0    0  0.10982081149E+01  0.22936443048E+02  0.94872097751E+01  0.24846652297E+02  0.25000063799E+00 0.  0.
    1000022    2    1    0    0    0 -0.64724363933E+01 -0.60069687736E+02 -0.12489607806E+02  0.62500000115E+02  0.99999946819E+01 0.  0.
    3000022    2    5    5    0    0 -0.74569632081E+00 -0.21602110562E+02 -0.90815963655E+01  0.23446644465E+02  0.25000081784E+00 0.  0.
        -13    1    4    4    0    0  0.49910896111E+00  0.11812670687E+02  0.48704043694E+01  0.12787500234E+02  0.10500000000E+00 0. -1.
         13    1    4    4    0    0  0.59909915382E+00  0.11123772361E+02  0.46168054057E+01  0.12059152063E+02  0.10500000000E+00 0.  1.
    3000001    1    5    5    0    0 -0.57267400725E+01 -0.38467577174E+02 -0.34080114408E+01  0.39053355649E+02  0.10000000000E+01 0. -1.
        -13    1    6    6    0    0 -0.49117004162E+00 -0.12361494279E+02 -0.52097092714E+01  0.13423855054E+02  0.10500000000E+00 0. -1.
         13    1    6    6    0    0 -0.25452627919E+00 -0.92406162831E+01 -0.38718870941E+01  0.10022789411E+02  0.10500000000E+00 0.  1.
</event>
<event>
11    0  0.3494755E-009  0.9118800E+02  0.7816531E-02  0.1126479E+00
         25   -1    0    0    0    0  0.00000000000E+00  0.00000000000E+00  0.99999998245E-14  0.12500000000E+03  0.12500000000E+03 0.  0.
    3000001    1    3    3    0    0  0.78148185881E+01  0.10745538860E+02  0.27324202253E+01  0.13601621787E+02  0.10000000000E+01 0.  1.
    1000022    2    1    0    0    0  0.19185970554E+02  0.57313087811E+02  0.12383799022E+02  0.62499999211E+02  0.99999961344E+01 0.  0.
    3000022    2    3    3    0    0  0.11371151966E+02  0.46567548951E+02  0.96513787972E+01  0.48898377424E+02  0.24997941023E+00 0.  0.
    1000022    2    1    0    0    0 -0.19185970554E+02 -0.57313087811E+02 -0.12383799022E+02  0.62500000789E+02  0.10000005992E+02 0.  0.
    3000022    2    5    5    0    0 -0.14452328535E+02 -0.27596220289E+02 -0.62329715902E+01  0.31770011199E+02  0.25000484694E+00 0.  0.
        -13    1    4    4    0    0  0.51307072399E+01  0.21266001250E+02  0.43751070865E+01  0.22309629153E+02  0.10500000000E+00 0. -1.
         13    1    4    4    0    0  0.62404447261E+01  0.25301547701E+02  0.52762717107E+01  0.26588748271E+02  0.10500000000E+00 0.  1.
    3000001    1    5    5    0    0 -0.47336420192E+01 -0.29716867521E+02 -0.61508274323E+01  0.30729989589E+02  0.10000000000E+01 0.  1.
        -13    1    6    6    0    0 -0.11011157517E+02 -0.20986692459E+02 -0.47472002804E+01  0.24170928525E+02  0.10500000000E+00 0. -1.
         13    1    6    6    0    0 -0.34411710177E+01 -0.66095278301E+01 -0.14857713098E+01  0.75990826746E+01  0.10500000000E+00 0.  1.
</event>
<event>
11    0  0.3494755E-009  0.9118800E+02  0.7816531E-02  0.1126479E+00
         25   -1    0    0    0    0  0.00000000000E+00  0.00000000000E+00  0.99999998245E-14  0.12500000000E+03  0.12500000000E+03 0.  0.
    3000001    1    3    3    0    0 -0.13872309213E+02  0.11442493377E+01 -0.61509548197E+01  0.15250721774E+02  0.10000000000E+01 0. -1.
    1000022    2    1    0    0    0 -0.61044343631E+02  0.19087870490E+01 -0.87289659857E+01  0.62499997221E+02  0.99999724066E+01 0.  0.
    3000022    2    3    3    0    0 -0.47172034419E+02  0.76453771132E+00 -0.25780111660E+01  0.47249275447E+02  0.25007923377E+00 0.  0.
    1000022    2    1    0    0    0  0.61044343631E+02 -0.19087870490E+01  0.87289659857E+01  0.62500002779E+02  0.10000007139E+02 0.  0.
    3000022    2    5    5    0    0  0.51921499447E+01 -0.27960561552E+01 -0.28495283115E+00  0.59093187529E+01  0.24999787163E+00 0.  0.
        -13    1    4    4    0    0 -0.19090331156E+02  0.25348888126E+00 -0.10129602682E+01  0.19119155676E+02  0.10500000000E+00 0. -1.
         13    1    4    4    0    0 -0.28081703263E+02  0.51104883006E+00 -0.15650508978E+01  0.28130119771E+02  0.10500000000E+00 0.  1.
    3000001    1    5    5    0    0  0.55852193686E+02  0.88726910628E+00  0.90139188168E+01  0.56590684026E+02  0.10000000000E+01 0. -1.
        -13    1    6    6    0    0  0.33200510412E+01 -0.18247723890E+01 -0.13516829435E+00  0.37923381515E+01  0.10500000000E+00 0. -1.
         13    1    6    6    0    0  0.18720989035E+01 -0.97128376628E+00 -0.14978453680E+00  0.21169806014E+01  0.10500000000E+00 0.  1.
</event>
<event>
11    0  0.3494755E-009  0.9118800E+02  0.7816531E-02  0.1126479E+00
         25   -1    0    0    0    0  0.00000000000E+00  0.00000000000E+00  0.99999998245E-14  0.12500000000E+03  0.12500000000E+03 0.  0.
    3000001    1    3    3    0    0  0.80063866615E+01  0.34958213709E+01 -0.31940323561E+01  0.93554709728E+01  0.10000000000E+01 0.  1.
    1000022    2    1    0    0    0  0.54953523514E+02  0.13760619038E+01 -0.28008354087E+02  0.62499991930E+02  0.99998899772E+01 0.  0.
    3000022    2    3    3    0    0  0.46947136853E+02 -0.21197594671E+01 -0.24814321731E+02  0.53144520957E+02  0.25001181826E+00 0.  0.
    1000022    2    1    0    0    0 -0.54953523514E+02 -0.13760619038E+01  0.28008354087E+02  0.62500008070E+02  0.99999908559E+01 0.  0.
    3000022    2    5    5    0    0 -0.24452931163E+02 -0.54547648058E+01  0.11559968349E+02  0.27593399176E+02  0.25001656232E+00 0.  0.
        -13    1    4    4    0    0  0.28979285425E+02 -0.13665079481E+01 -0.15296513180E+02  0.32797266169E+02  0.10500000000E+00 0. -1.
         13    1    4    4    0    0  0.17967851428E+02 -0.75325151900E+00 -0.95178085510E+01  0.20347254788E+02  0.10500000000E+00 0.  1.
    3000001    1    5    5    0    0 -0.30500592351E+02  0.40787029021E+01  0.16448385737E+02  0.34906608894E+02  0.10000000000E+01 0.  1.
        -13    1    6    6    0    0 -0.73813004440E+01 -0.16419381604E+01  0.35400164590E+01  0.83499879459E+01  0.10500000000E+00 0.  1.
         13    1    6    6    0    0 -0.17071630719E+02 -0.38128266454E+01  0.80199518905E+01  0.19243411230E+02  0.10500000000E+00 0. -1.
</event>
<event>
11    0  0.3494755E-009  0.9118800E+02  0.7816531E-02  0.1126479E+00
         25   -1    0    0    0    0  0.00000000000E+00  0.00000000000E+00  0.99999998245E-14  0.12500000000E+03  0.12500000000E+03 0.  0.
    3000001    1    3    3    0    0 -0.96666477116E+01 -0.12463302732E+02  0.19579742077E+01  0.15925189354E+02  0.10000000000E+01 0.  1.
    1000022    2    1    0    0    0 -0.28978082148E+02 -0.54192076302E+02 -0.54533983153E+01  0.62499999497E+02  0.10000000246E+02 0.  0.
    3000022    2    3    3    0    0 -0.19311434437E+02 -0.41728773570E+02 -0.74113725229E+01  0.46574810142E+02  0.24990683403E+00 0.  0.
    1000022    2    1    0    0    0  0.28978082148E+02  0.54192076302E+02  0.54533983153E+01  0.62500000503E+02  0.10000006539E+02 0.  0.
    3000022    2    5    5    0    0  0.11058821822E+02  0.22724463620E+02 -0.25454587490E+01  0.25401587425E+02  0.24999316242E+00 0.  0.
        -13    1    4    4    0    0 -0.94578299206E+01 -0.20548589254E+02 -0.35966883943E+01  0.22905070608E+02  0.10500000000E+00 0. -1.
         13    1    4    4    0    0 -0.98536045160E+01 -0.21180184316E+02 -0.38146841287E+01  0.23669739534E+02  0.10500000000E+00 0.  1.
    3000001    1    5    5    0    0  0.17919260326E+02  0.31467612683E+02  0.79988570642E+01  0.37098413078E+02  0.10000000000E+01 0.  1.
        -13    1    6    6    0    0  0.37668361026E+01  0.77181541786E+01 -0.81091999574E+00  0.86271417276E+01  0.10500000000E+00 0.  1.
         13    1    6    6    0    0  0.72919857197E+01  0.15006309441E+02 -0.17345387532E+01  0.16774445698E+02  0.10500000000E+00 0. -1.
</event>
<event>
11    0  0.3494755E-009  0.9118800E+02  0.7816531E-02  0.1126479E+00
         25   -1    0    0    0    0  0.00000000000E+00  0.00000000000E+00  0.99999998245E-14  0.12500000000E+03  0.12500000000E+03 0.  0.
    3000001    1    3    3    0    0  0.35687119682E+02  0.11536556513E+02  0.44012806364E+01  0.37776102480E+02  0.10000000000E+01 0. -1.
    1000022    2    1    0    0    0  0.58293828304E+02  0.14645844397E+02  0.13913258917E+02  0.62500001287E+02  0.10000010541E+02 0.  0.
    3000022    2    3    3    0    0  0.22606708622E+02  0.31092878842E+01  0.95119782803E+01  0.24723898807E+02  0.24999110258E+00 0.  0.
    1000022    2    1    0    0    0 -0.58293828304E+02 -0.14645844397E+02 -0.13913258917E+02  0.62499998713E+02  0.99999944473E+01 0.  0.
    3000022    2    5    5    0    0 -0.54763446666E+02 -0.12932550198E+02 -0.15134900988E+02  0.58270178282E+02  0.25000755446E+00 0.  0.
        -13    1    4    4    0    0  0.75654062287E+01  0.10400306929E+01  0.31251302924E+01  0.82519391414E+01  0.10500000000E+00 0. -1.
         13    1    4    4    0    0  0.15041302393E+02  0.20692571913E+01  0.63868479879E+01  0.16471959666E+02  0.10500000000E+00 0.  1.
    3000001    1    5    5    0    0 -0.35303816385E+01 -0.17132941990E+01  0.12216420712E+01  0.42298204307E+01  0.10000000000E+01 0.  1.
        -13    1    6    6    0    0 -0.14863091080E+02 -0.35322127298E+01 -0.41396547830E+01  0.15828321767E+02  0.10500000000E+00 0. -1.
         13    1    6    6    0    0 -0.39900355585E+02 -0.94003374680E+01 -0.10995246205E+02  0.42441856515E+02  0.10500000000E+00 0.  1.
</event>
<event>
11    0  0.3494755E-009  0.9118800E+02  0.7816531E-02  0.1126479E+00
         25   -1    0    0    0    0  0.00000000000E+00  0.00000000000E+00  0.99999998245E-14  0.12500000000E+03  0.12500000000E+03 0.  0.
    3000001    1    3    3    0    0 -0.23556190958E+02  0.37983627096E+02  0.45165836712E+01  0.44933835668E+02  0.10000000000E+01 0.  1.
    1000022    2    1    0    0    0 -0.28436309228E+02  0.53707465141E+02  0.10636467909E+02  0.62500000236E+02  0.10000004279E+02 0.  0.
    3000022    2    3    3    0    0 -0.48801182701E+01  0.15723838045E+02  0.61198842382E+01  0.17566164568E+02  0.25003468390E+00 0.  0.
    1000022    2    1    0    0    0  0.28436309228E+02 -0.53707465141E+02 -0.10636467909E+02  0.62499999764E+02  0.10000001323E+02 0.  0.
    3000022    2    5    5    0    0  0.65359124758E+01 -0.71465831748E+01  0.99233987273E+00  0.97385339214E+01  0.25000309918E+00 0.  0.
        -13    1    4    4    0    0 -0.14615144525E+01  0.45655048887E+01  0.17909672921E+01  0.51184419724E+01  0.10500000000E+00 0.  1.
         13    1    4    4    0    0 -0.34186038176E+01  0.11158333157E+02  0.43289169461E+01  0.12447722596E+02  0.10500000000E+00 0. -1.
    3000001    1    5    5    0    0  0.21900396752E+02 -0.46560881966E+02 -0.11628807782E+02  0.52761465842E+02  0.10000000000E+01 0.  1.
        -13    1    6    6    0    0  0.18491537971E+01 -0.20612825131E+01  0.25157330949E+00  0.27825473031E+01  0.10500000000E+00 0. -1.
         13    1    6    6    0    0  0.46867586787E+01 -0.50853006617E+01  0.74076656324E+00  0.69559866183E+01  0.10500000000E+00 0.  1.
</event>
<event>
11    0  0.3494755E-009  0.9118800E+02  0.7816531E-02  0.1126479E+00
         25   -1    0    0    0    0  0.00000000000E+00  0.00000000000E+00  0.99999998245E-14  0.12500000000E+03  0.12500000000E+03 0.  0.
    3000001    1    3    3    0    0  0.21947927532E+01  0.15605958112E+00 -0.51019763487E+01  0.56454966553E+01  0.10000000000E+01 0. -1.
    1000022    2    1    0    0    0  0.17047989690E+02 -0.27055458451E+02 -0.52760005528E+02  0.62499998823E+02  0.99999942548E+01 0.  0.
    3000022    2    3    3    0    0  0.14853196937E+02 -0.27211518032E+02 -0.47658029179E+02  0.56854502168E+02  0.24999725455E+00 0.  0.
    1000022    2    1    0    0    0 -0.17047989690E+02  0.27055458451E+02  0.52760005528E+02  0.62500001177E+02  0.10000008967E+02 0.  0.
    3000022    2    5    5    0    0 -0.26767342430E+01  0.93014507516E+01  0.23127661023E+02  0.25072556522E+02  0.24998776157E+00 0.  0.
        -13    1    4    4    0    0  0.69556871261E+01 -0.12800262872E+02 -0.22508279250E+02  0.26811601459E+02  0.10500000000E+00 0. -1.
         13    1    4    4    0    0  0.78975098108E+01 -0.14411255160E+02 -0.25149749929E+02  0.30042900709E+02  0.10500000000E+00 0.  1.
    3000001    1    5    5    0    0 -0.14371255447E+02  0.17754007699E+02  0.29632344505E+02  0.37427444655E+02  0.10000000000E+01 0.  1.
        -13    1    6    6    0    0 -0.84804027769E+00  0.28291843295E+01  0.71485177897E+01  0.77353595827E+01  0.10500000000E+00 0. -1.
         13    1    6    6    0    0 -0.18286939653E+01  0.64722664220E+01  0.15979143233E+02  0.17337196939E+02  0.10500000000E+00 0.  1.
</event>
<event>
11    0  0.3494755E-009  0.9118800E+02  0.7816531E-02  0.1126479E+00
         25   -1    0    0    0    0  0.00000000000E+00  0.00000000000E+00  0.99999998245E-14  0.12500000000E+03  0.12500000000E+03 0.  0.
    3000001    1    3    3    0    0  0.12979004793E+02  0.15673561738E+02 -0.17767126128E+02  0.27033051508E+02  0.10000000000E+01 0. -1.
    1000022    2    1    0    0    0  0.22481016174E+02  0.43758477333E+02 -0.37229685916E+02  0.62500000056E+02  0.10000003344E+02 0.  0.
    3000022    2    3    3    0    0  0.95020113814E+01  0.28084915595E+02 -0.19462559788E+02  0.35466948548E+02  0.25000314277E+00 0.  0.
    1000022    2    1    0    0    0 -0.22481016174E+02 -0.43758477333E+02  0.37229685916E+02  0.62499999944E+02  0.10000002645E+02 0.  0.
    3000022    2    5    5    0    0 -0.27674906850E+01 -0.14370442229E+02  0.13232941551E+02  0.19731747296E+02  0.24998939578E+00 0.  0.
        -13    1    4    4    0    0  0.47874997551E+01  0.13954214064E+02 -0.97145846637E+01  0.17664213094E+02  0.10500000000E+00 0. -1.
         13    1    4    4    0    0  0.47145116264E+01  0.14130701530E+02 -0.97479751246E+01  0.17802735454E+02  0.10500000000E+00 0.  1.
    3000001    1    5    5    0    0 -0.19713525489E+02 -0.29388035104E+02  0.23996744365E+02  0.42768252648E+02  0.10000000000E+01 0.  1.
        -13    1    6    6    0    0 -0.15617939829E+01 -0.84331574097E+01  0.77278191441E+01  0.11545023086E+02  0.10500000000E+00 0. -1.
         13    1    6    6    0    0 -0.12056967022E+01 -0.59372848193E+01  0.55051224071E+01  0.81867242094E+01  0.10500000000E+00 0.  1.
</event>
<event>
11    0  0.3494755E-009  0.9118800E+02  0.7816531E-02  0.1126479E+00
         25   -1    0    0    0    0  0.00000000000E+00  0.00000000000E+00  0.99999998245E-14  0.12500000000E+03  0.12500000000E+03 0.  0.
    3000001    1    3    3    0    0 -0.10216365311E+02 -0.24507700032E+02  0.17696317619E+02  0.31924303255E+02  0.10000000000E+01 0.  1.
    1000022    2    1    0    0    0 -0.28004731297E+02 -0.46440564851E+02  0.29415285523E+02  0.62499999911E+02  0.99999963896E+01 0.  0.
    3000022    2    3    3    0    0 -0.17788365986E+02 -0.21932864819E+02  0.11718967904E+02  0.30575696656E+02  0.24998733522E+00 0.  0.
    1000022    2    1    0    0    0  0.28004731297E+02  0.46440564851E+02 -0.29415285523E+02  0.62500000089E+02  0.99999975018E+01 0.  0.
    3000022    2    5    5    0    0  0.55885127735E+01  0.17054519456E+02 -0.70171817617E+01  0.19271519096E+02  0.24999900915E+00 0.  0.
        -13    1    4    4    0    0 -0.13430984158E+02 -0.16522599323E+02  0.88338179933E+01  0.23052873772E+02  0.10500000000E+00 0.  1.
         13    1    4    4    0    0 -0.43573818278E+01 -0.54102654959E+01  0.28851499108E+01  0.75228228835E+01  0.10500000000E+00 0. -1.
    3000001    1    5    5    0    0  0.22416218523E+02  0.29386045395E+02 -0.22398103761E+02  0.43228480993E+02  0.10000000000E+01 0.  1.
        -13    1    6    6    0    0  0.12859387866E+01  0.39490022338E+01 -0.16180590173E+01  0.44584074723E+01  0.10500000000E+00 0. -1.
         13    1    6    6    0    0  0.43025739868E+01  0.13105517222E+02 -0.53991227444E+01  0.14813111624E+02  0.10500000000E+00 0.  1.
</event>
<event>
11    0  0.3494755E-009  0.9118800E+02  0.7816531E-02  0.1126479E+00
         25   -1    0    0    0    0  0.00000000000E+00  0.00000000000E+00  0.99999998245E-14  0.12500000000E+03  0.12500000000E+03 0.  0.
    3000001    1    3    3    0    0 -0.27481396703E+02 -0.25333118481E+02  0.10420439993E+02  0.38814683129E+02  0.10000000000E+01 0.  1.
    1000022    2    1    0    0    0 -0.48676852883E+02 -0.35518982959E+02  0.13236904015E+02  0.62499998534E+02  0.10000001592E+02 0.  0.
    3000022    2    3    3    0    0 -0.21195456180E+02 -0.10185864479E+02  0.28164640213E+01  0.23685315406E+02  0.24999688474E+00 0.  0.
    1000022    2    1    0    0    0  0.48676852883E+02  0.35518982959E+02 -0.13236904015E+02  0.62500001466E+02  0.10000019915E+02 0.  0.
    3000022    2    5    5    0    0  0.32810414428E+02  0.28830708531E+02 -0.11489503066E+02  0.45164191876E+02  0.24999550561E+00 0.  0.
        -13    1    4    4    0    0 -0.71842137016E+01 -0.33952206234E+01  0.96892034332E+00  0.80056405880E+01  0.10500000000E+00 0. -1.
         13    1    4    4    0    0 -0.14011242478E+02 -0.67906438552E+01  0.18475436780E+01  0.15679674818E+02  0.10500000000E+00 0.  1.
    3000001    1    5    5    0    0  0.15866438455E+02  0.66882744286E+01 -0.17474009485E+01  0.17335809590E+02  0.10000000000E+01 0.  1.
        -13    1    6    6    0    0  0.14840305681E+02  0.13125086572E+02 -0.52323102657E+01  0.20491233880E+02  0.10500000000E+00 0. -1.
         13    1    6    6    0    0  0.17970108747E+02  0.15705621959E+02 -0.62571928005E+01  0.24672957996E+02  0.10500000000E+00 0.  1.
</event>
<event>
11    0  0.3494755E-009  0.9118800E+02  0.7816531E-02  0.1126479E+00
         25   -1    0    0    0    0  0.00000000000E+00  0.00000000000E+00  0.99999998245E-14  0.12500000000E+03  0.12500000000E+03 0.  0.
    3000001    1    3    3    0    0  0.13008009080E+01  0.12716339269E+02  0.85954009050E+01  0.15436265226E+02  0.10000000000E+01 0. -1.
    1000022    2    1    0    0    0  0.21200907072E+02  0.45404922749E+02  0.35988383568E+02  0.62500006149E+02  0.10000077312E+02 0.  0.
    3000022    2    3    3    0    0  0.19900106164E+02  0.32688583480E+02  0.27392982663E+02  0.47063740923E+02  0.24999042962E+00 0.  0.
    1000022    2    1    0    0    0 -0.21200907072E+02 -0.45404922749E+02 -0.35988383568E+02  0.62499993851E+02  0.10000000449E+02 0.  0.
    3000022    2    5    5    0    0 -0.13646335340E+02 -0.21853953488E+02 -0.23039786641E+02  0.34564606444E+02  0.24999781313E+00 0.  0.
        -13    1    4    4    0    0  0.11564793096E+02  0.19104524191E+02  0.16024311044E+02  0.27486666829E+02  0.10500000000E+00 0. -1.
         13    1    4    4    0    0  0.83353130680E+01  0.13584059289E+02  0.11368671619E+02  0.19577074094E+02  0.10500000000E+00 0.  1.
    3000001    1    5    5    0    0 -0.75545717325E+01 -0.23550969261E+02 -0.12948596927E+02  0.27935387407E+02  0.10000000000E+01 0.  1.
        -13    1    6    6    0    0 -0.83482827280E+01 -0.13368947231E+02 -0.14177158403E+02  0.21199656128E+02  0.10500000000E+00 0.  1.
         13    1    6    6    0    0 -0.52980526119E+01 -0.84850062573E+01 -0.88626282378E+01  0.13364950316E+02  0.10500000000E+00 0. -1.
</event>
<event>
11    0  0.3494755E-009  0.9118800E+02  0.7816531E-02  0.1126479E+00
         25   -1    0    0    0    0  0.00000000000E+00  0.00000000000E+00  0.99999998245E-14  0.12500000000E+03  0.12500000000E+03 0.  0.
    3000001    1    3    3    0    0 -0.13207734362E+02 -0.10123925592E+02 -0.89337666324E+01  0.18914288319E+02  0.10000000000E+01 0. -1.
    1000022    2    1    0    0    0 -0.40322997517E+02 -0.23646224552E+02 -0.40263653488E+02  0.62500001289E+02  0.10000015227E+02 0.  0.
    3000022    2    3    3    0    0 -0.27115263155E+02 -0.13522298960E+02 -0.31329886856E+02  0.43585712970E+02  0.24999910554E+00 0.  0.
    1000022    2    1    0    0    0  0.40322997517E+02  0.23646224552E+02  0.40263653488E+02  0.62499998711E+02  0.99999991149E+01 0.  0.
    3000022    2    5    5    0    0  0.18409167264E+02  0.86301315640E+01  0.11612263313E+02  0.23415460029E+02  0.24999792703E+00 0.  0.
        -13    1    4    4    0    0 -0.10057077611E+02 -0.49734861957E+01 -0.11534676991E+02  0.16091618107E+02  0.10500000000E+00 0.  1.
         13    1    4    4    0    0 -0.17058185544E+02 -0.85488127646E+01 -0.19795209864E+02  0.27494094863E+02  0.10500000000E+00 0. -1.
    3000001    1    5    5    0    0  0.21913830253E+02  0.15016092988E+02  0.28651390175E+02  0.39084538682E+02  0.10000000000E+01 0. -1.
        -13    1    6    6    0    0  0.91120127100E+01  0.42377302793E+01  0.56699157862E+01  0.11538895249E+02  0.10500000000E+00 0.  1.
         13    1    6    6    0    0  0.92971545538E+01  0.43924012847E+01  0.59423475271E+01  0.11876564780E+02  0.10500000000E+00 0. -1.
</event>
<event>
11    0  0.3494755E-009  0.9118800E+02  0.7816531E-02  0.1126479E+00
         25   -1    0    0    0    0  0.00000000000E+00  0.00000000000E+00  0.99999998245E-14  0.12500000000E+03  0.12500000000E+03 0.  0.
    3000001    1    3    3    0    0 -0.48990373073E+01  0.43121844014E+02 -0.41180536324E+02  0.59835863574E+02  0.10000000000E+01 0. -1.
    1000022    2    1    0    0    0 -0.31757913815E+01  0.44314889238E+02 -0.42806016209E+02  0.62499998250E+02  0.99999849248E+01 0.  0.
    3000022    2    3    3    0    0  0.17232459258E+01  0.11930452246E+01 -0.16254798853E+01  0.26641346767E+01  0.24999057897E+00 0.  0.
    1000022    2    1    0    0    0  0.31757913815E+01 -0.44314889238E+02  0.42806016209E+02  0.62500001750E+02  0.10000006794E+02 0.  0.
    3000022    2    5    5    0    0  0.64066452721E+01 -0.30603438662E+02  0.27088369713E+02  0.41369769731E+02  0.25002461826E+00 0.  0.
        -13    1    4    4    0    0  0.63444400366E+00  0.48835865712E+00 -0.68071223313E+00  0.10561285509E+01  0.10500000000E+00 0.  1.
         13    1    4    4    0    0  0.10888019221E+01  0.70468656746E+00 -0.94476765212E+00  0.16080061258E+01  0.10500000000E+00 0. -1.
    3000001    1    5    5    0    0 -0.32308538906E+01 -0.13711450576E+02  0.15717646497E+02  0.21130232018E+02  0.10000000000E+01 0. -1.
        -13    1    6    6    0    0  0.20516559009E+01 -0.99129003939E+01  0.87093771725E+01  0.13354368644E+02  0.10500000000E+00 0. -1.
         13    1    6    6    0    0  0.43549893712E+01 -0.20690538268E+02  0.18378992540E+02  0.28015401087E+02  0.10500000000E+00 0.  1.
</event>
<event>
11    0  0.3494755E-009  0.9118800E+02  0.7816531E-02  0.1126479E+00
         25   -1    0    0    0    0  0.00000000000E+00  0.00000000000E+00  0.99999998245E-14  0.12500000000E+03  0.12500000000E+03 0.  0.
    3000001    1    3    3    0    0 -0.58225600115E+01  0.18069798431E+02  0.82340146817E+01  0.20717596825E+02  0.10000000000E+01 0.  1.
    1000022    2    1    0    0    0 -0.28490119068E+02  0.52197177687E+02  0.16432223768E+02  0.62500001994E+02  0.10000001414E+02 0.  0.
    3000022    2    3    3    0    0 -0.22667559057E+02  0.34127379256E+02  0.81982090861E+01  0.41782405169E+02  0.25000202394E+00 0.  0.
    1000022    2    1    0    0    0  0.28490119068E+02 -0.52197177687E+02 -0.16432223768E+02  0.62499998006E+02  0.99999764859E+01 0.  0.
    3000022    2    5    5    0    0  0.11187399109E+02 -0.20063301340E+02 -0.11396694809E+02  0.25644514303E+02  0.25000352026E+00 0.  0.
        -13    1    4    4    0    0 -0.16629690761E+02  0.24997895526E+02  0.60357071334E+01  0.30624862141E+02  0.10500000000E+00 0. -1.
         13    1    4    4    0    0 -0.60378682954E+01  0.91294837303E+01  0.21625019527E+01  0.11157543028E+02  0.10500000000E+00 0.  1.
    3000001    1    5    5    0    0  0.17302719959E+02 -0.32133876347E+02 -0.50355289583E+01  0.36855483703E+02  0.10000000000E+01 0.  1.
        -13    1    6    6    0    0  0.69555663588E+01 -0.12568617052E+02 -0.71696905557E+01  0.16055077877E+02  0.10500000000E+00 0. -1.
         13    1    6    6    0    0  0.42318327503E+01 -0.74946842880E+01 -0.42270042538E+01  0.95894364259E+01  0.10500000000E+00 0.  1.
</event>
<event>
11    0  0.3494755E-009  0.9118800E+02  0.7816531E-02  0.1126479E+00
         25   -1    0    0    0    0  0.00000000000E+00  0.00000000000E+00  0.99999998245E-14  0.12500000000E+03  0.12500000000E+03 0.  0.
    3000001    1    3    3    0    0 -0.12254754297E+02  0.33281077718E+02  0.42662403040E+02  0.55487744324E+02  0.10000000000E+01 0.  1.
    1000022    2    1    0    0    0 -0.16857694159E+02  0.35929458436E+02  0.47234965729E+02  0.62500004356E+02  0.10000036057E+02 0.  0.
    3000022    2    3    3    0    0 -0.46029398624E+01  0.26483807176E+01  0.45725626888E+01  0.70122600317E+01  0.24997080994E+00 0.  0.
    1000022    2    1    0    0    0  0.16857694159E+02 -0.35929458436E+02 -0.47234965729E+02  0.62499995644E+02  0.99999816120E+01 0.  0.
    3000022    2    5    5    0    0  0.15880753448E+02 -0.24324328827E+02 -0.36302709530E+02  0.46495381560E+02  0.24996842470E+00 0.  0.
        -13    1    4    4    0    0 -0.15728943948E+01  0.86352379960E+00  0.16001607678E+01  0.24064932188E+01  0.10500000000E+00 0.  1.
         13    1    4    4    0    0 -0.30300454677E+01  0.17848569180E+01  0.29724019211E+01  0.46057668129E+01  0.10500000000E+00 0. -1.
    3000001    1    5    5    0    0  0.97694071123E+00 -0.11605129609E+02 -0.10932256200E+02  0.16004614085E+02  0.10000000000E+01 0. -1.
        -13    1    6    6    0    0  0.82824884530E+01 -0.12572953078E+02 -0.18771221262E+02  0.24063427369E+02  0.10500000000E+00 0. -1.
         13    1    6    6    0    0  0.75982649951E+01 -0.11751375750E+02 -0.17531488267E+02  0.22431954191E+02  0.10500000000E+00 0.  1.
</event>
<event>
11    0  0.3494755E-009  0.9118800E+02  0.7816531E-02  0.1126479E+00
         25   -1    0    0    0    0  0.00000000000E+00  0.00000000000E+00  0.99999998245E-14  0.12500000000E+03  0.12500000000E+03 0.  0.
    3000001    1    3    3    0    0  0.15166374853E+01 -0.20045228183E+01 -0.81630005176E+01  0.85995859459E+01  0.10000000000E+01 0.  1.
    1000022    2    1    0    0    0 -0.12913439132E+02 -0.11773660596E+02 -0.59168186324E+02  0.62500000065E+02  0.99999870622E+01 0.  0.
    3000022    2    3    3    0    0 -0.14430076617E+02 -0.97691377772E+01 -0.51005185806E+02  0.53900414119E+02  0.24999798955E+00 0.  0.
    1000022    2    1    0    0    0  0.12913439132E+02  0.11773660596E+02  0.59168186324E+02  0.62499999935E+02  0.99999862526E+01 0.  0.
    3000022    2    5    5    0    0  0.13485296595E+02  0.79162791040E+01  0.51729037838E+02  0.54041433678E+02  0.24999858803E+00 0.  0.
        -13    1    4    4    0    0 -0.10802854429E+02 -0.73178806407E+01 -0.38105841687E+02  0.40278024239E+02  0.10500000000E+00 0. -1.
         13    1    4    4    0    0 -0.36272221882E+01 -0.24512571365E+01 -0.12899344119E+02  0.13622389880E+02  0.10500000000E+00 0.  1.
    3000001    1    5    5    0    0 -0.57185746261E+00  0.38573814915E+01  0.74391484858E+01  0.84585662570E+01  0.10000000000E+01 0.  1.
        -13    1    6    6    0    0  0.48639972514E+01  0.29174442511E+01  0.18845076789E+02  0.19680393654E+02  0.10500000000E+00 0. -1.
         13    1    6    6    0    0  0.86212993431E+01  0.49988348528E+01  0.32883961049E+02  0.34361040024E+02  0.10500000000E+00 0.  1.
</event>
<event>
11    0  0.3494755E-009  0.9118800E+02  0.7816531E-02  0.1126479E+00
         25   -1    0    0    0    0  0.00000000000E+00  0.00000000000E+00  0.99999998245E-14  0.12500000000E+03  0.12500000000E+03 0.  0.
    3000001    1    3    3    0    0 -0.72720237601E+01  0.22818112754E+01 -0.12306237396E+02  0.14509737114E+02  0.10000000000E+01 0.  1.
    1000022    2    1    0    0    0 -0.16454291420E+02  0.18993542337E+02 -0.56344936009E+02  0.62500001159E+02  0.99999987223E+01 0.  0.
    3000022    2    3    3    0    0 -0.91822676599E+01  0.16711731062E+02 -0.44038698613E+02  0.47990264046E+02  0.24994640526E+00 0.  0.
    1000022    2    1    0    0    0  0.16454291420E+02 -0.18993542337E+02  0.56344936009E+02  0.62499998841E+02  0.99999842304E+01 0.  0.
    3000022    2    5    5    0    0  0.21419535877E+01 -0.35007268710E+01  0.20413028539E+02  0.20822998953E+02  0.24999485680E+00 0.  0.
        -13    1    4    4    0    0 -0.36148481807E+01  0.67068567050E+01 -0.17629708324E+02  0.19205902604E+02  0.10500000000E+00 0. -1.
         13    1    4    4    0    0 -0.55674194792E+01  0.10004874357E+02 -0.26408990289E+02  0.28784361442E+02  0.10500000000E+00 0.  1.
    3000001    1    5    5    0    0  0.14312337832E+02 -0.15492815466E+02  0.35931907469E+02  0.41676999888E+02  0.10000000000E+01 0. -1.
        -13    1    6    6    0    0  0.15048655042E+01 -0.23793289927E+01  0.14121055989E+02  0.14399342828E+02  0.10500000000E+00 0.  1.
         13    1    6    6    0    0  0.63708808353E+00 -0.11213978782E+01  0.62919725510E+01  0.64236561248E+01  0.10500000000E+00 0. -1.
</event>
<event>
11    0  0.3494755E-009  0.9118800E+02  0.7816531E-02  0.1126479E+00
         25   -1    0    0    0    0  0.00000000000E+00  0.00000000000E+00  0.99999998245E-14  0.12500000000E+03  0.12500000000E+03 0.  0.
    3000001    1    3    3    0    0 -0.34651130169E+02 -0.89549899527E+01  0.21387119760E+02  0.41704934464E+02  0.10000000000E+01 0. -1.
    1000022    2    1    0    0    0 -0.47237558103E+02 -0.13712132444E+02  0.37240310454E+02  0.62500000388E+02  0.99999927069E+01 0.  0.
    3000022    2    3    3    0    0 -0.12586427934E+02 -0.47571424910E+01  0.15853190694E+02  0.20795065925E+02  0.25007756070E+00 0.  0.
    1000022    2    1    0    0    0  0.47237558103E+02  0.13712132444E+02 -0.37240310454E+02  0.62499999612E+02  0.99999878527E+01 0.  0.
    3000022    2    5    5    0    0  0.10150862106E+01 -0.69418840535E-01 -0.34349089000E+01  0.35911442683E+01  0.24999802698E+00 0.  0.
        -13    1    4    4    0    0 -0.53737699397E+01 -0.20036769167E+01  0.68503950231E+01  0.89348229711E+01  0.10500000000E+00 0. -1.
         13    1    4    4    0    0 -0.72126579947E+01 -0.27534655743E+01  0.90027956712E+01  0.11860242953E+02  0.10500000000E+00 0.  1.
    3000001    1    5    5    0    0  0.46222471892E+02  0.13781551284E+02 -0.33805401554E+02  0.58908855343E+02  0.10000000000E+01 0. -1.
        -13    1    6    6    0    0  0.60615375544E+00 -0.10373929703E+00 -0.20061187538E+01  0.21008859254E+01  0.10500000000E+00 0. -1.
         13    1    6    6    0    0  0.40893245521E+00  0.34320456497E-01 -0.14287901462E+01  0.14902583429E+01  0.10500000000E+00 0.  1.
</event>
<event>
11    0  0.3494755E-009  0.9118800E+02  0.7816531E-02  0.1126479E+00
         25   -1    0    0    0    0  0.00000000000E+00  0.00000000000E+00  0.99999998245E-14  0.12500000000E+03  0.12500000000E+03 0.  0.
    3000001    1    3    3    0    0  0.20535737114E+00  0.98089334394E+01  0.60819358918E+01  0.11586513326E+02  0.10000000000E+01 0.  1.
    1000022    2    1    0    0    0 -0.58480845368E+01  0.59593857471E+02  0.14853353239E+02  0.62499999681E+02  0.99999958376E+01 0.  0.
    3000022    2    3    3    0    0 -0.60534419079E+01  0.49784924031E+02  0.87714173476E+01  0.50913486355E+02  0.25002165138E+00 0.  0.
    1000022    2    1    0    0    0  0.58480845368E+01 -0.59593857471E+02 -0.14853353239E+02  0.62500000319E+02  0.99999998203E+01 0.  0.
    3000022    2    5    5    0    0  0.12961551127E+01 -0.41346652013E+01  0.13311908228E+01  0.45398283456E+01  0.24999599637E+00 0.  0.
        -13    1    4    4    0    0 -0.34002320679E+01  0.27472456085E+02  0.48721330941E+01  0.28107759202E+02  0.10500000000E+00 0.  1.
         13    1    4    4    0    0 -0.26532098400E+01  0.22312467946E+02  0.38992842535E+01  0.22805727153E+02  0.10500000000E+00 0. -1.
    3000001    1    5    5    0    0  0.45519294240E+01 -0.55459192269E+02 -0.16184544062E+02  0.57960171973E+02  0.10000000000E+01 0. -1.
        -13    1    6    6    0    0  0.85509313608E+00 -0.28524844474E+01  0.94742255373E+00  0.31267373234E+01  0.10500000000E+00 0.  1.
         13    1    6    6    0    0  0.44106197664E+00 -0.12821807538E+01  0.38376826905E+00  0.14130910222E+01  0.10500000000E+00 0. -1.
</event>
<event>
11    0  0.3494755E-009  0.9118800E+02  0.7816531E-02  0.1126479E+00
         25   -1    0    0    0    0  0.00000000000E+00  0.00000000000E+00  0.99999998245E-14  0.12500000000E+03  0.12500000000E+03 0.  0.
    3000001    1    3    3    0    0 -0.38431120503E+01 -0.27993112183E+01  0.77885190238E+01  0.91796885629E+01  0.10000000000E+01 0. -1.
    1000022    2    1    0    0    0 -0.32567853083E+02  0.32871205117E+01  0.52295121588E+02  0.62499999617E+02  0.99999997244E+01 0.  0.
    3000022    2    3    3    0    0 -0.28724741033E+02  0.60864317301E+01  0.44506602565E+02  0.53320311054E+02  0.25000092185E+00 0.  0.
    1000022    2    1    0    0    0  0.32567853083E+02 -0.32871205117E+01 -0.52295121588E+02  0.62500000383E+02  0.10000004510E+02 0.  0.
    3000022    2    5    5    0    0  0.12641034978E+02 -0.56151353716E+01 -0.17319418019E+02  0.22166421653E+02  0.24999565358E+00 0.  0.
        -13    1    4    4    0    0 -0.12610497131E+02  0.26645050603E+01  0.19656014425E+02  0.23505194175E+02  0.10500000000E+00 0. -1.
         13    1    4    4    0    0 -0.16114243901E+02  0.34219266697E+01  0.24850588140E+02  0.29815116879E+02  0.10500000000E+00 0.  1.
    3000001    1    5    5    0    0  0.19926818105E+02  0.23280148599E+01 -0.34975703569E+02  0.40333578730E+02  0.10000000000E+01 0.  1.
        -13    1    6    6    0    0  0.79342712615E+01 -0.35644430971E+01 -0.10814788446E+02  0.13879070184E+02  0.10500000000E+00 0.  1.
         13    1    6    6    0    0  0.47067637164E+01 -0.20506922745E+01 -0.65046295728E+01  0.82873514687E+01  0.10500000000E+00 0. -1.
</event>
<event>
11    0  0.3494755E-009  0.9118800E+02  0.7816531E-02  0.1126479E+00
         25   -1    0    0    0    0  0.00000000000E+00  0.00000000000E+00  0.99999998245E-14  0.12500000000E+03  0.12500000000E+03 0.  0.
    3000001    1    3    3    0    0  0.45843340525E+02  0.81317689747E+01 -0.17170673619E+02  0.49634358762E+02  0.10000000000E+01 0.  1.
    1000022    2    1    0    0    0  0.56032642418E+02  0.14962916504E+02 -0.21040524254E+02  0.62499998785E+02  0.10000015026E+02 0.  0.
    3000022    2    3    3    0    0  0.10189301893E+02  0.68311475295E+01 -0.38698506347E+01  0.12865640023E+02  0.24999924302E+00 0.  0.
    1000022    2    1    0    0    0 -0.56032642418E+02 -0.14962916504E+02  0.21040524254E+02  0.62500001215E+02  0.10000030217E+02 0.  0.
    3000022    2    5    5    0    0 -0.37689380144E+02 -0.14701980549E+02  0.15283104692E+02  0.43246657650E+02  0.25000228088E+00 0.  0.
        -13    1    4    4    0    0  0.27611682133E+01  0.18086035497E+01 -0.10461289946E+01  0.34641748766E+01  0.10500000000E+00 0. -1.
         13    1    4    4    0    0  0.74281336799E+01  0.50225439798E+01 -0.28237216400E+01  0.94014651462E+01  0.10500000000E+00 0.  1.
    3000001    1    5    5    0    0 -0.18343262275E+02 -0.26093595507E+00  0.57574195613E+01  0.19253343566E+02  0.10000000000E+01 0. -1.
        -13    1    6    6    0    0 -0.10861903352E+02 -0.42763730066E+01  0.43870348420E+01  0.12470982729E+02  0.10500000000E+00 0. -1.
         13    1    6    6    0    0 -0.26827476792E+02 -0.10425607543E+02  0.10896069850E+02  0.30775674921E+02  0.10500000000E+00 0.  1.
</event>
<event>
11    0  0.3494755E-009  0.9118800E+02  0.7816531E-02  0.1126479E+00
         25   -1    0    0    0    0  0.00000000000E+00  0.00000000000E+00  0.99999998245E-14  0.12500000000E+03  0.12500000000E+03 0.  0.
    3000001    1    3    3    0    0 -0.32099156122E+01 -0.12993662134E+02  0.27505519308E+00  0.13424398283E+02  0.10000000000E+01 0.  1.
    1000022    2    1    0    0    0 -0.31039698690E+02 -0.53117516822E+02 -0.46169590852E+01  0.62500001640E+02  0.10000020285E+02 0.  0.
    3000022    2    3    3    0    0 -0.27829783078E+02 -0.40123854688E+02 -0.48920142782E+01  0.49075603357E+02  0.25000001431E+00 0.  0.
    1000022    2    1    0    0    0  0.31039698690E+02  0.53117516822E+02  0.46169590852E+01  0.62499998360E+02  0.99999997847E+01 0.  0.
    3000022    2    5    5    0    0  0.15102592967E+02  0.35299983286E+02  0.33113364868E+01  0.38538352120E+02  0.25000104102E+00 0.  0.
        -13    1    4    4    0    0 -0.16827990055E+02 -0.24204855125E+02 -0.30072132544E+01  0.29632931301E+02  0.10500000000E+00 0.  1.
         13    1    4    4    0    0 -0.11001793023E+02 -0.15918999562E+02 -0.18848010239E+01  0.19442672056E+02  0.10500000000E+00 0. -1.
    3000001    1    5    5    0    0  0.15937105723E+02  0.17817533536E+02  0.13056225983E+01  0.23961646240E+02  0.10000000000E+01 0.  1.
        -13    1    6    6    0    0  0.10255981129E+02  0.23895978088E+02  0.22846066212E+01  0.26104278771E+02  0.10500000000E+00 0. -1.
         13    1    6    6    0    0  0.48466118376E+01  0.11404005197E+02  0.10267298656E+01  0.12434073350E+02  0.10500000000E+00 0.  1.
</event>
<event>
11    0  0.3494755E-009  0.9118800E+02  0.7816531E-02  0.1126479E+00
         25   -1    0    0    0    0  0.00000000000E+00  0.00000000000E+00  0.99999998245E-14  0.12500000000E+03  0.12500000000E+03 0.  0.
    3000001    1    3    3    0    0 -0.13302703498E+02 -0.10635800610E+02  0.45570465336E+02  0.48659526158E+02  0.10000000000E+01 0.  1.
    1000022    2    1    0    0    0 -0.13855263007E+02 -0.95524454921E+01  0.59355139358E+02  0.62500000099E+02  0.99999958133E+01 0.  0.
    3000022    2    3    3    0    0 -0.55255950893E+00  0.10833551184E+01  0.13784674021E+02  0.13840473940E+02  0.25000137789E+00 0.  0.
    1000022    2    1    0    0    0  0.13855263007E+02  0.95524454921E+01 -0.59355139358E+02  0.62499999901E+02  0.99999945810E+01 0.  0.
    3000022    2    5    5    0    0  0.11380708164E+02  0.94925249926E+01 -0.35138656904E+02  0.38136809746E+02  0.24999899520E+00 0.  0.
        -13    1    4    4    0    0 -0.11737598870E+00  0.25325110902E+00  0.34229677402E+01  0.34359345741E+01  0.10500000000E+00 0.  1.
         13    1    4    4    0    0 -0.43518352023E+00  0.83010400939E+00  0.10361706281E+02  0.10404539366E+02  0.10500000000E+00 0. -1.
    3000001    1    5    5    0    0  0.24745548430E+01  0.59920499409E-01 -0.24216482454E+02  0.24363190156E+02  0.10000000000E+01 0.  1.
        -13    1    6    6    0    0  0.75352277322E+01  0.63062567785E+01 -0.23429123404E+02  0.25406364951E+02  0.10500000000E+00 0. -1.
         13    1    6    6    0    0  0.38454804319E+01  0.31862682142E+01 -0.11709533500E+02  0.12730444795E+02  0.10500000000E+00 0.  1.
</event>
<event>
11    0  0.3494755E-009  0.9118800E+02  0.7816531E-02  0.1126479E+00
         25   -1    0    0    0    0  0.00000000000E+00  0.00000000000E+00  0.99999998245E-14  0.12500000000E+03  0.12500000000E+03 0.  0.
    3000001    1    3    3    0    0 -0.36155295412E+02  0.76853191043E+01  0.31113135090E+02  0.48324907565E+02  0.10000000000E+01 0. -1.
    1000022    2    1    0    0    0 -0.43532557079E+02  0.14078876225E+02  0.41387822807E+02  0.62500000899E+02  0.99999977078E+01 0.  0.
    3000022    2    3    3    0    0 -0.73772616668E+01  0.63935571202E+01  0.10274687718E+02  0.14175093334E+02  0.25000199560E+00 0.  0.
    1000022    2    1    0    0    0  0.43532557079E+02 -0.14078876225E+02 -0.41387822807E+02  0.62499999101E+02  0.99999864672E+01 0.  0.
    3000022    2    5    5    0    0  0.70616171314E+01 -0.63972315795E+01 -0.77688565490E+01  0.12296692264E+02  0.25000033157E+00 0.  0.
        -13    1    4    4    0    0 -0.55799129746E+01  0.48539986516E+01  0.78059725121E+01  0.10753648849E+02  0.10500000000E+00 0.  1.
         13    1    4    4    0    0 -0.17973486922E+01  0.15395584686E+01  0.24687152054E+01  0.34214444852E+01  0.10500000000E+00 0. -1.
    3000001    1    5    5    0    0  0.36470939947E+02 -0.76816446450E+01 -0.33618966258E+02  0.50203306837E+02  0.10000000000E+01 0. -1.
        -13    1    6    6    0    0  0.38479250661E+01 -0.35252191511E+01 -0.43320746294E+01  0.67831845745E+01  0.10500000000E+00 0. -1.
         13    1    6    6    0    0  0.32136920654E+01 -0.28720124284E+01 -0.34367819195E+01  0.55135076895E+01  0.10500000000E+00 0.  1.
</event>
<event>
11    0  0.3494755E-009  0.9118800E+02  0.7816531E-02  0.1126479E+00
         25   -1    0    0    0    0  0.00000000000E+00  0.00000000000E+00  0.99999998245E-14  0.12500000000E+03  0.12500000000E+03 0.  0.
    3000001    1    3    3    0    0 -0.43384971568E+02 -0.38995101206E+01  0.40343323800E+02  0.59380516269E+02  0.10000000000E+01 0. -1.
    1000022    2    1    0    0    0 -0.46310704527E+02 -0.28950883959E+01  0.40659403647E+02  0.62500000407E+02  0.10000002768E+02 0.  0.
    3000022    2    3    3    0    0 -0.29257329593E+01  0.10044217247E+01  0.31607984694E+00  0.31194841384E+01  0.24999694031E+00 0.  0.
    1000022    2    1    0    0    0  0.46310704527E+02  0.28950883959E+01 -0.40659403647E+02  0.62499999593E+02  0.99999976785E+01 0.  0.
    3000022    2    5    5    0    0  0.45085873684E+01  0.33418729667E+01 -0.40905396153E+01  0.69491361255E+01  0.25000712569E+00 0.  0.
        -13    1    4    4    0    0 -0.75398422887E+00  0.23142161047E+00  0.95064711953E-01  0.80131796351E+00  0.10500000000E+00 0.  1.
         13    1    4    4    0    0 -0.21717487304E+01  0.77300011427E+00  0.22101513498E+00  0.23181661749E+01  0.10500000000E+00 0. -1.
    3000001    1    5    5    0    0  0.41802117159E+02 -0.44678457084E+00 -0.36568864031E+02  0.55550863467E+02  0.10000000000E+01 0. -1.
        -13    1    6    6    0    0  0.20520625565E+01  0.14435402439E+01 -0.18575656111E+01  0.31235147144E+01  0.10500000000E+00 0.  1.
         13    1    6    6    0    0  0.24565248119E+01  0.18983327228E+01 -0.22329740042E+01  0.38256214111E+01  0.10500000000E+00 0. -1.
</event>
<event>
11    0  0.3494755E-009  0.9118800E+02  0.7816531E-02  0.1126479E+00
         25   -1    0    0    0    0  0.00000000000E+00  0.00000000000E+00  0.99999998245E-14  0.12500000000E+03  0.12500000000E+03 0.  0.
    3000001    1    3    3    0    0 -0.95890218264E+01 -0.25208860465E+02  0.25526500575E+02  0.37148865623E+02  0.10000000000E+01 0. -1.
    1000022    2    1    0    0    0 -0.15435289693E+02 -0.47329360098E+02  0.36440817363E+02  0.62500002964E+02  0.10000035258E+02 0.  0.
    3000022    2    3    3    0    0 -0.58462678670E+01 -0.22120499633E+02  0.10914316788E+02  0.25351137340E+02  0.25000297504E+00 0.  0.
    1000022    2    1    0    0    0  0.15435289693E+02  0.47329360098E+02 -0.36440817363E+02  0.62499997036E+02  0.99999982126E+01 0.  0.
    3000022    2    5    5    0    0  0.92170976081E+01  0.17003458867E+02 -0.18177179242E+02  0.26543263652E+02  0.24999663779E+00 0.  0.
        -13    1    4    4    0    0 -0.31324170299E+01 -0.12100179513E+02  0.59856827087E+01  0.13858780725E+02  0.10500000000E+00 0. -1.
         13    1    4    4    0    0 -0.27138508371E+01 -0.10020320120E+02  0.49286340793E+01  0.11492356615E+02  0.10500000000E+00 0.  1.
    3000001    1    5    5    0    0  0.62181920853E+01  0.30325901231E+02 -0.18263638120E+02  0.35956733385E+02  0.10000000000E+01 0. -1.
        -13    1    6    6    0    0  0.34465813784E+01  0.62951104870E+01 -0.66746034854E+01  0.98014639687E+01  0.10500000000E+00 0. -1.
         13    1    6    6    0    0  0.57705162297E+01  0.10708348380E+02 -0.11502575757E+02  0.16741799683E+02  0.10500000000E+00 0.  1.
</event>
<event>
11    0  0.3494755E-009  0.9118800E+02  0.7816531E-02  0.1126479E+00
         25   -1    0    0    0    0  0.00000000000E+00  0.00000000000E+00  0.99999998245E-14  0.12500000000E+03  0.12500000000E+03 0.  0.
    3000001    1    3    3    0    0 -0.27824011147E+02 -0.41934154953E+02  0.66244586068E+01  0.50769404170E+02  0.10000000000E+01 0.  1.
    1000022    2    1    0    0    0 -0.32038810542E+02 -0.51253534837E+02  0.12362837194E+02  0.62499999593E+02  0.99999995706E+01 0.  0.
    3000022    2    3    3    0    0 -0.42147993953E+01 -0.93193798834E+01  0.57383785875E+01  0.11730595423E+02  0.25000961686E+00 0.  0.
    1000022    2    1    0    0    0  0.32038810542E+02  0.51253534837E+02 -0.12362837194E+02  0.62500000407E+02  0.10000004658E+02 0.  0.
    3000022    2    5    5    0    0  0.31224197520E+02  0.51204314478E+02 -0.12078195335E+02  0.61178244753E+02  0.24999323381E+00 0.  0.
        -13    1    4    4    0    0 -0.13078266131E+01 -0.27816051132E+01  0.17164954649E+01  0.35220901659E+01  0.10500000000E+00 0.  1.
         13    1    4    4    0    0 -0.29069727822E+01 -0.65377747702E+01  0.40218831226E+01  0.82085052570E+01  0.10500000000E+00 0. -1.
    3000001    1    5    5    0    0  0.81461302249E+00  0.49220358617E-01 -0.28464185893E+00  0.13217556537E+01  0.10000000000E+01 0. -1.
        -13    1    6    6    0    0  0.83235680137E+01  0.13593892914E+02 -0.32285667490E+01  0.16263775001E+02  0.10500000000E+00 0. -1.
         13    1    6    6    0    0  0.22900629506E+02  0.37610421564E+02 -0.88496285863E+01  0.44914469752E+02  0.10500000000E+00 0.  1.
</event>
<event>
11    0  0.3494755E-009  0.9118800E+02  0.7816531E-02  0.1126479E+00
         25   -1    0    0    0    0  0.00000000000E+00  0.00000000000E+00  0.99999998245E-14  0.12500000000E+03  0.12500000000E+03 0.  0.
    3000001    1    3    3    0    0 -0.11785979055E+02 -0.14534855132E+02 -0.11551417495E+02  0.22013781186E+02  0.10000000000E+01 0.  1.
    1000022    2    1    0    0    0 -0.36407947516E+02 -0.30169643500E+02 -0.39629584333E+02  0.62499999706E+02  0.99999988819E+01 0.  0.
    3000022    2    3    3    0    0 -0.24621968461E+02 -0.15634788368E+02 -0.28078166838E+02  0.40486218520E+02  0.24999764604E+00 0.  0.
    1000022    2    1    0    0    0  0.36407947516E+02  0.30169643500E+02  0.39629584333E+02  0.62500000294E+02  0.10000002560E+02 0.  0.
    3000022    2    5    5    0    0  0.46435060534E+01  0.89046103961E+01  0.93660501777E+01  0.13734614273E+02  0.24999701913E+00 0.  0.
        -13    1    4    4    0    0 -0.16861609293E+02 -0.10690365958E+02 -0.19285712066E+02  0.27758737492E+02  0.10500000000E+00 0.  1.
         13    1    4    4    0    0 -0.77603591679E+01 -0.49444224099E+01 -0.87924547721E+01  0.12727481027E+02  0.10500000000E+00 0. -1.
    3000001    1    5    5    0    0  0.31764441462E+02  0.21265033104E+02  0.30263534155E+02  0.48765386022E+02  0.10000000000E+01 0.  1.
        -13    1    6    6    0    0  0.15743041739E+01  0.31265695533E+01  0.33012103537E+01  0.48127835608E+01  0.10500000000E+00 0. -1.
         13    1    6    6    0    0  0.30692018795E+01  0.57780408428E+01  0.60648398240E+01  0.89218307118E+01  0.10500000000E+00 0.  1.
</event>
<event>
11    0  0.3494755E-009  0.9118800E+02  0.7816531E-02  0.1126479E+00
         25   -1    0    0    0    0  0.00000000000E+00  0.00000000000E+00  0.99999998245E-14  0.12500000000E+03  0.12500000000E+03 0.  0.
    3000001    1    3    3    0    0 -0.17436949165E+01 -0.46476080217E+02  0.37161005531E+02  0.59539959996E+02  0.10000000000E+01 0.  1.
    1000022    2    1    0    0    0 -0.14630335757E+01 -0.46890143296E+02  0.40067743503E+02  0.62500000623E+02  0.10000000145E+02 0.  0.
    3000022    2    3    3    0    0  0.28066134083E+00 -0.41406307875E+00  0.29067379727E+01  0.29600406270E+01  0.24999169985E+00 0.  0.
    1000022    2    1    0    0    0  0.14630335757E+01  0.46890143296E+02 -0.40067743503E+02  0.62499999377E+02  0.99999923577E+01 0.  0.
    3000022    2    5    5    0    0  0.53055230257E+01  0.31585174637E+02 -0.24653245665E+02  0.40418026312E+02  0.24999549993E+00 0.  0.
        -13    1    4    4    0    0  0.15623940055E+00 -0.17619934785E+00  0.16944893798E+01  0.17139942295E+01  0.10500000000E+00 0. -1.
         13    1    4    4    0    0  0.12442194028E+00 -0.23786373090E+00  0.12122485929E+01  0.12460463975E+01  0.10500000000E+00 0.  1.
    3000001    1    5    5    0    0 -0.38424894500E+01  0.15304968659E+02 -0.15414497839E+02  0.22081973065E+02  0.10000000000E+01 0.  1.
        -13    1    6    6    0    0  0.33660862074E+01  0.20014861569E+02 -0.15696858395E+02  0.25657895636E+02  0.10500000000E+00 0. -1.
         13    1    6    6    0    0  0.19394368184E+01  0.11570313068E+02 -0.89563872699E+01  0.14760130676E+02  0.10500000000E+00 0.  1.
</event>
<event>
11    0  0.3494755E-009  0.9118800E+02  0.7816531E-02  0.1126479E+00
         25   -1    0    0    0    0  0.00000000000E+00  0.00000000000E+00  0.99999998245E-14  0.12500000000E+03  0.12500000000E+03 0.  0.
    3000001    1    3    3    0    0  0.55588135934E+01  0.20486746766E+02 -0.96353273227E+01  0.23333382400E+02  0.10000000000E+01 0. -1.
    1000022    2    1    0    0    0  0.25672404455E+02  0.52666294155E+02 -0.19324545403E+02  0.62499991232E+02  0.99999979220E+01 0.  0.
    3000022    2    3    3    0    0  0.20113590862E+02  0.32179547389E+02 -0.96892180806E+01  0.39166608832E+02  0.24998572358E+00 0.  0.
    1000022    2    1    0    0    0 -0.25672404455E+02 -0.52666294155E+02  0.19324545403E+02  0.62500008768E+02  0.10000107519E+02 0.  0.
    3000022    2    5    5    0    0 -0.19584068071E+01 -0.13183596089E+02  0.33977798714E+01  0.13756814460E+02  0.24994593206E+00 0.  0.
        -13    1    4    4    0    0  0.90543576281E+01  0.14579491874E+02 -0.44281239676E+01  0.17724623613E+02  0.10500000000E+00 0.  1.
         13    1    4    4    0    0  0.11059233234E+02  0.17600055516E+02 -0.52610941130E+01  0.21441985219E+02  0.10500000000E+00 0. -1.
    3000001    1    5    5    0    0 -0.23713997648E+02 -0.39482698066E+02  0.15926765532E+02  0.48743194308E+02  0.10000000000E+01 0. -1.
        -13    1    6    6    0    0 -0.11051270642E+01 -0.78700213753E+01  0.20221245341E+01  0.82011313188E+01  0.10500000000E+00 0. -1.
         13    1    6    6    0    0 -0.85327974291E+00 -0.53135747135E+01  0.13756553374E+01  0.55556831409E+01  0.10500000000E+00 0.  1.
</event>
<event>
11    0  0.3494755E-009  0.9118800E+02  0.7816531E-02  0.1126479E+00
         25   -1    0    0    0    0  0.00000000000E+00  0.00000000000E+00  0.99999998245E-14  0.12500000000E+03  0.12500000000E+03 0.  0.
    3000001    1    3    3    0    0 -0.38360719779E+02 -0.39045924165E+02 -0.12353176421E+02  0.56122455252E+02  0.10000000000E+01 0. -1.
    1000022    2    1    0    0    0 -0.44064368533E+02 -0.40586437349E+02 -0.14741856823E+02  0.62500000772E+02  0.10000014157E+02 0.  0.
    3000022    2    3    3    0    0 -0.57036487537E+01 -0.15405131842E+01 -0.23886804012E+01  0.63775455205E+01  0.25000566117E+00 0.  0.
    1000022    2    1    0    0    0  0.44064368533E+02  0.40586437349E+02  0.14741856823E+02  0.62499999228E+02  0.10000004501E+02 0.  0.
    3000022    2    5    5    0    0  0.43236737732E+02  0.40591936828E+02  0.13783611567E+02  0.60886544253E+02  0.24999603766E+00 0.  0.
        -13    1    4    4    0    0 -0.23846511255E+01 -0.71039287211E+00 -0.10174651650E+01  0.26902563790E+01  0.10500000000E+00 0. -1.
         13    1    4    4    0    0 -0.33189976282E+01 -0.83012031210E+00 -0.13712152363E+01  0.36872891415E+01  0.10500000000E+00 0.  1.
    3000001    1    5    5    0    0  0.82763080075E+00 -0.54994797479E-02  0.95824525526E+00  0.16134549748E+01  0.10000000000E+01 0. -1.
        -13    1    6    6    0    0  0.29030839242E+02  0.27325379800E+02  0.92550640018E+01  0.40928391650E+02  0.10500000000E+00 0. -1.
         13    1    6    6    0    0  0.14205898489E+02  0.13266557028E+02  0.45285475655E+01  0.19958152603E+02  0.10500000000E+00 0.  1.
</event>
<event>
11    0  0.3494755E-009  0.9118800E+02  0.7816531E-02  0.1126479E+00
         25   -1    0    0    0    0  0.00000000000E+00  0.00000000000E+00  0.99999998245E-14  0.12500000000E+03  0.12500000000E+03 0.  0.
    3000001    1    3    3    0    0  0.15718924440E+02 -0.32612449034E+02 -0.31199597400E+02  0.47802419347E+02  0.10000000000E+01 0.  1.
    1000022    2    1    0    0    0  0.25053735265E+02 -0.41904197396E+02 -0.37717356345E+02  0.62500002913E+02  0.99999992194E+01 0.  0.
    3000022    2    3    3    0    0  0.93348108250E+01 -0.92917483614E+01 -0.65177589450E+01  0.14697583566E+02  0.25000050308E+00 0.  0.
    1000022    2    1    0    0    0 -0.25053735265E+02  0.41904197396E+02  0.37717356345E+02  0.62499997087E+02  0.99999628095E+01 0.  0.
    3000022    2    5    5    0    0 -0.22393480130E+02  0.30808758699E+02  0.26011219414E+02  0.46122593169E+02  0.25000070082E+00 0.  0.
        -13    1    4    4    0    0  0.44347782968E+01 -0.43849387682E+01 -0.30146229949E+01  0.69277646715E+01  0.10500000000E+00 0.  1.
         13    1    4    4    0    0  0.49000325282E+01 -0.49068095932E+01 -0.35031359500E+01  0.77698188940E+01  0.10500000000E+00 0. -1.
    3000001    1    5    5    0    0 -0.26602551346E+01  0.11095438697E+02  0.11706136931E+02  0.16377403918E+02  0.10000000000E+01 0. -1.
        -13    1    6    6    0    0 -0.12375690761E+02  0.17029724885E+02  0.14296288204E+02  0.25447281444E+02  0.10500000000E+00 0. -1.
         13    1    6    6    0    0 -0.10017789369E+02  0.13779033814E+02  0.11714931210E+02  0.20675311725E+02  0.10500000000E+00 0.  1.
</event>
<event>
11    0  0.3494755E-009  0.9118800E+02  0.7816531E-02  0.1126479E+00
         25   -1    0    0    0    0  0.00000000000E+00  0.00000000000E+00  0.99999998245E-14  0.12500000000E+03  0.12500000000E+03 0.  0.
    3000001    1    3    3    0    0 -0.19210703543E+02 -0.53668644918E+02  0.11613393671E+02  0.58182862515E+02  0.10000000000E+01 0. -1.
    1000022    2    1    0    0    0 -0.20151033787E+02 -0.57476931883E+02  0.98279241023E+01  0.62499999759E+02  0.10000000819E+02 0.  0.
    3000022    2    3    3    0    0 -0.94033024459E+00 -0.38082869651E+01 -0.17854695683E+01  0.43171372440E+01  0.25000365452E+00 0.  0.
    1000022    2    1    0    0    0  0.20151033787E+02  0.57476931883E+02 -0.98279241023E+01  0.62500000241E+02  0.10000003828E+02 0.  0.
    3000022    2    5    5    0    0  0.12463879780E+01  0.58998708124E+00 -0.13561374896E+01  0.19501753818E+01  0.25001476220E+00 0.  0.
        -13    1    4    4    0    0 -0.49727727738E+00 -0.22234587763E+01 -0.99129316577E+00  0.24869139030E+01  0.10500000000E+00 0. -1.
         13    1    4    4    0    0 -0.44305296721E+00 -0.15848281888E+01 -0.79417640255E+00  0.18302233411E+01  0.10500000000E+00 0.  1.
    3000001    1    5    5    0    0  0.18904645809E+02  0.56886944802E+02 -0.84717866127E+01  0.60549824859E+02  0.10000000000E+01 0. -1.
        -13    1    6    6    0    0  0.43023936336E+00  0.14784094537E+00 -0.47466223049E+00  0.66580183836E+00  0.10500000000E+00 0. -1.
         13    1    6    6    0    0  0.81614861462E+00  0.44214613587E+00 -0.88147525915E+00  0.12843735434E+01  0.10500000000E+00 0.  1.
</event>
<event>
11    0  0.3494755E-009  0.9118800E+02  0.7816531E-02  0.1126479E+00
         25   -1    0    0    0    0  0.00000000000E+00  0.00000000000E+00  0.99999998245E-14  0.12500000000E+03  0.12500000000E+03 0.  0.
    3000001    1    3    3    0    0 -0.48964577099E-01  0.19436714863E+02 -0.51463597390E+01  0.20131400865E+02  0.10000000000E+01 0. -1.
    1000022    2    1    0    0    0  0.56442021302E+01  0.54795381237E+02 -0.27782353888E+02  0.62499999699E+02  0.99999976142E+01 0.  0.
    3000022    2    3    3    0    0  0.56931667073E+01  0.35358666373E+02 -0.22635994149E+02  0.42368598835E+02  0.25000246821E+00 0.  0.
    1000022    2    1    0    0    0 -0.56442021302E+01 -0.54795381237E+02  0.27782353888E+02  0.62500000301E+02  0.10000001372E+02 0.  0.
    3000022    2    5    5    0    0  0.25010144690E+01 -0.22619985765E+02  0.10459472168E+02  0.25047592390E+02  0.24999423853E+00 0.  0.
        -13    1    4    4    0    0  0.36502507908E+01  0.22641334733E+02 -0.14563346280E+02  0.27167194356E+02  0.10500000000E+00 0.  1.
         13    1    4    4    0    0  0.20429159165E+01  0.12717331641E+02 -0.80726478689E+01  0.15201404479E+02  0.10500000000E+00 0. -1.
    3000001    1    5    5    0    0 -0.81452165992E+01 -0.32175395472E+02  0.17322881721E+02  0.37452407911E+02  0.10000000000E+01 0. -1.
        -13    1    6    6    0    0  0.93060385274E+00 -0.87090748511E+01  0.40831756553E+01  0.96642307881E+01  0.10500000000E+00 0.  1.
         13    1    6    6    0    0  0.15704106163E+01 -0.13910910914E+02  0.63762965122E+01  0.15383361602E+02  0.10500000000E+00 0. -1.
</event>
<event>
11    0  0.3494755E-009  0.9118800E+02  0.7816531E-02  0.1126479E+00
         25   -1    0    0    0    0  0.00000000000E+00  0.00000000000E+00  0.99999998245E-14  0.12500000000E+03  0.12500000000E+03 0.  0.
    3000001    1    3    3    0    0  0.15557867192E+02 -0.30653356822E+01  0.83574571352E+01  0.17952453987E+02  0.10000000000E+01 0.  1.
    1000022    2    1    0    0    0  0.59402606620E+02 -0.39521293157E+01  0.16185221149E+02  0.62500001253E+02  0.99999886798E+01 0.  0.
    3000022    2    3    3    0    0  0.43844739429E+02 -0.88679363349E+00  0.78277640139E+01  0.44547547266E+02  0.24999888678E+00 0.  0.
    1000022    2    1    0    0    0 -0.59402606620E+02  0.39521293157E+01 -0.16185221149E+02  0.62499998747E+02  0.99999730132E+01 0.  0.
    3000022    2    5    5    0    0 -0.34716281382E+02  0.71049762649E+01 -0.86313089264E+01  0.36472769015E+02  0.25001017134E+00 0.  0.
        -13    1    4    4    0    0  0.22357623103E+02 -0.41559049915E+00  0.40494002150E+01  0.22725419542E+02  0.10500000000E+00 0.  1.
         13    1    4    4    0    0  0.21487116326E+02 -0.47120313433E+00  0.37783637989E+01  0.21822127724E+02  0.10500000000E+00 0. -1.
    3000001    1    5    5    0    0 -0.24686325238E+02 -0.31528469492E+01 -0.75539122227E+01  0.26027229732E+02  0.10000000000E+01 0. -1.
        -13    1    6    6    0    0 -0.10642339480E+02  0.22172188709E+01 -0.26189260582E+01  0.11182363249E+02  0.10500000000E+00 0.  1.
         13    1    6    6    0    0 -0.24073941902E+02  0.48877573941E+01 -0.60123828682E+01  0.25290405766E+02  0.10500000000E+00 0. -1.
</event>
<event>
11    0  0.3494755E-009  0.9118800E+02  0.7816531E-02  0.1126479E+00
         25   -1    0    0    0    0  0.00000000000E+00  0.00000000000E+00  0.99999998245E-14  0.12500000000E+03  0.12500000000E+03 0.  0.
    3000001    1    3    3    0    0 -0.49659415188E+01 -0.70538076427E+01  0.15043743111E+02  0.17370405413E+02  0.10000000000E+01 0. -1.
    1000022    2    1    0    0    0 -0.52665055351E+01 -0.34396993799E+02  0.50944683869E+02  0.62499999013E+02  0.99999899568E+01 0.  0.
    3000022    2    3    3    0    0 -0.30056401639E+00 -0.27343186157E+02  0.35900940758E+02  0.45129593600E+02  0.25000651778E+00 0.  0.
    1000022    2    1    0    0    0  0.52665055351E+01  0.34396993799E+02 -0.50944683869E+02  0.62500000987E+02  0.10000002297E+02 0.  0.
    3000022    2    5    5    0    0 -0.16470315470E+01  0.19848762218E+02 -0.25301755011E+02  0.32201356834E+02  0.25000161853E+00 0.  0.
        -13    1    4    4    0    0 -0.97435810982E-01 -0.14593915010E+02  0.19199612731E+02  0.24116965047E+02  0.10500000000E+00 0.  1.
         13    1    4    4    0    0 -0.20312820541E+00 -0.12749271147E+02  0.16701328027E+02  0.21012628553E+02  0.10500000000E+00 0. -1.
    3000001    1    5    5    0    0  0.69135370821E+01  0.14548231581E+02 -0.25642928857E+02  0.30298644153E+02  0.10000000000E+01 0.  1.
        -13    1    6    6    0    0 -0.39615014626E+00  0.51524200075E+01 -0.65617830717E+01  0.83529868282E+01  0.10500000000E+00 0.  1.
         13    1    6    6    0    0 -0.12508814007E+01  0.14696342210E+02 -0.18739971940E+02  0.23848370006E+02  0.10500000000E+00 0. -1.
</event>
<event>
11    0  0.3494755E-009  0.9118800E+02  0.7816531E-02  0.1126479E+00
         25   -1    0    0    0    0  0.00000000000E+00  0.00000000000E+00  0.99999998245E-14  0.12500000000E+03  0.12500000000E+03 0.  0.
    3000001    1    3    3    0    0 -0.33815424801E+01  0.24911691308E+02  0.28832839467E+02  0.38266954740E+02  0.10000000000E+01 0. -1.
    1000022    2    1    0    0    0 -0.90619345327E+01  0.44838259006E+02  0.41396397431E+02  0.62499998786E+02  0.99999999945E+01 0.  0.
    3000022    2    3    3    0    0 -0.56803920526E+01  0.19926567698E+02  0.12563557964E+02  0.24233044046E+02  0.24996187246E+00 0.  0.
    1000022    2    1    0    0    0  0.90619345327E+01 -0.44838259006E+02 -0.41396397431E+02  0.62500001214E+02  0.10000015170E+02 0.  0.
    3000022    2    5    5    0    0  0.49875963181E+01 -0.38391367036E+02 -0.31166101869E+02  0.49700720171E+02  0.24999968857E+00 0.  0.
        -13    1    4    4    0    0 -0.23506514860E+01  0.80328230674E+01  0.51036482093E+01  0.98035737813E+01  0.10500000000E+00 0.  1.
         13    1    4    4    0    0 -0.33297405666E+01  0.11893744631E+02  0.74599097547E+01  0.14429470265E+02  0.10500000000E+00 0. -1.
    3000001    1    5    5    0    0  0.40743382146E+01 -0.64468919698E+01 -0.10230295561E+02  0.12799281043E+02  0.10000000000E+01 0.  1.
        -13    1    6    6    0    0  0.37114524374E+01 -0.28553288606E+02 -0.23141292366E+02  0.36940433225E+02  0.10500000000E+00 0. -1.
         13    1    6    6    0    0  0.12761438806E+01 -0.98380784293E+01 -0.80248095030E+01  0.12760286946E+02  0.10500000000E+00 0.  1.
</event>
<event>
11    0  0.3494755E-009  0.9118800E+02  0.7816531E-02  0.1126479E+00
         25   -1    0    0    0    0  0.00000000000E+00  0.00000000000E+00  0.99999998245E-14  0.12500000000E+03  0.12500000000E+03 0.  0.
    3000001    1    3    3    0    0 -0.17897657100E+01  0.15800089972E+02  0.10285061609E+02  0.18963876099E+02  0.10000000000E+01 0.  1.
    1000022    2    1    0    0    0 -0.55476912744E+01  0.58014021918E+02  0.20244660045E+02  0.62500000844E+02  0.10000011376E+02 0.  0.
    3000022    2    3    3    0    0 -0.37579255644E+01  0.42213931946E+02  0.99595984357E+01  0.43536124744E+02  0.25000363571E+00 0.  0.
    1000022    2    1    0    0    0  0.55476912744E+01 -0.58014021918E+02 -0.20244660045E+02  0.62499999156E+02  0.10000000830E+02 0.  0.
    3000022    2    5    5    0    0  0.11665902616E+01 -0.49400143232E+02 -0.16851783763E+02  0.52209004959E+02  0.24999725177E+00 0.  0.
        -13    1    4    4    0    0 -0.10965393288E+01  0.12355543705E+02  0.29598754187E+01  0.12752793665E+02  0.10500000000E+00 0. -1.
         13    1    4    4    0    0 -0.26613862356E+01  0.29858388241E+02  0.69997230169E+01  0.30783331080E+02  0.10500000000E+00 0.  1.
    3000001    1    5    5    0    0  0.43811010128E+01 -0.86138786863E+01 -0.33928762813E+01  0.10290994197E+02  0.10000000000E+01 0.  1.
        -13    1    6    6    0    0  0.46187925229E+00 -0.17204277450E+02 -0.58604253069E+01  0.18181201962E+02  0.10500000000E+00 0. -1.
         13    1    6    6    0    0  0.70471100931E+00 -0.32195865782E+02 -0.10991358456E+02  0.34027802997E+02  0.10500000000E+00 0.  1.
</event>
<event>
11    0  0.3494755E-009  0.9118800E+02  0.7816531E-02  0.1126479E+00
         25   -1    0    0    0    0  0.00000000000E+00  0.00000000000E+00  0.99999998245E-14  0.12500000000E+03  0.12500000000E+03 0.  0.
    3000001    1    3    3    0    0 -0.83611362536E+01 -0.25856381608E+02  0.45830539003E+02  0.53290706269E+02  0.10000000000E+01 0.  1.
    1000022    2    1    0    0    0 -0.13609667398E+02 -0.29216407907E+02  0.52606356160E+02  0.62499997939E+02  0.99999748140E+01 0.  0.
    3000022    2    3    3    0    0 -0.52485311441E+01 -0.33600262986E+01  0.67758171572E+01  0.92092916703E+01  0.24999804616E+00 0.  0.
    1000022    2    1    0    0    0  0.13609667398E+02  0.29216407907E+02 -0.52606356160E+02  0.62500002061E+02  0.10000000575E+02 0.  0.
    3000022    2    5    5    0    0  0.92468509127E+01  0.20363985271E+02 -0.27132619945E+02  0.35163016291E+02  0.25000340008E+00 0.  0.
        -13    1    4    4    0    0 -0.12499175475E+01 -0.78854307747E+00  0.16301510956E+01  0.22028417226E+01  0.10500000000E+00 0. -1.
         13    1    4    4    0    0 -0.39986135966E+01 -0.25714832212E+01  0.51456660616E+01  0.70064499477E+01  0.10500000000E+00 0.  1.
    3000001    1    5    5    0    0  0.43628164849E+01  0.88524226361E+01 -0.25473736215E+02  0.27336985770E+02  0.10000000000E+01 0.  1.
        -13    1    6    6    0    0  0.59163405634E+01  0.13121149785E+02 -0.17392984907E+02  0.22576417039E+02  0.10500000000E+00 0. -1.
         13    1    6    6    0    0  0.33305103493E+01  0.72428354859E+01 -0.97396350383E+01  0.12586599253E+02  0.10500000000E+00 0.  1.
</event>
<event>
11    0  0.3494755E-009  0.9118800E+02  0.7816531E-02  0.1126479E+00
         25   -1    0    0    0    0  0.00000000000E+00  0.00000000000E+00  0.99999998245E-14  0.12500000000E+03  0.12500000000E+03 0.  0.
    3000001    1    3    3    0    0 -0.19073374773E+02  0.17343532393E+02 -0.40814430491E+02  0.48284671247E+02  0.10000000000E+01 0. -1.
    1000022    2    1    0    0    0 -0.22266730402E+02  0.26847533386E+02 -0.50888626019E+02  0.62499996528E+02  0.99999988062E+01 0.  0.
    3000022    2    3    3    0    0 -0.31933556292E+01  0.95040009936E+01 -0.10074195528E+02  0.14215325281E+02  0.25000450003E+00 0.  0.
    1000022    2    1    0    0    0  0.22266730402E+02 -0.26847533386E+02  0.50888626019E+02  0.62500003472E+02  0.10000042209E+02 0.  0.
    3000022    2    5    5    0    0  0.59564822548E+01 -0.14581253957E+02  0.24465776414E+02  0.29098614475E+02  0.25000207884E+00 0.  0.
        -13    1    4    4    0    0 -0.90477698260E+00  0.26420232250E+01 -0.28579973578E+01  0.39972593119E+01  0.10500000000E+00 0. -1.
         13    1    4    4    0    0 -0.22885786466E+01  0.68619777685E+01 -0.72161981702E+01  0.10218065969E+02  0.10500000000E+00 0.  1.
    3000001    1    5    5    0    0  0.16310248147E+02 -0.12266279430E+02  0.26422849605E+02  0.33401388997E+02  0.10000000000E+01 0.  1.
        -13    1    6    6    0    0  0.32565064587E+01 -0.81223516670E+01  0.13655052512E+02  0.16218782785E+02  0.10500000000E+00 0.  1.
         13    1    6    6    0    0  0.26999757962E+01 -0.64589022896E+01  0.10810723902E+02  0.12879831690E+02  0.10500000000E+00 0. -1.
</event>
<event>
11    0  0.3494755E-009  0.9118800E+02  0.7816531E-02  0.1126479E+00
         25   -1    0    0    0    0  0.00000000000E+00  0.00000000000E+00  0.99999998245E-14  0.12500000000E+03  0.12500000000E+03 0.  0.
    3000001    1    3    3    0    0  0.21613094326E+02 -0.77611242256E+01 -0.43677651678E+01  0.23397398748E+02  0.10000000000E+01 0. -1.
    1000022    2    1    0    0    0  0.51332953023E+02 -0.27501864682E+02 -0.20367264969E+02  0.62499998688E+02  0.99999863328E+01 0.  0.
    3000022    2    3    3    0    0  0.29719858697E+02 -0.19740740457E+02 -0.15999499802E+02  0.39102599941E+02  0.24998697048E+00 0.  0.
    1000022    2    1    0    0    0 -0.51332953023E+02  0.27501864682E+02  0.20367264969E+02  0.62500001312E+02  0.10000002727E+02 0.  0.
    3000022    2    5    5    0    0 -0.14048656947E+02  0.28741278851E+01  0.60754947079E+01  0.15575606261E+02  0.25000268720E+00 0.  0.
        -13    1    4    4    0    0  0.14871344122E+02 -0.99394376994E+01 -0.80698554632E+01  0.19623528989E+02  0.10500000000E+00 0.  1.
         13    1    4    4    0    0  0.14848514574E+02 -0.98013027573E+01 -0.79296443384E+01  0.19479070952E+02  0.10500000000E+00 0. -1.
    3000001    1    5    5    0    0 -0.37284296076E+02  0.24627736797E+02  0.14291770261E+02  0.46924395051E+02  0.10000000000E+01 0. -1.
        -13    1    6    6    0    0 -0.59219708209E+01  0.12559933121E+01  0.26173051030E+01  0.65961025314E+01  0.10500000000E+00 0.  1.
         13    1    6    6    0    0 -0.81266861259E+01  0.16181345730E+01  0.34581896049E+01  0.89795037295E+01  0.10500000000E+00 0. -1.
</event>
<event>
11    0  0.3494755E-009  0.9118800E+02  0.7816531E-02  0.1126479E+00
         25   -1    0    0    0    0  0.00000000000E+00  0.00000000000E+00  0.99999998245E-14  0.12500000000E+03  0.12500000000E+03 0.  0.
    3000001    1    3    3    0    0 -0.39868222239E+02  0.14934920347E+02 -0.35353197421E+02  0.55347769225E+02  0.10000000000E+01 0.  1.
    1000022    2    1    0    0    0 -0.44870819172E+02  0.19535931556E+02 -0.37566033491E+02  0.62500001159E+02  0.10000011882E+02 0.  0.
    3000022    2    3    3    0    0 -0.50025969332E+01  0.46010112090E+01 -0.22128360696E+01  0.71522319337E+01  0.24999588214E+00 0.  0.
    1000022    2    1    0    0    0  0.44870819172E+02 -0.19535931556E+02  0.37566033491E+02  0.62499998841E+02  0.99999973995E+01 0.  0.
    3000022    2    5    5    0    0  0.12406177683E+02 -0.19720027235E+01  0.13405772876E+02  0.18373331892E+02  0.25007794504E+00 0.  0.
        -13    1    4    4    0    0 -0.23246233258E+01  0.22293026870E+01 -0.10552646786E+01  0.33909102936E+01  0.10500000000E+00 0.  1.
         13    1    4    4    0    0 -0.26779736074E+01  0.23717085220E+01 -0.11575713910E+01  0.37613216401E+01  0.10500000000E+00 0. -1.
    3000001    1    5    5    0    0  0.32464641489E+02 -0.17563928832E+02  0.24160260615E+02  0.44126666949E+02  0.10000000000E+01 0.  1.
        -13    1    6    6    0    0  0.55570926005E+01 -0.82329393994E+00  0.59506816338E+01  0.81841754618E+01  0.10500000000E+00 0. -1.
         13    1    6    6    0    0  0.68490850827E+01 -0.11487087835E+01  0.74550912421E+01  0.10189156431E+02  0.10500000000E+00 0.  1.
</event>
<event>
11    0  0.3494755E-009  0.9118800E+02  0.7816531E-02  0.1126479E+00
         25   -1    0    0    0    0  0.00000000000E+00  0.00000000000E+00  0.99999998245E-14  0.12500000000E+03  0.12500000000E+03 0.  0.
    3000001    1    3    3    0    0 -0.20309640469E+02  0.16939021054E+02 -0.16494187514E+02  0.31184453691E+02  0.10000000000E+01 0.  1.
    1000022    2    1    0    0    0 -0.36307744446E+02  0.29106152907E+02 -0.40507153566E+02  0.62500000404E+02  0.10000005831E+02 0.  0.
    3000022    2    3    3    0    0 -0.15998103977E+02  0.12167131854E+02 -0.24012966052E+02  0.31315546713E+02  0.24999782577E+00 0.  0.
    1000022    2    1    0    0    0  0.36307744446E+02 -0.29106152907E+02  0.40507153566E+02  0.62499999596E+02  0.10000000780E+02 0.  0.
    3000022    2    5    5    0    0  0.11811760467E+02 -0.14376579779E+02  0.12146369206E+02  0.22221622702E+02  0.24999832649E+00 0.  0.
        -13    1    4    4    0    0 -0.10988126149E+02  0.82965990127E+01 -0.16468451889E+02  0.21466098948E+02  0.10500000000E+00 0.  1.
         13    1    4    4    0    0 -0.50099778277E+01  0.38705328411E+01 -0.75445141631E+01  0.98494477645E+01  0.10500000000E+00 0. -1.
    3000001    1    5    5    0    0  0.24495983979E+02 -0.14729573128E+02  0.28360784360E+02  0.40278376894E+02  0.10000000000E+01 0.  1.
        -13    1    6    6    0    0  0.73714442574E+01 -0.90662803584E+01  0.76285347839E+01  0.13954970366E+02  0.10500000000E+00 0.  1.
         13    1    6    6    0    0  0.44403162098E+01 -0.53102994207E+01  0.45178344221E+01  0.82666523361E+01  0.10500000000E+00 0. -1.
</event>
<event>
11    0  0.3494755E-009  0.9118800E+02  0.7816531E-02  0.1126479E+00
         25   -1    0    0    0    0  0.00000000000E+00  0.00000000000E+00  0.99999998245E-14  0.12500000000E+03  0.12500000000E+03 0.  0.
    3000001    1    3    3    0    0 -0.12399535385E+01  0.16180285534E+02 -0.71360845976E+00  0.16274162399E+02  0.10000000000E+01 0.  1.
    1000022    2    1    0    0    0 -0.76144094064E+00  0.60266289186E+02  0.13177429428E+02  0.62500000710E+02  0.10000001891E+02 0.  0.
    3000022    2    3    3    0    0  0.47851259782E+00  0.44086003652E+02  0.13891037888E+02  0.46225838311E+02  0.25000330823E+00 0.  0.
    1000022    2    1    0    0    0  0.76144094064E+00 -0.60266289186E+02 -0.13177429428E+02  0.62499999290E+02  0.99999930142E+01 0.  0.
    3000022    2    5    5    0    0  0.70467697367E-01 -0.47494173661E+02 -0.62065042797E+01  0.47898691936E+02  0.24999269300E+00 0.  0.
        -13    1    4    4    0    0  0.11004315660E+00  0.14563697248E+02  0.46120942891E+01  0.15277297724E+02  0.10500000000E+00 0. -1.
         13    1    4    4    0    0  0.36846944121E+00  0.29522306404E+02  0.92789435991E+01  0.30948540587E+02  0.10500000000E+00 0.  1.
    3000001    1    5    5    0    0  0.69097324328E+00 -0.12772115525E+02 -0.69709251488E+01  0.14601307354E+02  0.10000000000E+01 0.  1.
        -13    1    6    6    0    0  0.67531510265E-01 -0.16824191801E+02 -0.22371302591E+01  0.16972735992E+02  0.10500000000E+00 0.  1.
         13    1    6    6    0    0  0.29361871012E-02 -0.30669981860E+02 -0.39693740206E+01  0.30925955944E+02  0.10500000000E+00 0. -1.
</event>
<event>
11    0  0.3494755E-009  0.9118800E+02  0.7816531E-02  0.1126479E+00
         25   -1    0    0    0    0  0.00000000000E+00  0.00000000000E+00  0.99999998245E-14  0.12500000000E+03  0.12500000000E+03 0.  0.
    3000001    1    3    3    0    0 -0.52153112549E+01 -0.26733193129E+01  0.72499743661E+01  0.93759392033E+01  0.10000000000E+01 0.  1.
    1000022    2    1    0    0    0 -0.14316883016E+02 -0.26867357751E+02  0.53660246536E+02  0.62500001251E+02  0.10000002309E+02 0.  0.
    3000022    2    3    3    0    0 -0.91015717616E+01 -0.24194038438E+02  0.46410272170E+02  0.53124062048E+02  0.25000206635E+00 0.  0.
    1000022    2    1    0    0    0  0.14316883016E+02  0.26867357751E+02 -0.53660246536E+02  0.62499998749E+02  0.99999866727E+01 0.  0.
    3000022    2    5    5    0    0  0.87741914189E+01  0.89096605763E+01 -0.28106100085E+02  0.30763352442E+02  0.25000967143E+00 0.  0.
        -13    1    4    4    0    0 -0.51265129778E+01 -0.13810521172E+02  0.26472467795E+02  0.30295448611E+02  0.10500000000E+00 0. -1.
         13    1    4    4    0    0 -0.39750587838E+01 -0.10383517266E+02  0.19937804375E+02  0.22828613437E+02  0.10500000000E+00 0.  1.
    3000001    1    5    5    0    0  0.55426915976E+01  0.17957697175E+02 -0.25554146451E+02  0.31736646307E+02  0.10000000000E+01 0.  1.
        -13    1    6    6    0    0  0.20748000802E+01  0.20857687412E+01 -0.66202340754E+01  0.72452571264E+01  0.10500000000E+00 0.  1.
         13    1    6    6    0    0  0.66993913386E+01  0.68238918351E+01 -0.21485866010E+02  0.23518095316E+02  0.10500000000E+00 0. -1.
</event>
<event>
11    0  0.3494755E-009  0.9118800E+02  0.7816531E-02  0.1126479E+00
         25   -1    0    0    0    0  0.00000000000E+00  0.00000000000E+00  0.99999998245E-14  0.12500000000E+03  0.12500000000E+03 0.  0.
    3000001    1    3    3    0    0 -0.10357005043E+02  0.24546368593E+02 -0.24179720599E+02  0.35992369369E+02  0.10000000000E+01 0. -1.
    1000022    2    1    0    0    0 -0.95803176055E+01  0.43854658107E+02 -0.42323002185E+02  0.62499999513E+02  0.99999951017E+01 0.  0.
    3000022    2    3    3    0    0  0.77668743773E+00  0.19308289514E+02 -0.18143281586E+02  0.26507630144E+02  0.25000355860E+00 0.  0.
    1000022    2    1    0    0    0  0.95803176055E+01 -0.43854658107E+02  0.42323002185E+02  0.62500000487E+02  0.10000001188E+02 0.  0.
    3000022    2    5    5    0    0  0.74976770195E+01 -0.19061188285E+02  0.14130804568E+02  0.24885461488E+02  0.24999238168E+00 0.  0.
        -13    1    4    4    0    0  0.56520018650E+00  0.14330404745E+02 -0.13425566687E+02  0.19645274681E+02  0.10500000000E+00 0. -1.
         13    1    4    4    0    0  0.21148725122E+00  0.49778847689E+01 -0.47177148989E+01  0.68623554627E+01  0.10500000000E+00 0.  1.
    3000001    1    5    5    0    0  0.20826405860E+01 -0.24793469822E+02  0.28192197617E+02  0.37614538999E+02  0.10000000000E+01 0. -1.
        -13    1    6    6    0    0  0.50827081399E+01 -0.12840719544E+02  0.95788910470E+01  0.16807265665E+02  0.10500000000E+00 0. -1.
         13    1    6    6    0    0  0.24149688796E+01 -0.62204687409E+01  0.45519135212E+01  0.80781958227E+01  0.10500000000E+00 0.  1.
</event>
<event>
11    0  0.3494755E-009  0.9118800E+02  0.7816531E-02  0.1126479E+00
         25   -1    0    0    0    0  0.00000000000E+00  0.00000000000E+00  0.99999998245E-14  0.12500000000E+03  0.12500000000E+03 0.  0.
    3000001    1    3    3    0    0  0.11334319778E+01 -0.23236931038E+01  0.15767052932E+01  0.31890778088E+01  0.10000000000E+01 0.  1.
    1000022    2    1    0    0    0  0.52963829856E+02 -0.25704174412E+02  0.18449350755E+02  0.62500002083E+02  0.99999930927E+01 0.  0.
    3000022    2    3    3    0    0  0.51830397878E+02 -0.23380481308E+02  0.16872645462E+02  0.59310924274E+02  0.25004588434E+00 0.  0.
    1000022    2    1    0    0    0 -0.52963829856E+02  0.25704174412E+02 -0.18449350755E+02  0.62499997917E+02  0.99999670561E+01 0.  0.
    3000022    2    5    5    0    0 -0.40015159663E+02  0.15880273413E+02 -0.10191821662E+02  0.44241742871E+02  0.24999387713E+00 0.  0.
        -13    1    4    4    0    0  0.30909579557E+02 -0.13983862674E+02  0.10013439656E+02  0.35372736993E+02  0.10500000000E+00 0. -1.
         13    1    4    4    0    0  0.20920818321E+02 -0.93966186342E+01  0.68592058065E+01  0.23938187281E+02  0.10500000000E+00 0.  1.
    3000001    1    5    5    0    0 -0.12948670193E+02  0.98239009985E+01 -0.82575290934E+01  0.18258255046E+02  0.10000000000E+01 0. -1.
        -13    1    6    6    0    0 -0.25431219134E+02  0.10135617639E+02 -0.64369176040E+01  0.28123345903E+02  0.10500000000E+00 0. -1.
         13    1    6    6    0    0 -0.14583940529E+02  0.57446557740E+01 -0.37549040578E+01  0.16118396968E+02  0.10500000000E+00 0.  1.
</event>
<event>
11    0  0.3494755E-009  0.9118800E+02  0.7816531E-02  0.1126479E+00
         25   -1    0    0    0    0  0.00000000000E+00  0.00000000000E+00  0.99999998245E-14  0.12500000000E+03  0.12500000000E+03 0.  0.
    3000001    1    3    3    0    0 -0.31491511749E+02  0.31048175144E+02  0.35986527457E+02  0.57023983116E+02  0.10000000000E+01 0.  1.
    1000022    2    1    0    0    0 -0.35280974615E+02  0.31096421483E+02  0.39931387938E+02  0.62500001820E+02  0.99999943003E+01 0.  0.
    3000022    2    3    3    0    0 -0.37894628660E+01  0.48246338412E-01  0.39448604807E+01  0.54760187034E+01  0.25000021097E+00 0.  0.
    1000022    2    1    0    0    0  0.35280974615E+02 -0.31096421483E+02 -0.39931387938E+02  0.62499998180E+02  0.99999715525E+01 0.  0.
    3000022    2    5    5    0    0  0.25032115388E+02 -0.15746430071E+02 -0.23639624010E+02  0.37860945364E+02  0.24999947656E+00 0.  0.
        -13    1    4    4    0    0 -0.15118401328E+01 -0.13284006294E-01  0.14974221733E+01  0.21305246342E+01  0.10500000000E+00 0. -1.
         13    1    4    4    0    0 -0.22776227332E+01  0.61530344705E-01  0.24474383074E+01  0.33454940692E+01  0.10500000000E+00 0.  1.
    3000001    1    5    5    0    0  0.10248859227E+02 -0.15349991411E+02 -0.16291763928E+02  0.24639052816E+02  0.10000000000E+01 0. -1.
        -13    1    6    6    0    0  0.18324312037E+02 -0.11565238349E+02 -0.17337169738E+02  0.27751101406E+02  0.10500000000E+00 0. -1.
         13    1    6    6    0    0  0.67078033510E+01 -0.41811917220E+01 -0.63024542717E+01  0.10109843958E+02  0.10500000000E+00 0.  1.
</event>
<event>
11    0  0.3494755E-009  0.9118800E+02  0.7816531E-02  0.1126479E+00
         25   -1    0    0    0    0  0.00000000000E+00  0.00000000000E+00  0.99999998245E-14  0.12500000000E+03  0.12500000000E+03 0.  0.
    3000001    1    3    3    0    0 -0.94120960792E+00  0.75951699860E+00 -0.48012128382E+01  0.50511767257E+01  0.10000000000E+01 0.  1.
    1000022    2    1    0    0    0 -0.38914659685E+02  0.16193278889E+02 -0.45051936753E+02  0.62499999093E+02  0.99999930944E+01 0.  0.
    3000022    2    3    3    0    0 -0.37973450077E+02  0.15433761891E+02 -0.40250723915E+02  0.57448822368E+02  0.24999781056E+00 0.  0.
    1000022    2    1    0    0    0  0.38914659685E+02 -0.16193278889E+02  0.45051936753E+02  0.62500000907E+02  0.10000004428E+02 0.  0.
    3000022    2    5    5    0    0  0.14689773343E+02 -0.10759926094E+02  0.22486738226E+02  0.28935814257E+02  0.25000052863E+00 0.  0.
        -13    1    4    4    0    0 -0.15690419530E+02  0.64433242666E+01 -0.16683171975E+02  0.23791699073E+02  0.10500000000E+00 0.  1.
         13    1    4    4    0    0 -0.22283030547E+02  0.89904376239E+01 -0.23567551940E+02  0.33657123295E+02  0.10500000000E+00 0. -1.
    3000001    1    5    5    0    0  0.24224886342E+02 -0.54333527954E+01  0.22565198527E+02  0.33564186650E+02  0.10000000000E+01 0. -1.
        -13    1    6    6    0    0  0.43396519746E+01 -0.32343783683E+01  0.66902302138E+01  0.86060436906E+01  0.10500000000E+00 0.  1.
         13    1    6    6    0    0  0.10350121368E+02 -0.75255477254E+01  0.15796508012E+02  0.20329770566E+02  0.10500000000E+00 0. -1.
</event>
<event>
11    0  0.3494755E-009  0.9118800E+02  0.7816531E-02  0.1126479E+00
         25   -1    0    0    0    0  0.00000000000E+00  0.00000000000E+00  0.99999998245E-14  0.12500000000E+03  0.12500000000E+03 0.  0.
    3000001    1    3    3    0    0  0.32328118019E+02  0.17454247058E+01 -0.35709768082E+02  0.48211422490E+02  0.10000000000E+01 0. -1.
    1000022    2    1    0    0    0  0.44779772103E+02  0.43387149388E+01 -0.42216081300E+02  0.62500000354E+02  0.10000004353E+02 0.  0.
    3000022    2    3    3    0    0  0.12451654084E+02  0.25932902330E+01 -0.65063132171E+01  0.14288577864E+02  0.25000405331E+00 0.  0.
    1000022    2    1    0    0    0 -0.44779772103E+02 -0.43387149388E+01  0.42216081300E+02  0.62499999646E+02  0.99999999268E+01 0.  0.
    3000022    2    5    5    0    0 -0.85484653357E+00 -0.10112993595E+01  0.38375532292E+01  0.40672845151E+01  0.24999909850E+00 0.  0.
        -13    1    4    4    0    0  0.65129711009E+01  0.13036386763E+01 -0.34465504252E+01  0.74838493567E+01  0.10500000000E+00 0. -1.
         13    1    4    4    0    0  0.59386829832E+01  0.12896515567E+01 -0.30597627918E+01  0.68047285071E+01  0.10500000000E+00 0.  1.
    3000001    1    5    5    0    0 -0.43924925569E+02 -0.33274155793E+01  0.38378528070E+02  0.58432715131E+02  0.10000000000E+01 0.  1.
        -13    1    6    6    0    0 -0.57220407168E+00 -0.60177118623E+00  0.22774399952E+01  0.24263767209E+01  0.10500000000E+00 0.  1.
         13    1    6    6    0    0 -0.28264246189E+00 -0.40952817327E+00  0.15601132341E+01  0.16409077942E+01  0.10500000000E+00 0. -1.
</event>
<event>
11    0  0.3494755E-009  0.9118800E+02  0.7816531E-02  0.1126479E+00
         25   -1    0    0    0    0  0.00000000000E+00  0.00000000000E+00  0.99999998245E-14  0.12500000000E+03  0.12500000000E+03 0.  0.
    3000001    1    3    3    0    0  0.26799014486E+02 -0.80644798964E+01  0.44510377499E+02  0.52587039454E+02  0.10000000000E+01 0. -1.
    1000022    2    1    0    0    0  0.32383584997E+02 -0.53622510104E+01  0.52237914176E+02  0.62500000422E+02  0.10000003108E+02 0.  0.
    3000022    2    3    3    0    0  0.55845705111E+01  0.27022288861E+01  0.77275366773E+01  0.99129609687E+01  0.25000664155E+00 0.  0.
    1000022    2    1    0    0    0 -0.32383584997E+02  0.53622510104E+01 -0.52237914176E+02  0.62499999578E+02  0.99999978292E+01 0.  0.
    3000022    2    5    5    0    0 -0.10001629896E+02 -0.16586959546E+01 -0.10410535433E+02  0.14533602768E+02  0.24997711181E+00 0.  0.
        -13    1    4    4    0    0  0.35792690979E+01  0.17563582517E+01  0.48790260024E+01  0.63017363730E+01  0.10500000000E+00 0. -1.
         13    1    4    4    0    0  0.20053014132E+01  0.94587063433E+00  0.28485106750E+01  0.36112245956E+01  0.10500000000E+00 0.  1.
    3000001    1    5    5    0    0 -0.22381955101E+02  0.70209469650E+01 -0.41827378743E+02  0.47966396810E+02  0.10000000000E+01 0.  1.
        -13    1    6    6    0    0 -0.67730112628E+01 -0.11343480501E+01 -0.69788238693E+01  0.97916002095E+01  0.10500000000E+00 0. -1.
         13    1    6    6    0    0 -0.32286186333E+01 -0.52434790457E+00 -0.34317115638E+01  0.47420025582E+01  0.10500000000E+00 0.  1.
</event>
<event>
11    0  0.3494755E-009  0.9118800E+02  0.7816531E-02  0.1126479E+00
         25   -1    0    0    0    0  0.00000000000E+00  0.00000000000E+00  0.99999998245E-14  0.12500000000E+03  0.12500000000E+03 0.  0.
    3000001    1    3    3    0    0  0.43097398211E+01  0.23006415570E+02  0.22879441786E+02  0.32746570372E+02  0.10000000000E+01 0. -1.
    1000022    2    1    0    0    0  0.26487440100E+01  0.38034666014E+02  0.48503589028E+02  0.62500001052E+02  0.10000015965E+02 0.  0.
    3000022    2    3    3    0    0 -0.16609958111E+01  0.15028250444E+02  0.25624147242E+02  0.29753430680E+02  0.24999372887E+00 0.  0.
    1000022    2    1    0    0    0 -0.26487440100E+01 -0.38034666014E+02 -0.48503589028E+02  0.62499998948E+02  0.10000002811E+02 0.  0.
    3000022    2    5    5    0    0 -0.23194688579E+01 -0.36621666703E+02 -0.48395242209E+02  0.60734573160E+02  0.25000116607E+00 0.  0.
        -13    1    4    4    0    0 -0.10810443928E+01  0.92723187909E+01  0.15868358011E+02  0.18410876234E+02  0.10500000000E+00 0.  1.
         13    1    4    4    0    0 -0.57995141834E+00  0.57559316534E+01  0.97557892304E+01  0.11342554446E+02  0.10500000000E+00 0. -1.
    3000001    1    5    5    0    0 -0.32927515211E+00 -0.14129993113E+01 -0.10834681939E+00  0.17654257879E+01  0.10000000000E+01 0.  1.
        -13    1    6    6    0    0 -0.14107883240E+01 -0.21506244457E+02 -0.28493709121E+02  0.35726899653E+02  0.10500000000E+00 0. -1.
         13    1    6    6    0    0 -0.90868053389E+00 -0.15115422246E+02 -0.19901533087E+02  0.25007673506E+02  0.10500000000E+00 0.  1.
</event>
<event>
11    0  0.3494755E-009  0.9118800E+02  0.7816531E-02  0.1126479E+00
         25   -1    0    0    0    0  0.00000000000E+00  0.00000000000E+00  0.99999998245E-14  0.12500000000E+03  0.12500000000E+03 0.  0.
    3000001    1    3    3    0    0  0.39070779310E+02 -0.17666102097E+02 -0.25232338881E+02  0.49762313899E+02  0.10000000000E+01 0.  1.
    1000022    2    1    0    0    0  0.51102676296E+02 -0.18228942694E+02 -0.29367882883E+02  0.62499996494E+02  0.99999570200E+01 0.  0.
    3000022    2    3    3    0    0  0.12031896986E+02 -0.56284059732E+00 -0.41355440024E+01  0.12737682595E+02  0.24999817382E+00 0.  0.
    1000022    2    1    0    0    0 -0.51102676296E+02  0.18228942694E+02  0.29367882883E+02  0.62500003506E+02  0.10000000839E+02 0.  0.
    3000022    2    5    5    0    0 -0.41120886962E+02  0.12979994634E+02  0.27167717047E+02  0.50966213853E+02  0.24999938688E+00 0.  0.
        -13    1    4    4    0    0  0.36214700097E+01 -0.12805438828E+00 -0.12659855670E+01  0.38399462774E+01  0.10500000000E+00 0. -1.
         13    1    4    4    0    0  0.84104269763E+01 -0.43478620903E+00 -0.28695584354E+01  0.88977363180E+01  0.10500000000E+00 0.  1.
    3000001    1    5    5    0    0 -0.99817893341E+01  0.52489480603E+01  0.22001658361E+01  0.11533789653E+02  0.10000000000E+01 0.  1.
        -13    1    6    6    0    0 -0.16514403152E+02  0.52770758479E+01  0.10904353682E+02  0.20481430497E+02  0.10500000000E+00 0. -1.
         13    1    6    6    0    0 -0.24606483810E+02  0.77029187858E+01  0.16263363365E+02  0.30484783356E+02  0.10500000000E+00 0.  1.
</event>
<event>
11    0  0.3494755E-009  0.9118800E+02  0.7816531E-02  0.1126479E+00
         25   -1    0    0    0    0  0.00000000000E+00  0.00000000000E+00  0.99999998245E-14  0.12500000000E+03  0.12500000000E+03 0.  0.
    3000001    1    3    3    0    0 -0.29484456042E+02 -0.31404254935E+02  0.18629176649E+02  0.46942588326E+02  0.10000000000E+01 0. -1.
    1000022    2    1    0    0    0 -0.38319798600E+02 -0.38446275663E+02  0.29321099723E+02  0.62499999647E+02  0.99999994918E+01 0.  0.
    3000022    2    3    3    0    0 -0.88353425587E+01 -0.70420207270E+01  0.10691923075E+02  0.15557411321E+02  0.24998788010E+00 0.  0.
    1000022    2    1    0    0    0  0.38319798600E+02  0.38446275663E+02 -0.29321099723E+02  0.62500000353E+02  0.10000003902E+02 0.  0.
    3000022    2    5    5    0    0  0.43151823375E+01  0.23012498263E+01 -0.57457494524E+01  0.75493501267E+01  0.25000239335E+00 0.  0.
        -13    1    4    4    0    0 -0.52441714773E+01 -0.41530766716E+01  0.64129015180E+01  0.92674544079E+01  0.10500000000E+00 0. -1.
         13    1    4    4    0    0 -0.35911710814E+01 -0.28889440555E+01  0.42790215566E+01  0.62899569135E+01  0.10500000000E+00 0.  1.
    3000001    1    5    5    0    0  0.34004616263E+02  0.36145025836E+02 -0.23575350271E+02  0.54950650226E+02  0.10000000000E+01 0. -1.
        -13    1    6    6    0    0  0.25380093995E+01  0.14252327057E+01 -0.34091127846E+01  0.44839552802E+01  0.10500000000E+00 0. -1.
         13    1    6    6    0    0  0.17771729380E+01  0.87601712062E+00 -0.23366366678E+01  0.30653948464E+01  0.10500000000E+00 0.  1.
</event>
<event>
11    0  0.3494755E-009  0.9118800E+02  0.7816531E-02  0.1126479E+00
         25   -1    0    0    0    0  0.00000000000E+00  0.00000000000E+00  0.99999998245E-14  0.12500000000E+03  0.12500000000E+03 0.  0.
    3000001    1    3    3    0    0  0.26267908300E+02 -0.15194761894E+02  0.85906309294E+00  0.30374689873E+02  0.10000000000E+01 0.  1.
    1000022    2    1    0    0    0  0.52573400955E+02 -0.30066544150E+02  0.11759739511E+02  0.62500008547E+02  0.10000001500E+02 0.  0.
    3000022    2    3    3    0    0  0.26305492655E+02 -0.14871782256E+02  0.10900676418E+02  0.32125318675E+02  0.25000459517E+00 0.  0.
    1000022    2    1    0    0    0 -0.52573400955E+02  0.30066544150E+02 -0.11759739511E+02  0.62499991453E+02  0.99998946560E+01 0.  0.
    3000022    2    5    5    0    0 -0.40386952434E+02  0.22614763169E+02 -0.13132817490E+02  0.48115141420E+02  0.24999699414E+00 0.  0.
        -13    1    4    4    0    0  0.12681770451E+02 -0.71814630342E+01  0.51861735121E+01  0.15469587383E+02  0.10500000000E+00 0.  1.
         13    1    4    4    0    0  0.13623722204E+02 -0.76903192219E+01  0.57145029058E+01  0.16655731292E+02  0.10500000000E+00 0. -1.
    3000001    1    5    5    0    0 -0.12186448521E+02  0.74517809806E+01  0.13730779791E+01  0.14384850033E+02  0.10000000000E+01 0. -1.
        -13    1    6    6    0    0 -0.26013695709E+02  0.14544279180E+02 -0.85121618207E+01  0.30995424585E+02  0.10500000000E+00 0. -1.
         13    1    6    6    0    0 -0.14373256725E+02  0.80704839891E+01 -0.46206556692E+01  0.17119716835E+02  0.10500000000E+00 0.  1.
</event>
<event>
11    0  0.3494755E-009  0.9118800E+02  0.7816531E-02  0.1126479E+00
         25   -1    0    0    0    0  0.00000000000E+00  0.00000000000E+00  0.99999998245E-14  0.12500000000E+03  0.12500000000E+03 0.  0.
    3000001    1    3    3    0    0  0.72927336800E+01  0.19348004000E+02 -0.16172713345E+02  0.26269485725E+02  0.10000000000E+01 0. -1.
    1000022    2    1    0    0    0  0.17808114824E+02  0.51783637719E+02 -0.28417881916E+02  0.62500001010E+02  0.10000001236E+02 0.  0.
    3000022    2    3    3    0    0  0.10515381144E+02  0.32435633719E+02 -0.12245168571E+02  0.36230515285E+02  0.25001831854E+00 0.  0.
    1000022    2    1    0    0    0 -0.17808114824E+02 -0.51783637719E+02  0.28417881916E+02  0.62499998990E+02  0.99999886086E+01 0.  0.
    3000022    2    5    5    0    0 -0.12591039622E+02 -0.29033070420E+02  0.21030554878E+02  0.37997370828E+02  0.24998914800E+00 0.  0.
        -13    1    4    4    0    0  0.35944312562E+01  0.11198699414E+02 -0.42704179735E+01  0.12513125081E+02  0.10500000000E+00 0.  1.
         13    1    4    4    0    0  0.69209498880E+01  0.21236934304E+02 -0.79747505972E+01  0.23717390204E+02  0.10500000000E+00 0. -1.
    3000001    1    5    5    0    0 -0.52170752017E+01 -0.22750567299E+02  0.73873270379E+01  0.24502628162E+02  0.10000000000E+01 0. -1.
        -13    1    6    6    0    0 -0.61628852142E+01 -0.14049562573E+02  0.10169380860E+02  0.18406485127E+02  0.10500000000E+00 0. -1.
         13    1    6    6    0    0 -0.64281544083E+01 -0.14983507847E+02  0.10861174018E+02  0.19590885701E+02  0.10500000000E+00 0.  1.
</event>
<event>
11    0  0.3494755E-009  0.9118800E+02  0.7816531E-02  0.1126479E+00
         25   -1    0    0    0    0  0.00000000000E+00  0.00000000000E+00  0.99999998245E-14  0.12500000000E+03  0.12500000000E+03 0.  0.
    3000001    1    3    3    0    0 -0.23684342595E+02 -0.35198271613E+00 -0.39021208580E+02  0.45658807420E+02  0.10000000000E+01 0.  1.
    1000022    2    1    0    0    0 -0.27407506867E+02 -0.33232357824E+01 -0.55172771490E+02  0.62500000309E+02  0.99999998073E+01 0.  0.
    3000022    2    3    3    0    0 -0.37231642716E+01 -0.29712530663E+01 -0.16151562910E+02  0.16841192889E+02  0.24999307569E+00 0.  0.
    1000022    2    1    0    0    0  0.27407506867E+02  0.33232357824E+01  0.55172771490E+02  0.62499999691E+02  0.99999959389E+01 0.  0.
    3000022    2    5    5    0    0  0.18457292116E+02  0.10144210747E+01  0.45358757810E+02  0.48981426025E+02  0.25000609507E+00 0.  0.
        -13    1    4    4    0    0 -0.10282469108E+01 -0.85707034936E+00 -0.46471304576E+01  0.48372210806E+01  0.10500000000E+00 0.  1.
         13    1    4    4    0    0 -0.26949173609E+01 -0.21141827169E+01 -0.11504432452E+02  0.12003971809E+02  0.10500000000E+00 0. -1.
    3000001    1    5    5    0    0  0.89502147509E+01  0.23088147077E+01  0.98140136798E+01  0.13518573666E+02  0.10000000000E+01 0. -1.
        -13    1    6    6    0    0  0.12568898562E+02  0.74037822217E+00  0.30866799015E+02  0.33336101713E+02  0.10500000000E+00 0. -1.
         13    1    6    6    0    0  0.58883935532E+01  0.27404285253E+00  0.14491958795E+02  0.15645324312E+02  0.10500000000E+00 0.  1.
</event>
<event>
11    0  0.3494755E-009  0.9118800E+02  0.7816531E-02  0.1126479E+00
         25   -1    0    0    0    0  0.00000000000E+00  0.00000000000E+00  0.99999998245E-14  0.12500000000E+03  0.12500000000E+03 0.  0.
    3000001    1    3    3    0    0 -0.83075391910E+01  0.20635308858E+02 -0.21220422424E+02  0.30759348285E+02  0.10000000000E+01 0. -1.
    1000022    2    1    0    0    0 -0.79827111476E+01  0.45819224106E+02 -0.40535477935E+02  0.62499999879E+02  0.10000001923E+02 0.  0.
    3000022    2    3    3    0    0  0.32482804342E+00  0.25183915249E+02 -0.19315055510E+02  0.31740651594E+02  0.24998739863E+00 0.  0.
    1000022    2    1    0    0    0  0.79827111476E+01 -0.45819224106E+02  0.40535477935E+02  0.62500000121E+02  0.10000003439E+02 0.  0.
    3000022    2    5    5    0    0  0.48193525088E+01 -0.41953489307E+02  0.37998395879E+02  0.56808995924E+02  0.25000974063E+00 0.  0.
        -13    1    4    4    0    0  0.13089314705E+00  0.71875587069E+01 -0.54929066877E+01  0.90477169529E+01  0.10500000000E+00 0. -1.
         13    1    4    4    0    0  0.19393489637E+00  0.17996356542E+02 -0.13822148823E+02  0.22692934641E+02  0.10500000000E+00 0.  1.
    3000001    1    5    5    0    0  0.31633586387E+01 -0.38657347991E+01  0.25370820558E+01  0.56910041971E+01  0.10000000000E+01 0.  1.
        -13    1    6    6    0    0  0.31888324346E+01 -0.28117587296E+02  0.25507468025E+02  0.38097366283E+02  0.10500000000E+00 0. -1.
         13    1    6    6    0    0  0.16305200742E+01 -0.13835902012E+02  0.12490927854E+02  0.18711629642E+02  0.10500000000E+00 0.  1.
</event>
<event>
11    0  0.3494755E-009  0.9118800E+02  0.7816531E-02  0.1126479E+00
         25   -1    0    0    0    0  0.00000000000E+00  0.00000000000E+00  0.99999998245E-14  0.12500000000E+03  0.12500000000E+03 0.  0.
    3000001    1    3    3    0    0 -0.19426122969E+02  0.22552189058E+01  0.55901576954E+02  0.59232141375E+02  0.10000000000E+01 0.  1.
    1000022    2    1    0    0    0 -0.18684491873E+02  0.94220836183E+00  0.58789896558E+02  0.62500001460E+02  0.10000012601E+02 0.  0.
    3000022    2    3    3    0    0  0.74163109588E+00 -0.13130105440E+01  0.28883196038E+01  0.32678600846E+01  0.25001205516E+00 0.  0.
    1000022    2    1    0    0    0  0.18684491873E+02 -0.94220836183E+00 -0.58789896558E+02  0.62499998540E+02  0.99999943542E+01 0.  0.
    3000022    2    5    5    0    0  0.19709772146E+02 -0.12081192196E+01 -0.55170021692E+02  0.58598024391E+02  0.24999766764E+00 0.  0.
        -13    1    4    4    0    0  0.25340101150E+00 -0.57885966314E+00  0.11914755156E+01  0.13527488630E+01  0.10500000000E+00 0. -1.
         13    1    4    4    0    0  0.48823008439E+00 -0.73415088086E+00  0.16968440882E+01  0.19151112215E+01  0.10500000000E+00 0.  1.
    3000001    1    5    5    0    0 -0.10252802731E+01  0.26591085781E+00 -0.36198748656E+01  0.39019741497E+01  0.10000000000E+01 0.  1.
        -13    1    6    6    0    0  0.83609174492E+01 -0.54855685547E+00 -0.23249008111E+02  0.24713017994E+02  0.10500000000E+00 0. -1.
         13    1    6    6    0    0  0.11348854697E+02 -0.65956236417E+00 -0.31921013581E+02  0.33885006397E+02  0.10500000000E+00 0.  1.
</event>
<event>
11    0  0.3494755E-009  0.9118800E+02  0.7816531E-02  0.1126479E+00
         25   -1    0    0    0    0  0.00000000000E+00  0.00000000000E+00  0.99999998245E-14  0.12500000000E+03  0.12500000000E+03 0.  0.
    3000001    1    3    3    0    0 -0.97693634500E+01 -0.37351497842E+00  0.23516718122E+02  0.25487565731E+02  0.10000000000E+01 0. -1.
    1000022    2    1    0    0    0 -0.12946573356E+02  0.27693658943E+01  0.60257504341E+02  0.62499999348E+02  0.99999969994E+01 0.  0.
    3000022    2    3    3    0    0 -0.31772099058E+01  0.31428808727E+01  0.36740786219E+02  0.37012433617E+02  0.25001461500E+00 0.  0.
    1000022    2    1    0    0    0  0.12946573356E+02 -0.27693658943E+01 -0.60257504341E+02  0.62500000652E+02  0.10000005149E+02 0.  0.
    3000022    2    5    5    0    0  0.12547207683E+02 -0.54069162262E+01 -0.51970509762E+02  0.53736984970E+02  0.25001001780E+00 0.  0.
        -13    1    4    4    0    0 -0.13337025624E+01  0.12496280411E+01  0.15364347024E+02  0.15473025471E+02  0.10500000000E+00 0. -1.
         13    1    4    4    0    0 -0.18435073434E+01  0.18932528315E+01  0.21376439195E+02  0.21539408146E+02  0.10500000000E+00 0.  1.
    3000001    1    5    5    0    0  0.39936567302E+00  0.26375503319E+01 -0.82869945786E+01  0.87630156818E+01  0.10000000000E+01 0. -1.
        -13    1    6    6    0    0  0.87290586471E+01 -0.37451319872E+01 -0.35952086154E+02  0.37185830666E+02  0.10500000000E+00 0.  1.
         13    1    6    6    0    0  0.38181490357E+01 -0.16617842389E+01 -0.16018423608E+02  0.16551154305E+02  0.10500000000E+00 0. -1.
</event>
<event>
11    0  0.3494755E-009  0.9118800E+02  0.7816531E-02  0.1126479E+00
         25   -1    0    0    0    0  0.00000000000E+00  0.00000000000E+00  0.99999998245E-14  0.12500000000E+03  0.12500000000E+03 0.  0.
    3000001    1    3    3    0    0 -0.21140856569E+01 -0.13937434648E+02 -0.66309171514E+01  0.15610589515E+02  0.10000000000E+01 0.  1.
    1000022    2    1    0    0    0 -0.64909279886E+01 -0.46180477661E+02 -0.40391602204E+02  0.62500000999E+02  0.99999966538E+01 0.  0.
    3000022    2    3    3    0    0 -0.43768423317E+01 -0.32243043013E+02 -0.33760685053E+02  0.46889411484E+02  0.24996506452E+00 0.  0.
    1000022    2    1    0    0    0  0.64909279886E+01  0.46180477661E+02  0.40391602204E+02  0.62499999001E+02  0.99999841659E+01 0.  0.
    3000022    2    5    5    0    0  0.57901204377E+01  0.26812865180E+02  0.17721994648E+02  0.32658640936E+02  0.24999918381E+00 0.  0.
        -13    1    4    4    0    0 -0.19164461284E+01 -0.13785469316E+02 -0.14509421387E+02  0.20105876356E+02  0.10500000000E+00 0. -1.
         13    1    4    4    0    0 -0.24603962034E+01 -0.18457573697E+02 -0.19251263666E+02  0.26783535128E+02  0.10500000000E+00 0.  1.
    3000001    1    5    5    0    0  0.70080755088E+00  0.19367612481E+02  0.22669607556E+02  0.29841358065E+02  0.10000000000E+01 0.  1.
        -13    1    6    6    0    0  0.37789547823E+01  0.17627571273E+02  0.11704370486E+02  0.21494536089E+02  0.10500000000E+00 0. -1.
         13    1    6    6    0    0  0.20111656554E+01  0.91852939077E+01  0.60176241626E+01  0.11164104847E+02  0.10500000000E+00 0.  1.
</event>
<event>
11    0  0.3494755E-009  0.9118800E+02  0.7816531E-02  0.1126479E+00
         25   -1    0    0    0    0  0.00000000000E+00  0.00000000000E+00  0.99999998245E-14  0.12500000000E+03  0.12500000000E+03 0.  0.
    3000001    1    3    3    0    0 -0.25233751790E+01 -0.37629515535E+02  0.24905554976E+02  0.45206576185E+02  0.10000000000E+01 0.  1.
    1000022    2    1    0    0    0 -0.84939695128E+01 -0.49077212119E+02  0.36407826115E+02  0.62499999668E+02  0.99999944325E+01 0.  0.
    3000022    2    3    3    0    0 -0.59705943338E+01 -0.11447696584E+02  0.11502271139E+02  0.17293423483E+02  0.25000128302E+00 0.  0.
    1000022    2    1    0    0    0  0.84939695128E+01  0.49077212119E+02 -0.36407826115E+02  0.62500000332E+02  0.99999985764E+01 0.  0.
    3000022    2    5    5    0    0  0.86429229659E+01  0.21533836011E+02 -0.15505835164E+02  0.27908773405E+02  0.24999617488E+00 0.  0.
        -13    1    4    4    0    0 -0.25800099003E+01 -0.50588399679E+01  0.50041149730E+01  0.75697096753E+01  0.10500000000E+00 0.  1.
         13    1    4    4    0    0 -0.33905844335E+01 -0.63888566160E+01  0.64981561661E+01  0.97237138080E+01  0.10500000000E+00 0. -1.
    3000001    1    5    5    0    0 -0.14895345311E+00  0.27543376108E+02 -0.20901990951E+02  0.34591226926E+02  0.10000000000E+01 0. -1.
        -13    1    6    6    0    0  0.21192701878E+01  0.52334706161E+01 -0.37897368029E+01  0.68010036652E+01  0.10500000000E+00 0. -1.
         13    1    6    6    0    0  0.65236527781E+01  0.16300365395E+02 -0.11716098362E+02  0.21107769740E+02  0.10500000000E+00 0.  1.
</event>
<event>
11    0  0.3494755E-009  0.9118800E+02  0.7816531E-02  0.1126479E+00
         25   -1    0    0    0    0  0.00000000000E+00  0.00000000000E+00  0.99999998245E-14  0.12500000000E+03  0.12500000000E+03 0.  0.
    3000001    1    3    3    0    0 -0.31584284946E+02 -0.37599380732E+02  0.14155333860E+01  0.49135366303E+02  0.10000000000E+01 0.  1.
    1000022    2    1    0    0    0 -0.40500009484E+02 -0.46432085241E+02 -0.31718533945E+01  0.62499999956E+02  0.10000001628E+02 0.  0.
    3000022    2    3    3    0    0 -0.89157245380E+01 -0.88327045090E+01 -0.45873867805E+01  0.13364633653E+02  0.25000445911E+00 0.  0.
    1000022    2    1    0    0    0  0.40500009484E+02  0.46432085241E+02  0.31718533945E+01  0.62500000044E+02  0.10000002179E+02 0.  0.
    3000022    2    5    5    0    0  0.25476382768E+02  0.21793372527E+02  0.24375755323E+01  0.33615494027E+02  0.24999832502E+00 0.  0.
        -13    1    4    4    0    0 -0.32337064136E+01 -0.32855744052E+01 -0.16962551507E+01  0.49132639739E+01  0.10500000000E+00 0. -1.
         13    1    4    4    0    0 -0.56820181245E+01 -0.55471301039E+01 -0.28911316298E+01  0.84513696793E+01  0.10500000000E+00 0.  1.
    3000001    1    5    5    0    0  0.15023626716E+02  0.24638712713E+02  0.73427786218E+00  0.28884506017E+02  0.10000000000E+01 0. -1.
        -13    1    6    6    0    0  0.96723334398E+01  0.83395779221E+01  0.96378074895E+00  0.12807907418E+02  0.10500000000E+00 0. -1.
         13    1    6    6    0    0  0.15804049328E+02  0.13453794605E+02  0.14737947833E+01  0.20807586609E+02  0.10500000000E+00 0.  1.
</event>
<event>
11    0  0.3494755E-009  0.9118800E+02  0.7816531E-02  0.1126479E+00
         25   -1    0    0    0    0  0.00000000000E+00  0.00000000000E+00  0.99999998245E-14  0.12500000000E+03  0.12500000000E+03 0.  0.
    3000001    1    3    3    0    0 -0.19271536388E+02  0.27384317778E+02  0.19866342958E+02  0.38948229195E+02  0.10000000000E+01 0.  1.
    1000022    2    1    0    0    0 -0.26080976637E+02  0.48442171469E+02  0.27917536042E+02  0.62499999491E+02  0.99999899342E+01 0.  0.
    3000022    2    3    3    0    0 -0.68094402488E+01  0.21057853692E+02  0.80511930832E+01  0.23551770295E+02  0.24999075094E+00 0.  0.
    1000022    2    1    0    0    0  0.26080976637E+02 -0.48442171469E+02 -0.27917536042E+02  0.62500000509E+02  0.99999963012E+01 0.  0.
    3000022    2    5    5    0    0  0.26294595116E+01 -0.80955471153E+01 -0.88989146190E+00  0.85619126328E+01  0.25000139577E+00 0.  0.
        -13    1    4    4    0    0 -0.31513370125E+01  0.96114695724E+01  0.36235364026E+01  0.10744873818E+02  0.10500000000E+00 0. -1.
         13    1    4    4    0    0 -0.36581032363E+01  0.11446384119E+02  0.44276566806E+01  0.12806896477E+02  0.10500000000E+00 0.  1.
    3000001    1    5    5    0    0  0.23451517126E+02 -0.40346624354E+02 -0.27027644580E+02  0.53938087877E+02  0.10000000000E+01 0. -1.
        -13    1    6    6    0    0  0.90432866017E+00 -0.29734214655E+01 -0.33190247098E+00  0.31273358930E+01  0.10500000000E+00 0. -1.
         13    1    6    6    0    0  0.17251308514E+01 -0.51221256498E+01 -0.55798899091E+00  0.54345767398E+01  0.10500000000E+00 0.  1.
</event>
<event>
11    0  0.3494755E-009  0.9118800E+02  0.7816531E-02  0.1126479E+00
         25   -1    0    0    0    0  0.00000000000E+00  0.00000000000E+00  0.99999998245E-14  0.12500000000E+03  0.12500000000E+03 0.  0.
    3000001    1    3    3    0    0  0.17052282762E+02  0.82605587731E+00 -0.56138793040E+01  0.17999398782E+02  0.10000000000E+01 0. -1.
    1000022    2    1    0    0    0  0.54705186178E+02 -0.10019910406E+02 -0.26705696351E+02  0.62499998360E+02  0.99999789070E+01 0.  0.
    3000022    2    3    3    0    0  0.37652903416E+02 -0.10845966283E+02 -0.21091817047E+02  0.44500599578E+02  0.24999226988E+00 0.  0.
    1000022    2    1    0    0    0 -0.54705186178E+02  0.10019910406E+02  0.26705696351E+02  0.62500001640E+02  0.99999994026E+01 0.  0.
    3000022    2    5    5    0    0  0.29180274282E+00  0.66567197149E-01  0.79916297689E+00  0.88923713496E+00  0.25000237218E+00 0.  0.
        -13    1    4    4    0    0  0.15502368401E+02 -0.44981577967E+01 -0.86253011576E+01  0.18302013404E+02  0.10500000000E+00 0. -1.
         13    1    4    4    0    0  0.22150535016E+02 -0.63478084866E+01 -0.12466515890E+02  0.26198586174E+02  0.10500000000E+00 0.  1.
    3000001    1    5    5    0    0 -0.54996988921E+02  0.99533432088E+01  0.25906533374E+02  0.61610764505E+02  0.10000000000E+01 0.  1.
        -13    1    6    6    0    0  0.16258962852E+00  0.99129158358E-01  0.39477038960E+00  0.45070016402E+00  0.10500000000E+00 0. -1.
         13    1    6    6    0    0  0.12921311430E+00 -0.32561961210E-01  0.40439258729E+00  0.43853697094E+00  0.10500000000E+00 0.  1.
</event>
<event>
11    0  0.3494755E-009  0.9118800E+02  0.7816531E-02  0.1126479E+00
         25   -1    0    0    0    0  0.00000000000E+00  0.00000000000E+00  0.99999998245E-14  0.12500000000E+03  0.12500000000E+03 0.  0.
    3000001    1    3    3    0    0 -0.10543777991E+02  0.52670978750E+02  0.17637609275E+02  0.56546339561E+02  0.10000000000E+01 0. -1.
    1000022    2    1    0    0    0 -0.89752408978E+01  0.57303924400E+02  0.21022731733E+02  0.62499997916E+02  0.99999894615E+01 0.  0.
    3000022    2    3    3    0    0  0.15685370936E+01  0.46329456492E+01  0.33851224583E+01  0.59536583548E+01  0.24999949122E+00 0.  0.
    1000022    2    1    0    0    0  0.89752408978E+01 -0.57303924400E+02 -0.21022731733E+02  0.62500002084E+02  0.10000015509E+02 0.  0.
    3000022    2    5    5    0    0  0.92236384656E+01 -0.31798124740E+02 -0.91723606858E+01  0.34356817979E+02  0.24999506331E+00 0.  0.
        -13    1    4    4    0    0  0.87357797811E+00  0.27747480221E+01  0.19969526122E+01  0.35300438815E+01  0.10500000000E+00 0. -1.
         13    1    4    4    0    0  0.69495911547E+00  0.18581976271E+01  0.13881698461E+01  0.24236144733E+01  0.10500000000E+00 0.  1.
    3000001    1    5    5    0    0 -0.24839756781E+00 -0.25505799660E+02 -0.11850371047E+02  0.28143184105E+02  0.10000000000E+01 0. -1.
        -13    1    6    6    0    0  0.30807487761E+01 -0.10789245885E+02 -0.30796641109E+01  0.11635901161E+02  0.10500000000E+00 0.  1.
         13    1    6    6    0    0  0.61428896895E+01 -0.21008878855E+02 -0.60926965749E+01  0.22720916818E+02  0.10500000000E+00 0. -1.
</event>
<event>
11    0  0.3494755E-009  0.9118800E+02  0.7816531E-02  0.1126479E+00
         25   -1    0    0    0    0  0.00000000000E+00  0.00000000000E+00  0.99999998245E-14  0.12500000000E+03  0.12500000000E+03 0.  0.
    3000001    1    3    3    0    0  0.21950719808E+02  0.44919753962E+02  0.31841474083E+01  0.50107456440E+02  0.10000000000E+01 0.  1.
    1000022    2    1    0    0    0  0.26253279853E+02  0.55824098495E+02 -0.82781945274E+00  0.62500000993E+02  0.10000008160E+02 0.  0.
    3000022    2    3    3    0    0  0.43025600451E+01  0.10904344533E+02 -0.40119668610E+01  0.12392544553E+02  0.25005954009E+00 0.  0.
    1000022    2    1    0    0    0 -0.26253279853E+02 -0.55824098495E+02  0.82781945274E+00  0.62499999007E+02  0.99999957507E+01 0.  0.
    3000022    2    5    5    0    0 -0.15438822685E+02 -0.42698294465E+02 -0.55198908671E+00  0.45407805266E+02  0.24998204939E+00 0.  0.
        -13    1    4    4    0    0  0.16141765720E+01  0.39338343047E+01 -0.14446135871E+01  0.44920542915E+01  0.10500000000E+00 0. -1.
         13    1    4    4    0    0  0.26883834732E+01  0.69705102280E+01 -0.25673532739E+01  0.79004902614E+01  0.10500000000E+00 0.  1.
    3000001    1    5    5    0    0 -0.10814457168E+02 -0.13125804030E+02  0.13798085395E+01  0.17092193741E+02  0.10000000000E+01 0. -1.
        -13    1    6    6    0    0 -0.76304773515E+01 -0.21273256257E+02 -0.23935569008E+00  0.22601856838E+02  0.10500000000E+00 0.  1.
         13    1    6    6    0    0 -0.78083453339E+01 -0.21425038208E+02 -0.31263339663E+00  0.22805948428E+02  0.10500000000E+00 0. -1.
</event>
<event>
11    0  0.3494755E-009  0.9118800E+02  0.7816531E-02  0.1126479E+00
         25   -1    0    0    0    0  0.00000000000E+00  0.00000000000E+00  0.99999998245E-14  0.12500000000E+03  0.12500000000E+03 0.  0.
    3000001    1    3    3    0    0 -0.30160531211E+02 -0.13300142859E+02  0.24872590912E+02  0.41306140241E+02  0.10000000000E+01 0.  1.
    1000022    2    1    0    0    0 -0.49525678777E+02 -0.17998885142E+02  0.32085779908E+02  0.62500000660E+02  0.10000004271E+02 0.  0.
    3000022    2    3    3    0    0 -0.19365147566E+02 -0.46987422830E+01  0.72131889967E+01  0.21193860418E+02  0.25000922291E+00 0.  0.
    1000022    2    1    0    0    0  0.49525678777E+02  0.17998885142E+02 -0.32085779908E+02  0.62499999340E+02  0.99999960254E+01 0.  0.
    3000022    2    5    5    0    0  0.28677779612E+02  0.67425223524E+01 -0.13682966581E+02  0.32483268319E+02  0.24999012004E+00 0.  0.
        -13    1    4    4    0    0 -0.11299002726E+02 -0.28037945156E+01  0.42377430840E+01  0.12389439767E+02  0.10500000000E+00 0. -1.
         13    1    4    4    0    0 -0.80661448406E+01 -0.18949477674E+01  0.29754459127E+01  0.88044206516E+01  0.10500000000E+00 0.  1.
    3000001    1    5    5    0    0  0.20847899165E+02  0.11256362790E+02 -0.18402813327E+02  0.30016731021E+02  0.10000000000E+01 0. -1.
        -13    1    6    6    0    0  0.21697497710E+02  0.51165998288E+01 -0.10371645280E+02  0.24587457198E+02  0.10500000000E+00 0. -1.
         13    1    6    6    0    0  0.69802819029E+01  0.16259225235E+01 -0.33113213011E+01  0.78958111208E+01  0.10500000000E+00 0.  1.
</event>
<event>
11    0  0.3494755E-009  0.9118800E+02  0.7816531E-02  0.1126479E+00
         25   -1    0    0    0    0  0.00000000000E+00  0.00000000000E+00  0.99999998245E-14  0.12500000000E+03  0.12500000000E+03 0.  0.
    3000001    1    3    3    0    0 -0.50299034870E+01 -0.16846336342E+02 -0.47345908370E+02  0.50514691097E+02  0.10000000000E+01 0.  1.
    1000022    2    1    0    0    0 -0.64941797972E+01 -0.24951776836E+02 -0.56048949652E+02  0.62500002774E+02  0.10000002557E+02 0.  0.
    3000022    2    3    3    0    0 -0.14642763102E+01 -0.81054404937E+01 -0.87030412820E+01  0.11985311677E+02  0.24999545518E+00 0.  0.
    1000022    2    1    0    0    0  0.64941797972E+01  0.24951776836E+02  0.56048949652E+02  0.62499997226E+02  0.99999678814E+01 0.  0.
    3000022    2    5    5    0    0  0.19288839817E+01 -0.17889807868E+00  0.25877936688E+01  0.32421880644E+01  0.25001887035E+00 0.  0.
        -13    1    4    4    0    0 -0.10731044010E+01 -0.59824365815E+01 -0.64663616852E+01  0.88750188141E+01  0.10500000000E+00 0.  1.
         13    1    4    4    0    0 -0.39117190926E+00 -0.21230039122E+01 -0.22366795968E+01  0.31102928628E+01  0.10500000000E+00 0. -1.
    3000001    1    5    5    0    0  0.45652958155E+01  0.25130674915E+02  0.53461155983E+02  0.59257809161E+02  0.10000000000E+01 0.  1.
        -13    1    6    6    0    0  0.14768413786E+01 -0.14521940921E+00  0.19486019967E+01  0.24515757945E+01  0.10500000000E+00 0.  1.
         13    1    6    6    0    0  0.45204260308E+00 -0.33678669466E-01  0.63919167207E+00  0.79061226996E+00  0.10500000000E+00 0. -1.
</event>
<event>
11    0  0.3494755E-009  0.9118800E+02  0.7816531E-02  0.1126479E+00
         25   -1    0    0    0    0  0.00000000000E+00  0.00000000000E+00  0.99999998245E-14  0.12500000000E+03  0.12500000000E+03 0.  0.
    3000001    1    3    3    0    0  0.15085678890E+02  0.39872068302E+01 -0.27497931595E+02  0.31632448022E+02  0.10000000000E+01 0.  1.
    1000022    2    1    0    0    0  0.29973385634E+02 -0.18846608771E+01 -0.53891503416E+02  0.62499999950E+02  0.10000003012E+02 0.  0.
    3000022    2    3    3    0    0  0.14887706744E+02 -0.58718677072E+01 -0.26393571821E+02  0.30867551928E+02  0.24997206042E+00 0.  0.
    1000022    2    1    0    0    0 -0.29973385634E+02  0.18846608771E+01  0.53891503416E+02  0.62500000050E+02  0.10000003640E+02 0.  0.
    3000022    2    5    5    0    0 -0.23785974341E+02  0.28453523407E+01  0.33781596130E+02  0.41414095809E+02  0.24997860511E+00 0.  0.
        -13    1    4    4    0    0  0.66725884272E+01 -0.25849855228E+01 -0.11704496655E+02  0.13719032525E+02  0.10500000000E+00 0. -1.
         13    1    4    4    0    0  0.82151183172E+01 -0.32868821844E+01 -0.14689075167E+02  0.17148519403E+02  0.10500000000E+00 0.  1.
    3000001    1    5    5    0    0 -0.61874112933E+01 -0.96069146364E+00  0.20109907286E+02  0.21085904241E+02  0.10000000000E+01 0. -1.
        -13    1    6    6    0    0 -0.15868915795E+02  0.18481509462E+01  0.22494901347E+02  0.27591117449E+02  0.10500000000E+00 0. -1.
         13    1    6    6    0    0 -0.79170585454E+01  0.99720139450E+00  0.11286694783E+02  0.13822978361E+02  0.10500000000E+00 0.  1.
</event>
<event>
11    0  0.3494755E-009  0.9118800E+02  0.7816531E-02  0.1126479E+00
         25   -1    0    0    0    0  0.00000000000E+00  0.00000000000E+00  0.99999998245E-14  0.12500000000E+03  0.12500000000E+03 0.  0.
    3000001    1    3    3    0    0  0.25976819890E+02  0.16093263902E+02 -0.20578465724E+02  0.36854600339E+02  0.10000000000E+01 0. -1.
    1000022    2    1    0    0    0  0.44960535135E+02  0.31677454853E+02 -0.27952442506E+02  0.62499999301E+02  0.10000000246E+02 0.  0.
    3000022    2    3    3    0    0  0.18983715246E+02  0.15584190951E+02 -0.73739767820E+01  0.25645398962E+02  0.25000439134E+00 0.  0.
    1000022    2    1    0    0    0 -0.44960535135E+02 -0.31677454853E+02  0.27952442506E+02  0.62500000699E+02  0.10000008989E+02 0.  0.
    3000022    2    5    5    0    0 -0.60394429283E+01 -0.23084095115E+01  0.66604607696E+01  0.92858979718E+01  0.25007623093E+00 0.  0.
        -13    1    4    4    0    0  0.87042932407E+01  0.72319995659E+01 -0.34042576435E+01  0.11818059640E+02  0.10500000000E+00 0. -1.
         13    1    4    4    0    0  0.10279422005E+02  0.83521913848E+01 -0.39697191385E+01  0.13827339322E+02  0.10500000000E+00 0.  1.
    3000001    1    5    5    0    0 -0.38921092207E+02 -0.29369045341E+02  0.21291981736E+02  0.53214102728E+02  0.10000000000E+01 0. -1.
        -13    1    6    6    0    0 -0.17572363753E+01 -0.70076395569E+00  0.19013299899E+01  0.26842187934E+01  0.10500000000E+00 0.  1.
         13    1    6    6    0    0 -0.42822065530E+01 -0.16076455558E+01  0.47591307797E+01  0.66016791784E+01  0.10500000000E+00 0. -1.
</event>
<event>
11    0  0.3494755E-009  0.9118800E+02  0.7816531E-02  0.1126479E+00
         25   -1    0    0    0    0  0.00000000000E+00  0.00000000000E+00  0.99999998245E-14  0.12500000000E+03  0.12500000000E+03 0.  0.
    3000001    1    3    3    0    0  0.14410966847E+02  0.23816553825E+02  0.13084395529E+01  0.27885770845E+02  0.10000000000E+01 0. -1.
    1000022    2    1    0    0    0  0.24608198861E+02  0.56407919959E+02 -0.43397213273E+01  0.62500000719E+02  0.10000001173E+02 0.  0.
    3000022    2    3    3    0    0  0.10197232015E+02  0.32591366134E+02 -0.56481608801E+01  0.34614229875E+02  0.25000248710E+00 0.  0.
    1000022    2    1    0    0    0 -0.24608198861E+02 -0.56407919959E+02  0.43397213273E+01  0.62499999281E+02  0.99999921795E+01 0.  0.
    3000022    2    5    5    0    0 -0.20235845841E+02 -0.50143096248E+02  0.65904838122E+01  0.54473080891E+02  0.25001336624E+00 0.  0.
        -13    1    4    4    0    0  0.52000384957E+01  0.16584326281E+02 -0.28067854328E+01  0.17605946382E+02  0.10500000000E+00 0.  1.
         13    1    4    4    0    0  0.49971935189E+01  0.16007039853E+02 -0.28413754474E+01  0.17008283492E+02  0.10500000000E+00 0. -1.
    3000001    1    5    5    0    0 -0.43723530205E+01 -0.62648237108E+01 -0.22507624849E+01  0.80269183892E+01  0.10000000000E+01 0.  1.
        -13    1    6    6    0    0 -0.83492331012E+01 -0.20676803151E+02  0.27823766933E+01  0.22472038781E+02  0.10500000000E+00 0.  1.
         13    1    6    6    0    0 -0.11886612739E+02 -0.29466293097E+02  0.38081071189E+01  0.32001042110E+02  0.10500000000E+00 0. -1.
</event>
<event>
11    0  0.3494755E-009  0.9118800E+02  0.7816531E-02  0.1126479E+00
         25   -1    0    0    0    0  0.00000000000E+00  0.00000000000E+00  0.99999998245E-14  0.12500000000E+03  0.12500000000E+03 0.  0.
    3000001    1    3    3    0    0 -0.12407966339E+02 -0.15337042702E+02 -0.22927091348E+02  0.30262749796E+02  0.10000000000E+01 0. -1.
    1000022    2    1    0    0    0 -0.27295479023E+02 -0.38388085697E+02 -0.39844215258E+02  0.62499998418E+02  0.10000000705E+02 0.  0.
    3000022    2    3    3    0    0 -0.14887512683E+02 -0.23051042995E+02 -0.16917123910E+02  0.32237248621E+02  0.25000051970E+00 0.  0.
    1000022    2    1    0    0    0  0.27295479023E+02  0.38388085697E+02  0.39844215258E+02  0.62500001582E+02  0.10000020486E+02 0.  0.
    3000022    2    5    5    0    0  0.27664947857E+02  0.37086729459E+02  0.37213787989E+02  0.59377633427E+02  0.24998613603E+00 0.  0.
        -13    1    4    4    0    0 -0.10670774091E+02 -0.16472633338E+02 -0.12136491102E+02  0.23076362582E+02  0.10500000000E+00 0.  1.
         13    1    4    4    0    0 -0.42167385925E+01 -0.65784096571E+01 -0.47806328082E+01  0.91608860390E+01  0.10500000000E+00 0. -1.
    3000001    1    5    5    0    0 -0.36946883435E+00  0.13013562383E+01  0.26304272688E+01  0.31223681550E+01  0.10000000000E+01 0.  1.
        -13    1    6    6    0    0  0.19822399979E+02  0.26550448356E+02  0.26599769232E+02  0.42490147058E+02  0.10500000000E+00 0.  1.
         13    1    6    6    0    0  0.78425478774E+01  0.10536281103E+02  0.10614018757E+02  0.16887486369E+02  0.10500000000E+00 0. -1.
</event>
<event>
11    0  0.3494755E-009  0.9118800E+02  0.7816531E-02  0.1126479E+00
         25   -1    0    0    0    0  0.00000000000E+00  0.00000000000E+00  0.99999998245E-14  0.12500000000E+03  0.12500000000E+03 0.  0.
    3000001    1    3    3    0    0 -0.80512004978E+00 -0.44340544006E+00 -0.47023288939E+00  0.14373397821E+01  0.10000000000E+01 0. -1.
    1000022    2    1    0    0    0 -0.58792263620E+02  0.18688693478E+02 -0.67371666020E+00  0.62500012140E+02  0.10000004895E+02 0.  0.
    3000022    2    3    3    0    0 -0.57987143570E+02  0.19132098918E+02 -0.20348377081E+00  0.61062672358E+02  0.25004282797E+00 0.  0.
    1000022    2    1    0    0    0  0.58792263620E+02 -0.18688693478E+02  0.67371666020E+00  0.62499987860E+02  0.99998531447E+01 0.  0.
    3000022    2    5    5    0    0  0.57804758380E+01 -0.24591169509E+01  0.30749623100E+01  0.69985033868E+01  0.24999870971E+00 0.  0.
        -13    1    4    4    0    0 -0.43978476241E+02  0.14504104987E+02 -0.13435335304E+00  0.46308795166E+02  0.10500000000E+00 0.  1.
         13    1    4    4    0    0 -0.14008667330E+02  0.46279939308E+01 -0.69130417769E-01  0.14753877192E+02  0.10500000000E+00 0.  1.
    3000001    1    5    5    0    0  0.53011787782E+02 -0.16229576527E+02 -0.24012456498E+01  0.55501484473E+02  0.10000000000E+01 0.  1.
        -13    1    6    6    0    0  0.39318327449E+01 -0.16220188428E+01  0.20568222264E+01  0.47256530270E+01  0.10500000000E+00 0. -1.
         13    1    6    6    0    0  0.18486430931E+01 -0.83709810805E+00  0.10181400835E+01  0.22728503598E+01  0.10500000000E+00 0.  1.
</event>
<event>
11    0  0.3494755E-009  0.9118800E+02  0.7816531E-02  0.1126479E+00
         25   -1    0    0    0    0  0.00000000000E+00  0.00000000000E+00  0.99999998245E-14  0.12500000000E+03  0.12500000000E+03 0.  0.
    3000001    1    3    3    0    0 -0.30698631024E+02  0.48451573319E-01  0.25724914310E+01  0.30822491893E+02  0.10000000000E+01 0. -1.
    1000022    2    1    0    0    0 -0.61422377651E+02  0.43429306194E+01 -0.38314922170E+01  0.62500002095E+02  0.10000020329E+02 0.  0.
    3000022    2    3    3    0    0 -0.30723746627E+02  0.42944790461E+01 -0.64039836480E+01  0.31677510202E+02  0.24997795629E+00 0.  0.
    1000022    2    1    0    0    0  0.61422377651E+02 -0.43429306194E+01  0.38314922170E+01  0.62499997905E+02  0.99999941383E+01 0.  0.
    3000022    2    5    5    0    0  0.52179609193E+02 -0.30493961431E+00  0.42636992028E+01  0.52355001946E+02  0.24998824476E+00 0.  0.
        -13    1    4    4    0    0 -0.14991580676E+02  0.20356361649E+01 -0.30896257159E+01  0.15441765373E+02  0.10500000000E+00 0. -1.
         13    1    4    4    0    0 -0.15732165951E+02  0.22588428812E+01 -0.33143579320E+01  0.16235744830E+02  0.10500000000E+00 0.  1.
    3000001    1    5    5    0    0  0.92427684581E+01 -0.40379910051E+01 -0.43220698581E+00  0.10144995959E+02  0.10000000000E+01 0. -1.
        -13    1    6    6    0    0  0.21397150087E+02 -0.16664975463E+00  0.16996665410E+01  0.21465453532E+02  0.10500000000E+00 0.  1.
         13    1    6    6    0    0  0.30782459106E+02 -0.13828985968E+00  0.25640326618E+01  0.30889548413E+02  0.10500000000E+00 0. -1.
</event>
<event>
11    0  0.3494755E-009  0.9118800E+02  0.7816531E-02  0.1126479E+00
         25   -1    0    0    0    0  0.00000000000E+00  0.00000000000E+00  0.99999998245E-14  0.12500000000E+03  0.12500000000E+03 0.  0.
    3000001    1    3    3    0    0 -0.35432207594E+01 -0.13478433184E+01 -0.31904888656E+01  0.50547318586E+01  0.10000000000E+01 0.  1.
    1000022    2    1    0    0    0 -0.50098020497E+02  0.13635047356E+02 -0.33324523214E+02  0.62500000788E+02  0.10000003849E+02 0.  0.
    3000022    2    3    3    0    0 -0.46554799737E+02  0.14982890674E+02 -0.30134034348E+02  0.57445268929E+02  0.25000947454E+00 0.  0.
    1000022    2    1    0    0    0  0.50098020497E+02 -0.13635047356E+02  0.33324523214E+02  0.62499999212E+02  0.99999940010E+01 0.  0.
    3000022    2    5    5    0    0  0.97721399787E+01 -0.50137511468E+01  0.32682771118E+01  0.11461961264E+02  0.25000082048E+00 0.  0.
        -13    1    4    4    0    0 -0.16517161463E+02  0.53157993327E+01 -0.10624059741E+02  0.20345909066E+02  0.10500000000E+00 0. -1.
         13    1    4    4    0    0 -0.30037638274E+02  0.96670913417E+01 -0.19509974607E+02  0.37099359863E+02  0.10500000000E+00 0.  1.
    3000001    1    5    5    0    0  0.40325880518E+02 -0.86212962092E+01  0.30056246102E+02  0.51038037948E+02  0.10000000000E+01 0. -1.
        -13    1    6    6    0    0  0.54822959224E+01 -0.27400384420E+01  0.18383752266E+01  0.63995333985E+01  0.10500000000E+00 0.  1.
         13    1    6    6    0    0  0.42898440563E+01 -0.22737127047E+01  0.14299018853E+01  0.50624278654E+01  0.10500000000E+00 0. -1.
</event>
<event>
11    0  0.3494755E-009  0.9118800E+02  0.7816531E-02  0.1126479E+00
         25   -1    0    0    0    0  0.00000000000E+00  0.00000000000E+00  0.99999998245E-14  0.12500000000E+03  0.12500000000E+03 0.  0.
    3000001    1    3    3    0    0  0.49432160039E+01  0.27926363235E+02  0.34788344587E+02  0.44894833412E+02  0.10000000000E+01 0.  1.
    1000022    2    1    0    0    0  0.56155046950E+01  0.42959255976E+02  0.43922869016E+02  0.62499999716E+02  0.99999987462E+01 0.  0.
    3000022    2    3    3    0    0  0.67228869103E+00  0.15032892741E+02  0.91345244286E+01  0.17605166304E+02  0.25001559675E+00 0.  0.
    1000022    2    1    0    0    0 -0.56155046950E+01 -0.42959255976E+02 -0.43922869016E+02  0.62500000284E+02  0.10000002299E+02 0.  0.
    3000022    2    5    5    0    0  0.17111706752E+01 -0.21818740593E+02 -0.24521271219E+02  0.32868537956E+02  0.24999807223E+00 0.  0.
        -13    1    4    4    0    0  0.28558502663E+00  0.78944146931E+01  0.47896804976E+01  0.92387989708E+01  0.10500000000E+00 0.  1.
         13    1    4    4    0    0  0.38670366439E+00  0.71384780478E+01  0.43448439310E+01  0.83663673328E+01  0.10500000000E+00 0. -1.
    3000001    1    5    5    0    0 -0.73266753702E+01 -0.21140515383E+02 -0.19401597797E+02  0.29631462328E+02  0.10000000000E+01 0.  1.
        -13    1    6    6    0    0  0.10666707661E+01 -0.13099459119E+02 -0.14799167885E+02  0.19792928304E+02  0.10500000000E+00 0.  1.
         13    1    6    6    0    0  0.64449990912E+00 -0.87192814737E+01 -0.97221033338E+01  0.13075609653E+02  0.10500000000E+00 0. -1.
</event>
<event>
11    0  0.3494755E-009  0.9118800E+02  0.7816531E-02  0.1126479E+00
         25   -1    0    0    0    0  0.00000000000E+00  0.00000000000E+00  0.99999998245E-14  0.12500000000E+03  0.12500000000E+03 0.  0.
    3000001    1    3    3    0    0 -0.21048914630E+01  0.15557512623E+02 -0.42292306983E+02  0.45123231235E+02  0.10000000000E+01 0. -1.
    1000022    2    1    0    0    0 -0.10094356557E+01  0.15791102124E+02 -0.59631134838E+02  0.62499998533E+02  0.99999854008E+01 0.  0.
    3000022    2    3    3    0    0  0.10954558073E+01  0.23358950062E+00 -0.17338827854E+02  0.17376767299E+02  0.25000581734E+00 0.  0.
    1000022    2    1    0    0    0  0.10094356557E+01 -0.15791102124E+02  0.59631134838E+02  0.62500001467E+02  0.10000003734E+02 0.  0.
    3000022    2    5    5    0    0  0.30504422243E+01 -0.42272559069E+01  0.32549176355E+02  0.32964925330E+02  0.25006070579E+00 0.  0.
        -13    1    4    4    0    0  0.49090821916E+00  0.37255464232E-01 -0.76407352143E+01  0.76572996849E+01  0.10500000000E+00 0. -1.
         13    1    4    4    0    0  0.60454758810E+00  0.19633403639E+00 -0.96980926401E+01  0.97194676139E+01  0.10500000000E+00 0.  1.
    3000001    1    5    5    0    0 -0.20410065686E+01 -0.11563846217E+02  0.27081958482E+02  0.29535076136E+02  0.10000000000E+01 0.  1.
        -13    1    6    6    0    0  0.22430102845E+01 -0.31596904735E+01  0.24154147748E+02  0.24463209468E+02  0.10500000000E+00 0. -1.
         13    1    6    6    0    0  0.80743193983E+00 -0.10675654334E+01  0.83950286075E+01  0.85017158628E+01  0.10500000000E+00 0.  1.
</event>
<event>
11    0  0.3494755E-009  0.9118800E+02  0.7816531E-02  0.1126479E+00
         25   -1    0    0    0    0  0.00000000000E+00  0.00000000000E+00  0.99999998245E-14  0.12500000000E+03  0.12500000000E+03 0.  0.
    3000001    1    3    3    0    0  0.69699285250E+01  0.10224771699E+02 -0.45693720851E+01  0.13228946338E+02  0.10000000000E+01 0. -1.
    1000022    2    1    0    0    0  0.37911625688E+02  0.48550868111E+02 -0.34310468570E+01  0.62499998400E+02  0.99999780418E+01 0.  0.
    3000022    2    3    3    0    0  0.30941697163E+02  0.38326096412E+02  0.11383252281E+01  0.49271052063E+02  0.24999509813E+00 0.  0.
    1000022    2    1    0    0    0 -0.37911625688E+02 -0.48550868111E+02  0.34310468570E+01  0.62500001600E+02  0.99999980371E+01 0.  0.
    3000022    2    5    5    0    0 -0.16369551197E+02 -0.14195195826E+02  0.34197811091E+01  0.21936800068E+02  0.25000694451E+00 0.  0.
        -13    1    4    4    0    0  0.12145377946E+02  0.15007428007E+02  0.50400836106E+00  0.19313160028E+02  0.10500000000E+00 0. -1.
         13    1    4    4    0    0  0.18796319218E+02  0.23318668404E+02  0.63431686705E+00  0.29957892035E+02  0.10500000000E+00 0.  1.
    3000001    1    5    5    0    0 -0.21542074491E+02 -0.34355672285E+02  0.11265747930E-01  0.40563201531E+02  0.10000000000E+01 0. -1.
        -13    1    6    6    0    0 -0.41089484295E+01 -0.35287918851E+01  0.85045121682E+00  0.54836230393E+01  0.10500000000E+00 0.  1.
         13    1    6    6    0    0 -0.12260602768E+02 -0.10666403941E+02  0.25693298923E+01  0.16453177029E+02  0.10500000000E+00 0. -1.
</event>
<event>
11    0  0.3494755E-009  0.9118800E+02  0.7816531E-02  0.1126479E+00
         25   -1    0    0    0    0  0.00000000000E+00  0.00000000000E+00  0.99999998245E-14  0.12500000000E+03  0.12500000000E+03 0.  0.
    3000001    1    3    3    0    0 -0.83941622728E+01  0.69075840921E+01 -0.98548644931E+01  0.14706972239E+02  0.10000000000E+01 0.  1.
    1000022    2    1    0    0    0 -0.25329540599E+02  0.42653860162E+02 -0.36678505253E+02  0.62499999918E+02  0.99999914231E+01 0.  0.
    3000022    2    3    3    0    0 -0.16935378326E+02  0.35746276070E+02 -0.26823640760E+02  0.47793027680E+02  0.24999842352E+00 0.  0.
    1000022    2    1    0    0    0  0.25329540599E+02 -0.42653860162E+02  0.36678505253E+02  0.62500000082E+02  0.99999924453E+01 0.  0.
    3000022    2    5    5    0    0  0.42268865388E+01 -0.16185060109E+02  0.12706999609E+02  0.21008404939E+02  0.24999694049E+00 0.  0.
        -13    1    4    4    0    0 -0.41980654500E+01  0.88061787869E+01 -0.66231324883E+01  0.11791922969E+02  0.10500000000E+00 0. -1.
         13    1    4    4    0    0 -0.12737312876E+02  0.26940097283E+02 -0.20200508272E+02  0.36001104711E+02  0.10500000000E+00 0.  1.
    3000001    1    5    5    0    0  0.21102654060E+02 -0.26468800053E+02  0.23971505644E+02  0.41491595143E+02  0.10000000000E+01 0. -1.
        -13    1    6    6    0    0  0.27423294145E+01 -0.10294707657E+02  0.80586155560E+01  0.13358655847E+02  0.10500000000E+00 0.  1.
         13    1    6    6    0    0  0.14845571243E+01 -0.58903524516E+01  0.46483840532E+01  0.76497490917E+01  0.10500000000E+00 0. -1.
</event>
<event>
11    0  0.3494755E-009  0.9118800E+02  0.7816531E-02  0.1126479E+00
         25   -1    0    0    0    0  0.00000000000E+00  0.00000000000E+00  0.99999998245E-14  0.12500000000E+03  0.12500000000E+03 0.  0.
    3000001    1    3    3    0    0 -0.16182043237E+02 -0.18181696322E+02  0.26868024881E+01  0.24508192754E+02  0.10000000000E+01 0.  1.
    1000022    2    1    0    0    0 -0.32167679178E+02 -0.50800793494E+02  0.13811945708E+02  0.62500000245E+02  0.99999991545E+01 0.  0.
    3000022    2    3    3    0    0 -0.15985635941E+02 -0.32619097172E+02  0.11125143220E+02  0.37991807491E+02  0.25013597575E+00 0.  0.
    1000022    2    1    0    0    0  0.32167679178E+02  0.50800793494E+02 -0.13811945708E+02  0.62499999755E+02  0.99999960899E+01 0.  0.
    3000022    2    5    5    0    0  0.18728946033E+02  0.36689422574E+02 -0.67185287529E+01  0.41738330702E+02  0.24994563203E+00 0.  0.
        -13    1    4    4    0    0 -0.57568614197E+01 -0.11867670185E+02  0.40135566214E+01  0.13787773960E+02  0.10500000000E+00 0.  1.
         13    1    4    4    0    0 -0.10228774521E+02 -0.20751426987E+02  0.71115865988E+01  0.24204033531E+02  0.10500000000E+00 0. -1.
    3000001    1    5    5    0    0  0.13438733144E+02  0.14111370920E+02 -0.70934169555E+01  0.20761669053E+02  0.10000000000E+01 0. -1.
        -13    1    6    6    0    0  0.11462067347E+02  0.22479231335E+02 -0.40540151904E+01  0.25556621323E+02  0.10500000000E+00 0.  1.
         13    1    6    6    0    0  0.72668786860E+01  0.14210191240E+02 -0.26645135625E+01  0.16181709379E+02  0.10500000000E+00 0. -1.
</event>
<event>
11    0  0.3494755E-009  0.9118800E+02  0.7816531E-02  0.1126479E+00
         25   -1    0    0    0    0  0.00000000000E+00  0.00000000000E+00  0.99999998245E-14  0.12500000000E+03  0.12500000000E+03 0.  0.
    3000001    1    3    3    0    0  0.51831028582E+02 -0.24465991827E+02 -0.22765393814E+02  0.61679035624E+02  0.10000000000E+01 0.  1.
    1000022    2    1    0    0    0  0.52234941470E+02 -0.23819206161E+02 -0.22592175023E+02  0.62500000568E+02  0.10000000313E+02 0.  0.
    3000022    2    3    3    0    0  0.40391288817E+00  0.64678566597E+00  0.17321879173E+00  0.82096494460E+00  0.25000274300E+00 0.  0.
    1000022    2    1    0    0    0 -0.52234941470E+02  0.23819206161E+02  0.22592175023E+02  0.62499999432E+02  0.99999932079E+01 0.  0.
    3000022    2    5    5    0    0 -0.25969066833E+02  0.97439745895E+01  0.60055939415E+01  0.28380752866E+02  0.25000333244E+00 0.  0.
        -13    1    4    4    0    0  0.14518585892E+00  0.15585684485E+00  0.60198555563E-01  0.24498807279E+00  0.10500000000E+00 0. -1.
         13    1    4    4    0    0  0.25872702925E+00  0.49092882112E+00  0.11302023617E+00  0.57597687181E+00  0.10500000000E+00 0.  1.
    3000001    1    5    5    0    0 -0.26265874637E+02  0.14075231572E+02  0.16586581081E+02  0.34119246566E+02  0.10000000000E+01 0. -1.
        -13    1    6    6    0    0 -0.12151100686E+02  0.46235198647E+01  0.28460076875E+01  0.13309281294E+02  0.10500000000E+00 0. -1.
         13    1    6    6    0    0 -0.13817966147E+02  0.51204547248E+01  0.31595862540E+01  0.15071471572E+02  0.10500000000E+00 0.  1.
</event>
<event>
11    0  0.3494755E-009  0.9118800E+02  0.7816531E-02  0.1126479E+00
         25   -1    0    0    0    0  0.00000000000E+00  0.00000000000E+00  0.99999998245E-14  0.12500000000E+03  0.12500000000E+03 0.  0.
    3000001    1    3    3    0    0 -0.88021732448E+01  0.17064325819E+02 -0.42936609860E+02  0.47044892770E+02  0.10000000000E+01 0.  1.
    1000022    2    1    0    0    0 -0.15878810266E+02  0.18851420193E+02 -0.56557379295E+02  0.62500000488E+02  0.10000012478E+02 0.  0.
    3000022    2    3    3    0    0 -0.70766370212E+01  0.17870943737E+01 -0.13620769435E+02  0.15455107718E+02  0.24999348633E+00 0.  0.
    1000022    2    1    0    0    0  0.15878810266E+02 -0.18851420193E+02  0.56557379295E+02  0.62499999512E+02  0.10000006376E+02 0.  0.
    3000022    2    5    5    0    0  0.51231748350E+00 -0.18284873361E+01  0.14146864061E+02  0.14275927246E+02  0.25000166510E+00 0.  0.
        -13    1    4    4    0    0 -0.23009789547E+01  0.54431850793E+00 -0.43358259050E+01  0.49397568833E+01  0.10500000000E+00 0.  1.
         13    1    4    4    0    0 -0.47756580665E+01  0.12427758658E+01 -0.92849435298E+01  0.10515350834E+02  0.10500000000E+00 0. -1.
    3000001    1    5    5    0    0  0.15366492782E+02 -0.17022932857E+02  0.42410515234E+02  0.48224072265E+02  0.10000000000E+01 0.  1.
        -13    1    6    6    0    0  0.27287208780E+00 -0.11664951168E+01  0.86669867209E+01  0.87500202202E+01  0.10500000000E+00 0. -1.
         13    1    6    6    0    0  0.23944539570E+00 -0.66199221930E+00  0.54798773405E+01  0.55259070263E+01  0.10500000000E+00 0.  1.
</event>
<event>
11    0  0.3494755E-009  0.9118800E+02  0.7816531E-02  0.1126479E+00
         25   -1    0    0    0    0  0.00000000000E+00  0.00000000000E+00  0.99999998245E-14  0.12500000000E+03  0.12500000000E+03 0.  0.
    3000001    1    3    3    0    0 -0.99363684663E+01  0.65929230903E+01  0.16496972708E+02  0.20380092289E+02  0.10000000000E+01 0.  1.
    1000022    2    1    0    0    0 -0.19876716190E+02  0.13265150767E+02  0.56878836750E+02  0.62499999426E+02  0.99999893446E+01 0.  0.
    3000022    2    3    3    0    0 -0.99403477233E+01  0.66722276767E+01  0.40381864042E+02  0.42119907137E+02  0.24999745793E+00 0.  0.
    1000022    2    1    0    0    0  0.19876716190E+02 -0.13265150767E+02 -0.56878836750E+02  0.62500000574E+02  0.99999965194E+01 0.  0.
    3000022    2    5    5    0    0  0.14772576975E+02 -0.54104715409E+01 -0.42409170189E+02  0.45233863970E+02  0.25000141251E+00 0.  0.
        -13    1    4    4    0    0 -0.33043737332E+01  0.22803657841E+01  0.13491414604E+02  0.14076514018E+02  0.10500000000E+00 0. -1.
         13    1    4    4    0    0 -0.66359739901E+01  0.43918618927E+01  0.26890449438E+02  0.28043393119E+02  0.10500000000E+00 0.  1.
    3000001    1    5    5    0    0  0.51041392142E+01 -0.78546792261E+01 -0.14469666561E+02  0.17266136604E+02  0.10000000000E+01 0.  1.
        -13    1    6    6    0    0  0.40406444853E+01 -0.14946742246E+01 -0.11716095507E+02  0.12483540276E+02  0.10500000000E+00 0.  1.
         13    1    6    6    0    0  0.10731932490E+02 -0.39157973163E+01 -0.30693074682E+02  0.32750323693E+02  0.10500000000E+00 0. -1.
</event>
<event>
11    0  0.3494755E-009  0.9118800E+02  0.7816531E-02  0.1126479E+00
         25   -1    0    0    0    0  0.00000000000E+00  0.00000000000E+00  0.99999998245E-14  0.12500000000E+03  0.12500000000E+03 0.  0.
    3000001    1    3    3    0    0 -0.60311446765E+01  0.13518608123E+01  0.25895576664E+02  0.26641755282E+02  0.10000000000E+01 0. -1.
    1000022    2    1    0    0    0 -0.39346616899E+01  0.83581555103E+01  0.60999253954E+02  0.62500004900E+02  0.10000065170E+02 0.  0.
    3000022    2    3    3    0    0  0.20964829865E+01  0.70062946980E+01  0.35103677291E+02  0.35858249618E+02  0.25000009668E+00 0.  0.
    1000022    2    1    0    0    0  0.39346616899E+01 -0.83581555103E+01 -0.60999253954E+02  0.62499995100E+02  0.10000003917E+02 0.  0.
    3000022    2    5    5    0    0  0.51354055423E+01 -0.96182947642E+01 -0.41922894685E+02  0.43318305401E+02  0.24999953864E+00 0.  0.
        -13    1    4    4    0    0  0.12957136194E+01  0.41401579247E+01  0.20979735940E+02  0.21423821474E+02  0.10500000000E+00 0. -1.
         13    1    4    4    0    0  0.80076936713E+00  0.28661367733E+01  0.14123941351E+02  0.14434428145E+02  0.10500000000E+00 0.  1.
    3000001    1    5    5    0    0 -0.12007438523E+01  0.12601392539E+01 -0.19076359269E+02  0.19181689699E+02  0.10000000000E+01 0. -1.
        -13    1    6    6    0    0  0.27515377039E+01 -0.52347982942E+01 -0.22955410995E+02  0.23705189134E+02  0.10500000000E+00 0.  1.
         13    1    6    6    0    0  0.23838678383E+01 -0.43834964700E+01 -0.18967483690E+02  0.19613116267E+02  0.10500000000E+00 0. -1.
</event>
<event>
11    0  0.3494755E-009  0.9118800E+02  0.7816531E-02  0.1126479E+00
         25   -1    0    0    0    0  0.00000000000E+00  0.00000000000E+00  0.99999998245E-14  0.12500000000E+03  0.12500000000E+03 0.  0.
    3000001    1    3    3    0    0 -0.33114476346E+00  0.52480967105E+01  0.11143342582E+02  0.12362291852E+02  0.10000000000E+01 0.  1.
    1000022    2    1    0    0    0  0.15336247182E+02  0.33495792031E+02  0.49488195350E+02  0.62499999167E+02  0.99999927737E+01 0.  0.
    3000022    2    3    3    0    0  0.15667391945E+02  0.28247695321E+02  0.38344852768E+02  0.50137707315E+02  0.24999942472E+00 0.  0.
    1000022    2    1    0    0    0 -0.15336247182E+02 -0.33495792031E+02 -0.49488195350E+02  0.62500000833E+02  0.10000003182E+02 0.  0.
    3000022    2    5    5    0    0 -0.15085069100E+02 -0.30236037789E+02 -0.48159916234E+02  0.58832111309E+02  0.24999692865E+00 0.  0.
        -13    1    4    4    0    0  0.70196312028E+01  0.12598681466E+02  0.17214259418E+02  0.22457598919E+02  0.10500000000E+00 0.  1.
         13    1    4    4    0    0  0.86477607424E+01  0.15649013855E+02  0.21130593351E+02  0.27680108396E+02  0.10500000000E+00 0. -1.
    3000001    1    5    5    0    0 -0.25117808127E+00 -0.32597542424E+01 -0.13282791167E+01  0.36678895241E+01  0.10000000000E+01 0.  1.
        -13    1    6    6    0    0 -0.68360899481E+01 -0.13703170761E+02 -0.21942461056E+02  0.26758020048E+02  0.10500000000E+00 0. -1.
         13    1    6    6    0    0 -0.82489791523E+01 -0.16532867028E+02 -0.26217455177E+02  0.32074091261E+02  0.10500000000E+00 0.  1.
</event>
<event>
11    0  0.3494755E-009  0.9118800E+02  0.7816531E-02  0.1126479E+00
         25   -1    0    0    0    0  0.00000000000E+00  0.00000000000E+00  0.99999998245E-14  0.12500000000E+03  0.12500000000E+03 0.  0.
    3000001    1    3    3    0    0 -0.29559885819E+02  0.51741368723E+01  0.71786981028E+01  0.30872192155E+02  0.10000000000E+01 0. -1.
    1000022    2    1    0    0    0 -0.55812240304E+02  0.11506480251E+02  0.23639897711E+02  0.62500000858E+02  0.10000004397E+02 0.  0.
    3000022    2    3    3    0    0 -0.26252354486E+02  0.63323433791E+01  0.16461199608E+02  0.31627808704E+02  0.25000427893E+00 0.  0.
    1000022    2    1    0    0    0  0.55812240304E+02 -0.11506480251E+02 -0.23639897711E+02  0.62499999142E+02  0.99999936680E+01 0.  0.
    3000022    2    5    5    0    0  0.14872177184E+02 -0.76411795413E+01 -0.67436225875E+01  0.18030757739E+02  0.25000013359E+00 0.  0.
        -13    1    4    4    0    0 -0.15176984011E+02  0.36413026997E+01  0.94408695787E+01  0.18241188898E+02  0.10500000000E+00 0. -1.
         13    1    4    4    0    0 -0.11075370475E+02  0.26910406794E+01  0.70203300292E+01  0.13386619805E+02  0.10500000000E+00 0.  1.
    3000001    1    5    5    0    0  0.40940063121E+02 -0.38653007101E+01 -0.16896275123E+02  0.44469241403E+02  0.10000000000E+01 0.  1.
        -13    1    6    6    0    0  0.11346468568E+02 -0.58479500203E+01 -0.51485478012E+01  0.13764426536E+02  0.10500000000E+00 0.  1.
         13    1    6    6    0    0  0.35257086158E+01 -0.17932295210E+01 -0.15950747863E+01  0.42663312029E+01  0.10500000000E+00 0. -1.
</event>
<event>
11    0  0.3494755E-009  0.9118800E+02  0.7816531E-02  0.1126479E+00
         25   -1    0    0    0    0  0.00000000000E+00  0.00000000000E+00  0.99999998245E-14  0.12500000000E+03  0.12500000000E+03 0.  0.
    3000001    1    3    3    0    0 -0.10648940341E+01  0.10576136053E+02 -0.19382653559E+02  0.22128622011E+02  0.10000000000E+01 0.  1.
    1000022    2    1    0    0    0 -0.11220723973E+02  0.37562660922E+02 -0.47638133679E+02  0.62499999203E+02  0.99999989000E+01 0.  0.
    3000022    2    3    3    0    0 -0.10155829939E+02  0.26986524868E+02 -0.28255480120E+02  0.40371377192E+02  0.25006671148E+00 0.  0.
    1000022    2    1    0    0    0  0.11220723973E+02 -0.37562660922E+02  0.47638133679E+02  0.62500000797E+02  0.10000008857E+02 0.  0.
    3000022    2    5    5    0    0 -0.67186770557E+00 -0.11812992464E+02  0.17253173385E+02  0.20922062240E+02  0.24999874094E+00 0.  0.
        -13    1    4    4    0    0 -0.44006699846E+01  0.11559394624E+02 -0.12184019358E+02  0.17362224889E+02  0.10500000000E+00 0. -1.
         13    1    4    4    0    0 -0.57551599541E+01  0.15427130244E+02 -0.16071460762E+02  0.23009152303E+02  0.10500000000E+00 0.  1.
    3000001    1    5    5    0    0  0.11892591678E+02 -0.25749668457E+02  0.30384960295E+02  0.41577938556E+02  0.10000000000E+01 0.  1.
        -13    1    6    6    0    0 -0.41129564929E+00 -0.78444415261E+01  0.11379736905E+02  0.13828010124E+02  0.10500000000E+00 0. -1.
         13    1    6    6    0    0 -0.26057205627E+00 -0.39685509382E+01  0.58734364792E+01  0.70940521157E+01  0.10500000000E+00 0.  1.
</event>
<event>
11    0  0.3494755E-009  0.9118800E+02  0.7816531E-02  0.1126479E+00
         25   -1    0    0    0    0  0.00000000000E+00  0.00000000000E+00  0.99999998245E-14  0.12500000000E+03  0.12500000000E+03 0.  0.
    3000001    1    3    3    0    0 -0.30406046445E+02  0.12160963641E+02  0.10210465923E+02  0.34317201393E+02  0.10000000000E+01 0.  1.
    1000022    2    1    0    0    0 -0.50307600617E+02  0.29337727649E+02  0.20364014940E+02  0.62500000059E+02  0.99999979727E+01 0.  0.
    3000022    2    3    3    0    0 -0.19901554172E+02  0.17176764009E+02  0.10153549017E+02  0.28182798666E+02  0.25000549274E+00 0.  0.
    1000022    2    1    0    0    0  0.50307600617E+02 -0.29337727649E+02 -0.20364014940E+02  0.62499999941E+02  0.99999972360E+01 0.  0.
    3000022    2    5    5    0    0  0.84969760973E+01 -0.62994498730E+01 -0.77458138641E+01  0.13112657798E+02  0.24998119847E+00 0.  0.
        -13    1    4    4    0    0 -0.13558876371E+02  0.11755194351E+02  0.68981270892E+01  0.19225579446E+02  0.10500000000E+00 0.  1.
         13    1    4    4    0    0 -0.63426778006E+01  0.54215696576E+01  0.32554219283E+01  0.89572192206E+01  0.10500000000E+00 0. -1.
    3000001    1    5    5    0    0  0.41810624519E+02 -0.23038277776E+02 -0.12618201076E+02  0.49387342143E+02  0.10000000000E+01 0. -1.
        -13    1    6    6    0    0  0.35873845277E+01 -0.27408503661E+01 -0.33079638584E+01  0.55977887033E+01  0.10500000000E+00 0. -1.
         13    1    6    6    0    0  0.49095915696E+01 -0.35585995069E+01 -0.44378500058E+01  0.75148690943E+01  0.10500000000E+00 0.  1.
</event>
<event>
11    0  0.3494755E-009  0.9118800E+02  0.7816531E-02  0.1126479E+00
         25   -1    0    0    0    0  0.00000000000E+00  0.00000000000E+00  0.99999998245E-14  0.12500000000E+03  0.12500000000E+03 0.  0.
    3000001    1    3    3    0    0  0.18767069019E+01  0.10573471583E+02  0.76219360876E+00  0.10812089031E+02  0.10000000000E+01 0.  1.
    1000022    2    1    0    0    0  0.27020850474E+02  0.54906288967E+02 -0.78372822817E+01  0.62500000097E+02  0.10000004506E+02 0.  0.
    3000022    2    3    3    0    0  0.25144143572E+02  0.44332817384E+02 -0.85994758905E+01  0.51687911066E+02  0.25002328408E+00 0.  0.
    1000022    2    1    0    0    0 -0.27020850474E+02 -0.54906288967E+02  0.78372822817E+01  0.62499999903E+02  0.10000003291E+02 0.  0.
    3000022    2    5    5    0    0 -0.24487688140E+02 -0.41423904406E+02  0.77744221426E+01  0.48745162345E+02  0.24997131655E+00 0.  0.
        -13    1    4    4    0    0  0.14566569161E+02  0.25569366263E+02 -0.49317595008E+01  0.29838074753E+02  0.10500000000E+00 0.  1.
         13    1    4    4    0    0  0.10577574411E+02  0.18763451121E+02 -0.36677163896E+01  0.21849836313E+02  0.10500000000E+00 0. -1.
    3000001    1    5    5    0    0 -0.25331623344E+01 -0.13482384561E+02  0.62860139053E-01  0.13754837558E+02  0.10000000000E+01 0. -1.
        -13    1    6    6    0    0 -0.13056457522E+02 -0.22211866214E+02  0.41841925990E+01  0.26102807827E+02  0.10500000000E+00 0.  1.
         13    1    6    6    0    0 -0.11431230618E+02 -0.19212038192E+02  0.35902295436E+01  0.22642354518E+02  0.10500000000E+00 0. -1.
</event>
<event>
11    0  0.3494755E-009  0.9118800E+02  0.7816531E-02  0.1126479E+00
         25   -1    0    0    0    0  0.00000000000E+00  0.00000000000E+00  0.99999998245E-14  0.12500000000E+03  0.12500000000E+03 0.  0.
    3000001    1    3    3    0    0 -0.12145878439E+02  0.16389131073E+02  0.32430675669E+02  0.38325901225E+02  0.10000000000E+01 0.  1.
    1000022    2    1    0    0    0 -0.26737185921E+02  0.25716759001E+02  0.49295243257E+02  0.62499999724E+02  0.10000007663E+02 0.  0.
    3000022    2    3    3    0    0 -0.14591307482E+02  0.93276279280E+01  0.16864567588E+02  0.24174098499E+02  0.25000301296E+00 0.  0.
    1000022    2    1    0    0    0  0.26737185921E+02 -0.25716759001E+02 -0.49295243257E+02  0.62500000276E+02  0.10000011116E+02 0.  0.
    3000022    2    5    5    0    0  0.16277763326E+02 -0.12407161495E+02 -0.33881268803E+02  0.39584164807E+02  0.24998501294E+00 0.  0.
        -13    1    4    4    0    0 -0.44461253347E+01  0.28986435495E+01  0.51683023377E+01  0.74089499238E+01  0.10500000000E+00 0. -1.
         13    1    4    4    0    0 -0.10145182147E+02  0.64289843785E+01  0.11696265251E+02  0.16765148575E+02  0.10500000000E+00 0.  1.
    3000001    1    5    5    0    0  0.10459422595E+02 -0.13309597506E+02 -0.15413974453E+02  0.22915835469E+02  0.10000000000E+01 0.  1.
        -13    1    6    6    0    0  0.65804432694E+01 -0.49960976334E+01 -0.13796451585E+02  0.16081552367E+02  0.10500000000E+00 0.  1.
         13    1    6    6    0    0  0.96973200565E+01 -0.74110638611E+01 -0.20084817219E+02  0.23502612441E+02  0.10500000000E+00 0. -1.
</event>
<event>
11    0  0.3494755E-009  0.9118800E+02  0.7816531E-02  0.1126479E+00
         25   -1    0    0    0    0  0.00000000000E+00  0.00000000000E+00  0.99999998245E-14  0.12500000000E+03  0.12500000000E+03 0.  0.
    3000001    1    3    3    0    0  0.25074979157E+02  0.16004137192E+02 -0.80495307152E+01  0.30833130424E+02  0.10000000000E+01 0.  1.
    1000022    2    1    0    0    0  0.43799448908E+02  0.39016820465E+02 -0.19119248155E+02  0.62499997908E+02  0.10000004236E+02 0.  0.
    3000022    2    3    3    0    0  0.18724469751E+02  0.23012683273E+02 -0.11069717440E+02  0.31666867484E+02  0.24998646455E+00 0.  0.
    1000022    2    1    0    0    0 -0.43799448908E+02 -0.39016820465E+02  0.19119248155E+02  0.62500002092E+02  0.10000030382E+02 0.  0.
    3000022    2    5    5    0    0 -0.36967535757E+02 -0.32467484337E+02  0.19621902006E+02  0.52969970512E+02  0.24999720832E+00 0.  0.
        -13    1    4    4    0    0  0.96110436663E+01  0.11718522411E+02 -0.56902589362E+01  0.16189070375E+02  0.10500000000E+00 0. -1.
         13    1    4    4    0    0  0.91134260843E+01  0.11294160862E+02 -0.53794585035E+01  0.15477797109E+02  0.10500000000E+00 0.  1.
    3000001    1    5    5    0    0 -0.68319131509E+01 -0.65493361274E+01 -0.50265385083E+00  0.95300315794E+01  0.10000000000E+01 0. -1.
        -13    1    6    6    0    0 -0.15474702037E+02 -0.13667983161E+02  0.82654301357E+01  0.22239796023E+02  0.10500000000E+00 0. -1.
         13    1    6    6    0    0 -0.21492833720E+02 -0.18799501176E+02  0.11356471870E+02  0.30730174489E+02  0.10500000000E+00 0.  1.
</event>
<event>
11    0  0.3494755E-009  0.9118800E+02  0.7816531E-02  0.1126479E+00
         25   -1    0    0    0    0  0.00000000000E+00  0.00000000000E+00  0.99999998245E-14  0.12500000000E+03  0.12500000000E+03 0.  0.
    3000001    1    3    3    0    0  0.10382901629E+02  0.26613240980E+02 -0.46327053694E+02  0.54435881049E+02  0.10000000000E+01 0.  1.
    1000022    2    1    0    0    0  0.15379903608E+02  0.29979047655E+02 -0.51681383331E+02  0.62500000559E+02  0.99999976775E+01 0.  0.
    3000022    2    3    3    0    0  0.49970019784E+01  0.33658066757E+01 -0.53543296376E+01  0.80641195097E+01  0.24998849677E+00 0.  0.
    1000022    2    1    0    0    0 -0.15379903608E+02 -0.29979047655E+02  0.51681383331E+02  0.62499999441E+02  0.99999906881E+01 0.  0.
    3000022    2    5    5    0    0 -0.71826823666E+00  0.75457080184E+00  0.18299642635E+01  0.21205092285E+01  0.25000765534E+00 0.  0.
        -13    1    4    4    0    0  0.29225758598E+01  0.19956461997E+01 -0.32246444949E+01  0.47888840589E+01  0.10500000000E+00 0. -1.
         13    1    4    4    0    0  0.20744261186E+01  0.13701604760E+01 -0.21296851427E+01  0.32752354508E+01  0.10500000000E+00 0.  1.
    3000001    1    5    5    0    0 -0.14661635371E+02 -0.30733618457E+02  0.49851419068E+02  0.60379490212E+02  0.10000000000E+01 0.  1.
        -13    1    6    6    0    0 -0.45588196398E+00  0.44228931103E+00  0.99100215256E+00  0.11817607483E+01  0.10500000000E+00 0.  1.
         13    1    6    6    0    0 -0.26238627268E+00  0.31228149080E+00  0.83896211092E+00  0.93874848024E+00  0.10500000000E+00 0. -1.
</event>
<event>
11    0  0.3494755E-009  0.9118800E+02  0.7816531E-02  0.1126479E+00
         25   -1    0    0    0    0  0.00000000000E+00  0.00000000000E+00  0.99999998245E-14  0.12500000000E+03  0.12500000000E+03 0.  0.
    3000001    1    3    3    0    0  0.13654151383E+02 -0.37650947992E+01 -0.15878075256E+02  0.21300823052E+02  0.10000000000E+01 0.  1.
    1000022    2    1    0    0    0  0.28460610237E+02 -0.10087311860E+02 -0.53800466802E+02  0.62499997041E+02  0.99999603187E+01 0.  0.
    3000022    2    3    3    0    0  0.14806458853E+02 -0.63222170608E+01 -0.37922391546E+02  0.41199173989E+02  0.25000894443E+00 0.  0.
    1000022    2    1    0    0    0 -0.28460610237E+02  0.10087311860E+02  0.53800466802E+02  0.62500002959E+02  0.99999973095E+01 0.  0.
    3000022    2    5    5    0    0 -0.11521321994E+02 -0.84616691908E+00  0.21567080503E+02  0.24467495329E+02  0.25001456641E+00 0.  0.
        -13    1    4    4    0    0  0.88138525093E+01 -0.37085791186E+01 -0.22621758419E+02  0.24559978300E+02  0.10500000000E+00 0.  1.
         13    1    4    4    0    0  0.59926063439E+01 -0.26136379422E+01 -0.15300633127E+02  0.16639195689E+02  0.10500000000E+00 0. -1.
    3000001    1    5    5    0    0 -0.16939288242E+02  0.10933478779E+02  0.32233386299E+02  0.38032507630E+02  0.10000000000E+01 0. -1.
        -13    1    6    6    0    0 -0.76191897655E+01 -0.55285624694E+00  0.14374679072E+02  0.16278824471E+02  0.10500000000E+00 0. -1.
         13    1    6    6    0    0 -0.39021322288E+01 -0.29331067215E+00  0.71924014310E+01  0.81886708583E+01  0.10500000000E+00 0.  1.
</event>
<event>
11    0  0.3494755E-009  0.9118800E+02  0.7816531E-02  0.1126479E+00
         25   -1    0    0    0    0  0.00000000000E+00  0.00000000000E+00  0.99999998245E-14  0.12500000000E+03  0.12500000000E+03 0.  0.
    3000001    1    3    3    0    0 -0.46005346584E+02  0.14945791347E+02 -0.22803716987E+02  0.53487176984E+02  0.10000000000E+01 0. -1.
    1000022    2    1    0    0    0 -0.50986754689E+02  0.18343744486E+02 -0.29497594646E+02  0.62500001776E+02  0.10000000828E+02 0.  0.
    3000022    2    3    3    0    0 -0.49814081057E+01  0.33979531388E+01 -0.66938776597E+01  0.90128247923E+01  0.25000072837E+00 0.  0.
    1000022    2    1    0    0    0  0.50986754689E+02 -0.18343744486E+02  0.29497594646E+02  0.62499998224E+02  0.99999786302E+01 0.  0.
    3000022    2    5    5    0    0  0.17551945029E+01  0.70133118716E+00 -0.21222164605E+00  0.19183623112E+01  0.25000550556E+00 0.  0.
        -13    1    4    4    0    0 -0.14699791515E+01  0.95589959225E+00 -0.19772318811E+01  0.26448163732E+01  0.10500000000E+00 0. -1.
         13    1    4    4    0    0 -0.35114289542E+01  0.24420535465E+01 -0.47166457786E+01  0.63680084190E+01  0.10500000000E+00 0.  1.
    3000001    1    5    5    0    0  0.49231560186E+02 -0.19045075673E+02  0.29709816292E+02  0.60581635913E+02  0.10000000000E+01 0. -1.
        -13    1    6    6    0    0  0.52181113376E+00  0.17700215609E+00 -0.95372959379E-01  0.56897945829E+00  0.10500000000E+00 0. -1.
         13    1    6    6    0    0  0.12333833691E+01  0.52432903108E+00 -0.11684868667E+00  0.13493828529E+01  0.10500000000E+00 0.  1.
</event>
<event>
11    0  0.3494755E-009  0.9118800E+02  0.7816531E-02  0.1126479E+00
         25   -1    0    0    0    0  0.00000000000E+00  0.00000000000E+00  0.99999998245E-14  0.12500000000E+03  0.12500000000E+03 0.  0.
    3000001    1    3    3    0    0 -0.33607274976E+02  0.40340496595E+02 -0.46714164572E+01  0.52722165439E+02  0.10000000000E+01 0.  1.
    1000022    2    1    0    0    0 -0.38295912636E+02  0.48344068452E+02 -0.15887108759E+01  0.62500000506E+02  0.10000009092E+02 0.  0.
    3000022    2    3    3    0    0 -0.46886376596E+01  0.80035718575E+01  0.30827055813E+01  0.97778350670E+01  0.24999862996E+00 0.  0.
    1000022    2    1    0    0    0  0.38295912636E+02 -0.48344068452E+02  0.15887108759E+01  0.62499999494E+02  0.10000002768E+02 0.  0.
    3000022    2    5    5    0    0  0.78579273000E+01 -0.13145112987E+02 -0.33963270133E+01  0.15688804039E+02  0.25003619819E+00 0.  0.
        -13    1    4    4    0    0 -0.20167021708E+01  0.35445768256E+01  0.13117456125E+01  0.42851854184E+01  0.10500000000E+00 0.  1.
         13    1    4    4    0    0 -0.26719354888E+01  0.44589950319E+01  0.17709599689E+01  0.54926496486E+01  0.10500000000E+00 0. -1.
    3000001    1    5    5    0    0  0.30437985336E+02 -0.35198955466E+02  0.49850378893E+01  0.46811195455E+02  0.10000000000E+01 0.  1.
        -13    1    6    6    0    0  0.46798618660E+01 -0.77382776163E+01 -0.20505417690E+01  0.92734995605E+01  0.10500000000E+00 0.  1.
         13    1    6    6    0    0  0.31780654340E+01 -0.54068353704E+01 -0.13457852443E+01  0.64153044783E+01  0.10500000000E+00 0. -1.
</event>
<event>
11    0  0.3494755E-009  0.9118800E+02  0.7816531E-02  0.1126479E+00
         25   -1    0    0    0    0  0.00000000000E+00  0.00000000000E+00  0.99999998245E-14  0.12500000000E+03  0.12500000000E+03 0.  0.
    3000001    1    3    3    0    0  0.87966361345E+01  0.71432625665E+01 -0.15766400973E+00  0.11376812617E+02  0.10000000000E+01 0. -1.
    1000022    2    1    0    0    0  0.32511648030E+02  0.52395659323E+02 -0.19843188942E+01  0.62500000798E+02  0.10000010240E+02 0.  0.
    3000022    2    3    3    0    0  0.23715011895E+02  0.45252396757E+02 -0.18266548845E+01  0.51123188182E+02  0.25000075113E+00 0.  0.
    1000022    2    1    0    0    0 -0.32511648030E+02 -0.52395659323E+02  0.19843188942E+01  0.62499999202E+02  0.10000000261E+02 0.  0.
    3000022    2    5    5    0    0 -0.24118883524E+02 -0.30723957388E+02  0.33092850814E+01  0.39200713886E+02  0.25000284336E+00 0.  0.
        -13    1    4    4    0    0  0.13613054133E+02  0.26096175468E+02 -0.10186959740E+01  0.29451220405E+02  0.10500000000E+00 0. -1.
         13    1    4    4    0    0  0.10101957763E+02  0.19156221289E+02 -0.80795891051E+00  0.21671967776E+02  0.10500000000E+00 0.  1.
    3000001    1    5    5    0    0 -0.83927645061E+01 -0.21671701935E+02 -0.13249661872E+01  0.23299285315E+02  0.10000000000E+01 0. -1.
        -13    1    6    6    0    0 -0.84283058167E+01 -0.10740379001E+02  0.11001197995E+01  0.13697202948E+02  0.10500000000E+00 0.  1.
         13    1    6    6    0    0 -0.15690577707E+02 -0.19983578387E+02  0.22091652819E+01  0.25503510938E+02  0.10500000000E+00 0. -1.
</event>
<event>
11    0  0.3494755E-009  0.9118800E+02  0.7816531E-02  0.1126479E+00
         25   -1    0    0    0    0  0.00000000000E+00  0.00000000000E+00  0.99999998245E-14  0.12500000000E+03  0.12500000000E+03 0.  0.
    3000001    1    3    3    0    0  0.15667221650E+02 -0.23509773206E+02 -0.14151864859E+02  0.31614024569E+02  0.10000000000E+01 0.  1.
    1000022    2    1    0    0    0  0.22382058807E+02 -0.50951722511E+02 -0.26631099407E+02  0.62499998876E+02  0.99999910295E+01 0.  0.
    3000022    2    3    3    0    0  0.67148371573E+01 -0.27441949304E+02 -0.12479234548E+02  0.30885974307E+02  0.24998865167E+00 0.  0.
    1000022    2    1    0    0    0 -0.22382058807E+02  0.50951722511E+02  0.26631099407E+02  0.62500001124E+02  0.10000005083E+02 0.  0.
    3000022    2    5    5    0    0 -0.16503804669E+01  0.14285892734E+02  0.76138686715E+01  0.16274027637E+02  0.24998497069E+00 0.  0.
        -13    1    4    4    0    0  0.27702852148E+01 -0.11535893014E+02 -0.51967745269E+01  0.12952559527E+02  0.10500000000E+00 0. -1.
         13    1    4    4    0    0  0.39445519425E+01 -0.15906056290E+02 -0.72824600208E+01  0.17933414780E+02  0.10500000000E+00 0.  1.
    3000001    1    5    5    0    0 -0.20731678340E+02  0.36665829777E+02  0.19017230736E+02  0.46225973488E+02  0.10000000000E+01 0. -1.
        -13    1    6    6    0    0 -0.66994239926E+00  0.54785539175E+01  0.29778340038E+01  0.62723118704E+01  0.10500000000E+00 0. -1.
         13    1    6    6    0    0 -0.98043806767E+00  0.88073388163E+01  0.46360346677E+01  0.10001715766E+02  0.10500000000E+00 0.  1.
</event>
<event>
11    0  0.3494755E-009  0.9118800E+02  0.7816531E-02  0.1126479E+00
         25   -1    0    0    0    0  0.00000000000E+00  0.00000000000E+00  0.99999998245E-14  0.12500000000E+03  0.12500000000E+03 0.  0.
    3000001    1    3    3    0    0  0.29796979970E+02 -0.43201999856E+02  0.11800358656E+02  0.53800755304E+02  0.10000000000E+01 0. -1.
    1000022    2    1    0    0    0  0.37102550795E+02 -0.47912907235E+02  0.11576023948E+02  0.62499998764E+02  0.99999779884E+01 0.  0.
    3000022    2    3    3    0    0  0.73055708255E+01 -0.47109073790E+01 -0.22433470836E+00  0.86992434594E+01  0.24999456871E+00 0.  0.
    1000022    2    1    0    0    0 -0.37102550795E+02  0.47912907235E+02 -0.11576023948E+02  0.62500001236E+02  0.99999934432E+01 0.  0.
    3000022    2    5    5    0    0 -0.33283586864E+01  0.34605040267E+01 -0.37925340839E+01  0.61236328000E+01  0.25000845450E+00 0.  0.
        -13    1    4    4    0    0  0.52328111847E+01 -0.33556304819E+01 -0.19864926258E+00  0.62203742135E+01  0.10500000000E+00 0. -1.
         13    1    4    4    0    0  0.20727596408E+01 -0.13552768971E+01 -0.25685445772E-01  0.24788692459E+01  0.10500000000E+00 0.  1.
    3000001    1    5    5    0    0 -0.33774192109E+02  0.44452403208E+02 -0.77834898640E+01  0.56376368436E+02  0.10000000000E+01 0. -1.
        -13    1    6    6    0    0 -0.20656582649E+01  0.20679723103E+01 -0.23435603043E+01  0.37478998711E+01  0.10500000000E+00 0.  1.
         13    1    6    6    0    0 -0.12627004215E+01  0.13925317164E+01 -0.14489737795E+01  0.23757329289E+01  0.10500000000E+00 0. -1.
</event>
<event>
11    0  0.3494755E-009  0.9118800E+02  0.7816531E-02  0.1126479E+00
         25   -1    0    0    0    0  0.00000000000E+00  0.00000000000E+00  0.99999998245E-14  0.12500000000E+03  0.12500000000E+03 0.  0.
    3000001    1    3    3    0    0  0.14671072521E+01 -0.53452873431E+01  0.56772542599E+01  0.79972317961E+01  0.10000000000E+01 0. -1.
    1000022    2    1    0    0    0  0.34471523232E+02 -0.36207171930E+02  0.36152533761E+02  0.62500007337E+02  0.10000000333E+02 0.  0.
    3000022    2    3    3    0    0  0.33004415980E+02 -0.30861884587E+02  0.30475279501E+02  0.54502775540E+02  0.24997307297E+00 0.  0.
    1000022    2    1    0    0    0 -0.34471523232E+02  0.36207171930E+02 -0.36152533761E+02  0.62499992663E+02  0.99999086260E+01 0.  0.
    3000022    2    5    5    0    0 -0.51333385917E+01  0.78198080798E+01 -0.11397122491E+02  0.14746438958E+02  0.24999475477E+00 0.  0.
        -13    1    4    4    0    0  0.23582753704E+02 -0.22012784221E+02  0.21794047555E+02  0.38931998090E+02  0.10500000000E+00 0. -1.
         13    1    4    4    0    0  0.94216622752E+01 -0.88491003657E+01  0.86812319463E+01  0.15570777451E+02  0.10500000000E+00 0.  1.
    3000001    1    5    5    0    0 -0.29338184640E+02  0.28387363850E+02 -0.24755411270E+02  0.47753553705E+02  0.10000000000E+01 0. -1.
        -13    1    6    6    0    0 -0.14426654319E+01  0.22461601311E+01 -0.32039802539E+01  0.41716943021E+01  0.10500000000E+00 0. -1.
         13    1    6    6    0    0 -0.36906731598E+01  0.55736479488E+01 -0.81931422369E+01  0.10574744656E+02  0.10500000000E+00 0.  1.
</event>
<event>
11    0  0.3494755E-009  0.9118800E+02  0.7816531E-02  0.1126479E+00
         25   -1    0    0    0    0  0.00000000000E+00  0.00000000000E+00  0.99999998245E-14  0.12500000000E+03  0.12500000000E+03 0.  0.
    3000001    1    3    3    0    0  0.51455771298E+02 -0.18606913601E+02  0.81919361027E+00  0.54731935027E+02  0.10000000000E+01 0. -1.
    1000022    2    1    0    0    0  0.56680347833E+02 -0.24327337634E+02  0.13299662451E+01  0.62499999966E+02  0.99999999359E+01 0.  0.
    3000022    2    3    3    0    0  0.52245765346E+01 -0.57204240328E+01  0.51077263478E+00  0.77680649386E+01  0.24998625042E+00 0.  0.
    1000022    2    1    0    0    0 -0.56680347833E+02  0.24327337634E+02 -0.13299662451E+01  0.62500000034E+02  0.10000000364E+02 0.  0.
    3000022    2    5    5    0    0 -0.14072649281E+02  0.10619170593E+02  0.10880171339E+01  0.17665008531E+02  0.25000649109E+00 0.  0.
        -13    1    4    4    0    0  0.12001966257E+01 -0.13083031384E+01  0.11917522363E+00  0.17825141727E+01  0.10500000000E+00 0.  1.
         13    1    4    4    0    0  0.40243799089E+01 -0.44121208945E+01  0.39159741115E+00  0.59855507659E+01  0.10500000000E+00 0. -1.
    3000001    1    5    5    0    0 -0.42607698551E+02  0.13708167041E+02 -0.24179833789E+01  0.44834991503E+02  0.10000000000E+01 0. -1.
        -13    1    6    6    0    0 -0.47173975240E+01  0.34936897678E+01  0.37116105410E+00  0.58828983606E+01  0.10500000000E+00 0. -1.
         13    1    6    6    0    0 -0.93552517572E+01  0.71254808248E+01  0.71685607978E+00  0.11782110170E+02  0.10500000000E+00 0.  1.
</event>
<event>
11    0  0.3494755E-009  0.9118800E+02  0.7816531E-02  0.1126479E+00
         25   -1    0    0    0    0  0.00000000000E+00  0.00000000000E+00  0.99999998245E-14  0.12500000000E+03  0.12500000000E+03 0.  0.
    3000001    1    3    3    0    0  0.67738652274E+00 -0.19009024306E+02 -0.11443442548E+02  0.22220581337E+02  0.10000000000E+01 0. -1.
    1000022    2    1    0    0    0  0.14553920080E+02 -0.49698871015E+02 -0.33532902049E+02  0.62500000328E+02  0.10000007562E+02 0.  0.
    3000022    2    3    3    0    0  0.13876533557E+02 -0.30689846709E+02 -0.22089459501E+02  0.40279418991E+02  0.24999728519E+00 0.  0.
    1000022    2    1    0    0    0 -0.14553920080E+02  0.49698871015E+02  0.33532902049E+02  0.62499999672E+02  0.10000003466E+02 0.  0.
    3000022    2    5    5    0    0 -0.96756601370E+01  0.41867556782E+02  0.24105655345E+02  0.49271247535E+02  0.25000810528E+00 0.  0.
        -13    1    4    4    0    0  0.53844720476E+01 -0.12029016453E+02 -0.85987925484E+01  0.15736582677E+02  0.10500000000E+00 0.  1.
         13    1    4    4    0    0  0.84920615098E+01 -0.18660830256E+02 -0.13490666952E+02  0.24542836314E+02  0.10500000000E+00 0. -1.
    3000001    1    5    5    0    0 -0.48782599432E+01  0.78313142333E+01  0.94272467040E+01  0.13228752137E+02  0.10000000000E+01 0. -1.
        -13    1    6    6    0    0 -0.51081295899E+01  0.21836767826E+02  0.12544844909E+02  0.25696723055E+02  0.10500000000E+00 0.  1.
         13    1    6    6    0    0 -0.45675305471E+01  0.20030788956E+02  0.11560810436E+02  0.23574524480E+02  0.10500000000E+00 0. -1.
</event>
<event>
11    0  0.3494755E-009  0.9118800E+02  0.7816531E-02  0.1126479E+00
         25   -1    0    0    0    0  0.00000000000E+00  0.00000000000E+00  0.99999998245E-14  0.12500000000E+03  0.12500000000E+03 0.  0.
    3000001    1    3    3    0    0 -0.35764924937E+00  0.11105439474E+01 -0.26161618000E+01  0.30340605479E+01  0.10000000000E+01 0.  1.
    1000022    2    1    0    0    0  0.17802754564E+02 -0.71037218857E+01 -0.58641700571E+02  0.62499999733E+02  0.99999993063E+01 0.  0.
    3000022    2    3    3    0    0  0.18160403814E+02 -0.82142658331E+01 -0.56025538771E+02  0.59465939185E+02  0.24999759328E+00 0.  0.
    1000022    2    1    0    0    0 -0.17802754564E+02  0.71037218857E+01  0.58641700571E+02  0.62500000267E+02  0.10000002642E+02 0.  0.
    3000022    2    5    5    0    0 -0.13609152771E+02  0.95858490757E+00  0.43664885221E+02  0.45747269072E+02  0.25000397905E+00 0.  0.
        -13    1    4    4    0    0  0.12099017974E+02 -0.55295896272E+01 -0.37427235061E+02  0.39721172524E+02  0.10500000000E+00 0.  1.
         13    1    4    4    0    0  0.60613858401E+01 -0.26846762058E+01 -0.18598303710E+02  0.19744766661E+02  0.10500000000E+00 0. -1.
    3000001    1    5    5    0    0 -0.41936017929E+01  0.61451369781E+01  0.14976815349E+02  0.16752731195E+02  0.10000000000E+01 0.  1.
        -13    1    6    6    0    0 -0.53916483960E+01  0.43497852088E+00  0.17413460846E+02  0.18234547496E+02  0.10500000000E+00 0. -1.
         13    1    6    6    0    0 -0.82175043754E+01  0.52360638669E+00  0.26251424375E+02  0.27512721576E+02  0.10500000000E+00 0.  1.
</event>
<event>
11    0  0.3494755E-009  0.9118800E+02  0.7816531E-02  0.1126479E+00
         25   -1    0    0    0    0  0.00000000000E+00  0.00000000000E+00  0.99999998245E-14  0.12500000000E+03  0.12500000000E+03 0.  0.
    3000001    1    3    3    0    0  0.23438860521E+02  0.34056523005E+02  0.14869757729E+02  0.43946975284E+02  0.10000000000E+01 0. -1.
    1000022    2    1    0    0    0  0.30722163803E+02  0.51087942622E+02  0.15887741086E+02  0.62499994623E+02  0.99999890491E+01 0.  0.
    3000022    2    3    3    0    0  0.72833032826E+01  0.17031419617E+02  0.10179833578E+01  0.18553019339E+02  0.24995122880E+00 0.  0.
    1000022    2    1    0    0    0 -0.30722163803E+02 -0.51087942622E+02 -0.15887741086E+02  0.62500005377E+02  0.10000056259E+02 0.  0.
    3000022    2    5    5    0    0 -0.30379089560E+02 -0.46083375060E+02 -0.13339154483E+02  0.56785227158E+02  0.24988328164E+00 0.  0.
        -13    1    4    4    0    0  0.45211608659E+01  0.10670136481E+02  0.68306579912E+00  0.11609061633E+02  0.10500000000E+00 0.  1.
         13    1    4    4    0    0  0.27621424167E+01  0.63612831354E+01  0.33491755870E+00  0.69439577066E+01  0.10500000000E+00 0. -1.
    3000001    1    5    5    0    0 -0.34307424381E+00 -0.50045675614E+01 -0.25485866034E+01  0.57147782186E+01  0.10000000000E+01 0.  1.
        -13    1    6    6    0    0 -0.17371184337E+02 -0.26423152522E+02 -0.76953022416E+01  0.32544888017E+02  0.10500000000E+00 0.  1.
         13    1    6    6    0    0 -0.13007905223E+02 -0.19660222539E+02 -0.56438522414E+01  0.24240339141E+02  0.10500000000E+00 0. -1.
</event>
<event>
11    0  0.3494755E-009  0.9118800E+02  0.7816531E-02  0.1126479E+00
         25   -1    0    0    0    0  0.00000000000E+00  0.00000000000E+00  0.99999998245E-14  0.12500000000E+03  0.12500000000E+03 0.  0.
    3000001    1    3    3    0    0 -0.26923681181E+02  0.22401076852E+02 -0.44027456184E+02  0.56268194840E+02  0.10000000000E+01 0.  1.
    1000022    2    1    0    0    0 -0.31580914066E+02  0.22141300718E+02 -0.48152451325E+02  0.62499999186E+02  0.99999999450E+01 0.  0.
    3000022    2    3    3    0    0 -0.46572328859E+01 -0.25977613406E+00 -0.41249951405E+01  0.62318043464E+01  0.24999741785E+00 0.  0.
    1000022    2    1    0    0    0  0.31580914066E+02 -0.22141300718E+02  0.48152451325E+02  0.62500000814E+02  0.10000010117E+02 0.  0.
    3000022    2    5    5    0    0  0.11236365783E+02 -0.12625897058E+02  0.16061540472E+02  0.23317477783E+02  0.24999060280E+00 0.  0.
        -13    1    4    4    0    0 -0.17397921333E+01 -0.95130084224E-01 -0.16224053092E+01  0.23830968061E+01  0.10500000000E+00 0. -1.
         13    1    4    4    0    0 -0.29174407526E+01 -0.16464604984E+00 -0.25025898314E+01  0.38487075403E+01  0.10500000000E+00 0.  1.
    3000001    1    5    5    0    0  0.20344548284E+02 -0.95154036604E+01  0.32090910853E+02  0.39182523030E+02  0.10000000000E+01 0.  1.
        -13    1    6    6    0    0  0.34887528688E+01 -0.39068837643E+01  0.49125190623E+01  0.71818525371E+01  0.10500000000E+00 0. -1.
         13    1    6    6    0    0  0.77476129141E+01 -0.87190132938E+01  0.11149021410E+02  0.16135625246E+02  0.10500000000E+00 0.  1.
</event>
<event>
11    0  0.3494755E-009  0.9118800E+02  0.7816531E-02  0.1126479E+00
         25   -1    0    0    0    0  0.00000000000E+00  0.00000000000E+00  0.99999998245E-14  0.12500000000E+03  0.12500000000E+03 0.  0.
    3000001    1    3    3    0    0 -0.31507928315E+02  0.18071251961E+02  0.18302867720E+02  0.40685558382E+02  0.10000000000E+01 0.  1.
    1000022    2    1    0    0    0 -0.43586090666E+02  0.33186541659E+02  0.28375273662E+02  0.62499999523E+02  0.99999969119E+01 0.  0.
    3000022    2    3    3    0    0 -0.12078162351E+02  0.15115289698E+02  0.10072405942E+02  0.21814441141E+02  0.24998479514E+00 0.  0.
    1000022    2    1    0    0    0  0.43586090666E+02 -0.33186541659E+02 -0.28375273662E+02  0.62500000477E+02  0.10000002871E+02 0.  0.
    3000022    2    5    5    0    0  0.11989108569E+02 -0.73896461862E+01 -0.12107073535E+02  0.18573887184E+02  0.24992100659E+00 0.  0.
        -13    1    4    4    0    0 -0.76931881507E+01  0.96324930834E+01  0.63514744883E+01  0.13868032308E+02  0.10500000000E+00 0.  1.
         13    1    4    4    0    0 -0.43849742001E+01  0.54827966146E+01  0.37209314539E+01  0.79464088327E+01  0.10500000000E+00 0. -1.
    3000001    1    5    5    0    0  0.31596982097E+02 -0.25796895472E+02 -0.16268200128E+02  0.43926113293E+02  0.10000000000E+01 0.  1.
        -13    1    6    6    0    0  0.78321672044E+01 -0.47796805548E+01 -0.78359850062E+01  0.12066560212E+02  0.10500000000E+00 0. -1.
         13    1    6    6    0    0  0.41569413642E+01 -0.26099656314E+01 -0.42710885283E+01  0.65073269719E+01  0.10500000000E+00 0.  1.
</event>
<event>
11    0  0.3494755E-009  0.9118800E+02  0.7816531E-02  0.1126479E+00
         25   -1    0    0    0    0  0.00000000000E+00  0.00000000000E+00  0.99999998245E-14  0.12500000000E+03  0.12500000000E+03 0.  0.
    3000001    1    3    3    0    0  0.43632343868E+01 -0.32452924675E+02  0.18958010416E+01  0.32814999556E+02  0.10000000000E+01 0. -1.
    1000022    2    1    0    0    0  0.16497299715E+02 -0.59446924630E+02 -0.39005860914E+00  0.62499999721E+02  0.10000003675E+02 0.  0.
    3000022    2    3    3    0    0  0.12134065328E+02 -0.26993999955E+02 -0.22858596507E+01  0.29685000165E+02  0.25001094150E+00 0.  0.
    1000022    2    1    0    0    0 -0.16497299715E+02  0.59446924630E+02  0.39005860914E+00  0.62500000279E+02  0.10000007164E+02 0.  0.
    3000022    2    5    5    0    0 -0.15985234098E+02  0.46300528750E+02  0.29014492809E+01  0.49068804541E+02  0.24999898310E+00 0.  0.
        -13    1    4    4    0    0  0.56035202061E+01 -0.12421424441E+02 -0.98770695737E+00  0.13663008961E+02  0.10500000000E+00 0. -1.
         13    1    4    4    0    0  0.65305451217E+01 -0.14572575514E+02 -0.12981526933E+01  0.16021991203E+02  0.10500000000E+00 0.  1.
    3000001    1    5    5    0    0 -0.51206561681E+00  0.13146395881E+02 -0.25113906717E+01  0.13431195738E+02  0.10000000000E+01 0.  1.
        -13    1    6    6    0    0 -0.77240034746E+01  0.22373262388E+02  0.14698380541E+01  0.23714859234E+02  0.10500000000E+00 0.  1.
         13    1    6    6    0    0 -0.82612306233E+01  0.23927266361E+02  0.14316112268E+01  0.25353945307E+02  0.10500000000E+00 0. -1.
</event>
<event>
11    0  0.3494755E-009  0.9118800E+02  0.7816531E-02  0.1126479E+00
         25   -1    0    0    0    0  0.00000000000E+00  0.00000000000E+00  0.99999998245E-14  0.12500000000E+03  0.12500000000E+03 0.  0.
    3000001    1    3    3    0    0 -0.40131648224E+02  0.20694350547E+02 -0.27997286384E+02  0.53138059605E+02  0.10000000000E+01 0.  1.
    1000022    2    1    0    0    0 -0.48971270727E+02  0.21075140038E+02 -0.31046791496E+02  0.62499998878E+02  0.99999856685E+01 0.  0.
    3000022    2    3    3    0    0 -0.88396225030E+01  0.38078949119E+00 -0.30495051118E+01  0.93619392732E+01  0.24999779254E+00 0.  0.
    1000022    2    1    0    0    0  0.48971270727E+02 -0.21075140038E+02  0.31046791496E+02  0.62500001122E+02  0.99999996903E+01 0.  0.
    3000022    2    5    5    0    0  0.20726937651E+02 -0.46451701076E+01  0.15527354093E+02  0.26312445248E+02  0.25000017313E+00 0.  0.
        -13    1    4    4    0    0 -0.63153833892E+01  0.28873874933E+00 -0.21381690715E+01  0.66745958227E+01  0.10500000000E+00 0. -1.
         13    1    4    4    0    0 -0.25242391138E+01  0.92050741860E-01 -0.91133604030E+00  0.26873434505E+01  0.10500000000E+00 0.  1.
    3000001    1    5    5    0    0  0.28244333076E+02 -0.16429969930E+02  0.15519437403E+02  0.36187555874E+02  0.10000000000E+01 0. -1.
        -13    1    6    6    0    0  0.12212626579E+02 -0.27032565129E+01  0.90752736440E+01  0.15454043498E+02  0.10500000000E+00 0. -1.
         13    1    6    6    0    0  0.85143110721E+01 -0.19419135946E+01  0.64520804486E+01  0.10858401750E+02  0.10500000000E+00 0.  1.
</event>
<event>
11    0  0.3494755E-009  0.9118800E+02  0.7816531E-02  0.1126479E+00
         25   -1    0    0    0    0  0.00000000000E+00  0.00000000000E+00  0.99999998245E-14  0.12500000000E+03  0.12500000000E+03 0.  0.
    3000001    1    3    3    0    0 -0.11513093392E+02 -0.21192173293E+02 -0.23052231582E+02  0.33377610898E+02  0.10000000000E+01 0.  1.
    1000022    2    1    0    0    0 -0.20236356987E+02 -0.32269805799E+02 -0.48532455943E+02  0.62500000905E+02  0.10000016145E+02 0.  0.
    3000022    2    3    3    0    0 -0.87232635944E+01 -0.11077632506E+02 -0.25480224361E+02  0.29122390007E+02  0.24999316462E+00 0.  0.
    1000022    2    1    0    0    0  0.20236356987E+02  0.32269805799E+02  0.48532455943E+02  0.62499999095E+02  0.10000004829E+02 0.  0.
    3000022    2    5    5    0    0 -0.96874440456E+00  0.15609200549E+01  0.38596488636E+01  0.42818603318E+01  0.25000282395E+00 0.  0.
        -13    1    4    4    0    0 -0.40327970839E+01 -0.50519121079E+01 -0.11787868789E+02  0.13444335010E+02  0.10500000000E+00 0. -1.
         13    1    4    4    0    0 -0.46904665105E+01 -0.60257203980E+01 -0.13692355572E+02  0.15678054997E+02  0.10500000000E+00 0.  1.
    3000001    1    5    5    0    0  0.21205101391E+02  0.30708885744E+02  0.44672807079E+02  0.58218138763E+02  0.10000000000E+01 0. -1.
        -13    1    6    6    0    0 -0.24790926764E+00  0.43819447519E+00  0.11473640061E+01  0.12573553856E+01  0.10500000000E+00 0. -1.
         13    1    6    6    0    0 -0.72083513692E+00  0.11227255797E+01  0.27122848575E+01  0.30245049463E+01  0.10500000000E+00 0.  1.
</event>
<event>
11    0  0.3494755E-009  0.9118800E+02  0.7816531E-02  0.1126479E+00
         25   -1    0    0    0    0  0.00000000000E+00  0.00000000000E+00  0.99999998245E-14  0.12500000000E+03  0.12500000000E+03 0.  0.
    3000001    1    3    3    0    0  0.18832138291E+02 -0.45596319428E+02 -0.46391586283E+01  0.49560019883E+02  0.10000000000E+01 0. -1.
    1000022    2    1    0    0    0  0.27523394961E+02 -0.54674024462E+02 -0.77112768753E+01  0.62499999875E+02  0.99999986095E+01 0.  0.
    3000022    2    3    3    0    0  0.86912566703E+01 -0.90777050343E+01 -0.30721182470E+01  0.12939979992E+02  0.25000094150E+00 0.  0.
    1000022    2    1    0    0    0 -0.27523394961E+02  0.54674024462E+02  0.77112768753E+01  0.62500000125E+02  0.10000000176E+02 0.  0.
    3000022    2    5    5    0    0 -0.10693615298E+02  0.12523944674E+02  0.10553238759E+00  0.16470465488E+02  0.24999596960E+00 0.  0.
        -13    1    4    4    0    0  0.55201019448E+01 -0.58473651371E+01 -0.19517850185E+01  0.82754875558E+01  0.10500000000E+00 0. -1.
         13    1    4    4    0    0  0.31711547255E+01 -0.32303398972E+01 -0.11203332284E+01  0.46644924362E+01  0.10500000000E+00 0.  1.
    3000001    1    5    5    0    0 -0.16829779663E+02  0.42150079788E+02  0.76057444877E+01  0.46029534637E+02  0.10000000000E+01 0.  1.
        -13    1    6    6    0    0 -0.33415003427E+01  0.39546271435E+01 -0.84261335391E-02  0.51783970864E+01  0.10500000000E+00 0. -1.
         13    1    6    6    0    0 -0.73521149550E+01  0.85693175306E+01  0.11395852113E+00  0.11292068402E+02  0.10500000000E+00 0.  1.
</event>
<event>
11    0  0.3494755E-009  0.9118800E+02  0.7816531E-02  0.1126479E+00
         25   -1    0    0    0    0  0.00000000000E+00  0.00000000000E+00  0.99999998245E-14  0.12500000000E+03  0.12500000000E+03 0.  0.
    3000001    1    3    3    0    0  0.12351126123E+02 -0.49741897032E+02  0.25317756406E+02  0.57173380399E+02  0.10000000000E+01 0.  1.
    1000022    2    1    0    0    0  0.14347357095E+02 -0.54645143682E+02  0.24785288488E+02  0.62499991662E+02  0.10000002435E+02 0.  0.
    3000022    2    3    3    0    0  0.19962309715E+01 -0.49032466499E+01 -0.53246791784E+00  0.53266112628E+01  0.24999932030E+00 0.  0.
    1000022    2    1    0    0    0 -0.14347357095E+02  0.54645143682E+02 -0.24785288488E+02  0.62500008338E+02  0.10000106660E+02 0.  0.
    3000022    2    5    5    0    0 -0.11051810082E+01  0.22783500431E+02 -0.86495620585E+01  0.24396449377E+02  0.25000281976E+00 0.  0.
        -13    1    4    4    0    0  0.62954281521E+00 -0.15717687433E+01 -0.22058968413E+00  0.17106916576E+01  0.10500000000E+00 0.  1.
         13    1    4    4    0    0  0.13666881563E+01 -0.33314779066E+01 -0.31187823371E+00  0.36159196052E+01  0.10500000000E+00 0. -1.
    3000001    1    5    5    0    0 -0.13242176086E+02  0.31861643250E+02 -0.16135726430E+02  0.38103558961E+02  0.10000000000E+01 0.  1.
        -13    1    6    6    0    0 -0.67727511693E+00  0.12600374025E+02 -0.47758157511E+01  0.13492500445E+02  0.10500000000E+00 0.  1.
         13    1    6    6    0    0 -0.42790589130E+00  0.10183126406E+02 -0.38737463074E+01  0.10903948932E+02  0.10500000000E+00 0. -1.
</event>
<event>
11    0  0.3494755E-009  0.9118800E+02  0.7816531E-02  0.1126479E+00
         25   -1    0    0    0    0  0.00000000000E+00  0.00000000000E+00  0.99999998245E-14  0.12500000000E+03  0.12500000000E+03 0.  0.
    3000001    1    3    3    0    0 -0.19549206276E+02 -0.36432653685E+02  0.11829913851E+02  0.43016933669E+02  0.10000000000E+01 0. -1.
    1000022    2    1    0    0    0 -0.25775464450E+02 -0.51097560103E+02  0.23041587139E+02  0.62500000491E+02  0.10000005367E+02 0.  0.
    3000022    2    3    3    0    0 -0.62262581737E+01 -0.14664906418E+02  0.11211673288E+02  0.19483066822E+02  0.25000753090E+00 0.  0.
    1000022    2    1    0    0    0  0.25775464450E+02  0.51097560103E+02 -0.23041587139E+02  0.62499999509E+02  0.99999992344E+01 0.  0.
    3000022    2    5    5    0    0  0.77730241807E+01  0.22735893029E+02 -0.13510774915E+02  0.27567086712E+02  0.24998847040E+00 0.  0.
        -13    1    4    4    0    0 -0.22027828448E+01 -0.53227699371E+01  0.40850231422E+01  0.70627594563E+01  0.10500000000E+00 0. -1.
         13    1    4    4    0    0 -0.40234753289E+01 -0.93421364813E+01  0.71266501455E+01  0.12420307365E+02  0.10500000000E+00 0.  1.
    3000001    1    5    5    0    0  0.18002440269E+02  0.28361667074E+02 -0.95308122241E+01  0.34932912797E+02  0.10000000000E+01 0.  1.
        -13    1    6    6    0    0  0.29850758077E+01  0.89027265501E+01 -0.53119019811E+01  0.10788723060E+02  0.10500000000E+00 0. -1.
         13    1    6    6    0    0  0.47879483729E+01  0.13833166479E+02 -0.81988729339E+01  0.16778363652E+02  0.10500000000E+00 0.  1.
</event>
<event>
11    0  0.3494755E-009  0.9118800E+02  0.7816531E-02  0.1126479E+00
         25   -1    0    0    0    0  0.00000000000E+00  0.00000000000E+00  0.99999998245E-14  0.12500000000E+03  0.12500000000E+03 0.  0.
    3000001    1    3    3    0    0  0.65433723612E+00  0.20630868319E+02 -0.28030689624E+02  0.34824997425E+02  0.10000000000E+01 0.  1.
    1000022    2    1    0    0    0  0.35300615312E+01  0.29418086774E+02 -0.54114368229E+02  0.62500000308E+02  0.10000001292E+02 0.  0.
    3000022    2    3    3    0    0  0.28757242951E+01  0.87872184550E+01 -0.26083678605E+02  0.27675002884E+02  0.24999329492E+00 0.  0.
    1000022    2    1    0    0    0 -0.35300615312E+01 -0.29418086774E+02  0.54114368229E+02  0.62499999692E+02  0.99999974363E+01 0.  0.
    3000022    2    5    5    0    0 -0.49736408210E+01 -0.20201999396E+02  0.29012612606E+02  0.35702269879E+02  0.25000339041E+00 0.  0.
        -13    1    4    4    0    0  0.75700477243E+00  0.24294044611E+01 -0.71474477966E+01  0.75876279078E+01  0.10500000000E+00 0. -1.
         13    1    4    4    0    0  0.21187195227E+01  0.63578139938E+01 -0.18936230808E+02  0.20087374976E+02  0.10500000000E+00 0.  1.
    3000001    1    5    5    0    0  0.14435792898E+01 -0.92160873785E+01  0.25101755623E+02  0.26797729812E+02  0.10000000000E+01 0. -1.
        -13    1    6    6    0    0 -0.11787961863E+01 -0.47308809296E+01  0.67968605276E+01  0.83653531217E+01  0.10500000000E+00 0. -1.
         13    1    6    6    0    0 -0.37948446347E+01 -0.15471118466E+02  0.22215752079E+02  0.27336916758E+02  0.10500000000E+00 0.  1.
</event>
<event>
11    0  0.3494755E-009  0.9118800E+02  0.7816531E-02  0.1126479E+00
         25   -1    0    0    0    0  0.00000000000E+00  0.00000000000E+00  0.99999998245E-14  0.12500000000E+03  0.12500000000E+03 0.  0.
    3000001    1    3    3    0    0  0.29318294736E+02 -0.31973074439E+02  0.21035780455E+02  0.48221820317E+02  0.10000000000E+01 0. -1.
    1000022    2    1    0    0    0  0.41204667523E+02 -0.37101233589E+02  0.27054087242E+02  0.62499999010E+02  0.10000004014E+02 0.  0.
    3000022    2    3    3    0    0  0.11886372788E+02 -0.51281591500E+01  0.60183067870E+01  0.14278178694E+02  0.24999183490E+00 0.  0.
    1000022    2    1    0    0    0 -0.41204667523E+02  0.37101233589E+02 -0.27054087242E+02  0.62500000990E+02  0.10000016383E+02 0.  0.
    3000022    2    5    5    0    0 -0.22194512896E+02  0.26363260739E+02 -0.15695719236E+02  0.37868668024E+02  0.24999223933E+00 0.  0.
        -13    1    4    4    0    0  0.87507495873E+01 -0.37995493361E+01  0.44615713031E+01  0.10532275964E+02  0.10500000000E+00 0.  1.
         13    1    4    4    0    0  0.31356232004E+01 -0.13286098139E+01  0.15567354839E+01  0.37459027295E+01  0.10500000000E+00 0. -1.
    3000001    1    5    5    0    0 -0.19010154628E+02  0.10737972850E+02 -0.11358368006E+02  0.24631332965E+02  0.10000000000E+01 0. -1.
        -13    1    6    6    0    0 -0.84479293145E+01  0.10010402967E+02 -0.60305197257E+01  0.14420605758E+02  0.10500000000E+00 0. -1.
         13    1    6    6    0    0 -0.13746583581E+02  0.16352857772E+02 -0.96651995102E+01  0.23448062266E+02  0.10500000000E+00 0.  1.
</event>
<event>
11    0  0.3494755E-009  0.9118800E+02  0.7816531E-02  0.1126479E+00
         25   -1    0    0    0    0  0.00000000000E+00  0.00000000000E+00  0.99999998245E-14  0.12500000000E+03  0.12500000000E+03 0.  0.
    3000001    1    3    3    0    0 -0.69552619161E+01  0.17044972185E+02  0.26849990924E+02  0.32570366251E+02  0.10000000000E+01 0.  1.
    1000022    2    1    0    0    0 -0.41025336279E+01  0.31220173714E+02  0.53053922233E+02  0.62499999767E+02  0.10000063881E+02 0.  0.
    3000022    2    3    3    0    0  0.28527282881E+01  0.14175201530E+02  0.26203931309E+02  0.29929633516E+02  0.25009849861E+00 0.  0.
    1000022    2    1    0    0    0  0.41025336279E+01 -0.31220173714E+02 -0.53053922233E+02  0.62500000233E+02  0.10000066796E+02 0.  0.
    3000022    2    5    5    0    0  0.41168138069E+01 -0.20300099319E+02 -0.25561271009E+02  0.32901113429E+02  0.25000199423E+00 0.  0.
        -13    1    4    4    0    0  0.15969754068E+01  0.76253450550E+01  0.14060337864E+02  0.16074835722E+02  0.10500000000E+00 0. -1.
         13    1    4    4    0    0  0.12557528814E+01  0.65498564746E+01  0.12143593445E+02  0.13854797793E+02  0.10500000000E+00 0.  1.
    3000001    1    5    5    0    0 -0.14280178989E-01 -0.10920074396E+02 -0.27492651224E+02  0.29598886804E+02  0.10000000000E+01 0. -1.
        -13    1    6    6    0    0  0.12542666401E+01 -0.62912557351E+01 -0.78481281569E+01  0.10136923798E+02  0.10500000000E+00 0. -1.
         13    1    6    6    0    0  0.28625471668E+01 -0.14008843584E+02 -0.17713142853E+02  0.22764189631E+02  0.10500000000E+00 0.  1.
</event>
<event>
11    0  0.3494755E-009  0.9118800E+02  0.7816531E-02  0.1126479E+00
         25   -1    0    0    0    0  0.00000000000E+00  0.00000000000E+00  0.99999998245E-14  0.12500000000E+03  0.12500000000E+03 0.  0.
    3000001    1    3    3    0    0 -0.25174258069E-01  0.17722907923E+01  0.74873934409E+00  0.21684692761E+01  0.10000000000E+01 0.  1.
    1000022    2    1    0    0    0 -0.43074212724E+02  0.42839074070E+02  0.10755269860E+02  0.62499999551E+02  0.10000002258E+02 0.  0.
    3000022    2    3    3    0    0 -0.43049038466E+02  0.41066783278E+02  0.10006530516E+02  0.60331530275E+02  0.24998149948E+00 0.  0.
    1000022    2    1    0    0    0  0.43074212724E+02 -0.42839074070E+02 -0.10755269860E+02  0.62500000449E+02  0.10000007869E+02 0.  0.
    3000022    2    5    5    0    0  0.41423801926E+02 -0.41704915414E+02 -0.86271447408E+01  0.59411459016E+02  0.25000066599E+00 0.  0.
        -13    1    4    4    0    0 -0.10905486237E+02  0.10438827266E+02  0.25267437991E+01  0.15306671878E+02  0.10500000000E+00 0.  1.
         13    1    4    4    0    0 -0.32143552229E+02  0.30627956012E+02  0.74797867172E+01  0.45024858397E+02  0.10500000000E+00 0. -1.
    3000001    1    5    5    0    0  0.16504107978E+01 -0.11341586564E+01 -0.21281251196E+01  0.30885414331E+01  0.10000000000E+01 0.  1.
        -13    1    6    6    0    0  0.11496832239E+02 -0.11614607024E+02 -0.24259795175E+01  0.16521883956E+02  0.10500000000E+00 0. -1.
         13    1    6    6    0    0  0.29926969687E+02 -0.30090308390E+02 -0.62011652233E+01  0.42889575060E+02  0.10500000000E+00 0.  1.
</event>
<event>
11    0  0.3494755E-009  0.9118800E+02  0.7816531E-02  0.1126479E+00
         25   -1    0    0    0    0  0.00000000000E+00  0.00000000000E+00  0.99999998245E-14  0.12500000000E+03  0.12500000000E+03 0.  0.
    3000001    1    3    3    0    0  0.19562851482E+01  0.67431363203E+01  0.42705502982E+00  0.71048796622E+01  0.10000000000E+01 0. -1.
    1000022    2    1    0    0    0 -0.93943576004E+01  0.60892027866E+02  0.31870051621E+01  0.62500000157E+02  0.10000000268E+02 0.  0.
    3000022    2    3    3    0    0 -0.11350642749E+02  0.54148891545E+02  0.27599501323E+01  0.55395120494E+02  0.25000694670E+00 0.  0.
    1000022    2    1    0    0    0  0.93943576004E+01 -0.60892027866E+02 -0.31870051621E+01  0.62499999843E+02  0.99999983103E+01 0.  0.
    3000022    2    5    5    0    0  0.22043088627E+01 -0.24010921948E+02  0.33574399132E+01  0.24345805632E+02  0.24999751321E+00 0.  0.
        -13    1    4    4    0    0 -0.77260899515E+01  0.36637135135E+02  0.18923525169E+01  0.37490854350E+02  0.10500000000E+00 0.  1.
         13    1    4    4    0    0 -0.36245527971E+01  0.17511756410E+02  0.86759761540E+00  0.17904266144E+02  0.10500000000E+00 0. -1.
    3000001    1    5    5    0    0  0.71900487377E+01 -0.36881105918E+02 -0.65444450753E+01  0.38154194211E+02  0.10000000000E+01 0. -1.
        -13    1    6    6    0    0  0.84049884119E+00 -0.94483654521E+01  0.12639955827E+01  0.95700970659E+01  0.10500000000E+00 0.  1.
         13    1    6    6    0    0  0.13638100215E+01 -0.14562556496E+02  0.20934443305E+01  0.14775708566E+02  0.10500000000E+00 0. -1.
</event>
<event>
11    0  0.3494755E-009  0.9118800E+02  0.7816531E-02  0.1126479E+00
         25   -1    0    0    0    0  0.00000000000E+00  0.00000000000E+00  0.99999998245E-14  0.12500000000E+03  0.12500000000E+03 0.  0.
    3000001    1    3    3    0    0  0.35334131661E+02  0.75387611040E+01  0.27725814589E+02  0.45552766918E+02  0.10000000000E+01 0. -1.
    1000022    2    1    0    0    0  0.44749889194E+02  0.74351019496E+01  0.41814071161E+02  0.62499999966E+02  0.10000006236E+02 0.  0.
    3000022    2    3    3    0    0  0.94157575332E+01 -0.10365915435E+00  0.14088256572E+02  0.16947233048E+02  0.24999918698E+00 0.  0.
    1000022    2    1    0    0    0 -0.44749889194E+02 -0.74351019496E+01 -0.41814071161E+02  0.62500000034E+02  0.10000006665E+02 0.  0.
    3000022    2    5    5    0    0 -0.31293556874E+02 -0.46526611339E+01 -0.34826803685E+02  0.47052127586E+02  0.24999594903E+00 0.  0.
        -13    1    4    4    0    0  0.62873801680E+01 -0.11791072031E+00  0.93675554788E+01  0.11283048035E+02  0.10500000000E+00 0.  1.
         13    1    4    4    0    0  0.31283773652E+01  0.14251565962E-01  0.47207010931E+01  0.56641850126E+01  0.10500000000E+00 0. -1.
    3000001    1    5    5    0    0 -0.13456332320E+02 -0.27824408158E+01 -0.69872674763E+01  0.15447872448E+02  0.10000000000E+01 0.  1.
        -13    1    6    6    0    0 -0.11941975127E+02 -0.17614336326E+01 -0.13199937163E+02  0.17887503585E+02  0.10500000000E+00 0.  1.
         13    1    6    6    0    0 -0.19351581747E+02 -0.28912275013E+01 -0.21626866522E+02  0.29164624001E+02  0.10500000000E+00 0. -1.
</event>
<event>
11    0  0.3494755E-009  0.9118800E+02  0.7816531E-02  0.1126479E+00
         25   -1    0    0    0    0  0.00000000000E+00  0.00000000000E+00  0.99999998245E-14  0.12500000000E+03  0.12500000000E+03 0.  0.
    3000001    1    3    3    0    0  0.18141614904E+02 -0.21287833818E+02  0.34797061322E+02  0.44655632754E+02  0.10000000000E+01 0. -1.
    1000022    2    1    0    0    0  0.29254233078E+02 -0.24873312545E+02  0.48288281053E+02  0.62500000159E+02  0.10000005139E+02 0.  0.
    3000022    2    3    3    0    0  0.11112618174E+02 -0.35854787272E+01  0.13491219731E+02  0.17844367404E+02  0.24999571479E+00 0.  0.
    1000022    2    1    0    0    0 -0.29254233078E+02  0.24873312545E+02 -0.48288281053E+02  0.62499999841E+02  0.10000003158E+02 0.  0.
    3000022    2    5    5    0    0 -0.60193675515E+01  0.64840171617E+01 -0.18309711196E+02  0.20336747934E+02  0.25005633339E+00 0.  0.
        -13    1    4    4    0    0  0.40452792612E+01 -0.13500792765E+01  0.49897914060E+01  0.65647575453E+01  0.10500000000E+00 0. -1.
         13    1    4    4    0    0  0.70673389128E+01 -0.22353994507E+01  0.85014283248E+01  0.11279609859E+02  0.10500000000E+00 0.  1.
    3000001    1    5    5    0    0 -0.23234865527E+02  0.18389295383E+02 -0.29978569857E+02  0.42163251907E+02  0.10000000000E+01 0. -1.
        -13    1    6    6    0    0 -0.45734318893E+01  0.49426165434E+01 -0.13966699429E+02  0.15505658821E+02  0.10500000000E+00 0.  1.
         13    1    6    6    0    0 -0.14459356622E+01  0.15414006184E+01 -0.43430117672E+01  0.48310891128E+01  0.10500000000E+00 0. -1.
</event>
<event>
11    0  0.3494755E-009  0.9118800E+02  0.7816531E-02  0.1126479E+00
         25   -1    0    0    0    0  0.00000000000E+00  0.00000000000E+00  0.99999998245E-14  0.12500000000E+03  0.12500000000E+03 0.  0.
    3000001    1    3    3    0    0 -0.28952089585E+02 -0.19754041071E+02  0.49978541216E+02  0.61051619242E+02  0.10000000000E+01 0.  1.
    1000022    2    1    0    0    0 -0.29140580912E+02 -0.18802707348E+02  0.51024845120E+02  0.62500000116E+02  0.99999967723E+01 0.  0.
    3000022    2    3    3    0    0 -0.18849132683E+00  0.95133372307E+00  0.10463039044E+01  0.14483808742E+01  0.24998092582E+00 0.  0.
    1000022    2    1    0    0    0  0.29140580912E+02  0.18802707348E+02 -0.51024845120E+02  0.62499999884E+02  0.99999953253E+01 0.  0.
    3000022    2    5    5    0    0  0.20702115470E+02  0.15989459164E+02 -0.30977843998E+02  0.40545403136E+02  0.25001491180E+00 0.  0.
        -13    1    4    4    0    0 -0.13288573852E+00  0.50284751159E+00  0.47264620866E+00  0.71058685463E+00  0.10500000000E+00 0.  1.
         13    1    4    4    0    0 -0.55605588317E-01  0.44848621148E+00  0.57365769577E+00  0.73779401953E+00  0.10500000000E+00 0. -1.
    3000001    1    5    5    0    0  0.84384654419E+01  0.28132481838E+01 -0.20047001122E+02  0.21954596748E+02  0.10000000000E+01 0.  1.
        -13    1    6    6    0    0  0.13117179276E+02  0.10097193047E+02 -0.19521402205E+02  0.25595114155E+02  0.10500000000E+00 0.  1.
         13    1    6    6    0    0  0.75849361943E+01  0.58922661173E+01 -0.11456441793E+02  0.14950288981E+02  0.10500000000E+00 0. -1.
</event>
<event>
11    0  0.3494755E-009  0.9118800E+02  0.7816531E-02  0.1126479E+00
         25   -1    0    0    0    0  0.00000000000E+00  0.00000000000E+00  0.99999998245E-14  0.12500000000E+03  0.12500000000E+03 0.  0.
    3000001    1    3    3    0    0 -0.36248325769E+01  0.14851460605E+02 -0.49944436640E+01  0.16113651381E+02  0.10000000000E+01 0. -1.
    1000022    2    1    0    0    0 -0.28140182507E+02  0.49698300045E+02 -0.23333644168E+02  0.62500000379E+02  0.10000009913E+02 0.  0.
    3000022    2    3    3    0    0 -0.24515349930E+02  0.34846839440E+02 -0.18339200504E+02  0.46386348998E+02  0.24999407532E+00 0.  0.
    1000022    2    1    0    0    0  0.28140182507E+02 -0.49698300045E+02  0.23333644168E+02  0.62499999621E+02  0.10000005179E+02 0.  0.
    3000022    2    5    5    0    0  0.21545138921E+02 -0.44410448276E+02  0.18521406389E+02  0.52721778481E+02  0.25000861706E+00 0.  0.
        -13    1    4    4    0    0 -0.12297298711E+02  0.17397658759E+02 -0.92233297248E+01  0.23216005731E+02  0.10500000000E+00 0. -1.
         13    1    4    4    0    0 -0.12218051219E+02  0.17449180681E+02 -0.91158707788E+01  0.23170343266E+02  0.10500000000E+00 0.  1.
    3000001    1    5    5    0    0  0.65950435865E+01 -0.52878517690E+01  0.48122377787E+01  0.97782211407E+01  0.10000000000E+01 0. -1.
        -13    1    6    6    0    0  0.53700980229E+01 -0.11110060309E+02  0.46510741846E+01  0.13187680195E+02  0.10500000000E+00 0.  1.
         13    1    6    6    0    0  0.16175040898E+02 -0.33300387967E+02  0.13870332204E+02  0.39534098286E+02  0.10500000000E+00 0. -1.
</event>
<event>
11    0  0.3494755E-009  0.9118800E+02  0.7816531E-02  0.1126479E+00
         25   -1    0    0    0    0  0.00000000000E+00  0.00000000000E+00  0.99999998245E-14  0.12500000000E+03  0.12500000000E+03 0.  0.
    3000001    1    3    3    0    0  0.48927608927E-01 -0.72043888860E+00  0.60753680695E+00  0.13749643904E+01  0.10000000000E+01 0.  1.
    1000022    2    1    0    0    0 -0.10744373247E+02 -0.59654213529E+02 -0.11497099587E+02  0.62499999037E+02  0.99999916267E+01 0.  0.
    3000022    2    3    3    0    0 -0.10793300856E+02 -0.58933774640E+02 -0.12104636394E+02  0.61125034647E+02  0.25000328053E+00 0.  0.
    1000022    2    1    0    0    0  0.10744373247E+02  0.59654213529E+02  0.11497099587E+02  0.62500000963E+02  0.10000003663E+02 0.  0.
    3000022    2    5    5    0    0 -0.10837925075E+01  0.82519063320E+01  0.39213925446E+01  0.92037156566E+01  0.24999617352E+00 0.  0.
        -13    1    4    4    0    0 -0.60082279912E+01 -0.32912247811E+02 -0.66945506571E+01  0.34119538289E+02  0.10500000000E+00 0. -1.
         13    1    4    4    0    0 -0.47850728652E+01 -0.26021526829E+02 -0.54100857368E+01  0.27005496358E+02  0.10500000000E+00 0.  1.
    3000001    1    5    5    0    0  0.11828165755E+02  0.51402307197E+02  0.75757070424E+01  0.53296285306E+02  0.10000000000E+01 0. -1.
        -13    1    6    6    0    0 -0.28862227997E+00  0.22427167510E+01  0.11062138042E+01  0.25194870959E+01  0.10500000000E+00 0. -1.
         13    1    6    6    0    0 -0.79517022758E+00  0.60091895810E+01  0.28151787404E+01  0.66842285607E+01  0.10500000000E+00 0. -1.
</event>
<event>
11    0  0.3494755E-009  0.9118800E+02  0.7816531E-02  0.1126479E+00
         25   -1    0    0    0    0  0.00000000000E+00  0.00000000000E+00  0.99999998245E-14  0.12500000000E+03  0.12500000000E+03 0.  0.
    3000001    1    3    3    0    0 -0.25765052761E+00  0.26875873641E+01 -0.10637399719E+01  0.30693732849E+01  0.10000000000E+01 0.  1.
    1000022    2    1    0    0    0 -0.17622811263E+02  0.57051943457E+02  0.15516515596E+02  0.62499999968E+02  0.10000000536E+02 0.  0.
    3000022    2    3    3    0    0 -0.17365160736E+02  0.54364356093E+02  0.16580255568E+02  0.59430626683E+02  0.24998496369E+00 0.  0.
    1000022    2    1    0    0    0  0.17622811263E+02 -0.57051943457E+02 -0.15516515596E+02  0.62500000032E+02  0.10000000938E+02 0.  0.
    3000022    2    5    5    0    0  0.73957092969E+00 -0.37243719567E+01 -0.37261110595E+01  0.53258159505E+01  0.25000055873E+00 0.  0.
        -13    1    4    4    0    0 -0.12538857333E+02  0.39328857411E+02  0.11959993435E+02  0.42977138533E+02  0.10500000000E+00 0. -1.
         13    1    4    4    0    0 -0.48263034029E+01  0.15035498681E+02  0.46202621330E+01  0.16453488150E+02  0.10500000000E+00 0.  1.
    3000001    1    5    5    0    0  0.16883240333E+02 -0.53327571500E+02 -0.11790404537E+02  0.57174184082E+02  0.10000000000E+01 0. -1.
        -13    1    6    6    0    0  0.37102213115E+00 -0.15719270716E+01 -0.16274784173E+01  0.22952828015E+01  0.10500000000E+00 0.  1.
         13    1    6    6    0    0  0.36854879855E+00 -0.21524448851E+01 -0.20986326421E+01  0.30305331490E+01  0.10500000000E+00 0. -1.
</event>
<event>
11    0  0.3494755E-009  0.9118800E+02  0.7816531E-02  0.1126479E+00
         25   -1    0    0    0    0  0.00000000000E+00  0.00000000000E+00  0.99999998245E-14  0.12500000000E+03  0.12500000000E+03 0.  0.
    3000001    1    3    3    0    0 -0.15785311042E+01 -0.27225803584E+02 -0.28568615628E+02  0.39508251545E+02  0.10000000000E+01 0. -1.
    1000022    2    1    0    0    0 -0.34179295587E+00 -0.47454653681E+02 -0.39423204822E+02  0.62499999655E+02  0.99999950025E+01 0.  0.
    3000022    2    3    3    0    0  0.12367381483E+01 -0.20228850097E+02 -0.10854589194E+02  0.22991748111E+02  0.24995419448E+00 0.  0.
    1000022    2    1    0    0    0  0.34179295587E+00  0.47454653681E+02  0.39423204822E+02  0.62500000345E+02  0.99999993100E+01 0.  0.
    3000022    2    5    5    0    0 -0.11610400295E+01  0.34472195161E+02  0.33615090678E+02  0.48163441269E+02  0.25000086852E+00 0.  0.
        -13    1    4    4    0    0  0.91156347988E+00 -0.15149837658E+02 -0.81539966246E+01  0.17229254627E+02  0.10500000000E+00 0.  1.
         13    1    4    4    0    0  0.32517466844E+00 -0.50790124392E+01 -0.27005925696E+01  0.57624934837E+01  0.10500000000E+00 0. -1.
    3000001    1    5    5    0    0  0.15028329854E+01  0.12982458520E+02  0.58081141441E+01  0.14336559075E+02  0.10000000000E+01 0. -1.
        -13    1    6    6    0    0 -0.85716455767E+00  0.25620915831E+02  0.25024445172E+02  0.35824571738E+02  0.10500000000E+00 0. -1.
         13    1    6    6    0    0 -0.30387547183E+00  0.88512793301E+01  0.85906455064E+01  0.12338869531E+02  0.10500000000E+00 0.  1.
</event>
<event>
11    0  0.3494755E-009  0.9118800E+02  0.7816531E-02  0.1126479E+00
         25   -1    0    0    0    0  0.00000000000E+00  0.00000000000E+00  0.99999998245E-14  0.12500000000E+03  0.12500000000E+03 0.  0.
    3000001    1    3    3    0    0 -0.81890287990E+00 -0.84982801807E+01 -0.19338695978E+02  0.21163093585E+02  0.10000000000E+01 0. -1.
    1000022    2    1    0    0    0 -0.15716944838E+02 -0.21963166916E+02 -0.55469330295E+02  0.62500002640E+02  0.10000033529E+02 0.  0.
    3000022    2    3    3    0    0 -0.14898041958E+02 -0.13464886736E+02 -0.36130634317E+02  0.41336909055E+02  0.24997015289E+00 0.  0.
    1000022    2    1    0    0    0  0.15716944838E+02  0.21963166916E+02  0.55469330295E+02  0.62499997360E+02  0.10000000531E+02 0.  0.
    3000022    2    5    5    0    0  0.13048118223E+02  0.17904618906E+02  0.51773444002E+02  0.56315013695E+02  0.24999255761E+00 0.  0.
        -13    1    4    4    0    0 -0.40014510491E+01 -0.36284254802E+01 -0.97907772926E+01  0.11182460684E+02  0.10500000000E+00 0.  1.
         13    1    4    4    0    0 -0.10896590909E+02 -0.98364612554E+01 -0.26339857025E+02  0.30154448371E+02  0.10500000000E+00 0. -1.
    3000001    1    5    5    0    0  0.26688266144E+01  0.40585480103E+01  0.36958862931E+01  0.61849836654E+01  0.10000000000E+01 0. -1.
        -13    1    6    6    0    0  0.36677199200E+01  0.49668163743E+01  0.14442853525E+02  0.15707592981E+02  0.10500000000E+00 0.  1.
         13    1    6    6    0    0  0.93803983034E+01  0.12937802532E+02  0.37330590477E+02  0.40607420714E+02  0.10500000000E+00 0. -1.
</event>
<event>
11    0  0.3494755E-009  0.9118800E+02  0.7816531E-02  0.1126479E+00
         25   -1    0    0    0    0  0.00000000000E+00  0.00000000000E+00  0.99999998245E-14  0.12500000000E+03  0.12500000000E+03 0.  0.
    3000001    1    3    3    0    0  0.48390738951E+01 -0.94506617751E+01 -0.10644581174E+02  0.15067805166E+02  0.10000000000E+01 0. -1.
    1000022    2    1    0    0    0  0.98940953884E+01 -0.28819018313E+02 -0.53645327184E+02  0.62500000273E+02  0.99999982680E+01 0.  0.
    3000022    2    3    3    0    0  0.50550214933E+01 -0.19368356538E+02 -0.43000746010E+02  0.47432195107E+02  0.24999594411E+00 0.  0.
    1000022    2    1    0    0    0 -0.98940953884E+01  0.28819018313E+02  0.53645327184E+02  0.62499999727E+02  0.99999948574E+01 0.  0.
    3000022    2    5    5    0    0  0.19881405339E+00  0.14595217539E+02  0.24186296273E+02  0.28250651826E+02  0.24999827545E+00 0.  0.
        -13    1    4    4    0    0  0.18247867974E+01 -0.71893545400E+01 -0.15857204140E+02  0.17506530602E+02  0.10500000000E+00 0.  1.
         13    1    4    4    0    0  0.32302346959E+01 -0.12179001998E+02 -0.27143541870E+02  0.29925664506E+02  0.10500000000E+00 0. -1.
    3000001    1    5    5    0    0 -0.10092909442E+02  0.14223800774E+02  0.29459030911E+02  0.34249347901E+02  0.10000000000E+01 0.  1.
        -13    1    6    6    0    0  0.11621334695E+00  0.93764162707E+01  0.15427281935E+02  0.18053884361E+02  0.10500000000E+00 0. -1.
         13    1    6    6    0    0  0.82600706437E-01  0.52188012687E+01  0.87590143383E+01  0.10196767465E+02  0.10500000000E+00 0.  1.
</event>
<event>
11    0  0.3494755E-009  0.9118800E+02  0.7816531E-02  0.1126479E+00
         25   -1    0    0    0    0  0.00000000000E+00  0.00000000000E+00  0.99999998245E-14  0.12500000000E+03  0.12500000000E+03 0.  0.
    3000001    1    3    3    0    0 -0.35926443513E+02  0.34706410490E+02 -0.11737598445E+02  0.51322660588E+02  0.10000000000E+01 0. -1.
    1000022    2    1    0    0    0 -0.40377358653E+02  0.43327224676E+02 -0.17282085883E+02  0.62500000318E+02  0.10000002871E+02 0.  0.
    3000022    2    3    3    0    0 -0.44509151392E+01  0.86208141864E+01 -0.55444874384E+01  0.11177339730E+02  0.24999934644E+00 0.  0.
    1000022    2    1    0    0    0  0.40377358653E+02 -0.43327224676E+02  0.17282085883E+02  0.62499999682E+02  0.99999988908E+01 0.  0.
    3000022    2    5    5    0    0  0.63300819100E+01 -0.43847239621E+01  0.54213857599E+01  0.94207040676E+01  0.25000072223E+00 0.  0.
        -13    1    4    4    0    0 -0.18345219829E+01  0.34519708679E+01 -0.21846187317E+01  0.44794148927E+01  0.10500000000E+00 0. -1.
         13    1    4    4    0    0 -0.26163931564E+01  0.51688433185E+01 -0.33598687067E+01  0.66979248373E+01  0.10500000000E+00 0.  1.
    3000001    1    5    5    0    0  0.34047276743E+02 -0.38942500714E+02  0.11860700123E+02  0.53079295614E+02  0.10000000000E+01 0.  1.
        -13    1    6    6    0    0  0.34707510097E+01 -0.24809435639E+01  0.30283649418E+01  0.52328971669E+01  0.10500000000E+00 0.  1.
         13    1    6    6    0    0  0.28593309003E+01 -0.19037803982E+01  0.23930208181E+01  0.41878069008E+01  0.10500000000E+00 0. -1.
</event>
<event>
11    0  0.3494755E-009  0.9118800E+02  0.7816531E-02  0.1126479E+00
         25   -1    0    0    0    0  0.00000000000E+00  0.00000000000E+00  0.99999998245E-14  0.12500000000E+03  0.12500000000E+03 0.  0.
    3000001    1    3    3    0    0  0.48860488570E+02  0.98864885233E+01 -0.41216927757E+01  0.50030774030E+02  0.10000000000E+01 0.  1.
    1000022    2    1    0    0    0  0.61101975327E+02  0.75299827281E+01 -0.40122302059E+01  0.62500000276E+02  0.10000000727E+02 0.  0.
    3000022    2    3    3    0    0  0.12241486756E+02 -0.23565057952E+01  0.10946256984E+00  0.12469226246E+02  0.25000712022E+00 0.  0.
    1000022    2    1    0    0    0 -0.61101975327E+02 -0.75299827281E+01  0.40122302059E+01  0.62499999724E+02  0.99999972812E+01 0.  0.
    3000022    2    5    5    0    0 -0.25605553596E+02 -0.45829587784E+01  0.63938907226E+01  0.26787911958E+02  0.25000471807E+00 0.  0.
        -13    1    4    4    0    0  0.83506796041E+01 -0.16467035698E+01  0.42577862770E-01  0.85122453190E+01  0.10500000000E+00 0. -1.
         13    1    4    4    0    0  0.38908071521E+01 -0.70980222542E+00  0.66884707075E-01  0.39569809272E+01  0.10500000000E+00 0.  1.
    3000001    1    5    5    0    0 -0.35496421731E+02 -0.29470239497E+01 -0.23816605168E+01  0.35712087767E+02  0.10000000000E+01 0.  1.
        -13    1    6    6    0    0 -0.86070454672E+01 -0.15244098455E+01  0.20954405563E+01  0.89892687787E+01  0.10500000000E+00 0.  1.
         13    1    6    6    0    0 -0.16998508129E+02 -0.30585489329E+01  0.42984501663E+01  0.17798643179E+02  0.10500000000E+00 0. -1.
</event>
<event>
11    0  0.3494755E-009  0.9118800E+02  0.7816531E-02  0.1126479E+00
         25   -1    0    0    0    0  0.00000000000E+00  0.00000000000E+00  0.99999998245E-14  0.12500000000E+03  0.12500000000E+03 0.  0.
    3000001    1    3    3    0    0 -0.24257568214E+02 -0.19769484816E+01 -0.10895771761E+02  0.26684373391E+02  0.10000000000E+01 0. -1.
    1000022    2    1    0    0    0 -0.54793041444E+02  0.64353348274E+01 -0.27614465261E+02  0.62499996137E+02  0.99999950217E+01 0.  0.
    3000022    2    3    3    0    0 -0.30535473230E+02  0.84122833090E+01 -0.16718693500E+02  0.35815622747E+02  0.24996908032E+00 0.  0.
    1000022    2    1    0    0    0  0.54793041444E+02 -0.64353348274E+01  0.27614465261E+02  0.62500003863E+02  0.10000043305E+02 0.  0.
    3000022    2    5    5    0    0  0.10874901594E+02 -0.42210153105E+01  0.90102810101E+01  0.14742052792E+02  0.25000340206E+00 0.  0.
        -13    1    4    4    0    0 -0.13207009987E+02  0.35811402449E+01 -0.71830101977E+01  0.15454977798E+02  0.10500000000E+00 0. -1.
         13    1    4    4    0    0 -0.17328463243E+02  0.48311430641E+01 -0.95356833020E+01  0.20360644949E+02  0.10500000000E+00 0.  1.
    3000001    1    5    5    0    0  0.43918139851E+02 -0.22143195169E+01  0.18604184251E+02  0.47757951071E+02  0.10000000000E+01 0.  1.
        -13    1    6    6    0    0  0.25034356458E+01 -0.97764848140E+00  0.20837042883E+01  0.34023279011E+01  0.10500000000E+00 0. -1.
         13    1    6    6    0    0  0.83714659480E+01 -0.32433668291E+01  0.69265767218E+01  0.11339724890E+02  0.10500000000E+00 0.  1.
</event>
<event>
11    0  0.3494755E-009  0.9118800E+02  0.7816531E-02  0.1126479E+00
         25   -1    0    0    0    0  0.00000000000E+00  0.00000000000E+00  0.99999998245E-14  0.12500000000E+03  0.12500000000E+03 0.  0.
    3000001    1    3    3    0    0 -0.28296865868E+02  0.22500811646E+02 -0.34498283177E+02  0.49981303352E+02  0.10000000000E+01 0. -1.
    1000022    2    1    0    0    0 -0.32252190635E+02  0.31785368746E+02 -0.41901506733E+02  0.62500001480E+02  0.10000022572E+02 0.  0.
    3000022    2    3    3    0    0 -0.39553247669E+01  0.92845571007E+01 -0.74032235565E+01  0.12518698128E+02  0.24997844335E+00 0.  0.
    1000022    2    1    0    0    0  0.32252190635E+02 -0.31785368746E+02  0.41901506733E+02  0.62499998520E+02  0.10000004071E+02 0.  0.
    3000022    2    5    5    0    0  0.23029337282E+02 -0.28202707423E+02  0.33605330378E+02  0.49549205948E+02  0.24999730400E+00 0.  0.
        -13    1    4    4    0    0 -0.23664025381E+01  0.54542738816E+01 -0.42983663543E+01  0.73372980628E+01  0.10500000000E+00 0.  1.
         13    1    4    4    0    0 -0.15889222288E+01  0.38302832191E+01 -0.31048572022E+01  0.51814000650E+01  0.10500000000E+00 0. -1.
    3000001    1    5    5    0    0  0.92228533525E+01 -0.35826613232E+01  0.82961763548E+01  0.12950792571E+02  0.10000000000E+01 0.  1.
        -13    1    6    6    0    0  0.15405279855E+02 -0.18820865283E+02  0.22508695412E+02  0.33139100947E+02  0.10500000000E+00 0.  1.
         13    1    6    6    0    0  0.76240574273E+01 -0.93818421401E+01  0.11096634966E+02  0.16410105002E+02  0.10500000000E+00 0. -1.
</event>
<event>
11    0  0.3494755E-009  0.9118800E+02  0.7816531E-02  0.1126479E+00
         25   -1    0    0    0    0  0.00000000000E+00  0.00000000000E+00  0.99999998245E-14  0.12500000000E+03  0.12500000000E+03 0.  0.
    3000001    1    3    3    0    0  0.28108234719E+01 -0.21999011925E+02 -0.49165040544E+02  0.53944957744E+02  0.10000000000E+01 0.  1.
    1000022    2    1    0    0    0  0.26689573542E+01 -0.28599148624E+02 -0.54600505532E+02  0.62499997826E+02  0.99999944254E+01 0.  0.
    3000022    2    3    3    0    0 -0.14186611776E+00 -0.66001366991E+01 -0.54354649872E+01  0.85550400816E+01  0.25000145679E+00 0.  0.
    1000022    2    1    0    0    0 -0.26689573542E+01  0.28599148624E+02  0.54600505532E+02  0.62500002174E+02  0.10000021606E+02 0.  0.
    3000022    2    5    5    0    0 -0.34640898039E+01  0.20100161981E+02  0.28696749817E+02  0.35207703449E+02  0.25000459995E+00 0.  0.
        -13    1    4    4    0    0  0.48506442159E-02 -0.21065776530E+01 -0.17267953445E+01  0.27259017038E+01  0.10500000000E+00 0.  1.
         13    1    4    4    0    0 -0.14671676198E+00 -0.44935590461E+01 -0.37086696427E+01  0.58291383778E+01  0.10500000000E+00 0. -1.
    3000001    1    5    5    0    0  0.79513244968E+00  0.84989866431E+01  0.25903755715E+02  0.27292298725E+02  0.10000000000E+01 0. -1.
        -13    1    6    6    0    0 -0.18118950796E+01  0.10620776799E+02  0.15270708924E+02  0.18689286761E+02  0.10500000000E+00 0. -1.
         13    1    6    6    0    0 -0.16521947243E+01  0.94793851822E+01  0.13426040893E+02  0.16518416689E+02  0.10500000000E+00 0.  1.
</event>
<event>
11    0  0.3494755E-009  0.9118800E+02  0.7816531E-02  0.1126479E+00
         25   -1    0    0    0    0  0.00000000000E+00  0.00000000000E+00  0.99999998245E-14  0.12500000000E+03  0.12500000000E+03 0.  0.
    3000001    1    3    3    0    0 -0.12118096162E+02 -0.12214861855E+02  0.18446160844E+01  0.17333600700E+02  0.10000000000E+01 0. -1.
    1000022    2    1    0    0    0 -0.30722165211E+02 -0.52620539993E+02  0.96683598464E+01  0.62500000621E+02  0.10000011555E+02 0.  0.
    3000022    2    3    3    0    0 -0.18604069049E+02 -0.40405678137E+02  0.78237437620E+01  0.45166399920E+02  0.25000878911E+00 0.  0.
    1000022    2    1    0    0    0  0.30722165211E+02  0.52620539993E+02 -0.96683598464E+01  0.62499999379E+02  0.10000003796E+02 0.  0.
    3000022    2    5    5    0    0  0.22502781106E+02  0.40885750002E+02 -0.32908892419E+01  0.46785811443E+02  0.24997927373E+00 0.  0.
        -13    1    4    4    0    0 -0.69224418986E+01 -0.15021685376E+02  0.28486650481E+01  0.16783836002E+02  0.10500000000E+00 0. -1.
         13    1    4    4    0    0 -0.11681627150E+02 -0.25383992761E+02  0.49750787139E+01  0.28382563919E+02  0.10500000000E+00 0.  1.
    3000001    1    5    5    0    0  0.82193841048E+01  0.11734789991E+02 -0.63774706045E+01  0.15714187936E+02  0.10000000000E+01 0. -1.
        -13    1    6    6    0    0  0.10194256829E+02  0.18651755748E+02 -0.14749657976E+01  0.21307215067E+02  0.10500000000E+00 0.  1.
         13    1    6    6    0    0  0.12308524278E+02  0.22233994253E+02 -0.18159234443E+01  0.25478596376E+02  0.10500000000E+00 0. -1.
</event>
<event>
11    0  0.3494755E-009  0.9118800E+02  0.7816531E-02  0.1126479E+00
         25   -1    0    0    0    0  0.00000000000E+00  0.00000000000E+00  0.99999998245E-14  0.12500000000E+03  0.12500000000E+03 0.  0.
    3000001    1    3    3    0    0 -0.28541267578E+02 -0.39460447754E+02 -0.26882896040E+02  0.55636507722E+02  0.10000000000E+01 0. -1.
    1000022    2    1    0    0    0 -0.29889679839E+02 -0.46072651838E+02 -0.28109920727E+02  0.62500001587E+02  0.10000017341E+02 0.  0.
    3000022    2    3    3    0    0 -0.13484122604E+01 -0.66122040843E+01 -0.12270246869E+01  0.68634938657E+01  0.24999997168E+00 0.  0.
    1000022    2    1    0    0    0  0.29889679839E+02  0.46072651838E+02  0.28109920727E+02  0.62499998413E+02  0.99999975004E+01 0.  0.
    3000022    2    5    5    0    0  0.26289776153E+02  0.44508201609E+02  0.25172792309E+02  0.57496646095E+02  0.24999784053E+00 0.  0.
        -13    1    4    4    0    0 -0.68550848656E+00 -0.33146440322E+01 -0.68371413517E+00  0.34547470188E+01  0.10500000000E+00 0. -1.
         13    1    4    4    0    0 -0.66290377383E+00 -0.32975600521E+01 -0.54331055174E+00  0.34087468469E+01  0.10500000000E+00 0.  1.
    3000001    1    5    5    0    0  0.35999036857E+01  0.15644502292E+01  0.29371284183E+01  0.50033523174E+01  0.10000000000E+01 0.  1.
        -13    1    6    6    0    0  0.88622663559E+01  0.14900773518E+02  0.84283132808E+01  0.19277455905E+02  0.10500000000E+00 0.  1.
         13    1    6    6    0    0  0.17427509797E+02  0.29607428091E+02  0.16744479028E+02  0.38219190191E+02  0.10500000000E+00 0. -1.
</event>
<event>
11    0  0.3494755E-009  0.9118800E+02  0.7816531E-02  0.1126479E+00
         25   -1    0    0    0    0  0.00000000000E+00  0.00000000000E+00  0.99999998245E-14  0.12500000000E+03  0.12500000000E+03 0.  0.
    3000001    1    3    3    0    0 -0.22201051387E+02 -0.11531401923E+02 -0.37593087841E+02  0.45167468010E+02  0.10000000000E+01 0.  1.
    1000022    2    1    0    0    0 -0.25239769036E+02 -0.14512907191E+02 -0.54392823866E+02  0.62500002741E+02  0.10000031921E+02 0.  0.
    3000022    2    3    3    0    0 -0.30387176485E+01 -0.29815052677E+01 -0.16799736025E+02  0.17332534731E+02  0.24990215775E+00 0.  0.
    1000022    2    1    0    0    0  0.25239769036E+02  0.14512907191E+02  0.54392823866E+02  0.62499997259E+02  0.99999976540E+01 0.  0.
    3000022    2    5    5    0    0  0.15783976257E+02  0.11705536201E+02  0.27204275192E+02  0.33560223107E+02  0.25000404076E+00 0.  0.
        -13    1    4    4    0    0 -0.13692868218E+01 -0.13011469347E+01 -0.72167403234E+01  0.74605827950E+01  0.10500000000E+00 0.  1.
         13    1    4    4    0    0 -0.16694308267E+01 -0.16803583331E+01 -0.95829957015E+01  0.98719519361E+01  0.10500000000E+00 0. -1.
    3000001    1    5    5    0    0  0.94557927784E+01  0.28073709898E+01  0.27188548674E+02  0.28939774152E+02  0.10000000000E+01 0.  1.
        -13    1    6    6    0    0  0.11314222245E+02  0.84119506971E+01  0.19579885205E+02  0.24127898151E+02  0.10500000000E+00 0. -1.
         13    1    6    6    0    0  0.44697540119E+01  0.32935855039E+01  0.76243899868E+01  0.94323249556E+01  0.10500000000E+00 0.  1.
</event>
<event>
11    0  0.3494755E-009  0.9118800E+02  0.7816531E-02  0.1126479E+00
         25   -1    0    0    0    0  0.00000000000E+00  0.00000000000E+00  0.99999998245E-14  0.12500000000E+03  0.12500000000E+03 0.  0.
    3000001    1    3    3    0    0  0.26357073042E+02 -0.29906081823E+02  0.24623740597E+02  0.46865740476E+02  0.10000000000E+01 0.  1.
    1000022    2    1    0    0    0  0.39135951194E+02 -0.37475402454E+02  0.29499513214E+02  0.62499997823E+02  0.99999991531E+01 0.  0.
    3000022    2    3    3    0    0  0.12778878152E+02 -0.75693206306E+01  0.48757726168E+01  0.15634257347E+02  0.25000509317E+00 0.  0.
    1000022    2    1    0    0    0 -0.39135951194E+02  0.37475402454E+02 -0.29499513214E+02  0.62500002177E+02  0.10000026367E+02 0.  0.
    3000022    2    5    5    0    0 -0.25956350966E+02  0.18737899010E+02 -0.14858177462E+02  0.35294035735E+02  0.25001230189E+00 0.  0.
        -13    1    4    4    0    0  0.66019589876E+01 -0.38911908591E+01  0.25847900673E+01  0.80882256069E+01  0.10500000000E+00 0. -1.
         13    1    4    4    0    0  0.61769191648E+01 -0.36781297714E+01  0.22909825495E+01  0.75460317403E+01  0.10500000000E+00 0.  1.
    3000001    1    5    5    0    0 -0.13179600228E+02  0.18737503443E+02 -0.14641335752E+02  0.27205966443E+02  0.10000000000E+01 0. -1.
        -13    1    6    6    0    0 -0.67668891927E+01  0.48464533710E+01 -0.38579584161E+01  0.91746263010E+01  0.10500000000E+00 0. -1.
         13    1    6    6    0    0 -0.19189461774E+02  0.13891445639E+02 -0.11000219046E+02  0.26119409434E+02  0.10500000000E+00 0.  1.
</event>
<event>
11    0  0.3494755E-009  0.9118800E+02  0.7816531E-02  0.1126479E+00
         25   -1    0    0    0    0  0.00000000000E+00  0.00000000000E+00  0.99999998245E-14  0.12500000000E+03  0.12500000000E+03 0.  0.
    3000001    1    3    3    0    0 -0.12097441389E+01  0.17661222910E+01 -0.86597786818E+00  0.25164630927E+01  0.10000000000E+01 0. -1.
    1000022    2    1    0    0    0 -0.41550253227E+02  0.10224256366E+02 -0.44444246724E+02  0.62500000208E+02  0.99999998828E+01 0.  0.
    3000022    2    3    3    0    0 -0.40340509088E+02  0.84581340749E+01 -0.43578268856E+02  0.59983537115E+02  0.25000573139E+00 0.  0.
    1000022    2    1    0    0    0  0.41550253227E+02 -0.10224256366E+02  0.44444246724E+02  0.62499999792E+02  0.99999972832E+01 0.  0.
    3000022    2    5    5    0    0  0.12527082787E+02 -0.42433249340E+01  0.20459340358E+02  0.24363512059E+02  0.25000468627E+00 0.  0.
        -13    1    4    4    0    0 -0.22987181838E+02  0.47547612893E+01 -0.24794450479E+02  0.34143726852E+02  0.10500000000E+00 0. -1.
         13    1    4    4    0    0 -0.17353327250E+02  0.37033727856E+01 -0.18783818377E+02  0.25839810263E+02  0.10500000000E+00 0.  1.
    3000001    1    5    5    0    0  0.29023170440E+02 -0.59809314320E+01  0.23984906367E+02  0.38136487733E+02  0.10000000000E+01 0. -1.
        -13    1    6    6    0    0  0.56275350471E+01 -0.18398796930E+01  0.91987591685E+01  0.10939949873E+02  0.10500000000E+00 0.  1.
         13    1    6    6    0    0  0.68995477399E+01 -0.24034452409E+01  0.11260581189E+02  0.13423562186E+02  0.10500000000E+00 0. -1.
</event>
<event>
11    0  0.3494755E-009  0.9118800E+02  0.7816531E-02  0.1126479E+00
         25   -1    0    0    0    0  0.00000000000E+00  0.00000000000E+00  0.99999998245E-14  0.12500000000E+03  0.12500000000E+03 0.  0.
    3000001    1    3    3    0    0 -0.18834484728E+02  0.21204854875E+01  0.35619143350E+02  0.40360347455E+02  0.10000000000E+01 0. -1.
    1000022    2    1    0    0    0 -0.26582769266E+02  0.10143852018E+02  0.54742201599E+02  0.62499999329E+02  0.99999962269E+01 0.  0.
    3000022    2    3    3    0    0 -0.77482845380E+01  0.80233665309E+01  0.19123058249E+02  0.22139651874E+02  0.25000905989E+00 0.  0.
    1000022    2    1    0    0    0  0.26582769266E+02 -0.10143852018E+02 -0.54742201599E+02  0.62500000671E+02  0.10000004618E+02 0.  0.
    3000022    2    5    5    0    0  0.13200657873E+02 -0.34357253110E+01 -0.35963297940E+02  0.38464046521E+02  0.24999876030E+00 0.  0.
        -13    1    4    4    0    0 -0.42741181046E+01  0.43889247465E+01  0.10380472730E+02  0.12053878426E+02  0.10500000000E+00 0. -1.
         13    1    4    4    0    0 -0.34741664333E+01  0.36344417845E+01  0.87425855194E+01  0.10085773449E+02  0.10500000000E+00 0.  1.
    3000001    1    5    5    0    0  0.13382111393E+02 -0.67081267075E+01 -0.18778903659E+02  0.24035954150E+02  0.10000000000E+01 0. -1.
        -13    1    6    6    0    0  0.10159780343E+02 -0.26453722324E+01 -0.27697326007E+02  0.29620466299E+02  0.10500000000E+00 0. -1.
         13    1    6    6    0    0  0.30408775302E+01 -0.79035307860E+00 -0.82659719332E+01  0.88435802220E+01  0.10500000000E+00 0.  1.
</event>
<event>
11    0  0.3494755E-009  0.9118800E+02  0.7816531E-02  0.1126479E+00
         25   -1    0    0    0    0  0.00000000000E+00  0.00000000000E+00  0.99999998245E-14  0.12500000000E+03  0.12500000000E+03 0.  0.
    3000001    1    3    3    0    0 -0.27073310284E+01  0.22118057648E+02 -0.35452349316E+02  0.41885644169E+02  0.10000000000E+01 0.  1.
    1000022    2    1    0    0    0 -0.10464311804E+02  0.33980732482E+02 -0.50418825120E+02  0.62500000901E+02  0.10000009229E+02 0.  0.
    3000022    2    3    3    0    0 -0.77569807756E+01  0.11862674833E+02 -0.14966475805E+02  0.20614356732E+02  0.25000102736E+00 0.  0.
    1000022    2    1    0    0    0  0.10464311804E+02 -0.33980732482E+02  0.50418825120E+02  0.62499999099E+02  0.99999979665E+01 0.  0.
    3000022    2    5    5    0    0  0.90678224133E+01 -0.18025737036E+02  0.34027868977E+02  0.39561483332E+02  0.24999463268E+00 0.  0.
        -13    1    4    4    0    0 -0.59414400234E+01  0.90665136199E+01 -0.11430117302E+02  0.15753126207E+02  0.10500000000E+00 0.  1.
         13    1    4    4    0    0 -0.18155407522E+01  0.27961612133E+01 -0.35363585030E+01  0.48612305248E+01  0.10500000000E+00 0. -1.
    3000001    1    5    5    0    0  0.13964893907E+01 -0.15954995445E+02  0.16390956143E+02  0.22938515767E+02  0.10000000000E+01 0. -1.
        -13    1    6    6    0    0  0.24182708642E+01 -0.48678782727E+01  0.91221078265E+01  0.10619234862E+02  0.10500000000E+00 0. -1.
         13    1    6    6    0    0  0.66495515492E+01 -0.13157858763E+02  0.24905761151E+02  0.28942248471E+02  0.10500000000E+00 0.  1.
</event>
<event>
11    0  0.3494755E-009  0.9118800E+02  0.7816531E-02  0.1126479E+00
         25   -1    0    0    0    0  0.00000000000E+00  0.00000000000E+00  0.99999998245E-14  0.12500000000E+03  0.12500000000E+03 0.  0.
    3000001    1    3    3    0    0 -0.53698518071E+01  0.20485989848E+02  0.70337929796E+01  0.22337979590E+02  0.10000000000E+01 0. -1.
    1000022    2    1    0    0    0 -0.99874892692E+01  0.52462990095E+02  0.30889069487E+02  0.62499999400E+02  0.10000001984E+02 0.  0.
    3000022    2    3    3    0    0 -0.46176374621E+01  0.31977000246E+02  0.23855276507E+02  0.40162019810E+02  0.24999496694E+00 0.  0.
    1000022    2    1    0    0    0  0.99874892692E+01 -0.52462990095E+02 -0.30889069487E+02  0.62500000600E+02  0.10000009483E+02 0.  0.
    3000022    2    5    5    0    0 -0.17758223231E+01 -0.12231888760E+02 -0.80925811216E+01  0.14775825426E+02  0.25000051624E+00 0.  0.
        -13    1    4    4    0    0 -0.28490223072E+01  0.19938518731E+02  0.14805803994E+02  0.24997686177E+02  0.10500000000E+00 0.  1.
         13    1    4    4    0    0 -0.17686151549E+01  0.12038481515E+02  0.90494725127E+01  0.15164333632E+02  0.10500000000E+00 0. -1.
    3000001    1    5    5    0    0  0.11763311592E+02 -0.40231101335E+02 -0.22796488365E+02  0.47724175174E+02  0.10000000000E+01 0.  1.
        -13    1    6    6    0    0 -0.12730062977E+01 -0.85136812843E+01 -0.56006360380E+01  0.10270416889E+02  0.10500000000E+00 0. -1.
         13    1    6    6    0    0 -0.50281602540E+00 -0.37182074754E+01 -0.24919450836E+01  0.45054085370E+01  0.10500000000E+00 0.  1.
</event>
<event>
11    0  0.3494755E-009  0.9118800E+02  0.7816531E-02  0.1126479E+00
         25   -1    0    0    0    0  0.00000000000E+00  0.00000000000E+00  0.99999998245E-14  0.12500000000E+03  0.12500000000E+03 0.  0.
    3000001    1    3    3    0    0 -0.45580072234E+02 -0.24103321699E+01  0.23060741098E+02  0.51148318311E+02  0.10000000000E+01 0.  1.
    1000022    2    1    0    0    0 -0.52772961176E+02 -0.28968853752E+01  0.31825660478E+02  0.62500000972E+02  0.10000004027E+02 0.  0.
    3000022    2    3    3    0    0 -0.71928889422E+01 -0.48655320531E+00  0.87649193798E+01  0.11351682662E+02  0.25000432604E+00 0.  0.
    1000022    2    1    0    0    0  0.52772961176E+02  0.28968853752E+01 -0.31825660478E+02  0.62499999028E+02  0.99999918710E+01 0.  0.
    3000022    2    5    5    0    0  0.15906832017E+02  0.11133176310E+01 -0.15112142911E+02  0.21970574377E+02  0.24998823182E+00 0.  0.
        -13    1    4    4    0    0 -0.24869911018E+01 -0.18886181179E+00  0.29521489834E+01  0.38661352983E+01  0.10500000000E+00 0.  1.
         13    1    4    4    0    0 -0.47058978404E+01 -0.29769139352E+00  0.58127703964E+01  0.74855473635E+01  0.10500000000E+00 0. -1.
    3000001    1    5    5    0    0  0.36866129159E+02  0.17835677442E+01 -0.16713517567E+02  0.40529424651E+02  0.10000000000E+01 0. -1.
        -13    1    6    6    0    0  0.89570863678E+01  0.65402845759E+00 -0.84283070841E+01  0.12316839478E+02  0.10500000000E+00 0. -1.
         13    1    6    6    0    0  0.69497456493E+01  0.45928917344E+00 -0.66838358266E+01  0.96537348986E+01  0.10500000000E+00 0.  1.
</event>
<event>
11    0  0.3494755E-009  0.9118800E+02  0.7816531E-02  0.1126479E+00
         25   -1    0    0    0    0  0.00000000000E+00  0.00000000000E+00  0.99999998245E-14  0.12500000000E+03  0.12500000000E+03 0.  0.
    3000001    1    3    3    0    0  0.20992924152E+02  0.39215781215E+01 -0.81826513331E+01  0.22891863670E+02  0.10000000000E+01 0.  1.
    1000022    2    1    0    0    0  0.58483589058E+02 -0.19023384209E+01 -0.19552523665E+02  0.62499999825E+02  0.99999857923E+01 0.  0.
    3000022    2    3    3    0    0  0.37490664906E+02 -0.58239165424E+01 -0.11369872332E+02  0.39608136155E+02  0.24998775229E+00 0.  0.
    1000022    2    1    0    0    0 -0.58483589058E+02  0.19023384209E+01  0.19552523665E+02  0.62500000175E+02  0.99999879851E+01 0.  0.
    3000022    2    5    5    0    0 -0.51405389138E+02  0.46409018939E+01  0.15831453098E+02  0.53988419232E+02  0.25000221623E+00 0.  0.
        -13    1    4    4    0    0  0.20709329639E+02 -0.32761717846E+01 -0.63164744130E+01  0.21897911080E+02  0.10500000000E+00 0.  1.
         13    1    4    4    0    0  0.16781335266E+02 -0.25477447578E+01 -0.50533979185E+01  0.17710225075E+02  0.10500000000E+00 0. -1.
    3000001    1    5    5    0    0 -0.70781999200E+01 -0.27385634730E+01  0.37210705666E+01  0.85115809439E+01  0.10000000000E+01 0. -1.
        -13    1    6    6    0    0 -0.31939010080E+02  0.28517189585E+01  0.98895836155E+01  0.33556632057E+02  0.10500000000E+00 0.  1.
         13    1    6    6    0    0 -0.19466379058E+02  0.17891829354E+01  0.59418694825E+01  0.20431787174E+02  0.10500000000E+00 0. -1.
</event>
<event>
11    0  0.3494755E-009  0.9118800E+02  0.7816531E-02  0.1126479E+00
         25   -1    0    0    0    0  0.00000000000E+00  0.00000000000E+00  0.99999998245E-14  0.12500000000E+03  0.12500000000E+03 0.  0.
    3000001    1    3    3    0    0 -0.19258112826E+02 -0.45449528025E+01  0.49608078914E+01  0.20424032915E+02  0.10000000000E+01 0.  1.
    1000022    2    1    0    0    0 -0.60631074259E+02 -0.11321035287E+02  0.13988833393E+01  0.62500000407E+02  0.10000008521E+02 0.  0.
    3000022    2    3    3    0    0 -0.41372961434E+02 -0.67760824842E+01 -0.35619245521E+01  0.42075967491E+02  0.25000438907E+00 0.  0.
    1000022    2    1    0    0    0  0.60631074259E+02  0.11321035287E+02 -0.13988833393E+01  0.62499999593E+02  0.10000003437E+02 0.  0.
    3000022    2    5    5    0    0  0.19496262981E+02  0.76723975606E+01  0.20205433453E+01  0.21050298328E+02  0.25001943154E+00 0.  0.
        -13    1    4    4    0    0 -0.19966424457E+02 -0.32039962472E+01 -0.16999942792E+01  0.20293464541E+02  0.10500000000E+00 0.  1.
         13    1    4    4    0    0 -0.21406536977E+02 -0.35720862370E+01 -0.18619302729E+01  0.21782502950E+02  0.10500000000E+00 0. -1.
    3000001    1    5    5    0    0  0.41134811278E+02  0.36486377262E+01 -0.34194266846E+01  0.41449701265E+02  0.10000000000E+01 0.  1.
        -13    1    6    6    0    0  0.12708669559E+02  0.50007627376E+01  0.13735181089E+01  0.13726452087E+02  0.10500000000E+00 0.  1.
         13    1    6    6    0    0  0.67875934227E+01  0.26716348231E+01  0.64702523645E+00  0.73238462406E+01  0.10500000000E+00 0. -1.
</event>
<event>
11    0  0.3494755E-009  0.9118800E+02  0.7816531E-02  0.1126479E+00
         25   -1    0    0    0    0  0.00000000000E+00  0.00000000000E+00  0.99999998245E-14  0.12500000000E+03  0.12500000000E+03 0.  0.
    3000001    1    3    3    0    0 -0.93707345379E+01  0.53823733500E+01  0.37016877109E+01  0.11466608067E+02  0.10000000000E+01 0.  1.
    1000022    2    1    0    0    0 -0.59146375656E+02  0.11980442341E+02  0.12822842893E+02  0.62499998399E+02  0.99999874054E+01 0.  0.
    3000022    2    3    3    0    0 -0.49775641118E+02  0.65980689913E+01  0.91211551823E+01  0.51033390332E+02  0.24998757233E+00 0.  0.
    1000022    2    1    0    0    0  0.59146375656E+02 -0.11980442341E+02 -0.12822842893E+02  0.62500001601E+02  0.10000007414E+02 0.  0.
    3000022    2    5    5    0    0  0.39908053965E+02 -0.12731157137E+02 -0.89659995268E+01  0.42839080083E+02  0.25000295835E+00 0.  0.
        -13    1    4    4    0    0 -0.16431678672E+02  0.21441160693E+01  0.30516233512E+01  0.16849947412E+02  0.10500000000E+00 0.  1.
         13    1    4    4    0    0 -0.33343962446E+02  0.44539529219E+01  0.60695318311E+01  0.34183442920E+02  0.10500000000E+00 0. -1.
    3000001    1    5    5    0    0  0.19238321691E+02  0.75071479554E+00 -0.38568433664E+01  0.19660921518E+02  0.10000000000E+01 0.  1.
        -13    1    6    6    0    0  0.11702284603E+02 -0.36929619967E+01 -0.26483334342E+01  0.12554127935E+02  0.10500000000E+00 0.  1.
         13    1    6    6    0    0  0.28205769363E+02 -0.90381951401E+01 -0.63176660926E+01  0.30284952148E+02  0.10500000000E+00 0. -1.
</event>
<event>
11    0  0.3494755E-009  0.9118800E+02  0.7816531E-02  0.1126479E+00
         25   -1    0    0    0    0  0.00000000000E+00  0.00000000000E+00  0.99999998245E-14  0.12500000000E+03  0.12500000000E+03 0.  0.
    3000001    1    3    3    0    0  0.20435213195E+02 -0.16281648457E+02  0.19793010462E+02  0.32794104317E+02  0.10000000000E+01 0. -1.
    1000022    2    1    0    0    0  0.45093925785E+02 -0.28394453858E+02  0.31089273377E+02  0.62499999713E+02  0.99999946241E+01 0.  0.
    3000022    2    3    3    0    0  0.24658712590E+02 -0.12112805400E+02  0.11296262915E+02  0.29705895396E+02  0.25000837072E+00 0.  0.
    1000022    2    1    0    0    0 -0.45093925785E+02  0.28394453858E+02 -0.31089273377E+02  0.62500000287E+02  0.99999982063E+01 0.  0.
    3000022    2    5    5    0    0 -0.24270747439E+02  0.14936304130E+02 -0.22258434519E+02  0.36161620203E+02  0.25001220873E+00 0.  0.
        -13    1    4    4    0    0  0.58774078061E+01 -0.29074176101E+01  0.26966727200E+01  0.70908439863E+01  0.10500000000E+00 0.  1.
         13    1    4    4    0    0  0.18781304784E+02 -0.92053877901E+01  0.85995901946E+01  0.22615051410E+02  0.10500000000E+00 0. -1.
    3000001    1    5    5    0    0 -0.20823178346E+02  0.13458149728E+02 -0.88308388575E+01  0.26338380084E+02  0.10000000000E+01 0. -1.
        -13    1    6    6    0    0 -0.89895317386E+01  0.54626040120E+01 -0.82104678658E+01  0.13344456941E+02  0.10500000000E+00 0. -1.
         13    1    6    6    0    0 -0.15281215701E+02  0.94737001181E+01 -0.14047966653E+02  0.22817163262E+02  0.10500000000E+00 0.  1.
</event>
<event>
11    0  0.3494755E-009  0.9118800E+02  0.7816531E-02  0.1126479E+00
         25   -1    0    0    0    0  0.00000000000E+00  0.00000000000E+00  0.99999998245E-14  0.12500000000E+03  0.12500000000E+03 0.  0.
    3000001    1    3    3    0    0  0.29033998279E+02  0.43440344745E+02 -0.13215048430E+02  0.53904305140E+02  0.10000000000E+01 0.  1.
    1000022    2    1    0    0    0  0.36268469980E+02  0.47398916524E+02 -0.15626598344E+02  0.62499998392E+02  0.10000001038E+02 0.  0.
    3000022    2    3    3    0    0  0.72344717010E+01  0.39585717798E+01 -0.24115499134E+01  0.85956932516E+01  0.24999632490E+00 0.  0.
    1000022    2    1    0    0    0 -0.36268469980E+02 -0.47398916524E+02  0.15626598344E+02  0.62500001608E+02  0.10000021143E+02 0.  0.
    3000022    2    5    5    0    0 -0.10983044679E+02 -0.15908675042E+02  0.42900055386E+00  0.19338038958E+02  0.24999447981E+00 0.  0.
        -13    1    4    4    0    0  0.29683462013E+01  0.16445356099E+01 -0.10566834322E+01  0.35557251608E+01  0.10500000000E+00 0. -1.
         13    1    4    4    0    0  0.42661254997E+01  0.23140361699E+01 -0.13548664811E+01  0.50399680908E+01  0.10500000000E+00 0.  1.
    3000001    1    5    5    0    0 -0.25285425301E+02 -0.31490241483E+02  0.15197597790E+02  0.43161962651E+02  0.10000000000E+01 0.  1.
        -13    1    6    6    0    0 -0.84091148443E+01 -0.12154240907E+02  0.33037431821E+00  0.14783739604E+02  0.10500000000E+00 0.  1.
         13    1    6    6    0    0 -0.25739298351E+01 -0.37544341350E+01  0.98626235647E-01  0.45542993538E+01  0.10500000000E+00 0. -1.
</event>
<event>
11    0  0.3494755E-009  0.9118800E+02  0.7816531E-02  0.1126479E+00
         25   -1    0    0    0    0  0.00000000000E+00  0.00000000000E+00  0.99999998245E-14  0.12500000000E+03  0.12500000000E+03 0.  0.
    3000001    1    3    3    0    0 -0.16538760659E+01  0.11413675695E+00 -0.71247498130E+00  0.20629963257E+01  0.10000000000E+01 0.  1.
    1000022    2    1    0    0    0 -0.55529020153E+02 -0.22165416715E+02  0.15214205783E+02  0.62499999178E+02  0.10000003115E+02 0.  0.
    3000022    2    3    3    0    0 -0.53875144087E+02 -0.22279553471E+02  0.15926680764E+02  0.60437002852E+02  0.25000051825E+00 0.  0.
    1000022    2    1    0    0    0  0.55529020153E+02  0.22165416715E+02 -0.15214205783E+02  0.62500000822E+02  0.10000013394E+02 0.  0.
    3000022    2    5    5    0    0  0.29473880513E+02  0.16424365262E+02 -0.61053053300E+01  0.34290037319E+02  0.24999868310E+00 0.  0.
        -13    1    4    4    0    0 -0.33977445338E+02 -0.13987211189E+02  0.10029777707E+02  0.38088270299E+02  0.10500000000E+00 0.  1.
         13    1    4    4    0    0 -0.19897698750E+02 -0.82923422826E+01  0.58969030573E+01  0.22348732553E+02  0.10500000000E+00 0. -1.
    3000001    1    5    5    0    0  0.26055139640E+02  0.57410514521E+01 -0.91089004528E+01  0.28209963504E+02  0.10000000000E+01 0.  1.
        -13    1    6    6    0    0  0.11286756324E+02  0.62509037841E+01 -0.23863734429E+01  0.13121374533E+02  0.10500000000E+00 0.  1.
         13    1    6    6    0    0  0.18187124189E+02  0.10173461478E+02 -0.37189318872E+01  0.21168662785E+02  0.10500000000E+00 0. -1.
</event>
<event>
11    0  0.3494755E-009  0.9118800E+02  0.7816531E-02  0.1126479E+00
         25   -1    0    0    0    0  0.00000000000E+00  0.00000000000E+00  0.99999998245E-14  0.12500000000E+03  0.12500000000E+03 0.  0.
    3000001    1    3    3    0    0  0.39804443188E+01  0.14604487401E+02 -0.15115541681E+02  0.21415288687E+02  0.10000000000E+01 0.  1.
    1000022    2    1    0    0    0  0.66610475544E+01  0.32613277243E+02 -0.51944725769E+02  0.62499999276E+02  0.99999983626E+01 0.  0.
    3000022    2    3    3    0    0  0.26806032356E+01  0.18008789842E+02 -0.36829184088E+02  0.41084710589E+02  0.24999670765E+00 0.  0.
    1000022    2    1    0    0    0 -0.66610475544E+01 -0.32613277243E+02  0.51944725769E+02  0.62500000724E+02  0.10000007410E+02 0.  0.
    3000022    2    5    5    0    0 -0.85448290538E+01 -0.26257235411E+02  0.45351620843E+02  0.53096972856E+02  0.24999685912E+00 0.  0.
        -13    1    4    4    0    0  0.11322973525E+01  0.75642613856E+01 -0.15326327714E+02  0.17129141654E+02  0.10500000000E+00 0. -1.
         13    1    4    4    0    0  0.15483058832E+01  0.10444528456E+02 -0.21502856374E+02  0.23955568936E+02  0.10500000000E+00 0.  1.
    3000001    1    5    5    0    0  0.18837814994E+01 -0.63560418327E+01  0.65931049256E+01  0.94030278675E+01  0.10000000000E+01 0.  1.
        -13    1    6    6    0    0 -0.60697967953E+01 -0.18725475581E+02  0.32397646354E+02  0.37909159621E+02  0.10500000000E+00 0. -1.
         13    1    6    6    0    0 -0.24750322585E+01 -0.75317598300E+01  0.12953974489E+02  0.15187813236E+02  0.10500000000E+00 0.  1.
</event>
<event>
11    0  0.3494755E-009  0.9118800E+02  0.7816531E-02  0.1126479E+00
         25   -1    0    0    0    0  0.00000000000E+00  0.00000000000E+00  0.99999998245E-14  0.12500000000E+03  0.12500000000E+03 0.  0.
    3000001    1    3    3    0    0 -0.28800829513E+02  0.17409044619E+02  0.11804209373E+02  0.35677751809E+02  0.10000000000E+01 0.  1.
    1000022    2    1    0    0    0 -0.50357483615E+02  0.33348981524E+02  0.12578526265E+02  0.62499999967E+02  0.99999974117E+01 0.  0.
    3000022    2    3    3    0    0 -0.21556654101E+02  0.15939936905E+02  0.77431689197E+00  0.26822248159E+02  0.25001010531E+00 0.  0.
    1000022    2    1    0    0    0  0.50357483615E+02 -0.33348981524E+02 -0.12578526265E+02  0.62500000033E+02  0.99999978209E+01 0.  0.
    3000022    2    5    5    0    0  0.47692970544E+02 -0.32518229113E+02 -0.10027870161E+02  0.58589037743E+02  0.24999941693E+00 0.  0.
        -13    1    4    4    0    0 -0.10592522789E+02  0.77590882121E+01  0.34599457018E+00  0.13135285538E+02  0.10500000000E+00 0. -1.
         13    1    4    4    0    0 -0.10964131312E+02  0.81808486927E+01  0.42832232179E+00  0.13686962620E+02  0.10500000000E+00 0.  1.
    3000001    1    5    5    0    0  0.26645130705E+01 -0.83075241074E+00 -0.25506561040E+01  0.39109622897E+01  0.10000000000E+01 0. -1.
        -13    1    6    6    0    0  0.34402119692E+02 -0.23413440914E+02 -0.72114949778E+01  0.42234011644E+02  0.10500000000E+00 0.  1.
         13    1    6    6    0    0  0.13290850852E+02 -0.91047881993E+01 -0.28163751836E+01  0.16355026099E+02  0.10500000000E+00 0. -1.
</event>
<event>
11    0  0.3494755E-009  0.9118800E+02  0.7816531E-02  0.1126479E+00
         25   -1    0    0    0    0  0.00000000000E+00  0.00000000000E+00  0.99999998245E-14  0.12500000000E+03  0.12500000000E+03 0.  0.
    3000001    1    3    3    0    0  0.26155898652E+02 -0.17920329449E+02  0.20143963805E+02  0.37577234060E+02  0.10000000000E+01 0. -1.
    1000022    2    1    0    0    0  0.39540014842E+02 -0.26131609079E+02  0.39496535863E+02  0.62499999236E+02  0.99999896255E+01 0.  0.
    3000022    2    3    3    0    0  0.13384116190E+02 -0.82112796301E+01  0.19352572058E+02  0.24922765175E+02  0.24999874227E+00 0.  0.
    1000022    2    1    0    0    0 -0.39540014842E+02  0.26131609079E+02 -0.39496535863E+02  0.62500000764E+02  0.99999991789E+01 0.  0.
    3000022    2    5    5    0    0 -0.16356483906E+02  0.15389111713E+02 -0.14451274192E+02  0.26706949924E+02  0.25004669730E+00 0.  0.
        -13    1    4    4    0    0  0.10176151178E+02 -0.62210366903E+01  0.14689282193E+02  0.18921981573E+02  0.10500000000E+00 0.  1.
         13    1    4    4    0    0  0.32079650123E+01 -0.19902429398E+01  0.46632898650E+01  0.60007836025E+01  0.10500000000E+00 0. -1.
    3000001    1    5    5    0    0 -0.23183530936E+02  0.10742497365E+02 -0.25045261671E+02  0.35793050840E+02  0.10000000000E+01 0. -1.
        -13    1    6    6    0    0 -0.68036556491E+01  0.64496513716E+01 -0.60970989842E+01  0.11183620792E+02  0.10500000000E+00 0.  1.
         13    1    6    6    0    0 -0.95528282574E+01  0.89394603418E+01 -0.83541752079E+01  0.15523329131E+02  0.10500000000E+00 0. -1.
</event>
<event>
11    0  0.3494755E-009  0.9118800E+02  0.7816531E-02  0.1126479E+00
         25   -1    0    0    0    0  0.00000000000E+00  0.00000000000E+00  0.99999998245E-14  0.12500000000E+03  0.12500000000E+03 0.  0.
    3000001    1    3    3    0    0  0.18610583482E+02 -0.24195426260E+02  0.11507634627E+02  0.32637373119E+02  0.10000000000E+01 0. -1.
    1000022    2    1    0    0    0  0.29901678535E+02 -0.45199293664E+02  0.29481581453E+02  0.62500000891E+02  0.99999969752E+01 0.  0.
    3000022    2    3    3    0    0  0.11291095053E+02 -0.21003867404E+02  0.17973946827E+02  0.29862627772E+02  0.24999899992E+00 0.  0.
    1000022    2    1    0    0    0 -0.29901678535E+02  0.45199293664E+02 -0.29481581453E+02  0.62499999109E+02  0.99999858355E+01 0.  0.
    3000022    2    5    5    0    0 -0.12251901786E+02  0.15858142369E+02 -0.58269383242E+01  0.20871163908E+02  0.24999177045E+00 0.  0.
        -13    1    4    4    0    0  0.50422134802E+01 -0.94245299962E+01  0.79774763177E+01  0.13337797263E+02  0.10500000000E+00 0.  1.
         13    1    4    4    0    0  0.62488815731E+01 -0.11579337408E+02  0.99964705089E+01  0.16524830509E+02  0.10500000000E+00 0. -1.
    3000001    1    5    5    0    0 -0.17649776749E+02  0.29341151294E+02 -0.23654643129E+02  0.41628835200E+02  0.10000000000E+01 0. -1.
        -13    1    6    6    0    0 -0.80303221482E+01  0.10355424954E+02 -0.37574432006E+01  0.13632692478E+02  0.10500000000E+00 0. -1.
         13    1    6    6    0    0 -0.42215796376E+01  0.55027174149E+01 -0.20694951236E+01  0.72384714306E+01  0.10500000000E+00 0.  1.
</event>
<event>
11    0  0.3494755E-009  0.9118800E+02  0.7816531E-02  0.1126479E+00
         25   -1    0    0    0    0  0.00000000000E+00  0.00000000000E+00  0.99999998245E-14  0.12500000000E+03  0.12500000000E+03 0.  0.
    3000001    1    3    3    0    0  0.10865165110E+02 -0.15127587439E+01  0.23852755844E+01  0.11270749376E+02  0.10000000000E+01 0. -1.
    1000022    2    1    0    0    0  0.60668832701E+02 -0.83417644312E+01 -0.74804597497E+01  0.62499997135E+02  0.10000003437E+02 0.  0.
    3000022    2    3    3    0    0  0.49803667591E+02 -0.68290056873E+01 -0.98657353341E+01  0.51229247760E+02  0.24993624498E+00 0.  0.
    1000022    2    1    0    0    0 -0.60668832701E+02  0.83417644312E+01  0.74804597497E+01  0.62500002865E+02  0.10000039244E+02 0.  0.
    3000022    2    5    5    0    0 -0.13531661176E+02 -0.21086882922E+01  0.28107369203E+01  0.13982673870E+02  0.25001202734E+00 0.  0.
        -13    1    4    4    0    0  0.15741230437E+02 -0.21235472156E+01 -0.31538411567E+01  0.16194243653E+02  0.10500000000E+00 0.  1.
         13    1    4    4    0    0  0.34062437154E+02 -0.47054584717E+01 -0.67118941774E+01  0.35035004106E+02  0.10500000000E+00 0. -1.
    3000001    1    5    5    0    0 -0.47137171525E+02  0.10450452723E+02  0.46697228294E+01  0.48517328995E+02  0.10000000000E+01 0.  1.
        -13    1    6    6    0    0 -0.84358417343E+01 -0.13684353651E+01  0.17247944592E+01  0.87190585525E+01  0.10500000000E+00 0.  1.
         13    1    6    6    0    0 -0.50958194419E+01 -0.74025292710E+00  0.10859424611E+01  0.52636153174E+01  0.10500000000E+00 0. -1.
</event>
<event>
11    0  0.3494755E-009  0.9118800E+02  0.7816531E-02  0.1126479E+00
         25   -1    0    0    0    0  0.00000000000E+00  0.00000000000E+00  0.99999998245E-14  0.12500000000E+03  0.12500000000E+03 0.  0.
    3000001    1    3    3    0    0 -0.10229018950E+02 -0.29765571017E+02 -0.91204256109E+01  0.32784206716E+02  0.10000000000E+01 0.  1.
    1000022    2    1    0    0    0 -0.27821386098E+02 -0.52950018038E+02 -0.15116757283E+02  0.62500001560E+02  0.99999954798E+01 0.  0.
    3000022    2    3    3    0    0 -0.17592367148E+02 -0.23184447021E+02 -0.59963316724E+01  0.29715794844E+02  0.25000832775E+00 0.  0.
    1000022    2    1    0    0    0  0.27821386098E+02  0.52950018038E+02  0.15116757283E+02  0.62499998440E+02  0.99999759804E+01 0.  0.
    3000022    2    5    5    0    0  0.77689214719E+01  0.23982201161E+02  0.87399281075E+01  0.26682409150E+02  0.25000273917E+00 0.  0.
        -13    1    4    4    0    0 -0.13030988874E+02 -0.17205274746E+02 -0.44712586261E+01  0.22041581813E+02  0.10500000000E+00 0. -1.
         13    1    4    4    0    0 -0.45613782742E+01 -0.59791722749E+01 -0.15250730463E+01  0.76742130313E+01  0.10500000000E+00 0.  1.
    3000001    1    5    5    0    0  0.20052464627E+02  0.28967816877E+02  0.63768291757E+01  0.35817589290E+02  0.10000000000E+01 0.  1.
        -13    1    6    6    0    0  0.57670885746E+01  0.17736972440E+02  0.64401983210E+01  0.19731869687E+02  0.10500000000E+00 0.  1.
         13    1    6    6    0    0  0.20018328973E+01  0.62452287211E+01  0.22997297865E+01  0.69505394624E+01  0.10500000000E+00 0. -1.
</event>
<event>
11    0  0.3494755E-009  0.9118800E+02  0.7816531E-02  0.1126479E+00
         25   -1    0    0    0    0  0.00000000000E+00  0.00000000000E+00  0.99999998245E-14  0.12500000000E+03  0.12500000000E+03 0.  0.
    3000001    1    3    3    0    0  0.12485488358E+02  0.65493064570E+01  0.10737886519E+01  0.14175113991E+02  0.10000000000E+01 0.  1.
    1000022    2    1    0    0    0  0.52550785547E+02  0.23799658447E+02  0.21868725551E+02  0.62499999787E+02  0.10000000615E+02 0.  0.
    3000022    2    3    3    0    0  0.40065297190E+02  0.17250351990E+02  0.20794936899E+02  0.48324885796E+02  0.25000769824E+00 0.  0.
    1000022    2    1    0    0    0 -0.52550785547E+02 -0.23799658447E+02 -0.21868725551E+02  0.62500000213E+02  0.10000003280E+02 0.  0.
    3000022    2    5    5    0    0 -0.27932040610E+02 -0.83325152694E+01 -0.14147460224E+02  0.32401278337E+02  0.25000738434E+00 0.  0.
        -13    1    4    4    0    0  0.21970152063E+02  0.95320146259E+01  0.11416917481E+02  0.26531187578E+02  0.10500000000E+00 0.  1.
         13    1    4    4    0    0  0.18095145126E+02  0.77183373639E+01  0.93780194180E+01  0.21793698218E+02  0.10500000000E+00 0. -1.
    3000001    1    5    5    0    0 -0.24618744937E+02 -0.15467143177E+02 -0.77212653265E+01  0.30098721876E+02  0.10000000000E+01 0. -1.
        -13    1    6    6    0    0 -0.10519916951E+02 -0.30850833863E+01 -0.53570162120E+01  0.12202255523E+02  0.10500000000E+00 0.  1.
         13    1    6    6    0    0 -0.17412123659E+02 -0.52474318831E+01 -0.87904440123E+01  0.20199022814E+02  0.10500000000E+00 0. -1.
</event>
<event>
11    0  0.3494755E-009  0.9118800E+02  0.7816531E-02  0.1126479E+00
         25   -1    0    0    0    0  0.00000000000E+00  0.00000000000E+00  0.99999998245E-14  0.12500000000E+03  0.12500000000E+03 0.  0.
    3000001    1    3    3    0    0  0.24205720918E+00  0.47086384927E+01 -0.30343736524E+01  0.56953745803E+01  0.10000000000E+01 0.  1.
    1000022    2    1    0    0    0 -0.20146642382E+02  0.36725905080E+02 -0.45294266714E+02  0.62500000193E+02  0.10000006184E+02 0.  0.
    3000022    2    3    3    0    0 -0.20388699591E+02  0.32017266587E+02 -0.42259893062E+02  0.56804625612E+02  0.24999722165E+00 0.  0.
    1000022    2    1    0    0    0  0.20146642382E+02 -0.36725905080E+02  0.45294266714E+02  0.62499999807E+02  0.10000003776E+02 0.  0.
    3000022    2    5    5    0    0 -0.80264346172E+00 -0.47477664011E+01  0.52659449793E+01  0.71399016170E+01  0.24999249904E+00 0.  0.
        -13    1    4    4    0    0 -0.48160906254E+01  0.75377472251E+01 -0.99697674154E+01  0.13394762016E+02  0.10500000000E+00 0.  1.
         13    1    4    4    0    0 -0.15572608966E+02  0.24479519362E+02 -0.32290125646E+02  0.43409863597E+02  0.10500000000E+00 0. -1.
    3000001    1    5    5    0    0  0.20949285844E+02 -0.31978138679E+02  0.40028321735E+02  0.55360098190E+02  0.10000000000E+01 0.  1.
        -13    1    6    6    0    0 -0.29117042098E+00 -0.14855577656E+01  0.16134009460E+01  0.22148927065E+01  0.10500000000E+00 0. -1.
         13    1    6    6    0    0 -0.51147304074E+00 -0.32622086355E+01  0.36525440333E+01  0.49250089105E+01  0.10500000000E+00 0.  1.
</event>
<event>
11    0  0.3494755E-009  0.9118800E+02  0.7816531E-02  0.1126479E+00
         25   -1    0    0    0    0  0.00000000000E+00  0.00000000000E+00  0.99999998245E-14  0.12500000000E+03  0.12500000000E+03 0.  0.
    3000001    1    3    3    0    0 -0.23236838486E+01  0.36553211977E+02 -0.13017778985E+02  0.38884436246E+02  0.10000000000E+01 0. -1.
    1000022    2    1    0    0    0 -0.10544597956E+02  0.56095132266E+02 -0.23417889201E+02  0.62500000439E+02  0.10000005515E+02 0.  0.
    3000022    2    3    3    0    0 -0.82209141075E+01  0.19541920289E+02 -0.10400110216E+02  0.23615564193E+02  0.25000464918E+00 0.  0.
    1000022    2    1    0    0    0  0.10544597956E+02 -0.56095132266E+02  0.23417889201E+02  0.62499999561E+02  0.10000000024E+02 0.  0.
    3000022    2    5    5    0    0 -0.15879185894E+01 -0.94372912438E+01  0.56167414547E+01  0.11099289958E+02  0.25000307625E+00 0.  0.
        -13    1    4    4    0    0 -0.60470875039E+01  0.14454843069E+02 -0.76945635965E+01  0.17456434039E+02  0.10500000000E+00 0.  1.
         13    1    4    4    0    0 -0.21738266035E+01  0.50870772203E+01 -0.27055466193E+01  0.61591301542E+01  0.10500000000E+00 0. -1.
    3000001    1    5    5    0    0  0.12132516545E+02 -0.46657841022E+02  0.17801147746E+02  0.51400709603E+02  0.10000000000E+01 0. -1.
        -13    1    6    6    0    0 -0.10777048903E+01 -0.66070234601E+01  0.39646828160E+01  0.77809987575E+01  0.10500000000E+00 0.  1.
         13    1    6    6    0    0 -0.51021369907E+00 -0.28302677838E+01  0.16520586387E+01  0.33182912007E+01  0.10500000000E+00 0. -1.
</event>
<event>
11    0  0.3494755E-009  0.9118800E+02  0.7816531E-02  0.1126479E+00
         25   -1    0    0    0    0  0.00000000000E+00  0.00000000000E+00  0.99999998245E-14  0.12500000000E+03  0.12500000000E+03 0.  0.
    3000001    1    3    3    0    0  0.20991210894E+02 -0.15539972131E+02  0.73293055075E+01  0.27144804067E+02  0.10000000000E+01 0.  1.
    1000022    2    1    0    0    0  0.43691831937E+02 -0.42580867463E+02  0.91729794936E+01  0.62499999572E+02  0.99999970897E+01 0.  0.
    3000022    2    3    3    0    0  0.22700621042E+02 -0.27040895332E+02  0.18436739861E+01  0.35355195504E+02  0.24999861243E+00 0.  0.
    1000022    2    1    0    0    0 -0.43691831937E+02  0.42580867463E+02 -0.91729794936E+01  0.62500000428E+02  0.10000002445E+02 0.  0.
    3000022    2    5    5    0    0 -0.16232647468E+02  0.10193493085E+02 -0.65070257295E+00  0.19180512496E+02  0.25000139148E+00 0.  0.
        -13    1    4    4    0    0  0.96436155684E+01 -0.11432715436E+02  0.72622052605E+00  0.14974802994E+02  0.10500000000E+00 0. -1.
         13    1    4    4    0    0  0.13057005474E+02 -0.15608179896E+02  0.11174534600E+01  0.20380392510E+02  0.10500000000E+00 0.  1.
    3000001    1    5    5    0    0 -0.27459184469E+02  0.32387374378E+02 -0.85222769206E+01  0.43319487932E+02  0.10000000000E+01 0. -1.
        -13    1    6    6    0    0 -0.12504629427E+02  0.78454322553E+01 -0.49896015425E+00  0.14770800608E+02  0.10500000000E+00 0. -1.
         13    1    6    6    0    0 -0.37280180409E+01  0.23480608293E+01 -0.15174241870E+00  0.44097118877E+01  0.10500000000E+00 0.  1.
</event>
<event>
11    0  0.3494755E-009  0.9118800E+02  0.7816531E-02  0.1126479E+00
         25   -1    0    0    0    0  0.00000000000E+00  0.00000000000E+00  0.99999998245E-14  0.12500000000E+03  0.12500000000E+03 0.  0.
    3000001    1    3    3    0    0 -0.12718750220E+02  0.35614246424E+01  0.14266297106E+01  0.13322373098E+02  0.10000000000E+01 0.  1.
    1000022    2    1    0    0    0 -0.61397038088E+02  0.25590352403E+01 -0.54868239559E+01  0.62499998470E+02  0.99999812125E+01 0.  0.
    3000022    2    3    3    0    0 -0.48678287868E+02 -0.10023894021E+01 -0.69134536665E+01  0.49177625372E+02  0.25000257277E+00 0.  0.
    1000022    2    1    0    0    0  0.61397038088E+02 -0.25590352403E+01  0.54868239559E+01  0.62500001530E+02  0.10000000336E+02 0.  0.
    3000022    2    5    5    0    0  0.51555743581E+02  0.13158213394E+01  0.34980432381E+01  0.51691632558E+02  0.24997600395E+00 0.  0.
        -13    1    4    4    0    0 -0.32031120348E+02 -0.69715589648E+00 -0.45900107653E+01  0.32365999458E+02  0.10500000000E+00 0.  1.
         13    1    4    4    0    0 -0.16647167521E+02 -0.30523350566E+00 -0.23234429012E+01  0.16811625914E+02  0.10500000000E+00 0. -1.
    3000001    1    5    5    0    0  0.98412945076E+01 -0.38748565797E+01  0.19887807178E+01  0.10808368972E+02  0.10000000000E+01 0.  1.
        -13    1    6    6    0    0  0.19514986159E+02  0.53032433082E+00  0.13756054873E+01  0.19570877449E+02  0.10500000000E+00 0. -1.
         13    1    6    6    0    0  0.32040757422E+02  0.78549700857E+00  0.21224377508E+01  0.32120755108E+02  0.10500000000E+00 0.  1.
</event>
<event>
11    0  0.3494755E-009  0.9118800E+02  0.7816531E-02  0.1126479E+00
         25   -1    0    0    0    0  0.00000000000E+00  0.00000000000E+00  0.99999998245E-14  0.12500000000E+03  0.12500000000E+03 0.  0.
    3000001    1    3    3    0    0  0.21924059948E+02  0.44474991375E+02 -0.88011144974E+00  0.49603062996E+02  0.10000000000E+01 0.  1.
    1000022    2    1    0    0    0  0.24458477709E+02  0.56415082815E+02 -0.50369754985E+01  0.62500003899E+02  0.10000033217E+02 0.  0.
    3000022    2    3    3    0    0  0.25344177611E+01  0.11940091440E+02 -0.41568640487E+01  0.12896940903E+02  0.25001791066E+00 0.  0.
    1000022    2    1    0    0    0 -0.24458477709E+02 -0.56415082815E+02  0.50369754985E+01  0.62499996101E+02  0.99999844747E+01 0.  0.
    3000022    2    5    5    0    0 -0.53884996237E+01 -0.20035252098E+02 -0.18836198659E+01  0.20834053325E+02  0.24999863140E+00 0.  0.
        -13    1    4    4    0    0  0.96911052713E+00  0.47923048390E+01 -0.16207447038E+01  0.51520092468E+01  0.10500000000E+00 0. -1.
         13    1    4    4    0    0  0.15653072340E+01  0.71477866011E+01 -0.25361193449E+01  0.77449316565E+01  0.10500000000E+00 0.  1.
    3000001    1    5    5    0    0 -0.19069978086E+02 -0.36379830717E+02  0.69205953643E+01  0.41665942776E+02  0.10000000000E+01 0. -1.
        -13    1    6    6    0    0 -0.16690755010E+01 -0.61333425515E+01 -0.53334861997E+00  0.63795916509E+01  0.10500000000E+00 0.  1.
         13    1    6    6    0    0 -0.37194241227E+01 -0.13901909546E+02 -0.13502712459E+01  0.14454461674E+02  0.10500000000E+00 0. -1.
</event>
<event>
11    0  0.3494755E-009  0.9118800E+02  0.7816531E-02  0.1126479E+00
         25   -1    0    0    0    0  0.00000000000E+00  0.00000000000E+00  0.99999998245E-14  0.12500000000E+03  0.12500000000E+03 0.  0.
    3000001    1    3    3    0    0  0.17695341678E+01  0.61475865068E+00 -0.47351831693E+01  0.51895220412E+01  0.10000000000E+01 0. -1.
    1000022    2    1    0    0    0  0.46901749448E+02  0.22728203417E+01 -0.40016372357E+02  0.62499999473E+02  0.10000003195E+02 0.  0.
    3000022    2    3    3    0    0  0.45132215280E+02  0.16580616910E+01 -0.35281189188E+02  0.57310477432E+02  0.24997654143E+00 0.  0.
    1000022    2    1    0    0    0 -0.46901749448E+02 -0.22728203417E+01  0.40016372357E+02  0.62500000527E+02  0.10000009784E+02 0.  0.
    3000022    2    5    5    0    0 -0.45230953724E+02 -0.36096758571E+01  0.36355859321E+02  0.58143614788E+02  0.24999821129E+00 0.  0.
        -13    1    4    4    0    0  0.29402207755E+02  0.10425507279E+01 -0.23036424104E+02  0.37366624057E+02  0.10500000000E+00 0.  1.
         13    1    4    4    0    0  0.15730007525E+02  0.61551096308E+00 -0.12244765083E+02  0.19943853375E+02  0.10500000000E+00 0. -1.
    3000001    1    5    5    0    0 -0.16707957245E+01  0.13368555154E+01  0.36605130356E+01  0.43563857389E+01  0.10000000000E+01 0. -1.
        -13    1    6    6    0    0 -0.16899896081E+02 -0.13873657422E+01  0.13527482264E+02  0.21691820409E+02  0.10500000000E+00 0. -1.
         13    1    6    6    0    0 -0.28331057643E+02 -0.22223101149E+01  0.22828377058E+02  0.36451794380E+02  0.10500000000E+00 0.  1.
</event>
<event>
11    0  0.3494755E-009  0.9118800E+02  0.7816531E-02  0.1126479E+00
         25   -1    0    0    0    0  0.00000000000E+00  0.00000000000E+00  0.99999998245E-14  0.12500000000E+03  0.12500000000E+03 0.  0.
    3000001    1    3    3    0    0  0.33154857654E+01  0.64129749374E-01  0.55835306499E+01  0.65705686972E+01  0.10000000000E+01 0.  1.
    1000022    2    1    0    0    0  0.32470286846E+02  0.27098567724E+02  0.44917682220E+02  0.62499999566E+02  0.99999934612E+01 0.  0.
    3000022    2    3    3    0    0  0.29154801081E+02  0.27034437975E+02  0.39334151570E+02  0.55929430869E+02  0.24998992233E+00 0.  0.
    1000022    2    1    0    0    0 -0.32470286846E+02 -0.27098567724E+02 -0.44917682220E+02  0.62500000434E+02  0.99999988824E+01 0.  0.
    3000022    2    5    5    0    0 -0.29221151698E+02 -0.27266843894E+02 -0.40247331143E+02  0.56720954210E+02  0.24999962362E+00 0.  0.
        -13    1    4    4    0    0  0.20797820583E+02  0.19236693541E+02  0.28058086965E+02  0.39873136176E+02  0.10500000000E+00 0. -1.
         13    1    4    4    0    0  0.83569804982E+01  0.77977444338E+01  0.11276064605E+02  0.16056294693E+02  0.10500000000E+00 0.  1.
    3000001    1    5    5    0    0 -0.32491351485E+01  0.16827616994E+00 -0.46703510765E+01  0.57790462241E+01  0.10000000000E+01 0. -1.
        -13    1    6    6    0    0 -0.10395806867E+02 -0.96479423420E+01 -0.14342901180E+02  0.20171401318E+02  0.10500000000E+00 0. -1.
         13    1    6    6    0    0 -0.18825344831E+02 -0.17618901552E+02 -0.25904429963E+02  0.36549552892E+02  0.10500000000E+00 0.  1.
</event>
<event>
11    0  0.3494755E-009  0.9118800E+02  0.7816531E-02  0.1126479E+00
         25   -1    0    0    0    0  0.00000000000E+00  0.00000000000E+00  0.99999998245E-14  0.12500000000E+03  0.12500000000E+03 0.  0.
    3000001    1    3    3    0    0  0.17796602977E+01 -0.21277491696E+02 -0.11596261215E+02  0.24318143799E+02  0.10000000000E+01 0. -1.
    1000022    2    1    0    0    0 -0.11613347207E+01 -0.58506795027E+02 -0.19541140683E+02  0.62499999229E+02  0.99999980922E+01 0.  0.
    3000022    2    3    3    0    0 -0.29409950184E+01 -0.37229303331E+02 -0.79448794679E+01  0.38181855431E+02  0.24999234891E+00 0.  0.
    1000022    2    1    0    0    0  0.11613347207E+01  0.58506795027E+02  0.19541140683E+02  0.62500000771E+02  0.10000007724E+02 0.  0.
    3000022    2    5    5    0    0  0.45024250092E+01  0.13695722796E+02  0.49050610949E+01  0.15230455559E+02  0.24999664412E+00 0.  0.
        -13    1    4    4    0    0 -0.16183779383E+01 -0.19649920392E+02 -0.41797069010E+01  0.20154887580E+02  0.10500000000E+00 0.  1.
         13    1    4    4    0    0 -0.13226170801E+01 -0.17579382939E+02 -0.37651725670E+01  0.18026967851E+02  0.10500000000E+00 0. -1.
    3000001    1    5    5    0    0 -0.33410902885E+01  0.44811072231E+02  0.14636079588E+02  0.47269545211E+02  0.10000000000E+01 0. -1.
        -13    1    6    6    0    0  0.33186007875E+01  0.10069539165E+02  0.36415288778E+01  0.11210730919E+02  0.10500000000E+00 0.  1.
         13    1    6    6    0    0  0.11838242217E+01  0.36261836315E+01  0.12635322172E+01  0.40197246400E+01  0.10500000000E+00 0. -1.
</event>
<event>
11    0  0.3494755E-009  0.9118800E+02  0.7816531E-02  0.1126479E+00
         25   -1    0    0    0    0  0.00000000000E+00  0.00000000000E+00  0.99999998245E-14  0.12500000000E+03  0.12500000000E+03 0.  0.
    3000001    1    3    3    0    0  0.22813452016E+02 -0.86230297725E+00 -0.54187221349E+02  0.58808605806E+02  0.10000000000E+01 0. -1.
    1000022    2    1    0    0    0  0.24994951737E+02  0.11217848305E+01 -0.56393653315E+02  0.62500000776E+02  0.99999974625E+01 0.  0.
    3000022    2    3    3    0    0  0.21814997215E+01  0.19840878077E+01 -0.22064319659E+01  0.36913949702E+01  0.25001868397E+00 0.  0.
    1000022    2    1    0    0    0 -0.24994951737E+02 -0.11217848305E+01  0.56393653315E+02  0.62499999224E+02  0.99999877638E+01 0.  0.
    3000022    2    5    5    0    0 -0.20036131313E+02 -0.47871105138E+01  0.40935353119E+02  0.45827160314E+02  0.25000490009E+00 0.  0.
        -13    1    4    4    0    0  0.10698203021E+01  0.91178167898E+00 -0.98902407422E+00  0.17219334855E+01  0.10500000000E+00 0.  1.
         13    1    4    4    0    0  0.11116794193E+01  0.10723061288E+01 -0.12174078917E+01  0.19694614847E+01  0.10500000000E+00 0. -1.
    3000001    1    5    5    0    0 -0.49588204244E+01  0.36653256833E+01  0.15458300196E+02  0.16672838910E+02  0.10000000000E+01 0. -1.
        -13    1    6    6    0    0 -0.86379621425E+01 -0.21313161005E+01  0.17678274360E+02  0.19791142151E+02  0.10500000000E+00 0. -1.
         13    1    6    6    0    0 -0.11398169170E+02 -0.26557944133E+01  0.23257078759E+02  0.26036018163E+02  0.10500000000E+00 0.  1.
</event>
<event>
11    0  0.3494755E-009  0.9118800E+02  0.7816531E-02  0.1126479E+00
         25   -1    0    0    0    0  0.00000000000E+00  0.00000000000E+00  0.99999998245E-14  0.12500000000E+03  0.12500000000E+03 0.  0.
    3000001    1    3    3    0    0  0.43986377560E+02 -0.13666170189E+02 -0.12185083685E+02  0.47655449667E+02  0.10000000000E+01 0.  1.
    1000022    2    1    0    0    0  0.54713913677E+02 -0.22174590176E+02 -0.17914387417E+02  0.62499999609E+02  0.99999937627E+01 0.  0.
    3000022    2    3    3    0    0  0.10727536117E+02 -0.85084199866E+01 -0.57293037315E+01  0.14844549942E+02  0.24999985931E+00 0.  0.
    1000022    2    1    0    0    0 -0.54713913677E+02  0.22174590176E+02  0.17914387417E+02  0.62500000391E+02  0.99999986515E+01 0.  0.
    3000022    2    5    5    0    0 -0.17008764844E+02  0.55720039105E+01  0.10106964547E+02  0.20556228850E+02  0.25000616840E+00 0.  0.
        -13    1    4    4    0    0  0.34191502919E+01 -0.26482844566E+01 -0.18100746373E+01  0.46894983179E+01  0.10500000000E+00 0.  1.
         13    1    4    4    0    0  0.73083858248E+01 -0.58601355300E+01 -0.39192290942E+01  0.10155051624E+02  0.10500000000E+00 0. -1.
    3000001    1    5    5    0    0 -0.37705148833E+02  0.16602586265E+02  0.78074228702E+01  0.41943771541E+02  0.10000000000E+01 0. -1.
        -13    1    6    6    0    0 -0.83161385400E+01  0.26634821649E+01  0.48903884682E+01  0.10008957080E+02  0.10500000000E+00 0. -1.
         13    1    6    6    0    0 -0.86926263044E+01  0.29085217456E+01  0.52165760785E+01  0.10547271770E+02  0.10500000000E+00 0.  1.
</event>
<event>
11    0  0.3494755E-009  0.9118800E+02  0.7816531E-02  0.1126479E+00
         25   -1    0    0    0    0  0.00000000000E+00  0.00000000000E+00  0.99999998245E-14  0.12500000000E+03  0.12500000000E+03 0.  0.
    3000001    1    3    3    0    0 -0.73435933665E+01  0.56704566035E+01  0.29596225787E+01  0.97898829121E+01  0.10000000000E+01 0.  1.
    1000022    2    1    0    0    0 -0.33669347928E+02  0.51007861813E+02  0.84156496404E+01  0.62499999552E+02  0.99999914244E+01 0.  0.
    3000022    2    3    3    0    0 -0.26325754562E+02  0.45337405209E+02  0.54560270617E+01  0.52710116639E+02  0.25000104263E+00 0.  0.
    1000022    2    1    0    0    0  0.33669347928E+02 -0.51007861813E+02 -0.84156496404E+01  0.62500000448E+02  0.99999970298E+01 0.  0.
    3000022    2    5    5    0    0  0.26588181720E+02 -0.38394226315E+02 -0.10452471891E+02  0.47857754712E+02  0.24999186398E+00 0.  0.
        -13    1    4    4    0    0 -0.15438094216E+02  0.26522140396E+02  0.31378738723E+01  0.30848273236E+02  0.10500000000E+00 0.  1.
         13    1    4    4    0    0 -0.10887660345E+02  0.18815264813E+02  0.23181531893E+01  0.21861843403E+02  0.10500000000E+00 0. -1.
    3000001    1    5    5    0    0  0.70811662083E+01 -0.12613635497E+02  0.20368222504E+01  0.14642245736E+02  0.10000000000E+01 0.  1.
        -13    1    6    6    0    0  0.16158709562E+02 -0.23309940872E+02 -0.62856830121E+01  0.29051300730E+02  0.10500000000E+00 0.  1.
         13    1    6    6    0    0  0.10429472158E+02 -0.15084285443E+02 -0.41667888786E+01  0.18806453982E+02  0.10500000000E+00 0. -1.
</event>
<event>
11    0  0.3494755E-009  0.9118800E+02  0.7816531E-02  0.1126479E+00
         25   -1    0    0    0    0  0.00000000000E+00  0.00000000000E+00  0.99999998245E-14  0.12500000000E+03  0.12500000000E+03 0.  0.
    3000001    1    3    3    0    0 -0.70560716702E+01 -0.44380517855E+02  0.68989383929E+01  0.45475420431E+02  0.10000000000E+01 0. -1.
    1000022    2    1    0    0    0 -0.12632588267E+02 -0.60239791684E+02  0.42231817759E+01  0.62499999189E+02  0.99999922912E+01 0.  0.
    3000022    2    3    3    0    0 -0.55765165964E+01 -0.15859273830E+02 -0.26757566169E+01  0.17024578757E+02  0.25000929085E+00 0.  0.
    1000022    2    1    0    0    0  0.12632588267E+02  0.60239791684E+02 -0.42231817759E+01  0.62500000811E+02  0.10000002431E+02 0.  0.
    3000022    2    5    5    0    0 -0.31290266562E+00  0.17222384240E+02  0.10411184892E+01  0.17258471925E+02  0.24999696672E+00 0.  0.
        -13    1    4    4    0    0 -0.18624507427E+01 -0.52414613390E+01 -0.83505076730E+00  0.56258310072E+01  0.10500000000E+00 0.  1.
         13    1    4    4    0    0 -0.37140658537E+01 -0.10617812491E+02 -0.18407058496E+01  0.11398747750E+02  0.10500000000E+00 0. -1.
    3000001    1    5    5    0    0  0.12945490932E+02  0.43017407444E+02 -0.52643002651E+01  0.45241528886E+02  0.10000000000E+01 0.  1.
        -13    1    6    6    0    0 -0.20818428501E+00  0.12908780490E+02  0.78424328219E+00  0.12934682716E+02  0.10500000000E+00 0.  1.
         13    1    6    6    0    0 -0.10471838061E+00  0.43136037495E+01  0.25687520696E+00  0.43237892084E+01  0.10500000000E+00 0. -1.
</event>
<event>
11    0  0.3494755E-009  0.9118800E+02  0.7816531E-02  0.1126479E+00
         25   -1    0    0    0    0  0.00000000000E+00  0.00000000000E+00  0.99999998245E-14  0.12500000000E+03  0.12500000000E+03 0.  0.
    3000001    1    3    3    0    0  0.68068197062E+01  0.31519910557E+02 -0.40815416162E+02  0.52026298662E+02  0.10000000000E+01 0. -1.
    1000022    2    1    0    0    0  0.38908691875E+01  0.36728046954E+02 -0.49418234591E+02  0.62499998388E+02  0.99999796178E+01 0.  0.
    3000022    2    3    3    0    0 -0.29159505187E+01  0.52081363976E+01 -0.86028184290E+01  0.10473699726E+02  0.24989771711E+00 0.  0.
    1000022    2    1    0    0    0 -0.38908691875E+01 -0.36728046954E+02  0.49418234591E+02  0.62500001612E+02  0.99999997618E+01 0.  0.
    3000022    2    5    5    0    0 -0.32010452841E+01 -0.13420749018E+02  0.26014445589E+02  0.29447871063E+02  0.25007151489E+00 0.  0.
        -13    1    4    4    0    0 -0.14578385036E+01  0.24793071023E+01 -0.40930911289E+01  0.50036663358E+01  0.10500000000E+00 0. -1.
         13    1    4    4    0    0 -0.14581120152E+01  0.27288292953E+01 -0.45097273000E+01  0.54700333904E+01  0.10500000000E+00 0.  1.
    3000001    1    5    5    0    0 -0.68982390344E+00 -0.23307297936E+02  0.23403789002E+02  0.33052130548E+02  0.10000000000E+01 0. -1.
        -13    1    6    6    0    0 -0.17292862838E+01 -0.74655544266E+01  0.14354565125E+02  0.16272353821E+02  0.10500000000E+00 0. -1.
         13    1    6    6    0    0 -0.14717590002E+01 -0.59551945915E+01  0.11659880463E+02  0.13175517242E+02  0.10500000000E+00 0.  1.
</event>
<event>
11    0  0.3494755E-009  0.9118800E+02  0.7816531E-02  0.1126479E+00
         25   -1    0    0    0    0  0.00000000000E+00  0.00000000000E+00  0.99999998245E-14  0.12500000000E+03  0.12500000000E+03 0.  0.
    3000001    1    3    3    0    0 -0.10292737338E+01  0.47096813811E+01 -0.12311978422E+02  0.13259913868E+02  0.10000000000E+01 0.  1.
    1000022    2    1    0    0    0  0.81690101546E+00  0.37621049702E+02 -0.48890072737E+02  0.62499999230E+02  0.99999991765E+01 0.  0.
    3000022    2    3    3    0    0  0.18461747493E+01  0.32911368321E+02 -0.36578094315E+02  0.49240085361E+02  0.24999343541E+00 0.  0.
    1000022    2    1    0    0    0 -0.81690101546E+00 -0.37621049702E+02  0.48890072737E+02  0.62500000770E+02  0.10000008806E+02 0.  0.
    3000022    2    5    5    0    0 -0.22914692622E+01 -0.34514359115E+02  0.39808334627E+02  0.52737631948E+02  0.25000253638E+00 0.  0.
        -13    1    4    4    0    0  0.51784718606E+00  0.87949984289E+01 -0.97397856788E+01  0.13133720461E+02  0.10500000000E+00 0. -1.
         13    1    4    4    0    0  0.13283275632E+01  0.24116369892E+02 -0.26838308636E+02  0.36106364901E+02  0.10500000000E+00 0.  1.
    3000001    1    5    5    0    0  0.14745682467E+01 -0.31066905875E+01  0.90817381101E+01  0.97623688222E+01  0.10000000000E+01 0.  1.
        -13    1    6    6    0    0 -0.14486509047E+01 -0.21276462064E+02  0.24466890310E+02  0.32456527446E+02  0.10500000000E+00 0.  1.
         13    1    6    6    0    0 -0.84281835745E+00 -0.13237897051E+02  0.15341444317E+02  0.20281104502E+02  0.10500000000E+00 0. -1.
</event>
<event>
11    0  0.3494755E-009  0.9118800E+02  0.7816531E-02  0.1126479E+00
         25   -1    0    0    0    0  0.00000000000E+00  0.00000000000E+00  0.99999998245E-14  0.12500000000E+03  0.12500000000E+03 0.  0.
    3000001    1    3    3    0    0 -0.88968673694E+01 -0.12932022322E+02  0.36743534331E+02  0.39968472143E+02  0.10000000000E+01 0. -1.
    1000022    2    1    0    0    0 -0.12492855162E+02 -0.26748548875E+02  0.54172811305E+02  0.62499999772E+02  0.10000009488E+02 0.  0.
    3000022    2    3    3    0    0 -0.35959877922E+01 -0.13816526553E+02  0.17429276974E+02  0.22531527629E+02  0.25001449442E+00 0.  0.
    1000022    2    1    0    0    0  0.12492855162E+02  0.26748548875E+02 -0.54172811305E+02  0.62500000228E+02  0.10000012336E+02 0.  0.
    3000022    2    5    5    0    0  0.18170865075E+01  0.12829153298E+02 -0.29391239110E+02  0.32121587991E+02  0.25000176636E+00 0.  0.
        -13    1    4    4    0    0 -0.87043427731E+00 -0.34297757266E+01  0.43007699385E+01  0.55703379099E+01  0.10500000000E+00 0.  1.
         13    1    4    4    0    0 -0.27255535149E+01 -0.10386750827E+02  0.13128507036E+02  0.16961189719E+02  0.10500000000E+00 0. -1.
    3000001    1    5    5    0    0  0.10675768654E+02  0.13919395577E+02 -0.24781572195E+02  0.30378412237E+02  0.10000000000E+01 0. -1.
        -13    1    6    6    0    0  0.80654323004E+00  0.57822406114E+01 -0.13081083400E+02  0.14325173171E+02  0.10500000000E+00 0.  1.
         13    1    6    6    0    0  0.10105432775E+01  0.70469126867E+01 -0.16310155711E+02  0.17796414820E+02  0.10500000000E+00 0. -1.
</event>
<event>
11    0  0.3494755E-009  0.9118800E+02  0.7816531E-02  0.1126479E+00
         25   -1    0    0    0    0  0.00000000000E+00  0.00000000000E+00  0.99999998245E-14  0.12500000000E+03  0.12500000000E+03 0.  0.
    3000001    1    3    3    0    0 -0.33387747875E+02 -0.80851143574E+01  0.27178221957E+02  0.43815140432E+02  0.10000000000E+01 0.  1.
    1000022    2    1    0    0    0 -0.48305313465E+02 -0.51342136188E+01  0.38032706567E+02  0.62499998226E+02  0.99999775484E+01 0.  0.
    3000022    2    3    3    0    0 -0.14917565590E+02  0.29509007386E+01  0.10854484610E+02  0.18684857794E+02  0.24999263995E+00 0.  0.
    1000022    2    1    0    0    0  0.48305313465E+02  0.51342136188E+01 -0.38032706567E+02  0.62500001774E+02  0.99999997268E+01 0.  0.
    3000022    2    5    5    0    0  0.48009178161E+02  0.54036108357E+01 -0.37919590734E+02  0.61416919981E+02  0.25000155574E+00 0.  0.
        -13    1    4    4    0    0 -0.42982716104E+01  0.86585213052E+00  0.30817222276E+01  0.53603055544E+01  0.10500000000E+00 0.  1.
         13    1    4    4    0    0 -0.10619293979E+02  0.20850486081E+01  0.77727623824E+01  0.13324552239E+02  0.10500000000E+00 0. -1.
    3000001    1    5    5    0    0  0.29613530394E+00 -0.26939721691E+00 -0.11311583293E+00  0.10830817930E+01  0.10000000000E+01 0.  1.
        -13    1    6    6    0    0  0.19097225979E+02  0.21060238413E+01 -0.15022040121E+02  0.24388769770E+02  0.10500000000E+00 0.  1.
         13    1    6    6    0    0  0.28911952182E+02  0.32975869944E+01 -0.22897550613E+02  0.37028150211E+02  0.10500000000E+00 0. -1.
</event>
<event>
11    0  0.3494755E-009  0.9118800E+02  0.7816531E-02  0.1126479E+00
         25   -1    0    0    0    0  0.00000000000E+00  0.00000000000E+00  0.99999998245E-14  0.12500000000E+03  0.12500000000E+03 0.  0.
    3000001    1    3    3    0    0  0.40723003521E+01 -0.21139088799E+01 -0.22249821005E+01  0.51964205236E+01  0.10000000000E+01 0. -1.
    1000022    2    1    0    0    0  0.31892830277E+02 -0.15038149430E+02 -0.50625600807E+02  0.62500000433E+02  0.10000001784E+02 0.  0.
    3000022    2    3    3    0    0  0.27820529925E+02 -0.12924240550E+02 -0.48400618707E+02  0.57303579909E+02  0.25000030327E+00 0.  0.
    1000022    2    1    0    0    0 -0.31892830277E+02  0.15038149430E+02  0.50625600807E+02  0.62499999567E+02  0.99999963738E+01 0.  0.
    3000022    2    5    5    0    0 -0.95563402423E+01  0.32593152101E+01  0.22650658771E+02  0.24800435849E+02  0.25000211208E+00 0.  0.
        -13    1    4    4    0    0  0.21363340203E+02 -0.99353567884E+01 -0.37166413948E+02  0.44005192533E+02  0.10500000000E+00 0. -1.
         13    1    4    4    0    0  0.64571897218E+01 -0.29888837618E+01 -0.11234204759E+02  0.13298387376E+02  0.10500000000E+00 0.  1.
    3000001    1    5    5    0    0 -0.22336490034E+02  0.11778834220E+02  0.27974942036E+02  0.37699563718E+02  0.10000000000E+01 0.  1.
        -13    1    6    6    0    0 -0.36569759637E+01  0.12680570585E+01  0.85421370389E+01  0.93787297698E+01  0.10500000000E+00 0.  1.
         13    1    6    6    0    0 -0.58993642786E+01  0.19912581516E+01  0.14108521733E+02  0.15421706079E+02  0.10500000000E+00 0. -1.
</event>
<event>
11    0  0.3494755E-009  0.9118800E+02  0.7816531E-02  0.1126479E+00
         25   -1    0    0    0    0  0.00000000000E+00  0.00000000000E+00  0.99999998245E-14  0.12500000000E+03  0.12500000000E+03 0.  0.
    3000001    1    3    3    0    0 -0.21818378248E+01 -0.18813728791E+02  0.94064501423E+01  0.21170689917E+02  0.10000000000E+01 0. -1.
    1000022    2    1    0    0    0 -0.16682246760E+02 -0.56401419006E+02  0.18623444028E+02  0.62499999034E+02  0.99999894485E+01 0.  0.
    3000022    2    3    3    0    0 -0.14500408935E+02 -0.37587690215E+02  0.92169938858E+01  0.41329309117E+02  0.25000154928E+00 0.  0.
    1000022    2    1    0    0    0  0.16682246760E+02  0.56401419006E+02 -0.18623444028E+02  0.62500000966E+02  0.10000001520E+02 0.  0.
    3000022    2    5    5    0    0  0.13986215403E+02  0.53865985353E+02 -0.16192206878E+02  0.57960405943E+02  0.24998847817E+00 0.  0.
        -13    1    4    4    0    0 -0.35484735113E+01 -0.92497586293E+01  0.22818984031E+01  0.10166994850E+02  0.10500000000E+00 0. -1.
         13    1    4    4    0    0 -0.10951935424E+02 -0.28337931586E+02  0.69350954827E+01  0.31162314267E+02  0.10500000000E+00 0.  1.
    3000001    1    5    5    0    0  0.26960313563E+01  0.25354336535E+01 -0.24312371505E+01  0.45395950225E+01  0.10000000000E+01 0.  1.
        -13    1    6    6    0    0  0.52476299517E+01  0.20063937543E+02 -0.60832363073E+01  0.21612866510E+02  0.10500000000E+00 0.  1.
         13    1    6    6    0    0  0.87385854515E+01  0.33802047810E+02 -0.10108970570E+02  0.36347539433E+02  0.10500000000E+00 0. -1.
</event>
<event>
11    0  0.3494755E-009  0.9118800E+02  0.7816531E-02  0.1126479E+00
         25   -1    0    0    0    0  0.00000000000E+00  0.00000000000E+00  0.99999998245E-14  0.12500000000E+03  0.12500000000E+03 0.  0.
    3000001    1    3    3    0    0 -0.56157264764E+01  0.38897764834E+02 -0.35987349219E+02  0.53297859214E+02  0.10000000000E+01 0.  1.
    1000022    2    1    0    0    0 -0.44287630228E+01  0.42761131217E+02 -0.44250667523E+02  0.62500000377E+02  0.10000009304E+02 0.  0.
    3000022    2    3    3    0    0  0.11869634536E+01  0.38633663827E+01 -0.82633183038E+01  0.92021411635E+01  0.24998110998E+00 0.  0.
    1000022    2    1    0    0    0  0.44287630228E+01 -0.42761131217E+02  0.44250667523E+02  0.62499999623E+02  0.10000004589E+02 0.  0.
    3000022    2    5    5    0    0 -0.18508150526E+01 -0.27950413496E+02  0.28617182403E+02  0.40045683396E+02  0.24999805047E+00 0.  0.
        -13    1    4    4    0    0  0.36359535040E+00  0.11586781976E+01 -0.23858382571E+01  0.26791763535E+01  0.10500000000E+00 0. -1.
         13    1    4    4    0    0  0.82336810324E+00  0.27046881852E+01 -0.58774800467E+01  0.65229648099E+01  0.10500000000E+00 0.  1.
    3000001    1    5    5    0    0  0.62795780754E+01 -0.14810717721E+02  0.15633485120E+02  0.22454316227E+02  0.10000000000E+01 0.  1.
        -13    1    6    6    0    0 -0.75094498661E+00 -0.10440271217E+02  0.10682188713E+02  0.14956047678E+02  0.10500000000E+00 0. -1.
         13    1    6    6    0    0 -0.10998700660E+01 -0.17510142279E+02  0.17934993690E+02  0.25089635718E+02  0.10500000000E+00 0.  1.
</event>
<event>
11    0  0.3494755E-009  0.9118800E+02  0.7816531E-02  0.1126479E+00
         25   -1    0    0    0    0  0.00000000000E+00  0.00000000000E+00  0.99999998245E-14  0.12500000000E+03  0.12500000000E+03 0.  0.
    3000001    1    3    3    0    0  0.11108069782E+02  0.23978062013E+02  0.39206622340E+02  0.47291605042E+02  0.10000000000E+01 0. -1.
    1000022    2    1    0    0    0  0.94940682416E+01  0.29931708885E+02  0.53105608584E+02  0.62499998861E+02  0.99999832965E+01 0.  0.
    3000022    2    3    3    0    0 -0.16140015399E+01  0.59536468721E+01  0.13898986245E+02  0.15208393819E+02  0.25002373491E+00 0.  0.
    1000022    2    1    0    0    0 -0.94940682416E+01 -0.29931708885E+02 -0.53105608584E+02  0.62500001139E+02  0.99999975365E+01 0.  0.
    3000022    2    5    5    0    0  0.44107835566E+00 -0.12546438208E+02 -0.16158743053E+02  0.20463996964E+02  0.25006571628E+00 0.  0.
        -13    1    4    4    0    0 -0.91757096429E+00  0.35576717242E+01  0.83854145045E+01  0.91556084442E+01  0.10500000000E+00 0.  1.
         13    1    4    4    0    0 -0.69643057560E+00  0.23959751479E+01  0.55135717404E+01  0.60527853747E+01  0.10500000000E+00 0. -1.
    3000001    1    5    5    0    0 -0.99351465973E+01 -0.17385270676E+02 -0.36946865532E+02  0.42036004175E+02  0.10000000000E+01 0.  1.
        -13    1    6    6    0    0  0.19084019768E+00 -0.46291583231E+01 -0.58786449187E+01  0.74856541359E+01  0.10500000000E+00 0.  1.
         13    1    6    6    0    0  0.25023815798E+00 -0.79172798853E+01 -0.10280098134E+02  0.12978342828E+02  0.10500000000E+00 0. -1.
</event>
<event>
11    0  0.3494755E-009  0.9118800E+02  0.7816531E-02  0.1126479E+00
         25   -1    0    0    0    0  0.00000000000E+00  0.00000000000E+00  0.99999998245E-14  0.12500000000E+03  0.12500000000E+03 0.  0.
    3000001    1    3    3    0    0  0.33869043194E+02  0.22339508836E+02  0.30276138958E+02  0.50634082713E+02  0.10000000000E+01 0. -1.
    1000022    2    1    0    0    0  0.39560601772E+02  0.31365760796E+02  0.35459804947E+02  0.62499998714E+02  0.99999954743E+01 0.  0.
    3000022    2    3    3    0    0  0.56915585777E+01  0.90262519603E+01  0.51836659885E+01  0.11865916001E+02  0.25001195066E+00 0.  0.
    1000022    2    1    0    0    0 -0.39560601772E+02 -0.31365760796E+02 -0.35459804947E+02  0.62500001286E+02  0.10000011552E+02 0.  0.
    3000022    2    5    5    0    0 -0.36917907721E+02 -0.31478561631E+02 -0.34422907846E+02  0.59488073088E+02  0.25000455390E+00 0.  0.
        -13    1    4    4    0    0  0.30382453853E+01  0.48937259595E+01  0.28577081756E+01  0.64309415955E+01  0.10500000000E+00 0.  1.
         13    1    4    4    0    0  0.26533131924E+01  0.41325260007E+01  0.23259578129E+01  0.54349744057E+01  0.10500000000E+00 0. -1.
    3000001    1    5    5    0    0 -0.26426940503E+01  0.11280083521E+00 -0.10368971013E+01  0.30119281981E+01  0.10000000000E+01 0.  1.
        -13    1    6    6    0    0 -0.11140081604E+02 -0.95012673149E+01 -0.10445289760E+02  0.17985844487E+02  0.10500000000E+00 0. -1.
         13    1    6    6    0    0 -0.25777826118E+02 -0.21977294317E+02 -0.23977618085E+02  0.41502228601E+02  0.10500000000E+00 0.  1.
</event>
<event>
11    0  0.3494755E-009  0.9118800E+02  0.7816531E-02  0.1126479E+00
         25   -1    0    0    0    0  0.00000000000E+00  0.00000000000E+00  0.99999998245E-14  0.12500000000E+03  0.12500000000E+03 0.  0.
    3000001    1    3    3    0    0 -0.43142006107E+02  0.76630797019E+01  0.15280902464E+02  0.46416176723E+02  0.10000000000E+01 0.  1.
    1000022    2    1    0    0    0 -0.59214970477E+02  0.81977476316E+01  0.15252352827E+02  0.62499999971E+02  0.99999967352E+01 0.  0.
    3000022    2    3    3    0    0 -0.16072964370E+02  0.53466792972E+00 -0.28549637041E-01  0.16083823247E+02  0.25000347559E+00 0.  0.
    1000022    2    1    0    0    0  0.59214970477E+02 -0.81977476316E+01 -0.15252352827E+02  0.62500000029E+02  0.99999971031E+01 0.  0.
    3000022    2    5    5    0    0  0.28980069394E+02 -0.64475488763E+01 -0.30966370683E+01  0.29850744835E+02  0.24999485361E+00 0.  0.
        -13    1    4    4    0    0 -0.99484645829E+01  0.28152225824E+00  0.18091632324E-01  0.99530173639E+01  0.10500000000E+00 0. -1.
         13    1    4    4    0    0 -0.61244997870E+01  0.25314567148E+00 -0.46641269365E-01  0.61308058834E+01  0.10500000000E+00 0.  1.
    3000001    1    5    5    0    0  0.30234901083E+02 -0.17501987553E+01 -0.12155715759E+02  0.32649255195E+02  0.10000000000E+01 0.  1.
        -13    1    6    6    0    0  0.10430540303E+02 -0.23748492291E+01 -0.11399521914E+01  0.10758559191E+02  0.10500000000E+00 0.  1.
         13    1    6    6    0    0  0.18549529092E+02 -0.40726996472E+01 -0.19566848769E+01  0.19092185643E+02  0.10500000000E+00 0. -1.
</event>
<event>
11    0  0.3494755E-009  0.9118800E+02  0.7816531E-02  0.1126479E+00
         25   -1    0    0    0    0  0.00000000000E+00  0.00000000000E+00  0.99999998245E-14  0.12500000000E+03  0.12500000000E+03 0.  0.
    3000001    1    3    3    0    0  0.51648009615E+01 -0.49004615198E+01  0.14800170487E+02  0.16454018917E+02  0.10000000000E+01 0.  1.
    1000022    2    1    0    0    0  0.34037276559E+02 -0.16963583387E+02  0.48579321607E+02  0.62499999281E+02  0.10000003269E+02 0.  0.
    3000022    2    3    3    0    0  0.28872475598E+02 -0.12063121868E+02  0.33779151120E+02  0.46045980364E+02  0.25000184546E+00 0.  0.
    1000022    2    1    0    0    0 -0.34037276559E+02  0.16963583387E+02 -0.48579321607E+02  0.62500000719E+02  0.10000012257E+02 0.  0.
    3000022    2    5    5    0    0 -0.33203923674E+02  0.17854593893E+02 -0.47166499046E+02  0.60382350053E+02  0.24999053684E+00 0.  0.
        -13    1    4    4    0    0  0.95006411110E+01 -0.39981720013E+01  0.11060452354E+02  0.15119265595E+02  0.10500000000E+00 0. -1.
         13    1    4    4    0    0  0.19371834487E+02 -0.80649498662E+01  0.22718698766E+02  0.30926714768E+02  0.10500000000E+00 0.  1.
    3000001    1    5    5    0    0 -0.83335288504E+00 -0.89101050553E+00 -0.14128225615E+01  0.21176506658E+01  0.10000000000E+01 0.  1.
        -13    1    6    6    0    0 -0.19602456064E+02  0.10483222427E+02 -0.27748557901E+02  0.35554855178E+02  0.10500000000E+00 0.  1.
         13    1    6    6    0    0 -0.13601467610E+02  0.73713714660E+01 -0.19417941145E+02  0.24827494875E+02  0.10500000000E+00 0. -1.
</event>
<event>
11    0  0.3494755E-009  0.9118800E+02  0.7816531E-02  0.1126479E+00
         25   -1    0    0    0    0  0.00000000000E+00  0.00000000000E+00  0.99999998245E-14  0.12500000000E+03  0.12500000000E+03 0.  0.
    3000001    1    3    3    0    0  0.13173043141E+02  0.22471122936E+01 -0.55671877623E+01  0.14511104673E+02  0.10000000000E+01 0. -1.
    1000022    2    1    0    0    0  0.47025866190E+02  0.91802452305E+01 -0.38865679442E+02  0.62499999327E+02  0.99999941997E+01 0.  0.
    3000022    2    3    3    0    0  0.33852823049E+02  0.69331329369E+01 -0.33298491680E+02  0.47988894654E+02  0.25000253220E+00 0.  0.
    1000022    2    1    0    0    0 -0.47025866190E+02 -0.91802452305E+01  0.38865679442E+02  0.62500000673E+02  0.10000002609E+02 0.  0.
    3000022    2    5    5    0    0 -0.40044083108E+02 -0.11174792707E+02  0.32098188162E+02  0.52523906603E+02  0.24999530143E+00 0.  0.
        -13    1    4    4    0    0  0.13397926521E+02  0.28043387974E+01 -0.13161838774E+02  0.18989833492E+02  0.10500000000E+00 0.  1.
         13    1    4    4    0    0  0.20454896528E+02  0.41287941396E+01 -0.20136652905E+02  0.28999061162E+02  0.10500000000E+00 0. -1.
    3000001    1    5    5    0    0 -0.69817830826E+01  0.19945474767E+01  0.67674912805E+01  0.99760940693E+01  0.10000000000E+01 0.  1.
        -13    1    6    6    0    0 -0.25992549927E+02 -0.72584806483E+01  0.20907054184E+02  0.34138162409E+02  0.10500000000E+00 0.  1.
         13    1    6    6    0    0 -0.14051533181E+02 -0.39163120589E+01  0.11191133978E+02  0.18385744194E+02  0.10500000000E+00 0. -1.
</event>
<event>
11    0  0.3494755E-009  0.9118800E+02  0.7816531E-02  0.1126479E+00
         25   -1    0    0    0    0  0.00000000000E+00  0.00000000000E+00  0.99999998245E-14  0.12500000000E+03  0.12500000000E+03 0.  0.
    3000001    1    3    3    0    0 -0.17912605798E+02 -0.24190695071E+02 -0.51582529007E+02  0.59731134873E+02  0.10000000000E+01 0. -1.
    1000022    2    1    0    0    0 -0.17709525581E+02 -0.26690965906E+02 -0.52727744468E+02  0.62499999703E+02  0.99999984443E+01 0.  0.
    3000022    2    3    3    0    0  0.20308021661E+00 -0.25002708351E+01 -0.11452154618E+01  0.27688648305E+01  0.24999634515E+00 0.  0.
    1000022    2    1    0    0    0  0.17709525581E+02  0.26690965906E+02  0.52727744468E+02  0.62500000297E+02  0.10000002151E+02 0.  0.
    3000022    2    5    5    0    0  0.13885827370E+02  0.14497254775E+02  0.25922530469E+02  0.32787599573E+02  0.25000425911E+00 0.  0.
        -13    1    4    4    0    0  0.57125825980E-01 -0.11854412438E+01 -0.48136921340E+00  0.12850196971E+01  0.10500000000E+00 0.  1.
         13    1    4    4    0    0  0.14595439063E+00 -0.13148295913E+01 -0.66384624845E+00  0.14838451334E+01  0.10500000000E+00 0. -1.
    3000001    1    5    5    0    0  0.38236982114E+01  0.12193711132E+02  0.26805213999E+02  0.29712400723E+02  0.10000000000E+01 0.  1.
        -13    1    6    6    0    0  0.87311069310E+01  0.92012162344E+01  0.16381884097E+02  0.20718874487E+02  0.10500000000E+00 0.  1.
         13    1    6    6    0    0  0.51547204388E+01  0.52960385404E+01  0.95406463715E+01  0.12068725086E+02  0.10500000000E+00 0. -1.
</event>
<event>
11    0  0.3494755E-009  0.9118800E+02  0.7816531E-02  0.1126479E+00
         25   -1    0    0    0    0  0.00000000000E+00  0.00000000000E+00  0.99999998245E-14  0.12500000000E+03  0.12500000000E+03 0.  0.
    3000001    1    3    3    0    0  0.20659757907E+02  0.68050066720E+01  0.16705850310E+02  0.27444838261E+02  0.10000000000E+01 0. -1.
    1000022    2    1    0    0    0  0.38867397419E+02  0.14699507942E+02  0.45601534763E+02  0.62500000124E+02  0.99999963451E+01 0.  0.
    3000022    2    3    3    0    0  0.18207639512E+02  0.78945012697E+01  0.28895684453E+02  0.35055161863E+02  0.25001270377E+00 0.  0.
    1000022    2    1    0    0    0 -0.38867397419E+02 -0.14699507942E+02 -0.45601534763E+02  0.62499999876E+02  0.99999947942E+01 0.  0.
    3000022    2    5    5    0    0 -0.11827568283E+01  0.96889829593E+00 -0.41696531173E+00  0.16043809286E+01  0.25000093975E+00 0.  0.
        -13    1    4    4    0    0  0.81542016081E+01  0.35680174002E+01  0.12854667012E+02  0.15635704046E+02  0.10500000000E+00 0.  1.
         13    1    4    4    0    0  0.10053437904E+02  0.43264838695E+01  0.16041017441E+02  0.19419457817E+02  0.10500000000E+00 0. -1.
    3000001    1    5    5    0    0 -0.37684640591E+02 -0.15668406238E+02 -0.45184569451E+02  0.60895618947E+02  0.10000000000E+01 0. -1.
        -13    1    6    6    0    0 -0.76831846878E+00  0.55135903831E+00 -0.24480709183E+00  0.98247929790E+00  0.10500000000E+00 0. -1.
         13    1    6    6    0    0 -0.41443835956E+00  0.41753925762E+00 -0.17215821990E+00  0.62190163065E+00  0.10500000000E+00 0.  1.
</event>
<event>
11    0  0.3494755E-009  0.9118800E+02  0.7816531E-02  0.1126479E+00
         25   -1    0    0    0    0  0.00000000000E+00  0.00000000000E+00  0.99999998245E-14  0.12500000000E+03  0.12500000000E+03 0.  0.
    3000001    1    3    3    0    0 -0.12921855669E+02 -0.16701453131E+02  0.24906388102E+02  0.32668655603E+02  0.10000000000E+01 0.  1.
    1000022    2    1    0    0    0 -0.32497979597E+02 -0.27467740037E+02  0.44672747966E+02  0.62499998037E+02  0.99999961621E+01 0.  0.
    3000022    2    3    3    0    0 -0.19576123928E+02 -0.10766286906E+02  0.19766359863E+02  0.29831342434E+02  0.24989475810E+00 0.  0.
    1000022    2    1    0    0    0  0.32497979597E+02  0.27467740037E+02 -0.44672747966E+02  0.62500001963E+02  0.10000020697E+02 0.  0.
    3000022    2    5    5    0    0  0.11720237160E+02  0.81920872715E+01 -0.21769160941E+02  0.26046748762E+02  0.25000012357E+00 0.  0.
        -13    1    4    4    0    0 -0.15076777053E+02 -0.82974734676E+01  0.15226011976E+02  0.22978244884E+02  0.10500000000E+00 0.  1.
         13    1    4    4    0    0 -0.44993468752E+01 -0.24688134386E+01  0.45403478872E+01  0.68530975503E+01  0.10500000000E+00 0. -1.
    3000001    1    5    5    0    0  0.20777742437E+02  0.19275652766E+02 -0.22903587025E+02  0.36453253201E+02  0.10000000000E+01 0.  1.
        -13    1    6    6    0    0  0.37626615647E+01  0.26553522832E+01 -0.70972893869E+01  0.84611500069E+01  0.10500000000E+00 0.  1.
         13    1    6    6    0    0  0.79575755952E+01  0.55367349883E+01 -0.14671871554E+02  0.17585598755E+02  0.10500000000E+00 0. -1.
</event>
<event>
11    0  0.3494755E-009  0.9118800E+02  0.7816531E-02  0.1126479E+00
         25   -1    0    0    0    0  0.00000000000E+00  0.00000000000E+00  0.99999998245E-14  0.12500000000E+03  0.12500000000E+03 0.  0.
    3000001    1    3    3    0    0  0.41699599306E+02  0.26966758825E+02  0.14971217600E+02  0.51876777273E+02  0.10000000000E+01 0. -1.
    1000022    2    1    0    0    0  0.51921770511E+02  0.29843529990E+02  0.14823752778E+02  0.62499999052E+02  0.99999849891E+01 0.  0.
    3000022    2    3    3    0    0  0.10222171205E+02  0.28767711650E+01 -0.14746482213E+00  0.10623221779E+02  0.24999721043E+00 0.  0.
    1000022    2    1    0    0    0 -0.51921770511E+02 -0.29843529990E+02 -0.14823752778E+02  0.62500000948E+02  0.99999968404E+01 0.  0.
    3000022    2    5    5    0    0 -0.82818670334E+01 -0.16017912619E+01 -0.42344251346E+01  0.94418173958E+01  0.25000541660E+00 0.  0.
        -13    1    4    4    0    0  0.46656201284E+01  0.13325902988E+01 -0.13164569108E+00  0.48551172669E+01  0.10500000000E+00 0.  1.
         13    1    4    4    0    0  0.55565510767E+01  0.15441808662E+01 -0.15819131043E-01  0.57681045119E+01  0.10500000000E+00 0. -1.
    3000001    1    5    5    0    0 -0.43639903478E+02 -0.28241738728E+02 -0.10589327643E+02  0.53058183552E+02  0.10000000000E+01 0. -1.
        -13    1    6    6    0    0 -0.50753788405E+01 -0.99442687073E+00 -0.25282484174E+01  0.57577270025E+01  0.10500000000E+00 0.  1.
         13    1    6    6    0    0 -0.32064881930E+01 -0.60736439122E+00 -0.17061767172E+01  0.36840903932E+01  0.10500000000E+00 0. -1.
</event>
<event>
11    0  0.3494755E-009  0.9118800E+02  0.7816531E-02  0.1126479E+00
         25   -1    0    0    0    0  0.00000000000E+00  0.00000000000E+00  0.99999998245E-14  0.12500000000E+03  0.12500000000E+03 0.  0.
    3000001    1    3    3    0    0 -0.10291165894E+02 -0.56470999475E+02 -0.23019957299E+02  0.61853054179E+02  0.10000000000E+01 0.  1.
    1000022    2    1    0    0    0 -0.10214304008E+02 -0.56122632763E+02 -0.23498258287E+02  0.62499999257E+02  0.99999924969E+01 0.  0.
    3000022    2    3    3    0    0  0.76861886484E-01  0.34836671201E+00 -0.47830098785E+00  0.64694507797E+00  0.24999796660E+00 0.  0.
    1000022    2    1    0    0    0  0.10214304008E+02  0.56122632763E+02  0.23498258287E+02  0.62500000743E+02  0.10000001789E+02 0.  0.
    3000022    2    5    5    0    0  0.57332835216E+01  0.11869114850E+02  0.30344645996E+01  0.13528373811E+02  0.24999063045E+00 0.  0.
        -13    1    4    4    0    0  0.87473922734E-01  0.11449985583E+00 -0.17750102496E+00  0.25158203037E+00  0.10500000000E+00 0.  1.
         13    1    4    4    0    0 -0.10612036250E-01  0.23386685618E+00 -0.30079996289E+00  0.39536304760E+00  0.10500000000E+00 0. -1.
    3000001    1    5    5    0    0  0.44810204863E+01  0.44253517913E+02  0.20463793688E+02  0.48971626932E+02  0.10000000000E+01 0.  1.
        -13    1    6    6    0    0  0.31559424311E+01  0.65816482264E+01  0.16155485453E+01  0.74765692738E+01  0.10500000000E+00 0.  1.
         13    1    6    6    0    0  0.25773410906E+01  0.52874666232E+01  0.14189160543E+01  0.60518045373E+01  0.10500000000E+00 0. -1.
</event>
<event>
11    0  0.3494755E-009  0.9118800E+02  0.7816531E-02  0.1126479E+00
         25   -1    0    0    0    0  0.00000000000E+00  0.00000000000E+00  0.99999998245E-14  0.12500000000E+03  0.12500000000E+03 0.  0.
    3000001    1    3    3    0    0 -0.78978187773E+00  0.24822732222E+01  0.87883390816E+00  0.29253691737E+01  0.10000000000E+01 0. -1.
    1000022    2    1    0    0    0  0.19702002116E+02  0.58360555259E+02  0.34823719158E+01  0.62499998919E+02  0.99999826587E+01 0.  0.
    3000022    2    3    3    0    0  0.20491783994E+02  0.55878282037E+02  0.26035380076E+01  0.59574629745E+02  0.24996896838E+00 0.  0.
    1000022    2    1    0    0    0 -0.19702002116E+02 -0.58360555259E+02 -0.34823719158E+01  0.62500001081E+02  0.99999961739E+01 0.  0.
    3000022    2    5    5    0    0 -0.17516613027E+02 -0.56299160517E+02 -0.46032543831E+01  0.59141184138E+02  0.25000689633E+00 0.  0.
        -13    1    4    4    0    0  0.52326768866E+01  0.14224012382E+02  0.68745705726E+00  0.15171916749E+02  0.10500000000E+00 0.  1.
         13    1    4    4    0    0  0.15259107107E+02  0.41654269655E+02  0.19160809504E+01  0.44402712996E+02  0.10500000000E+00 0. -1.
    3000001    1    5    5    0    0 -0.21853890895E+01 -0.20613947418E+01  0.11208824673E+01  0.33588169434E+01  0.10000000000E+01 0. -1.
        -13    1    6    6    0    0 -0.62393907953E+01 -0.20173446566E+02 -0.16943242531E+01  0.21184421246E+02  0.10500000000E+00 0.  1.
         13    1    6    6    0    0 -0.11277222231E+02 -0.36125713951E+02 -0.29089301300E+01  0.37956762892E+02  0.10500000000E+00 0. -1.
</event>
<event>
11    0  0.3494755E-009  0.9118800E+02  0.7816531E-02  0.1126479E+00
         25   -1    0    0    0    0  0.00000000000E+00  0.00000000000E+00  0.99999998245E-14  0.12500000000E+03  0.12500000000E+03 0.  0.
    3000001    1    3    3    0    0  0.20002226892E+02  0.70126271522E+01 -0.43143904495E+02  0.48079751614E+02  0.10000000000E+01 0.  1.
    1000022    2    1    0    0    0  0.22745256476E+02  0.48963562166E+01 -0.57139556247E+02  0.62500000824E+02  0.10000010924E+02 0.  0.
    3000022    2    3    3    0    0  0.27430295843E+01 -0.21162709356E+01 -0.13995651753E+02  0.14420249210E+02  0.25001065016E+00 0.  0.
    1000022    2    1    0    0    0 -0.22745256476E+02 -0.48963562166E+01  0.57139556247E+02  0.62499999176E+02  0.10000000628E+02 0.  0.
    3000022    2    5    5    0    0 -0.72092245500E+01 -0.64514130718E+01  0.21560257780E+02  0.23632622506E+02  0.24996346049E+00 0.  0.
        -13    1    4    4    0    0  0.88843543543E+00 -0.66295272744E+00 -0.42928940079E+01  0.44349507105E+01  0.10500000000E+00 0. -1.
         13    1    4    4    0    0  0.18545941488E+01 -0.14533182082E+01 -0.97027577447E+01  0.99852984994E+01  0.10500000000E+00 0.  1.
    3000001    1    5    5    0    0 -0.15536031926E+02  0.15550568552E+01  0.35579298467E+02  0.38867376670E+02  0.10000000000E+01 0.  1.
        -13    1    6    6    0    0 -0.38215741992E+01 -0.34284512649E+01  0.11277574435E+02  0.12391667264E+02  0.10500000000E+00 0. -1.
         13    1    6    6    0    0 -0.33876503508E+01 -0.30229618069E+01  0.10282683345E+02  0.11240955242E+02  0.10500000000E+00 0.  1.
</event>
<event>
11    0  0.3494755E-009  0.9118800E+02  0.7816531E-02  0.1126479E+00
         25   -1    0    0    0    0  0.00000000000E+00  0.00000000000E+00  0.99999998245E-14  0.12500000000E+03  0.12500000000E+03 0.  0.
    3000001    1    3    3    0    0 -0.26305840832E+02  0.18491824240E+02  0.21540241673E+01  0.32242590555E+02  0.10000000000E+01 0. -1.
    1000022    2    1    0    0    0 -0.55133518088E+02  0.27650122760E+02  0.14198654669E+01  0.62500000919E+02  0.99999995772E+01 0.  0.
    3000022    2    3    3    0    0 -0.28827677257E+02  0.91582985200E+01 -0.73415870046E+00  0.30257410364E+02  0.24997033533E+00 0.  0.
    1000022    2    1    0    0    0  0.55133518088E+02 -0.27650122760E+02 -0.14198654669E+01  0.62499999081E+02  0.99999880876E+01 0.  0.
    3000022    2    5    5    0    0  0.20236654808E+02 -0.11817775133E+02  0.40336561398E+01  0.23780556986E+02  0.25000365978E+00 0.  0.
        -13    1    4    4    0    0 -0.14305768671E+02  0.44738328824E+01 -0.35952528274E+00  0.14993681381E+02  0.10500000000E+00 0. -1.
         13    1    4    4    0    0 -0.14521908585E+02  0.46844656375E+01 -0.37463341772E+00  0.15263728983E+02  0.10500000000E+00 0.  1.
    3000001    1    5    5    0    0  0.34896863280E+02 -0.15832347627E+02 -0.54535216067E+01  0.38719442095E+02  0.10000000000E+01 0. -1.
        -13    1    6    6    0    0  0.95676288672E+01 -0.56651278519E+01  0.19072608285E+01  0.11281926457E+02  0.10500000000E+00 0. -1.
         13    1    6    6    0    0  0.10669025941E+02 -0.61526472809E+01  0.21263953113E+01  0.12498630529E+02  0.10500000000E+00 0.  1.
</event>
<event>
11    0  0.3494755E-009  0.9118800E+02  0.7816531E-02  0.1126479E+00
         25   -1    0    0    0    0  0.00000000000E+00  0.00000000000E+00  0.99999998245E-14  0.12500000000E+03  0.12500000000E+03 0.  0.
    3000001    1    3    3    0    0 -0.49076224967E+02 -0.22854101101E+01 -0.22787879559E+02  0.54166284820E+02  0.10000000000E+01 0.  1.
    1000022    2    1    0    0    0 -0.55418067585E+02  0.97307797783E+00 -0.27095036114E+02  0.62500000055E+02  0.99999964641E+01 0.  0.
    3000022    2    3    3    0    0 -0.63418426177E+01  0.32584880880E+01 -0.43071565548E+01  0.83337152351E+01  0.24999925061E+00 0.  0.
    1000022    2    1    0    0    0  0.55418067585E+02 -0.97307797783E+00  0.27095036114E+02  0.62499999945E+02  0.99999957736E+01 0.  0.
    3000022    2    5    5    0    0  0.76372614349E+00  0.12790172166E+01  0.13884474601E+01  0.20516941671E+01  0.24999988641E+00 0.  0.
        -13    1    4    4    0    0 -0.40957214573E+01  0.21300381586E+01 -0.28489183991E+01  0.54258048120E+01  0.10500000000E+00 0. -1.
         13    1    4    4    0    0 -0.22461211604E+01  0.11284499294E+01 -0.14582381558E+01  0.29079104232E+01  0.10500000000E+00 0.  1.
    3000001    1    5    5    0    0  0.54654341442E+02 -0.22520951944E+01  0.25706588654E+02  0.60448305778E+02  0.10000000000E+01 0.  1.
        -13    1    6    6    0    0  0.20463462378E+00  0.43933813349E+00  0.47774379448E+00  0.68859092206E+00  0.10500000000E+00 0. -1.
         13    1    6    6    0    0  0.55909151971E+00  0.83967908313E+00  0.91070366566E+00  0.13631032451E+01  0.10500000000E+00 0.  1.
</event>
<event>
11    0  0.3494755E-009  0.9118800E+02  0.7816531E-02  0.1126479E+00
         25   -1    0    0    0    0  0.00000000000E+00  0.00000000000E+00  0.99999998245E-14  0.12500000000E+03  0.12500000000E+03 0.  0.
    3000001    1    3    3    0    0  0.27786046697E+01  0.91851336602E+01  0.18191181706E+02  0.20591416078E+02  0.10000000000E+01 0.  1.
    1000022    2    1    0    0    0  0.21778648346E+02  0.24788623212E+02  0.52129306634E+02  0.62499999604E+02  0.99999987910E+01 0.  0.
    3000022    2    3    3    0    0  0.19000043676E+02  0.15603489552E+02  0.33938124928E+02  0.41908583525E+02  0.25000713449E+00 0.  0.
    1000022    2    1    0    0    0 -0.21778648346E+02 -0.24788623212E+02 -0.52129306634E+02  0.62500000396E+02  0.10000003746E+02 0.  0.
    3000022    2    5    5    0    0 -0.42802044147E+01 -0.11810957679E+02 -0.21446810918E+02  0.24856529701E+02  0.24999812891E+00 0.  0.
        -13    1    4    4    0    0  0.10935262266E+02  0.89000775226E+01  0.19496550027E+02  0.24060711309E+02  0.10500000000E+00 0.  1.
         13    1    4    4    0    0  0.80647814101E+01  0.67034120293E+01  0.14441574901E+02  0.17847872216E+02  0.10500000000E+00 0. -1.
    3000001    1    5    5    0    0 -0.17498443931E+02 -0.12977665533E+02 -0.30682495715E+02  0.37643470696E+02  0.10000000000E+01 0.  1.
        -13    1    6    6    0    0 -0.20459220923E+01 -0.56250374785E+01 -0.10085761761E+02  0.11728617102E+02  0.10500000000E+00 0.  1.
         13    1    6    6    0    0 -0.22342823224E+01 -0.61859202008E+01 -0.11361049157E+02  0.13127912598E+02  0.10500000000E+00 0. -1.
</event>
<event>
11    0  0.3494755E-009  0.9118800E+02  0.7816531E-02  0.1126479E+00
         25   -1    0    0    0    0  0.00000000000E+00  0.00000000000E+00  0.99999998245E-14  0.12500000000E+03  0.12500000000E+03 0.  0.
    3000001    1    3    3    0    0  0.19005328939E+01 -0.25912546263E+02 -0.34142782072E+02  0.42916216594E+02  0.10000000000E+01 0.  1.
    1000022    2    1    0    0    0  0.65019908383E+01 -0.32639909515E+02 -0.51948151228E+02  0.62499998148E+02  0.99999887227E+01 0.  0.
    3000022    2    3    3    0    0  0.46014579444E+01 -0.67273632524E+01 -0.17805369156E+02  0.19583781554E+02  0.24999526739E+00 0.  0.
    1000022    2    1    0    0    0 -0.65019908383E+01  0.32639909515E+02  0.51948151228E+02  0.62500001852E+02  0.10000011873E+02 0.  0.
    3000022    2    5    5    0    0 -0.48291345215E+01  0.96571552778E+01  0.23599609167E+02  0.25953520796E+02  0.25000115849E+00 0.  0.
        -13    1    4    4    0    0  0.11897975469E+01 -0.17111381560E+01 -0.44972549156E+01  0.49578159271E+01  0.10500000000E+00 0. -1.
         13    1    4    4    0    0  0.34116603975E+01 -0.50162250964E+01 -0.13308114241E+02  0.14625965627E+02  0.10500000000E+00 0.  1.
    3000001    1    5    5    0    0 -0.16728563168E+01  0.22982754237E+02  0.28348542061E+02  0.36546481056E+02  0.10000000000E+01 0. -1.
        -13    1    6    6    0    0 -0.22317855730E+01  0.44302665802E+01  0.11000230932E+02  0.12067486663E+02  0.10500000000E+00 0. -1.
         13    1    6    6    0    0 -0.25973489485E+01  0.52268886976E+01  0.12599378236E+02  0.13886034133E+02  0.10500000000E+00 0.  1.
</event>
<event>
11    0  0.3494755E-009  0.9118800E+02  0.7816531E-02  0.1126479E+00
         25   -1    0    0    0    0  0.00000000000E+00  0.00000000000E+00  0.99999998245E-14  0.12500000000E+03  0.12500000000E+03 0.  0.
    3000001    1    3    3    0    0 -0.28214038242E+02 -0.36093093257E+01 -0.25331695327E+01  0.28574044439E+02  0.10000000000E+01 0. -1.
    1000022    2    1    0    0    0 -0.60408342116E+02 -0.11719491739E+02  0.44424812491E+01  0.62500000010E+02  0.10000003886E+02 0.  0.
    3000022    2    3    3    0    0 -0.32194303874E+02 -0.81101824131E+01  0.69756507818E+01  0.33925955570E+02  0.24999366130E+00 0.  0.
    1000022    2    1    0    0    0  0.60408342116E+02  0.11719491739E+02 -0.44424812491E+01  0.62499999990E+02  0.10000003766E+02 0.  0.
    3000022    2    5    5    0    0  0.69558179085E+00 -0.33046305395E+00  0.10526561572E+01  0.13280154609E+01  0.25000044254E+00 0.  0.
        -13    1    4    4    0    0 -0.22526249153E+02 -0.57197903519E+01  0.48969466527E+01  0.23751610768E+02  0.10500000000E+00 0.  1.
         13    1    4    4    0    0 -0.96680547211E+01 -0.23903920612E+01  0.20787041291E+01  0.10174344802E+02  0.10500000000E+00 0. -1.
    3000001    1    5    5    0    0  0.59712760325E+02  0.12049954793E+02 -0.54951374062E+01  0.61171984530E+02  0.10000000000E+01 0. -1.
        -13    1    6    6    0    0  0.50775776247E+00 -0.21475260578E+00  0.66971180017E+00  0.87377086374E+00  0.10500000000E+00 0.  1.
         13    1    6    6    0    0  0.18782402838E+00 -0.11571044817E+00  0.38294435700E+00  0.45424459711E+00  0.10500000000E+00 0. -1.
</event>
<event>
11    0  0.3494755E-009  0.9118800E+02  0.7816531E-02  0.1126479E+00
         25   -1    0    0    0    0  0.00000000000E+00  0.00000000000E+00  0.99999998245E-14  0.12500000000E+03  0.12500000000E+03 0.  0.
    3000001    1    3    3    0    0 -0.10024107471E+02  0.40202603176E+01 -0.26248975402E+01  0.11159539001E+02  0.10000000000E+01 0.  1.
    1000022    2    1    0    0    0 -0.47419567760E+02  0.20800278377E+02 -0.33540765885E+02  0.62499999331E+02  0.99999976550E+01 0.  0.
    3000022    2    3    3    0    0 -0.37395460289E+02  0.16780018059E+02 -0.30915868345E+02  0.51340460330E+02  0.24999020113E+00 0.  0.
    1000022    2    1    0    0    0  0.47419567760E+02 -0.20800278377E+02  0.33540765885E+02  0.62500000669E+02  0.10000006019E+02 0.  0.
    3000022    2    5    5    0    0  0.14073044376E+02 -0.61297279061E+01  0.47964197253E+01  0.16083913920E+02  0.25000520671E+00 0.  0.
        -13    1    4    4    0    0 -0.27201711300E+02  0.12214772924E+02 -0.22536034489E+02  0.37376699302E+02  0.10500000000E+00 0. -1.
         13    1    4    4    0    0 -0.10193748989E+02  0.45652451352E+01 -0.83798338562E+01  0.13963761028E+02  0.10500000000E+00 0.  1.
    3000001    1    5    5    0    0  0.33346523384E+02 -0.14670550471E+02  0.28744346160E+02  0.46416086749E+02  0.10000000000E+01 0.  1.
        -13    1    6    6    0    0  0.55317515001E+01 -0.24451990365E+01  0.19456178272E+01  0.63541896979E+01  0.10500000000E+00 0.  1.
         13    1    6    6    0    0  0.85412928758E+01 -0.36845288696E+01  0.28508018981E+01  0.97297242223E+01  0.10500000000E+00 0. -1.
</event>
<event>
11    0  0.3494755E-009  0.9118800E+02  0.7816531E-02  0.1126479E+00
         25   -1    0    0    0    0  0.00000000000E+00  0.00000000000E+00  0.99999998245E-14  0.12500000000E+03  0.12500000000E+03 0.  0.
    3000001    1    3    3    0    0 -0.16933197716E+02  0.10282281374E+02  0.23653944087E+02  0.30870172757E+02  0.10000000000E+01 0.  1.
    1000022    2    1    0    0    0 -0.38084566527E+02  0.11585240114E+02  0.47133833428E+02  0.62499997423E+02  0.99999714066E+01 0.  0.
    3000022    2    3    3    0    0 -0.21151368812E+02  0.13029587404E+01  0.23479889340E+02  0.31629824666E+02  0.25000175183E+00 0.  0.
    1000022    2    1    0    0    0  0.38084566527E+02 -0.11585240114E+02 -0.47133833428E+02  0.62500002577E+02  0.10000003623E+02 0.  0.
    3000022    2    5    5    0    0  0.37702986552E+02 -0.10636826485E+02 -0.46798216982E+02  0.61031081174E+02  0.24996803242E+00 0.  0.
        -13    1    4    4    0    0 -0.14849000797E+02  0.95904162817E+00  0.16500174451E+02  0.22218896629E+02  0.10500000000E+00 0.  1.
         13    1    4    4    0    0 -0.63023680146E+01  0.34391711228E+00  0.69797148895E+01  0.94109280366E+01  0.10500000000E+00 0. -1.
    3000001    1    5    5    0    0  0.38157997557E+00 -0.94841362890E+00 -0.33561644619E+00  0.14689214030E+01  0.10000000000E+01 0.  1.
        -13    1    6    6    0    0  0.12884840913E+02 -0.36185185049E+01 -0.16070084079E+02  0.20913426998E+02  0.10500000000E+00 0. -1.
         13    1    6    6    0    0  0.24818145639E+02 -0.70183079806E+01 -0.30728132903E+02  0.40117654176E+02  0.10500000000E+00 0.  1.
</event>
<event>
11    0  0.3494755E-009  0.9118800E+02  0.7816531E-02  0.1126479E+00
         25   -1    0    0    0    0  0.00000000000E+00  0.00000000000E+00  0.99999998245E-14  0.12500000000E+03  0.12500000000E+03 0.  0.
    3000001    1    3    3    0    0 -0.62546750090E+01 -0.50037732776E+01 -0.21105416448E+02  0.22596400375E+02  0.10000000000E+01 0.  1.
    1000022    2    1    0    0    0 -0.23609501402E+02 -0.24523682548E+01 -0.56945838317E+02  0.62500009337E+02  0.99999999533E+01 0.  0.
    3000022    2    3    3    0    0 -0.17354826393E+02  0.25514050229E+01 -0.35840421869E+02  0.39903608963E+02  0.25000347606E+00 0.  0.
    1000022    2    1    0    0    0  0.23609501402E+02  0.24523682548E+01  0.56945838317E+02  0.62499990663E+02  0.99998832341E+01 0.  0.
    3000022    2    5    5    0    0  0.98862574462E+01 -0.38205313868E+01  0.21922245501E+02  0.24351219407E+02  0.24998484992E+00 0.  0.
        -13    1    4    4    0    0 -0.13028255510E+02  0.19130310506E+01 -0.26961673684E+02  0.30005632842E+02  0.10500000000E+00 0. -1.
         13    1    4    4    0    0 -0.43265708833E+01  0.63837397229E+00 -0.88787481857E+01  0.98979761205E+01  0.10500000000E+00 0.  1.
    3000001    1    5    5    0    0  0.13723243956E+02  0.62728996416E+01  0.35023592816E+02  0.38148771255E+02  0.10000000000E+01 0. -1.
        -13    1    6    6    0    0  0.64013929519E+01 -0.24490836197E+01  0.14294373309E+02  0.15852948483E+02  0.10500000000E+00 0.  1.
         13    1    6    6    0    0  0.34848644943E+01 -0.13714477671E+01  0.76278721918E+01  0.84982709239E+01  0.10500000000E+00 0. -1.
</event>
<event>
11    0  0.3494755E-009  0.9118800E+02  0.7816531E-02  0.1126479E+00
         25   -1    0    0    0    0  0.00000000000E+00  0.00000000000E+00  0.99999998245E-14  0.12500000000E+03  0.12500000000E+03 0.  0.
    3000001    1    3    3    0    0  0.31463944570E+02 -0.17980467547E+02  0.24825781021E+02  0.43938552825E+02  0.10000000000E+01 0. -1.
    1000022    2    1    0    0    0  0.47245643862E+02 -0.19694460624E+02  0.34441652122E+02  0.62499999078E+02  0.99999920305E+01 0.  0.
    3000022    2    3    3    0    0  0.15781699293E+02 -0.17139930775E+01  0.96158711015E+01  0.18561446253E+02  0.25001025130E+00 0.  0.
    1000022    2    1    0    0    0 -0.47245643862E+02  0.19694460624E+02 -0.34441652122E+02  0.62500000922E+02  0.10000003554E+02 0.  0.
    3000022    2    5    5    0    0 -0.44450606131E+01  0.54360959062E+01 -0.48758169462E+01  0.85525310965E+01  0.24998941744E+00 0.  0.
        -13    1    4    4    0    0  0.40480179679E+01 -0.44263206271E+00  0.24324170480E+01  0.47444757673E+01  0.10500000000E+00 0.  1.
         13    1    4    4    0    0  0.11733681325E+02 -0.12713610148E+01  0.71834540536E+01  0.13816970486E+02  0.10500000000E+00 0. -1.
    3000001    1    5    5    0    0 -0.42800583249E+02  0.14258364718E+02 -0.29565835176E+02  0.53947469825E+02  0.10000000000E+01 0. -1.
        -13    1    6    6    0    0 -0.32651569686E+01  0.39356567715E+01 -0.35552487725E+01  0.62290820421E+01  0.10500000000E+00 0.  1.
         13    1    6    6    0    0 -0.11799036445E+01  0.15004391347E+01 -0.13205681736E+01  0.23234490544E+01  0.10500000000E+00 0. -1.
</event>
<event>
11    0  0.3494755E-009  0.9118800E+02  0.7816531E-02  0.1126479E+00
         25   -1    0    0    0    0  0.00000000000E+00  0.00000000000E+00  0.99999998245E-14  0.12500000000E+03  0.12500000000E+03 0.  0.
    3000001    1    3    3    0    0 -0.35602182299E+02  0.12108232792E+02  0.99545513682E+00  0.37631311654E+02  0.10000000000E+01 0. -1.
    1000022    2    1    0    0    0 -0.60322059678E+02  0.12406784930E+02  0.36838775248E+01  0.62499998527E+02  0.99999833053E+01 0.  0.
    3000022    2    3    3    0    0 -0.24719877378E+02  0.29855213799E+00  0.26884223880E+01  0.24868686873E+02  0.25000173180E+00 0.  0.
    1000022    2    1    0    0    0  0.60322059678E+02 -0.12406784930E+02 -0.36838775248E+01  0.62500001473E+02  0.10000001723E+02 0.  0.
    3000022    2    5    5    0    0  0.48693816203E+02 -0.13337559560E+02 -0.10488033188E+01  0.50498918031E+02  0.25000489266E+00 0.  0.
        -13    1    4    4    0    0 -0.74902390268E+01  0.44434872327E-01  0.80705891977E+00  0.75344558022E+01  0.10500000000E+00 0. -1.
         13    1    4    4    0    0 -0.17229638352E+02  0.25411726566E+00  0.18813634682E+01  0.17334231071E+02  0.10500000000E+00 0.  1.
    3000001    1    5    5    0    0  0.11628243475E+02  0.93077463016E+00 -0.26350742060E+01  0.12001083443E+02  0.10000000000E+01 0.  1.
        -13    1    6    6    0    0  0.31483426650E+02 -0.85662035392E+01 -0.66337850030E+00  0.32634906048E+02  0.10500000000E+00 0. -1.
         13    1    6    6    0    0  0.17210389553E+02 -0.47713560212E+01 -0.38542481852E+00  0.17864011983E+02  0.10500000000E+00 0.  1.
</event>
<event>
11    0  0.3494755E-009  0.9118800E+02  0.7816531E-02  0.1126479E+00
         25   -1    0    0    0    0  0.00000000000E+00  0.00000000000E+00  0.99999998245E-14  0.12500000000E+03  0.12500000000E+03 0.  0.
    3000001    1    3    3    0    0  0.16431834260E+02  0.43084377856E+01 -0.18423044847E+02  0.25079401802E+02  0.10000000000E+01 0.  1.
    1000022    2    1    0    0    0  0.35257325960E+02  0.21363997735E+02 -0.45899352135E+02  0.62500000695E+02  0.10000006370E+02 0.  0.
    3000022    2    3    3    0    0  0.18825491700E+02  0.17055559950E+02 -0.27476307287E+02  0.37420598893E+02  0.24999283440E+00 0.  0.
    1000022    2    1    0    0    0 -0.35257325960E+02 -0.21363997735E+02  0.45899352135E+02  0.62499999305E+02  0.99999976842E+01 0.  0.
    3000022    2    5    5    0    0 -0.42573819282E+01 -0.50019033980E+01  0.12236851811E+02  0.13890549718E+02  0.24998150788E+00 0.  0.
        -13    1    4    4    0    0  0.55067147146E+01  0.49409763440E+01 -0.79665060947E+01  0.10872598518E+02  0.10500000000E+00 0. -1.
         13    1    4    4    0    0  0.13318776986E+02  0.12114583606E+02 -0.19509801192E+02  0.26548000375E+02  0.10500000000E+00 0.  1.
    3000001    1    5    5    0    0 -0.30999944032E+02 -0.16362094337E+02  0.33662500324E+02  0.48609449587E+02  0.10000000000E+01 0.  1.
        -13    1    6    6    0    0 -0.27200703429E+01 -0.32221681370E+01  0.77365292105E+01  0.88117001424E+01  0.10500000000E+00 0. -1.
         13    1    6    6    0    0 -0.15373115853E+01 -0.17797352610E+01  0.45003226002E+01  0.50788495760E+01  0.10500000000E+00 0.  1.
</event>
<event>
11    0  0.3494755E-009  0.9118800E+02  0.7816531E-02  0.1126479E+00
         25   -1    0    0    0    0  0.00000000000E+00  0.00000000000E+00  0.99999998245E-14  0.12500000000E+03  0.12500000000E+03 0.  0.
    3000001    1    3    3    0    0 -0.15097526577E+02 -0.25304624298E+02 -0.78223963304E+01  0.30503265464E+02  0.10000000000E+01 0.  1.
    1000022    2    1    0    0    0 -0.28145512374E+02 -0.54495681489E+02 -0.66558863953E+01  0.62499999721E+02  0.99999986793E+01 0.  0.
    3000022    2    3    3    0    0 -0.13047985796E+02 -0.29191057192E+02  0.11665099351E+01  0.31996734257E+02  0.25000872162E+00 0.  0.
    1000022    2    1    0    0    0  0.28145512374E+02  0.54495681489E+02  0.66558863953E+01  0.62500000279E+02  0.10000002173E+02 0.  0.
    3000022    2    5    5    0    0  0.75161368587E+01  0.73589537513E+01 -0.54340758519E+00  0.10535858125E+02  0.25000208382E+00 0.  0.
        -13    1    4    4    0    0 -0.34908812027E+01 -0.77323504803E+01  0.32216752612E+00  0.84906014178E+01  0.10500000000E+00 0.  1.
         13    1    4    4    0    0 -0.95571045937E+01 -0.21458706711E+02  0.84434240896E+00  0.23506132839E+02  0.10500000000E+00 0. -1.
    3000001    1    5    5    0    0  0.20629375515E+02  0.47136727738E+02  0.71992939805E+01  0.51964142154E+02  0.10000000000E+01 0. -1.
        -13    1    6    6    0    0  0.44842433000E+01  0.43932022751E+01 -0.38769260332E+00  0.62904685643E+01  0.10500000000E+00 0.  1.
         13    1    6    6    0    0  0.30318935587E+01  0.29657514762E+01 -0.15571498187E+00  0.42453895611E+01  0.10500000000E+00 0. -1.
</event>
<event>
11    0  0.3494755E-009  0.9118800E+02  0.7816531E-02  0.1126479E+00
         25   -1    0    0    0    0  0.00000000000E+00  0.00000000000E+00  0.99999998245E-14  0.12500000000E+03  0.12500000000E+03 0.  0.
    3000001    1    3    3    0    0 -0.51575180630E+02  0.49412248853E+01  0.31280358311E+02  0.60529957677E+02  0.10000000000E+01 0.  1.
    1000022    2    1    0    0    0 -0.53298227002E+02  0.55360142274E+01  0.30576159173E+02  0.62499998022E+02  0.99999893964E+01 0.  0.
    3000022    2    3    3    0    0 -0.17230463727E+01  0.59478934206E+00 -0.70419913767E+00  0.19700403455E+01  0.24999874674E+00 0.  0.
    1000022    2    1    0    0    0  0.53298227002E+02 -0.55360142274E+01 -0.30576159173E+02  0.62500001978E+02  0.10000014115E+02 0.  0.
    3000022    2    5    5    0    0  0.41086441068E+02 -0.35208115406E+01 -0.27924002161E+02  0.49802652081E+02  0.25000822165E+00 0.  0.
        -13    1    4    4    0    0 -0.52324222044E+00  0.16181661146E+00 -0.25997138062E+00  0.61528623886E+00  0.10500000000E+00 0. -1.
         13    1    4    4    0    0 -0.11998041523E+01  0.43297273060E+00 -0.44422775705E+00  0.13547541066E+01  0.10500000000E+00 0.  1.
    3000001    1    5    5    0    0  0.12211785934E+02 -0.20152026868E+01 -0.26521570124E+01  0.12697349896E+02  0.10000000000E+01 0.  1.
        -13    1    6    6    0    0  0.31396019233E+02 -0.26997290254E+01 -0.21353220891E+02  0.38065333676E+02  0.10500000000E+00 0. -1.
         13    1    6    6    0    0  0.96904218355E+01 -0.82108251525E+00 -0.65707812691E+01  0.11737318405E+02  0.10500000000E+00 0.  1.
</event>
<event>
11    0  0.3494755E-009  0.9118800E+02  0.7816531E-02  0.1126479E+00
         25   -1    0    0    0    0  0.00000000000E+00  0.00000000000E+00  0.99999998245E-14  0.12500000000E+03  0.12500000000E+03 0.  0.
    3000001    1    3    3    0    0  0.10990286709E+02 -0.32680840063E+02  0.29520254520E+02  0.45401201924E+02  0.10000000000E+01 0.  1.
    1000022    2    1    0    0    0  0.10104180977E+02 -0.47393470472E+02  0.38183955816E+02  0.62500000325E+02  0.10000002115E+02 0.  0.
    3000022    2    3    3    0    0 -0.88610573234E+00 -0.14712630409E+02  0.86637012963E+01  0.17098798402E+02  0.25001943494E+00 0.  0.
    1000022    2    1    0    0    0 -0.10104180977E+02  0.47393470472E+02 -0.38183955816E+02  0.62499999675E+02  0.99999980501E+01 0.  0.
    3000022    2    5    5    0    0 -0.36936872142E+01  0.12595481831E+02 -0.16117421400E+02  0.20787574849E+02  0.25001542720E+00 0.  0.
        -13    1    4    4    0    0 -0.39022304188E+00 -0.54847363109E+01  0.32375129498E+01  0.63817804352E+01  0.10500000000E+00 0.  1.
         13    1    4    4    0    0 -0.49588269046E+00 -0.92278940976E+01  0.54261883465E+01  0.10717017966E+02  0.10500000000E+00 0. -1.
    3000001    1    5    5    0    0 -0.64104937628E+01  0.34797988641E+02 -0.22066534416E+02  0.41712424826E+02  0.10000000000E+01 0. -1.
        -13    1    6    6    0    0 -0.11337356955E+01  0.39890691705E+01 -0.50363097342E+01  0.65248348801E+01  0.10500000000E+00 0. -1.
         13    1    6    6    0    0 -0.25599515187E+01  0.86064126603E+01 -0.11081111666E+02  0.14262739969E+02  0.10500000000E+00 0.  1.
</event>
<event>
11    0  0.3494755E-009  0.9118800E+02  0.7816531E-02  0.1126479E+00
         25   -1    0    0    0    0  0.00000000000E+00  0.00000000000E+00  0.99999998245E-14  0.12500000000E+03  0.12500000000E+03 0.  0.
    3000001    1    3    3    0    0 -0.88257188346E+01  0.22915101482E+01 -0.12210050597E+02  0.15271858671E+02  0.10000000000E+01 0.  1.
    1000022    2    1    0    0    0 -0.35713767734E+02 -0.78294802398E+01 -0.49693822666E+02  0.62499999484E+02  0.99999978860E+01 0.  0.
    3000022    2    3    3    0    0 -0.26888048899E+02 -0.10120990388E+02 -0.37483772070E+02  0.47228140812E+02  0.24999198143E+00 0.  0.
    1000022    2    1    0    0    0  0.35713767734E+02  0.78294802398E+01  0.49693822666E+02  0.62500000516E+02  0.10000004339E+02 0.  0.
    3000022    2    5    5    0    0  0.23701685841E+02  0.82865883869E+01  0.38975461262E+02  0.46363633811E+02  0.25000156402E+00 0.  0.
        -13    1    4    4    0    0 -0.17717411833E+02 -0.66891204526E+01 -0.24792876326E+02  0.31198537722E+02  0.10500000000E+00 0. -1.
         13    1    4    4    0    0 -0.91706370656E+01 -0.34318699353E+01 -0.12690895744E+02  0.16029603090E+02  0.10500000000E+00 0.  1.
    3000001    1    5    5    0    0  0.12012081893E+02 -0.45710814709E+00  0.10718361405E+02  0.16136366706E+02  0.10000000000E+01 0. -1.
        -13    1    6    6    0    0  0.87928855128E+01  0.31337199155E+01  0.14452668589E+02  0.17205397133E+02  0.10500000000E+00 0.  1.
         13    1    6    6    0    0  0.14908800328E+02  0.51528684713E+01  0.24522792672E+02  0.29158236678E+02  0.10500000000E+00 0. -1.
</event>
<event>
11    0  0.3494755E-009  0.9118800E+02  0.7816531E-02  0.1126479E+00
         25   -1    0    0    0    0  0.00000000000E+00  0.00000000000E+00  0.99999998245E-14  0.12500000000E+03  0.12500000000E+03 0.  0.
    3000001    1    3    3    0    0  0.14561797362E+02 -0.21049407024E+02 -0.15187213726E+02  0.29778766584E+02  0.10000000000E+01 0.  1.
    1000022    2    1    0    0    0  0.20862500315E+02 -0.47514632365E+02 -0.33367137723E+02  0.62500000460E+02  0.99999984735E+01 0.  0.
    3000022    2    3    3    0    0  0.63007029525E+01 -0.26465225341E+02 -0.18179923997E+02  0.32721233876E+02  0.24999958590E+00 0.  0.
    1000022    2    1    0    0    0 -0.20862500315E+02  0.47514632365E+02  0.33367137723E+02  0.62499999540E+02  0.99999927269E+01 0.  0.
    3000022    2    5    5    0    0 -0.49474550519E+01  0.21487606765E+02  0.17152990997E+02  0.27937110753E+02  0.25000215028E+00 0.  0.
        -13    1    4    4    0    0  0.37892269014E+01 -0.16113115100E+02 -0.11010466668E+02  0.19880445668E+02  0.10500000000E+00 0.  1.
         13    1    4    4    0    0  0.25114760511E+01 -0.10352110241E+02 -0.71694573294E+01  0.12840788208E+02  0.10500000000E+00 0. -1.
    3000001    1    5    5    0    0 -0.15915045263E+02  0.26027025600E+02  0.16214146726E+02  0.34562888788E+02  0.10000000000E+01 0. -1.
        -13    1    6    6    0    0 -0.14623992983E+01  0.63101350499E+01  0.50939137362E+01  0.82410799176E+01  0.10500000000E+00 0.  1.
         13    1    6    6    0    0 -0.34850557536E+01  0.15177471715E+02  0.12059077261E+02  0.19696030835E+02  0.10500000000E+00 0. -1.
</event>
<event>
11    0  0.3494755E-009  0.9118800E+02  0.7816531E-02  0.1126479E+00
         25   -1    0    0    0    0  0.00000000000E+00  0.00000000000E+00  0.99999998245E-14  0.12500000000E+03  0.12500000000E+03 0.  0.
    3000001    1    3    3    0    0  0.40707209528E+02  0.99733560959E+01 -0.40017390194E+02  0.57956330606E+02  0.10000000000E+01 0. -1.
    1000022    2    1    0    0    0  0.41467554079E+02  0.10485710671E+02 -0.44460564794E+02  0.62499999675E+02  0.99999984016E+01 0.  0.
    3000022    2    3    3    0    0  0.76034455077E+00  0.51235457473E+00 -0.44431745999E+01  0.45436690689E+01  0.24999407402E+00 0.  0.
    1000022    2    1    0    0    0 -0.41467554079E+02 -0.10485710671E+02  0.44460564794E+02  0.62500000325E+02  0.10000002462E+02 0.  0.
    3000022    2    5    5    0    0 -0.12797496303E+02  0.13075396743E+01  0.11799985949E+02  0.17458171132E+02  0.24999847418E+00 0.  0.
        -13    1    4    4    0    0  0.53344410908E+00  0.36746039509E+00 -0.28576163997E+01  0.29319935619E+01  0.10500000000E+00 0. -1.
         13    1    4    4    0    0  0.22690044169E+00  0.14489417963E+00 -0.15855582002E+01  0.16116755070E+01  0.10500000000E+00 0.  1.
    3000001    1    5    5    0    0 -0.28670057775E+02 -0.11793250345E+02  0.32660578845E+02  0.45041829193E+02  0.10000000000E+01 0. -1.
        -13    1    6    6    0    0 -0.59383968884E+01  0.66561056425E+00  0.54363635604E+01  0.80791502516E+01  0.10500000000E+00 0. -1.
         13    1    6    6    0    0 -0.68590994151E+01  0.64192911007E+00  0.63636223886E+01  0.93790208803E+01  0.10500000000E+00 0.  1.
</event>
<event>
11    0  0.3494755E-009  0.9118800E+02  0.7816531E-02  0.1126479E+00
         25   -1    0    0    0    0  0.00000000000E+00  0.00000000000E+00  0.99999998245E-14  0.12500000000E+03  0.12500000000E+03 0.  0.
    3000001    1    3    3    0    0 -0.10174858124E+02  0.85122994664E+01 -0.21157659606E+02  0.24992669726E+02  0.10000000000E+01 0. -1.
    1000022    2    1    0    0    0 -0.26298249561E+02  0.31307937867E+02 -0.46200271198E+02  0.62499999390E+02  0.99999980790E+01 0.  0.
    3000022    2    3    3    0    0 -0.16123391437E+02  0.22795638400E+02 -0.25042611592E+02  0.37507329664E+02  0.25000332703E+00 0.  0.
    1000022    2    1    0    0    0  0.26298249561E+02 -0.31307937867E+02  0.46200271198E+02  0.62500000610E+02  0.10000005699E+02 0.  0.
    3000022    2    5    5    0    0  0.11007178255E+02 -0.20576482886E+02  0.24156754915E+02  0.33588106901E+02  0.24999218327E+00 0.  0.
        -13    1    4    4    0    0 -0.74432727771E+01  0.10488018047E+02 -0.11449049763E+02  0.17218960412E+02  0.10500000000E+00 0.  1.
         13    1    4    4    0    0 -0.86801186603E+01  0.12307620353E+02 -0.13593561830E+02  0.20288369253E+02  0.10500000000E+00 0. -1.
    3000001    1    5    5    0    0  0.15291071306E+02 -0.10731454981E+02  0.22043516283E+02  0.28911893708E+02  0.10000000000E+01 0.  1.
        -13    1    6    6    0    0  0.34759076004E+01 -0.65971892967E+01  0.76921459989E+01  0.10713775027E+02  0.10500000000E+00 0. -1.
         13    1    6    6    0    0  0.75312706551E+01 -0.13979293589E+02  0.16464608916E+02  0.22874331874E+02  0.10500000000E+00 0.  1.
</event>
<event>
11    0  0.3494755E-009  0.9118800E+02  0.7816531E-02  0.1126479E+00
         25   -1    0    0    0    0  0.00000000000E+00  0.00000000000E+00  0.99999998245E-14  0.12500000000E+03  0.12500000000E+03 0.  0.
    3000001    1    3    3    0    0  0.90004134974E+00 -0.73721678403E+00  0.69653534632E-01  0.15357130698E+01  0.10000000000E+01 0.  1.
    1000022    2    1    0    0    0  0.52078939911E+02 -0.12778182090E+01 -0.33051489597E+02  0.62500001962E+02  0.10000023954E+02 0.  0.
    3000022    2    3    3    0    0  0.51178898561E+02 -0.54060142498E+00 -0.33121143132E+02  0.60964288892E+02  0.24997995275E+00 0.  0.
    1000022    2    1    0    0    0 -0.52078939911E+02  0.12778182090E+01  0.33051489597E+02  0.62499998038E+02  0.99999994270E+01 0.  0.
    3000022    2    5    5    0    0 -0.22669773790E+02 -0.75752789354E+00  0.20013300164E+02  0.30250407818E+02  0.24999496273E+00 0.  0.
        -13    1    4    4    0    0  0.14239333522E+02 -0.11408545432E+00 -0.91980747512E+01  0.16952499485E+02  0.10500000000E+00 0.  1.
         13    1    4    4    0    0  0.36939565039E+02 -0.42651597067E+00 -0.23923068381E+02  0.44011789408E+02  0.10500000000E+00 0. -1.
    3000001    1    5    5    0    0 -0.29409166121E+02  0.20353461026E+01  0.13038189433E+02  0.32249590220E+02  0.10000000000E+01 0. -1.
        -13    1    6    6    0    0 -0.11621483549E+02 -0.38091458847E+00  0.10349212348E+02  0.15566669426E+02  0.10500000000E+00 0.  1.
         13    1    6    6    0    0 -0.11048290241E+02 -0.37661330507E+00  0.96640878159E+01  0.14683738391E+02  0.10500000000E+00 0. -1.
</event>
<event>
11    0  0.3494755E-009  0.9118800E+02  0.7816531E-02  0.1126479E+00
         25   -1    0    0    0    0  0.00000000000E+00  0.00000000000E+00  0.99999998245E-14  0.12500000000E+03  0.12500000000E+03 0.  0.
    3000001    1    3    3    0    0 -0.31826847498E+02  0.53547736869E+01  0.33601721667E+01  0.32464019774E+02  0.10000000000E+01 0.  1.
    1000022    2    1    0    0    0 -0.61250925470E+02  0.69707884909E+01 -0.24458328104E+01  0.62499999291E+02  0.10000002502E+02 0.  0.
    3000022    2    3    3    0    0 -0.29424077972E+02  0.16160148040E+01 -0.58060049771E+01  0.30035979516E+02  0.25000672076E+00 0.  0.
    1000022    2    1    0    0    0  0.61250925470E+02 -0.69707884909E+01  0.24458328104E+01  0.62500000709E+02  0.10000011370E+02 0.  0.
    3000022    2    5    5    0    0  0.50748018380E+02 -0.94193898252E+01  0.16958758911E+01  0.51643245152E+02  0.25000134508E+00 0.  0.
        -13    1    4    4    0    0 -0.18918924127E+02  0.98164019913E+00 -0.37261056107E+01  0.19307620144E+02  0.10500000000E+00 0.  1.
         13    1    4    4    0    0 -0.10505153845E+02  0.63437460483E+00 -0.20798993664E+01  0.10728359372E+02  0.10500000000E+00 0. -1.
    3000001    1    5    5    0    0  0.10502907091E+02  0.24486013343E+01  0.74995691921E+00  0.10856755557E+02  0.10000000000E+01 0.  1.
        -13    1    6    6    0    0  0.30286221993E+02 -0.55790428702E+01  0.10595825976E+01  0.30814196439E+02  0.10500000000E+00 0.  1.
         13    1    6    6    0    0  0.20461796387E+02 -0.38403469550E+01  0.63629329352E+00  0.20829048713E+02  0.10500000000E+00 0. -1.
</event>
<event>
11    0  0.3494755E-009  0.9118800E+02  0.7816531E-02  0.1126479E+00
         25   -1    0    0    0    0  0.00000000000E+00  0.00000000000E+00  0.99999998245E-14  0.12500000000E+03  0.12500000000E+03 0.  0.
    3000001    1    3    3    0    0  0.82760546740E+01  0.10205946336E+01 -0.82867134085E+00  0.84392766612E+01  0.10000000000E+01 0. -1.
    1000022    2    1    0    0    0  0.59004284532E+02 -0.16668549282E+02 -0.68486444680E+01  0.62499998951E+02  0.99999904798E+01 0.  0.
    3000022    2    3    3    0    0  0.50728229858E+02 -0.17689143915E+02 -0.60199731272E+01  0.54060722290E+02  0.25000222609E+00 0.  0.
    1000022    2    1    0    0    0 -0.59004284532E+02  0.16668549282E+02  0.68486444680E+01  0.62500001049E+02  0.10000003588E+02 0.  0.
    3000022    2    5    5    0    0 -0.43089167406E+02  0.12315098954E+02  0.57332292783E+00  0.44818848843E+02  0.25000490537E+00 0.  0.
        -13    1    4    4    0    0  0.21395559929E+02 -0.74954540226E+01 -0.24839013745E+01  0.22806415911E+02  0.10500000000E+00 0.  1.
         13    1    4    4    0    0  0.29332669929E+02 -0.10193689893E+02 -0.35360717527E+01  0.31254306379E+02  0.10500000000E+00 0. -1.
    3000001    1    5    5    0    0 -0.15915117126E+02  0.43534503280E+01  0.62753215402E+01  0.17681152206E+02  0.10000000000E+01 0. -1.
        -13    1    6    6    0    0 -0.29731473596E+02  0.84473054155E+01  0.40101508113E+00  0.30910990425E+02  0.10500000000E+00 0. -1.
         13    1    6    6    0    0 -0.13357693810E+02  0.38677935385E+01  0.17230784670E+00  0.13907858418E+02  0.10500000000E+00 0.  1.
</event>
<event>
11    0  0.3494755E-009  0.9118800E+02  0.7816531E-02  0.1126479E+00
         25   -1    0    0    0    0  0.00000000000E+00  0.00000000000E+00  0.99999998245E-14  0.12500000000E+03  0.12500000000E+03 0.  0.
    3000001    1    3    3    0    0 -0.44459180933E+02  0.15624344629E+02 -0.30859717288E+02  0.56338806035E+02  0.10000000000E+01 0. -1.
    1000022    2    1    0    0    0 -0.48524617368E+02  0.19964905877E+02 -0.32450177663E+02  0.62499999956E+02  0.10000000335E+02 0.  0.
    3000022    2    3    3    0    0 -0.40654364350E+01  0.43405612475E+01 -0.15904603756E+01  0.61611939210E+01  0.25000195175E+00 0.  0.
    1000022    2    1    0    0    0  0.48524617368E+02 -0.19964905877E+02  0.32450177663E+02  0.62500000044E+02  0.10000000886E+02 0.  0.
    3000022    2    5    5    0    0  0.11915385827E+02 -0.97205258044E+01  0.98213127278E+01  0.18247896305E+02  0.24998904514E+00 0.  0.
        -13    1    4    4    0    0 -0.20942819898E+01  0.21386487051E+01 -0.81379196583E+00  0.31037264216E+01  0.10500000000E+00 0. -1.
         13    1    4    4    0    0 -0.19711544452E+01  0.22019125423E+01 -0.77666840976E+00  0.30574674993E+01  0.10500000000E+00 0.  1.
    3000001    1    5    5    0    0  0.36609231541E+02 -0.10244380072E+02  0.22628864935E+02  0.44252103740E+02  0.10000000000E+01 0.  1.
        -13    1    6    6    0    0  0.74068705855E+01 -0.60724390753E+01  0.61831646046E+01  0.11400824432E+02  0.10500000000E+00 0.  1.
         13    1    6    6    0    0  0.45085152416E+01 -0.36480867291E+01  0.36381481232E+01  0.68470718729E+01  0.10500000000E+00 0. -1.
</event>
<event>
11    0  0.3494755E-009  0.9118800E+02  0.7816531E-02  0.1126479E+00
         25   -1    0    0    0    0  0.00000000000E+00  0.00000000000E+00  0.99999998245E-14  0.12500000000E+03  0.12500000000E+03 0.  0.
    3000001    1    3    3    0    0 -0.24571203535E+02 -0.32163452820E+02  0.37512942274E+02  0.55194678896E+02  0.10000000000E+01 0.  1.
    1000022    2    1    0    0    0 -0.30203680155E+02 -0.33778997212E+02  0.41868450728E+02  0.62500001372E+02  0.10000002883E+02 0.  0.
    3000022    2    3    3    0    0 -0.56324766200E+01 -0.16155443915E+01  0.43555084539E+01  0.73053224755E+01  0.25001204805E+00 0.  0.
    1000022    2    1    0    0    0  0.30203680155E+02  0.33778997212E+02 -0.41868450728E+02  0.62499998628E+02  0.99999857334E+01 0.  0.
    3000022    2    5    5    0    0  0.26896652968E+02  0.32498451732E+02 -0.40740422073E+02  0.58646600883E+02  0.24999718433E+00 0.  0.
        -13    1    4    4    0    0 -0.17405904640E+01 -0.47379066120E+00  0.12909400039E+01  0.22207394822E+01  0.10500000000E+00 0.  1.
         13    1    4    4    0    0 -0.38918861560E+01 -0.11417537303E+01  0.30645684499E+01  0.50845829933E+01  0.10500000000E+00 0. -1.
    3000001    1    5    5    0    0  0.33070271863E+01  0.12805454800E+01 -0.11280286551E+01  0.38533977454E+01  0.10000000000E+01 0.  1.
        -13    1    6    6    0    0  0.20050888951E+02  0.24245076569E+02 -0.30347791087E+02  0.43713399941E+02  0.10500000000E+00 0.  1.
         13    1    6    6    0    0  0.68457640168E+01  0.82533751623E+01 -0.10392630986E+02  0.14933200941E+02  0.10500000000E+00 0. -1.
</event>
<event>
11    0  0.3494755E-009  0.9118800E+02  0.7816531E-02  0.1126479E+00
         25   -1    0    0    0    0  0.00000000000E+00  0.00000000000E+00  0.99999998245E-14  0.12500000000E+03  0.12500000000E+03 0.  0.
    3000001    1    3    3    0    0  0.38966539258E+01  0.33332112492E+02  0.51132393138E+00  0.33577895811E+02  0.10000000000E+01 0.  1.
    1000022    2    1    0    0    0  0.10309656837E+02  0.60357279586E+02 -0.75471715763E+01  0.62500000080E+02  0.99999994078E+01 0.  0.
    3000022    2    3    3    0    0  0.64130029113E+01  0.27025167094E+02 -0.80584955077E+01  0.28922104269E+02  0.25000536428E+00 0.  0.
    1000022    2    1    0    0    0 -0.10309656837E+02 -0.60357279586E+02  0.75471715763E+01  0.62499999920E+02  0.99999984025E+01 0.  0.
    3000022    2    5    5    0    0 -0.47546134218E+01 -0.14660815591E+02 -0.17929726255E+01  0.15518475650E+02  0.24994616012E+00 0.  0.
        -13    1    4    4    0    0  0.15341026999E+01  0.63988771701E+01 -0.19024956580E+01  0.68505193132E+01  0.10500000000E+00 0.  1.
         13    1    4    4    0    0  0.48789002114E+01  0.20626289924E+02 -0.61559998497E+01  0.22071584956E+02  0.10500000000E+00 0. -1.
    3000001    1    5    5    0    0 -0.55550434152E+01 -0.45696463995E+02  0.93401442019E+01  0.46981524269E+02  0.10000000000E+01 0.  1.
        -13    1    6    6    0    0 -0.25592525636E+01 -0.78074286512E+01 -0.89329318603E+00  0.82652715348E+01  0.10500000000E+00 0.  1.
         13    1    6    6    0    0 -0.21953608582E+01 -0.68533869401E+01 -0.89967943949E+00  0.72532041156E+01  0.10500000000E+00 0. -1.
</event>
<event>
11    0  0.3494755E-009  0.9118800E+02  0.7816531E-02  0.1126479E+00
         25   -1    0    0    0    0  0.00000000000E+00  0.00000000000E+00  0.99999998245E-14  0.12500000000E+03  0.12500000000E+03 0.  0.
    3000001    1    3    3    0    0  0.28436295157E+01  0.18704285452E+02  0.14267342448E+02  0.23716947182E+02  0.10000000000E+01 0.  1.
    1000022    2    1    0    0    0  0.87576562595E+01  0.55046035451E+02  0.26447822028E+02  0.62499998739E+02  0.99999995151E+01 0.  0.
    3000022    2    3    3    0    0  0.59140267438E+01  0.36341749999E+02  0.12180479580E+02  0.38783051557E+02  0.24999993497E+00 0.  0.
    1000022    2    1    0    0    0 -0.87576562595E+01 -0.55046035451E+02 -0.26447822028E+02  0.62500001261E+02  0.10000015282E+02 0.  0.
    3000022    2    5    5    0    0 -0.83135446039E+01 -0.41642520037E+02 -0.15662910332E+02  0.45261504201E+02  0.25000712180E+00 0.  0.
        -13    1    4    4    0    0  0.27594306278E+01  0.16688417610E+02  0.56498311115E+01  0.17833938329E+02  0.10500000000E+00 0. -1.
         13    1    4    4    0    0  0.31545961160E+01  0.19653332388E+02  0.65306484682E+01  0.20949113228E+02  0.10500000000E+00 0.  1.
    3000001    1    5    5    0    0 -0.44411165562E+00 -0.13403515414E+02 -0.10784911696E+02  0.17238497061E+02  0.10000000000E+01 0. -1.
        -13    1    6    6    0    0 -0.33987666844E+01 -0.17260414384E+02 -0.64410193463E+01  0.18734227363E+02  0.10500000000E+00 0. -1.
         13    1    6    6    0    0 -0.49147779196E+01 -0.24382105653E+02 -0.92218909855E+01  0.26527276838E+02  0.10500000000E+00 0.  1.
</event>
<event>
11    0  0.3494755E-009  0.9118800E+02  0.7816531E-02  0.1126479E+00
         25   -1    0    0    0    0  0.00000000000E+00  0.00000000000E+00  0.99999998245E-14  0.12500000000E+03  0.12500000000E+03 0.  0.
    3000001    1    3    3    0    0  0.23853719644E+02 -0.46796569230E+02  0.23193289342E+02  0.57426888328E+02  0.10000000000E+01 0. -1.
    1000022    2    1    0    0    0  0.24671370787E+02 -0.51775950812E+02  0.22733764367E+02  0.62499999659E+02  0.10000014803E+02 0.  0.
    3000022    2    3    3    0    0  0.81765114252E+00 -0.49793815825E+01 -0.45952497467E+00  0.50731113309E+01  0.25000207758E+00 0.  0.
    1000022    2    1    0    0    0 -0.24671370787E+02  0.51775950812E+02 -0.22733764367E+02  0.62500000341E+02  0.10000019065E+02 0.  0.
    3000022    2    5    5    0    0 -0.11690373677E+02  0.33573982781E+02 -0.16949503059E+02  0.39385597795E+02  0.25000647305E+00 0.  0.
        -13    1    4    4    0    0  0.55227154313E+00 -0.31348006673E+01 -0.24299407185E+00  0.31940648396E+01  0.10500000000E+00 0. -1.
         13    1    4    4    0    0  0.26537959940E+00 -0.18445809152E+01 -0.21653090283E+00  0.18790464913E+01  0.10500000000E+00 0.  1.
    3000001    1    5    5    0    0 -0.12980997110E+02  0.18201968031E+02 -0.57842613083E+01  0.23114402546E+02  0.10000000000E+01 0.  1.
        -13    1    6    6    0    0 -0.84250577464E+01  0.24171677567E+02 -0.12160947466E+02  0.28339923477E+02  0.10500000000E+00 0.  1.
         13    1    6    6    0    0 -0.32653159310E+01  0.94023052142E+01 -0.47885555931E+01  0.11045674318E+02  0.10500000000E+00 0. -1.
</event>
<event>
11    0  0.3494755E-009  0.9118800E+02  0.7816531E-02  0.1126479E+00
         25   -1    0    0    0    0  0.00000000000E+00  0.00000000000E+00  0.99999998245E-14  0.12500000000E+03  0.12500000000E+03 0.  0.
    3000001    1    3    3    0    0 -0.88837656130E+01 -0.18456281568E+02 -0.16813644030E+02  0.26518941276E+02  0.10000000000E+01 0. -1.
    1000022    2    1    0    0    0 -0.21582124954E+02 -0.34306324866E+02 -0.46513844046E+02  0.62499999876E+02  0.10000012662E+02 0.  0.
    3000022    2    3    3    0    0 -0.12698359341E+02 -0.15850043297E+02 -0.29700200015E+02  0.35981058600E+02  0.24998911542E+00 0.  0.
    1000022    2    1    0    0    0  0.21582124954E+02  0.34306324866E+02  0.46513844046E+02  0.62500000124E+02  0.10000014212E+02 0.  0.
    3000022    2    5    5    0    0  0.11082144485E+02  0.15700958556E+02  0.29322546950E+02  0.35060066793E+02  0.24999586747E+00 0.  0.
        -13    1    4    4    0    0 -0.56837573122E+01 -0.69883806076E+01 -0.13175164812E+02  0.15960531117E+02  0.10500000000E+00 0.  1.
         13    1    4    4    0    0 -0.70146020291E+01 -0.88616626898E+01 -0.16525035203E+02  0.20020527483E+02  0.10500000000E+00 0. -1.
    3000001    1    5    5    0    0  0.10499980470E+02  0.18605366310E+02  0.17191297096E+02  0.27439933331E+02  0.10000000000E+01 0. -1.
        -13    1    6    6    0    0  0.76674977096E+01  0.10928035086E+02  0.20420183840E+02  0.24396872853E+02  0.10500000000E+00 0. -1.
         13    1    6    6    0    0  0.34146467750E+01  0.47729234699E+01  0.89023631100E+01  0.10663193939E+02  0.10500000000E+00 0.  1.
</event>
<event>
11    0  0.3494755E-009  0.9118800E+02  0.7816531E-02  0.1126479E+00
         25   -1    0    0    0    0  0.00000000000E+00  0.00000000000E+00  0.99999998245E-14  0.12500000000E+03  0.12500000000E+03 0.  0.
    3000001    1    3    3    0    0  0.82775060626E+01 -0.75601334285E+01  0.74481668232E+01  0.13496218474E+02  0.10000000000E+01 0. -1.
    1000022    2    1    0    0    0  0.31176660409E+02 -0.47926503161E+02  0.23180080525E+02  0.62500000796E+02  0.10000005345E+02 0.  0.
    3000022    2    3    3    0    0  0.22899154347E+02 -0.40366369732E+02  0.15731913702E+02  0.49003782322E+02  0.24999603795E+00 0.  0.
    1000022    2    1    0    0    0 -0.31176660409E+02  0.47926503161E+02 -0.23180080525E+02  0.62499999204E+02  0.99999953912E+01 0.  0.
    3000022    2    5    5    0    0 -0.65616704444E+01  0.14499211754E+02 -0.10555652752E+02  0.19098873431E+02  0.25000158356E+00 0.  0.
        -13    1    4    4    0    0  0.11310974909E+02 -0.19803524936E+02  0.77185301062E+01  0.24077053085E+02  0.10500000000E+00 0. -1.
         13    1    4    4    0    0  0.11588179438E+02 -0.20562844796E+02  0.80133835956E+01  0.24926729237E+02  0.10500000000E+00 0.  1.
    3000001    1    5    5    0    0 -0.24614989965E+02  0.33427291406E+02 -0.12624427773E+02  0.43401125772E+02  0.10000000000E+01 0. -1.
        -13    1    6    6    0    0 -0.41688938024E+01  0.93481486183E+01 -0.68038231690E+01  0.12291077774E+02  0.10500000000E+00 0.  1.
         13    1    6    6    0    0 -0.23927766420E+01  0.51510631362E+01 -0.37518295833E+01  0.68077956574E+01  0.10500000000E+00 0. -1.
</event>
<event>
11    0  0.3494755E-009  0.9118800E+02  0.7816531E-02  0.1126479E+00
         25   -1    0    0    0    0  0.00000000000E+00  0.00000000000E+00  0.99999998245E-14  0.12500000000E+03  0.12500000000E+03 0.  0.
    3000001    1    3    3    0    0  0.14912485174E+02 -0.30652915513E+02  0.82590847650E+01  0.35088401569E+02  0.10000000000E+01 0.  1.
    1000022    2    1    0    0    0  0.22607456194E+02 -0.56942203707E+02  0.72621183322E+01  0.62499999627E+02  0.99999976041E+01 0.  0.
    3000022    2    3    3    0    0  0.76949710192E+01 -0.26289288194E+02 -0.99696643273E+00  0.27411598057E+02  0.25002650743E+00 0.  0.
    1000022    2    1    0    0    0 -0.22607456194E+02  0.56942203707E+02 -0.72621183322E+01  0.62500000373E+02  0.10000002272E+02 0.  0.
    3000022    2    5    5    0    0 -0.16420603490E+02  0.35426823415E+02 -0.88354129791E+01  0.40035272654E+02  0.24999533465E+00 0.  0.
        -13    1    4    4    0    0  0.37481424198E+01 -0.12950639195E+02 -0.54486891297E+00  0.13493536760E+02  0.10500000000E+00 0. -1.
         13    1    4    4    0    0  0.39468285994E+01 -0.13338648999E+02 -0.45209751975E+00  0.13918061297E+02  0.10500000000E+00 0.  1.
    3000001    1    5    5    0    0 -0.61868527040E+01  0.21515380292E+02  0.15732946468E+01  0.22464727720E+02  0.10000000000E+01 0.  1.
        -13    1    6    6    0    0 -0.79406488606E+01  0.17086565704E+02 -0.43299775943E+01  0.19332986392E+02  0.10500000000E+00 0.  1.
         13    1    6    6    0    0 -0.84799546290E+01  0.18340257712E+02 -0.45054353847E+01  0.20702286261E+02  0.10500000000E+00 0. -1.
</event>
<event>
11    0  0.3494755E-009  0.9118800E+02  0.7816531E-02  0.1126479E+00
         25   -1    0    0    0    0  0.00000000000E+00  0.00000000000E+00  0.99999998245E-14  0.12500000000E+03  0.12500000000E+03 0.  0.
    3000001    1    3    3    0    0  0.23928086067E+02 -0.22837045207E+02 -0.10102411636E+02  0.34599749385E+02  0.10000000000E+01 0. -1.
    1000022    2    1    0    0    0  0.48563544273E+02 -0.34472244675E+02 -0.16108894493E+02  0.62500000147E+02  0.10000002562E+02 0.  0.
    3000022    2    3    3    0    0  0.24635458207E+02 -0.11635199467E+02 -0.60064828568E+01  0.27900250762E+02  0.24997714490E+00 0.  0.
    1000022    2    1    0    0    0 -0.48563544273E+02  0.34472244675E+02  0.16108894493E+02  0.62499999853E+02  0.10000000725E+02 0.  0.
    3000022    2    5    5    0    0 -0.35723750431E+01  0.61315889392E+01  0.31088201009E+01  0.77514837960E+01  0.24998450378E+00 0.  0.
        -13    1    4    4    0    0  0.17068512475E+02 -0.80971088817E+01 -0.41291151742E+01  0.19337991299E+02  0.10500000000E+00 0.  1.
         13    1    4    4    0    0  0.75669457319E+01 -0.35380905858E+01 -0.18773676827E+01  0.85622594634E+01  0.10500000000E+00 0. -1.
    3000001    1    5    5    0    0 -0.44991169230E+02  0.28340655736E+02  0.13000074392E+02  0.54748516057E+02  0.10000000000E+01 0. -1.
        -13    1    6    6    0    0 -0.98087463266E+00  0.17598455343E+01  0.89903252213E+00  0.22087226683E+01  0.10500000000E+00 0.  1.
         13    1    6    6    0    0 -0.25915004105E+01  0.43717434049E+01  0.22097875787E+01  0.55427611277E+01  0.10500000000E+00 0. -1.
</event>
<event>
11    0  0.3494755E-009  0.9118800E+02  0.7816531E-02  0.1126479E+00
         25   -1    0    0    0    0  0.00000000000E+00  0.00000000000E+00  0.99999998245E-14  0.12500000000E+03  0.12500000000E+03 0.  0.
    3000001    1    3    3    0    0 -0.19183555188E+02 -0.43934097885E+02  0.25189999942E+02  0.54164101061E+02  0.10000000000E+01 0.  1.
    1000022    2    1    0    0    0 -0.25163576585E+02 -0.49460296845E+02  0.26957811002E+02  0.62499999359E+02  0.99999897617E+01 0.  0.
    3000022    2    3    3    0    0 -0.59800213968E+01 -0.55261989598E+01  0.17678110607E+01  0.83358982979E+01  0.25002727270E+00 0.  0.
    1000022    2    1    0    0    0  0.25163576585E+02  0.49460296845E+02 -0.26957811002E+02  0.62500000641E+02  0.99999977797E+01 0.  0.
    3000022    2    5    5    0    0  0.11541751193E+02  0.19581008338E+02 -0.16264638195E+02  0.27950471652E+02  0.25000366290E+00 0.  0.
        -13    1    4    4    0    0 -0.39826768977E+01 -0.36850133408E+01  0.12325094863E+01  0.55651723448E+01  0.10500000000E+00 0.  1.
         13    1    4    4    0    0 -0.19973444991E+01 -0.18411856190E+01  0.53530157439E+00  0.27707259531E+01  0.10500000000E+00 0. -1.
    3000001    1    5    5    0    0  0.13621825391E+02  0.29879288507E+02 -0.10693172808E+02  0.34549528989E+02  0.10000000000E+01 0. -1.
        -13    1    6    6    0    0  0.44331767632E+01  0.74136157378E+01 -0.61481355545E+01  0.10603082114E+02  0.10500000000E+00 0.  1.
         13    1    6    6    0    0  0.71085744302E+01  0.12167392600E+02 -0.10116502640E+02  0.17347389538E+02  0.10500000000E+00 0. -1.
</event>
<event>
11    0  0.3494755E-009  0.9118800E+02  0.7816531E-02  0.1126479E+00
         25   -1    0    0    0    0  0.00000000000E+00  0.00000000000E+00  0.99999998245E-14  0.12500000000E+03  0.12500000000E+03 0.  0.
    3000001    1    3    3    0    0  0.29510410897E+02 -0.32949583663E+02  0.31781392110E+02  0.54475648682E+02  0.10000000000E+01 0. -1.
    1000022    2    1    0    0    0  0.31476527419E+02 -0.36094990727E+02  0.38892552987E+02  0.62500005633E+02  0.99999946181E+01 0.  0.
    3000022    2    3    3    0    0  0.19661165216E+01 -0.31454070641E+01  0.71111608770E+01  0.80243569511E+01  0.24999136872E+00 0.  0.
    1000022    2    1    0    0    0 -0.31476527419E+02  0.36094990727E+02 -0.38892552987E+02  0.62499994367E+02  0.99999242052E+01 0.  0.
    3000022    2    5    5    0    0 -0.14521279715E+02  0.20659398894E+02 -0.25684848278E+02  0.36020164617E+02  0.25000146305E+00 0.  0.
        -13    1    4    4    0    0  0.10125003629E+01 -0.16826911433E+01  0.36368669467E+01  0.41345414083E+01  0.10500000000E+00 0.  1.
         13    1    4    4    0    0  0.95361615871E+00 -0.14627159209E+01  0.34742939302E+01  0.38898155428E+01  0.10500000000E+00 0. -1.
    3000001    1    5    5    0    0 -0.16955247704E+02  0.15435591833E+02 -0.13207704709E+02  0.26479829750E+02  0.10000000000E+01 0.  1.
        -13    1    6    6    0    0 -0.37183392652E+01  0.53338331619E+01 -0.65895780953E+01  0.92579364636E+01  0.10500000000E+00 0. -1.
         13    1    6    6    0    0 -0.10802940450E+02  0.15325565732E+02 -0.19095270182E+02  0.26762228153E+02  0.10500000000E+00 0.  1.
</event>
<event>
11    0  0.3494755E-009  0.9118800E+02  0.7816531E-02  0.1126479E+00
         25   -1    0    0    0    0  0.00000000000E+00  0.00000000000E+00  0.99999998245E-14  0.12500000000E+03  0.12500000000E+03 0.  0.
    3000001    1    3    3    0    0 -0.12961250088E+01 -0.14939758688E+02  0.38024099206E+00  0.15033991915E+02  0.10000000000E+01 0. -1.
    1000022    2    1    0    0    0 -0.16277602105E+01 -0.58910277571E+02  0.18253205063E+02  0.62499999330E+02  0.10000000722E+02 0.  0.
    3000022    2    3    3    0    0 -0.33163520164E+00 -0.43970518883E+02  0.17872964071E+02  0.47466007415E+02  0.25000503477E+00 0.  0.
    1000022    2    1    0    0    0  0.16277602105E+01  0.58910277571E+02 -0.18253205063E+02  0.62500000670E+02  0.10000009091E+02 0.  0.
    3000022    2    5    5    0    0  0.95914693737E+00  0.74058374441E+00 -0.15190005961E+01  0.19591555918E+01  0.25000138372E+00 0.  0.
        -13    1    4    4    0    0 -0.63337446781E-01 -0.12468811718E+02  0.50391364714E+01  0.13449133751E+02  0.10500000000E+00 0. -1.
         13    1    4    4    0    0 -0.26829775486E+00 -0.31501707165E+02  0.12833827600E+02  0.34016873664E+02  0.10500000000E+00 0.  1.
    3000001    1    5    5    0    0  0.66861327309E+00  0.58169693826E+02 -0.16734204467E+02  0.60540845078E+02  0.10000000000E+01 0. -1.
        -13    1    6    6    0    0  0.49751379067E+00  0.32717890722E+00 -0.66476105978E+00  0.89860907843E+00  0.10500000000E+00 0. -1.
         13    1    6    6    0    0  0.46163314670E+00  0.41340483719E+00 -0.85423953634E+00  0.10605465134E+01  0.10500000000E+00 0.  1.
</event>
<event>
11    0  0.3494755E-009  0.9118800E+02  0.7816531E-02  0.1126479E+00
         25   -1    0    0    0    0  0.00000000000E+00  0.00000000000E+00  0.99999998245E-14  0.12500000000E+03  0.12500000000E+03 0.  0.
    3000001    1    3    3    0    0 -0.71733592898E+01  0.31442155087E+02  0.47956998452E+02  0.57800864185E+02  0.10000000000E+01 0.  1.
    1000022    2    1    0    0    0 -0.63037492426E+01  0.35569518174E+02  0.50013220021E+02  0.62500000301E+02  0.99999991583E+01 0.  0.
    3000022    2    3    3    0    0  0.86961004719E+00  0.41273630863E+01  0.20562215687E+01  0.46991361158E+01  0.24997082716E+00 0.  0.
    1000022    2    1    0    0    0  0.63037492426E+01 -0.35569518174E+02 -0.50013220021E+02  0.62499999699E+02  0.99999953944E+01 0.  0.
    3000022    2    5    5    0    0 -0.13202204648E+01 -0.17760602369E+02 -0.20194310068E+02  0.26926838650E+02  0.25000394325E+00 0.  0.
        -13    1    4    4    0    0  0.50177572458E+00  0.21254037597E+01  0.10171249471E+01  0.24113664544E+01  0.10500000000E+00 0. -1.
         13    1    4    4    0    0  0.36783432261E+00  0.20019593266E+01  0.10390966216E+01  0.22877696614E+01  0.10500000000E+00 0.  1.
    3000001    1    5    5    0    0  0.76239697074E+01 -0.17808915805E+02 -0.29818909953E+02  0.35573161049E+02  0.10000000000E+01 0. -1.
        -13    1    6    6    0    0 -0.62963237717E+00 -0.82610704813E+01 -0.92955653052E+01  0.12452320337E+02  0.10500000000E+00 0.  1.
         13    1    6    6    0    0 -0.69058808768E+00 -0.94995318877E+01 -0.10898744763E+02  0.14474518313E+02  0.10500000000E+00 0. -1.
</event>
<event>
11    0  0.3494755E-009  0.9118800E+02  0.7816531E-02  0.1126479E+00
         25   -1    0    0    0    0  0.00000000000E+00  0.00000000000E+00  0.99999998245E-14  0.12500000000E+03  0.12500000000E+03 0.  0.
    3000001    1    3    3    0    0  0.33133847591E+02 -0.11915954197E+02  0.29283417202E+02  0.45807863338E+02  0.10000000000E+01 0.  1.
    1000022    2    1    0    0    0  0.44791941546E+02 -0.10401469389E+02  0.41130783980E+02  0.62499999633E+02  0.99999985232E+01 0.  0.
    3000022    2    3    3    0    0  0.11658093955E+02  0.15144848074E+01  0.11847366778E+02  0.16692136295E+02  0.24999125552E+00 0.  0.
    1000022    2    1    0    0    0 -0.44791941546E+02  0.10401469389E+02 -0.41130783980E+02  0.62500000367E+02  0.10000003105E+02 0.  0.
    3000022    2    5    5    0    0 -0.16204210060E+02 -0.10188251589E+01 -0.13342918378E+02  0.21016907500E+02  0.25000327540E+00 0.  0.
        -13    1    4    4    0    0  0.74272236581E+01  0.97577211066E+00  0.76301078218E+01  0.10693238651E+02  0.10500000000E+00 0. -1.
         13    1    4    4    0    0  0.42308702967E+01  0.53871269669E+00  0.42172589562E+01  0.59988976438E+01  0.10500000000E+00 0.  1.
    3000001    1    5    5    0    0 -0.28587731486E+02  0.11420294548E+02 -0.27787865602E+02  0.41483092867E+02  0.10000000000E+01 0.  1.
        -13    1    6    6    0    0 -0.12367302448E+02 -0.77371258383E+00 -0.10161749694E+02  0.16025635177E+02  0.10500000000E+00 0. -1.
         13    1    6    6    0    0 -0.38369076118E+01 -0.24511257510E+00 -0.31811686848E+01  0.49912723224E+01  0.10500000000E+00 0.  1.
</event>
<event>
11    0  0.3494755E-009  0.9118800E+02  0.7816531E-02  0.1126479E+00
         25   -1    0    0    0    0  0.00000000000E+00  0.00000000000E+00  0.99999998245E-14  0.12500000000E+03  0.12500000000E+03 0.  0.
    3000001    1    3    3    0    0 -0.88383986104E+01 -0.32440304209E+01  0.48234897742E+01  0.10625774182E+02  0.10000000000E+01 0. -1.
    1000022    2    1    0    0    0 -0.39331336188E+02 -0.36199525190E+02  0.30804051701E+02  0.62500006499E+02  0.10000079042E+02 0.  0.
    3000022    2    3    3    0    0 -0.30492937577E+02 -0.32955494769E+02  0.25980561927E+02  0.51874232317E+02  0.25000566652E+00 0.  0.
    1000022    2    1    0    0    0  0.39331336188E+02  0.36199525190E+02 -0.30804051701E+02  0.62499993501E+02  0.99999978058E+01 0.  0.
    3000022    2    5    5    0    0  0.37622400016E+02  0.31322891214E+02 -0.29178722300E+02  0.56991480322E+02  0.24999464205E+00 0.  0.
        -13    1    4    4    0    0 -0.16570635011E+02 -0.17957519995E+02  0.14071902879E+02  0.28197303855E+02  0.10500000000E+00 0.  1.
         13    1    4    4    0    0 -0.13922302566E+02 -0.14997974774E+02  0.11908659048E+02  0.23676928462E+02  0.10500000000E+00 0. -1.
    3000001    1    5    5    0    0  0.17089361722E+01  0.48766339765E+01 -0.16253294013E+01  0.55085131791E+01  0.10000000000E+01 0. -1.
        -13    1    6    6    0    0  0.96413091711E+01  0.80651970600E+01 -0.74850245254E+01  0.14630067098E+02  0.10500000000E+00 0.  1.
         13    1    6    6    0    0  0.27981090844E+02  0.23257694154E+02 -0.21693697775E+02  0.42361413224E+02  0.10500000000E+00 0. -1.
</event>
<event>
11    0  0.3494755E-009  0.9118800E+02  0.7816531E-02  0.1126479E+00
         25   -1    0    0    0    0  0.00000000000E+00  0.00000000000E+00  0.99999998245E-14  0.12500000000E+03  0.12500000000E+03 0.  0.
    3000001    1    3    3    0    0  0.92361622334E+01 -0.38257527086E+02 -0.26216394279E+02  0.47299517973E+02  0.10000000000E+01 0. -1.
    1000022    2    1    0    0    0  0.86529263191E+01 -0.52718475772E+02 -0.30856755601E+02  0.62500000180E+02  0.99999917297E+01 0.  0.
    3000022    2    3    3    0    0 -0.58323591434E+00 -0.14460948687E+02 -0.46403613227E+01  0.15200482207E+02  0.25001012475E+00 0.  0.
    1000022    2    1    0    0    0 -0.86529263191E+01  0.52718475772E+02  0.30856755601E+02  0.62499999820E+02  0.99999894836E+01 0.  0.
    3000022    2    5    5    0    0 -0.10780809670E+02  0.41690923283E+02  0.23888088155E+02  0.49244920513E+02  0.24999870353E+00 0.  0.
        -13    1    4    4    0    0 -0.41168594944E+00 -0.10619035016E+02 -0.33755510075E+01  0.11150729106E+02  0.10500000000E+00 0. -1.
         13    1    4    4    0    0 -0.17154996490E+00 -0.38419136701E+01 -0.12648103153E+01  0.40497531002E+01  0.10500000000E+00 0.  1.
    3000001    1    5    5    0    0  0.21278833504E+01  0.11027552489E+02  0.69686674461E+01  0.13255079307E+02  0.10000000000E+01 0. -1.
        -13    1    6    6    0    0 -0.81285142864E+01  0.31390350184E+02  0.18012469449E+02  0.37092949597E+02  0.10500000000E+00 0.  1.
         13    1    6    6    0    0 -0.26522953831E+01  0.10300573099E+02  0.58756187059E+01  0.12151970916E+02  0.10500000000E+00 0. -1.
</event>
<event>
11    0  0.3494755E-009  0.9118800E+02  0.7816531E-02  0.1126479E+00
         25   -1    0    0    0    0  0.00000000000E+00  0.00000000000E+00  0.99999998245E-14  0.12500000000E+03  0.12500000000E+03 0.  0.
    3000001    1    3    3    0    0 -0.31665822002E+00 -0.39470615028E+01  0.82565685814E-01  0.40848970645E+01  0.10000000000E+01 0. -1.
    1000022    2    1    0    0    0 -0.32307775697E+02 -0.49664071390E+02 -0.17202833667E+02  0.62499998877E+02  0.10000000800E+02 0.  0.
    3000022    2    3    3    0    0 -0.31991117477E+02 -0.45717009887E+02 -0.17285399353E+02  0.58415101813E+02  0.24999719074E+00 0.  0.
    1000022    2    1    0    0    0  0.32307775697E+02  0.49664071390E+02  0.17202833667E+02  0.62500001123E+02  0.10000014837E+02 0.  0.
    3000022    2    5    5    0    0  0.92642252716E+01  0.19814813886E+02  0.10186931738E+02  0.24130660894E+02  0.24999548052E+00 0.  0.
        -13    1    4    4    0    0 -0.19819701805E+02 -0.28288439683E+02 -0.10760289626E+02  0.36178049383E+02  0.10500000000E+00 0. -1.
         13    1    4    4    0    0 -0.12171415671E+02 -0.17428570204E+02 -0.65251097268E+01  0.22237052429E+02  0.10500000000E+00 0.  1.
    3000001    1    5    5    0    0  0.23043550425E+02  0.29849257503E+02  0.70159019288E+01  0.38369340228E+02  0.10000000000E+01 0. -1.
        -13    1    6    6    0    0  0.21514735402E+01  0.45867138930E+01  0.23682041144E+01  0.55934066952E+01  0.10500000000E+00 0.  1.
         13    1    6    6    0    0  0.71127517314E+01  0.15228099993E+02  0.78187276236E+01  0.18537254199E+02  0.10500000000E+00 0. -1.
</event>
<event>
11    0  0.3494755E-009  0.9118800E+02  0.7816531E-02  0.1126479E+00
         25   -1    0    0    0    0  0.00000000000E+00  0.00000000000E+00  0.99999998245E-14  0.12500000000E+03  0.12500000000E+03 0.  0.
    3000001    1    3    3    0    0 -0.14232762905E+01  0.21834068212E+01 -0.34495946240E+01  0.44376439487E+01  0.10000000000E+01 0. -1.
    1000022    2    1    0    0    0  0.12787533039E+02  0.26841008994E+02 -0.54058197859E+02  0.62500004123E+02  0.10000049733E+02 0.  0.
    3000022    2    3    3    0    0  0.14210809329E+02  0.24657602172E+02 -0.50608603235E+02  0.58062360174E+02  0.25000196883E+00 0.  0.
    1000022    2    1    0    0    0 -0.12787533039E+02 -0.26841008994E+02  0.54058197859E+02  0.62499995877E+02  0.99999981931E+01 0.  0.
    3000022    2    5    5    0    0 -0.13943429645E+02 -0.20446294678E+02  0.41320441085E+02  0.48165460106E+02  0.24999889870E+00 0.  0.
        -13    1    4    4    0    0  0.50901485579E+01  0.89079412474E+01 -0.18154801698E+02  0.20853510000E+02  0.10500000000E+00 0. -1.
         13    1    4    4    0    0  0.91206607715E+01  0.15749660925E+02 -0.32453801537E+02  0.37208850175E+02  0.10500000000E+00 0.  1.
    3000001    1    5    5    0    0  0.11558966057E+01 -0.63947143151E+01  0.12737756774E+02  0.14334535771E+02  0.10000000000E+01 0.  1.
        -13    1    6    6    0    0 -0.58042848781E+01 -0.84010950273E+01  0.17017040637E+02  0.19845876590E+02  0.10500000000E+00 0.  1.
         13    1    6    6    0    0 -0.81391447666E+01 -0.12045199651E+02  0.24303400448E+02  0.28319583516E+02  0.10500000000E+00 0. -1.
</event>
<event>
11    0  0.3494755E-009  0.9118800E+02  0.7816531E-02  0.1126479E+00
         25   -1    0    0    0    0  0.00000000000E+00  0.00000000000E+00  0.99999998245E-14  0.12500000000E+03  0.12500000000E+03 0.  0.
    3000001    1    3    3    0    0  0.27067353109E+02 -0.38802944036E+02 -0.14436900253E+02  0.49474580939E+02  0.10000000000E+01 0. -1.
    1000022    2    1    0    0    0  0.37801682268E+02 -0.45499003772E+02 -0.17524939550E+02  0.62499999301E+02  0.99999939877E+01 0.  0.
    3000022    2    3    3    0    0  0.10734329159E+02 -0.66960597366E+01 -0.30880392970E+01  0.13025418362E+02  0.24999660205E+00 0.  0.
    1000022    2    1    0    0    0 -0.37801682268E+02  0.45499003772E+02  0.17524939550E+02  0.62500000699E+02  0.10000002731E+02 0.  0.
    3000022    2    5    5    0    0 -0.22284499687E+02  0.26962881988E+02  0.52590472037E+01  0.35373945308E+02  0.24999550412E+00 0.  0.
        -13    1    4    4    0    0  0.41695523544E+01 -0.25294223848E+01 -0.12004464160E+01  0.50234690240E+01  0.10500000000E+00 0.  1.
         13    1    4    4    0    0  0.65647768048E+01 -0.41666373518E+01 -0.18875928810E+01  0.80019493376E+01  0.10500000000E+00 0. -1.
    3000001    1    5    5    0    0 -0.15517182581E+02  0.18536121784E+02  0.12265892346E+02  0.27126055392E+02  0.10000000000E+01 0. -1.
        -13    1    6    6    0    0 -0.64044703950E+01  0.78087310903E+01  0.15376541814E+01  0.10216111181E+02  0.10500000000E+00 0. -1.
         13    1    6    6    0    0 -0.15880029292E+02  0.19154150898E+02  0.37213930223E+01  0.25157834127E+02  0.10500000000E+00 0.  1.
</event>
<event>
11    0  0.3494755E-009  0.9118800E+02  0.7816531E-02  0.1126479E+00
         25   -1    0    0    0    0  0.00000000000E+00  0.00000000000E+00  0.99999998245E-14  0.12500000000E+03  0.12500000000E+03 0.  0.
    3000001    1    3    3    0    0 -0.12728689692E+01  0.33331452211E+02 -0.20818328200E+02  0.39332031361E+02  0.10000000000E+01 0. -1.
    1000022    2    1    0    0    0 -0.82775312070E+01  0.53899843351E+02 -0.28853758808E+02  0.62499997750E+02  0.99999842656E+01 0.  0.
    3000022    2    3    3    0    0 -0.70046622379E+01  0.20568391140E+02 -0.80354306076E+01  0.23167966389E+02  0.25002885698E+00 0.  0.
    1000022    2    1    0    0    0  0.82775312070E+01 -0.53899843351E+02  0.28853758808E+02  0.62500002250E+02  0.10000012390E+02 0.  0.
    3000022    2    5    5    0    0  0.32690503579E+00  0.23805074309E-01  0.14043244982E+01  0.14635888568E+01  0.25006291526E+00 0.  0.
        -13    1    4    4    0    0 -0.19147395546E+01  0.55191906066E+01 -0.21472661902E+01  0.62249071965E+01  0.10500000000E+00 0. -1.
         13    1    4    4    0    0 -0.50899226833E+01  0.15049200533E+02 -0.58881644173E+01  0.16943059193E+02  0.10500000000E+00 0.  1.
    3000001    1    5    5    0    0  0.79506261713E+01 -0.53923648425E+02  0.27449434310E+02  0.61036413393E+02  0.10000000000E+01 0. -1.
        -13    1    6    6    0    0  0.24128302921E+00  0.17259317820E-01  0.74066125113E+00  0.78620574480E+00  0.10500000000E+00 0. -1.
         13    1    6    6    0    0  0.85622006580E-01  0.65457564893E-02  0.66366324707E+00  0.67738311202E+00  0.10500000000E+00 0.  1.
</event>
<event>
11    0  0.3494755E-009  0.9118800E+02  0.7816531E-02  0.1126479E+00
         25   -1    0    0    0    0  0.00000000000E+00  0.00000000000E+00  0.99999998245E-14  0.12500000000E+03  0.12500000000E+03 0.  0.
    3000001    1    3    3    0    0  0.64081474270E+01 -0.40485599738E+01  0.24542036291E+02  0.25705383417E+02  0.10000000000E+01 0.  1.
    1000022    2    1    0    0    0  0.17953960438E+02  0.17073070485E+01  0.58999917052E+02  0.62500000343E+02  0.10000011899E+02 0.  0.
    3000022    2    3    3    0    0  0.11545813011E+02  0.57558670223E+01  0.34457880761E+02  0.36794616926E+02  0.24996986344E+00 0.  0.
    1000022    2    1    0    0    0 -0.17953960438E+02 -0.17073070485E+01 -0.58999917052E+02  0.62499999657E+02  0.10000007613E+02 0.  0.
    3000022    2    5    5    0    0 -0.90786623014E+01 -0.13198873268E+01 -0.44724056242E+02  0.45655973627E+02  0.25001865996E+00 0.  0.
        -13    1    4    4    0    0  0.79987514764E+01  0.39339588901E+01  0.23817304170E+02  0.25430907586E+02  0.10500000000E+00 0. -1.
         13    1    4    4    0    0  0.35470615346E+01  0.18219081322E+01  0.10640576591E+02  0.11363709340E+02  0.10500000000E+00 0.  1.
    3000001    1    5    5    0    0 -0.88752981366E+01 -0.38741972179E+00 -0.14275860810E+02  0.16844026030E+02  0.10000000000E+01 0. -1.
        -13    1    6    6    0    0 -0.22020515048E+01 -0.33834758697E+00 -0.10808932412E+02  0.11036645994E+02  0.10500000000E+00 0. -1.
         13    1    6    6    0    0 -0.68766107966E+01 -0.98153973978E+00 -0.33915123830E+02  0.34619327633E+02  0.10500000000E+00 0.  1.
</event>
<event>
11    0  0.3494755E-009  0.9118800E+02  0.7816531E-02  0.1126479E+00
         25   -1    0    0    0    0  0.00000000000E+00  0.00000000000E+00  0.99999998245E-14  0.12500000000E+03  0.12500000000E+03 0.  0.
    3000001    1    3    3    0    0  0.62894764487E+01 -0.10117964790E+02 -0.20593948028E+01  0.12131439834E+02  0.10000000000E+01 0.  1.
    1000022    2    1    0    0    0  0.27717600738E+02 -0.46790419526E+02 -0.29131446448E+02  0.62500000763E+02  0.10000008656E+02 0.  0.
    3000022    2    3    3    0    0  0.21428124289E+02 -0.36672454736E+02 -0.27072051645E+02  0.50368560929E+02  0.25000571324E+00 0.  0.
    1000022    2    1    0    0    0 -0.27717600738E+02  0.46790419526E+02  0.29131446448E+02  0.62499999237E+02  0.99999991187E+01 0.  0.
    3000022    2    5    5    0    0 -0.17007763242E+02  0.22899050729E+02  0.10703163179E+02  0.30467207501E+02  0.24999211468E+00 0.  0.
        -13    1    4    4    0    0  0.82141976738E+01 -0.14032550407E+02 -0.10292934498E+02  0.19244246931E+02  0.10500000000E+00 0.  1.
         13    1    4    4    0    0  0.13213926616E+02 -0.22639904328E+02 -0.16779117147E+02  0.31124313998E+02  0.10500000000E+00 0. -1.
    3000001    1    5    5    0    0 -0.10709837496E+02  0.23891368796E+02  0.18428283269E+02  0.32032791736E+02  0.10000000000E+01 0.  1.
        -13    1    6    6    0    0 -0.88111396988E+01  0.11824486908E+02  0.56012159672E+01  0.15774641636E+02  0.10500000000E+00 0.  1.
         13    1    6    6    0    0 -0.81966235431E+01  0.11074563821E+02  0.51019472114E+01  0.14692565865E+02  0.10500000000E+00 0. -1.
</event>
<event>
11    0  0.3494755E-009  0.9118800E+02  0.7816531E-02  0.1126479E+00
         25   -1    0    0    0    0  0.00000000000E+00  0.00000000000E+00  0.99999998245E-14  0.12500000000E+03  0.12500000000E+03 0.  0.
    3000001    1    3    3    0    0 -0.33983086793E+02  0.86678155085E+01 -0.23364550883E+02  0.42153095398E+02  0.10000000000E+01 0. -1.
    1000022    2    1    0    0    0 -0.50573943368E+02  0.18190539062E+02 -0.30292418425E+02  0.62500002702E+02  0.10000013225E+02 0.  0.
    3000022    2    3    3    0    0 -0.16590856575E+02  0.95227235540E+01 -0.69278675413E+01  0.20346907304E+02  0.25000471883E+00 0.  0.
    1000022    2    1    0    0    0  0.50573943368E+02 -0.18190539062E+02  0.30292418425E+02  0.62499997298E+02  0.99999794553E+01 0.  0.
    3000022    2    5    5    0    0  0.34373006635E+02 -0.74412758344E+01  0.20481764355E+02  0.40699402255E+02  0.25000327975E+00 0.  0.
        -13    1    4    4    0    0 -0.11846999897E+02  0.68445719167E+01 -0.49699170353E+01  0.14557151906E+02  0.10500000000E+00 0. -1.
         13    1    4    4    0    0 -0.47438566788E+01  0.26781516373E+01 -0.19579505060E+01  0.57897553977E+01  0.10500000000E+00 0.  1.
    3000001    1    5    5    0    0  0.16200936733E+02 -0.10749263228E+02  0.98106540696E+01  0.21800595043E+02  0.10000000000E+01 0. -1.
        -13    1    6    6    0    0  0.23735336423E+02 -0.51266790404E+01  0.14195797042E+02  0.28127934722E+02  0.10500000000E+00 0.  1.
         13    1    6    6    0    0  0.10637670212E+02 -0.23145967940E+01  0.62859673134E+01  0.12571467533E+02  0.10500000000E+00 0. -1.
</event>
<event>
11    0  0.3494755E-009  0.9118800E+02  0.7816531E-02  0.1126479E+00
         25   -1    0    0    0    0  0.00000000000E+00  0.00000000000E+00  0.99999998245E-14  0.12500000000E+03  0.12500000000E+03 0.  0.
    3000001    1    3    3    0    0  0.12383622687E+02  0.36983193829E+02 -0.33859975813E+02  0.51658578171E+02  0.10000000000E+01 0.  1.
    1000022    2    1    0    0    0  0.13947220456E+02  0.47156652366E+02 -0.37255539282E+02  0.62500000918E+02  0.10000004336E+02 0.  0.
    3000022    2    3    3    0    0  0.15635977697E+01  0.10173458536E+02 -0.33955634695E+01  0.10841422746E+02  0.24999862187E+00 0.  0.
    1000022    2    1    0    0    0 -0.13947220456E+02 -0.47156652366E+02  0.37255539282E+02  0.62499999082E+02  0.99999928664E+01 0.  0.
    3000022    2    5    5    0    0 -0.12548371558E+02 -0.25615487018E+02  0.22541492380E+02  0.36356515018E+02  0.25000326660E+00 0.  0.
        -13    1    4    4    0    0  0.89295346720E+00  0.59871051839E+01 -0.19354411591E+01  0.63560799128E+01  0.10500000000E+00 0.  1.
         13    1    4    4    0    0  0.67064430251E+00  0.41863533526E+01 -0.14601223105E+01  0.44853428336E+01  0.10500000000E+00 0. -1.
    3000001    1    5    5    0    0 -0.13988488980E+01 -0.21541165348E+02  0.14714046902E+02  0.26143484064E+02  0.10000000000E+01 0.  1.
        -13    1    6    6    0    0 -0.64668017655E+01 -0.13092571428E+02  0.11601202438E+02  0.18650304949E+02  0.10500000000E+00 0. -1.
         13    1    6    6    0    0 -0.60815697928E+01 -0.12522915590E+02  0.10940289942E+02  0.17706210070E+02  0.10500000000E+00 0.  1.
</event>
<event>
11    0  0.3494755E-009  0.9118800E+02  0.7816531E-02  0.1126479E+00
         25   -1    0    0    0    0  0.00000000000E+00  0.00000000000E+00  0.99999998245E-14  0.12500000000E+03  0.12500000000E+03 0.  0.
    3000001    1    3    3    0    0  0.42497497240E+02  0.20341006037E+02 -0.96330193335E+01  0.48099780246E+02  0.10000000000E+01 0. -1.
    1000022    2    1    0    0    0  0.53226815333E+02  0.29911088587E+02 -0.88590840852E+01  0.62499996438E+02  0.99999546488E+01 0.  0.
    3000022    2    3    3    0    0  0.10729318093E+02  0.95700825499E+01  0.77393524830E+00  0.14400216192E+02  0.25000769654E+00 0.  0.
    1000022    2    1    0    0    0 -0.53226815333E+02 -0.29911088587E+02  0.88590840852E+01  0.62500003562E+02  0.99999991755E+01 0.  0.
    3000022    2    5    5    0    0 -0.29948842316E+02 -0.22117688587E+02  0.67805777952E+01  0.37843943461E+02  0.25003384976E+00 0.  0.
        -13    1    4    4    0    0  0.72292512575E+01  0.64472709073E+01  0.57356704955E+00  0.97040908928E+01  0.10500000000E+00 0. -1.
         13    1    4    4    0    0  0.35000668358E+01  0.31228116427E+01  0.20036819875E+00  0.46961252992E+01  0.10500000000E+00 0.  1.
    3000001    1    5    5    0    0 -0.23277973016E+02 -0.77934000001E+01  0.20785062900E+01  0.24656060101E+02  0.10000000000E+01 0.  1.
        -13    1    6    6    0    0 -0.14684277077E+02 -0.10764123661E+02  0.32953362530E+01  0.18503097510E+02  0.10500000000E+00 0.  1.
         13    1    6    6    0    0 -0.15264565240E+02 -0.11353564925E+02  0.34852415421E+01  0.19340845950E+02  0.10500000000E+00 0. -1.
</event>
<event>
11    0  0.3494755E-009  0.9118800E+02  0.7816531E-02  0.1126479E+00
         25   -1    0    0    0    0  0.00000000000E+00  0.00000000000E+00  0.99999998245E-14  0.12500000000E+03  0.12500000000E+03 0.  0.
    3000001    1    3    3    0    0 -0.25946392092E+02  0.12730729265E+02 -0.11256897219E+01  0.28940523623E+02  0.10000000000E+01 0.  1.
    1000022    2    1    0    0    0 -0.51366979194E+02  0.32488621366E+02 -0.10591181496E+02  0.62500002002E+02  0.10000002751E+02 0.  0.
    3000022    2    3    3    0    0 -0.25420587102E+02  0.19757892101E+02 -0.94654917743E+01  0.33559478379E+02  0.25001137055E+00 0.  0.
    1000022    2    1    0    0    0  0.51366979194E+02 -0.32488621366E+02  0.10591181496E+02  0.62499997998E+02  0.99999777239E+01 0.  0.
    3000022    2    5    5    0    0  0.38867209263E+02 -0.25716669867E+02  0.39365140903E+01  0.46771419750E+02  0.24999451993E+00 0.  0.
        -13    1    4    4    0    0 -0.16157013088E+02  0.12492017459E+02 -0.59752718168E+01  0.21279437737E+02  0.10500000000E+00 0. -1.
         13    1    4    4    0    0 -0.92635740140E+01  0.72658746420E+01 -0.34902199575E+01  0.12280040642E+02  0.10500000000E+00 0.  1.
    3000001    1    5    5    0    0  0.12499769931E+02 -0.67719514986E+01  0.66546674059E+01  0.15728578248E+02  0.10000000000E+01 0. -1.
        -13    1    6    6    0    0  0.18988067879E+02 -0.12515607259E+02  0.18660051848E+01  0.22818416842E+02  0.10500000000E+00 0. -1.
         13    1    6    6    0    0  0.19879141384E+02 -0.13201062609E+02  0.20705089055E+01  0.23953002908E+02  0.10500000000E+00 0.  1.
</event>
<event>
11    0  0.3494755E-009  0.9118800E+02  0.7816531E-02  0.1126479E+00
         25   -1    0    0    0    0  0.00000000000E+00  0.00000000000E+00  0.99999998245E-14  0.12500000000E+03  0.12500000000E+03 0.  0.
    3000001    1    3    3    0    0 -0.30940955561E+02 -0.55632357571E+01  0.17544785287E+02  0.36015438549E+02  0.10000000000E+01 0. -1.
    1000022    2    1    0    0    0 -0.48709789047E+02 -0.77606696088E+01  0.37059121296E+02  0.62499999943E+02  0.99999989925E+01 0.  0.
    3000022    2    3    3    0    0 -0.17768833486E+02 -0.21974338517E+01  0.19514336009E+02  0.26484561394E+02  0.25004672915E+00 0.  0.
    1000022    2    1    0    0    0  0.48709789047E+02  0.77606696088E+01 -0.37059121296E+02  0.62500000057E+02  0.99999997027E+01 0.  0.
    3000022    2    5    5    0    0 -0.33709115452E+00 -0.35339272811E+00 -0.13235586701E+00  0.56438453398E+00  0.24998991964E+00 0.  0.
        -13    1    4    4    0    0 -0.93214645127E+01 -0.10970775723E+01  0.10172041390E+02  0.13841052377E+02  0.10500000000E+00 0. -1.
         13    1    4    4    0    0 -0.84473689736E+01 -0.11003562794E+01  0.93422946191E+01  0.12643509017E+02  0.10500000000E+00 0.  1.
    3000001    1    5    5    0    0  0.49046880202E+02  0.81140623370E+01 -0.36926765429E+02  0.61935615523E+02  0.10000000000E+01 0. -1.
        -13    1    6    6    0    0 -0.10000442131E+00 -0.98665537406E-01 -0.93706510330E-01  0.19885090553E+00  0.10500000000E+00 0. -1.
         13    1    6    6    0    0 -0.23708673321E+00 -0.25472719071E+00 -0.38649356677E-01  0.36553362844E+00  0.10500000000E+00 0.  1.
</event>
<event>
11    0  0.3494755E-009  0.9118800E+02  0.7816531E-02  0.1126479E+00
         25   -1    0    0    0    0  0.00000000000E+00  0.00000000000E+00  0.99999998245E-14  0.12500000000E+03  0.12500000000E+03 0.  0.
    3000001    1    3    3    0    0  0.67056821564E+01  0.12907715503E+02  0.63729222959E+01  0.15911927327E+02  0.10000000000E+01 0.  1.
    1000022    2    1    0    0    0  0.10899799528E+02  0.51949426908E+02  0.31443623522E+02  0.62499999026E+02  0.99999916125E+01 0.  0.
    3000022    2    3    3    0    0  0.41941173711E+01  0.39041711405E+02  0.25070701226E+02  0.46588071699E+02  0.25002930269E+00 0.  0.
    1000022    2    1    0    0    0 -0.10899799528E+02 -0.51949426908E+02 -0.31443623522E+02  0.62500000974E+02  0.10000003788E+02 0.  0.
    3000022    2    5    5    0    0 -0.12474120109E+02 -0.39758402420E+02 -0.24797669322E+02  0.48490423158E+02  0.24999751330E+00 0.  0.
        -13    1    4    4    0    0  0.21950885195E+01  0.20517235550E+02  0.13095100798E+02  0.24439068274E+02  0.10500000000E+00 0.  1.
         13    1    4    4    0    0  0.19990288516E+01  0.18524475855E+02  0.11975600428E+02  0.22149003424E+02  0.10500000000E+00 0. -1.
    3000001    1    5    5    0    0  0.15743205811E+01 -0.12191024488E+02 -0.66459541999E+01  0.14009577816E+02  0.10000000000E+01 0.  1.
        -13    1    6    6    0    0 -0.73448921760E+01 -0.23198714735E+02 -0.14495348890E+02  0.28324088174E+02  0.10500000000E+00 0.  1.
         13    1    6    6    0    0 -0.51292279327E+01 -0.16559687684E+02 -0.10302320433E+02  0.20166334984E+02  0.10500000000E+00 0. -1.
</event>
<event>
11    0  0.3494755E-009  0.9118800E+02  0.7816531E-02  0.1126479E+00
         25   -1    0    0    0    0  0.00000000000E+00  0.00000000000E+00  0.99999998245E-14  0.12500000000E+03  0.12500000000E+03 0.  0.
    3000001    1    3    3    0    0 -0.15085227172E+02 -0.39306981223E+02 -0.71937237705E+01  0.42724144384E+02  0.10000000000E+01 0. -1.
    1000022    2    1    0    0    0 -0.27687386543E+02 -0.53910504583E+02 -0.11546265030E+02  0.62499999481E+02  0.99999910527E+01 0.  0.
    3000022    2    3    3    0    0 -0.12602159371E+02 -0.14603523360E+02 -0.43525412595E+01  0.19775855097E+02  0.25002812966E+00 0.  0.
    1000022    2    1    0    0    0  0.27687386543E+02  0.53910504583E+02  0.11546265030E+02  0.62500000519E+02  0.99999975373E+01 0.  0.
    3000022    2    5    5    0    0  0.42697971275E+01  0.16559565882E+02  0.56457833248E+01  0.18010768111E+02  0.25001778584E+00 0.  0.
        -13    1    4    4    0    0 -0.69769573989E+01 -0.81382146287E+01 -0.24767472932E+01  0.11002444003E+02  0.10500000000E+00 0.  1.
         13    1    4    4    0    0 -0.56252019716E+01 -0.64653087314E+01 -0.18757939663E+01  0.87734110936E+01  0.10500000000E+00 0. -1.
    3000001    1    5    5    0    0  0.23417589415E+02  0.37350938701E+02  0.59004817052E+01  0.44489232408E+02  0.10000000000E+01 0. -1.
        -13    1    6    6    0    0  0.21010331282E+01  0.83816378343E+01  0.28160167953E+01  0.90888485840E+01  0.10500000000E+00 0. -1.
         13    1    6    6    0    0  0.21687639993E+01  0.81779280478E+01  0.28297665295E+01  0.89219195272E+01  0.10500000000E+00 0.  1.
</event>
<event>
11    0  0.3494755E-009  0.9118800E+02  0.7816531E-02  0.1126479E+00
         25   -1    0    0    0    0  0.00000000000E+00  0.00000000000E+00  0.99999998245E-14  0.12500000000E+03  0.12500000000E+03 0.  0.
    3000001    1    3    3    0    0 -0.21969141427E+02  0.11729140195E+00  0.36286303160E+01  0.22289546660E+02  0.10000000000E+01 0. -1.
    1000022    2    1    0    0    0 -0.57459246632E+02 -0.32213325853E+01  0.22233039205E+02  0.62499999166E+02  0.99999928177E+01 0.  0.
    3000022    2    3    3    0    0 -0.35490105205E+02 -0.33386239872E+01  0.18604408889E+02  0.40210452507E+02  0.24996620505E+00 0.  0.
    1000022    2    1    0    0    0  0.57459246632E+02  0.32213325853E+01 -0.22233039205E+02  0.62500000834E+02  0.10000003240E+02 0.  0.
    3000022    2    5    5    0    0  0.39829364494E+02  0.62073779534E+01 -0.13027985728E+02  0.42363908346E+02  0.25000241516E+00 0.  0.
        -13    1    4    4    0    0 -0.12548520078E+02 -0.12337414395E+01  0.65570468549E+01  0.14212436897E+02  0.10500000000E+00 0. -1.
         13    1    4    4    0    0 -0.22941585127E+02 -0.21048825478E+01  0.12047362034E+02  0.25998015610E+02  0.10500000000E+00 0.  1.
    3000001    1    5    5    0    0  0.17629882138E+02 -0.29860453681E+01 -0.92050534778E+01  0.20136092488E+02  0.10000000000E+01 0.  1.
        -13    1    6    6    0    0  0.27249947431E+02  0.41973338991E+01 -0.89009169184E+01  0.28972652517E+02  0.10500000000E+00 0.  1.
         13    1    6    6    0    0  0.12579417062E+02  0.20100440543E+01 -0.41270688092E+01  0.13391255829E+02  0.10500000000E+00 0. -1.
</event>
<event>
11    0  0.3494755E-009  0.9118800E+02  0.7816531E-02  0.1126479E+00
         25   -1    0    0    0    0  0.00000000000E+00  0.00000000000E+00  0.99999998245E-14  0.12500000000E+03  0.12500000000E+03 0.  0.
    3000001    1    3    3    0    0 -0.21738783040E+02  0.33912527808E+02 -0.30096785792E+02  0.50293645179E+02  0.10000000000E+01 0. -1.
    1000022    2    1    0    0    0 -0.29420695410E+02  0.42869888308E+02 -0.33209108898E+02  0.62500001565E+02  0.10000031997E+02 0.  0.
    3000022    2    3    3    0    0 -0.76819123698E+01  0.89573604998E+01 -0.31123231055E+01  0.12206356386E+02  0.24999265012E+00 0.  0.
    1000022    2    1    0    0    0  0.29420695410E+02 -0.42869888308E+02  0.33209108898E+02  0.62499998435E+02  0.10000012434E+02 0.  0.
    3000022    2    5    5    0    0  0.72306665955E+00 -0.54674186483E+01  0.55716319857E+01  0.78435371282E+01  0.24999925594E+00 0.  0.
        -13    1    4    4    0    0 -0.33118842558E+01  0.37740325796E+01 -0.13568917972E+01  0.52023148295E+01  0.10500000000E+00 0.  1.
         13    1    4    4    0    0 -0.43700281141E+01  0.51833279202E+01 -0.17554313083E+01  0.70040415564E+01  0.10500000000E+00 0. -1.
    3000001    1    5    5    0    0  0.28697628750E+02 -0.37402469660E+02  0.27637476912E+02  0.54656461307E+02  0.10000000000E+01 0. -1.
        -13    1    6    6    0    0  0.50262648960E+00 -0.40099002068E+01  0.41107293027E+01  0.57655054814E+01  0.10500000000E+00 0. -1.
         13    1    6    6    0    0  0.22044016995E+00 -0.14575184415E+01  0.14609026830E+01  0.20780316468E+01  0.10500000000E+00 0.  1.
</event>
<event>
11    0  0.3494755E-009  0.9118800E+02  0.7816531E-02  0.1126479E+00
         25   -1    0    0    0    0  0.00000000000E+00  0.00000000000E+00  0.99999998245E-14  0.12500000000E+03  0.12500000000E+03 0.  0.
    3000001    1    3    3    0    0 -0.99759820421E+01  0.48968691782E+01 -0.36991938736E+01  0.11755151244E+02  0.10000000000E+01 0. -1.
    1000022    2    1    0    0    0 -0.53866705624E+02  0.81103669935E+01 -0.28962905288E+02  0.62500001220E+02  0.10000012111E+02 0.  0.
    3000022    2    3    3    0    0 -0.43890723582E+02  0.32134978153E+01 -0.25263711414E+02  0.50744849976E+02  0.24999980800E+00 0.  0.
    1000022    2    1    0    0    0  0.53866705624E+02 -0.81103669935E+01  0.28962905288E+02  0.62499998780E+02  0.99999968636E+01 0.  0.
    3000022    2    5    5    0    0  0.45482584651E+02 -0.10346963345E+02  0.24667960973E+02  0.52766428294E+02  0.24999886178E+00 0.  0.
        -13    1    4    4    0    0 -0.19829048924E+02  0.14935529586E+01 -0.11355336134E+02  0.22899269975E+02  0.10500000000E+00 0.  1.
         13    1    4    4    0    0 -0.24061674657E+02  0.17199448567E+01 -0.13908375280E+02  0.27845580000E+02  0.10500000000E+00 0. -1.
    3000001    1    5    5    0    0  0.83841209733E+01  0.22365963513E+01  0.42949443154E+01  0.97335704860E+01  0.10000000000E+01 0. -1.
        -13    1    6    6    0    0  0.29549731670E+02 -0.67532594200E+01  0.15976013794E+02  0.34264226189E+02  0.10500000000E+00 0.  1.
         13    1    6    6    0    0  0.15932852981E+02 -0.35937039249E+01  0.86919471788E+01  0.18502202106E+02  0.10500000000E+00 0. -1.
</event>
<event>
11    0  0.3494755E-009  0.9118800E+02  0.7816531E-02  0.1126479E+00
         25   -1    0    0    0    0  0.00000000000E+00  0.00000000000E+00  0.99999998245E-14  0.12500000000E+03  0.12500000000E+03 0.  0.
    3000001    1    3    3    0    0  0.63231159164E+01  0.30983473609E+02  0.45316780358E+01  0.31960812531E+02  0.10000000000E+01 0.  1.
    1000022    2    1    0    0    0  0.28315830281E+01  0.60730238594E+02  0.10491432506E+02  0.62500000569E+02  0.10000008644E+02 0.  0.
    3000022    2    3    3    0    0 -0.34915328883E+01  0.29746764985E+02  0.59597544703E+01  0.30539188038E+02  0.25000740282E+00 0.  0.
    1000022    2    1    0    0    0 -0.28315830281E+01 -0.60730238594E+02 -0.10491432506E+02  0.62499999431E+02  0.10000001538E+02 0.  0.
    3000022    2    5    5    0    0 -0.33155828878E+01 -0.52617422605E+02 -0.57428767704E+01  0.53034228427E+02  0.24999950379E+00 0.  0.
        -13    1    4    4    0    0 -0.10929622493E+01  0.89190066607E+01  0.17856552801E+01  0.91620323112E+01  0.10500000000E+00 0.  1.
         13    1    4    4    0    0 -0.23985706390E+01  0.20827758324E+02  0.41740991901E+01  0.21377155727E+02  0.10500000000E+00 0. -1.
    3000001    1    5    5    0    0  0.48399985970E+00 -0.81128159892E+01 -0.47485557358E+01  0.94657710048E+01  0.10000000000E+01 0.  1.
        -13    1    6    6    0    0 -0.23121921743E+01 -0.37372467934E+02 -0.40827933870E+01  0.37666003490E+02  0.10500000000E+00 0.  1.
         13    1    6    6    0    0 -0.10033907135E+01 -0.15244954671E+02 -0.16600833833E+01  0.15368224936E+02  0.10500000000E+00 0. -1.
</event>
<event>
11    0  0.3494755E-009  0.9118800E+02  0.7816531E-02  0.1126479E+00
         25   -1    0    0    0    0  0.00000000000E+00  0.00000000000E+00  0.99999998245E-14  0.12500000000E+03  0.12500000000E+03 0.  0.
    3000001    1    3    3    0    0  0.17654066679E+02 -0.16732264625E+02 -0.21370624734E+02  0.32393492423E+02  0.10000000000E+01 0.  1.
    1000022    2    1    0    0    0  0.28460693914E+02 -0.39330071855E+02 -0.38070782347E+02  0.62500000732E+02  0.99999986400E+01 0.  0.
    3000022    2    3    3    0    0  0.10806627234E+02 -0.22597807230E+02 -0.16700157613E+02  0.30106508309E+02  0.24998901250E+00 0.  0.
    1000022    2    1    0    0    0 -0.28460693914E+02  0.39330071855E+02  0.38070782347E+02  0.62499999268E+02  0.99999894883E+01 0.  0.
    3000022    2    5    5    0    0 -0.51383885338E+01  0.14905641122E+02  0.11463995588E+02  0.19495303634E+02  0.24998995287E+00 0.  0.
        -13    1    4    4    0    0  0.57355910413E+01 -0.12076048658E+02 -0.89817118393E+01  0.16106213967E+02  0.10500000000E+00 0. -1.
         13    1    4    4    0    0  0.50710361932E+01 -0.10521758572E+02 -0.77184457740E+01  0.14000294343E+02  0.10500000000E+00 0.  1.
    3000001    1    5    5    0    0 -0.23322305380E+02  0.24424430733E+02  0.26606786759E+02  0.43004695634E+02  0.10000000000E+01 0.  1.
        -13    1    6    6    0    0 -0.14183098515E+01  0.40548522643E+01  0.31629901284E+01  0.53356312910E+01  0.10500000000E+00 0. -1.
         13    1    6    6    0    0 -0.37200786823E+01  0.10850788857E+02  0.83010054598E+01  0.14159672343E+02  0.10500000000E+00 0.  1.
</event>
<event>
11    0  0.3494755E-009  0.9118800E+02  0.7816531E-02  0.1126479E+00
         25   -1    0    0    0    0  0.00000000000E+00  0.00000000000E+00  0.99999998245E-14  0.12500000000E+03  0.12500000000E+03 0.  0.
    3000001    1    3    3    0    0  0.15109278583E+01 -0.88536610245E+01 -0.58709331125E+02  0.59400806204E+02  0.10000000000E+01 0.  1.
    1000022    2    1    0    0    0  0.35565242804E+01 -0.98473882818E+01 -0.60799917909E+02  0.62500000851E+02  0.10000008382E+02 0.  0.
    3000022    2    3    3    0    0  0.20455964222E+01 -0.99372725722E+00 -0.20905867838E+01  0.30991946464E+01  0.24999154288E+00 0.  0.
    1000022    2    1    0    0    0 -0.35565242804E+01  0.98473882818E+01  0.60799917909E+02  0.62499999149E+02  0.99999977501E+01 0.  0.
    3000022    2    5    5    0    0 -0.60783513335E+00 -0.20153233888E+01  0.67015625897E+01  0.70288287622E+01  0.25000142857E+00 0.  0.
        -13    1    4    4    0    0  0.11453092811E+01 -0.48939107605E+00 -0.11814890791E+01  0.17199355856E+01  0.10500000000E+00 0. -1.
         13    1    4    4    0    0  0.90028714108E+00 -0.50433618117E+00 -0.90909770477E+00  0.13792590608E+01  0.10500000000E+00 0.  1.
    3000001    1    5    5    0    0 -0.29486891471E+01  0.11862711671E+02  0.54098355319E+02  0.55471170387E+02  0.10000000000E+01 0.  1.
        -13    1    6    6    0    0 -0.30130118087E+00 -0.80984518008E+00  0.26431564539E+01  0.27827922411E+01  0.10500000000E+00 0.  1.
         13    1    6    6    0    0 -0.30653395249E+00 -0.12054782087E+01  0.40584061358E+01  0.42460365212E+01  0.10500000000E+00 0. -1.
</event>
<event>
11    0  0.3494755E-009  0.9118800E+02  0.7816531E-02  0.1126479E+00
         25   -1    0    0    0    0  0.00000000000E+00  0.00000000000E+00  0.99999998245E-14  0.12500000000E+03  0.12500000000E+03 0.  0.
    3000001    1    3    3    0    0  0.32378055806E+02  0.19084611998E+02  0.34823650666E+01  0.37758280937E+02  0.10000000000E+01 0. -1.
    1000022    2    1    0    0    0  0.53678411231E+02  0.30335171432E+02 -0.21576635612E+01  0.62499999794E+02  0.10000000206E+02 0.  0.
    3000022    2    3    3    0    0  0.21300355425E+02  0.11250559434E+02 -0.56400286278E+01  0.24741718857E+02  0.25000049230E+00 0.  0.
    1000022    2    1    0    0    0 -0.53678411231E+02 -0.30335171432E+02  0.21576635612E+01  0.62500000206E+02  0.10000002782E+02 0.  0.
    3000022    2    5    5    0    0 -0.49220825321E+02 -0.25615796692E+02 -0.29472625258E+00  0.55488810159E+02  0.25000766084E+00 0.  0.
        -13    1    4    4    0    0  0.14126641687E+02  0.74960826232E+01 -0.36984373461E+01  0.16414710593E+02  0.10500000000E+00 0. -1.
         13    1    4    4    0    0  0.71737137384E+01  0.37544768108E+01 -0.19415912817E+01  0.83270082640E+01  0.10500000000E+00 0.  1.
    3000001    1    5    5    0    0 -0.44575859099E+01 -0.47193747398E+01  0.24523898138E+01  0.70111900472E+01  0.10000000000E+01 0. -1.
        -13    1    6    6    0    0 -0.21421182302E+02 -0.11221867368E+02 -0.12030896263E+00  0.24183111001E+02  0.10500000000E+00 0. -1.
         13    1    6    6    0    0 -0.27799643019E+02 -0.14393929325E+02 -0.17441728995E+00  0.31305699158E+02  0.10500000000E+00 0.  1.
</event>
<event>
11    0  0.3494755E-009  0.9118800E+02  0.7816531E-02  0.1126479E+00
         25   -1    0    0    0    0  0.00000000000E+00  0.00000000000E+00  0.99999998245E-14  0.12500000000E+03  0.12500000000E+03 0.  0.
    3000001    1    3    3    0    0 -0.15740024376E+02 -0.27207025567E+02 -0.14652447687E+01  0.31482019468E+02  0.10000000000E+01 0. -1.
    1000022    2    1    0    0    0 -0.30479911491E+02 -0.53200846640E+02  0.68479691552E+01  0.62499998358E+02  0.10000001278E+02 0.  0.
    3000022    2    3    3    0    0 -0.14739887115E+02 -0.25993821073E+02  0.83132139240E+01  0.31017978890E+02  0.24996512694E+00 0.  0.
    1000022    2    1    0    0    0  0.30479911491E+02  0.53200846640E+02 -0.68479691552E+01  0.62500001642E+02  0.10000021799E+02 0.  0.
    3000022    2    5    5    0    0  0.28581929266E+02  0.42871053390E+02 -0.47611566581E+01  0.51745386284E+02  0.24997910888E+00 0.  0.
        -13    1    4    4    0    0 -0.95351019439E+01 -0.16739420787E+02  0.53141848807E+01  0.19984443032E+02  0.10500000000E+00 0.  1.
         13    1    4    4    0    0 -0.52047851709E+01 -0.92544002853E+01  0.29990290432E+01  0.11033535857E+02  0.10500000000E+00 0. -1.
    3000001    1    5    5    0    0  0.18979822247E+01  0.10329793249E+02 -0.20868124971E+01  0.10754615358E+02  0.10000000000E+01 0. -1.
        -13    1    6    6    0    0  0.19900866217E+02  0.29766817722E+02 -0.32989728718E+01  0.35958339234E+02  0.10500000000E+00 0. -1.
         13    1    6    6    0    0  0.86810630495E+01  0.13104235668E+02 -0.14621837863E+01  0.15787047050E+02  0.10500000000E+00 0.  1.
</event>
<event>
11    0  0.3494755E-009  0.9118800E+02  0.7816531E-02  0.1126479E+00
         25   -1    0    0    0    0  0.00000000000E+00  0.00000000000E+00  0.99999998245E-14  0.12500000000E+03  0.12500000000E+03 0.  0.
    3000001    1    3    3    0    0  0.18630097811E+02  0.16893894044E+02  0.53992256164E+02  0.59570529006E+02  0.10000000000E+01 0.  1.
    1000022    2    1    0    0    0  0.17681048858E+02  0.18716077692E+02  0.56065488150E+02  0.62500000381E+02  0.10000001661E+02 0.  0.
    3000022    2    3    3    0    0 -0.94904895293E+00  0.18221836485E+01  0.20732319862E+01  0.29294713749E+01  0.24992899760E+00 0.  0.
    1000022    2    1    0    0    0 -0.17681048858E+02 -0.18716077692E+02 -0.56065488150E+02  0.62499999619E+02  0.99999968987E+01 0.  0.
    3000022    2    5    5    0    0 -0.15919710525E+02 -0.18876777361E+02 -0.45780202218E+02  0.52015952509E+02  0.24998709789E+00 0.  0.
        -13    1    4    4    0    0 -0.43283861082E+00  0.69524962972E+00  0.82300218471E+00  0.11657953966E+01  0.10500000000E+00 0. -1.
         13    1    4    4    0    0 -0.51621034211E+00  0.11269340187E+01  0.12502298015E+01  0.17636759783E+01  0.10500000000E+00 0.  1.
    3000001    1    5    5    0    0 -0.17613383333E+01  0.16069966845E+00 -0.10285285932E+02  0.10484047110E+02  0.10000000000E+01 0. -1.
        -13    1    6    6    0    0 -0.54086460088E+01 -0.64985521326E+01 -0.15664648944E+02  0.17801036009E+02  0.10500000000E+00 0. -1.
         13    1    6    6    0    0 -0.10511064516E+02 -0.12378225228E+02 -0.30115553274E+02  0.34214916500E+02  0.10500000000E+00 0.  1.
</event>
<event>
11    0  0.3494755E-009  0.9118800E+02  0.7816531E-02  0.1126479E+00
         25   -1    0    0    0    0  0.00000000000E+00  0.00000000000E+00  0.99999998245E-14  0.12500000000E+03  0.12500000000E+03 0.  0.
    3000001    1    3    3    0    0  0.12892482711E+01 -0.26894135859E-01  0.10036393243E+01  0.19157704175E+01  0.10000000000E+01 0. -1.
    1000022    2    1    0    0    0  0.13445986025E+02  0.29425596265E+02  0.52531796095E+02  0.62500000314E+02  0.10000009131E+02 0.  0.
    3000022    2    3    3    0    0  0.12156737754E+02  0.29452490401E+02  0.51528156771E+02  0.60584229897E+02  0.25001681976E+00 0.  0.
    1000022    2    1    0    0    0 -0.13445986025E+02 -0.29425596265E+02 -0.52531796095E+02  0.62499999686E+02  0.10000005203E+02 0.  0.
    3000022    2    5    5    0    0 -0.55946763751E+01 -0.32489790733E+01 -0.88861980486E+01  0.10994693361E+02  0.24999516212E+00 0.  0.
        -13    1    4    4    0    0  0.83639141454E+01  0.20239223485E+02  0.35506465430E+02  0.41716919103E+02  0.10500000000E+00 0.  1.
         13    1    4    4    0    0  0.37928236087E+01  0.92132669156E+01  0.16021691341E+02  0.18867310794E+02  0.10500000000E+00 0. -1.
    3000001    1    5    5    0    0 -0.78513096501E+01 -0.26176617191E+02 -0.43645598046E+02  0.51505306325E+02  0.10000000000E+01 0. -1.
        -13    1    6    6    0    0 -0.13069878848E+01 -0.77072867034E+00 -0.21043829682E+01  0.25964769768E+01  0.10500000000E+00 0. -1.
         13    1    6    6    0    0 -0.42876884902E+01 -0.24782504030E+01 -0.67818150804E+01  0.83982163841E+01  0.10500000000E+00 0.  1.
</event>
<event>
11    0  0.3494755E-009  0.9118800E+02  0.7816531E-02  0.1126479E+00
         25   -1    0    0    0    0  0.00000000000E+00  0.00000000000E+00  0.99999998245E-14  0.12500000000E+03  0.12500000000E+03 0.  0.
    3000001    1    3    3    0    0  0.92228955232E+00 -0.61673750023E+00 -0.15132368725E+01  0.21262335231E+01  0.10000000000E+01 0. -1.
    1000022    2    1    0    0    0  0.58249399765E+02  0.28532484723E+01 -0.20127523136E+02  0.62500006910E+02  0.10000003818E+02 0.  0.
    3000022    2    3    3    0    0  0.57327110213E+02  0.34699859725E+01 -0.18614286263E+02  0.60373773387E+02  0.24998380078E+00 0.  0.
    1000022    2    1    0    0    0 -0.58249399765E+02 -0.28532484723E+01  0.20127523136E+02  0.62499993090E+02  0.99999174402E+01 0.  0.
    3000022    2    5    5    0    0 -0.55385477583E+02 -0.22986287219E+01  0.16711495744E+02  0.57897939583E+02  0.24999392394E+00 0.  0.
        -13    1    4    4    0    0  0.24721191224E+02  0.15472694221E+01 -0.80716753136E+01  0.26051762043E+02  0.10500000000E+00 0. -1.
         13    1    4    4    0    0  0.32605918989E+02  0.19227165504E+01 -0.10542610950E+02  0.34322011344E+02  0.10500000000E+00 0.  1.
    3000001    1    5    5    0    0 -0.28639221826E+01 -0.55461975044E+00  0.34160273915E+01  0.46020535064E+01  0.10000000000E+01 0.  1.
        -13    1    6    6    0    0 -0.19121241627E+02 -0.77605796369E+00  0.58245236905E+01  0.20004005812E+02  0.10500000000E+00 0. -1.
         13    1    6    6    0    0 -0.36264235955E+02 -0.15225707582E+01  0.10886972054E+02  0.37893933771E+02  0.10500000000E+00 0.  1.
</event>
<event>
11    0  0.3494755E-009  0.9118800E+02  0.7816531E-02  0.1126479E+00
         25   -1    0    0    0    0  0.00000000000E+00  0.00000000000E+00  0.99999998245E-14  0.12500000000E+03  0.12500000000E+03 0.  0.
    3000001    1    3    3    0    0 -0.27406929665E+01 -0.17857678788E+02 -0.21605353985E+02  0.28181543791E+02  0.10000000000E+01 0. -1.
    1000022    2    1    0    0    0 -0.14038118486E+02 -0.32598008665E+02 -0.50463364324E+02  0.62499999690E+02  0.99999941417E+01 0.  0.
    3000022    2    3    3    0    0 -0.11297425519E+02 -0.14740329878E+02 -0.28858010339E+02  0.34318455899E+02  0.25001266878E+00 0.  0.
    1000022    2    1    0    0    0  0.14038118486E+02  0.32598008665E+02  0.50463364324E+02  0.62500000310E+02  0.99999980156E+01 0.  0.
    3000022    2    5    5    0    0  0.78914781294E+01  0.27529651997E+02  0.41986820928E+02  0.50824332666E+02  0.24998635370E+00 0.  0.
        -13    1    4    4    0    0 -0.69367000551E+01 -0.91060064412E+01 -0.17692051125E+02  0.21072656667E+02  0.10500000000E+00 0.  1.
         13    1    4    4    0    0 -0.43607254644E+01 -0.56343234366E+01 -0.11165959213E+02  0.13245799233E+02  0.10500000000E+00 0. -1.
    3000001    1    5    5    0    0  0.61466403565E+01  0.50683566683E+01  0.84765433957E+01  0.11675667644E+02  0.10000000000E+01 0. -1.
        -13    1    6    6    0    0  0.22208537358E+01  0.76469731032E+01  0.11723806087E+02  0.14172757076E+02  0.10500000000E+00 0. -1.
         13    1    6    6    0    0  0.56706243936E+01  0.19882678894E+02  0.30263014841E+02  0.36651575591E+02  0.10500000000E+00 0.  1.
</event>
<event>
11    0  0.3494755E-009  0.9118800E+02  0.7816531E-02  0.1126479E+00
         25   -1    0    0    0    0  0.00000000000E+00  0.00000000000E+00  0.99999998245E-14  0.12500000000E+03  0.12500000000E+03 0.  0.
    3000001    1    3    3    0    0  0.11492934196E+02 -0.21785417365E+02  0.22219080886E+02  0.33187038157E+02  0.10000000000E+01 0.  1.
    1000022    2    1    0    0    0  0.21612280541E+02 -0.33393004980E+02  0.47160021038E+02  0.62500008952E+02  0.10000004144E+02 0.  0.
    3000022    2    3    3    0    0  0.10119346345E+02 -0.11607587615E+02  0.24940940152E+02  0.29312970795E+02  0.25000094374E+00 0.  0.
    1000022    2    1    0    0    0 -0.21612280541E+02  0.33393004980E+02 -0.47160021038E+02  0.62499991048E+02  0.99998922487E+01 0.  0.
    3000022    2    5    5    0    0 -0.10599003069E+02  0.24885899330E+02 -0.31827474577E+02  0.41769575998E+02  0.24997902303E+00 0.  0.
        -13    1    4    4    0    0  0.30123655652E+01 -0.34306561060E+01  0.73160884967E+01  0.86243796013E+01  0.10500000000E+00 0.  1.
         13    1    4    4    0    0  0.71069807795E+01 -0.81769315090E+01  0.17624851655E+02  0.20688591194E+02  0.10500000000E+00 0. -1.
    3000001    1    5    5    0    0 -0.11013277472E+02  0.85071056493E+01 -0.15332546461E+02  0.20730415051E+02  0.10000000000E+01 0. -1.
        -13    1    6    6    0    0 -0.66185100752E+01  0.15600739697E+02 -0.19855073644E+02  0.26104074953E+02  0.10500000000E+00 0. -1.
         13    1    6    6    0    0 -0.39804929936E+01  0.92851596331E+01 -0.11972400933E+02  0.15665501045E+02  0.10500000000E+00 0.  1.
</event>
<event>
11    0  0.3494755E-009  0.9118800E+02  0.7816531E-02  0.1126479E+00
         25   -1    0    0    0    0  0.00000000000E+00  0.00000000000E+00  0.99999998245E-14  0.12500000000E+03  0.12500000000E+03 0.  0.
    3000001    1    3    3    0    0 -0.23687599174E+02 -0.12428372474E+02  0.18718901250E+02  0.32664415822E+02  0.10000000000E+01 0. -1.
    1000022    2    1    0    0    0 -0.39876039036E+02 -0.20052697163E+02  0.42591556699E+02  0.62500000144E+02  0.10000008163E+02 0.  0.
    3000022    2    3    3    0    0 -0.16188439862E+02 -0.76243246898E+01  0.23872655448E+02  0.29835584322E+02  0.25000308916E+00 0.  0.
    1000022    2    1    0    0    0  0.39876039036E+02  0.20052697163E+02 -0.42591556699E+02  0.62499999856E+02  0.10000006364E+02 0.  0.
    3000022    2    5    5    0    0  0.60534452765E+01  0.75052971676E+01 -0.94092003179E+01  0.13474762781E+02  0.24999220075E+00 0.  0.
        -13    1    4    4    0    0 -0.88327594101E+01 -0.42130213305E+01  0.12977841935E+02  0.16254310008E+02  0.10500000000E+00 0.  1.
         13    1    4    4    0    0 -0.73556804523E+01 -0.34113033594E+01  0.10894813513E+02  0.13581274315E+02  0.10500000000E+00 0. -1.
    3000001    1    5    5    0    0  0.33822593759E+02  0.12547399996E+02 -0.33182356381E+02  0.49025237075E+02  0.10000000000E+01 0. -1.
        -13    1    6    6    0    0  0.20334954717E+01  0.24413087365E+01 -0.30783421708E+01  0.44251901316E+01  0.10500000000E+00 0. -1.
         13    1    6    6    0    0  0.40199498048E+01  0.50639884311E+01 -0.63308581470E+01  0.90495726496E+01  0.10500000000E+00 0.  1.
</event>
<event>
11    0  0.3494755E-009  0.9118800E+02  0.7816531E-02  0.1126479E+00
         25   -1    0    0    0    0  0.00000000000E+00  0.00000000000E+00  0.99999998245E-14  0.12500000000E+03  0.12500000000E+03 0.  0.
    3000001    1    3    3    0    0 -0.14102533268E+01  0.18797221163E+02 -0.10057112745E+02  0.21388544940E+02  0.10000000000E+01 0. -1.
    1000022    2    1    0    0    0  0.20461218664E+00  0.59253591906E+02 -0.17181969490E+02  0.62500000851E+02  0.10000000549E+02 0.  0.
    3000022    2    3    3    0    0  0.16148655134E+01  0.40456370743E+02 -0.71248567443E+01  0.41111455911E+02  0.24999835234E+00 0.  0.
    1000022    2    1    0    0    0 -0.20461218664E+00 -0.59253591906E+02  0.17181969490E+02  0.62499999149E+02  0.99999899092E+01 0.  0.
    3000022    2    5    5    0    0  0.10835190675E+01 -0.23990338425E+02  0.20853761738E+01  0.24106465085E+02  0.25002757181E+00 0.  0.
        -13    1    4    4    0    0  0.79047531321E+00  0.18308956781E+02 -0.31942826635E+01  0.18602613160E+02  0.10500000000E+00 0. -1.
         13    1    4    4    0    0  0.82439020022E+00  0.22147413962E+02 -0.39305740808E+01  0.22508842751E+02  0.10500000000E+00 0.  1.
    3000001    1    5    5    0    0 -0.12881312541E+01 -0.35263253481E+02  0.15096593316E+02  0.38393534064E+02  0.10000000000E+01 0.  1.
        -13    1    6    6    0    0  0.61575861206E+00 -0.12675160501E+02  0.10499678024E+01  0.12733903949E+02  0.10500000000E+00 0.  1.
         13    1    6    6    0    0  0.46776045542E+00 -0.11315177925E+02  0.10354083713E+01  0.11372561137E+02  0.10500000000E+00 0. -1.
</event>
<event>
11    0  0.3494755E-009  0.9118800E+02  0.7816531E-02  0.1126479E+00
         25   -1    0    0    0    0  0.00000000000E+00  0.00000000000E+00  0.99999998245E-14  0.12500000000E+03  0.12500000000E+03 0.  0.
    3000001    1    3    3    0    0  0.41598301733E+01  0.43282043652E+02 -0.18104020029E+02  0.47110455644E+02  0.10000000000E+01 0. -1.
    1000022    2    1    0    0    0  0.10439457349E+02  0.55127982861E+02 -0.25654887955E+02  0.62500000771E+02  0.10000002813E+02 0.  0.
    3000022    2    3    3    0    0  0.62796271760E+01  0.11845939209E+02 -0.75508679259E+01  0.15389545127E+02  0.24999911460E+00 0.  0.
    1000022    2    1    0    0    0 -0.10439457349E+02 -0.55127982861E+02  0.25654887955E+02  0.62499999229E+02  0.99999931819E+01 0.  0.
    3000022    2    5    5    0    0 -0.96365609665E+00 -0.26559872616E+02  0.15221670533E+02  0.30628699317E+02  0.25000314176E+00 0.  0.
        -13    1    4    4    0    0  0.37035003414E+01  0.70836549304E+01 -0.44508257750E+01  0.91495878066E+01  0.10500000000E+00 0. -1.
         13    1    4    4    0    0  0.25761268345E+01  0.47622842788E+01 -0.31000421510E+01  0.62399573202E+01  0.10500000000E+00 0.  1.
    3000001    1    5    5    0    0 -0.94758012526E+01 -0.28568110245E+02  0.10433217421E+02  0.31871299912E+02  0.10000000000E+01 0.  1.
        -13    1    6    6    0    0 -0.42869424453E+00 -0.13037291405E+02  0.75299922557E+01  0.15062089972E+02  0.10500000000E+00 0. -1.
         13    1    6    6    0    0 -0.53496185212E+00 -0.13522581211E+02  0.76916782777E+01  0.15566609345E+02  0.10500000000E+00 0.  1.
</event>
<event>
11    0  0.3494755E-009  0.9118800E+02  0.7816531E-02  0.1126479E+00
         25   -1    0    0    0    0  0.00000000000E+00  0.00000000000E+00  0.99999998245E-14  0.12500000000E+03  0.12500000000E+03 0.  0.
    3000001    1    3    3    0    0 -0.18624526511E+01  0.67997406077E+01  0.15011840002E+02  0.16615069740E+02  0.10000000000E+01 0.  1.
    1000022    2    1    0    0    0 -0.18546061745E+02  0.14092389100E+02  0.57128794177E+02  0.62499989496E+02  0.99998863026E+01 0.  0.
    3000022    2    3    3    0    0 -0.16683609094E+02  0.72926484922E+01  0.42116954175E+02  0.45884919756E+02  0.24999522890E+00 0.  0.
    1000022    2    1    0    0    0  0.18546061745E+02 -0.14092389100E+02 -0.57128794177E+02  0.62500010504E+02  0.10000017604E+02 0.  0.
    3000022    2    5    5    0    0  0.11423743615E+02 -0.13422957888E+02 -0.45676897262E+02  0.48960383602E+02  0.25000466267E+00 0.  0.
        -13    1    4    4    0    0 -0.11884899969E+02  0.52314321512E+01  0.29970635664E+02  0.32662956950E+02  0.10500000000E+00 0.  1.
         13    1    4    4    0    0 -0.47987091254E+01  0.20612163410E+01  0.12146318512E+02  0.13221962807E+02  0.10500000000E+00 0. -1.
    3000001    1    5    5    0    0  0.71223181299E+01 -0.66943121229E+00 -0.11451896915E+02  0.13539626902E+02  0.10000000000E+01 0.  1.
        -13    1    6    6    0    0  0.75497130998E+01 -0.88080525179E+01 -0.30164330895E+02  0.32318382391E+02  0.10500000000E+00 0. -1.
         13    1    6    6    0    0  0.38740305155E+01 -0.46149053697E+01 -0.15512566367E+02  0.16642001211E+02  0.10500000000E+00 0.  1.
</event>
<event>
11    0  0.3494755E-009  0.9118800E+02  0.7816531E-02  0.1126479E+00
         25   -1    0    0    0    0  0.00000000000E+00  0.00000000000E+00  0.99999998245E-14  0.12500000000E+03  0.12500000000E+03 0.  0.
    3000001    1    3    3    0    0 -0.62547850870E+01 -0.10671697621E+01  0.97427972943E+00  0.64969538075E+01  0.10000000000E+01 0. -1.
    1000022    2    1    0    0    0 -0.51759106631E+02 -0.33353649404E+02 -0.38443107789E+01  0.62500001601E+02  0.10000021350E+02 0.  0.
    3000022    2    3    3    0    0 -0.45504321544E+02 -0.32286479642E+02 -0.48185905083E+01  0.56003047794E+02  0.25000173667E+00 0.  0.
    1000022    2    1    0    0    0  0.51759106631E+02  0.33353649404E+02  0.38443107789E+01  0.62499998399E+02  0.10000001334E+02 0.  0.
    3000022    2    5    5    0    0  0.17718682434E+02  0.14289268991E+02 -0.27119931147E+01  0.22924927953E+02  0.24999901078E+00 0.  0.
        -13    1    4    4    0    0 -0.18432475311E+02 -0.13039585898E+02 -0.18946516630E+01  0.22658059856E+02  0.10500000000E+00 0. -1.
         13    1    4    4    0    0 -0.27071846232E+02 -0.19246893744E+02 -0.29239388453E+01  0.33344987938E+02  0.10500000000E+00 0.  1.
    3000001    1    5    5    0    0  0.34040424196E+02  0.19064380413E+02  0.65563038935E+01  0.39575070445E+02  0.10000000000E+01 0. -1.
        -13    1    6    6    0    0  0.11639825434E+02  0.93227182861E+01 -0.17521573155E+01  0.15015981241E+02  0.10500000000E+00 0. -1.
         13    1    6    6    0    0  0.60788569999E+01  0.49665507050E+01 -0.95983579914E+00  0.79089467119E+01  0.10500000000E+00 0.  1.
</event>
<event>
11    0  0.3494755E-009  0.9118800E+02  0.7816531E-02  0.1126479E+00
         25   -1    0    0    0    0  0.00000000000E+00  0.00000000000E+00  0.99999998245E-14  0.12500000000E+03  0.12500000000E+03 0.  0.
    3000001    1    3    3    0    0  0.26028397567E+02  0.27557876554E+01  0.48431833362E+02  0.55061005515E+02  0.10000000000E+01 0. -1.
    1000022    2    1    0    0    0  0.29252127498E+02  0.66035791775E+01  0.53916191113E+02  0.62499998152E+02  0.99999941895E+01 0.  0.
    3000022    2    3    3    0    0  0.32237299309E+01  0.38477915220E+01  0.54843577513E+01  0.74389926376E+01  0.24999450715E+00 0.  0.
    1000022    2    1    0    0    0 -0.29252127498E+02 -0.66035791775E+01 -0.53916191113E+02  0.62500001848E+02  0.10000017286E+02 0.  0.
    3000022    2    5    5    0    0 -0.29329122943E+02 -0.50537924088E+01 -0.50553862060E+02  0.58664245861E+02  0.25000589802E+00 0.  0.
        -13    1    4    4    0    0  0.14215255024E+01  0.18006574605E+01  0.25136581695E+01  0.34047913941E+01  0.10500000000E+00 0. -1.
         13    1    4    4    0    0  0.18022044286E+01  0.20471340616E+01  0.29706995818E+01  0.40342012436E+01  0.10500000000E+00 0.  1.
    3000001    1    5    5    0    0  0.76995445255E-01 -0.15497867687E+01 -0.33623290534E+01  0.38357559868E+01  0.10000000000E+01 0.  1.
        -13    1    6    6    0    0 -0.20201919259E+02 -0.34320033152E+01 -0.34819606429E+02  0.40401883685E+02  0.10500000000E+00 0.  1.
         13    1    6    6    0    0 -0.91272036846E+01 -0.16217890936E+01 -0.15734255631E+02  0.18262362175E+02  0.10500000000E+00 0. -1.
</event>
<event>
11    0  0.3494755E-009  0.9118800E+02  0.7816531E-02  0.1126479E+00
         25   -1    0    0    0    0  0.00000000000E+00  0.00000000000E+00  0.99999998245E-14  0.12500000000E+03  0.12500000000E+03 0.  0.
    3000001    1    3    3    0    0  0.61119848865E+01  0.20608709521E+02 -0.18594026758E+01  0.21599366789E+02  0.10000000000E+01 0.  1.
    1000022    2    1    0    0    0  0.10508456351E+02  0.60487962274E+02  0.60851269202E+01  0.62500000196E+02  0.10000000997E+02 0.  0.
    3000022    2    3    3    0    0  0.43964714648E+01  0.39879252753E+02  0.79445295960E+01  0.40900633407E+02  0.25000226553E+00 0.  0.
    1000022    2    1    0    0    0 -0.10508456351E+02 -0.60487962274E+02 -0.60851269202E+01  0.62499999804E+02  0.99999985463E+01 0.  0.
    3000022    2    5    5    0    0 -0.10367752163E+02 -0.37385783857E+02 -0.66784444492E+01  0.39368150095E+02  0.25000423898E+00 0.  0.
        -13    1    4    4    0    0  0.23865071436E+01  0.21218103677E+02  0.41788434879E+01  0.21757230934E+02  0.10500000000E+00 0.  1.
         13    1    4    4    0    0  0.20099643213E+01  0.18661149076E+02  0.37656861081E+01  0.19143402474E+02  0.10500000000E+00 0. -1.
    3000001    1    5    5    0    0 -0.14070418844E+00 -0.23102178416E+02  0.59331752901E+00  0.23131849709E+02  0.10000000000E+01 0. -1.
        -13    1    6    6    0    0 -0.74064377506E+01 -0.26731873729E+02 -0.48163572666E+01  0.28154159826E+02  0.10500000000E+00 0.  1.
         13    1    6    6    0    0 -0.29613144123E+01 -0.10653910129E+02 -0.18620871826E+01  0.11213990269E+02  0.10500000000E+00 0. -1.
</event>
<event>
11    0  0.3494755E-009  0.9118800E+02  0.7816531E-02  0.1126479E+00
         25   -1    0    0    0    0  0.00000000000E+00  0.00000000000E+00  0.99999998245E-14  0.12500000000E+03  0.12500000000E+03 0.  0.
    3000001    1    3    3    0    0 -0.14580118921E+02  0.92747284936E+01 -0.45704485132E+02  0.48872286805E+02  0.10000000000E+01 0.  1.
    1000022    2    1    0    0    0 -0.16013521043E+02  0.73812694239E+01 -0.59121349892E+02  0.62500000664E+02  0.10000003770E+02 0.  0.
    3000022    2    3    3    0    0 -0.14334021225E+01 -0.18934590697E+01 -0.13416864759E+02  0.13627713858E+02  0.24999226901E+00 0.  0.
    1000022    2    1    0    0    0  0.16013521043E+02 -0.73812694239E+01  0.59121349892E+02  0.62499999336E+02  0.99999954754E+01 0.  0.
    3000022    2    5    5    0    0  0.68029082103E+01 -0.11769658275E+01  0.10168483709E+02  0.12293307757E+02  0.25009194750E+00 0.  0.
        -13    1    4    4    0    0 -0.51281790942E+00 -0.71251011276E+00 -0.52950035236E+01  0.53683088756E+01  0.10500000000E+00 0. -1.
         13    1    4    4    0    0 -0.92058421309E+00 -0.11809489569E+01 -0.81218612358E+01  0.82594049825E+01  0.10500000000E+00 0.  1.
    3000001    1    5    5    0    0  0.92106128332E+01 -0.62043035964E+01  0.48952866183E+02  0.50206691580E+02  0.10000000000E+01 0.  1.
        -13    1    6    6    0    0  0.49889037739E+01 -0.87187229258E+00  0.75159357304E+01  0.90636436968E+01  0.10500000000E+00 0. -1.
         13    1    6    6    0    0  0.18140044364E+01 -0.30509353488E+00  0.26525479786E+01  0.32296640598E+01  0.10500000000E+00 0.  1.
</event>
<event>
11    0  0.3494755E-009  0.9118800E+02  0.7816531E-02  0.1126479E+00
         25   -1    0    0    0    0  0.00000000000E+00  0.00000000000E+00  0.99999998245E-14  0.12500000000E+03  0.12500000000E+03 0.  0.
    3000001    1    3    3    0    0 -0.62614051037E+01 -0.41605483687E+00 -0.11691436026E+02  0.13306688989E+02  0.10000000000E+01 0.  1.
    1000022    2    1    0    0    0 -0.18067469317E+02  0.12749739112E+02 -0.57595664919E+02  0.62500001600E+02  0.10000014381E+02 0.  0.
    3000022    2    3    3    0    0 -0.11806064213E+02  0.13165793949E+02 -0.45904228893E+02  0.49193312611E+02  0.24998577311E+00 0.  0.
    1000022    2    1    0    0    0  0.18067469317E+02 -0.12749739112E+02  0.57595664919E+02  0.62499998400E+02  0.99999943825E+01 0.  0.
    3000022    2    5    5    0    0  0.17263439188E+02 -0.11724851567E+02  0.42839575778E+02  0.47652809250E+02  0.24999944027E+00 0.  0.
        -13    1    4    4    0    0 -0.47645536293E+01  0.52814756222E+01 -0.18299170866E+02  0.19633278774E+02  0.10500000000E+00 0. -1.
         13    1    4    4    0    0 -0.70415105836E+01  0.78843183266E+01 -0.27605058027E+02  0.29560033837E+02  0.10500000000E+00 0.  1.
    3000001    1    5    5    0    0  0.80403012843E+00 -0.10248875454E+01  0.14756089141E+02  0.14847189150E+02  0.10000000000E+01 0. -1.
        -13    1    6    6    0    0  0.49013468081E+01 -0.33743380839E+01  0.12177042446E+02  0.13553624820E+02  0.10500000000E+00 0.  1.
         13    1    6    6    0    0  0.12362092380E+02 -0.83505134827E+01  0.30662533332E+02  0.34099184430E+02  0.10500000000E+00 0. -1.
</event>
<event>
11    0  0.3494755E-009  0.9118800E+02  0.7816531E-02  0.1126479E+00
         25   -1    0    0    0    0  0.00000000000E+00  0.00000000000E+00  0.99999998245E-14  0.12500000000E+03  0.12500000000E+03 0.  0.
    3000001    1    3    3    0    0  0.47439311753E+00 -0.10711842298E+01 -0.38930832682E+00  0.15887244750E+01  0.10000000000E+01 0.  1.
    1000022    2    1    0    0    0  0.51495513522E+02 -0.29131726204E+02  0.17487273754E+02  0.62499999543E+02  0.99999907530E+01 0.  0.
    3000022    2    3    3    0    0  0.51021120404E+02 -0.28060541974E+02  0.17876582081E+02  0.60911275068E+02  0.25000070946E+00 0.  0.
    1000022    2    1    0    0    0 -0.51495513522E+02  0.29131726204E+02 -0.17487273754E+02  0.62500000457E+02  0.99999964648E+01 0.  0.
    3000022    2    5    5    0    0 -0.23043951532E+02  0.15613160257E+02 -0.36287116697E+01  0.28071774421E+02  0.24999073751E+00 0.  0.
        -13    1    4    4    0    0  0.21329201069E+02 -0.11786466852E+02  0.75257874036E+01  0.25504982261E+02  0.10500000000E+00 0. -1.
         13    1    4    4    0    0  0.29691919335E+02 -0.16274075122E+02  0.10350794677E+02  0.35406292807E+02  0.10500000000E+00 0.  1.
    3000001    1    5    5    0    0 -0.28451561989E+02  0.13518565947E+02 -0.13858562084E+02  0.34428226035E+02  0.10000000000E+01 0.  1.
        -13    1    6    6    0    0 -0.73221513081E+01  0.50148734673E+01 -0.11331079895E+01  0.89475032488E+01  0.10500000000E+00 0. -1.
         13    1    6    6    0    0 -0.15721800224E+02  0.10598286789E+02 -0.24956036802E+01  0.19124271173E+02  0.10500000000E+00 0.  1.
</event>
<event>
11    0  0.3494755E-009  0.9118800E+02  0.7816531E-02  0.1126479E+00
         25   -1    0    0    0    0  0.00000000000E+00  0.00000000000E+00  0.99999998245E-14  0.12500000000E+03  0.12500000000E+03 0.  0.
    3000001    1    3    3    0    0 -0.49793474808E+01  0.61078022055E+02  0.95538986566E+01  0.62028990472E+02  0.10000000000E+01 0. -1.
    1000022    2    1    0    0    0 -0.47850897811E+01  0.60793904683E+02  0.93516833052E+01  0.62500000293E+02  0.10000006256E+02 0.  0.
    3000022    2    3    3    0    0  0.19425769967E+00 -0.28411737114E+00 -0.20221535136E+00  0.47100982105E+00  0.25000093747E+00 0.  0.
    1000022    2    1    0    0    0  0.47850897811E+01 -0.60793904683E+02 -0.93516833052E+01  0.62499999707E+02  0.10000002594E+02 0.  0.
    3000022    2    5    5    0    0  0.46504613988E+01 -0.58597790871E+02 -0.71232248576E+01  0.59212589217E+02  0.25000637511E+00 0.  0.
        -13    1    4    4    0    0  0.15448157302E+00 -0.14303649146E+00 -0.16375993028E+00  0.28664666238E+00  0.10500000000E+00 0. -1.
         13    1    4    4    0    0  0.39776126654E-01 -0.14108087968E+00 -0.38455421083E-01  0.18436315867E+00  0.10500000000E+00 0.  1.
    3000001    1    5    5    0    0  0.13462838231E+00 -0.21961138120E+01 -0.22284584477E+01  0.32874104899E+01  0.10000000000E+01 0. -1.
        -13    1    6    6    0    0  0.10689848652E+01 -0.13556659023E+02 -0.16413900904E+01  0.13697843587E+02  0.10500000000E+00 0. -1.
         13    1    6    6    0    0  0.35814765336E+01 -0.45041131849E+02 -0.54818347672E+01  0.45514745630E+02  0.10500000000E+00 0.  1.
</event>
<event>
11    0  0.3494755E-009  0.9118800E+02  0.7816531E-02  0.1126479E+00
         25   -1    0    0    0    0  0.00000000000E+00  0.00000000000E+00  0.99999998245E-14  0.12500000000E+03  0.12500000000E+03 0.  0.
    3000001    1    3    3    0    0  0.34342342957E+02 -0.19034401072E+02  0.31726784742E+02  0.50490531924E+02  0.10000000000E+01 0.  1.
    1000022    2    1    0    0    0  0.44754305973E+02 -0.24030957174E+02  0.35011643467E+02  0.62500000807E+02  0.10000005841E+02 0.  0.
    3000022    2    3    3    0    0  0.10411963016E+02 -0.49965561015E+01  0.32848587247E+01  0.12009468882E+02  0.24999854628E+00 0.  0.
    1000022    2    1    0    0    0 -0.44754305973E+02  0.24030957174E+02 -0.35011643467E+02  0.62499999193E+02  0.99999957567E+01 0.  0.
    3000022    2    5    5    0    0 -0.40898170191E+02  0.19370652084E+02 -0.33135688840E+02  0.56088491379E+02  0.25000622539E+00 0.  0.
        -13    1    4    4    0    0  0.59699189325E+01 -0.28157745722E+01  0.18272128142E+01  0.68496897864E+01  0.10500000000E+00 0.  1.
         13    1    4    4    0    0  0.44420440835E+01 -0.21807815294E+01  0.14576459105E+01  0.51597790959E+01  0.10500000000E+00 0. -1.
    3000001    1    5    5    0    0 -0.38561357817E+01  0.46603050890E+01 -0.18759546264E+01  0.64115078141E+01  0.10000000000E+01 0.  1.
        -13    1    6    6    0    0 -0.17522347207E+02  0.83205846801E+01 -0.14280864744E+02  0.24087733474E+02  0.10500000000E+00 0. -1.
         13    1    6    6    0    0 -0.23375822985E+02  0.11050067404E+02 -0.18854824096E+02  0.32000757906E+02  0.10500000000E+00 0.  1.
</event>
<event>
11    0  0.3494755E-009  0.9118800E+02  0.7816531E-02  0.1126479E+00
         25   -1    0    0    0    0  0.00000000000E+00  0.00000000000E+00  0.99999998245E-14  0.12500000000E+03  0.12500000000E+03 0.  0.
    3000001    1    3    3    0    0  0.42494795809E+01 -0.24020002918E+02  0.86589885686E+01  0.25903603995E+02  0.10000000000E+01 0. -1.
    1000022    2    1    0    0    0 -0.97739059926E+00 -0.56788261016E+02  0.24091250255E+02  0.62499998737E+02  0.99999810878E+01 0.  0.
    3000022    2    3    3    0    0 -0.52268701802E+01 -0.32768258098E+02  0.15432261686E+02  0.36596394743E+02  0.24999352145E+00 0.  0.
    1000022    2    1    0    0    0  0.97739059926E+00  0.56788261016E+02 -0.24091250255E+02  0.62500001263E+02  0.99999968698E+01 0.  0.
    3000022    2    5    5    0    0 -0.12143618616E+01  0.52409433545E+02 -0.20260482318E+02  0.56202962923E+02  0.24999653732E+00 0.  0.
        -13    1    4    4    0    0 -0.14318087539E+01 -0.92282512496E+01  0.43364641485E+01  0.10296923994E+02  0.10500000000E+00 0.  1.
         13    1    4    4    0    0 -0.37950614262E+01 -0.23540006848E+02  0.11095797538E+02  0.26299470748E+02  0.10500000000E+00 0. -1.
    3000001    1    5    5    0    0  0.21917524608E+01  0.43788274704E+01 -0.38307679370E+01  0.62970383397E+01  0.10000000000E+01 0. -1.
        -13    1    6    6    0    0 -0.29705597952E+00  0.14169068913E+02 -0.54967074022E+01  0.15201170132E+02  0.10500000000E+00 0. -1.
         13    1    6    6    0    0 -0.91730588205E+00  0.38240364632E+02 -0.14763774915E+02  0.41001792791E+02  0.10500000000E+00 0.  1.
</event>
<event>
11    0  0.3494755E-009  0.9118800E+02  0.7816531E-02  0.1126479E+00
         25   -1    0    0    0    0  0.00000000000E+00  0.00000000000E+00  0.99999998245E-14  0.12500000000E+03  0.12500000000E+03 0.  0.
    3000001    1    3    3    0    0  0.39399065350E+02 -0.16691663037E+02  0.21354737850E+02  0.47832235930E+02  0.10000000000E+01 0. -1.
    1000022    2    1    0    0    0  0.53634799191E+02 -0.19587776508E+02  0.23364015968E+02  0.62499999553E+02  0.10000001460E+02 0.  0.
    3000022    2    3    3    0    0  0.14235733841E+02 -0.28961134714E+01  0.20092781188E+01  0.14667763624E+02  0.24999987547E+00 0.  0.
    1000022    2    1    0    0    0 -0.53634799191E+02  0.19587776508E+02 -0.23364015968E+02  0.62500000447E+02  0.10000007046E+02 0.  0.
    3000022    2    5    5    0    0 -0.31627699127E+02  0.89394288739E+01 -0.88004826808E+01  0.34025516038E+02  0.25001109057E+00 0.  0.
        -13    1    4    4    0    0  0.99569357276E+01 -0.20688259153E+01  0.14241682746E+01  0.10269366583E+02  0.10500000000E+00 0. -1.
         13    1    4    4    0    0  0.42787981130E+01 -0.82728755606E+00  0.58510984424E+00  0.43983970401E+01  0.10500000000E+00 0.  1.
    3000001    1    5    5    0    0 -0.22007100063E+02  0.10648347634E+02 -0.14563533288E+02  0.28474484409E+02  0.10000000000E+01 0.  1.
        -13    1    6    6    0    0 -0.16023759029E+02  0.44709957001E+01 -0.44942261138E+01  0.17232520110E+02  0.10500000000E+00 0.  1.
         13    1    6    6    0    0 -0.15603940098E+02  0.44684331738E+01 -0.43062565670E+01  0.16792995928E+02  0.10500000000E+00 0. -1.
</event>
<event>
11    0  0.3494755E-009  0.9118800E+02  0.7816531E-02  0.1126479E+00
         25   -1    0    0    0    0  0.00000000000E+00  0.00000000000E+00  0.99999998245E-14  0.12500000000E+03  0.12500000000E+03 0.  0.
    3000001    1    3    3    0    0  0.58711834392E+01 -0.57112491108E+01  0.60876636806E+02  0.61433330287E+02  0.10000000000E+01 0.  1.
    1000022    2    1    0    0    0  0.52098081999E+01 -0.64675547490E+01  0.61133286471E+02  0.62499999573E+02  0.99999932996E+01 0.  0.
    3000022    2    3    3    0    0 -0.66137523936E+00 -0.75630563815E+00  0.25664966473E+00  0.10666692856E+01  0.24999777768E+00 0.  0.
    1000022    2    1    0    0    0 -0.52098081999E+01  0.64675547490E+01 -0.61133286471E+02  0.62500000427E+02  0.99999986375E+01 0.  0.
    3000022    2    5    5    0    0 -0.55261317986E+01  0.24270022773E+01 -0.53140595937E+02  0.53482837521E+02  0.25000021940E+00 0.  0.
        -13    1    4    4    0    0 -0.27983921603E+00 -0.34587615420E+00  0.48337258021E-01  0.45967574592E+00  0.10500000000E+00 0. -1.
         13    1    4    4    0    0 -0.38153602333E+00 -0.41042948395E+00  0.20831240670E+00  0.60699353965E+00  0.10500000000E+00 0.  1.
    3000001    1    5    5    0    0  0.31632359874E+00  0.40405524717E+01 -0.79926905343E+01  0.90171629059E+01  0.10000000000E+01 0.  1.
        -13    1    6    6    0    0 -0.24108637948E+01  0.10924935352E+01 -0.22790984578E+02  0.22944406930E+02  0.10500000000E+00 0.  1.
         13    1    6    6    0    0 -0.31152680038E+01  0.13345087421E+01 -0.30349611359E+02  0.30538430591E+02  0.10500000000E+00 0. -1.
</event>
<event>
11    0  0.3494755E-009  0.9118800E+02  0.7816531E-02  0.1126479E+00
         25   -1    0    0    0    0  0.00000000000E+00  0.00000000000E+00  0.99999998245E-14  0.12500000000E+03  0.12500000000E+03 0.  0.
    3000001    1    3    3    0    0 -0.14416745024E+01 -0.15848725505E+01 -0.18630125917E+01  0.30101598444E+01  0.10000000000E+01 0. -1.
    1000022    2    1    0    0    0 -0.29847145746E+02  0.36155259859E+01 -0.53873238074E+02  0.62499999303E+02  0.99999997532E+01 0.  0.
    3000022    2    3    3    0    0 -0.28405471243E+02  0.52003985364E+01 -0.52010225482E+02  0.59489839459E+02  0.25000535851E+00 0.  0.
    1000022    2    1    0    0    0  0.29847145746E+02 -0.36155259859E+01  0.53873238074E+02  0.62500000697E+02  0.10000008462E+02 0.  0.
    3000022    2    5    5    0    0  0.36971851524E+01 -0.11655178659E+01  0.20493977835E+01  0.43920545858E+01  0.25000452603E+00 0.  0.
        -13    1    4    4    0    0 -0.15177656712E+02  0.28470334167E+01 -0.27807506764E+02  0.31807787097E+02  0.10500000000E+00 0. -1.
         13    1    4    4    0    0 -0.13227814531E+02  0.23533651196E+01 -0.24202718718E+02  0.27682052362E+02  0.10500000000E+00 0.  1.
    3000001    1    5    5    0    0  0.26149960593E+02 -0.24500081200E+01  0.51823840290E+02  0.58107946111E+02  0.10000000000E+01 0.  1.
        -13    1    6    6    0    0  0.20143466449E+01 -0.61264789511E+00  0.10408827277E+01  0.23510405573E+01  0.10500000000E+00 0.  1.
         13    1    6    6    0    0  0.16828385075E+01 -0.55286997078E+00  0.10085150558E+01  0.20410140285E+01  0.10500000000E+00 0. -1.
</event>
<event>
11    0  0.3494755E-009  0.9118800E+02  0.7816531E-02  0.1126479E+00
         25   -1    0    0    0    0  0.00000000000E+00  0.00000000000E+00  0.99999998245E-14  0.12500000000E+03  0.12500000000E+03 0.  0.
    3000001    1    3    3    0    0 -0.10377069616E+02  0.74039529891E+01  0.11461530352E+01  0.12838059062E+02  0.10000000000E+01 0. -1.
    1000022    2    1    0    0    0 -0.43341774219E+02  0.42509688483E+02 -0.10984861346E+02  0.62500000489E+02  0.99999937466E+01 0.  0.
    3000022    2    3    3    0    0 -0.32964704603E+02  0.35105735494E+02 -0.12131014381E+02  0.49661941427E+02  0.25000459728E+00 0.  0.
    1000022    2    1    0    0    0  0.43341774219E+02 -0.42509688483E+02  0.10984861346E+02  0.62499999511E+02  0.99999876346E+01 0.  0.
    3000022    2    5    5    0    0 -0.75528563097E-01 -0.23519445240E+01  0.65003712741E+00  0.24540573300E+01  0.25000300877E+00 0.  0.
        -13    1    4    4    0    0 -0.79305619092E+01  0.84605136670E+01 -0.29390641814E+01  0.11963412012E+02  0.10500000000E+00 0.  1.
         13    1    4    4    0    0 -0.25034142694E+02  0.26645221827E+02 -0.91919501998E+01  0.37698529415E+02  0.10500000000E+00 0. -1.
    3000001    1    5    5    0    0  0.43417302783E+02 -0.40157743959E+02  0.10334824219E+02  0.60045942181E+02  0.10000000000E+01 0.  1.
        -13    1    6    6    0    0  0.10378565628E-01 -0.14929445467E+01  0.42114181159E+00  0.15547914843E+01  0.10500000000E+00 0. -1.
         13    1    6    6    0    0 -0.85907128725E-01 -0.85899997724E+00  0.22889531582E+00  0.89926584572E+00  0.10500000000E+00 0.  1.
</event>
<event>
11    0  0.3494755E-009  0.9118800E+02  0.7816531E-02  0.1126479E+00
         25   -1    0    0    0    0  0.00000000000E+00  0.00000000000E+00  0.99999998245E-14  0.12500000000E+03  0.12500000000E+03 0.  0.
    3000001    1    3    3    0    0 -0.34363398110E+01 -0.21259669711E+01  0.20219672644E+02  0.20643723712E+02  0.10000000000E+01 0. -1.
    1000022    2    1    0    0    0 -0.19983869627E+02 -0.15406726033E+02  0.56298559357E+02  0.62499999988E+02  0.99999980280E+01 0.  0.
    3000022    2    3    3    0    0 -0.16547529816E+02 -0.13280759062E+02  0.36078886713E+02  0.41856276276E+02  0.24998605335E+00 0.  0.
    1000022    2    1    0    0    0  0.19983869627E+02  0.15406726033E+02 -0.56298559357E+02  0.62500000012E+02  0.99999981718E+01 0.  0.
    3000022    2    5    5    0    0  0.65350019148E+00 -0.35274186741E+00  0.13292057057E+00  0.79476572917E+00  0.24999072161E+00 0.  0.
        -13    1    4    4    0    0 -0.93718693246E+01 -0.75957592780E+01  0.20450749953E+02  0.23743876943E+02  0.10500000000E+00 0. -1.
         13    1    4    4    0    0 -0.71756604910E+01 -0.56849997839E+01  0.15628136760E+02  0.18112399333E+02  0.10500000000E+00 0.  1.
    3000001    1    5    5    0    0  0.19330369435E+02  0.15759467900E+02 -0.56431479928E+02  0.61705234282E+02  0.10000000000E+01 0.  1.
        -13    1    6    6    0    0  0.43644397931E+00 -0.28956467305E+00  0.97263047327E-01  0.54296974808E+00  0.10500000000E+00 0. -1.
         13    1    6    6    0    0  0.21705621217E+00 -0.63177194363E-01  0.35657523246E-01  0.25179598109E+00  0.10500000000E+00 0.  1.
</event>
<event>
11    0  0.3494755E-009  0.9118800E+02  0.7816531E-02  0.1126479E+00
         25   -1    0    0    0    0  0.00000000000E+00  0.00000000000E+00  0.99999998245E-14  0.12500000000E+03  0.12500000000E+03 0.  0.
    3000001    1    3    3    0    0 -0.79180405422E+01  0.31115495472E+02  0.52985858000E+02  0.61962654660E+02  0.10000000000E+01 0.  1.
    1000022    2    1    0    0    0 -0.80938059407E+01  0.31261420282E+02  0.52568658375E+02  0.62500000834E+02  0.10000008411E+02 0.  0.
    3000022    2    3    3    0    0 -0.17576539855E+00  0.14592480922E+00 -0.41719962462E+00  0.53734617387E+00  0.24999571699E+00 0.  0.
    1000022    2    1    0    0    0  0.80938059407E+01 -0.31261420282E+02 -0.52568658375E+02  0.62499999166E+02  0.99999979888E+01 0.  0.
    3000022    2    5    5    0    0 -0.21635619232E+01 -0.82585332390E+01 -0.11755026588E+02  0.14530227982E+02  0.25000734509E+00 0.  0.
        -13    1    4    4    0    0 -0.14456394461E+00  0.34166591088E-01 -0.23464092359E+00  0.29689636753E+00  0.10500000000E+00 0.  1.
         13    1    4    4    0    0 -0.31201453941E-01  0.11175821813E+00 -0.18255870103E+00  0.24044980634E+00  0.10500000000E+00 0. -1.
    3000001    1    5    5    0    0  0.10257367864E+02 -0.23002887043E+02 -0.40813631787E+02  0.47969771184E+02  0.10000000000E+01 0.  1.
        -13    1    6    6    0    0 -0.71297462790E+00 -0.29443054589E+01 -0.41885915259E+01  0.51703569921E+01  0.10500000000E+00 0.  1.
         13    1    6    6    0    0 -0.14505872953E+01 -0.53142277802E+01 -0.75664350620E+01  0.93598709899E+01  0.10500000000E+00 0. -1.
</event>
<event>
11    0  0.3494755E-009  0.9118800E+02  0.7816531E-02  0.1126479E+00
         25   -1    0    0    0    0  0.00000000000E+00  0.00000000000E+00  0.99999998245E-14  0.12500000000E+03  0.12500000000E+03 0.  0.
    3000001    1    3    3    0    0  0.15799943189E+00 -0.67996427017E+01  0.36826452095E+02  0.37462617081E+02  0.10000000000E+01 0.  1.
    1000022    2    1    0    0    0  0.80291938933E+01 -0.92553205520E+01  0.60465867684E+02  0.62499999651E+02  0.99999944210E+01 0.  0.
    3000022    2    3    3    0    0  0.78711944614E+01 -0.24556778503E+01  0.23639415590E+02  0.25037382570E+02  0.25000111354E+00 0.  0.
    1000022    2    1    0    0    0 -0.80291938933E+01  0.92553205520E+01 -0.60465867684E+02  0.62500000349E+02  0.99999987865E+01 0.  0.
    3000022    2    5    5    0    0 -0.74904862317E+01  0.17358529541E+01 -0.22466657708E+02  0.23747290021E+02  0.25001067940E+00 0.  0.
        -13    1    4    4    0    0  0.43945163774E+01 -0.13190279010E+01  0.13018724595E+02  0.13803978553E+02  0.10500000000E+00 0.  1.
         13    1    4    4    0    0  0.34766780840E+01 -0.11366499492E+01  0.10620690994E+02  0.11233404017E+02  0.10500000000E+00 0. -1.
    3000001    1    5    5    0    0 -0.53870766159E+00  0.75194675979E+01 -0.37999209977E+02  0.38752710328E+02  0.10000000000E+01 0.  1.
        -13    1    6    6    0    0 -0.55796460569E+01  0.13225828252E+01 -0.16752498884E+02  0.17707030223E+02  0.10500000000E+00 0.  1.
         13    1    6    6    0    0 -0.19108401748E+01  0.41327012886E+00 -0.57141588237E+01  0.60402597987E+01  0.10500000000E+00 0. -1.
</event>
<event>
11    0  0.3494755E-009  0.9118800E+02  0.7816531E-02  0.1126479E+00
         25   -1    0    0    0    0  0.00000000000E+00  0.00000000000E+00  0.99999998245E-14  0.12500000000E+03  0.12500000000E+03 0.  0.
    3000001    1    3    3    0    0  0.23777484190E+02  0.33483175784E+02 -0.31304699708E+02  0.51647614067E+02  0.10000000000E+01 0. -1.
    1000022    2    1    0    0    0  0.25609402352E+02  0.43129769479E+02 -0.35919793084E+02  0.62500000101E+02  0.99999986643E+01 0.  0.
    3000022    2    3    3    0    0  0.18319181623E+01  0.96465936954E+01 -0.46150933752E+01  0.10852386034E+02  0.25000338704E+00 0.  0.
    1000022    2    1    0    0    0 -0.25609402352E+02 -0.43129769479E+02  0.35919793084E+02  0.62499999899E+02  0.99999974023E+01 0.  0.
    3000022    2    5    5    0    0 -0.20355793705E+02 -0.25869676013E+02  0.25509657497E+02  0.41646171636E+02  0.25002393388E+00 0.  0.
        -13    1    4    4    0    0  0.89056531707E+00  0.45859252722E+01 -0.21242650631E+01  0.51329664177E+01  0.10500000000E+00 0. -1.
         13    1    4    4    0    0  0.94135284523E+00  0.50606684231E+01 -0.24908283121E+01  0.57194196164E+01  0.10500000000E+00 0.  1.
    3000001    1    5    5    0    0 -0.52536086467E+01 -0.17260093466E+02  0.10410135587E+02  0.20853828263E+02  0.10000000000E+01 0. -1.
        -13    1    6    6    0    0 -0.11490247166E+02 -0.14495896012E+02  0.14336754600E+02  0.23403212142E+02  0.10500000000E+00 0.  1.
         13    1    6    6    0    0 -0.88655465395E+01 -0.11373780001E+02  0.11172902897E+02  0.18242959494E+02  0.10500000000E+00 0. -1.
</event>
<event>
11    0  0.3494755E-009  0.9118800E+02  0.7816531E-02  0.1126479E+00
         25   -1    0    0    0    0  0.00000000000E+00  0.00000000000E+00  0.99999998245E-14  0.12500000000E+03  0.12500000000E+03 0.  0.
    3000001    1    3    3    0    0  0.17004158353E+02 -0.93225318177E+01  0.11500094253E+02  0.22567746202E+02  0.10000000000E+01 0.  1.
    1000022    2    1    0    0    0  0.37015826947E+02 -0.31675879045E+02  0.37851249936E+02  0.62500000261E+02  0.10000007653E+02 0.  0.
    3000022    2    3    3    0    0  0.20011668593E+02 -0.22353347227E+02  0.26351155683E+02  0.39932254059E+02  0.24999250438E+00 0.  0.
    1000022    2    1    0    0    0 -0.37015826947E+02  0.31675879045E+02 -0.37851249936E+02  0.62499999739E+02  0.10000004394E+02 0.  0.
    3000022    2    5    5    0    0 -0.62337774211E+01  0.69440204982E+01 -0.29487961461E+01  0.97896527406E+01  0.25000091053E+00 0.  0.
        -13    1    4    4    0    0  0.13146868268E+02 -0.14656133124E+02  0.17361423000E+02  0.26250188895E+02  0.10500000000E+00 0. -1.
         13    1    4    4    0    0  0.68648003257E+01 -0.76972141030E+01  0.89897326825E+01  0.13682065164E+02  0.10500000000E+00 0.  1.
    3000001    1    5    5    0    0 -0.30782049526E+02  0.24731858547E+02 -0.34902453790E+02  0.52710346999E+02  0.10000000000E+01 0.  1.
        -13    1    6    6    0    0 -0.25179949047E+01  0.27678371142E+01 -0.11216720821E+01  0.39077351357E+01  0.10500000000E+00 0. -1.
         13    1    6    6    0    0 -0.37157825163E+01  0.41761833840E+01 -0.18271240641E+01  0.58819176049E+01  0.10500000000E+00 0.  1.
</event>
<event>
11    0  0.3494755E-009  0.9118800E+02  0.7816531E-02  0.1126479E+00
         25   -1    0    0    0    0  0.00000000000E+00  0.00000000000E+00  0.99999998245E-14  0.12500000000E+03  0.12500000000E+03 0.  0.
    3000001    1    3    3    0    0  0.45974871661E+02 -0.12223687460E+02  0.26212909937E+02  0.54325169183E+02  0.10000000000E+01 0. -1.
    1000022    2    1    0    0    0  0.53109398294E+02 -0.10252293084E+02  0.29673763090E+02  0.62500001077E+02  0.10000010905E+02 0.  0.
    3000022    2    3    3    0    0  0.71345266334E+01  0.19713943767E+01  0.34608531530E+01  0.81748318947E+01  0.25001177768E+00 0.  0.
    1000022    2    1    0    0    0 -0.53109398294E+02  0.10252293084E+02 -0.29673763090E+02  0.62499998923E+02  0.99999974375E+01 0.  0.
    3000022    2    5    5    0    0 -0.10522172337E+01  0.27242551130E+00  0.77999768978E+00  0.13609819010E+01  0.24999714529E+00 0.  0.
        -13    1    4    4    0    0  0.35579735716E+01  0.91893342290E+00  0.17486042735E+01  0.40709036438E+01  0.10500000000E+00 0.  1.
         13    1    4    4    0    0  0.35765530618E+01  0.10524609538E+01  0.17122488795E+01  0.41039282509E+01  0.10500000000E+00 0. -1.
    3000001    1    5    5    0    0 -0.52057181060E+02  0.99798675724E+01 -0.30453760780E+02  0.61139017022E+02  0.10000000000E+01 0. -1.
        -13    1    6    6    0    0 -0.77407653955E+00  0.17011267786E+00  0.59015852805E+00  0.99370262175E+00  0.10500000000E+00 0. -1.
         13    1    6    6    0    0 -0.27814069416E+00  0.10231283344E+00  0.18983916173E+00  0.36727927924E+00  0.10500000000E+00 0.  1.
</event>
<event>
11    0  0.3494755E-009  0.9118800E+02  0.7816531E-02  0.1126479E+00
         25   -1    0    0    0    0  0.00000000000E+00  0.00000000000E+00  0.99999998245E-14  0.12500000000E+03  0.12500000000E+03 0.  0.
    3000001    1    3    3    0    0  0.15827327804E+02  0.17929161168E+02  0.13564371538E+02  0.27512747969E+02  0.10000000000E+01 0. -1.
    1000022    2    1    0    0    0  0.26044697792E+02  0.43614671856E+02  0.35009771715E+02  0.62499999830E+02  0.99999989518E+01 0.  0.
    3000022    2    3    3    0    0  0.10217369989E+02  0.25685510688E+02  0.21445400177E+02  0.34987251861E+02  0.24999049586E+00 0.  0.
    1000022    2    1    0    0    0 -0.26044697792E+02 -0.43614671856E+02 -0.35009771715E+02  0.62500000170E+02  0.10000001073E+02 0.  0.
    3000022    2    5    5    0    0 -0.10103020651E+02 -0.86220746319E+01 -0.81632147316E+01  0.15592041864E+02  0.24999498434E+00 0.  0.
        -13    1    4    4    0    0  0.44815192663E+01  0.11132715657E+02  0.93653972703E+01  0.15223109533E+02  0.10500000000E+00 0. -1.
         13    1    4    4    0    0  0.57358507224E+01  0.14552795031E+02  0.12080002907E+02  0.19764142328E+02  0.10500000000E+00 0.  1.
    3000001    1    5    5    0    0 -0.15941677141E+02 -0.34992597224E+02 -0.26846556984E+02  0.46907958306E+02  0.10000000000E+01 0. -1.
        -13    1    6    6    0    0 -0.54802411362E+01 -0.47543861946E+01 -0.44957974844E+01  0.85358333523E+01  0.10500000000E+00 0.  1.
         13    1    6    6    0    0 -0.46227795147E+01 -0.38676884374E+01 -0.36674172473E+01  0.70562085114E+01  0.10500000000E+00 0. -1.
</event>
<event>
11    0  0.3494755E-009  0.9118800E+02  0.7816531E-02  0.1126479E+00
         25   -1    0    0    0    0  0.00000000000E+00  0.00000000000E+00  0.99999998245E-14  0.12500000000E+03  0.12500000000E+03 0.  0.
    3000001    1    3    3    0    0  0.63112917376E+01 -0.14648479224E+02  0.10346453533E+01  0.16015019138E+02  0.10000000000E+01 0.  1.
    1000022    2    1    0    0    0  0.27091985027E+02 -0.54073036537E+02 -0.12181180450E+02  0.62500000380E+02  0.99999978629E+01 0.  0.
    3000022    2    3    3    0    0  0.20780693290E+02 -0.39424557313E+02 -0.13215825803E+02  0.46484981242E+02  0.24999297128E+00 0.  0.
    1000022    2    1    0    0    0 -0.27091985027E+02  0.54073036537E+02  0.12181180450E+02  0.62499999620E+02  0.99999931158E+01 0.  0.
    3000022    2    5    5    0    0 -0.20960085846E+02  0.46309599640E+02  0.70767962639E+01  0.51322975063E+02  0.25001303935E+00 0.  0.
        -13    1    4    4    0    0  0.74778441953E+01 -0.14156850002E+02 -0.48065656966E+01  0.16716717817E+02  0.10500000000E+00 0.  1.
         13    1    4    4    0    0  0.13302849094E+02 -0.25267707312E+02 -0.84092601063E+01  0.29768263425E+02  0.10500000000E+00 0. -1.
    3000001    1    5    5    0    0 -0.61318991814E+01  0.77634368972E+01  0.51043841857E+01  0.11177024557E+02  0.10000000000E+01 0.  1.
        -13    1    6    6    0    0 -0.14130756233E+02  0.31243505163E+02  0.48254179956E+01  0.34628464742E+02  0.10500000000E+00 0.  1.
         13    1    6    6    0    0 -0.68293296131E+01  0.15066094477E+02  0.22513782683E+01  0.16694510321E+02  0.10500000000E+00 0. -1.
</event>
<event>
11    0  0.3494755E-009  0.9118800E+02  0.7816531E-02  0.1126479E+00
         25   -1    0    0    0    0  0.00000000000E+00  0.00000000000E+00  0.99999998245E-14  0.12500000000E+03  0.12500000000E+03 0.  0.
    3000001    1    3    3    0    0  0.35962387098E+01  0.72537615660E+01 -0.15565868305E+01  0.83049956217E+01  0.10000000000E+01 0.  1.
    1000022    2    1    0    0    0  0.57927821612E+01  0.56617886182E+02 -0.23814042930E+02  0.62499999552E+02  0.99999971220E+01 0.  0.
    3000022    2    3    3    0    0  0.21965434513E+01  0.49364124616E+02 -0.22257456099E+02  0.54195003930E+02  0.24999350458E+00 0.  0.
    1000022    2    1    0    0    0 -0.57927821612E+01 -0.56617886182E+02  0.23814042930E+02  0.62500000448E+02  0.10000002727E+02 0.  0.
    3000022    2    5    5    0    0 -0.33155237775E+01 -0.80611623080E+01  0.97684235092E+00  0.87744946553E+01  0.24999960557E+00 0.  0.
        -13    1    4    4    0    0  0.12588619500E+01  0.27361544785E+02 -0.12280591771E+02  0.30017708535E+02  0.10500000000E+00 0.  1.
         13    1    4    4    0    0  0.93768150132E+00  0.22002579830E+02 -0.99768643278E+01  0.24177295395E+02  0.10500000000E+00 0. -1.
    3000001    1    5    5    0    0 -0.24772583837E+01 -0.48556723874E+02  0.22837200579E+02  0.53725505793E+02  0.10000000000E+01 0. -1.
        -13    1    6    6    0    0 -0.21463034077E+01 -0.50779503323E+01  0.64336382129E+00  0.55513187534E+01  0.10500000000E+00 0.  1.
         13    1    6    6    0    0 -0.11692203698E+01 -0.29832119757E+01  0.33347852963E+00  0.32231759019E+01  0.10500000000E+00 0. -1.
</event>
<event>
11    0  0.3494755E-009  0.9118800E+02  0.7816531E-02  0.1126479E+00
         25   -1    0    0    0    0  0.00000000000E+00  0.00000000000E+00  0.99999998245E-14  0.12500000000E+03  0.12500000000E+03 0.  0.
    3000001    1    3    3    0    0 -0.34353035590E+02 -0.31663142875E+02  0.15013222752E+02  0.49082405487E+02  0.10000000000E+01 0.  1.
    1000022    2    1    0    0    0 -0.39732516817E+02 -0.43504712877E+02  0.18300737282E+02  0.62500000277E+02  0.10000005722E+02 0.  0.
    3000022    2    3    3    0    0 -0.53794812268E+01 -0.11841570002E+02  0.32875145293E+01  0.13417594790E+02  0.24999955941E+00 0.  0.
    1000022    2    1    0    0    0  0.39732516817E+02  0.43504712877E+02 -0.18300737282E+02  0.62499999723E+02  0.10000002257E+02 0.  0.
    3000022    2    5    5    0    0  0.37296761290E+02  0.42905960078E+02 -0.16307064614E+02  0.59143492520E+02  0.25007622373E+00 0.  0.
        -13    1    4    4    0    0 -0.31105900119E+01 -0.68370089333E+01  0.19654117150E+01  0.77649423427E+01  0.10500000000E+00 0. -1.
         13    1    4    4    0    0 -0.22688912149E+01 -0.50045610692E+01  0.13221028144E+01  0.56526524474E+01  0.10500000000E+00 0.  1.
    3000001    1    5    5    0    0  0.24357555266E+01  0.59875279937E+00 -0.19936726676E+01  0.33565072032E+01  0.10000000000E+01 0. -1.
        -13    1    6    6    0    0  0.15756451529E+02  0.18093724076E+02 -0.69460607244E+01  0.24978138448E+02  0.10500000000E+00 0.  1.
         13    1    6    6    0    0  0.21540309761E+02  0.24812236002E+02 -0.93610038899E+01  0.34165354072E+02  0.10500000000E+00 0. -1.
</event>
<event>
11    0  0.3494755E-009  0.9118800E+02  0.7816531E-02  0.1126479E+00
         25   -1    0    0    0    0  0.00000000000E+00  0.00000000000E+00  0.99999998245E-14  0.12500000000E+03  0.12500000000E+03 0.  0.
    3000001    1    3    3    0    0  0.13645842973E+02  0.21858481040E+02  0.89701064300E+01  0.27303205548E+02  0.10000000000E+01 0.  1.
    1000022    2    1    0    0    0  0.25729613265E+02  0.47408057370E+02  0.29945171828E+02  0.62499998386E+02  0.99999790040E+01 0.  0.
    3000022    2    3    3    0    0  0.12083770292E+02  0.25549576330E+02  0.20975065398E+02  0.35196792838E+02  0.25000507669E+00 0.  0.
    1000022    2    1    0    0    0 -0.25729613265E+02 -0.47408057370E+02 -0.29945171828E+02  0.62500001614E+02  0.99999991805E+01 0.  0.
    3000022    2    5    5    0    0 -0.24639531742E+02 -0.47303063788E+02 -0.28724599930E+02  0.60579299363E+02  0.25000400304E+00 0.  0.
        -13    1    4    4    0    0  0.65542805564E+01  0.13847612702E+02  0.11453044622E+02  0.19128466412E+02  0.10500000000E+00 0.  1.
         13    1    4    4    0    0  0.55294897359E+01  0.11701963628E+02  0.95220207759E+01  0.16068326427E+02  0.10500000000E+00 0. -1.
    3000001    1    5    5    0    0 -0.10900815233E+01 -0.10499358199E+00 -0.12205718976E+01  0.19207022510E+01  0.10000000000E+01 0.  1.
        -13    1    6    6    0    0 -0.14177834396E+02 -0.27084906035E+02 -0.16440457290E+02  0.34711709609E+02  0.10500000000E+00 0. -1.
         13    1    6    6    0    0 -0.10461697346E+02 -0.20218157753E+02 -0.12284142640E+02  0.25867589755E+02  0.10500000000E+00 0.  1.
</event>
<event>
11    0  0.3494755E-009  0.9118800E+02  0.7816531E-02  0.1126479E+00
         25   -1    0    0    0    0  0.00000000000E+00  0.00000000000E+00  0.99999998245E-14  0.12500000000E+03  0.12500000000E+03 0.  0.
    3000001    1    3    3    0    0  0.19751543836E+02  0.25693860462E+02  0.16562420113E+02  0.36408950951E+02  0.10000000000E+01 0. -1.
    1000022    2    1    0    0    0  0.39761835815E+02  0.41029450507E+02  0.23277231751E+02  0.62500008657E+02  0.10000108391E+02 0.  0.
    3000022    2    3    3    0    0  0.20010291979E+02  0.15335590045E+02  0.67148116385E+01  0.26091057706E+02  0.24997953845E+00 0.  0.
    1000022    2    1    0    0    0 -0.39761835815E+02 -0.41029450507E+02 -0.23277231751E+02  0.62499991343E+02  0.10000000174E+02 0.  0.
    3000022    2    5    5    0    0 -0.28624570222E+02 -0.32445764485E+02 -0.13431079717E+02  0.45305077545E+02  0.24999115740E+00 0.  0.
        -13    1    4    4    0    0  0.13223483263E+02  0.10135276181E+02  0.43809389601E+01  0.17227535635E+02  0.10500000000E+00 0.  1.
         13    1    4    4    0    0  0.67868087158E+01  0.52003138640E+01  0.23338726784E+01  0.88635220713E+01  0.10500000000E+00 0. -1.
    3000001    1    5    5    0    0 -0.11137265593E+02 -0.85836860222E+01 -0.98461520343E+01  0.17194913798E+02  0.10000000000E+01 0.  1.
        -13    1    6    6    0    0 -0.13386088368E+02 -0.15154289644E+02 -0.62073208705E+01  0.21151399807E+02  0.10500000000E+00 0. -1.
         13    1    6    6    0    0 -0.15238481854E+02 -0.17291474841E+02 -0.72237588468E+01  0.24153677738E+02  0.10500000000E+00 0.  1.
</event>
<event>
11    0  0.3494755E-009  0.9118800E+02  0.7816531E-02  0.1126479E+00
         25   -1    0    0    0    0  0.00000000000E+00  0.00000000000E+00  0.99999998245E-14  0.12500000000E+03  0.12500000000E+03 0.  0.
    3000001    1    3    3    0    0  0.29260858596E+00 -0.32455669988E+00  0.49264098990E+00  0.11973520706E+01  0.10000000000E+01 0. -1.
    1000022    2    1    0    0    0 -0.23204423160E+02 -0.10781852434E+02  0.56138724956E+02  0.62500000419E+02  0.10000000831E+02 0.  0.
    3000022    2    3    3    0    0 -0.23497031746E+02 -0.10457295734E+02  0.55646083966E+02  0.61302648349E+02  0.24999771089E+00 0.  0.
    1000022    2    1    0    0    0  0.23204423160E+02  0.10781852434E+02 -0.56138724956E+02  0.62499999581E+02  0.99999955894E+01 0.  0.
    3000022    2    5    5    0    0  0.22555509241E+02  0.81464966239E+01 -0.53300624979E+02  0.58447716150E+02  0.24999138026E+00 0.  0.
        -13    1    4    4    0    0 -0.97547278206E+01 -0.42997975051E+01  0.22941305273E+02  0.25297381012E+02  0.10500000000E+00 0. -1.
         13    1    4    4    0    0 -0.13742303925E+02 -0.61574982286E+01  0.32704778693E+02  0.36005267337E+02  0.10500000000E+00 0.  1.
    3000001    1    5    5    0    0  0.64891391845E+00  0.26353558097E+01 -0.28380999777E+01  0.40522834305E+01  0.10000000000E+01 0.  1.
        -13    1    6    6    0    0  0.11649921327E+02  0.41502879358E+01 -0.27585992168E+02  0.30231499231E+02  0.10500000000E+00 0. -1.
         13    1    6    6    0    0  0.10905587914E+02  0.39962086881E+01 -0.25714632811E+02  0.28216216919E+02  0.10500000000E+00 0.  1.
</event>
<event>
11    0  0.3494755E-009  0.9118800E+02  0.7816531E-02  0.1126479E+00
         25   -1    0    0    0    0  0.00000000000E+00  0.00000000000E+00  0.99999998245E-14  0.12500000000E+03  0.12500000000E+03 0.  0.
    3000001    1    3    3    0    0 -0.68186207376E+01  0.44264112418E+02  0.13554026110E+02  0.46802957820E+02  0.10000000000E+01 0.  1.
    1000022    2    1    0    0    0 -0.34852973611E+01  0.59228561719E+02  0.16913911175E+02  0.62499999060E+02  0.99999835123E+01 0.  0.
    3000022    2    3    3    0    0  0.33333233766E+01  0.14964449301E+02  0.33598850647E+01  0.15697041239E+02  0.24997683289E+00 0.  0.
    1000022    2    1    0    0    0  0.34852973611E+01 -0.59228561719E+02 -0.16913911175E+02  0.62500000940E+02  0.99999952661E+01 0.  0.
    3000022    2    5    5    0    0 -0.19623600879E+01 -0.17609966011E+02 -0.15372032884E+01  0.17787277630E+02  0.24998304115E+00 0.  0.
        -13    1    4    4    0    0  0.78893023202E+00  0.34869523357E+01  0.78087878367E+00  0.36608802463E+01  0.10500000000E+00 0.  1.
         13    1    4    4    0    0  0.25443931445E+01  0.11477496965E+02  0.25790062810E+01  0.12036160993E+02  0.10500000000E+00 0. -1.
    3000001    1    5    5    0    0  0.54476574489E+01 -0.41618595708E+02 -0.15376707886E+02  0.44712723310E+02  0.10000000000E+01 0.  1.
        -13    1    6    6    0    0 -0.13580203328E+01 -0.12461093613E+02 -0.10558702577E+01  0.12579704300E+02  0.10500000000E+00 0. -1.
         13    1    6    6    0    0 -0.60433975508E+00 -0.51488723977E+01 -0.48133303062E+00  0.52075733306E+01  0.10500000000E+00 0.  1.
</event>
<event>
11    0  0.3494755E-009  0.9118800E+02  0.7816531E-02  0.1126479E+00
         25   -1    0    0    0    0  0.00000000000E+00  0.00000000000E+00  0.99999998245E-14  0.12500000000E+03  0.12500000000E+03 0.  0.
    3000001    1    3    3    0    0 -0.22553955795E+01  0.42272071596E+01 -0.14656008114E+01  0.51092147467E+01  0.10000000000E+01 0. -1.
    1000022    2    1    0    0    0 -0.43245068387E+02  0.43279811404E+02  0.79354853191E+01  0.62499998826E+02  0.99999955531E+01 0.  0.
    3000022    2    3    3    0    0 -0.40989672807E+02  0.39052604245E+02  0.94010861305E+01  0.57390784079E+02  0.25000336686E+00 0.  0.
    1000022    2    1    0    0    0  0.43245068387E+02 -0.43279811404E+02 -0.79354853191E+01  0.62500001174E+02  0.10000010226E+02 0.  0.
    3000022    2    5    5    0    0  0.26045839225E+02 -0.19498676984E+02 -0.24760105129E+01  0.32630925138E+02  0.25000449523E+00 0.  0.
        -13    1    4    4    0    0 -0.16990951203E+02  0.16127162641E+02  0.38424669962E+01  0.23739279164E+02  0.10500000000E+00 0.  1.
         13    1    4    4    0    0 -0.23998721604E+02  0.22925441604E+02  0.55586191344E+01  0.33651504915E+02  0.10500000000E+00 0. -1.
    3000001    1    5    5    0    0  0.17199229162E+02 -0.23781134420E+02 -0.54594748063E+01  0.29869076036E+02  0.10000000000E+01 0.  1.
        -13    1    6    6    0    0  0.16579924135E+02 -0.12361864281E+02 -0.15309756112E+01  0.20737996146E+02  0.10500000000E+00 0.  1.
         13    1    6    6    0    0  0.94659150897E+01 -0.71368127026E+01 -0.94503490170E+00  0.11892928992E+02  0.10500000000E+00 0. -1.
</event>
<event>
11    0  0.3494755E-009  0.9118800E+02  0.7816531E-02  0.1126479E+00
         25   -1    0    0    0    0  0.00000000000E+00  0.00000000000E+00  0.99999998245E-14  0.12500000000E+03  0.12500000000E+03 0.  0.
    3000001    1    3    3    0    0  0.52354707900E+02  0.10210325604E+02  0.15416250654E+02  0.55533115998E+02  0.10000000000E+01 0.  1.
    1000022    2    1    0    0    0  0.59191342114E+02  0.10190774448E+02  0.14099046886E+02  0.62500000332E+02  0.10000002663E+02 0.  0.
    3000022    2    3    3    0    0  0.68366342138E+01 -0.19551155973E-01 -0.13172037676E+01  0.69668843334E+01  0.25000385781E+00 0.  0.
    1000022    2    1    0    0    0 -0.59191342114E+02 -0.10190774448E+02 -0.14099046886E+02  0.62499999668E+02  0.99999985166E+01 0.  0.
    3000022    2    5    5    0    0 -0.23657593213E+02 -0.19598285698E+01 -0.10079009831E+02  0.25790920697E+02  0.25001311785E+00 0.  0.
        -13    1    4    4    0    0  0.35720001187E+01  0.49776232046E-01 -0.65642097205E+00  0.36336725243E+01  0.10500000000E+00 0. -1.
         13    1    4    4    0    0  0.32646340951E+01 -0.69327388019E-01 -0.66078279553E+00  0.33332118091E+01  0.10500000000E+00 0.  1.
    3000001    1    5    5    0    0 -0.35533748901E+02 -0.82309458782E+01 -0.40200370549E+01  0.36709078971E+02  0.10000000000E+01 0.  1.
        -13    1    6    6    0    0 -0.70599444738E+01 -0.59745359135E+00 -0.29610407407E+01  0.76797496076E+01  0.10500000000E+00 0. -1.
         13    1    6    6    0    0 -0.16597648739E+02 -0.13623749784E+01 -0.71179690905E+01  0.18111171089E+02  0.10500000000E+00 0.  1.
</event>
<event>
11    0  0.3494755E-009  0.9118800E+02  0.7816531E-02  0.1126479E+00
         25   -1    0    0    0    0  0.00000000000E+00  0.00000000000E+00  0.99999998245E-14  0.12500000000E+03  0.12500000000E+03 0.  0.
    3000001    1    3    3    0    0 -0.33309062610E+02 -0.60854956603E+01  0.15043165153E+02  0.37065128183E+02  0.10000000000E+01 0.  1.
    1000022    2    1    0    0    0 -0.55084335475E+02 -0.24603959823E+01  0.27675122712E+02  0.62500000229E+02  0.10000002418E+02 0.  0.
    3000022    2    3    3    0    0 -0.21775272865E+02  0.36250996780E+01  0.12631957559E+02  0.25434872046E+02  0.25001639862E+00 0.  0.
    1000022    2    1    0    0    0  0.55084335475E+02  0.24603959823E+01 -0.27675122712E+02  0.62499999771E+02  0.99999995575E+01 0.  0.
    3000022    2    5    5    0    0  0.51792017945E+02  0.45768689152E+01 -0.25885271836E+02  0.58081586192E+02  0.25000943240E+00 0.  0.
        -13    1    4    4    0    0 -0.15028401874E+02  0.24701902296E+01  0.86721361765E+01  0.17526313746E+02  0.10500000000E+00 0.  1.
         13    1    4    4    0    0 -0.67468709911E+01  0.11549094484E+01  0.39598213826E+01  0.79085583001E+01  0.10500000000E+00 0. -1.
    3000001    1    5    5    0    0  0.32923175299E+01 -0.21164729330E+01 -0.17898508764E+01  0.44184135788E+01  0.10000000000E+01 0.  1.
        -13    1    6    6    0    0  0.32572602703E+02  0.28568037689E+01 -0.16216343973E+02  0.36498172714E+02  0.10500000000E+00 0. -1.
         13    1    6    6    0    0  0.19219415242E+02  0.17200651463E+01 -0.96689278627E+01  0.21583413478E+02  0.10500000000E+00 0.  1.
</event>
<event>
11    0  0.3494755E-009  0.9118800E+02  0.7816531E-02  0.1126479E+00
         25   -1    0    0    0    0  0.00000000000E+00  0.00000000000E+00  0.99999998245E-14  0.12500000000E+03  0.12500000000E+03 0.  0.
    3000001    1    3    3    0    0  0.43530270117E+01  0.32515957126E+02 -0.25561245461E+02  0.41600644003E+02  0.10000000000E+01 0.  1.
    1000022    2    1    0    0    0  0.12893397680E+02  0.48856139939E+02 -0.35398978702E+02  0.62499998404E+02  0.99999996936E+01 0.  0.
    3000022    2    3    3    0    0  0.85403706680E+01  0.16340182814E+02 -0.98377332419E+01  0.20899354401E+02  0.25002705422E+00 0.  0.
    1000022    2    1    0    0    0 -0.12893397680E+02 -0.48856139939E+02  0.35398978702E+02  0.62500001596E+02  0.10000019640E+02 0.  0.
    3000022    2    5    5    0    0 -0.88479547961E+01 -0.15855163806E+02  0.10780309862E+02  0.21117530797E+02  0.25000576091E+00 0.  0.
        -13    1    4    4    0    0  0.55947839562E+01  0.10582082257E+02 -0.63865526599E+01  0.13567650949E+02  0.10500000000E+00 0.  1.
         13    1    4    4    0    0  0.29455867118E+01  0.57581005568E+01 -0.34511805820E+01  0.73317034520E+01  0.10500000000E+00 0. -1.
    3000001    1    5    5    0    0 -0.40454428836E+01 -0.33000976134E+02  0.24618668841E+02  0.41382470799E+02  0.10000000000E+01 0.  1.
        -13    1    6    6    0    0 -0.50676616006E+01 -0.90661634490E+01  0.62421404390E+01  0.12118244759E+02  0.10500000000E+00 0.  1.
         13    1    6    6    0    0 -0.37802931955E+01 -0.67890003566E+01  0.45381694227E+01  0.89992860380E+01  0.10500000000E+00 0. -1.
</event>
<event>
11    0  0.3494755E-009  0.9118800E+02  0.7816531E-02  0.1126479E+00
         25   -1    0    0    0    0  0.00000000000E+00  0.00000000000E+00  0.99999998245E-14  0.12500000000E+03  0.12500000000E+03 0.  0.
    3000001    1    3    3    0    0  0.59042145092E+01 -0.12603841915E+02 -0.21898495666E+02  0.25966530234E+02  0.10000000000E+01 0.  1.
    1000022    2    1    0    0    0  0.25531440733E+01 -0.31402863031E+02 -0.53043301614E+02  0.62499998238E+02  0.99999791209E+01 0.  0.
    3000022    2    3    3    0    0 -0.33510704360E+01 -0.18799021117E+02 -0.31144805948E+02  0.36533468004E+02  0.24995763961E+00 0.  0.
    1000022    2    1    0    0    0 -0.25531440733E+01  0.31402863031E+02  0.53043301614E+02  0.62500001762E+02  0.10000001147E+02 0.  0.
    3000022    2    5    5    0    0 -0.21716014498E+00  0.20482616135E+02  0.42165791529E+02  0.46878579329E+02  0.25000475317E+00 0.  0.
        -13    1    4    4    0    0 -0.97242696564E+00 -0.55563086575E+01 -0.91231532685E+01  0.10726655148E+02  0.10500000000E+00 0.  1.
         13    1    4    4    0    0 -0.23786434703E+01 -0.13242712459E+02 -0.22021652680E+02  0.25806812856E+02  0.10500000000E+00 0. -1.
    3000001    1    5    5    0    0 -0.23359839283E+01  0.10920246896E+02  0.10877510085E+02  0.15621422433E+02  0.10000000000E+01 0. -1.
        -13    1    6    6    0    0 -0.11887973442E+00  0.14827082661E+02  0.30519431922E+02  0.33930860031E+02  0.10500000000E+00 0. -1.
         13    1    6    6    0    0 -0.98280410567E-01  0.56555334741E+01  0.11646359607E+02  0.12947719298E+02  0.10500000000E+00 0.  1.
</event>
<event>
11    0  0.3494755E-009  0.9118800E+02  0.7816531E-02  0.1126479E+00
         25   -1    0    0    0    0  0.00000000000E+00  0.00000000000E+00  0.99999998245E-14  0.12500000000E+03  0.12500000000E+03 0.  0.
    3000001    1    3    3    0    0  0.45810064598E+02 -0.23481820298E+02  0.31846921288E+02  0.60540765592E+02  0.10000000000E+01 0. -1.
    1000022    2    1    0    0    0  0.47610181020E+02 -0.22758972893E+02  0.31961693415E+02  0.62500000309E+02  0.10000000441E+02 0.  0.
    3000022    2    3    3    0    0  0.18001164218E+01  0.72284740549E+00  0.11477212731E+00  0.19592347169E+01  0.25000106238E+00 0.  0.
    1000022    2    1    0    0    0 -0.47610181020E+02  0.22758972893E+02 -0.31961693415E+02  0.62499999691E+02  0.99999965738E+01 0.  0.
    3000022    2    5    5    0    0 -0.36681442567E+02  0.21494670706E+02 -0.23450129482E+02  0.48554301257E+02  0.25000070147E+00 0.  0.
        -13    1    4    4    0    0  0.87262728955E+00  0.40891821590E+00  0.97638712234E-01  0.97429503329E+00  0.10500000000E+00 0.  1.
         13    1    4    4    0    0  0.92748913222E+00  0.31392918959E+00  0.17133415079E-01  0.98493968363E+00  0.10500000000E+00 0. -1.
    3000001    1    5    5    0    0 -0.10928738453E+02  0.12643021868E+01 -0.85115639332E+01  0.13945698433E+02  0.10000000000E+01 0. -1.
        -13    1    6    6    0    0 -0.22028731084E+02  0.12906064889E+02 -0.14010126464E+02  0.29122605869E+02  0.10500000000E+00 0. -1.
         13    1    6    6    0    0 -0.14652711483E+02  0.85886058170E+01 -0.94400030183E+01  0.19431695388E+02  0.10500000000E+00 0.  1.
</event>
<event>
11    0  0.3494755E-009  0.9118800E+02  0.7816531E-02  0.1126479E+00
         25   -1    0    0    0    0  0.00000000000E+00  0.00000000000E+00  0.99999998245E-14  0.12500000000E+03  0.12500000000E+03 0.  0.
    3000001    1    3    3    0    0  0.80623935043E+01  0.83276485416E+01 -0.60065766167E+02  0.61182090390E+02  0.10000000000E+01 0.  1.
    1000022    2    1    0    0    0  0.69697525046E+01  0.82057557736E+01 -0.60748155368E+02  0.62499997586E+02  0.99999719978E+01 0.  0.
    3000022    2    3    3    0    0 -0.10926409997E+01 -0.12189276796E+00 -0.68238920063E+00  0.13179071966E+01  0.25000431346E+00 0.  0.
    1000022    2    1    0    0    0 -0.69697525046E+01 -0.82057557736E+01  0.60748155368E+02  0.62500002414E+02  0.10000002167E+02 0.  0.
    3000022    2    5    5    0    0 -0.91203273800E+01 -0.69291831195E+01  0.41057523130E+02  0.42626009157E+02  0.25000177487E+00 0.  0.
        -13    1    4    4    0    0 -0.63253215369E+00 -0.89655324459E-01 -0.32108920925E+00  0.72267439622E+00  0.10500000000E+00 0. -1.
         13    1    4    4    0    0 -0.46010884600E+00 -0.32237443501E-01 -0.36129999138E+00  0.59523280042E+00  0.10500000000E+00 0.  1.
    3000001    1    5    5    0    0  0.21505748754E+01 -0.12765726542E+01  0.19690632238E+02  0.19873993257E+02  0.10000000000E+01 0.  1.
        -13    1    6    6    0    0 -0.33921625547E+01 -0.25256509967E+01  0.15321361218E+02  0.15894678806E+02  0.10500000000E+00 0.  1.
         13    1    6    6    0    0 -0.57281648253E+01 -0.44035321227E+01  0.25736161911E+02  0.26731330351E+02  0.10500000000E+00 0. -1.
</event>
<event>
11    0  0.3494755E-009  0.9118800E+02  0.7816531E-02  0.1126479E+00
         25   -1    0    0    0    0  0.00000000000E+00  0.00000000000E+00  0.99999998245E-14  0.12500000000E+03  0.12500000000E+03 0.  0.
    3000001    1    3    3    0    0  0.60696096524E+01 -0.19552499201E+02 -0.26714599948E+01  0.20670681770E+02  0.10000000000E+01 0.  1.
    1000022    2    1    0    0    0  0.60476398465E+01 -0.61371696702E+02 -0.17863017243E+01  0.62499998876E+02  0.99999940912E+01 0.  0.
    3000022    2    3    3    0    0 -0.21969805867E-01 -0.41819197501E+02  0.88515827053E+00  0.41829317106E+02  0.25000412133E+00 0.  0.
    1000022    2    1    0    0    0 -0.60476398465E+01  0.61371696702E+02  0.17863017243E+01  0.62500001124E+02  0.10000008143E+02 0.  0.
    3000022    2    5    5    0    0  0.16919146705E+01  0.33028203945E+02  0.12902348199E+01  0.33097614007E+02  0.25003199271E+00 0.  0.
        -13    1    4    4    0    0 -0.29275242089E-01 -0.31636455418E+02  0.68773896363E+00  0.31644117594E+02  0.10500000000E+00 0. -1.
         13    1    4    4    0    0  0.73054362216E-02 -0.10182742083E+02  0.19741930690E+00  0.10185199512E+02  0.10500000000E+00 0.  1.
    3000001    1    5    5    0    0 -0.77395545170E+01  0.28343492757E+02  0.49606690433E+00  0.29402387117E+02  0.10000000000E+01 0. -1.
        -13    1    6    6    0    0  0.64125878886E+00  0.13747674748E+02  0.55135262429E+00  0.13774062165E+02  0.10500000000E+00 0.  1.
         13    1    6    6    0    0  0.10506558817E+01  0.19280529197E+02  0.73888219565E+00  0.19323551842E+02  0.10500000000E+00 0. -1.
</event>
<event>
11    0  0.3494755E-009  0.9118800E+02  0.7816531E-02  0.1126479E+00
         25   -1    0    0    0    0  0.00000000000E+00  0.00000000000E+00  0.99999998245E-14  0.12500000000E+03  0.12500000000E+03 0.  0.
    3000001    1    3    3    0    0  0.68122270343E+01 -0.11424169151E+02  0.25517667811E+01  0.13580485693E+02  0.10000000000E+01 0. -1.
    1000022    2    1    0    0    0  0.32278757560E+02 -0.44309790002E+02  0.28301482044E+02  0.62499996872E+02  0.10000002169E+02 0.  0.
    3000022    2    3    3    0    0  0.25466530525E+02 -0.32885620852E+02  0.25749715263E+02  0.48919511179E+02  0.25000404128E+00 0.  0.
    1000022    2    1    0    0    0 -0.32278757560E+02  0.44309790002E+02 -0.28301482044E+02  0.62500003128E+02  0.10000041276E+02 0.  0.
    3000022    2    5    5    0    0 -0.83662800312E+01  0.19660019274E+02 -0.10937122467E+02  0.24004045393E+02  0.25009580654E+00 0.  0.
        -13    1    4    4    0    0  0.12304857518E+02 -0.15931532084E+02  0.12388542548E+02  0.23637052365E+02  0.10500000000E+00 0.  1.
         13    1    4    4    0    0  0.13161673008E+02 -0.16954088768E+02  0.13361172716E+02  0.25282458814E+02  0.10500000000E+00 0. -1.
    3000001    1    5    5    0    0 -0.23912477528E+02  0.24649770728E+02 -0.17364359577E+02  0.38495957736E+02  0.10000000000E+01 0. -1.
        -13    1    6    6    0    0 -0.32732225462E+01  0.75362943729E+01 -0.42154642640E+01  0.92353063118E+01  0.10500000000E+00 0.  1.
         13    1    6    6    0    0 -0.50930574850E+01  0.12123724901E+02 -0.67216582034E+01  0.14768739081E+02  0.10500000000E+00 0. -1.
</event>
<event>
11    0  0.3494755E-009  0.9118800E+02  0.7816531E-02  0.1126479E+00
         25   -1    0    0    0    0  0.00000000000E+00  0.00000000000E+00  0.99999998245E-14  0.12500000000E+03  0.12500000000E+03 0.  0.
    3000001    1    3    3    0    0  0.22770402308E+02  0.17620595691E+02 -0.16407782450E+02  0.33154063683E+02  0.10000000000E+01 0.  1.
    1000022    2    1    0    0    0  0.46261513969E+02  0.24669037167E+02 -0.32520160938E+02  0.62500001991E+02  0.10000015598E+02 0.  0.
    3000022    2    3    3    0    0  0.23491111662E+02  0.70484414753E+01 -0.16112378488E+02  0.29345938308E+02  0.25000059280E+00 0.  0.
    1000022    2    1    0    0    0 -0.46261513969E+02 -0.24669037167E+02  0.32520160938E+02  0.62499998009E+02  0.99999907153E+01 0.  0.
    3000022    2    5    5    0    0 -0.13561925976E+02 -0.25213147807E+01  0.98375405278E+01  0.16944691727E+02  0.25001937652E+00 0.  0.
        -13    1    4    4    0    0  0.57767631638E+01  0.17407626848E+01 -0.39368636411E+01  0.72049405066E+01  0.10500000000E+00 0.  1.
         13    1    4    4    0    0  0.17714348498E+02  0.53076787905E+01 -0.12175514847E+02  0.22140997801E+02  0.10500000000E+00 0. -1.
    3000001    1    5    5    0    0 -0.32699587993E+02 -0.22147722386E+02  0.22682620410E+02  0.45555306282E+02  0.10000000000E+01 0.  1.
        -13    1    6    6    0    0 -0.58184502418E+01 -0.10711244067E+01  0.41400461346E+01  0.72216810860E+01  0.10500000000E+00 0.  1.
         13    1    6    6    0    0 -0.77434757344E+01 -0.14501903740E+01  0.56974943931E+01  0.97230106413E+01  0.10500000000E+00 0. -1.
</event>
<event>
11    0  0.3494755E-009  0.9118800E+02  0.7816531E-02  0.1126479E+00
         25   -1    0    0    0    0  0.00000000000E+00  0.00000000000E+00  0.99999998245E-14  0.12500000000E+03  0.12500000000E+03 0.  0.
    3000001    1    3    3    0    0 -0.15805584641E+02  0.55028020917E+00 -0.14461859272E+02  0.21453780267E+02  0.10000000000E+01 0. -1.
    1000022    2    1    0    0    0 -0.45983107519E+02 -0.11746368973E+02 -0.39418603926E+02  0.62499998904E+02  0.10000008318E+02 0.  0.
    3000022    2    3    3    0    0 -0.30177522877E+02 -0.12296649182E+02 -0.24956744654E+02  0.41046218636E+02  0.24998497428E+00 0.  0.
    1000022    2    1    0    0    0  0.45983107519E+02  0.11746368973E+02  0.39418603926E+02  0.62500001096E+02  0.10000022023E+02 0.  0.
    3000022    2    5    5    0    0  0.18756435735E+02  0.66339957058E+01  0.22451349474E+02  0.29998989720E+02  0.25002103449E+00 0.  0.
        -13    1    4    4    0    0 -0.17217495269E+02 -0.70636365809E+01 -0.14313165415E+02  0.23477964867E+02  0.10500000000E+00 0. -1.
         13    1    4    4    0    0 -0.12960027608E+02 -0.52330126014E+01 -0.10643579239E+02  0.17568253769E+02  0.10500000000E+00 0.  1.
    3000001    1    5    5    0    0  0.27226671784E+02  0.51123732673E+01  0.16967254452E+02  0.32501011376E+02  0.10000000000E+01 0. -1.
        -13    1    6    6    0    0  0.50207548962E+01  0.17902596365E+01  0.59672107858E+01  0.80019771842E+01  0.10500000000E+00 0. -1.
         13    1    6    6    0    0  0.13735680839E+02  0.48437360693E+01  0.16484138688E+02  0.21997012536E+02  0.10500000000E+00 0.  1.
</event>
<event>
11    0  0.3494755E-009  0.9118800E+02  0.7816531E-02  0.1126479E+00
         25   -1    0    0    0    0  0.00000000000E+00  0.00000000000E+00  0.99999998245E-14  0.12500000000E+03  0.12500000000E+03 0.  0.
    3000001    1    3    3    0    0  0.46719314872E+01  0.49246949694E+00  0.88551825577E+01  0.10073913249E+02  0.10000000000E+01 0. -1.
    1000022    2    1    0    0    0  0.84016028384E+01  0.88310430782E+01  0.60478720764E+02  0.62499999131E+02  0.99999987003E+01 0.  0.
    3000022    2    3    3    0    0  0.37296713512E+01  0.83385735812E+01  0.51623538207E+02  0.52426085882E+02  0.25005230266E+00 0.  0.
    1000022    2    1    0    0    0 -0.84016028384E+01 -0.88310430782E+01 -0.60478720764E+02  0.62500000869E+02  0.10000009559E+02 0.  0.
    3000022    2    5    5    0    0 -0.14905454673E+01 -0.52154471965E+01 -0.42904255342E+02  0.43246505538E+02  0.24999908745E+00 0.  0.
        -13    1    4    4    0    0  0.22122015738E+01  0.48042252523E+01  0.30055062775E+02  0.30517081110E+02  0.10500000000E+00 0. -1.
         13    1    4    4    0    0  0.15174697775E+01  0.35343483289E+01  0.21568475432E+02  0.21909004772E+02  0.10500000000E+00 0.  1.
    3000001    1    5    5    0    0 -0.69110573711E+01 -0.36155958817E+01 -0.17574465422E+02  0.19253495331E+02  0.10000000000E+01 0.  1.
        -13    1    6    6    0    0 -0.92002031653E+00 -0.30808912120E+01 -0.25014398677E+02  0.25220418200E+02  0.10500000000E+00 0.  1.
         13    1    6    6    0    0 -0.57052515075E+00 -0.21345559844E+01 -0.17889856665E+02  0.18026087338E+02  0.10500000000E+00 0. -1.
</event>
<event>
11    0  0.3494755E-009  0.9118800E+02  0.7816531E-02  0.1126479E+00
         25   -1    0    0    0    0  0.00000000000E+00  0.00000000000E+00  0.99999998245E-14  0.12500000000E+03  0.12500000000E+03 0.  0.
    3000001    1    3    3    0    0 -0.10783956553E+02  0.14862808756E+02 -0.12483516454E+01  0.18432449237E+02  0.10000000000E+01 0. -1.
    1000022    2    1    0    0    0 -0.24507219734E+02  0.55321528597E+02 -0.12048838815E+02  0.62499999531E+02  0.10000003957E+02 0.  0.
    3000022    2    3    3    0    0 -0.13723263182E+02  0.40458719841E+02 -0.10800487169E+02  0.44067550294E+02  0.25000453665E+00 0.  0.
    1000022    2    1    0    0    0  0.24507219734E+02 -0.55321528597E+02  0.12048838815E+02  0.62500000469E+02  0.10000009823E+02 0.  0.
    3000022    2    5    5    0    0 -0.21255744918E+00  0.30360384404E+00  0.12899901699E+00  0.46528983171E+00  0.24999583554E+00 0.  0.
        -13    1    4    4    0    0 -0.34485688733E+01  0.10221684617E+02 -0.27494879739E+01  0.11133111550E+02  0.10500000000E+00 0.  1.
         13    1    4    4    0    0 -0.10274694309E+02  0.30237035224E+02 -0.80509991955E+01  0.32934438743E+02  0.10500000000E+00 0. -1.
    3000001    1    5    5    0    0  0.24719777184E+02 -0.55625132441E+02  0.11919839798E+02  0.62034710638E+02  0.10000000000E+01 0. -1.
        -13    1    6    6    0    0 -0.11439958746E+00  0.16094800773E+00 -0.28101018255E-02  0.22366140363E+00  0.10500000000E+00 0. -1.
         13    1    6    6    0    0 -0.98157861721E-01  0.14265583632E+00  0.13180911881E+00  0.24162842808E+00  0.10500000000E+00 0.  1.
</event>
<event>
11    0  0.3494755E-009  0.9118800E+02  0.7816531E-02  0.1126479E+00
         25   -1    0    0    0    0  0.00000000000E+00  0.00000000000E+00  0.99999998245E-14  0.12500000000E+03  0.12500000000E+03 0.  0.
    3000001    1    3    3    0    0  0.80085397105E+01 -0.17039041011E+02  0.18096844091E+02  0.26133530051E+02  0.10000000000E+01 0.  1.
    1000022    2    1    0    0    0  0.29532513684E+02 -0.36924485080E+02  0.39631591312E+02  0.62500000183E+02  0.10000001499E+02 0.  0.
    3000022    2    3    3    0    0  0.21523973973E+02 -0.19885444070E+02  0.21534747221E+02  0.36366470132E+02  0.24994106859E+00 0.  0.
    1000022    2    1    0    0    0 -0.29532513684E+02  0.36924485080E+02 -0.39631591312E+02  0.62499999817E+02  0.99999992123E+01 0.  0.
    3000022    2    5    5    0    0 -0.31137353364E+01  0.93356526772E+00 -0.50819005779E+01  0.60378063760E+01  0.25000099183E+00 0.  0.
        -13    1    4    4    0    0  0.12169425039E+02 -0.11165757909E+02  0.12095364690E+02  0.20471392904E+02  0.10500000000E+00 0. -1.
         13    1    4    4    0    0  0.93545489349E+01 -0.87196861606E+01  0.94393825314E+01  0.15895077228E+02  0.10500000000E+00 0.  1.
    3000001    1    5    5    0    0 -0.26418778348E+02  0.35990919813E+02 -0.34549690734E+02  0.56462193441E+02  0.10000000000E+01 0. -1.
        -13    1    6    6    0    0 -0.23322880980E+01  0.67014215387E+00 -0.37988373506E+01  0.45089742176E+01  0.10500000000E+00 0.  1.
         13    1    6    6    0    0 -0.78144723841E+00  0.26342311385E+00 -0.12830632274E+01  0.15288321585E+01  0.10500000000E+00 0. -1.
</event>
<event>
11    0  0.3494755E-009  0.9118800E+02  0.7816531E-02  0.1126479E+00
         25   -1    0    0    0    0  0.00000000000E+00  0.00000000000E+00  0.99999998245E-14  0.12500000000E+03  0.12500000000E+03 0.  0.
    3000001    1    3    3    0    0  0.44722110265E+02  0.21509151490E+02 -0.14223127366E+02  0.51633400977E+02  0.10000000000E+01 0.  1.
    1000022    2    1    0    0    0  0.55502359737E+02  0.22073869319E+02 -0.15442873339E+02  0.62499999414E+02  0.99999973357E+01 0.  0.
    3000022    2    3    3    0    0  0.10780249472E+02  0.56471782957E+00 -0.12197459721E+01  0.10866598437E+02  0.24999290745E+00 0.  0.
    1000022    2    1    0    0    0 -0.55502359737E+02 -0.22073869319E+02  0.15442873339E+02  0.62500000586E+02  0.10000004662E+02 0.  0.
    3000022    2    5    5    0    0 -0.16817432643E+02 -0.67790735814E+01  0.94851576746E+01  0.20464911234E+02  0.24999274891E+00 0.  0.
        -13    1    4    4    0    0  0.55597303042E+01  0.26418267352E+00 -0.69136540804E+00  0.56097597691E+01  0.10500000000E+00 0. -1.
         13    1    4    4    0    0  0.52205191675E+01  0.30053515604E+00 -0.52838056408E+00  0.52568386677E+01  0.10500000000E+00 0.  1.
    3000001    1    5    5    0    0 -0.38684927094E+02 -0.15294795738E+02  0.59577156640E+01  0.42035089353E+02  0.10000000000E+01 0.  1.
        -13    1    6    6    0    0 -0.40494725573E+01 -0.16407168592E+01  0.22650493469E+01  0.49225657282E+01  0.10500000000E+00 0.  1.
         13    1    6    6    0    0 -0.12767960085E+02 -0.51383567222E+01  0.72201083277E+01  0.15542345505E+02  0.10500000000E+00 0. -1.
</event>
<event>
11    0  0.3494755E-009  0.9118800E+02  0.7816531E-02  0.1126479E+00
         25   -1    0    0    0    0  0.00000000000E+00  0.00000000000E+00  0.99999998245E-14  0.12500000000E+03  0.12500000000E+03 0.  0.
    3000001    1    3    3    0    0  0.20476281669E+02  0.81486838544E+01  0.24613877230E+01  0.22197693327E+02  0.10000000000E+01 0.  1.
    1000022    2    1    0    0    0  0.58756294606E+02  0.12053760898E+02  0.14444893017E+02  0.62499999980E+02  0.99999877751E+01 0.  0.
    3000022    2    3    3    0    0  0.38280012938E+02  0.39050770435E+01  0.11983505294E+02  0.40302306652E+02  0.25001023484E+00 0.  0.
    1000022    2    1    0    0    0 -0.58756294606E+02 -0.12053760898E+02 -0.14444893017E+02  0.62500000020E+02  0.99999880306E+01 0.  0.
    3000022    2    5    5    0    0 -0.39070323996E+02 -0.11884983995E+02 -0.70298706044E+01  0.41439409290E+02  0.24999978022E+00 0.  0.
        -13    1    4    4    0    0  0.22259170754E+02  0.23092354212E+01  0.70239851107E+01  0.23455290293E+02  0.10500000000E+00 0.  1.
         13    1    4    4    0    0  0.16020842183E+02  0.15958416224E+01  0.49595201837E+01  0.16847016359E+02  0.10500000000E+00 0. -1.
    3000001    1    5    5    0    0 -0.19685970610E+02 -0.16877690249E+00 -0.74150224131E+01  0.21060590730E+02  0.10000000000E+01 0.  1.
        -13    1    6    6    0    0 -0.95528192994E+01 -0.29151289870E+01 -0.16979581512E+01  0.10131555678E+02  0.10500000000E+00 0. -1.
         13    1    6    6    0    0 -0.29517504697E+02 -0.89698550084E+01 -0.53319124532E+01  0.31307853612E+02  0.10500000000E+00 0.  1.
</event>
<event>
11    0  0.3494755E-009  0.9118800E+02  0.7816531E-02  0.1126479E+00
         25   -1    0    0    0    0  0.00000000000E+00  0.00000000000E+00  0.99999998245E-14  0.12500000000E+03  0.12500000000E+03 0.  0.
    3000001    1    3    3    0    0 -0.13629488343E+02  0.28142175212E+01 -0.43050814865E+02  0.45255446449E+02  0.10000000000E+01 0.  1.
    1000022    2    1    0    0    0 -0.20085322748E+02 -0.19925101982E+01 -0.58299739650E+02  0.62500000150E+02  0.10000004435E+02 0.  0.
    3000022    2    3    3    0    0 -0.64558344046E+01 -0.48067277194E+01 -0.15248924785E+02  0.17244553701E+02  0.24999203201E+00 0.  0.
    1000022    2    1    0    0    0  0.20085322748E+02  0.19925101982E+01  0.58299739650E+02  0.62499999850E+02  0.10000002565E+02 0.  0.
    3000022    2    5    5    0    0  0.10883710481E+01  0.29563142202E+00  0.37515879683E-02  0.11551891851E+01  0.24999700608E+00 0.  0.
        -13    1    4    4    0    0 -0.32212407367E+01 -0.24738444574E+01 -0.77594809953E+01  0.87588166209E+01  0.10500000000E+00 0. -1.
         13    1    4    4    0    0 -0.32345936679E+01 -0.23328832620E+01 -0.74894437896E+01  0.84857370798E+01  0.10500000000E+00 0.  1.
    3000001    1    5    5    0    0  0.18996951700E+02  0.16968787762E+01  0.58295988062E+02  0.61344810665E+02  0.10000000000E+01 0.  1.
        -13    1    6    6    0    0  0.34794621689E+00  0.44849880575E-01 -0.93089892924E-02  0.36631917629E+00  0.10500000000E+00 0.  1.
         13    1    6    6    0    0  0.74042483116E+00  0.25078154144E+00  0.13060577261E-01  0.78887000881E+00  0.10500000000E+00 0. -1.
</event>
<event>
11    0  0.3494755E-009  0.9118800E+02  0.7816531E-02  0.1126479E+00
         25   -1    0    0    0    0  0.00000000000E+00  0.00000000000E+00  0.99999998245E-14  0.12500000000E+03  0.12500000000E+03 0.  0.
    3000001    1    3    3    0    0 -0.45047731005E+02 -0.31810438945E+02  0.21244479885E+02  0.59106091227E+02  0.10000000000E+01 0.  1.
    1000022    2    1    0    0    0 -0.48187164965E+02 -0.32709717655E+02  0.20354884880E+02  0.62500001915E+02  0.10000020221E+02 0.  0.
    3000022    2    3    3    0    0 -0.31394339602E+01 -0.89927871053E+00 -0.88959500522E+00  0.33939106878E+01  0.25000538751E+00 0.  0.
    1000022    2    1    0    0    0  0.48187164965E+02  0.32709717655E+02 -0.20354884880E+02  0.62499998085E+02  0.99999962863E+01 0.  0.
    3000022    2    5    5    0    0  0.39919088441E+02  0.30152538759E+02 -0.14813084222E+02  0.52174698678E+02  0.25000481290E+00 0.  0.
        -13    1    4    4    0    0 -0.93900421551E+00 -0.30220901594E+00 -0.23458908575E+00  0.10193705142E+01  0.10500000000E+00 0.  1.
         13    1    4    4    0    0 -0.22004297447E+01 -0.59706969459E+00 -0.65500591947E+00  0.23745401736E+01  0.10500000000E+00 0. -1.
    3000001    1    5    5    0    0  0.82680765242E+01  0.25571788961E+01 -0.55418006578E+01  0.10325299407E+02  0.10000000000E+01 0. -1.
        -13    1    6    6    0    0  0.19346351046E+02  0.14692155442E+02 -0.71673944916E+01  0.25328310231E+02  0.10500000000E+00 0. -1.
         13    1    6    6    0    0  0.20572737394E+02  0.15460383317E+02 -0.76456897308E+01  0.26846388447E+02  0.10500000000E+00 0.  1.
</event>
<event>
11    0  0.3494755E-009  0.9118800E+02  0.7816531E-02  0.1126479E+00
         25   -1    0    0    0    0  0.00000000000E+00  0.00000000000E+00  0.99999998245E-14  0.12500000000E+03  0.12500000000E+03 0.  0.
    3000001    1    3    3    0    0 -0.18299921364E+02 -0.56051046993E+02  0.18718616578E+02  0.61870781452E+02  0.10000000000E+01 0.  1.
    1000022    2    1    0    0    0 -0.18670604251E+02 -0.55667916438E+02  0.18940467679E+02  0.62499996268E+02  0.99999917021E+01 0.  0.
    3000022    2    3    3    0    0 -0.37068288759E+00  0.38313055524E+00  0.22185110087E+00  0.62921481620E+00  0.24999709688E+00 0.  0.
    1000022    2    1    0    0    0  0.18670604251E+02  0.55667916438E+02 -0.18940467679E+02  0.62500003732E+02  0.10000038349E+02 0.  0.
    3000022    2    5    5    0    0  0.17994797115E+02  0.50977171939E+02 -0.19816036370E+02  0.57577969622E+02  0.25001273226E+00 0.  0.
        -13    1    4    4    0    0 -0.30563693477E+00  0.26693853293E+00  0.15357281868E+00  0.44640757934E+00  0.10500000000E+00 0.  1.
         13    1    4    4    0    0 -0.65045952828E-01  0.11619202231E+00  0.68278282186E-01  0.18280723686E+00  0.10500000000E+00 0. -1.
    3000001    1    5    5    0    0  0.67580713636E+00  0.46907444989E+01  0.87556869118E+00  0.49220341092E+01  0.10000000000E+01 0. -1.
        -13    1    6    6    0    0  0.62404208768E+01  0.17846806958E+02 -0.69376105219E+01  0.20139335542E+02  0.10500000000E+00 0. -1.
         13    1    6    6    0    0  0.11754376238E+02  0.33130364980E+02 -0.12878425848E+02  0.37438634080E+02  0.10500000000E+00 0.  1.
</event>
<event>
11    0  0.3494755E-009  0.9118800E+02  0.7816531E-02  0.1126479E+00
         25   -1    0    0    0    0  0.00000000000E+00  0.00000000000E+00  0.99999998245E-14  0.12500000000E+03  0.12500000000E+03 0.  0.
    3000001    1    3    3    0    0 -0.33055235421E+02 -0.11830455408E+02  0.27078506088E+02  0.44349224975E+02  0.10000000000E+01 0. -1.
    1000022    2    1    0    0    0 -0.48997879736E+02 -0.11328311545E+02  0.35736916532E+02  0.62499999843E+02  0.99999958010E+01 0.  0.
    3000022    2    3    3    0    0 -0.15942644315E+02  0.50214386274E+00  0.86584104438E+01  0.18150774868E+02  0.25000135293E+00 0.  0.
    1000022    2    1    0    0    0  0.48997879736E+02  0.11328311545E+02 -0.35736916532E+02  0.62500000157E+02  0.99999977678E+01 0.  0.
    3000022    2    5    5    0    0  0.99682782085E+01 -0.15203368304E+01 -0.56371618504E+01  0.11555002440E+02  0.24998630288E+00 0.  0.
        -13    1    4    4    0    0 -0.11022995720E+02  0.30334086959E+00  0.59628803428E+01  0.12536563218E+02  0.10500000000E+00 0. -1.
         13    1    4    4    0    0 -0.49196485946E+01  0.19880299316E+00  0.26955301010E+01  0.56142116499E+01  0.10500000000E+00 0.  1.
    3000001    1    5    5    0    0  0.39029601528E+02  0.12848648375E+02 -0.30099754682E+02  0.50944997717E+02  0.10000000000E+01 0.  1.
        -13    1    6    6    0    0  0.50593350021E+01 -0.74470151954E+00 -0.27873966534E+01  0.58251228416E+01  0.10500000000E+00 0.  1.
         13    1    6    6    0    0  0.49089432064E+01 -0.77563531089E+00 -0.28497651971E+01  0.57298795988E+01  0.10500000000E+00 0. -1.
</event>
<event>
11    0  0.3494755E-009  0.9118800E+02  0.7816531E-02  0.1126479E+00
         25   -1    0    0    0    0  0.00000000000E+00  0.00000000000E+00  0.99999998245E-14  0.12500000000E+03  0.12500000000E+03 0.  0.
    3000001    1    3    3    0    0 -0.31818366071E+01 -0.44390153404E+01  0.17666530635E+01  0.58266632332E+01  0.10000000000E+01 0. -1.
    1000022    2    1    0    0    0 -0.26212807452E+02 -0.55216261064E+02 -0.83847139669E+01  0.62499999521E+02  0.99999875746E+01 0.  0.
    3000022    2    3    3    0    0 -0.23030970845E+02 -0.50777245723E+02 -0.10151367030E+02  0.56673336288E+02  0.24998428217E+00 0.  0.
    1000022    2    1    0    0    0  0.26212807452E+02  0.55216261064E+02  0.83847139669E+01  0.62500000479E+02  0.99999935591E+01 0.  0.
    3000022    2    5    5    0    0  0.26743679388E+02  0.54006282576E+02  0.83589918111E+01  0.60842733276E+02  0.25000690524E+00 0.  0.
        -13    1    4    4    0    0 -0.83549400332E+01 -0.18287829658E+02 -0.36805352056E+01  0.20440330255E+02  0.10500000000E+00 0. -1.
         13    1    4    4    0    0 -0.14676030812E+02 -0.32489416065E+02 -0.64708318247E+01  0.36233006033E+02  0.10500000000E+00 0.  1.
    3000001    1    5    5    0    0 -0.53087193633E+00  0.12099784878E+01  0.25722155781E-01  0.16572672032E+01  0.10000000000E+01 0. -1.
        -13    1    6    6    0    0  0.15679404040E+02  0.31726682660E+02  0.49668836004E+01  0.35736634724E+02  0.10500000000E+00 0. -1.
         13    1    6    6    0    0  0.11064275348E+02  0.22279599916E+02  0.33921082106E+01  0.25106098552E+02  0.10500000000E+00 0.  1.
</event>
<event>
11    0  0.3494755E-009  0.9118800E+02  0.7816531E-02  0.1126479E+00
         25   -1    0    0    0    0  0.00000000000E+00  0.00000000000E+00  0.99999998245E-14  0.12500000000E+03  0.12500000000E+03 0.  0.
    3000001    1    3    3    0    0 -0.62629820958E+01  0.32085149439E+02 -0.26791037551E+02  0.42278143908E+02  0.10000000000E+01 0.  1.
    1000022    2    1    0    0    0 -0.25082680001E+01  0.48077069098E+02 -0.38581780315E+02  0.62500000555E+02  0.10000015787E+02 0.  0.
    3000022    2    3    3    0    0  0.37547140957E+01  0.15991919659E+02 -0.11790742764E+02  0.20221856647E+02  0.24999804376E+00 0.  0.
    1000022    2    1    0    0    0  0.25082680001E+01 -0.48077069098E+02  0.38581780315E+02  0.62499999445E+02  0.10000008846E+02 0.  0.
    3000022    2    5    5    0    0  0.60797669704E+01 -0.22180011263E+02  0.18655187939E+02  0.29614101356E+02  0.24999207331E+00 0.  0.
        -13    1    4    4    0    0  0.23532064179E+01  0.97539938420E+01 -0.71920029584E+01  0.12345602775E+02  0.10500000000E+00 0. -1.
         13    1    4    4    0    0  0.14015076778E+01  0.62379258166E+01 -0.45987398057E+01  0.78762538726E+01  0.10500000000E+00 0.  1.
    3000001    1    5    5    0    0 -0.35714989703E+01 -0.25897057834E+02  0.19926592376E+02  0.32885898089E+02  0.10000000000E+01 0.  1.
        -13    1    6    6    0    0  0.29129850050E+01 -0.10658012525E+02  0.88760241547E+01  0.14172986362E+02  0.10500000000E+00 0. -1.
         13    1    6    6    0    0  0.31667819654E+01 -0.11521998738E+02  0.97791637841E+01  0.15441114994E+02  0.10500000000E+00 0.  1.
</event>
<event>
11    0  0.3494755E-009  0.9118800E+02  0.7816531E-02  0.1126479E+00
         25   -1    0    0    0    0  0.00000000000E+00  0.00000000000E+00  0.99999998245E-14  0.12500000000E+03  0.12500000000E+03 0.  0.
    3000001    1    3    3    0    0 -0.22121844450E+02  0.35378868571E+02 -0.36965609973E+02  0.55753893711E+02  0.10000000000E+01 0. -1.
    1000022    2    1    0    0    0 -0.26770863688E+02  0.39969736368E+02 -0.38626288785E+02  0.62499988819E+02  0.99999724544E+01 0.  0.
    3000022    2    3    3    0    0 -0.46490192383E+01  0.45908677962E+01 -0.16606788123E+01  0.67460951076E+01  0.24999616660E+00 0.  0.
    1000022    2    1    0    0    0  0.26770863688E+02 -0.39969736368E+02  0.38626288785E+02  0.62500011181E+02  0.10000112220E+02 0.  0.
    3000022    2    5    5    0    0  0.13407705167E+02 -0.17058351010E+02  0.11537558745E+02  0.24575021005E+02  0.24999717152E+00 0.  0.
        -13    1    4    4    0    0 -0.32492041046E+01  0.31893516209E+01 -0.11106602579E+01  0.46876307751E+01  0.10500000000E+00 0.  1.
         13    1    4    4    0    0 -0.13998151337E+01  0.14015161754E+01 -0.55001855439E+00  0.20584643326E+01  0.10500000000E+00 0. -1.
    3000001    1    5    5    0    0  0.13363158522E+02 -0.22911385358E+02  0.27088730040E+02  0.37924990176E+02  0.10000000000E+01 0.  1.
        -13    1    6    6    0    0  0.82526589347E+01 -0.10596711051E+02  0.71295419385E+01  0.15206513665E+02  0.10500000000E+00 0. -1.
         13    1    6    6    0    0  0.51550462320E+01 -0.64616399586E+01  0.44080168070E+01  0.93685073400E+01  0.10500000000E+00 0.  1.
</event>
<event>
11    0  0.3494755E-009  0.9118800E+02  0.7816531E-02  0.1126479E+00
         25   -1    0    0    0    0  0.00000000000E+00  0.00000000000E+00  0.99999998245E-14  0.12500000000E+03  0.12500000000E+03 0.  0.
    3000001    1    3    3    0    0 -0.27049579897E+02  0.36688728565E+02  0.20280587533E+02  0.49900348766E+02  0.10000000000E+01 0.  1.
    1000022    2    1    0    0    0 -0.31824513801E+02  0.48281722108E+02  0.21501757043E+02  0.62500001382E+02  0.10000012421E+02 0.  0.
    3000022    2    3    3    0    0 -0.47749339043E+01  0.11592993543E+02  0.12211695103E+01  0.12599652616E+02  0.24999597585E+00 0.  0.
    1000022    2    1    0    0    0  0.31824513801E+02 -0.48281722108E+02 -0.21501757043E+02  0.62499998618E+02  0.99999951465E+01 0.  0.
    3000022    2    5    5    0    0  0.19345708858E+01 -0.48330481867E+01 -0.50253446089E+01  0.72399939158E+01  0.25000835005E+00 0.  0.
        -13    1    4    4    0    0 -0.15200897444E+01  0.38278492044E+01  0.40664323849E+00  0.41399862423E+01  0.10500000000E+00 0. -1.
         13    1    4    4    0    0 -0.32548441599E+01  0.77651443387E+01  0.81452627185E+00  0.84596663737E+01  0.10500000000E+00 0.  1.
    3000001    1    5    5    0    0  0.29889942915E+02 -0.43448673921E+02 -0.16476412434E+02  0.55260004702E+02  0.10000000000E+01 0. -1.
        -13    1    6    6    0    0  0.82508951164E+00 -0.18935347539E+01 -0.20037931498E+01  0.28796629236E+01  0.10500000000E+00 0. -1.
         13    1    6    6    0    0  0.11094813742E+01 -0.29395134328E+01 -0.30215514592E+01  0.43603309922E+01  0.10500000000E+00 0.  1.
</event>
<event>
11    0  0.3494755E-009  0.9118800E+02  0.7816531E-02  0.1126479E+00
         25   -1    0    0    0    0  0.00000000000E+00  0.00000000000E+00  0.99999998245E-14  0.12500000000E+03  0.12500000000E+03 0.  0.
    3000001    1    3    3    0    0 -0.77552580716E+01  0.21243601591E+01  0.43131394365E+01  0.91793303482E+01  0.10000000000E+01 0.  1.
    1000022    2    1    0    0    0 -0.38272644208E+02  0.30781375608E+02  0.37335785680E+02  0.62499992933E+02  0.99999922647E+01 0.  0.
    3000022    2    3    3    0    0 -0.30517386136E+02  0.28657015449E+02  0.33022646244E+02  0.53320662585E+02  0.25000504887E+00 0.  0.
    1000022    2    1    0    0    0  0.38272644208E+02 -0.30781375608E+02 -0.37335785680E+02  0.62500007067E+02  0.10000080598E+02 0.  0.
    3000022    2    5    5    0    0  0.34589761551E+02 -0.24011719310E+02 -0.29152436383E+02  0.51214659186E+02  0.25000028683E+00 0.  0.
        -13    1    4    4    0    0 -0.19822145683E+02  0.18632928796E+02  0.21389787157E+02  0.34606899812E+02  0.10500000000E+00 0. -1.
         13    1    4    4    0    0 -0.10695240453E+02  0.10024086653E+02  0.11632859087E+02  0.18713762773E+02  0.10500000000E+00 0.  1.
    3000001    1    5    5    0    0  0.36828826575E+01 -0.67696562981E+01 -0.81833492976E+01  0.11285347881E+02  0.10000000000E+01 0.  1.
        -13    1    6    6    0    0  0.14233921090E+02 -0.98359350762E+01 -0.12042329985E+02  0.21080295654E+02  0.10500000000E+00 0. -1.
         13    1    6    6    0    0  0.20355840461E+02 -0.14175784234E+02 -0.17110106398E+02  0.30134363532E+02  0.10500000000E+00 0.  1.
</event>
<event>
11    0  0.3494755E-009  0.9118800E+02  0.7816531E-02  0.1126479E+00
         25   -1    0    0    0    0  0.00000000000E+00  0.00000000000E+00  0.99999998245E-14  0.12500000000E+03  0.12500000000E+03 0.  0.
    3000001    1    3    3    0    0 -0.13439643546E+02 -0.13696284113E+02  0.22313462813E+02  0.29446609989E+02  0.10000000000E+01 0. -1.
    1000022    2    1    0    0    0 -0.20623789823E+02 -0.24675541624E+02  0.52650043203E+02  0.62500001117E+02  0.10000001467E+02 0.  0.
    3000022    2    3    3    0    0 -0.71841462767E+01 -0.10979257511E+02  0.30336580389E+02  0.33053391128E+02  0.25000422647E+00 0.  0.
    1000022    2    1    0    0    0  0.20623789823E+02  0.24675541624E+02 -0.52650043203E+02  0.62499998883E+02  0.99999875026E+01 0.  0.
    3000022    2    5    5    0    0  0.54373108545E+01  0.54016829546E+01 -0.58402498520E+01  0.96391672117E+01  0.24999626034E+00 0.  0.
        -13    1    4    4    0    0 -0.39257826492E+01 -0.59632888609E+01  0.16345723593E+02  0.17837216382E+02  0.10500000000E+00 0. -1.
         13    1    4    4    0    0 -0.32583636275E+01 -0.50159686498E+01  0.13990856796E+02  0.15216174746E+02  0.10500000000E+00 0.  1.
    3000001    1    5    5    0    0  0.15186478968E+02  0.19273858669E+02 -0.46809793351E+02  0.52860831671E+02  0.10000000000E+01 0. -1.
        -13    1    6    6    0    0  0.24295100134E+01  0.24367672263E+01 -0.27034525258E+01  0.43772176070E+01  0.10500000000E+00 0.  1.
         13    1    6    6    0    0  0.30078008412E+01  0.29649157283E+01 -0.31367973262E+01  0.52619496047E+01  0.10500000000E+00 0. -1.
</event>
<event>
11    0  0.3494755E-009  0.9118800E+02  0.7816531E-02  0.1126479E+00
         25   -1    0    0    0    0  0.00000000000E+00  0.00000000000E+00  0.99999998245E-14  0.12500000000E+03  0.12500000000E+03 0.  0.
    3000001    1    3    3    0    0  0.13782889124E+02 -0.11333694724E+01 -0.76256718915E+01  0.15824140759E+02  0.10000000000E+01 0.  1.
    1000022    2    1    0    0    0  0.48860579185E+02 -0.20265441061E+02 -0.31752264732E+02  0.62499996241E+02  0.99999457422E+01 0.  0.
    3000022    2    3    3    0    0  0.35077690061E+02 -0.19132071589E+02 -0.24126592840E+02  0.46675855482E+02  0.24999921018E+00 0.  0.
    1000022    2    1    0    0    0 -0.48860579185E+02  0.20265441061E+02  0.31752264732E+02  0.62500003759E+02  0.99999927280E+01 0.  0.
    3000022    2    5    5    0    0 -0.86270071576E+01  0.58889536645E+01  0.10338113000E+02  0.14698438906E+02  0.24999625042E+00 0.  0.
        -13    1    4    4    0    0  0.17117725161E+02 -0.93595933254E+01 -0.11855858675E+02  0.22829606037E+02  0.10500000000E+00 0.  1.
         13    1    4    4    0    0  0.17959964900E+02 -0.97724782634E+01 -0.12270734165E+02  0.23846249444E+02  0.10500000000E+00 0. -1.
    3000001    1    5    5    0    0 -0.40233572027E+02  0.14376487397E+02  0.21414151732E+02  0.47801564853E+02  0.10000000000E+01 0. -1.
        -13    1    6    6    0    0 -0.46511804397E+01  0.30977434779E+01  0.55004392218E+01  0.78418971410E+01  0.10500000000E+00 0.  1.
         13    1    6    6    0    0 -0.39758267179E+01  0.27912101866E+01  0.48376737780E+01  0.68565417653E+01  0.10500000000E+00 0. -1.
</event>
<event>
11    0  0.3494755E-009  0.9118800E+02  0.7816531E-02  0.1126479E+00
         25   -1    0    0    0    0  0.00000000000E+00  0.00000000000E+00  0.99999998245E-14  0.12500000000E+03  0.12500000000E+03 0.  0.
    3000001    1    3    3    0    0  0.16160778342E+00  0.16473526690E+02  0.24500221805E+02  0.29540888057E+02  0.10000000000E+01 0.  1.
    1000022    2    1    0    0    0 -0.77497943347E+01  0.28646336105E+02  0.54088614753E+02  0.62500000135E+02  0.99999943301E+01 0.  0.
    3000022    2    3    3    0    0 -0.79114021181E+01  0.12172809415E+02  0.29588392947E+02  0.32959112079E+02  0.24999854811E+00 0.  0.
    1000022    2    1    0    0    0  0.77497943347E+01 -0.28646336105E+02 -0.54088614753E+02  0.62499999865E+02  0.99999926367E+01 0.  0.
    3000022    2    5    5    0    0  0.20337001799E+01 -0.12729594573E+02 -0.33129485051E+02  0.35550018209E+02  0.25000101612E+00 0.  0.
        -13    1    4    4    0    0 -0.30118114094E+01  0.45576848449E+01  0.11233776370E+02  0.12492087722E+02  0.10500000000E+00 0. -1.
         13    1    4    4    0    0 -0.48995907087E+01  0.76151245703E+01  0.18354616577E+02  0.20467024357E+02  0.10500000000E+00 0.  1.
    3000001    1    5    5    0    0  0.57160941547E+01 -0.15916741532E+02 -0.20959129702E+02  0.26949981656E+02  0.10000000000E+01 0.  1.
        -13    1    6    6    0    0  0.87579720017E+00 -0.55033687243E+01 -0.14141430313E+02  0.15200169879E+02  0.10500000000E+00 0.  1.
         13    1    6    6    0    0  0.11579029798E+01 -0.72262258490E+01 -0.18988054738E+02  0.20349848330E+02  0.10500000000E+00 0. -1.
</event>
<event>
11    0  0.3494755E-009  0.9118800E+02  0.7816531E-02  0.1126479E+00
         25   -1    0    0    0    0  0.00000000000E+00  0.00000000000E+00  0.99999998245E-14  0.12500000000E+03  0.12500000000E+03 0.  0.
    3000001    1    3    3    0    0 -0.31048268244E+02 -0.13582903944E+02  0.49518410402E+01  0.34263843483E+02  0.10000000000E+01 0. -1.
    1000022    2    1    0    0    0 -0.58207919900E+02 -0.16477787090E+02  0.12106627055E+02  0.62499998654E+02  0.10000000332E+02 0.  0.
    3000022    2    3    3    0    0 -0.27159651656E+02 -0.28948831454E+01  0.71547860146E+01  0.28236155171E+02  0.24993888045E+00 0.  0.
    1000022    2    1    0    0    0  0.58207919900E+02  0.16477787090E+02 -0.12106627055E+02  0.62500001346E+02  0.10000017154E+02 0.  0.
    3000022    2    5    5    0    0  0.33253038737E+02  0.72583098732E+01 -0.11306628295E+02  0.35865721704E+02  0.25000496855E+00 0.  0.
        -13    1    4    4    0    0 -0.11013115930E+02 -0.12210521587E+01  0.28583209254E+01  0.11443806813E+02  0.10500000000E+00 0. -1.
         13    1    4    4    0    0 -0.16146535725E+02 -0.16738309867E+01  0.42964650892E+01  0.16792348358E+02  0.10500000000E+00 0.  1.
    3000001    1    5    5    0    0  0.24954881164E+02  0.92194772165E+01 -0.79999875960E+00  0.26634279642E+02  0.10000000000E+01 0.  1.
        -13    1    6    6    0    0  0.12214061486E+02  0.26055406307E+01 -0.41502283366E+01  0.13160834328E+02  0.10500000000E+00 0.  1.
         13    1    6    6    0    0  0.21038977251E+02  0.46527692425E+01 -0.71563999586E+01  0.22704887376E+02  0.10500000000E+00 0. -1.
</event>
<event>
11    0  0.3494755E-009  0.9118800E+02  0.7816531E-02  0.1126479E+00
         25   -1    0    0    0    0  0.00000000000E+00  0.00000000000E+00  0.99999998245E-14  0.12500000000E+03  0.12500000000E+03 0.  0.
    3000001    1    3    3    0    0  0.33830906763E+02 -0.40849479871E+02 -0.19337017333E+02  0.56463532457E+02  0.10000000000E+01 0.  1.
    1000022    2    1    0    0    0  0.34623205367E+02 -0.46661128659E+02 -0.20741809590E+02  0.62500000177E+02  0.10000003977E+02 0.  0.
    3000022    2    3    3    0    0  0.79229860344E+00 -0.58116487871E+01 -0.14047922569E+01  0.60364677202E+01  0.25000509997E+00 0.  0.
    1000022    2    1    0    0    0 -0.34623205367E+02  0.46661128659E+02  0.20741809590E+02  0.62499999823E+02  0.10000001759E+02 0.  0.
    3000022    2    5    5    0    0 -0.26855427647E+02  0.33816081082E+02  0.10951134407E+02  0.44550321873E+02  0.25000067387E+00 0.  0.
        -13    1    4    4    0    0  0.60370811528E+00 -0.41089488066E+01 -0.10005908453E+01  0.42731874313E+01  0.10500000000E+00 0. -1.
         13    1    4    4    0    0  0.18859048815E+00 -0.17026999806E+01 -0.40420141160E+00  0.17632802889E+01  0.10500000000E+00 0.  1.
    3000001    1    5    5    0    0 -0.77677777196E+01  0.12845047576E+02  0.97906751832E+01  0.17949677949E+02  0.10000000000E+01 0.  1.
        -13    1    6    6    0    0 -0.72186632963E+01  0.91433115476E+01  0.29679929503E+01  0.12022031983E+02  0.10500000000E+00 0. -1.
         13    1    6    6    0    0 -0.19636764351E+02  0.24672769535E+02  0.79831414564E+01  0.32528289891E+02  0.10500000000E+00 0.  1.
</event>
<event>
11    0  0.3494755E-009  0.9118800E+02  0.7816531E-02  0.1126479E+00
         25   -1    0    0    0    0  0.00000000000E+00  0.00000000000E+00  0.99999998245E-14  0.12500000000E+03  0.12500000000E+03 0.  0.
    3000001    1    3    3    0    0  0.38201733729E+02 -0.17654612663E+00  0.35009808224E+02  0.51827505249E+02  0.10000000000E+01 0. -1.
    1000022    2    1    0    0    0  0.42440997627E+02 -0.10026782753E+01  0.44766129900E+02  0.62500000945E+02  0.10000004434E+02 0.  0.
    3000022    2    3    3    0    0  0.42392638979E+01 -0.82613214868E+00  0.97563216763E+01  0.10672495697E+02  0.24999805342E+00 0.  0.
    1000022    2    1    0    0    0 -0.42440997627E+02  0.10026782753E+01 -0.44766129900E+02  0.62499999055E+02  0.99999926152E+01 0.  0.
    3000022    2    5    5    0    0 -0.31965667965E+01  0.19829344566E+01 -0.14659257437E+01  0.40449399633E+01  0.25006534581E+00 0.  0.
        -13    1    4    4    0    0  0.25316232334E+01 -0.42856703348E+00  0.57987051231E+01  0.63426171257E+01  0.10500000000E+00 0. -1.
         13    1    4    4    0    0  0.17076406645E+01 -0.39756511520E+00  0.39576165532E+01  0.43298785713E+01  0.10500000000E+00 0.  1.
    3000001    1    5    5    0    0 -0.39244430830E+02 -0.98025618125E+00 -0.43300204157E+02  0.58455059091E+02  0.10000000000E+01 0. -1.
        -13    1    6    6    0    0 -0.87602777476E+00  0.58480018201E+00 -0.39144929269E+00  0.11285714261E+01  0.10500000000E+00 0. -1.
         13    1    6    6    0    0 -0.23205390217E+01  0.13981342745E+01 -0.10744764510E+01  0.29163685372E+01  0.10500000000E+00 0.  1.
</event>
<event>
11    0  0.3494755E-009  0.9118800E+02  0.7816531E-02  0.1126479E+00
         25   -1    0    0    0    0  0.00000000000E+00  0.00000000000E+00  0.99999998245E-14  0.12500000000E+03  0.12500000000E+03 0.  0.
    3000001    1    3    3    0    0  0.21855616555E+02 -0.54713879635E+01 -0.20188223290E+02  0.30268274163E+02  0.10000000000E+01 0.  1.
    1000022    2    1    0    0    0  0.50194117499E+02 -0.49229993908E+01 -0.35532598349E+02  0.62499993245E+02  0.99999127847E+01 0.  0.
    3000022    2    3    3    0    0  0.28338500944E+02  0.54838857276E+00 -0.15344375059E+02  0.32231719081E+02  0.25000640822E+00 0.  0.
    1000022    2    1    0    0    0 -0.50194117499E+02  0.49229993908E+01  0.35532598349E+02  0.62500006755E+02  0.99999972263E+01 0.  0.
    3000022    2    5    5    0    0 -0.26732334281E+02  0.67527392625E+01  0.22447670876E+02  0.35555275421E+02  0.24999758281E+00 0.  0.
        -13    1    4    4    0    0  0.14815296557E+02  0.24864488579E+00 -0.80851016144E+01  0.16880009759E+02  0.10500000000E+00 0. -1.
         13    1    4    4    0    0  0.13523204387E+02  0.29974368698E+00 -0.72592734443E+01  0.15351709322E+02  0.10500000000E+00 0.  1.
    3000001    1    5    5    0    0 -0.23461783217E+02 -0.18297398718E+01  0.13084927472E+02  0.26944731334E+02  0.10000000000E+01 0.  1.
        -13    1    6    6    0    0 -0.97916326315E+01  0.25318556855E+01  0.82124985429E+01  0.13028527166E+02  0.10500000000E+00 0. -1.
         13    1    6    6    0    0 -0.16940701650E+02  0.42208835771E+01  0.14235172333E+02  0.22526748255E+02  0.10500000000E+00 0.  1.
</event>
<event>
11    0  0.3494755E-009  0.9118800E+02  0.7816531E-02  0.1126479E+00
         25   -1    0    0    0    0  0.00000000000E+00  0.00000000000E+00  0.99999998245E-14  0.12500000000E+03  0.12500000000E+03 0.  0.
    3000001    1    3    3    0    0 -0.13164695407E+02  0.52164975584E+02  0.11002887664E+01  0.53821041593E+02  0.10000000000E+01 0. -1.
    1000022    2    1    0    0    0 -0.15295455469E+02  0.59711681802E+02 -0.26103600843E+01  0.62500000428E+02  0.10000008601E+02 0.  0.
    3000022    2    3    3    0    0 -0.21307600615E+01  0.75467062186E+01 -0.37106488506E+01  0.86789588344E+01  0.24999673086E+00 0.  0.
    1000022    2    1    0    0    0  0.15295455469E+02 -0.59711681802E+02  0.26103600843E+01  0.62499999572E+02  0.10000003257E+02 0.  0.
    3000022    2    5    5    0    0  0.11880571960E+02 -0.36479918962E+02  0.57266454936E+01  0.38791615638E+02  0.24999522144E+00 0.  0.
        -13    1    4    4    0    0 -0.86559793219E+00  0.33021765553E+01 -0.16313969645E+01  0.37849849192E+01  0.10500000000E+00 0.  1.
         13    1    4    4    0    0 -0.12651621293E+01  0.42445296633E+01 -0.20792518861E+01  0.48939739151E+01  0.10500000000E+00 0. -1.
    3000001    1    5    5    0    0  0.34148835091E+01 -0.23231762840E+02 -0.31162854093E+01  0.23708383934E+02  0.10000000000E+01 0.  1.
        -13    1    6    6    0    0  0.45171802594E+01 -0.13731511750E+02  0.22006575822E+01  0.14622354503E+02  0.10500000000E+00 0.  1.
         13    1    6    6    0    0  0.73633917004E+01 -0.22748407213E+02  0.35259879114E+01  0.24169261135E+02  0.10500000000E+00 0. -1.
</event>
<event>
11    0  0.3494755E-009  0.9118800E+02  0.7816531E-02  0.1126479E+00
         25   -1    0    0    0    0  0.00000000000E+00  0.00000000000E+00  0.99999998245E-14  0.12500000000E+03  0.12500000000E+03 0.  0.
    3000001    1    3    3    0    0  0.25750954541E+02 -0.13096279763E+02 -0.16877070078E+02  0.33473268407E+02  0.10000000000E+01 0.  1.
    1000022    2    1    0    0    0  0.52731503947E+02 -0.20504233159E+02 -0.24601114862E+02  0.62500000703E+02  0.10000007475E+02 0.  0.
    3000022    2    3    3    0    0  0.26980549406E+02 -0.74079533956E+01 -0.77240447837E+01  0.29026732296E+02  0.25000043674E+00 0.  0.
    1000022    2    1    0    0    0 -0.52731503947E+02  0.20504233159E+02  0.24601114862E+02  0.62499999297E+02  0.99999986907E+01 0.  0.
    3000022    2    5    5    0    0 -0.43888885487E+02  0.19327857614E+02  0.17484523097E+02  0.51044797902E+02  0.24999150251E+00 0.  0.
        -13    1    4    4    0    0  0.17644485282E+02 -0.49017945770E+01 -0.50637090072E+01  0.19000200653E+02  0.10500000000E+00 0.  1.
         13    1    4    4    0    0  0.93360641240E+01 -0.25061588186E+01 -0.26603357765E+01  0.10026531643E+02  0.10500000000E+00 0. -1.
    3000001    1    5    5    0    0 -0.88426184598E+01  0.11763755450E+01  0.71165917652E+01  0.11455201395E+02  0.10000000000E+01 0.  1.
        -13    1    6    6    0    0 -0.28472071767E+02  0.12596468005E+02  0.11372483395E+02  0.33146255905E+02  0.10500000000E+00 0.  1.
         13    1    6    6    0    0 -0.15416813720E+02  0.67313896087E+01  0.61120397014E+01  0.17898541998E+02  0.10500000000E+00 0. -1.
</event>
<event>
11    0  0.3494755E-009  0.9118800E+02  0.7816531E-02  0.1126479E+00
         25   -1    0    0    0    0  0.00000000000E+00  0.00000000000E+00  0.99999998245E-14  0.12500000000E+03  0.12500000000E+03 0.  0.
    3000001    1    3    3    0    0 -0.80728343891E+01 -0.13625637654E+02  0.98601321750E+01  0.18682902961E+02  0.10000000000E+01 0. -1.
    1000022    2    1    0    0    0 -0.38259729116E+02 -0.42280135459E+02  0.23554899461E+02  0.62500000132E+02  0.10000000071E+02 0.  0.
    3000022    2    3    3    0    0 -0.30186894727E+02 -0.28654497805E+02  0.13694767286E+02  0.43817097171E+02  0.24999148529E+00 0.  0.
    1000022    2    1    0    0    0  0.38259729116E+02  0.42280135459E+02 -0.23554899461E+02  0.62499999868E+02  0.99999984203E+01 0.  0.
    3000022    2    5    5    0    0  0.35235383469E+02  0.35594400519E+02 -0.17922065128E+02  0.53195455768E+02  0.24999880515E+00 0.  0.
        -13    1    4    4    0    0 -0.10054414214E+02 -0.95765336870E+01  0.45181692386E+01  0.14602264239E+02  0.10500000000E+00 0. -1.
         13    1    4    4    0    0 -0.20132480513E+02 -0.19077964118E+02  0.91765980474E+01  0.29214832931E+02  0.10500000000E+00 0.  1.
    3000001    1    5    5    0    0  0.30243456466E+01  0.66857349401E+01 -0.56328343329E+01  0.93045440997E+01  0.10000000000E+01 0.  1.
        -13    1    6    6    0    0  0.23933021755E+02  0.24115973673E+02 -0.12187262238E+02  0.36095846055E+02  0.10500000000E+00 0. -1.
         13    1    6    6    0    0  0.11302361714E+02  0.11478426846E+02 -0.57348028898E+01  0.17099609714E+02  0.10500000000E+00 0.  1.
</event>
<event>
11    0  0.3494755E-009  0.9118800E+02  0.7816531E-02  0.1126479E+00
         25   -1    0    0    0    0  0.00000000000E+00  0.00000000000E+00  0.99999998245E-14  0.12500000000E+03  0.12500000000E+03 0.  0.
    3000001    1    3    3    0    0  0.12863422896E+02 -0.54913376556E+01 -0.87939541492E+01  0.16551618272E+02  0.10000000000E+01 0.  1.
    1000022    2    1    0    0    0  0.56333518623E+02 -0.15485815539E+02 -0.19823579342E+02  0.62500001594E+02  0.10000004899E+02 0.  0.
    3000022    2    3    3    0    0  0.43470095727E+02 -0.99944778831E+01 -0.11029625193E+02  0.45948383322E+02  0.24997466425E+00 0.  0.
    1000022    2    1    0    0    0 -0.56333518623E+02  0.15485815539E+02  0.19823579342E+02  0.62499998406E+02  0.99999849703E+01 0.  0.
    3000022    2    5    5    0    0 -0.16208814578E+02  0.61652930439E+00  0.29354460032E+01  0.16485907135E+02  0.25002480341E+00 0.  0.
        -13    1    4    4    0    0  0.28150072221E+02 -0.64217015699E+01 -0.71691921665E+01  0.29750179133E+02  0.10500000000E+00 0.  1.
         13    1    4    4    0    0  0.15320023506E+02 -0.35727763132E+01 -0.38604330267E+01  0.16198204190E+02  0.10500000000E+00 0. -1.
    3000001    1    5    5    0    0 -0.40124704045E+02  0.14869286234E+02  0.16888133339E+02  0.46014091271E+02  0.10000000000E+01 0. -1.
        -13    1    6    6    0    0 -0.74499504257E+01  0.22348515350E+00  0.13796289085E+01  0.75806403347E+01  0.10500000000E+00 0.  1.
         13    1    6    6    0    0 -0.87588641527E+01  0.39304415089E+00  0.15558170947E+01  0.89052668002E+01  0.10500000000E+00 0. -1.
</event>
<event>
11    0  0.3494755E-009  0.9118800E+02  0.7816531E-02  0.1126479E+00
         25   -1    0    0    0    0  0.00000000000E+00  0.00000000000E+00  0.99999998245E-14  0.12500000000E+03  0.12500000000E+03 0.  0.
    3000001    1    3    3    0    0  0.20404018898E+01 -0.32177352745E+01  0.32623464723E+02  0.32860424689E+02  0.10000000000E+01 0. -1.
    1000022    2    1    0    0    0  0.13050165326E+01 -0.14890559853E+02  0.59856647637E+02  0.62499999447E+02  0.99999911827E+01 0.  0.
    3000022    2    3    3    0    0 -0.73538535718E+00 -0.11672824579E+02  0.27233182914E+02  0.29639574759E+02  0.25002995941E+00 0.  0.
    1000022    2    1    0    0    0 -0.13050165326E+01  0.14890559853E+02 -0.59856647637E+02  0.62500000553E+02  0.99999980898E+01 0.  0.
    3000022    2    5    5    0    0 -0.15543455127E+01  0.30188590020E+01 -0.34452478234E+01  0.48437305118E+01  0.24998611909E+00 0.  0.
        -13    1    4    4    0    0 -0.57269053402E+00 -0.86419282306E+01  0.20198465527E+02  0.21977259443E+02  0.10500000000E+00 0. -1.
         13    1    4    4    0    0 -0.16269482316E+00 -0.30308963481E+01  0.70347173869E+01  0.76623153154E+01  0.10500000000E+00 0.  1.
    3000001    1    5    5    0    0  0.24932898012E+00  0.11871700851E+02 -0.56411399814E+02  0.57656270041E+02  0.10000000000E+01 0.  1.
        -13    1    6    6    0    0 -0.62624356964E+00  0.11109639712E+01 -0.13468201890E+01  0.18577867411E+01  0.10500000000E+00 0.  1.
         13    1    6    6    0    0 -0.92810194308E+00  0.19078950308E+01 -0.20984276344E+01  0.29859437707E+01  0.10500000000E+00 0. -1.
</event>
<event>
11    0  0.3494755E-009  0.9118800E+02  0.7816531E-02  0.1126479E+00
         25   -1    0    0    0    0  0.00000000000E+00  0.00000000000E+00  0.99999998245E-14  0.12500000000E+03  0.12500000000E+03 0.  0.
    3000001    1    3    3    0    0 -0.19449463810E+01 -0.59278281540E+01  0.15099928805E+01  0.64963098408E+01  0.10000000000E+01 0. -1.
    1000022    2    1    0    0    0 -0.37593462021E+02 -0.40752446224E+02  0.27059553109E+02  0.62499998877E+02  0.10000009262E+02 0.  0.
    3000022    2    3    3    0    0 -0.35648515640E+02 -0.34824618070E+02  0.25549560228E+02  0.56003689036E+02  0.24993353468E+00 0.  0.
    1000022    2    1    0    0    0  0.37593462021E+02  0.40752446224E+02 -0.27059553109E+02  0.62500001123E+02  0.10000023301E+02 0.  0.
    3000022    2    5    5    0    0  0.24481596888E+01  0.63917173212E+01 -0.56506139542E+01  0.88791596299E+01  0.25000299485E+00 0.  0.
        -13    1    4    4    0    0 -0.24337420779E+02 -0.23704746395E+02  0.17420656068E+02  0.38180038432E+02  0.10500000000E+00 0. -1.
         13    1    4    4    0    0 -0.11311094861E+02 -0.11119871675E+02  0.81289041599E+01  0.17823650604E+02  0.10500000000E+00 0.  1.
    3000001    1    5    5    0    0  0.35145302332E+02  0.34360728903E+02 -0.21408939154E+02  0.53620841493E+02  0.10000000000E+01 0. -1.
        -13    1    6    6    0    0  0.10605168120E+01  0.27720849221E+01 -0.25360480791E+01  0.39053444897E+01  0.10500000000E+00 0. -1.
         13    1    6    6    0    0  0.13876428767E+01  0.36196323991E+01 -0.31145658752E+01  0.49738151402E+01  0.10500000000E+00 0.  1.
</event>
<event>
11    0  0.3494755E-009  0.9118800E+02  0.7816531E-02  0.1126479E+00
         25   -1    0    0    0    0  0.00000000000E+00  0.00000000000E+00  0.99999998245E-14  0.12500000000E+03  0.12500000000E+03 0.  0.
    3000001    1    3    3    0    0 -0.23382068509E+02  0.92549104044E+01  0.10536414562E+02  0.27283521147E+02  0.10000000000E+01 0. -1.
    1000022    2    1    0    0    0 -0.48217819397E+02  0.18645617126E+02  0.33669463823E+02  0.62499999739E+02  0.10000001393E+02 0.  0.
    3000022    2    3    3    0    0 -0.24835750888E+02  0.93907067215E+01  0.23133049261E+02  0.35216478592E+02  0.25000281943E+00 0.  0.
    1000022    2    1    0    0    0  0.48217819397E+02 -0.18645617126E+02 -0.33669463823E+02  0.62500000261E+02  0.10000004651E+02 0.  0.
    3000022    2    5    5    0    0  0.33945607904E+02 -0.10259397874E+02 -0.18377550625E+02  0.39941912942E+02  0.25000349493E+00 0.  0.
        -13    1    4    4    0    0 -0.17755422626E+02  0.66883331134E+01  0.16575228278E+02  0.25194008215E+02  0.10500000000E+00 0. -1.
         13    1    4    4    0    0 -0.70803282615E+01  0.27023736080E+01  0.65578209835E+01  0.10022470377E+02  0.10500000000E+00 0.  1.
    3000001    1    5    5    0    0  0.14272211494E+02 -0.83862192515E+01 -0.15291913197E+02  0.22558087319E+02  0.10000000000E+01 0. -1.
        -13    1    6    6    0    0  0.87310765431E+01 -0.26185867908E+01 -0.46979425410E+01  0.10255261260E+02  0.10500000000E+00 0.  1.
         13    1    6    6    0    0  0.25214531361E+02 -0.76408110835E+01 -0.13679608084E+02  0.29686651682E+02  0.10500000000E+00 0. -1.
</event>
<event>
11    0  0.3494755E-009  0.9118800E+02  0.7816531E-02  0.1126479E+00
         25   -1    0    0    0    0  0.00000000000E+00  0.00000000000E+00  0.99999998245E-14  0.12500000000E+03  0.12500000000E+03 0.  0.
    3000001    1    3    3    0    0  0.41771349952E+01  0.12555955990E+01  0.36751010942E+01  0.57906256250E+01  0.10000000000E+01 0. -1.
    1000022    2    1    0    0    0  0.52846685492E+02 -0.12923184186E+02  0.29094142283E+02  0.62499999594E+02  0.99999988535E+01 0.  0.
    3000022    2    3    3    0    0  0.48669550497E+02 -0.14178779785E+02  0.25419041189E+02  0.56709373969E+02  0.24999848889E+00 0.  0.
    1000022    2    1    0    0    0 -0.52846685492E+02  0.12923184186E+02 -0.29094142283E+02  0.62500000406E+02  0.10000003923E+02 0.  0.
    3000022    2    5    5    0    0 -0.51799574652E+02  0.13351450688E+02 -0.27007405648E+02  0.59924282429E+02  0.24999039137E+00 0.  0.
        -13    1    4    4    0    0  0.31566810348E+02 -0.91823844347E+01  0.16546325903E+02  0.36804505503E+02  0.10500000000E+00 0. -1.
         13    1    4    4    0    0  0.17102740149E+02 -0.49963953503E+01  0.88727152856E+01  0.19904868466E+02  0.10500000000E+00 0.  1.
    3000001    1    5    5    0    0 -0.10471108400E+01 -0.42826650177E+00 -0.20867366355E+01  0.25757179764E+01  0.10000000000E+01 0.  1.
        -13    1    6    6    0    0 -0.15377829035E+02  0.40096603711E+01 -0.80309255333E+01  0.17806229023E+02  0.10500000000E+00 0. -1.
         13    1    6    6    0    0 -0.36421745618E+02  0.93417903166E+01 -0.18976480114E+02  0.42118053406E+02  0.10500000000E+00 0.  1.
</event>
<event>
11    0  0.3494755E-009  0.9118800E+02  0.7816531E-02  0.1126479E+00
         25   -1    0    0    0    0  0.00000000000E+00  0.00000000000E+00  0.99999998245E-14  0.12500000000E+03  0.12500000000E+03 0.  0.
    3000001    1    3    3    0    0 -0.94050866861E+01  0.24031947439E+02 -0.27908564764E+02  0.38024704345E+02  0.10000000000E+01 0.  1.
    1000022    2    1    0    0    0 -0.19274813662E+02  0.33010193422E+02 -0.48425806031E+02  0.62500000052E+02  0.10000000267E+02 0.  0.
    3000022    2    3    3    0    0 -0.98697269754E+01  0.89782459822E+01 -0.20517241267E+02  0.24475295707E+02  0.24999855301E+00 0.  0.
    1000022    2    1    0    0    0  0.19274813662E+02 -0.33010193422E+02  0.48425806031E+02  0.62499999948E+02  0.99999996173E+01 0.  0.
    3000022    2    5    5    0    0  0.10124692110E+02 -0.23711825173E+02  0.26547882967E+02  0.37008277879E+02  0.24999627192E+00 0.  0.
        -13    1    4    4    0    0 -0.46798782501E+01  0.41668953761E+01 -0.96520566491E+01  0.11508149289E+02  0.10500000000E+00 0. -1.
         13    1    4    4    0    0 -0.51898487253E+01  0.48113506062E+01 -0.10865184618E+02  0.12967146418E+02  0.10500000000E+00 0.  1.
    3000001    1    5    5    0    0  0.91501215515E+01 -0.92983682489E+01  0.21877923063E+02  0.25491722070E+02  0.10000000000E+01 0.  1.
        -13    1    6    6    0    0  0.40454928056E+01 -0.94138293773E+01  0.10467114838E+02  0.14647788694E+02  0.10500000000E+00 0.  1.
         13    1    6    6    0    0  0.60791993044E+01 -0.14297995795E+02  0.16080768130E+02  0.22360489185E+02  0.10500000000E+00 0. -1.
</event>
<event>
11    0  0.3494755E-009  0.9118800E+02  0.7816531E-02  0.1126479E+00
         25   -1    0    0    0    0  0.00000000000E+00  0.00000000000E+00  0.99999998245E-14  0.12500000000E+03  0.12500000000E+03 0.  0.
    3000001    1    3    3    0    0 -0.68834639369E+01 -0.39441563598E+02  0.17657466096E+01  0.40089111688E+02  0.10000000000E+01 0. -1.
    1000022    2    1    0    0    0 -0.72868846465E+01 -0.60560726205E+02  0.92493072321E+01  0.62500000951E+02  0.10000009413E+02 0.  0.
    3000022    2    3    3    0    0 -0.40342070962E+00 -0.21119162607E+02  0.74835606225E+01  0.22410889263E+02  0.25000096836E+00 0.  0.
    1000022    2    1    0    0    0  0.72868846465E+01  0.60560726205E+02 -0.92493072321E+01  0.62499999049E+02  0.99999975216E+01 0.  0.
    3000022    2    5    5    0    0  0.65144251598E+01  0.37698473625E+02 -0.13612337359E+01  0.38282216528E+02  0.24999247967E+00 0.  0.
        -13    1    4    4    0    0 -0.89362805584E-01 -0.58659495561E+01  0.21121943491E+01  0.62361638748E+01  0.10500000000E+00 0.  1.
         13    1    4    4    0    0 -0.31405790404E+00 -0.15253213051E+02  0.53713662734E+01  0.16174725388E+02  0.10500000000E+00 0. -1.
    3000001    1    5    5    0    0  0.77245948669E+00  0.22862252581E+02 -0.78880734962E+01  0.24217782520E+02  0.10000000000E+01 0. -1.
        -13    1    6    6    0    0  0.20636362019E+01  0.11775057765E+02 -0.46529504257E+00  0.11964033777E+02  0.10500000000E+00 0. -1.
         13    1    6    6    0    0  0.44507889579E+01  0.25923415860E+02 -0.89593869335E+00  0.26318182751E+02  0.10500000000E+00 0.  1.
</event>
<event>
11    0  0.3494755E-009  0.9118800E+02  0.7816531E-02  0.1126479E+00
         25   -1    0    0    0    0  0.00000000000E+00  0.00000000000E+00  0.99999998245E-14  0.12500000000E+03  0.12500000000E+03 0.  0.
    3000001    1    3    3    0    0  0.43020573016E+01 -0.12243976628E+01 -0.29898326129E+01  0.54722888919E+01  0.10000000000E+01 0. -1.
    1000022    2    1    0    0    0  0.60504333174E+02  0.29993235940E+01 -0.11682453198E+02  0.62499999583E+02  0.99999980137E+01 0.  0.
    3000022    2    3    3    0    0  0.56202275872E+02  0.42237212568E+01 -0.86926205849E+01  0.57027710691E+02  0.24999903701E+00 0.  0.
    1000022    2    1    0    0    0 -0.60504333174E+02 -0.29993235940E+01  0.11682453198E+02  0.62500000417E+02  0.10000003229E+02 0.  0.
    3000022    2    5    5    0    0 -0.41977240175E+02 -0.33820426325E+01  0.36296155623E+01  0.42270125409E+02  0.24997578439E+00 0.  0.
        -13    1    4    4    0    0  0.35861466722E+02  0.26826574143E+01 -0.56041391829E+01  0.36395863051E+02  0.10500000000E+00 0.  1.
         13    1    4    4    0    0  0.20340809151E+02  0.15410638425E+01 -0.30884814020E+01  0.20631847640E+02  0.10500000000E+00 0. -1.
    3000001    1    5    5    0    0 -0.18527092999E+02  0.38271903852E+00  0.80528376355E+01  0.20229875008E+02  0.10000000000E+01 0.  1.
        -13    1    6    6    0    0 -0.13883653649E+02 -0.11654996849E+01  0.12258459040E+01  0.13986706237E+02  0.10500000000E+00 0. -1.
         13    1    6    6    0    0 -0.28093586526E+02 -0.22165429476E+01  0.24037696583E+01  0.28283419173E+02  0.10500000000E+00 0.  1.
</event>
<event>
11    0  0.3494755E-009  0.9118800E+02  0.7816531E-02  0.1126479E+00
         25   -1    0    0    0    0  0.00000000000E+00  0.00000000000E+00  0.99999998245E-14  0.12500000000E+03  0.12500000000E+03 0.  0.
    3000001    1    3    3    0    0  0.58953005652E+01 -0.22779596175E+02 -0.51659480095E+02  0.56774699068E+02  0.10000000000E+01 0. -1.
    1000022    2    1    0    0    0  0.92142690069E+01 -0.25585530403E+02 -0.55378044209E+02  0.62499999151E+02  0.99999997036E+01 0.  0.
    3000022    2    3    3    0    0  0.33189684417E+01 -0.28059342280E+01 -0.37185641147E+01  0.57253000825E+01  0.25004709782E+00 0.  0.
    1000022    2    1    0    0    0 -0.92142690069E+01  0.25585530403E+02  0.55378044209E+02  0.62500000849E+02  0.10000010319E+02 0.  0.
    3000022    2    5    5    0    0 -0.10075565185E+02  0.16192628492E+02  0.41700845411E+02  0.45855656333E+02  0.24995683971E+00 0.  0.
        -13    1    4    4    0    0  0.99435511640E+00 -0.85165477620E+00 -0.11824722716E+01  0.17672927399E+01  0.10500000000E+00 0. -1.
         13    1    4    4    0    0  0.23246133253E+01 -0.19542794518E+01 -0.25360918430E+01  0.39580073426E+01  0.10500000000E+00 0.  1.
    3000001    1    5    5    0    0  0.86129617843E+00  0.93929019114E+01  0.13677198798E+02  0.16644344516E+02  0.10000000000E+01 0.  1.
        -13    1    6    6    0    0 -0.66305135199E+01  0.10556522948E+02  0.27211205479E+02  0.29930997559E+02  0.10500000000E+00 0.  1.
         13    1    6    6    0    0 -0.34450516654E+01  0.56361055437E+01  0.14489639933E+02  0.15924658774E+02  0.10500000000E+00 0. -1.
</event>
<event>
11    0  0.3494755E-009  0.9118800E+02  0.7816531E-02  0.1126479E+00
         25   -1    0    0    0    0  0.00000000000E+00  0.00000000000E+00  0.99999998245E-14  0.12500000000E+03  0.12500000000E+03 0.  0.
    3000001    1    3    3    0    0 -0.15731567651E+01  0.15440644036E+01 -0.11793599148E+00  0.24233996757E+01  0.10000000000E+01 0.  1.
    1000022    2    1    0    0    0 -0.55786850731E+02  0.10418235033E+02  0.24197893075E+02  0.62499997138E+02  0.99999638625E+01 0.  0.
    3000022    2    3    3    0    0 -0.54213693966E+02  0.88741706290E+01  0.24315829066E+02  0.60076597462E+02  0.25000324820E+00 0.  0.
    1000022    2    1    0    0    0  0.55786850731E+02 -0.10418235033E+02 -0.24197893075E+02  0.62500002862E+02  0.99999996391E+01 0.  0.
    3000022    2    5    5    0    0  0.46974988539E+01 -0.38616823870E+01 -0.30873839817E+01  0.68244799456E+01  0.25000067368E+00 0.  0.
        -13    1    4    4    0    0 -0.12792306856E+02  0.20802068124E+01  0.57450347277E+01  0.14176982193E+02  0.10500000000E+00 0.  1.
         13    1    4    4    0    0 -0.41421387110E+02  0.67939638166E+01  0.18570794339E+02  0.45899615269E+02  0.10500000000E+00 0. -1.
    3000001    1    5    5    0    0  0.51089351878E+02 -0.65565526457E+01 -0.21110509093E+02  0.55675522917E+02  0.10000000000E+01 0.  1.
        -13    1    6    6    0    0  0.14402594875E+01 -0.12473827259E+01 -0.96230572388E+00  0.21371402299E+01  0.10500000000E+00 0. -1.
         13    1    6    6    0    0  0.32572393664E+01 -0.26142996611E+01 -0.21250782578E+01  0.46873397156E+01  0.10500000000E+00 0. -1.
</event>
<event>
11    0  0.3494755E-009  0.9118800E+02  0.7816531E-02  0.1126479E+00
         25   -1    0    0    0    0  0.00000000000E+00  0.00000000000E+00  0.99999998245E-14  0.12500000000E+03  0.12500000000E+03 0.  0.
    3000001    1    3    3    0    0  0.12119607815E+01 -0.39970792923E+02 -0.11545245795E+02  0.41634430899E+02  0.10000000000E+01 0. -1.
    1000022    2    1    0    0    0  0.49687326178E+01 -0.57078909385E+02 -0.22881435671E+02  0.62500016950E+02  0.10000090995E+02 0.  0.
    3000022    2    3    3    0    0  0.37567718363E+01 -0.17108116462E+02 -0.11336189876E+02  0.20865586050E+02  0.24999362584E+00 0.  0.
    1000022    2    1    0    0    0 -0.49687326178E+01  0.57078909385E+02  0.22881435671E+02  0.62499983050E+02  0.99998791239E+01 0.  0.
    3000022    2    5    5    0    0 -0.25020343458E+01  0.28692916949E+02  0.16812620282E+02  0.33350717414E+02  0.24998466958E+00 0.  0.
        -13    1    4    4    0    0  0.16029625052E+01 -0.74278136493E+01 -0.49892586773E+01  0.90909642806E+01  0.10500000000E+00 0. -1.
         13    1    4    4    0    0  0.21538093311E+01 -0.96803028129E+01 -0.63469311984E+01  0.11774621770E+02  0.10500000000E+00 0.  1.
    3000001    1    5    5    0    0 -0.24666982720E+01  0.28385992436E+02  0.60688153895E+01  0.29149265637E+02  0.10000000000E+01 0.  1.
        -13    1    6    6    0    0 -0.93042553413E+00  0.10888805713E+02  0.64462843572E+01  0.12688474635E+02  0.10500000000E+00 0. -1.
         13    1    6    6    0    0 -0.15716088117E+01  0.17804111236E+02  0.10366335924E+02  0.20662242779E+02  0.10500000000E+00 0.  1.
</event>
<event>
11    0  0.3494755E-009  0.9118800E+02  0.7816531E-02  0.1126479E+00
         25   -1    0    0    0    0  0.00000000000E+00  0.00000000000E+00  0.99999998245E-14  0.12500000000E+03  0.12500000000E+03 0.  0.
    3000001    1    3    3    0    0 -0.10273485732E+00  0.47759254535E+01 -0.11410291871E+02  0.12410269093E+02  0.10000000000E+01 0. -1.
    1000022    2    1    0    0    0  0.17872129049E+01  0.40248379554E+02 -0.46723911819E+02  0.62500000150E+02  0.99999948184E+01 0.  0.
    3000022    2    3    3    0    0  0.18899477622E+01  0.35472454101E+02 -0.35313619948E+02  0.50089731057E+02  0.25000204942E+00 0.  0.
    1000022    2    1    0    0    0 -0.17872129049E+01 -0.40248379554E+02  0.46723911819E+02  0.62499999850E+02  0.99999929477E+01 0.  0.
    3000022    2    5    5    0    0 -0.80199579773E+00 -0.40033830190E+02  0.45623018017E+02  0.60703155021E+02  0.24999915595E+00 0.  0.
        -13    1    4    4    0    0  0.71249688666E+00  0.14208260403E+02 -0.14079310974E+02  0.20015502442E+02  0.10500000000E+00 0. -1.
         13    1    4    4    0    0  0.11774508755E+01  0.21264193698E+02 -0.21234308974E+02  0.30074228615E+02  0.10500000000E+00 0.  1.
    3000001    1    5    5    0    0 -0.98521710714E+00 -0.21454936384E+00  0.11008938018E+01  0.17968448293E+01  0.10000000000E+01 0.  1.
        -13    1    6    6    0    0 -0.25159311025E+00 -0.14644105799E+02  0.16624829871E+02  0.22156469190E+02  0.10500000000E+00 0. -1.
         13    1    6    6    0    0 -0.55040268748E+00 -0.25389724392E+02  0.28998188145E+02  0.38546685831E+02  0.10500000000E+00 0.  1.
</event>
<event>
11    0  0.3494755E-009  0.9118800E+02  0.7816531E-02  0.1126479E+00
         25   -1    0    0    0    0  0.00000000000E+00  0.00000000000E+00  0.99999998245E-14  0.12500000000E+03  0.12500000000E+03 0.  0.
    3000001    1    3    3    0    0  0.21371267987E+01 -0.66405075729E+00  0.61016129085E+01  0.65755573488E+01  0.10000000000E+01 0. -1.
    1000022    2    1    0    0    0  0.58150760212E+01  0.17309994974E+02  0.58930461536E+02  0.62500000765E+02  0.99999881808E+01 0.  0.
    3000022    2    3    3    0    0  0.36779492225E+01  0.17974045731E+02  0.52828848628E+02  0.55924443416E+02  0.24998728837E+00 0.  0.
    1000022    2    1    0    0    0 -0.58150760212E+01 -0.17309994974E+02 -0.58930461536E+02  0.62499999235E+02  0.99999786181E+01 0.  0.
    3000022    2    5    5    0    0 -0.38487433268E+01 -0.14178615200E+02 -0.55312933737E+02  0.57231364598E+02  0.25000201522E+00 0.  0.
        -13    1    4    4    0    0  0.15845247015E+01  0.80743642130E+01  0.23675632820E+02  0.25064969387E+02  0.10500000000E+00 0. -1.
         13    1    4    4    0    0  0.20934245210E+01  0.98996815185E+01  0.29153215808E+02  0.30859474029E+02  0.10500000000E+00 0.  1.
    3000001    1    5    5    0    0 -0.19663326945E+01 -0.31313797746E+01 -0.36175277994E+01  0.52686346370E+01  0.10000000000E+01 0. -1.
        -13    1    6    6    0    0 -0.10428037229E+01 -0.38734262330E+01 -0.14964858228E+02  0.15493510809E+02  0.10500000000E+00 0. -1.
         13    1    6    6    0    0 -0.28059396039E+01 -0.10305188967E+02 -0.40348075509E+02  0.41737853789E+02  0.10500000000E+00 0.  1.
</event>
<event>
11    0  0.3494755E-009  0.9118800E+02  0.7816531E-02  0.1126479E+00
         25   -1    0    0    0    0  0.00000000000E+00  0.00000000000E+00  0.99999998245E-14  0.12500000000E+03  0.12500000000E+03 0.  0.
    3000001    1    3    3    0    0 -0.28471735840E+00 -0.14349514158E+01 -0.54879284408E-01  0.17728962958E+01  0.10000000000E+01 0.  1.
    1000022    2    1    0    0    0  0.27150333404E+02 -0.46270166895E+02 -0.30466061479E+02  0.62499999503E+02  0.10000004370E+02 0.  0.
    3000022    2    3    3    0    0  0.27435050762E+02 -0.44835215479E+02 -0.30411182195E+02  0.60727103207E+02  0.25000812499E+00 0.  0.
    1000022    2    1    0    0    0 -0.27150333404E+02  0.46270166895E+02  0.30466061479E+02  0.62500000497E+02  0.10000010581E+02 0.  0.
    3000022    2    5    5    0    0 -0.37656287730E+01  0.13789827131E+02  0.55007980375E+01  0.15318634889E+02  0.25000694308E+00 0.  0.
        -13    1    4    4    0    0  0.14930280138E+02 -0.24433138052E+02 -0.16491871956E+02  0.33043673610E+02  0.10500000000E+00 0.  1.
         13    1    4    4    0    0  0.12504770625E+02 -0.20402077428E+02 -0.13919310239E+02  0.27683429597E+02  0.10500000000E+00 0. -1.
    3000001    1    5    5    0    0 -0.23384704631E+02  0.32480339764E+02  0.24965263442E+02  0.47181365607E+02  0.10000000000E+01 0.  1.
        -13    1    6    6    0    0 -0.16667251861E+01  0.59417670314E+01  0.23212917329E+01  0.65940873979E+01  0.10500000000E+00 0. -1.
         13    1    6    6    0    0 -0.20989035869E+01  0.78480600995E+01  0.31795063046E+01  0.87245474916E+01  0.10500000000E+00 0.  1.
</event>
<event>
11    0  0.3494755E-009  0.9118800E+02  0.7816531E-02  0.1126479E+00
         25   -1    0    0    0    0  0.00000000000E+00  0.00000000000E+00  0.99999998245E-14  0.12500000000E+03  0.12500000000E+03 0.  0.
    3000001    1    3    3    0    0 -0.97721422199E+01  0.14241910700E+02  0.88795092695E+01  0.19446657009E+02  0.10000000000E+01 0. -1.
    1000022    2    1    0    0    0 -0.37715348621E+02  0.34183591264E+02  0.34860932475E+02  0.62499999043E+02  0.99999917031E+01 0.  0.
    3000022    2    3    3    0    0 -0.27943206402E+02  0.19941680563E+02  0.25981423205E+02  0.43053342034E+02  0.25000166785E+00 0.  0.
    1000022    2    1    0    0    0  0.37715348621E+02 -0.34183591264E+02 -0.34860932475E+02  0.62500000957E+02  0.10000003664E+02 0.  0.
    3000022    2    5    5    0    0  0.55370864801E+01 -0.67000068513E+01 -0.20261436782E+01  0.89284476669E+01  0.25000207978E+00 0.  0.
        -13    1    4    4    0    0 -0.82346709661E+01  0.59254734892E+01  0.77036556666E+01  0.12738853073E+02  0.10500000000E+00 0. -1.
         13    1    4    4    0    0 -0.19708535435E+02  0.14016207074E+02  0.18277767539E+02  0.30314488961E+02  0.10500000000E+00 0.  1.
    3000001    1    5    5    0    0  0.32178262141E+02 -0.27483584412E+02 -0.32834788797E+02  0.53571553290E+02  0.10000000000E+01 0. -1.
        -13    1    6    6    0    0  0.36317921988E+01 -0.44111863710E+01 -0.12759923619E+01  0.58555666918E+01  0.10500000000E+00 0.  1.
         13    1    6    6    0    0  0.19052942813E+01 -0.22888204803E+01 -0.75015131635E+00  0.30728809750E+01  0.10500000000E+00 0. -1.
</event>
<event>
11    0  0.3494755E-009  0.9118800E+02  0.7816531E-02  0.1126479E+00
         25   -1    0    0    0    0  0.00000000000E+00  0.00000000000E+00  0.99999998245E-14  0.12500000000E+03  0.12500000000E+03 0.  0.
    3000001    1    3    3    0    0 -0.86878130168E+01 -0.24294571595E+02  0.41527715288E+02  0.48900464630E+02  0.10000000000E+01 0.  1.
    1000022    2    1    0    0    0 -0.14120841625E+02 -0.26826843708E+02  0.53732413025E+02  0.62499999478E+02  0.10000000687E+02 0.  0.
    3000022    2    3    3    0    0 -0.54330286081E+01 -0.25322721125E+01  0.12204697737E+02  0.13599534848E+02  0.24999863367E+00 0.  0.
    1000022    2    1    0    0    0  0.14120841625E+02  0.26826843708E+02 -0.53732413025E+02  0.62500000522E+02  0.10000007216E+02 0.  0.
    3000022    2    5    5    0    0  0.93240180858E+01  0.24433810685E+02 -0.40774424925E+02  0.48441352696E+02  0.25001039798E+00 0.  0.
        -13    1    4    4    0    0 -0.26297601813E+01 -0.12571542615E+01  0.57955306503E+01  0.64880872348E+01  0.10500000000E+00 0. -1.
         13    1    4    4    0    0 -0.28032684269E+01 -0.12751178510E+01  0.64091670866E+01  0.71114476129E+01  0.10500000000E+00 0.  1.
    3000001    1    5    5    0    0  0.47968235391E+01  0.23930330227E+01 -0.12957988099E+02  0.14058647826E+02  0.10000000000E+01 0.  1.
        -13    1    6    6    0    0  0.50550012961E+01  0.13316411674E+02 -0.22092020039E+02  0.26285894171E+02  0.10500000000E+00 0. -1.
         13    1    6    6    0    0  0.42690167897E+01  0.11117399011E+02 -0.18682404886E+02  0.22155458525E+02  0.10500000000E+00 0.  1.
</event>
<event>
11    0  0.3494755E-009  0.9118800E+02  0.7816531E-02  0.1126479E+00
         25   -1    0    0    0    0  0.00000000000E+00  0.00000000000E+00  0.99999998245E-14  0.12500000000E+03  0.12500000000E+03 0.  0.
    3000001    1    3    3    0    0  0.17067483753E+01  0.63236611325E+00  0.34728585338E+00  0.21055840952E+01  0.10000000000E+01 0.  1.
    1000022    2    1    0    0    0  0.46841005983E+02  0.20750769187E+02 -0.34374056073E+02  0.62499999736E+02  0.99999986397E+01 0.  0.
    3000022    2    3    3    0    0  0.45134257607E+02  0.20118403074E+02 -0.34721341926E+02  0.60394415641E+02  0.25000689792E+00 0.  0.
    1000022    2    1    0    0    0 -0.46841005983E+02 -0.20750769187E+02  0.34374056073E+02  0.62500000264E+02  0.10000001939E+02 0.  0.
    3000022    2    5    5    0    0 -0.31987593716E+02 -0.12792727367E+02  0.17538411504E+02  0.38659001677E+02  0.25001471994E+00 0.  0.
        -13    1    4    4    0    0  0.15646592869E+02  0.69135467430E+01 -0.12026438711E+02  0.20910744846E+02  0.10500000000E+00 0.  1.
         13    1    4    4    0    0  0.29487664739E+02  0.13204856331E+02 -0.22694903215E+02  0.39483670794E+02  0.10500000000E+00 0. -1.
    3000001    1    5    5    0    0 -0.14853412267E+02 -0.79580418200E+01  0.16835644569E+02  0.23840998587E+02  0.10000000000E+01 0.  1.
        -13    1    6    6    0    0 -0.19210428432E+02 -0.76592966722E+01  0.10594674057E+02  0.23237115342E+02  0.10500000000E+00 0.  1.
         13    1    6    6    0    0 -0.12777165284E+02 -0.51334306949E+01  0.69437374470E+01  0.15421886335E+02  0.10500000000E+00 0. -1.
</event>
<event>
11    0  0.3494755E-009  0.9118800E+02  0.7816531E-02  0.1126479E+00
         25   -1    0    0    0    0  0.00000000000E+00  0.00000000000E+00  0.99999998245E-14  0.12500000000E+03  0.12500000000E+03 0.  0.
    3000001    1    3    3    0    0 -0.63372033086E+01  0.21369891999E+02 -0.41133351658E+02  0.46795139154E+02  0.10000000000E+01 0. -1.
    1000022    2    1    0    0    0 -0.11159848120E+02  0.23561280517E+02 -0.55915775193E+02  0.62499999193E+02  0.99999916987E+01 0.  0.
    3000022    2    3    3    0    0 -0.48226448110E+01  0.21913885185E+01 -0.14782423535E+02  0.15704860039E+02  0.24999330676E+00 0.  0.
    1000022    2    1    0    0    0  0.11159848120E+02 -0.23561280517E+02  0.55915775193E+02  0.62500000807E+02  0.10000001792E+02 0.  0.
    3000022    2    5    5    0    0  0.34253887699E+01 -0.13178394176E+02  0.38048618223E+02  0.40412414058E+02  0.25000012140E+00 0.  0.
        -13    1    4    4    0    0 -0.14973744500E+01  0.63753152649E+00 -0.46280704776E+01  0.49069988829E+01  0.10500000000E+00 0. -1.
         13    1    4    4    0    0 -0.33252703611E+01  0.15538569920E+01 -0.10154353058E+02  0.10797861156E+02  0.10500000000E+00 0.  1.
    3000001    1    5    5    0    0  0.77344593497E+01 -0.10382886342E+02  0.17867156970E+02  0.22087586749E+02  0.10000000000E+01 0. -1.
        -13    1    6    6    0    0  0.80793669270E+00 -0.30825571526E+01  0.89429662167E+01  0.94943451618E+01  0.10500000000E+00 0.  1.
         13    1    6    6    0    0  0.26174520771E+01 -0.10095837023E+02  0.29105652007E+02  0.30918068897E+02  0.10500000000E+00 0. -1.
</event>
<event>
11    0  0.3494755E-009  0.9118800E+02  0.7816531E-02  0.1126479E+00
         25   -1    0    0    0    0  0.00000000000E+00  0.00000000000E+00  0.99999998245E-14  0.12500000000E+03  0.12500000000E+03 0.  0.
    3000001    1    3    3    0    0  0.76266247568E+01  0.33166421429E+02  0.12740992116E+02  0.36352576191E+02  0.10000000000E+01 0.  1.
    1000022    2    1    0    0    0  0.20196058172E+02  0.55565917617E+02  0.17629464280E+02  0.62499999553E+02  0.99999983532E+01 0.  0.
    3000022    2    3    3    0    0  0.12569433415E+02  0.22399496187E+02  0.48884721639E+01  0.26147423362E+02  0.25000512157E+00 0.  0.
    1000022    2    1    0    0    0 -0.20196058172E+02 -0.55565917617E+02 -0.17629464280E+02  0.62500000447E+02  0.10000003941E+02 0.  0.
    3000022    2    5    5    0    0 -0.10802948103E+02 -0.16303991661E+02 -0.49982235467E+01  0.20188328429E+02  0.25006865116E+00 0.  0.
        -13    1    4    4    0    0  0.90878532139E+01  0.16215377441E+02  0.35754293131E+01  0.18929402034E+02  0.10500000000E+00 0.  1.
         13    1    4    4    0    0  0.34815802014E+01  0.61841187462E+01  0.13130428508E+01  0.72180213281E+01  0.10500000000E+00 0. -1.
    3000001    1    5    5    0    0 -0.93931100692E+01 -0.39261925956E+02 -0.12631240733E+02  0.42311672018E+02  0.10000000000E+01 0. -1.
        -13    1    6    6    0    0 -0.81390528040E+01 -0.12241041026E+02 -0.37462107133E+01  0.15170114886E+02  0.10500000000E+00 0. -1.
         13    1    6    6    0    0 -0.26638952990E+01 -0.40629506349E+01 -0.12520128335E+01  0.50182135428E+01  0.10500000000E+00 0.  1.
</event>
<event>
11    0  0.3494755E-009  0.9118800E+02  0.7816531E-02  0.1126479E+00
         25   -1    0    0    0    0  0.00000000000E+00  0.00000000000E+00  0.99999998245E-14  0.12500000000E+03  0.12500000000E+03 0.  0.
    3000001    1    3    3    0    0  0.21093636899E+02 -0.10203242864E+02  0.17794690380E+02  0.29439746743E+02  0.10000000000E+01 0.  1.
    1000022    2    1    0    0    0  0.37942227159E+02 -0.18422836396E+02  0.45024841974E+02  0.62500000386E+02  0.10000007538E+02 0.  0.
    3000022    2    3    3    0    0  0.16848590260E+02 -0.82195935321E+01  0.27230151594E+02  0.33060253643E+02  0.25000700384E+00 0.  0.
    1000022    2    1    0    0    0 -0.37942227159E+02  0.18422836396E+02 -0.45024841974E+02  0.62499999614E+02  0.10000002717E+02 0.  0.
    3000022    2    5    5    0    0 -0.14878559755E+02  0.11280143585E+02 -0.24433029722E+02  0.30751400486E+02  0.25002167085E+00 0.  0.
        -13    1    4    4    0    0  0.11806420187E+02 -0.57264756133E+01  0.19120247438E+02  0.23190061829E+02  0.10500000000E+00 0. -1.
         13    1    4    4    0    0  0.50421700736E+01 -0.24931179188E+01  0.81099041566E+01  0.98701918136E+01  0.10500000000E+00 0.  1.
    3000001    1    5    5    0    0 -0.23063667405E+02  0.71426928113E+01 -0.20591812252E+02  0.31748599128E+02  0.10000000000E+01 0. -1.
        -13    1    6    6    0    0 -0.10243632573E+02  0.77184663551E+01 -0.16834537151E+02  0.21164106342E+02  0.10500000000E+00 0. -1.
         13    1    6    6    0    0 -0.46349271811E+01  0.35616772296E+01 -0.75984925708E+01  0.95872941444E+01  0.10500000000E+00 0.  1.
</event>
<event>
11    0  0.3494755E-009  0.9118800E+02  0.7816531E-02  0.1126479E+00
         25   -1    0    0    0    0  0.00000000000E+00  0.00000000000E+00  0.99999998245E-14  0.12500000000E+03  0.12500000000E+03 0.  0.
    3000001    1    3    3    0    0  0.14389306240E+02  0.12824114281E+01  0.13323703887E+02  0.19677850451E+02  0.10000000000E+01 0. -1.
    1000022    2    1    0    0    0  0.37336423646E+02 -0.58762993284E+01  0.48761772945E+02  0.62500001022E+02  0.10000010128E+02 0.  0.
    3000022    2    3    3    0    0  0.22947117406E+02 -0.71587107565E+01  0.35438069059E+02  0.42822150571E+02  0.25000791017E+00 0.  0.
    1000022    2    1    0    0    0 -0.37336423646E+02  0.58762993284E+01 -0.48761772945E+02  0.62499998978E+02  0.99999973474E+01 0.  0.
    3000022    2    5    5    0    0 -0.31386933251E+02  0.16160091283E+01 -0.42218499310E+02  0.52632834318E+02  0.24999994306E+00 0.  0.
        -13    1    4    4    0    0  0.13206281653E+02 -0.40662157887E+01  0.20299296031E+02  0.24556311415E+02  0.10500000000E+00 0. -1.
         13    1    4    4    0    0  0.97408357533E+01 -0.30924949678E+01  0.15138773028E+02  0.18265839156E+02  0.10500000000E+00 0.  1.
    3000001    1    5    5    0    0 -0.59494903945E+01  0.42602902001E+01 -0.65432736358E+01  0.98671646594E+01  0.10000000000E+01 0.  1.
        -13    1    6    6    0    0 -0.81769420618E+01  0.39039826862E+00 -0.10982325081E+02  0.13698075831E+02  0.10500000000E+00 0.  1.
         13    1    6    6    0    0 -0.23209991190E+02  0.12256108597E+01 -0.31236174229E+02  0.38934758487E+02  0.10500000000E+00 0. -1.
</event>
<event>
11    0  0.3494755E-009  0.9118800E+02  0.7816531E-02  0.1126479E+00
         25   -1    0    0    0    0  0.00000000000E+00  0.00000000000E+00  0.99999998245E-14  0.12500000000E+03  0.12500000000E+03 0.  0.
    3000001    1    3    3    0    0  0.29079178794E+00  0.10315725401E+01  0.43883003509E+00  0.15301220766E+01  0.10000000000E+01 0. -1.
    1000022    2    1    0    0    0  0.50514715921E+02  0.16127059520E+02  0.31534606591E+02  0.62500000692E+02  0.10000005016E+02 0.  0.
    3000022    2    3    3    0    0  0.50223924133E+02  0.15095486979E+02  0.31095776556E+02  0.60969878615E+02  0.24999259537E+00 0.  0.
    1000022    2    1    0    0    0 -0.50514715921E+02 -0.16127059520E+02 -0.31534606591E+02  0.62499999308E+02  0.99999963720E+01 0.  0.
    3000022    2    5    5    0    0 -0.20567755429E+02 -0.17355677102E+01 -0.10454797740E+02  0.23138929451E+02  0.25000332698E+00 0.  0.
        -13    1    4    4    0    0  0.20984886917E+02  0.63737576275E+01  0.12990812268E+02  0.25490439258E+02  0.10500000000E+00 0.  1.
         13    1    4    4    0    0  0.29239037216E+02  0.87217293519E+01  0.18104964288E+02  0.35479439357E+02  0.10500000000E+00 0. -1.
    3000001    1    5    5    0    0 -0.29946960491E+02 -0.14391491809E+02 -0.21079808851E+02  0.39361069858E+02  0.10000000000E+01 0.  1.
        -13    1    6    6    0    0 -0.85363478388E+01 -0.66266537939E+00 -0.43693904908E+01  0.96130618479E+01  0.10500000000E+00 0. -1.
         13    1    6    6    0    0 -0.12031407590E+02 -0.10729023308E+01 -0.60854072493E+01  0.13525867603E+02  0.10500000000E+00 0.  1.
</event>
<event>
11    0  0.3494755E-009  0.9118800E+02  0.7816531E-02  0.1126479E+00
         25   -1    0    0    0    0  0.00000000000E+00  0.00000000000E+00  0.99999998245E-14  0.12500000000E+03  0.12500000000E+03 0.  0.
    3000001    1    3    3    0    0 -0.17807482083E+02 -0.14385773000E+02  0.61262641760E+01  0.23718937491E+02  0.10000000000E+01 0. -1.
    1000022    2    1    0    0    0 -0.38673695585E+02 -0.40942829296E+02  0.25184919312E+02  0.62500001687E+02  0.10000002458E+02 0.  0.
    3000022    2    3    3    0    0 -0.20866213502E+02 -0.26557056296E+02  0.19058655136E+02  0.38781064196E+02  0.24999912144E+00 0.  0.
    1000022    2    1    0    0    0  0.38673695585E+02  0.40942829296E+02 -0.25184919312E+02  0.62499998313E+02  0.99999813750E+01 0.  0.
    3000022    2    5    5    0    0  0.33947597109E+02  0.38984019110E+02 -0.24618124379E+02  0.57256507049E+02  0.24991205993E+00 0.  0.
        -13    1    4    4    0    0 -0.15042681189E+02 -0.19090338415E+02  0.13691086052E+02  0.27895880349E+02  0.10500000000E+00 0. -1.
         13    1    4    4    0    0 -0.58235323132E+01 -0.74667178805E+01  0.53675690838E+01  0.10885183847E+02  0.10500000000E+00 0.  1.
    3000001    1    5    5    0    0  0.47260984759E+01  0.19588101860E+01 -0.56679493279E+00  0.52434912648E+01  0.10000000000E+01 0.  1.
        -13    1    6    6    0    0  0.13068483596E+02  0.15043064934E+02 -0.94270766331E+01  0.22044497385E+02  0.10500000000E+00 0.  1.
         13    1    6    6    0    0  0.20879113513E+02  0.23940954176E+02 -0.15191047746E+02  0.35212009664E+02  0.10500000000E+00 0. -1.
</event>
<event>
11    0  0.3494755E-009  0.9118800E+02  0.7816531E-02  0.1126479E+00
         25   -1    0    0    0    0  0.00000000000E+00  0.00000000000E+00  0.99999998245E-14  0.12500000000E+03  0.12500000000E+03 0.  0.
    3000001    1    3    3    0    0 -0.23303225376E+02  0.33496771248E+02  0.97178603124E+01  0.41958441415E+02  0.10000000000E+01 0. -1.
    1000022    2    1    0    0    0 -0.32942773491E+02  0.47814040490E+02  0.20852848345E+02  0.62499999283E+02  0.99999916467E+01 0.  0.
    3000022    2    3    3    0    0 -0.96395481154E+01  0.14317269242E+02  0.11134988032E+02  0.20541557867E+02  0.25010939204E+00 0.  0.
    1000022    2    1    0    0    0  0.32942773491E+02 -0.47814040490E+02 -0.20852848345E+02  0.62500000717E+02  0.10000000613E+02 0.  0.
    3000022    2    5    5    0    0  0.23229824756E+02 -0.26784062352E+02 -0.96259555158E+01  0.36738702687E+02  0.25000244408E+00 0.  0.
        -13    1    4    4    0    0 -0.36173825410E+01  0.53792810635E+01  0.41106262757E+01  0.76766134842E+01  0.10500000000E+00 0.  1.
         13    1    4    4    0    0 -0.60221655744E+01  0.89379881790E+01  0.70243617565E+01  0.12864944383E+02  0.10500000000E+00 0. -1.
    3000001    1    5    5    0    0  0.97129487349E+01 -0.21029978138E+02 -0.11226892829E+02  0.25761298031E+02  0.10000000000E+01 0. -1.
        -13    1    6    6    0    0  0.12123611664E+02 -0.13987006374E+02 -0.49556805821E+01  0.19162152857E+02  0.10500000000E+00 0.  1.
         13    1    6    6    0    0  0.11106213092E+02 -0.12797055978E+02 -0.46702749337E+01  0.17576549829E+02  0.10500000000E+00 0. -1.
</event>
<event>
11    0  0.3494755E-009  0.9118800E+02  0.7816531E-02  0.1126479E+00
         25   -1    0    0    0    0  0.00000000000E+00  0.00000000000E+00  0.99999998245E-14  0.12500000000E+03  0.12500000000E+03 0.  0.
    3000001    1    3    3    0    0 -0.60317200197E+02 -0.10915119193E+02  0.71579813676E+01  0.61721480571E+02  0.10000000000E+01 0.  1.
    1000022    2    1    0    0    0 -0.60445595070E+02 -0.10429925818E+02  0.66178950675E+01  0.62499998141E+02  0.99999958269E+01 0.  0.
    3000022    2    3    3    0    0 -0.12839487301E+00  0.48519337459E+00 -0.54008630017E+00  0.77851756998E+00  0.24999708192E+00 0.  0.
    1000022    2    1    0    0    0  0.60445595070E+02  0.10429925818E+02 -0.66178950675E+01  0.62500001859E+02  0.10000019071E+02 0.  0.
    3000022    2    5    5    0    0  0.43656428922E+02  0.32404233944E+01 -0.32158980056E+01  0.43895200623E+02  0.25001552091E+00 0.  0.
        -13    1    4    4    0    0 -0.11672685539E+00  0.36675317745E+00 -0.34845705482E+00  0.52969837737E+00  0.10500000000E+00 0. -1.
         13    1    4    4    0    0 -0.11668017626E-01  0.11844019715E+00 -0.19162924535E+00  0.24881919261E+00  0.10500000000E+00 0.  1.
    3000001    1    5    5    0    0  0.16789166147E+02  0.71895024238E+01 -0.34019970619E+01  0.18604801236E+02  0.10000000000E+01 0.  1.
        -13    1    6    6    0    0  0.29210550937E+02  0.21494212971E+01 -0.21018508619E+01  0.29365031926E+02  0.10500000000E+00 0. -1.
         13    1    6    6    0    0  0.14445877985E+02  0.10910020973E+01 -0.11140471437E+01  0.14530168697E+02  0.10500000000E+00 0.  1.
</event>
<event>
11    0  0.3494755E-009  0.9118800E+02  0.7816531E-02  0.1126479E+00
         25   -1    0    0    0    0  0.00000000000E+00  0.00000000000E+00  0.99999998245E-14  0.12500000000E+03  0.12500000000E+03 0.  0.
    3000001    1    3    3    0    0  0.11130559883E+02 -0.16712234986E+02 -0.37033821447E+02  0.42138961693E+02  0.10000000000E+01 0. -1.
    1000022    2    1    0    0    0  0.15052689216E+02 -0.30552202053E+02 -0.51441513848E+02  0.62499999692E+02  0.10000005581E+02 0.  0.
    3000022    2    3    3    0    0  0.39221293329E+01 -0.13839967067E+02 -0.14407692400E+02  0.20361037999E+02  0.24996236972E+00 0.  0.
    1000022    2    1    0    0    0 -0.15052689216E+02  0.30552202053E+02  0.51441513848E+02  0.62500000308E+02  0.10000009434E+02 0.  0.
    3000022    2    5    5    0    0 -0.30294510569E+01  0.37249000727E+01  0.14508956482E+02  0.15284788978E+02  0.25000331284E+00 0.  0.
        -13    1    4    4    0    0  0.17972856978E+01 -0.61804180491E+01 -0.65171635404E+01  0.91603629160E+01  0.10500000000E+00 0. -1.
         13    1    4    4    0    0  0.21248436350E+01 -0.76595490174E+01 -0.78905288599E+01  0.11200675083E+02  0.10500000000E+00 0.  1.
    3000001    1    5    5    0    0 -0.12023238159E+02  0.26827301980E+02  0.36932557366E+02  0.47215211330E+02  0.10000000000E+01 0. -1.
        -13    1    6    6    0    0 -0.23133195404E+01  0.28632728883E+01  0.11096915644E+02  0.11691977623E+02  0.10500000000E+00 0. -1.
         13    1    6    6    0    0 -0.71613151651E+00  0.86162718437E+00  0.34120408382E+01  0.35928113554E+01  0.10500000000E+00 0.  1.
</event>
<event>
11    0  0.3494755E-009  0.9118800E+02  0.7816531E-02  0.1126479E+00
         25   -1    0    0    0    0  0.00000000000E+00  0.00000000000E+00  0.99999998245E-14  0.12500000000E+03  0.12500000000E+03 0.  0.
    3000001    1    3    3    0    0 -0.69688275386E+01 -0.86573163530E+01  0.58415608532E+01  0.12595138622E+02  0.10000000000E+01 0.  1.
    1000022    2    1    0    0    0 -0.16718519537E+02 -0.49270007223E+02  0.33154297227E+02  0.62500000325E+02  0.10000005436E+02 0.  0.
    3000022    2    3    3    0    0 -0.97496919987E+01 -0.40612690870E+02  0.27312736374E+02  0.49904861703E+02  0.24999921608E+00 0.  0.
    1000022    2    1    0    0    0  0.16718519537E+02  0.49270007223E+02 -0.33154297227E+02  0.62499999675E+02  0.10000001376E+02 0.  0.
    3000022    2    5    5    0    0  0.88479889004E+01  0.23610087248E+02 -0.21830523029E+02  0.33352021911E+02  0.25000481995E+00 0.  0.
        -13    1    4    4    0    0 -0.70071443607E+01 -0.29353790050E+02  0.19739420543E+02  0.36061070571E+02  0.10500000000E+00 0.  1.
         13    1    4    4    0    0 -0.27425476380E+01 -0.11258900820E+02  0.75733158304E+01  0.13843791132E+02  0.10500000000E+00 0. -1.
    3000001    1    5    5    0    0  0.78705306369E+01  0.25659919976E+02 -0.11323774197E+02  0.29147977764E+02  0.10000000000E+01 0. -1.
        -13    1    6    6    0    0  0.48540415490E+01  0.12939055963E+02 -0.12053309371E+02  0.18337780137E+02  0.10500000000E+00 0. -1.
         13    1    6    6    0    0  0.39939473514E+01  0.10671031284E+02 -0.97772136582E+01  0.15014241774E+02  0.10500000000E+00 0.  1.
</event>
<event>
11    0  0.3494755E-009  0.9118800E+02  0.7816531E-02  0.1126479E+00
         25   -1    0    0    0    0  0.00000000000E+00  0.00000000000E+00  0.99999998245E-14  0.12500000000E+03  0.12500000000E+03 0.  0.
    3000001    1    3    3    0    0 -0.18451866192E+02 -0.33215899501E+02 -0.12074586005E+02  0.39881862705E+02  0.10000000000E+01 0. -1.
    1000022    2    1    0    0    0 -0.34081510413E+02 -0.47015790272E+02 -0.20837855085E+02  0.62500000323E+02  0.99999974417E+01 0.  0.
    3000022    2    3    3    0    0 -0.15629644221E+02 -0.13799890771E+02 -0.87632690797E+01  0.22618137618E+02  0.25000109748E+00 0.  0.
    1000022    2    1    0    0    0  0.34081510413E+02  0.47015790272E+02  0.20837855085E+02  0.62499999677E+02  0.99999934098E+01 0.  0.
    3000022    2    5    5    0    0  0.13673065897E+02  0.12315784105E+02  0.92463703747E+01  0.20595852468E+02  0.25000925832E+00 0.  0.
        -13    1    4    4    0    0 -0.93176568247E+01 -0.81465801836E+01 -0.52243589980E+01  0.13434673399E+02  0.10500000000E+00 0. -1.
         13    1    4    4    0    0 -0.63119873966E+01 -0.56533105878E+01 -0.35389100817E+01  0.91834642191E+01  0.10500000000E+00 0.  1.
    3000001    1    5    5    0    0  0.20408444516E+02  0.34700006168E+02  0.11591484710E+02  0.41904147210E+02  0.10000000000E+01 0.  1.
        -13    1    6    6    0    0  0.73430634015E+01  0.65639419690E+01  0.48861487882E+01  0.10995062040E+02  0.10500000000E+00 0.  1.
         13    1    6    6    0    0  0.63300024955E+01  0.57518421356E+01  0.43602215865E+01  0.96007904273E+01  0.10500000000E+00 0. -1.
</event>
<event>
11    0  0.3494755E-009  0.9118800E+02  0.7816531E-02  0.1126479E+00
         25   -1    0    0    0    0  0.00000000000E+00  0.00000000000E+00  0.99999998245E-14  0.12500000000E+03  0.12500000000E+03 0.  0.
    3000001    1    3    3    0    0 -0.22531270608E+02  0.27306388610E+02  0.35087039555E+01  0.35589436882E+02  0.10000000000E+01 0.  1.
    1000022    2    1    0    0    0 -0.41152310235E+02  0.45918539022E+02 -0.20555203610E+01  0.62499998965E+02  0.99999921581E+01 0.  0.
    3000022    2    3    3    0    0 -0.18621039627E+02  0.18612150412E+02 -0.55642243165E+01  0.26910562083E+02  0.24999933092E+00 0.  0.
    1000022    2    1    0    0    0  0.41152310235E+02 -0.45918539022E+02  0.20555203610E+01  0.62500001035E+02  0.10000005094E+02 0.  0.
    3000022    2    5    5    0    0  0.18130450030E+02 -0.15488495022E+02 -0.28459342195E+01  0.24016005893E+02  0.25000222761E+00 0.  0.
        -13    1    4    4    0    0 -0.89175012870E+01  0.90082718759E+01 -0.26708889264E+01  0.12954360812E+02  0.10500000000E+00 0. -1.
         13    1    4    4    0    0 -0.97035383396E+01  0.96038785358E+01 -0.28933353901E+01  0.13956201271E+02  0.10500000000E+00 0.  1.
    3000001    1    5    5    0    0  0.23021860204E+02 -0.30430044000E+02  0.49014545804E+01  0.38483995142E+02  0.10000000000E+01 0.  1.
        -13    1    6    6    0    0  0.11233228023E+02 -0.96110119336E+01 -0.18246035937E+01  0.14896213126E+02  0.10500000000E+00 0.  1.
         13    1    6    6    0    0  0.68972220070E+01 -0.58774830881E+01 -0.10213306257E+01  0.91197927669E+01  0.10500000000E+00 0. -1.
</event>
<event>
11    0  0.3494755E-009  0.9118800E+02  0.7816531E-02  0.1126479E+00
         25   -1    0    0    0    0  0.00000000000E+00  0.00000000000E+00  0.99999998245E-14  0.12500000000E+03  0.12500000000E+03 0.  0.
    3000001    1    3    3    0    0 -0.46424466582E+02  0.35506320990E+01 -0.18283362290E+02  0.50031184499E+02  0.10000000000E+01 0. -1.
    1000022    2    1    0    0    0 -0.55494250743E+02  0.74007945589E+01 -0.25920384424E+02  0.62499999520E+02  0.99999992826E+01 0.  0.
    3000022    2    3    3    0    0 -0.90697841608E+01  0.38501624600E+01 -0.76370221348E+01  0.12468815021E+02  0.25001050107E+00 0.  0.
    1000022    2    1    0    0    0  0.55494250743E+02 -0.74007945589E+01  0.25920384424E+02  0.62500000480E+02  0.10000005280E+02 0.  0.
    3000022    2    5    5    0    0  0.19921049577E+02 -0.19017749275E+01  0.14531156044E+02  0.24732204923E+02  0.25000050023E+00 0.  0.
        -13    1    4    4    0    0 -0.46761664879E+01  0.20499231721E+01 -0.39167203485E+01  0.64358714501E+01  0.10500000000E+00 0. -1.
         13    1    4    4    0    0 -0.43936176729E+01  0.18002392879E+01 -0.37203017863E+01  0.60329435710E+01  0.10500000000E+00 0.  1.
    3000001    1    5    5    0    0  0.35573201167E+02 -0.54990196315E+01  0.11389228380E+02  0.37767795557E+02  0.10000000000E+01 0.  1.
        -13    1    6    6    0    0  0.10109520358E+02 -0.90679662888E+00  0.73269337571E+01  0.12518772515E+02  0.10500000000E+00 0. -1.
         13    1    6    6    0    0  0.98115292184E+01 -0.99497829860E+00  0.72042222868E+01  0.12213432408E+02  0.10500000000E+00 0.  1.
</event>
<event>
11    0  0.3494755E-009  0.9118800E+02  0.7816531E-02  0.1126479E+00
         25   -1    0    0    0    0  0.00000000000E+00  0.00000000000E+00  0.99999998245E-14  0.12500000000E+03  0.12500000000E+03 0.  0.
    3000001    1    3    3    0    0  0.35892178490E+02 -0.13699000342E+02  0.20437284368E+02  0.43526930508E+02  0.10000000000E+01 0.  1.
    1000022    2    1    0    0    0  0.50617428546E+02 -0.13950034532E+02  0.32396332557E+02  0.62499999235E+02  0.10000000263E+02 0.  0.
    3000022    2    3    3    0    0  0.14725250056E+02 -0.25103418958E+00  0.11959048189E+02  0.18973068727E+02  0.24999193638E+00 0.  0.
    1000022    2    1    0    0    0 -0.50617428546E+02  0.13950034532E+02 -0.32396332557E+02  0.62500000765E+02  0.10000009820E+02 0.  0.
    3000022    2    5    5    0    0 -0.31909792805E+02  0.45785741043E+01 -0.22630724223E+02  0.39387947380E+02  0.25000440928E+00 0.  0.
        -13    1    4    4    0    0  0.53369925524E+01 -0.96980440775E-01  0.44098692577E+01  0.69246564233E+01  0.10500000000E+00 0.  1.
         13    1    4    4    0    0  0.93882575033E+01 -0.15405374880E+00  0.75491789313E+01  0.12048412304E+02  0.10500000000E+00 0. -1.
    3000001    1    5    5    0    0 -0.18707635740E+02  0.93714604276E+01 -0.97656083343E+01  0.23112053385E+02  0.10000000000E+01 0. -1.
        -13    1    6    6    0    0 -0.18528750967E+02  0.26483352202E+01 -0.13217780787E+02  0.22913948716E+02  0.10500000000E+00 0.  1.
         13    1    6    6    0    0 -0.13381041838E+02  0.19302388841E+01 -0.94129434364E+01  0.16473998663E+02  0.10500000000E+00 0. -1.
</event>
<event>
11    0  0.3494755E-009  0.9118800E+02  0.7816531E-02  0.1126479E+00
         25   -1    0    0    0    0  0.00000000000E+00  0.00000000000E+00  0.99999998245E-14  0.12500000000E+03  0.12500000000E+03 0.  0.
    3000001    1    3    3    0    0  0.80979737676E+01 -0.77796138685E+01  0.29179800900E+02  0.31281949294E+02  0.10000000000E+01 0. -1.
    1000022    2    1    0    0    0  0.15629345585E+02 -0.57376493982E+01  0.59405832752E+02  0.62499999893E+02  0.99999978764E+01 0.  0.
    3000022    2    3    3    0    0  0.75313718174E+01  0.20419644703E+01  0.30226031852E+02  0.31218050598E+02  0.25000252972E+00 0.  0.
    1000022    2    1    0    0    0 -0.15629345585E+02  0.57376493982E+01 -0.59405832752E+02  0.62500000107E+02  0.99999992194E+01 0.  0.
    3000022    2    5    5    0    0 -0.36586838003E+01  0.41660622881E+01 -0.32794175142E+02  0.33260524217E+02  0.25001153113E+00 0.  0.
        -13    1    4    4    0    0  0.42587800893E+01  0.11460191173E+01  0.17342326082E+02  0.17894632340E+02  0.10500000000E+00 0.  1.
         13    1    4    4    0    0  0.32725917281E+01  0.89594535305E+00  0.12883705770E+02  0.13323418258E+02  0.10500000000E+00 0. -1.
    3000001    1    5    5    0    0 -0.11970661785E+02  0.15715871101E+01 -0.26611657610E+02  0.29239475891E+02  0.10000000000E+01 0.  1.
        -13    1    6    6    0    0 -0.85964946792E+00  0.96302001080E+00 -0.76901648330E+01  0.77984655483E+01  0.10500000000E+00 0.  1.
         13    1    6    6    0    0 -0.27990343324E+01  0.32030422773E+01 -0.25104010309E+02  0.25462058668E+02  0.10500000000E+00 0. -1.
</event>
<event>
11    0  0.3494755E-009  0.9118800E+02  0.7816531E-02  0.1126479E+00
         25   -1    0    0    0    0  0.00000000000E+00  0.00000000000E+00  0.99999998245E-14  0.12500000000E+03  0.12500000000E+03 0.  0.
    3000001    1    3    3    0    0  0.10594820056E+02 -0.28326589629E+02 -0.43585251206E+01  0.30571925574E+02  0.10000000000E+01 0. -1.
    1000022    2    1    0    0    0  0.28959289015E+02 -0.54400494293E+02 -0.28628182659E+01  0.62499998945E+02  0.99999970081E+01 0.  0.
    3000022    2    3    3    0    0  0.18364468959E+02 -0.26073904664E+02  0.14957068547E+01  0.31928073372E+02  0.25001135565E+00 0.  0.
    1000022    2    1    0    0    0 -0.28959289015E+02  0.54400494293E+02  0.28628182659E+01  0.62500001055E+02  0.10000010193E+02 0.  0.
    3000022    2    5    5    0    0 -0.25207347343E+02  0.45306204729E+02  0.58350195095E+01  0.52174442996E+02  0.25000461096E+00 0.  0.
        -13    1    4    4    0    0  0.84289057001E+01 -0.12071516967E+02  0.72074844986E+00  0.14741047334E+02  0.10500000000E+00 0. -1.
         13    1    4    4    0    0  0.99355632591E+01 -0.14002387696E+02  0.77495840485E+00  0.17187026037E+02  0.10500000000E+00 0.  1.
    3000001    1    5    5    0    0 -0.37519416722E+01  0.90942895642E+01 -0.29722012436E+01  0.10325558059E+02  0.10000000000E+01 0.  1.
        -13    1    6    6    0    0 -0.19243070815E+02  0.34603456007E+02  0.44423227917E+01  0.39842693167E+02  0.10500000000E+00 0.  1.
         13    1    6    6    0    0 -0.59642765282E+01  0.10702748722E+02  0.13926967178E+01  0.12331749829E+02  0.10500000000E+00 0. -1.
</event>
<event>
11    0  0.3494755E-009  0.9118800E+02  0.7816531E-02  0.1126479E+00
         25   -1    0    0    0    0  0.00000000000E+00  0.00000000000E+00  0.99999998245E-14  0.12500000000E+03  0.12500000000E+03 0.  0.
    3000001    1    3    3    0    0 -0.15034107318E+02  0.23066337982E+02 -0.26508971026E+02  0.38233570009E+02  0.10000000000E+01 0. -1.
    1000022    2    1    0    0    0 -0.31234538186E+02  0.35053583245E+02 -0.40023742961E+02  0.62499998924E+02  0.99999895412E+01 0.  0.
    3000022    2    3    3    0    0 -0.16200430868E+02  0.11987245263E+02 -0.13514771935E+02  0.24266428915E+02  0.25000504583E+00 0.  0.
    1000022    2    1    0    0    0  0.31234538186E+02 -0.35053583245E+02  0.40023742961E+02  0.62500001076E+02  0.10000002993E+02 0.  0.
    3000022    2    5    5    0    0  0.13030295450E+02 -0.89790862097E+01  0.17002899569E+02  0.23228725572E+02  0.25001852880E+00 0.  0.
        -13    1    4    4    0    0 -0.95454503159E+01  0.71064399904E+01 -0.80446694541E+01  0.14364708236E+02  0.10500000000E+00 0.  1.
         13    1    4    4    0    0 -0.66549805520E+01  0.48808052726E+01 -0.54701024809E+01  0.99017206792E+01  0.10500000000E+00 0. -1.
    3000001    1    5    5    0    0  0.18204242737E+02 -0.26074497035E+02  0.23020843392E+02  0.39271275505E+02  0.10000000000E+01 0.  1.
        -13    1    6    6    0    0  0.50473638742E+01 -0.34885279035E+01  0.65032377694E+01  0.89414112699E+01  0.10500000000E+00 0.  1.
         13    1    6    6    0    0  0.79829315753E+01 -0.54905583062E+01  0.10499661800E+02  0.14287314302E+02  0.10500000000E+00 0. -1.
</event>
<event>
11    0  0.3494755E-009  0.9118800E+02  0.7816531E-02  0.1126479E+00
         25   -1    0    0    0    0  0.00000000000E+00  0.00000000000E+00  0.99999998245E-14  0.12500000000E+03  0.12500000000E+03 0.  0.
    3000001    1    3    3    0    0  0.53492149273E+01 -0.54286695918E+02 -0.64811595699E+01  0.54942377846E+02  0.10000000000E+01 0.  1.
    1000022    2    1    0    0    0  0.94817276031E+01 -0.60447254180E+02 -0.79041919760E+01  0.62500000680E+02  0.10000006895E+02 0.  0.
    3000022    2    3    3    0    0  0.41325126758E+01 -0.61605582625E+01 -0.14230324061E+01  0.75576228336E+01  0.25000509044E+00 0.  0.
    1000022    2    1    0    0    0 -0.94817276031E+01  0.60447254180E+02  0.79041919760E+01  0.62499999320E+02  0.99999984003E+01 0.  0.
    3000022    2    5    5    0    0 -0.14772683922E+01  0.33863014587E+02  0.11801398768E+01  0.33916681832E+02  0.24999510363E+00 0.  0.
        -13    1    4    4    0    0  0.20650014803E+01 -0.29784738096E+01 -0.65583773327E+00  0.36846554086E+01  0.10500000000E+00 0. -1.
         13    1    4    4    0    0  0.20675111955E+01 -0.31820844529E+01 -0.76719467285E+00  0.38729674250E+01  0.10500000000E+00 0.  1.
    3000001    1    5    5    0    0 -0.80044592110E+01  0.26584239593E+02  0.67240520992E+01  0.28583317488E+02  0.10000000000E+01 0.  1.
        -13    1    6    6    0    0 -0.43073231979E+00  0.93164037757E+01  0.35390825738E+00  0.93336587520E+01  0.10500000000E+00 0.  1.
         13    1    6    6    0    0 -0.10465360724E+01  0.24546610811E+02  0.82623161943E+00  0.24583023080E+02  0.10500000000E+00 0. -1.
</event>
<event>
11    0  0.3494755E-009  0.9118800E+02  0.7816531E-02  0.1126479E+00
         25   -1    0    0    0    0  0.00000000000E+00  0.00000000000E+00  0.99999998245E-14  0.12500000000E+03  0.12500000000E+03 0.  0.
    3000001    1    3    3    0    0  0.35980944909E+02  0.47650668506E+01  0.17950867291E+02  0.40503924441E+02  0.10000000000E+01 0.  1.
    1000022    2    1    0    0    0  0.52121560753E+02  0.34186344055E+01  0.32831475233E+02  0.62500000197E+02  0.10000005108E+02 0.  0.
    3000022    2    3    3    0    0  0.16140615844E+02 -0.13464324451E+01  0.14880607942E+02  0.21996075756E+02  0.24999159290E+00 0.  0.
    1000022    2    1    0    0    0 -0.52121560753E+02 -0.34186344055E+01 -0.32831475233E+02  0.62499999803E+02  0.10000002642E+02 0.  0.
    3000022    2    5    5    0    0 -0.35140190561E+02  0.20671871330E+01 -0.23625824690E+02  0.42395145327E+02  0.24999949565E+00 0.  0.
        -13    1    4    4    0    0  0.12090504552E+02 -0.98197155194E+00  0.11150418189E+02  0.16476875288E+02  0.10500000000E+00 0. -1.
         13    1    4    4    0    0  0.40501112923E+01 -0.36446089316E+00  0.37301897529E+01  0.55192004689E+01  0.10500000000E+00 0.  1.
    3000001    1    5    5    0    0 -0.16981370192E+02 -0.54858215385E+01 -0.92056505426E+01  0.20104854475E+02  0.10000000000E+01 0. -1.
        -13    1    6    6    0    0 -0.24447617142E+02  0.14813187234E+01 -0.16460860221E+02  0.29510188635E+02  0.10500000000E+00 0.  1.
         13    1    6    6    0    0 -0.10692573419E+02  0.58586840956E+00 -0.71649644692E+01  0.12884956692E+02  0.10500000000E+00 0. -1.
</event>
<event>
11    0  0.3494755E-009  0.9118800E+02  0.7816531E-02  0.1126479E+00
         25   -1    0    0    0    0  0.00000000000E+00  0.00000000000E+00  0.99999998245E-14  0.12500000000E+03  0.12500000000E+03 0.  0.
    3000001    1    3    3    0    0 -0.16906711766E+02  0.16412835671E+01  0.43363424623E+01  0.17559458432E+02  0.10000000000E+01 0.  1.
    1000022    2    1    0    0    0 -0.60972204276E+02  0.94134801510E+01  0.16319476607E+00  0.62500000612E+02  0.10000007052E+02 0.  0.
    3000022    2    3    3    0    0 -0.44065492511E+02  0.77721965839E+01 -0.41731476963E+01  0.44940542179E+02  0.24999948879E+00 0.  0.
    1000022    2    1    0    0    0  0.60972204276E+02 -0.94134801510E+01 -0.16319476607E+00  0.62499999388E+02  0.99999994073E+01 0.  0.
    3000022    2    5    5    0    0  0.42494200575E+02 -0.94362769214E+01 -0.35995085223E+01  0.43678591558E+02  0.24998851316E+00 0.  0.
        -13    1    4    4    0    0 -0.15188253717E+02  0.26325423021E+01 -0.14695084068E+01  0.15484954308E+02  0.10500000000E+00 0. -1.
         13    1    4    4    0    0 -0.28877238793E+02  0.51396542818E+01 -0.27036392895E+01  0.29455587872E+02  0.10500000000E+00 0.  1.
    3000001    1    5    5    0    0  0.18478003701E+02  0.22796770451E-01  0.34363137562E+01  0.18821407830E+02  0.10000000000E+01 0.  1.
        -13    1    6    6    0    0  0.23147837372E+02 -0.52087157653E+01 -0.19620850641E+01  0.23807853698E+02  0.10500000000E+00 0. -1.
         13    1    6    6    0    0  0.19346363204E+02 -0.42275611562E+01 -0.16374234582E+01  0.19870737861E+02  0.10500000000E+00 0.  1.
</event>
<event>
11    0  0.3494755E-009  0.9118800E+02  0.7816531E-02  0.1126479E+00
         25   -1    0    0    0    0  0.00000000000E+00  0.00000000000E+00  0.99999998245E-14  0.12500000000E+03  0.12500000000E+03 0.  0.
    3000001    1    3    3    0    0 -0.73427768079E+01  0.20680896770E+02  0.47170977006E+02  0.52035727478E+02  0.10000000000E+01 0. -1.
    1000022    2    1    0    0    0 -0.96714155860E+01  0.28282281554E+02  0.53970596723E+02  0.62499996537E+02  0.10000026358E+02 0.  0.
    3000022    2    3    3    0    0 -0.23286387781E+01  0.76013847837E+01  0.67996197169E+01  0.10464269059E+02  0.24997890616E+00 0.  0.
    1000022    2    1    0    0    0  0.96714155860E+01 -0.28282281554E+02 -0.53970596723E+02  0.62500003463E+02  0.10000069646E+02 0.  0.
    3000022    2    5    5    0    0  0.95943376861E+01 -0.14286251300E+02 -0.25577997989E+02  0.30829284072E+02  0.24996686319E+00 0.  0.
        -13    1    4    4    0    0 -0.79054975964E+00  0.26526008636E+01  0.24368337472E+01  0.36892335214E+01  0.10500000000E+00 0. -1.
         13    1    4    4    0    0 -0.15380890184E+01  0.49487839201E+01  0.43627859697E+01  0.67750355375E+01  0.10500000000E+00 0.  1.
    3000001    1    5    5    0    0  0.77077899873E-01 -0.13996030254E+02 -0.28392598734E+02  0.31670719391E+02  0.10000000000E+01 0. -1.
        -13    1    6    6    0    0  0.47068380149E+01 -0.70767722495E+01 -0.12732838855E+02  0.15309188087E+02  0.10500000000E+00 0.  1.
         13    1    6    6    0    0  0.48874996712E+01 -0.72094790509E+01 -0.12845159133E+02  0.15520095985E+02  0.10500000000E+00 0. -1.
</event>
<event>
11    0  0.3494755E-009  0.9118800E+02  0.7816531E-02  0.1126479E+00
         25   -1    0    0    0    0  0.00000000000E+00  0.00000000000E+00  0.99999998245E-14  0.12500000000E+03  0.12500000000E+03 0.  0.
    3000001    1    3    3    0    0 -0.40527002173E+02 -0.20985929922E+02 -0.25588689046E+02  0.52331903911E+02  0.10000000000E+01 0.  1.
    1000022    2    1    0    0    0 -0.46102963653E+02 -0.23216481781E+02 -0.33789969661E+02  0.62500003089E+02  0.10000002624E+02 0.  0.
    3000022    2    3    3    0    0 -0.55759614808E+01 -0.22305518586E+01 -0.82012806145E+01  0.10168099178E+02  0.25005828532E+00 0.  0.
    1000022    2    1    0    0    0  0.46102963653E+02  0.23216481781E+02  0.33789969661E+02  0.62499996911E+02  0.99999640176E+01 0.  0.
    3000022    2    5    5    0    0  0.45920761247E+02  0.22422158672E+02  0.32006291089E+02  0.60298711794E+02  0.24992361918E+00 0.  0.
        -13    1    4    4    0    0 -0.42957348231E+01 -0.17103363182E+01 -0.63136171456E+01  0.78263257313E+01  0.10500000000E+00 0.  1.
         13    1    4    4    0    0 -0.12802266577E+01 -0.52021554038E+00 -0.18876634689E+01  0.23417734467E+01  0.10500000000E+00 0. -1.
    3000001    1    5    5    0    0  0.18220240663E+00  0.79432310924E+00  0.17836785720E+01  0.22012851172E+01  0.10000000000E+01 0.  1.
        -13    1    6    6    0    0  0.11583674742E+02  0.56276939084E+01  0.80778364056E+01  0.15202464447E+02  0.10500000000E+00 0.  1.
         13    1    6    6    0    0  0.34337086505E+02  0.16794464763E+02  0.23928454683E+02  0.45096247347E+02  0.10500000000E+00 0. -1.
</event>
<event>
11    0  0.3494755E-009  0.9118800E+02  0.7816531E-02  0.1126479E+00
         25   -1    0    0    0    0  0.00000000000E+00  0.00000000000E+00  0.99999998245E-14  0.12500000000E+03  0.12500000000E+03 0.  0.
    3000001    1    3    3    0    0  0.19753120827E+02  0.11437444708E+02 -0.23566578522E+02  0.32823536480E+02  0.10000000000E+01 0.  1.
    1000022    2    1    0    0    0  0.43971356151E+02  0.20657354942E+02 -0.38026876983E+02  0.62499999549E+02  0.10000004781E+02 0.  0.
    3000022    2    3    3    0    0  0.24218235324E+02  0.92199102338E+01 -0.14460298462E+02  0.29676463069E+02  0.25012348565E+00 0.  0.
    1000022    2    1    0    0    0 -0.43971356151E+02 -0.20657354942E+02  0.38026876983E+02  0.62500000451E+02  0.10000010412E+02 0.  0.
    3000022    2    5    5    0    0 -0.42934684334E+02 -0.18415338225E+02  0.34482649894E+02  0.58065716621E+02  0.25000448769E+00 0.  0.
        -13    1    4    4    0    0  0.10847555928E+02  0.41961173543E+01 -0.64621936110E+01  0.13305932577E+02  0.10500000000E+00 0. -1.
         13    1    4    4    0    0  0.13370679396E+02  0.50237928795E+01 -0.79981048508E+01  0.16370530493E+02  0.10500000000E+00 0.  1.
    3000001    1    5    5    0    0 -0.10366718171E+01 -0.22420167177E+01  0.35442270892E+01  0.44342838292E+01  0.10000000000E+01 0. -1.
        -13    1    6    6    0    0 -0.16996387271E+02 -0.72492045458E+01  0.13576449617E+02  0.22929438633E+02  0.10500000000E+00 0. -1.
         13    1    6    6    0    0 -0.25938297063E+02 -0.11166133679E+02  0.20906200277E+02  0.35136277989E+02  0.10500000000E+00 0.  1.
</event>
<event>
11    0  0.3494755E-009  0.9118800E+02  0.7816531E-02  0.1126479E+00
         25   -1    0    0    0    0  0.00000000000E+00  0.00000000000E+00  0.99999998245E-14  0.12500000000E+03  0.12500000000E+03 0.  0.
    3000001    1    3    3    0    0 -0.57498792087E+01 -0.62763586901E+01  0.31276777887E+01  0.91233852090E+01  0.10000000000E+01 0.  1.
    1000022    2    1    0    0    0 -0.53997366578E+02 -0.26751526183E+02  0.13224608094E+02  0.62500000185E+02  0.10000000675E+02 0.  0.
    3000022    2    3    3    0    0 -0.48247487369E+02 -0.20475167493E+02  0.10096930305E+02  0.53376614976E+02  0.25000693878E+00 0.  0.
    1000022    2    1    0    0    0  0.53997366578E+02  0.26751526183E+02 -0.13224608094E+02  0.62499999815E+02  0.99999983589E+01 0.  0.
    3000022    2    5    5    0    0  0.20008281161E+02  0.11774186450E+02 -0.97522215447E+01  0.25181959924E+02  0.24999796443E+00 0.  0.
        -13    1    4    4    0    0 -0.35855801277E+02 -0.15242785082E+02  0.74876826936E+01  0.39674392237E+02  0.10500000000E+00 0.  1.
         13    1    4    4    0    0 -0.12391686092E+02 -0.52323824113E+01  0.26092476111E+01  0.13702222739E+02  0.10500000000E+00 0. -1.
    3000001    1    5    5    0    0  0.33989085417E+02  0.14977339733E+02 -0.34723865488E+01  0.37318039891E+02  0.10000000000E+01 0. -1.
        -13    1    6    6    0    0  0.12643412532E+02  0.75087106834E+01 -0.61787137927E+01  0.15950678534E+02  0.10500000000E+00 0.  1.
         13    1    6    6    0    0  0.73648686290E+01  0.42654757667E+01 -0.35735077519E+01  0.92312813895E+01  0.10500000000E+00 0. -1.
</event>
<event>
11    0  0.3494755E-009  0.9118800E+02  0.7816531E-02  0.1126479E+00
         25   -1    0    0    0    0  0.00000000000E+00  0.00000000000E+00  0.99999998245E-14  0.12500000000E+03  0.12500000000E+03 0.  0.
    3000001    1    3    3    0    0 -0.37230430726E+00  0.45655311253E+00  0.34707675370E+00  0.12114097221E+01  0.10000000000E+01 0. -1.
    1000022    2    1    0    0    0  0.15388371518E+02  0.58454844222E+02  0.12348240163E+02  0.62499998345E+02  0.99999983533E+01 0.  0.
    3000022    2    3    3    0    0  0.15760675825E+02  0.57998291109E+02  0.12001163410E+02  0.61288588623E+02  0.24999636988E+00 0.  0.
    1000022    2    1    0    0    0 -0.15388371518E+02 -0.58454844222E+02 -0.12348240163E+02  0.62500001655E+02  0.10000019037E+02 0.  0.
    3000022    2    5    5    0    0 -0.59751174810E+01 -0.93129115788E+01 -0.39696886945E+01  0.11758115405E+02  0.24999712527E+00 0.  0.
        -13    1    4    4    0    0  0.11964336939E+02  0.43992832492E+02  0.90848620913E+01  0.46487206985E+02  0.10500000000E+00 0. -1.
         13    1    4    4    0    0  0.37963388860E+01  0.14005458618E+02  0.29163013185E+01  0.14801381638E+02  0.10500000000E+00 0.  1.
    3000001    1    5    5    0    0 -0.94132540371E+01 -0.49141932643E+02 -0.83785514690E+01  0.50741886250E+02  0.10000000000E+01 0.  1.
        -13    1    6    6    0    0 -0.43697807863E+01 -0.68283325525E+01 -0.28722803976E+01  0.86012864881E+01  0.10500000000E+00 0. -1.
         13    1    6    6    0    0 -0.16053366947E+01 -0.24845790263E+01 -0.10974082969E+01  0.31568289170E+01  0.10500000000E+00 0.  1.
</event>
<event>
11    0  0.3494755E-009  0.9118800E+02  0.7816531E-02  0.1126479E+00
         25   -1    0    0    0    0  0.00000000000E+00  0.00000000000E+00  0.99999998245E-14  0.12500000000E+03  0.12500000000E+03 0.  0.
    3000001    1    3    3    0    0 -0.16494255729E+01  0.76074797493E+01  0.56535773108E+01  0.96725017067E+01  0.10000000000E+01 0. -1.
    1000022    2    1    0    0    0  0.82393538590E+01  0.55411652466E+02  0.25844012402E+02  0.62499985644E+02  0.99998523712E+01 0.  0.
    3000022    2    3    3    0    0  0.98887794319E+01  0.47804172716E+02  0.20190435091E+02  0.52827483937E+02  0.25000440365E+00 0.  0.
    1000022    2    1    0    0    0 -0.82393538590E+01 -0.55411652466E+02 -0.25844012402E+02  0.62500014356E+02  0.10000031823E+02 0.  0.
    3000022    2    5    5    0    0 -0.18731686885E+01 -0.13303255328E+02 -0.11078351004E+02  0.17414870687E+02  0.24999363130E+00 0.  0.
        -13    1    4    4    0    0  0.43020464332E+01  0.21121651861E+02  0.89069812669E+01  0.23323317113E+02  0.10500000000E+00 0. -1.
         13    1    4    4    0    0  0.55867329987E+01  0.26682520855E+02  0.11283453825E+02  0.29504166824E+02  0.10500000000E+00 0.  1.
    3000001    1    5    5    0    0 -0.63661851705E+01 -0.42108397138E+02 -0.14765661398E+02  0.45085143669E+02  0.10000000000E+01 0. -1.
        -13    1    6    6    0    0 -0.81328213913E+00 -0.59895086480E+01 -0.50618108896E+01  0.78847064729E+01  0.10500000000E+00 0.  1.
         13    1    6    6    0    0 -0.10598865494E+01 -0.73137466799E+01 -0.60165401147E+01  0.95301642141E+01  0.10500000000E+00 0. -1.
</event>
<event>
11    0  0.3494755E-009  0.9118800E+02  0.7816531E-02  0.1126479E+00
         25   -1    0    0    0    0  0.00000000000E+00  0.00000000000E+00  0.99999998245E-14  0.12500000000E+03  0.12500000000E+03 0.  0.
    3000001    1    3    3    0    0 -0.14367183335E+01 -0.26459183366E+01 -0.45736946717E+01  0.55663027553E+01  0.10000000000E+01 0.  1.
    1000022    2    1    0    0    0 -0.42478821940E+02 -0.21971230161E+02 -0.38975172922E+02  0.62500002337E+02  0.10000045983E+02 0.  0.
    3000022    2    3    3    0    0 -0.41042103606E+02 -0.19325311824E+02 -0.34401478250E+02  0.56933699582E+02  0.24999346208E+00 0.  0.
    1000022    2    1    0    0    0  0.42478821940E+02  0.21971230161E+02  0.38975172922E+02  0.62499997663E+02  0.10000016770E+02 0.  0.
    3000022    2    5    5    0    0  0.30911447487E+02  0.14675490362E+02  0.22011917359E+02  0.40687523933E+02  0.24998966484E+00 0.  0.
        -13    1    4    4    0    0 -0.15419344833E+02 -0.73224437681E+01 -0.12972589028E+02  0.21439996942E+02  0.10500000000E+00 0.  1.
         13    1    4    4    0    0 -0.25622758773E+02 -0.12002868056E+02 -0.21428889223E+02  0.35493702639E+02  0.10500000000E+00 0. -1.
    3000001    1    5    5    0    0  0.11567374452E+02  0.72957397992E+01  0.16963255563E+02  0.21812473730E+02  0.10000000000E+01 0. -1.
        -13    1    6    6    0    0  0.72120172103E+01  0.34233268260E+01  0.51210499551E+01  0.94851745604E+01  0.10500000000E+00 0. -1.
         13    1    6    6    0    0  0.23699430277E+02  0.11252163536E+02  0.16890867404E+02  0.31202349372E+02  0.10500000000E+00 0.  1.
</event>
<event>
11    0  0.3494755E-009  0.9118800E+02  0.7816531E-02  0.1126479E+00
         25   -1    0    0    0    0  0.00000000000E+00  0.00000000000E+00  0.99999998245E-14  0.12500000000E+03  0.12500000000E+03 0.  0.
    3000001    1    3    3    0    0 -0.35345206524E+01 -0.57105022650E+02  0.15097081431E+02  0.59181063828E+02  0.10000000000E+01 0.  1.
    1000022    2    1    0    0    0 -0.16302564117E+01 -0.59811200007E+02  0.15040363750E+02  0.62499999513E+02  0.10000000755E+02 0.  0.
    3000022    2    3    3    0    0  0.19042642407E+01 -0.27061773570E+01 -0.56717680955E-01  0.33189356845E+01  0.24999799324E+00 0.  0.
    1000022    2    1    0    0    0  0.16302564117E+01  0.59811200007E+02 -0.15040363750E+02  0.62500000487E+02  0.10000006847E+02 0.  0.
    3000022    2    5    5    0    0 -0.13050992516E+01  0.47943944483E+02 -0.88923714299E+01  0.48779728037E+02  0.25000213396E+00 0.  0.
        -13    1    4    4    0    0  0.99653924593E+00 -0.13167758116E+01  0.81339814567E-02  0.16547145278E+01  0.10500000000E+00 0. -1.
         13    1    4    4    0    0  0.90772499479E+00 -0.13894015454E+01 -0.64851662411E-01  0.16642211567E+01  0.10500000000E+00 0. -1.
    3000001    1    5    5    0    0  0.29353556633E+01  0.11867255523E+02 -0.61479923203E+01  0.13720272450E+02  0.10000000000E+01 0. -1.
        -13    1    6    6    0    0 -0.75696161986E+00  0.25731750635E+02 -0.48098776443E+01  0.26188583956E+02  0.10500000000E+00 0. -1.
         13    1    6    6    0    0 -0.54813763171E+00  0.22212193848E+02 -0.40824937856E+01  0.22591144082E+02  0.10500000000E+00 0.  1.
</event>
<event>
11    0  0.3494755E-009  0.9118800E+02  0.7816531E-02  0.1126479E+00
         25   -1    0    0    0    0  0.00000000000E+00  0.00000000000E+00  0.99999998245E-14  0.12500000000E+03  0.12500000000E+03 0.  0.
    3000001    1    3    3    0    0  0.11161847899E+02  0.13930776558E+02  0.89959089664E+00  0.17901470549E+02  0.10000000000E+01 0.  1.
    1000022    2    1    0    0    0  0.45074337785E+02  0.41156472443E+02 -0.89832587980E+01  0.62499998628E+02  0.99999869572E+01 0.  0.
    3000022    2    3    3    0    0  0.33912489887E+02  0.27225695885E+02 -0.98828496946E+01  0.44598528080E+02  0.25000407723E+00 0.  0.
    1000022    2    1    0    0    0 -0.45074337785E+02 -0.41156472443E+02  0.89832587980E+01  0.62500001372E+02  0.10000004102E+02 0.  0.
    3000022    2    5    5    0    0 -0.35574635009E+02 -0.35378056248E+02  0.10424185806E+02  0.51243415867E+02  0.25000027778E+00 0.  0.
        -13    1    4    4    0    0  0.19408159025E+02  0.15623035411E+02 -0.56037875896E+01  0.25537606242E+02  0.10500000000E+00 0.  1.
         13    1    4    4    0    0  0.14504330861E+02  0.11602660474E+02 -0.42790621050E+01  0.19060921838E+02  0.10500000000E+00 0. -1.
    3000001    1    5    5    0    0 -0.94997027766E+01 -0.57784161953E+01 -0.14409270082E+01  0.11256585504E+02  0.10000000000E+01 0.  1.
        -13    1    6    6    0    0 -0.22353936037E+02 -0.22194535998E+02  0.64896317165E+01  0.32162435065E+02  0.10500000000E+00 0.  1.
         13    1    6    6    0    0 -0.13220698972E+02 -0.13183520250E+02  0.39345540897E+01  0.19080980802E+02  0.10500000000E+00 0. -1.
</event>
<event>
11    0  0.3494755E-009  0.9118800E+02  0.7816531E-02  0.1126479E+00
         25   -1    0    0    0    0  0.00000000000E+00  0.00000000000E+00  0.99999998245E-14  0.12500000000E+03  0.12500000000E+03 0.  0.
    3000001    1    3    3    0    0 -0.14680445463E+02 -0.30034330765E+02  0.33785770531E+02  0.47540033592E+02  0.10000000000E+01 0.  1.
    1000022    2    1    0    0    0 -0.14408345683E+02 -0.41766345004E+02  0.43060677638E+02  0.62500000494E+02  0.10000005137E+02 0.  0.
    3000022    2    3    3    0    0  0.27209978036E+00 -0.11732014239E+02  0.92749071069E+01  0.14959966902E+02  0.25002294713E+00 0.  0.
    1000022    2    1    0    0    0  0.14408345683E+02  0.41766345004E+02 -0.43060677638E+02  0.62499999506E+02  0.99999989677E+01 0.  0.
    3000022    2    5    5    0    0  0.12702617373E+01  0.17661884538E+02 -0.14688576926E+02  0.23008097008E+02  0.25001103299E+00 0.  0.
        -13    1    4    4    0    0  0.21810675352E+00 -0.67801285474E+01  0.53318224551E+01  0.86288509877E+01  0.10500000000E+00 0. -1.
         13    1    4    4    0    0  0.53993026844E-01 -0.49518856912E+01  0.39430846518E+01  0.63311159141E+01  0.10500000000E+00 0.  1.
    3000001    1    5    5    0    0  0.13138083946E+02  0.24104460466E+02 -0.28372100712E+02  0.39491902498E+02  0.10000000000E+01 0.  1.
        -13    1    6    6    0    0  0.84140733846E+00  0.11098710650E+02 -0.92862633215E+01  0.14496035868E+02  0.10500000000E+00 0. -1.
         13    1    6    6    0    0  0.42885439881E+00  0.65631738880E+01 -0.54023136049E+01  0.85120611409E+01  0.10500000000E+00 0.  1.
</event>
<event>
11    0  0.3494755E-009  0.9118800E+02  0.7816531E-02  0.1126479E+00
         25   -1    0    0    0    0  0.00000000000E+00  0.00000000000E+00  0.99999998245E-14  0.12500000000E+03  0.12500000000E+03 0.  0.
    3000001    1    3    3    0    0  0.49552315924E+02  0.67331187980E+01 -0.31955824690E+02  0.59354373334E+02  0.10000000000E+01 0. -1.
    1000022    2    1    0    0    0  0.52646059737E+02  0.64959455460E+01 -0.31503096142E+02  0.62500000026E+02  0.10000001118E+02 0.  0.
    3000022    2    3    3    0    0  0.30937438126E+01 -0.23717325203E+00  0.45272854793E+00  0.31456266924E+01  0.25000444026E+00 0.  0.
    1000022    2    1    0    0    0 -0.52646059737E+02 -0.64959455460E+01  0.31503096142E+02  0.62499999974E+02  0.10000000792E+02 0.  0.
    3000022    2    5    5    0    0 -0.33512165612E+02 -0.69404236152E+01  0.15671945965E+02  0.37641826649E+02  0.24999832786E+00 0.  0.
        -13    1    4    4    0    0  0.18838712473E+01 -0.84655141118E-01  0.29312078129E+00  0.19113037858E+01  0.10500000000E+00 0. -1.
         13    1    4    4    0    0  0.12098725653E+01 -0.15251811092E+00  0.15960776664E+00  0.12343229066E+01  0.10500000000E+00 0.  1.
    3000001    1    5    5    0    0 -0.19133894125E+02  0.44447806921E+00  0.15831150177E+02  0.24858173325E+02  0.10000000000E+01 0.  1.
        -13    1    6    6    0    0 -0.24950074825E+02 -0.51828436639E+01  0.11696656876E+02  0.28039096085E+02  0.10500000000E+00 0. -1.
         13    1    6    6    0    0 -0.85620907870E+01 -0.17575799513E+01  0.39752890890E+01  0.96027305633E+01  0.10500000000E+00 0.  1.
</event>
<event>
11    0  0.3494755E-009  0.9118800E+02  0.7816531E-02  0.1126479E+00
         25   -1    0    0    0    0  0.00000000000E+00  0.00000000000E+00  0.99999998245E-14  0.12500000000E+03  0.12500000000E+03 0.  0.
    3000001    1    3    3    0    0 -0.68713282541E+01  0.16055393621E+02 -0.29987521514E+02  0.34716599241E+02  0.10000000000E+01 0. -1.
    1000022    2    1    0    0    0 -0.16422723070E+02  0.34498246348E+02 -0.48439809068E+02  0.62499999725E+02  0.10000001445E+02 0.  0.
    3000022    2    3    3    0    0 -0.95513948163E+01  0.18442852727E+02 -0.18452287554E+02  0.27783400484E+02  0.24993361789E+00 0.  0.
    1000022    2    1    0    0    0  0.16422723070E+02 -0.34498246348E+02  0.48439809068E+02  0.62500000275E+02  0.10000004882E+02 0.  0.
    3000022    2    5    5    0    0  0.17037857148E+02 -0.27185535613E+02  0.39701597551E+02  0.51045286453E+02  0.24999632201E+00 0.  0.
        -13    1    4    4    0    0 -0.58399604952E+01  0.11148233732E+02 -0.11208046212E+02  0.16852880431E+02  0.10500000000E+00 0. -1.
         13    1    4    4    0    0 -0.37114343211E+01  0.72946189953E+01 -0.72442413421E+01  0.10930520053E+02  0.10500000000E+00 0.  1.
    3000001    1    5    5    0    0 -0.61513407789E+00 -0.73127107347E+01  0.87382115177E+01  0.11454713822E+02  0.10000000000E+01 0.  1.
        -13    1    6    6    0    0  0.10134761258E+02 -0.16245255625E+02  0.23772536500E+02  0.30524846154E+02  0.10500000000E+00 0. -1.
         13    1    6    6    0    0  0.69030958905E+01 -0.10940279988E+02  0.15929061050E+02  0.20520440298E+02  0.10500000000E+00 0.  1.
</event>
<event>
11    0  0.3494755E-009  0.9118800E+02  0.7816531E-02  0.1126479E+00
         25   -1    0    0    0    0  0.00000000000E+00  0.00000000000E+00  0.99999998245E-14  0.12500000000E+03  0.12500000000E+03 0.  0.
    3000001    1    3    3    0    0 -0.20826916860E+00 -0.12709879546E+01  0.18762841135E+00  0.16413381273E+01  0.10000000000E+01 0.  1.
    1000022    2    1    0    0    0 -0.79151013331E+01 -0.32008625499E+02  0.52144501406E+02  0.62500000303E+02  0.10000003772E+02 0.  0.
    3000022    2    3    3    0    0 -0.77068321645E+01 -0.30737637545E+02  0.51956872995E+02  0.60858662175E+02  0.24997302292E+00 0.  0.
    1000022    2    1    0    0    0  0.79151013331E+01  0.32008625499E+02 -0.52144501406E+02  0.62499999697E+02  0.99999999902E+01 0.  0.
    3000022    2    5    5    0    0  0.66856476797E+01  0.13202696916E+02 -0.29635490200E+02  0.33126030070E+02  0.24999618051E+00 0.  0.
        -13    1    4    4    0    0 -0.22781210360E+01 -0.89822730458E+01  0.15125685965E+02  0.17738896962E+02  0.10500000000E+00 0. -1.
         13    1    4    4    0    0 -0.54287111285E+01 -0.21755364499E+02  0.36831187030E+02  0.43119765213E+02  0.10500000000E+00 0.  1.
    3000001    1    5    5    0    0  0.12294536535E+01  0.18805928583E+02 -0.22509011207E+02  0.29373969627E+02  0.10000000000E+01 0. -1.
        -13    1    6    6    0    0  0.38144470877E+01  0.76756031234E+01 -0.17148731718E+02  0.19171721739E+02  0.10500000000E+00 0.  1.
         13    1    6    6    0    0  0.28712005920E+01  0.55270937931E+01 -0.12486758481E+02  0.13954308331E+02  0.10500000000E+00 0.  1.
</event>
<event>
11    0  0.3494755E-009  0.9118800E+02  0.7816531E-02  0.1126479E+00
         25   -1    0    0    0    0  0.00000000000E+00  0.00000000000E+00  0.99999998245E-14  0.12500000000E+03  0.12500000000E+03 0.  0.
    3000001    1    3    3    0    0 -0.56083280280E+01  0.12669201916E+02 -0.67371256583E+01  0.15438616602E+02  0.10000000000E+01 0. -1.
    1000022    2    1    0    0    0 -0.10743348758E+02  0.58254363082E+02 -0.17241216965E+02  0.62499999756E+02  0.10000002322E+02 0.  0.
    3000022    2    3    3    0    0 -0.51350207301E+01  0.45585161166E+02 -0.10504091307E+02  0.47061383154E+02  0.24998745362E+00 0.  0.
    1000022    2    1    0    0    0  0.10743348758E+02 -0.58254363082E+02  0.17241216965E+02  0.62500000244E+02  0.10000005371E+02 0.  0.
    3000022    2    5    5    0    0  0.18971515410E+01 -0.28015089344E+02  0.42273699629E+01  0.28396787856E+02  0.24997758543E+00 0.  0.
        -13    1    4    4    0    0 -0.17217802578E+01  0.14848495006E+02 -0.34045218633E+01  0.15331148858E+02  0.10500000000E+00 0.  1.
         13    1    4    4    0    0 -0.34132404724E+01  0.30736666160E+02 -0.70995694434E+01  0.31730234295E+02  0.10500000000E+00 0. -1.
    3000001    1    5    5    0    0  0.88461972170E+01 -0.30239273738E+02  0.13013847002E+02  0.34103212388E+02  0.10000000000E+01 0.  1.
        -13    1    6    6    0    0  0.77878765673E+00 -0.11112344869E+02  0.16195175457E+01  0.11257201286E+02  0.10500000000E+00 0. -1.
         13    1    6    6    0    0  0.11183638843E+01 -0.16902744475E+02  0.26078524172E+01  0.17139586570E+02  0.10500000000E+00 0.  1.
</event>
<event>
11    0  0.3494755E-009  0.9118800E+02  0.7816531E-02  0.1126479E+00
         25   -1    0    0    0    0  0.00000000000E+00  0.00000000000E+00  0.99999998245E-14  0.12500000000E+03  0.12500000000E+03 0.  0.
    3000001    1    3    3    0    0  0.28893839014E+02 -0.14215564199E+02  0.20123039789E+02  0.37985167221E+02  0.10000000000E+01 0. -1.
    1000022    2    1    0    0    0  0.48883754996E+02 -0.27051223565E+02  0.26169827324E+02  0.62500000096E+02  0.99999975451E+01 0.  0.
    3000022    2    3    3    0    0  0.19989915982E+02 -0.12835659366E+02  0.60467875354E+01  0.24514832875E+02  0.24999809354E+00 0.  0.
    1000022    2    1    0    0    0 -0.48883754996E+02  0.27051223565E+02 -0.26169827324E+02  0.62499999904E+02  0.99999963478E+01 0.  0.
    3000022    2    5    5    0    0 -0.15994275128E+02  0.81890858671E+01 -0.34826209321E+01  0.18304893179E+02  0.25000309289E+00 0.  0.
        -13    1    4    4    0    0  0.11546040527E+02 -0.74343619147E+01  0.34307601822E+01  0.14154925975E+02  0.10500000000E+00 0.  1.
         13    1    4    4    0    0  0.84438754546E+01 -0.54012974513E+01  0.26160273532E+01  0.10359906899E+02  0.10500000000E+00 0. -1.
    3000001    1    5    5    0    0 -0.32889479868E+02  0.18862137698E+02 -0.22687206392E+02  0.44195106725E+02  0.10000000000E+01 0.  1.
        -13    1    6    6    0    0 -0.48589094405E+01  0.25380107617E+01 -0.10778586417E+01  0.55877816554E+01  0.10500000000E+00 0. -1.
         13    1    6    6    0    0 -0.11135365687E+02  0.56510751054E+01 -0.24047622904E+01  0.12717111524E+02  0.10500000000E+00 0.  1.
</event>
<event>
11    0  0.3494755E-009  0.9118800E+02  0.7816531E-02  0.1126479E+00
         25   -1    0    0    0    0  0.00000000000E+00  0.00000000000E+00  0.99999998245E-14  0.12500000000E+03  0.12500000000E+03 0.  0.
    3000001    1    3    3    0    0  0.44787264210E+01  0.14509326162E+01  0.68534265394E+00  0.48614699797E+01  0.10000000000E+01 0. -1.
    1000022    2    1    0    0    0  0.57553398986E+02 -0.11894410028E+02  0.18771733576E+02  0.62499990717E+02  0.10000006673E+02 0.  0.
    3000022    2    3    3    0    0  0.53074672565E+02 -0.13345342644E+02  0.18086390922E+02  0.57638520737E+02  0.24999611243E+00 0.  0.
    1000022    2    1    0    0    0 -0.57553398986E+02  0.11894410028E+02 -0.18771733576E+02  0.62500009283E+02  0.10000122710E+02 0.  0.
    3000022    2    5    5    0    0 -0.44586977608E+02  0.12813018720E+02 -0.12582917161E+02  0.48068329759E+02  0.25000119887E+00 0.  0.
        -13    1    4    4    0    0  0.18660081057E+02 -0.47090891455E+01  0.64174702078E+01  0.20287165758E+02  0.10500000000E+00 0. -1.
         13    1    4    4    0    0  0.34414591508E+02 -0.86362534983E+01  0.11668920714E+02  0.37351354979E+02  0.10500000000E+00 0.  1.
    3000001    1    5    5    0    0 -0.12966421378E+02 -0.91860869216E+00 -0.61888164143E+01  0.14431679524E+02  0.10000000000E+01 0.  1.
        -13    1    6    6    0    0 -0.23741127166E+02  0.68346894917E+01 -0.67696041265E+01  0.25616257817E+02  0.10500000000E+00 0.  1.
         13    1    6    6    0    0 -0.20845850442E+02  0.59783292282E+01 -0.58133130349E+01  0.22452071941E+02  0.10500000000E+00 0. -1.
</event>
<event>
11    0  0.3494755E-009  0.9118800E+02  0.7816531E-02  0.1126479E+00
         25   -1    0    0    0    0  0.00000000000E+00  0.00000000000E+00  0.99999998245E-14  0.12500000000E+03  0.12500000000E+03 0.  0.
    3000001    1    3    3    0    0  0.11619730281E+01 -0.37617008280E+02 -0.30015402077E+02  0.48148871794E+02  0.10000000000E+01 0. -1.
    1000022    2    1    0    0    0  0.67963791366E+01 -0.48073971725E+02 -0.38065108349E+02  0.62500000191E+02  0.10000001176E+02 0.  0.
    3000022    2    3    3    0    0  0.56344061085E+01 -0.10456963445E+02 -0.80497062719E+01  0.14351128397E+02  0.24999701910E+00 0.  0.
    1000022    2    1    0    0    0 -0.67963791366E+01  0.48073971725E+02  0.38065108349E+02  0.62499999809E+02  0.99999987859E+01 0.  0.
    3000022    2    5    5    0    0 -0.17158048078E+01  0.32031378369E+02  0.20055378346E+02  0.37831651428E+02  0.24992552938E+00 0.  0.
        -13    1    4    4    0    0  0.34564768402E+01 -0.64054608789E+01 -0.50064362775E+01  0.88347377108E+01  0.10500000000E+00 0. -1.
         13    1    4    4    0    0  0.21779292683E+01 -0.40515025662E+01 -0.30432699944E+01  0.55163906860E+01  0.10500000000E+00 0.  1.
    3000001    1    5    5    0    0 -0.50805743288E+01  0.16042593356E+02  0.18009730002E+02  0.24668348381E+02  0.10000000000E+01 0. -1.
        -13    1    6    6    0    0 -0.66679512061E+00  0.12592499032E+02  0.79571111236E+01  0.14911146503E+02  0.10500000000E+00 0. -1.
         13    1    6    6    0    0 -0.10490096872E+01  0.19438879337E+02  0.12098267223E+02  0.22920504925E+02  0.10500000000E+00 0.  1.
</event>
<event>
11    0  0.3494755E-009  0.9118800E+02  0.7816531E-02  0.1126479E+00
         25   -1    0    0    0    0  0.00000000000E+00  0.00000000000E+00  0.99999998245E-14  0.12500000000E+03  0.12500000000E+03 0.  0.
    3000001    1    3    3    0    0 -0.37801320319E+02  0.64078262444E+00 -0.19121258550E+02  0.42378921043E+02  0.10000000000E+01 0.  1.
    1000022    2    1    0    0    0 -0.57605702658E+02 -0.13682574562E+01 -0.22044525269E+02  0.62499999176E+02  0.99999847714E+01 0.  0.
    3000022    2    3    3    0    0 -0.19804382339E+02 -0.20090400806E+01 -0.29232667191E+01  0.20121078133E+02  0.24999006771E+00 0.  0.
    1000022    2    1    0    0    0  0.57605702658E+02  0.13682574562E+01  0.22044525269E+02  0.62500000824E+02  0.99999950703E+01 0.  0.
    3000022    2    5    5    0    0  0.42025041140E+02 -0.31880212827E+01  0.14497054334E+02  0.44570109390E+02  0.25000838144E+00 0.  0.
        -13    1    4    4    0    0 -0.12607809585E+02 -0.13359024522E+01 -0.18768241145E+01  0.12816980598E+02  0.10500000000E+00 0.  1.
         13    1    4    4    0    0 -0.71965727546E+01 -0.67313762842E+00 -0.10464426046E+01  0.73040975352E+01  0.10500000000E+00 0. -1.
    3000001    1    5    5    0    0  0.15580661519E+02  0.45562787389E+01  0.75474709357E+01  0.17929891434E+02  0.10000000000E+01 0.  1.
        -13    1    6    6    0    0  0.15883657090E+02 -0.12389250449E+01  0.55333199952E+01  0.16865768674E+02  0.10500000000E+00 0.  1.
         13    1    6    6    0    0  0.26141384050E+02 -0.19490962378E+01  0.89637343385E+01  0.27704340716E+02  0.10500000000E+00 0. -1.
</event>
<event>
11    0  0.3494755E-009  0.9118800E+02  0.7816531E-02  0.1126479E+00
         25   -1    0    0    0    0  0.00000000000E+00  0.00000000000E+00  0.99999998245E-14  0.12500000000E+03  0.12500000000E+03 0.  0.
    3000001    1    3    3    0    0 -0.25506042226E+02  0.50011857328E+01  0.17250279684E+02  0.31211251144E+02  0.10000000000E+01 0.  1.
    1000022    2    1    0    0    0 -0.50830839796E+02  0.12151730596E+00  0.34963725762E+02  0.62499990501E+02  0.99998826322E+01 0.  0.
    3000022    2    3    3    0    0 -0.25324797570E+02 -0.48796684269E+01  0.17713446079E+02  0.31288739358E+02  0.25000542134E+00 0.  0.
    1000022    2    1    0    0    0  0.50830839796E+02 -0.12151730596E+00 -0.34963725762E+02  0.62500009499E+02  0.10000001364E+02 0.  0.
    3000022    2    5    5    0    0  0.27142659754E+02  0.10964685233E+01 -0.24400923475E+02  0.36515665071E+02  0.25001473211E+00 0.  0.
        -13    1    4    4    0    0 -0.65105472242E+01 -0.12239862431E+01  0.45540350688E+01  0.80396285916E+01  0.10500000000E+00 0. -1.
         13    1    4    4    0    0 -0.18814250346E+02 -0.36556821837E+01  0.13159411010E+02  0.23249110766E+02  0.10500000000E+00 0.  1.
    3000001    1    5    5    0    0  0.23688180042E+02 -0.12179858293E+01 -0.10562802287E+02  0.25984344428E+02  0.10000000000E+01 0.  1.
        -13    1    6    6    0    0  0.15856350612E+02  0.69383944220E+00 -0.14207553725E+02  0.21301898407E+02  0.10500000000E+00 0.  1.
         13    1    6    6    0    0  0.11286309142E+02  0.40262908113E+00 -0.10193369751E+02  0.15213766664E+02  0.10500000000E+00 0. -1.
</event>
<event>
11    0  0.3494755E-009  0.9118800E+02  0.7816531E-02  0.1126479E+00
         25   -1    0    0    0    0  0.00000000000E+00  0.00000000000E+00  0.99999998245E-14  0.12500000000E+03  0.12500000000E+03 0.  0.
    3000001    1    3    3    0    0  0.95180368714E+01  0.27236177910E+02 -0.53627455301E+02  0.60904075192E+02  0.10000000000E+01 0. -1.
    1000022    2    1    0    0    0  0.10771556562E+02  0.28172262832E+02 -0.53819580242E+02  0.62500000063E+02  0.99999983312E+01 0.  0.
    3000022    2    3    3    0    0  0.12535196907E+01  0.93608492256E+00 -0.19212494163E+00  0.15959248712E+01  0.24999520767E+00 0.  0.
    1000022    2    1    0    0    0 -0.10771556562E+02 -0.28172262832E+02  0.53819580242E+02  0.62499999937E+02  0.99999975386E+01 0.  0.
    3000022    2    5    5    0    0 -0.65585455795E+01 -0.10550985168E+02  0.13866220371E+02  0.18619140179E+02  0.25001100658E+00 0.  0.
        -13    1    4    4    0    0  0.29772336377E+00  0.20825675953E+00 -0.35837408320E-01  0.37989393133E+00  0.10500000000E+00 0.  1.
         13    1    4    4    0    0  0.95579632697E+00  0.72782816303E+00 -0.15628753331E+00  0.12160309398E+01  0.10500000000E+00 0. -1.
    3000001    1    5    5    0    0 -0.42130109826E+01 -0.17621277665E+02  0.39953359871E+02  0.43880859757E+02  0.10000000000E+01 0. -1.
        -13    1    6    6    0    0 -0.42302325586E+01 -0.68614040882E+01  0.89234559689E+01  0.12025507265E+02  0.10500000000E+00 0.  1.
         13    1    6    6    0    0 -0.23283130210E+01 -0.36895810793E+01  0.49427644024E+01  0.65936329138E+01  0.10500000000E+00 0. -1.
</event>
<event>
11    0  0.3494755E-009  0.9118800E+02  0.7816531E-02  0.1126479E+00
         25   -1    0    0    0    0  0.00000000000E+00  0.00000000000E+00  0.99999998245E-14  0.12500000000E+03  0.12500000000E+03 0.  0.
    3000001    1    3    3    0    0  0.20859584769E+02 -0.11061186378E+01 -0.47748179695E+02  0.52127098896E+02  0.10000000000E+01 0.  1.
    1000022    2    1    0    0    0  0.24940785286E+02 -0.56121526619E+01 -0.56149010696E+02  0.62499996409E+02  0.99999560407E+01 0.  0.
    3000022    2    3    3    0    0  0.40812005175E+01 -0.45060340241E+01 -0.84008310016E+01  0.10372897513E+02  0.25000202994E+00 0.  0.
    1000022    2    1    0    0    0 -0.24940785286E+02  0.56121526619E+01  0.56149010696E+02  0.62500003591E+02  0.10000000924E+02 0.  0.
    3000022    2    5    5    0    0 -0.35145648421E+01  0.38399628163E-03  0.21527922949E+01  0.41290650020E+01  0.24999389821E+00 0.  0.
        -13    1    4    4    0    0  0.26213569995E+01 -0.29767159141E+01 -0.54939475893E+01  0.67769340609E+01  0.10500000000E+00 0.  1.
         13    1    4    4    0    0  0.14598435180E+01 -0.15293181100E+01 -0.29068834122E+01  0.35959634524E+01  0.10500000000E+00 0. -1.
    3000001    1    5    5    0    0 -0.21426220444E+02  0.56117686656E+01  0.53996218401E+02  0.58370938589E+02  0.10000000000E+01 0.  1.
        -13    1    6    6    0    0 -0.21784049027E+01  0.32290955703E-01  0.12723955538E+01  0.25251744636E+01  0.10500000000E+00 0.  1.
         13    1    6    6    0    0 -0.13361599393E+01 -0.31906959421E-01  0.88039674108E+00  0.16038905384E+01  0.10500000000E+00 0. -1.
</event>
<event>
11    0  0.3494755E-009  0.9118800E+02  0.7816531E-02  0.1126479E+00
         25   -1    0    0    0    0  0.00000000000E+00  0.00000000000E+00  0.99999998245E-14  0.12500000000E+03  0.12500000000E+03 0.  0.
    3000001    1    3    3    0    0 -0.33807932583E+01 -0.29127790427E+02  0.65582385290E+01  0.30064404714E+02  0.10000000000E+01 0. -1.
    1000022    2    1    0    0    0 -0.11089697105E+02 -0.60544522190E+02  0.41987582193E+01  0.62500000675E+02  0.99999982371E+01 0.  0.
    3000022    2    3    3    0    0 -0.77089038466E+01 -0.31416731762E+02 -0.23594803097E+01  0.32435595961E+02  0.25000968131E+00 0.  0.
    1000022    2    1    0    0    0  0.11089697105E+02  0.60544522190E+02 -0.41987582193E+01  0.62499999325E+02  0.99999897981E+01 0.  0.
    3000022    2    5    5    0    0  0.55984987182E+01  0.17765178223E+02 -0.52210312564E+01  0.19345966233E+02  0.24999381775E+00 0.  0.
        -13    1    4    4    0    0 -0.39363321492E+01 -0.16052896791E+02 -0.12734752525E+01  0.16577785449E+02  0.10500000000E+00 0.  1.
         13    1    4    4    0    0 -0.37725716974E+01 -0.15363834972E+02 -0.10860050571E+01  0.15857810512E+02  0.10500000000E+00 0. -1.
    3000001    1    5    5    0    0  0.54911983868E+01  0.42779343967E+02  0.10222730371E+01  0.43154033092E+02  0.10000000000E+01 0. -1.
        -13    1    6    6    0    0  0.36413183919E+01  0.11669728179E+02 -0.34714134664E+01  0.12708402412E+02  0.10500000000E+00 0. -1.
         13    1    6    6    0    0  0.19571803262E+01  0.60954500441E+01 -0.17496177900E+01  0.66375638212E+01  0.10500000000E+00 0.  1.
</event>
<event>
11    0  0.3494755E-009  0.9118800E+02  0.7816531E-02  0.1126479E+00
         25   -1    0    0    0    0  0.00000000000E+00  0.00000000000E+00  0.99999998245E-14  0.12500000000E+03  0.12500000000E+03 0.  0.
    3000001    1    3    3    0    0  0.73387253422E+00  0.54702634273E+00 -0.13283572557E+01  0.18979830650E+01  0.10000000000E+01 0. -1.
    1000022    2    1    0    0    0  0.14555865307E+01 -0.19473200382E+02 -0.58522864297E+02  0.62500000102E+02  0.10000005095E+02 0.  0.
    3000022    2    3    3    0    0  0.72171399651E+00 -0.20020226725E+02 -0.57194507042E+02  0.60602017037E+02  0.24996798944E+00 0.  0.
    1000022    2    1    0    0    0 -0.14555865307E+01  0.19473200382E+02  0.58522864297E+02  0.62499999898E+02  0.10000003824E+02 0.  0.
    3000022    2    5    5    0    0  0.34656262167E+01  0.38379484386E+01  0.97901363422E+01  0.11074731672E+02  0.24999742244E+00 0.  0.
        -13    1    4    4    0    0  0.45705172252E+00 -0.13966468625E+02 -0.39886336534E+02  0.42263483165E+02  0.10500000000E+00 0.  1.
         13    1    4    4    0    0  0.26466227399E+00 -0.60537580993E+01 -0.17308170508E+02  0.18338533872E+02  0.10500000000E+00 0. -1.
    3000001    1    5    5    0    0 -0.49212127474E+01  0.15635251943E+02  0.48732727955E+02  0.51425268227E+02  0.10000000000E+01 0.  1.
        -13    1    6    6    0    0  0.95665168473E+00  0.10188233246E+01  0.25997342212E+01  0.29534431489E+01  0.10500000000E+00 0. -1.
         13    1    6    6    0    0  0.25089745320E+01  0.28191251140E+01  0.71904021210E+01  0.81212885228E+01  0.10500000000E+00 0.  1.
</event>
<event>
11    0  0.3494755E-009  0.9118800E+02  0.7816531E-02  0.1126479E+00
         25   -1    0    0    0    0  0.00000000000E+00  0.00000000000E+00  0.99999998245E-14  0.12500000000E+03  0.12500000000E+03 0.  0.
    3000001    1    3    3    0    0 -0.18050368089E+02 -0.35280394350E+01  0.50375945080E+01  0.19095554688E+02  0.10000000000E+01 0. -1.
    1000022    2    1    0    0    0 -0.54223558722E+02 -0.51941837323E+01  0.28966812858E+02  0.62499998561E+02  0.99999853914E+01 0.  0.
    3000022    2    3    3    0    0 -0.36173190633E+02 -0.16661442972E+01  0.23929218350E+02  0.43404443873E+02  0.24999940285E+00 0.  0.
    1000022    2    1    0    0    0  0.54223558722E+02  0.51941837323E+01 -0.28966812858E+02  0.62500001439E+02  0.10000003383E+02 0.  0.
    3000022    2    5    5    0    0  0.46881355977E+02  0.58276426306E+01 -0.28210318772E+02  0.55024608832E+02  0.25007009494E+00 0.  0.
        -13    1    4    4    0    0 -0.14439565600E+02 -0.62691058557E+00  0.96110317050E+01  0.17357333523E+02  0.10500000000E+00 0. -1.
         13    1    4    4    0    0 -0.21733625032E+02 -0.10392337117E+01  0.14318186645E+02  0.26047110349E+02  0.10500000000E+00 0.  1.
    3000001    1    5    5    0    0  0.73422027455E+01 -0.63345889836E+00 -0.75649408510E+00  0.74753926072E+01  0.10000000000E+01 0. -1.
        -13    1    6    6    0    0  0.36055270739E+02  0.44815877222E+01 -0.21685114917E+02  0.42312201675E+02  0.10500000000E+00 0.  1.
         13    1    6    6    0    0  0.10826085237E+02  0.13460549085E+01 -0.65252038556E+01  0.12712407157E+02  0.10500000000E+00 0. -1.
</event>
<event>
11    0  0.3494755E-009  0.9118800E+02  0.7816531E-02  0.1126479E+00
         25   -1    0    0    0    0  0.00000000000E+00  0.00000000000E+00  0.99999998245E-14  0.12500000000E+03  0.12500000000E+03 0.  0.
    3000001    1    3    3    0    0  0.12524787676E+01  0.15786911757E+02 -0.11119775545E+01  0.15906972684E+02  0.10000000000E+01 0.  1.
    1000022    2    1    0    0    0 -0.51093039213E+00  0.58423108054E+02 -0.19817401471E+02  0.62500000377E+02  0.10000002072E+02 0.  0.
    3000022    2    3    3    0    0 -0.17634091597E+01  0.42636196297E+02 -0.18705423916E+02  0.46593027692E+02  0.24999823722E+00 0.  0.
    1000022    2    1    0    0    0  0.51093039213E+00 -0.58423108054E+02  0.19817401471E+02  0.62499999623E+02  0.99999973644E+01 0.  0.
    3000022    2    5    5    0    0 -0.15442550605E+00 -0.23333710864E+00  0.14059367590E+01  0.14551458353E+01  0.24999557735E+00 0.  0.
        -13    1    4    4    0    0 -0.56674655626E+00  0.12720699038E+02 -0.56038731510E+01  0.13912289709E+02  0.10500000000E+00 0. -1.
         13    1    4    4    0    0 -0.11966626035E+01  0.29915497259E+02 -0.13101550765E+02  0.32680737983E+02  0.10500000000E+00 0.  1.
    3000001    1    5    5    0    0  0.66535589819E+00 -0.58189770946E+02  0.18411464712E+02  0.61044853788E+02  0.10000000000E+01 0. -1.
        -13    1    6    6    0    0 -0.92635870821E-01 -0.99427847807E-01  0.43876155230E+00  0.47117300565E+00  0.10500000000E+00 0.  1.
         13    1    6    6    0    0 -0.61789635234E-01 -0.13390926083E+00  0.96717520666E+00  0.98397282967E+00  0.10500000000E+00 0. -1.
</event>
<event>
11    0  0.3494755E-009  0.9118800E+02  0.7816531E-02  0.1126479E+00
         25   -1    0    0    0    0  0.00000000000E+00  0.00000000000E+00  0.99999998245E-14  0.12500000000E+03  0.12500000000E+03 0.  0.
    3000001    1    3    3    0    0  0.20925285149E+02  0.72902311381E+01 -0.20357888145E+01  0.22274637252E+02  0.10000000000E+01 0.  1.
    1000022    2    1    0    0    0  0.61055440480E+02  0.88560840480E+01  0.23045118294E+00  0.62499997478E+02  0.99999770035E+01 0.  0.
    3000022    2    3    3    0    0  0.40130155332E+02  0.15658529098E+01  0.22662399974E+01  0.40225360226E+02  0.24999862843E+00 0.  0.
    1000022    2    1    0    0    0 -0.61055440480E+02 -0.88560840480E+01 -0.23045118294E+00  0.62500002522E+02  0.10000008530E+02 0.  0.
    3000022    2    5    5    0    0 -0.22943313478E+02  0.14974523713E+01 -0.10553461520E+00  0.22993730296E+02  0.24999685397E+00 0.  0.
        -13    1    4    4    0    0  0.27657814984E+02  0.11277015104E+01  0.15585631443E+01  0.27724836960E+02  0.10500000000E+00 0. -1.
         13    1    4    4    0    0  0.12472340348E+02  0.43815139946E+00  0.70767685307E+00  0.12500523266E+02  0.10500000000E+00 0.  1.
    3000001    1    5    5    0    0 -0.38112127002E+02 -0.10353536419E+02 -0.12491656774E+00  0.39506272226E+02  0.10000000000E+01 0. -1.
        -13    1    6    6    0    0 -0.15640156168E+02  0.10306898409E+01 -0.22559411414E-01  0.15674448648E+02  0.10500000000E+00 0. -1.
         13    1    6    6    0    0 -0.73031573105E+01  0.46676253043E+00 -0.82975203784E-01  0.73192816482E+01  0.10500000000E+00 0.  1.
</event>
<event>
11    0  0.3494755E-009  0.9118800E+02  0.7816531E-02  0.1126479E+00
         25   -1    0    0    0    0  0.00000000000E+00  0.00000000000E+00  0.99999998245E-14  0.12500000000E+03  0.12500000000E+03 0.  0.
    3000001    1    3    3    0    0 -0.44668452469E+02 -0.16872968376E+02 -0.15755483895E+02  0.50291181937E+02  0.10000000000E+01 0.  1.
    1000022    2    1    0    0    0 -0.55436122680E+02 -0.22566713357E+02 -0.14960945362E+02  0.62500000204E+02  0.99999944885E+01 0.  0.
    3000022    2    3    3    0    0 -0.10767670211E+02 -0.56937449809E+01  0.79453853278E+00  0.12208818267E+02  0.24999663327E+00 0.  0.
    1000022    2    1    0    0    0  0.55436122680E+02  0.22566713357E+02  0.14960945362E+02  0.62499999796E+02  0.99999919407E+01 0.  0.
    3000022    2    5    5    0    0  0.78416393295E+01  0.68540841670E+01  0.41653038029E+01  0.11219716663E+02  0.25001818523E+00 0.  0.
        -13    1    4    4    0    0 -0.42258716470E+01 -0.21863045078E+01  0.26521548625E+00  0.47664748853E+01  0.10500000000E+00 0.  1.
         13    1    4    4    0    0 -0.65417985640E+01 -0.35074404732E+01  0.52932304653E+00  0.74423433818E+01  0.10500000000E+00 0. -1.
    3000001    1    5    5    0    0  0.47594483351E+02  0.15712629190E+02  0.10795641559E+02  0.51280283133E+02  0.10000000000E+01 0.  1.
        -13    1    6    6    0    0  0.23792491939E+01  0.20310400903E+01  0.12215283662E+01  0.33599266547E+01  0.10500000000E+00 0. -1.
         13    1    6    6    0    0  0.54623901355E+01  0.48230440767E+01  0.29437754367E+01  0.78597900087E+01  0.10500000000E+00 0.  1.
</event>
<event>
11    0  0.3494755E-009  0.9118800E+02  0.7816531E-02  0.1126479E+00
         25   -1    0    0    0    0  0.00000000000E+00  0.00000000000E+00  0.99999998245E-14  0.12500000000E+03  0.12500000000E+03 0.  0.
    3000001    1    3    3    0    0 -0.13743997925E+02 -0.46193417835E+02  0.23551273430E+02  0.53650645946E+02  0.10000000000E+01 0. -1.
    1000022    2    1    0    0    0 -0.14895554880E+02 -0.54961947579E+02  0.23739350870E+02  0.62499999872E+02  0.99999983696E+01 0.  0.
    3000022    2    3    3    0    0 -0.11515569550E+01 -0.87685297443E+01  0.18807743983E+00  0.88493539262E+01  0.24998897793E+00 0.  0.
    1000022    2    1    0    0    0  0.14895554880E+02  0.54961947579E+02 -0.23739350870E+02  0.62500000128E+02  0.99999999733E+01 0.  0.
    3000022    2    5    5    0    0  0.72561315411E+01  0.17207805764E+02 -0.12077717701E+02  0.22241712766E+02  0.24999553813E+00 0.  0.
        -13    1    4    4    0    0 -0.38799484985E+00 -0.26666989185E+01  0.85853180946E-01  0.26981880761E+01  0.10500000000E+00 0.  1.
         13    1    4    4    0    0 -0.76356210518E+00 -0.61018308259E+01  0.10222425889E+00  0.61511658501E+01  0.10500000000E+00 0. -1.
    3000001    1    5    5    0    0  0.76394233389E+01  0.37754141815E+02 -0.11661633168E+02  0.40258287362E+02  0.10000000000E+01 0. -1.
        -13    1    6    6    0    0  0.31235359063E+01  0.75702673935E+01 -0.52736751937E+01  0.97410523053E+01  0.10500000000E+00 0. -1.
         13    1    6    6    0    0  0.41325956347E+01  0.96375383703E+01 -0.68040425075E+01  0.12500660461E+02  0.10500000000E+00 0.  1.
</event>
<event>
11    0  0.3494755E-009  0.9118800E+02  0.7816531E-02  0.1126479E+00
         25   -1    0    0    0    0  0.00000000000E+00  0.00000000000E+00  0.99999998245E-14  0.12500000000E+03  0.12500000000E+03 0.  0.
    3000001    1    3    3    0    0 -0.29275834614E+02  0.28884102480E+02 -0.27298900912E+02  0.49372014942E+02  0.10000000000E+01 0. -1.
    1000022    2    1    0    0    0 -0.39874721180E+02  0.36012319091E+02 -0.30321101425E+02  0.62500002747E+02  0.10000031811E+02 0.  0.
    3000022    2    3    3    0    0 -0.10598886566E+02  0.71282166114E+01 -0.30222005131E+01  0.13127987805E+02  0.24999873663E+00 0.  0.
    1000022    2    1    0    0    0  0.39874721180E+02 -0.36012319091E+02  0.30321101425E+02  0.62499997253E+02  0.99999974739E+01 0.  0.
    3000022    2    5    5    0    0  0.39633494192E+02 -0.34225732401E+02  0.27953224375E+02  0.59360423367E+02  0.24997809809E+00 0.  0.
        -13    1    4    4    0    0 -0.47161512740E+01  0.31211644380E+01 -0.13908386072E+01  0.58248783094E+01  0.10500000000E+00 0.  1.
         13    1    4    4    0    0 -0.58827352923E+01  0.40070521734E+01 -0.16313619059E+01  0.73031094958E+01  0.10500000000E+00 0. -1.
    3000001    1    5    5    0    0  0.24122698747E+00 -0.17865866906E+01  0.23678770503E+01  0.31395738863E+01  0.10000000000E+01 0.  1.
        -13    1    6    6    0    0  0.21845551489E+02 -0.18841185505E+02  0.15471935904E+02  0.32735458096E+02  0.10500000000E+00 0. -1.
         13    1    6    6    0    0  0.17787942703E+02 -0.15384546896E+02  0.12481288471E+02  0.26624965271E+02  0.10500000000E+00 0.  1.
</event>
<event>
11    0  0.3494755E-009  0.9118800E+02  0.7816531E-02  0.1126479E+00
         25   -1    0    0    0    0  0.00000000000E+00  0.00000000000E+00  0.99999998245E-14  0.12500000000E+03  0.12500000000E+03 0.  0.
    3000001    1    3    3    0    0  0.97290385232E+01 -0.18079357398E+02 -0.26115990289E+02  0.33234956044E+02  0.10000000000E+01 0.  1.
    1000022    2    1    0    0    0  0.26264003780E+02 -0.29559628289E+02 -0.47356951580E+02  0.62499997146E+02  0.99999630534E+01 0.  0.
    3000022    2    3    3    0    0  0.16534965257E+02 -0.11480270891E+02 -0.21240961292E+02  0.29265041101E+02  0.24999657308E+00 0.  0.
    1000022    2    1    0    0    0 -0.26264003780E+02  0.29559628289E+02  0.47356951580E+02  0.62500002854E+02  0.99999987347E+01 0.  0.
    3000022    2    5    5    0    0 -0.17878257875E+02  0.14660200755E+02  0.32120322008E+02  0.39576901931E+02  0.24997944647E+00 0.  0.
        -13    1    4    4    0    0  0.71333239660E+01 -0.49716555843E+01 -0.90824572389E+01  0.12573930354E+02  0.10500000000E+00 0.  1.
         13    1    4    4    0    0  0.94016412906E+01 -0.65086153066E+01 -0.12158504053E+02  0.16691110747E+02  0.10500000000E+00 0. -1.
    3000001    1    5    5    0    0 -0.83857459051E+01  0.14899427535E+02  0.15236629572E+02  0.22923100924E+02  0.10000000000E+01 0. -1.
        -13    1    6    6    0    0 -0.11039577877E+02  0.91310792239E+01  0.19897721873E+02  0.24518956916E+02  0.10500000000E+00 0. -1.
         13    1    6    6    0    0 -0.68386799981E+01  0.55291215307E+01  0.12222600135E+02  0.15057945015E+02  0.10500000000E+00 0.  1.
</event>
<event>
11    0  0.3494755E-009  0.9118800E+02  0.7816531E-02  0.1126479E+00
         25   -1    0    0    0    0  0.00000000000E+00  0.00000000000E+00  0.99999998245E-14  0.12500000000E+03  0.12500000000E+03 0.  0.
    3000001    1    3    3    0    0 -0.10463754142E+02 -0.60947894624E+01  0.18941587094E+00  0.12152056933E+02  0.10000000000E+01 0. -1.
    1000022    2    1    0    0    0 -0.41996072945E+02 -0.43900441888E+02  0.10739226123E+02  0.62500001090E+02  0.10000010888E+02 0.  0.
    3000022    2    3    3    0    0 -0.31532318804E+02 -0.37805652425E+02  0.10549810252E+02  0.50347944157E+02  0.25000011686E+00 0.  0.
    1000022    2    1    0    0    0  0.41996072945E+02  0.43900441888E+02 -0.10739226123E+02  0.62499998910E+02  0.99999972653E+01 0.  0.
    3000022    2    5    5    0    0  0.30221487372E+02  0.24939358772E+02 -0.56929268566E+01  0.39595224853E+02  0.25000000487E+00 0.  0.
        -13    1    4    4    0    0 -0.21033986127E+02 -0.25153535205E+02  0.69921385462E+01  0.33526555626E+02  0.10500000000E+00 0. -1.
         13    1    4    4    0    0 -0.10498332676E+02 -0.12652117220E+02  0.35576717063E+01  0.16821388531E+02  0.10500000000E+00 0.  1.
    3000001    1    5    5    0    0  0.11774585573E+02  0.18961083115E+02 -0.50462992667E+01  0.22904774057E+02  0.10000000000E+01 0. -1.
        -13    1    6    6    0    0  0.14793047174E+02  0.12179381847E+02 -0.27191438510E+01  0.19353975177E+02  0.10500000000E+00 0. -1.
         13    1    6    6    0    0  0.15428440199E+02  0.12759976925E+02 -0.29737830057E+01  0.20241249676E+02  0.10500000000E+00 0.  1.
</event>
<event>
11    0  0.3494755E-009  0.9118800E+02  0.7816531E-02  0.1126479E+00
         25   -1    0    0    0    0  0.00000000000E+00  0.00000000000E+00  0.99999998245E-14  0.12500000000E+03  0.12500000000E+03 0.  0.
    3000001    1    3    3    0    0  0.21859547634E+02  0.13059956519E+02 -0.39872162326E+01  0.25793413506E+02  0.10000000000E+01 0. -1.
    1000022    2    1    0    0    0  0.45374174285E+02  0.40647511468E+02 -0.97578026276E+01  0.62499993602E+02  0.99999303813E+01 0.  0.
    3000022    2    3    3    0    0  0.23514626651E+02  0.27587554949E+02 -0.57705863950E+01  0.36706580096E+02  0.25000081015E+00 0.  0.
    1000022    2    1    0    0    0 -0.45374174285E+02 -0.40647511468E+02  0.97578026276E+01  0.62500006398E+02  0.10000010353E+02 0.  0.
    3000022    2    5    5    0    0 -0.38573840130E+02 -0.29384478924E+02  0.86677891627E+01  0.49260347186E+02  0.24998371624E+00 0.  0.
        -13    1    4    4    0    0  0.16962595378E+02  0.19841956203E+02 -0.41666847428E+01  0.26434923013E+02  0.10500000000E+00 0. -1.
         13    1    4    4    0    0  0.65520312727E+01  0.77455987455E+01 -0.16039016522E+01  0.10271657083E+02  0.10500000000E+00 0.  1.
    3000001    1    5    5    0    0 -0.68003341545E+01 -0.11263032544E+02  0.10900134649E+01  0.13239659212E+02  0.10000000000E+01 0. -1.
        -13    1    6    6    0    0 -0.11159416895E+02 -0.84704081810E+01  0.24687935964E+01  0.14226256254E+02  0.10500000000E+00 0. -1.
         13    1    6    6    0    0 -0.27414423235E+02 -0.20914070743E+02  0.61989955663E+01  0.35034090931E+02  0.10500000000E+00 0.  1.
</event>
<event>
11    0  0.3494755E-009  0.9118800E+02  0.7816531E-02  0.1126479E+00
         25   -1    0    0    0    0  0.00000000000E+00  0.00000000000E+00  0.99999998245E-14  0.12500000000E+03  0.12500000000E+03 0.  0.
    3000001    1    3    3    0    0  0.39748940313E+02  0.18371347392E+02 -0.15879107761E+02  0.46590028164E+02  0.10000000000E+01 0.  1.
    1000022    2    1    0    0    0  0.53693223675E+02  0.19285755482E+02 -0.23480786924E+02  0.62500000210E+02  0.10000001929E+02 0.  0.
    3000022    2    3    3    0    0  0.13944283362E+02  0.91440808966E+00 -0.76016791637E+01  0.15909972046E+02  0.25000756748E+00 0.  0.
    1000022    2    1    0    0    0 -0.53693223675E+02 -0.19285755482E+02  0.23480786924E+02  0.62499999790E+02  0.99999993013E+01 0.  0.
    3000022    2    5    5    0    0 -0.36379333457E+02 -0.17688104411E+02  0.15178469785E+02  0.43206172971E+02  0.24999476814E+00 0.  0.
        -13    1    4    4    0    0  0.98081441232E+01  0.63501572052E+00 -0.52958107608E+01  0.11165105137E+02  0.10500000000E+00 0. -1.
         13    1    4    4    0    0  0.41361392385E+01  0.27939236914E+00 -0.23058684028E+01  0.47448669093E+01  0.10500000000E+00 0.  1.
    3000001    1    5    5    0    0 -0.17313890218E+02 -0.15976510711E+01  0.83023171391E+01  0.19293826819E+02  0.10000000000E+01 0.  1.
        -13    1    6    6    0    0 -0.26203728143E+02 -0.12702558256E+02  0.10904986453E+02  0.31095339030E+02  0.10500000000E+00 0.  1.
         13    1    6    6    0    0 -0.10175605314E+02 -0.49855461544E+01  0.42734833322E+01  0.12110833941E+02  0.10500000000E+00 0. -1.
</event>
<event>
11    0  0.3494755E-009  0.9118800E+02  0.7816531E-02  0.1126479E+00
         25   -1    0    0    0    0  0.00000000000E+00  0.00000000000E+00  0.99999998245E-14  0.12500000000E+03  0.12500000000E+03 0.  0.
    3000001    1    3    3    0    0 -0.14929438265E+02  0.20220159097E+02  0.78779183387E+00  0.25166715654E+02  0.10000000000E+01 0.  1.
    1000022    2    1    0    0    0 -0.45287210381E+02  0.41697087373E+02  0.40830647154E+01  0.62499999734E+02  0.10000001489E+02 0.  0.
    3000022    2    3    3    0    0 -0.30357772117E+02  0.21476928276E+02  0.32952728815E+01  0.37333284081E+02  0.25000165870E+00 0.  0.
    1000022    2    1    0    0    0  0.45287210381E+02 -0.41697087373E+02 -0.40830647154E+01  0.62500000266E+02  0.10000004811E+02 0.  0.
    3000022    2    5    5    0    0  0.21034789546E+02 -0.26065547761E+02 -0.20936434522E+01  0.33560706149E+02  0.25000595945E+00 0.  0.
        -13    1    4    4    0    0 -0.12732154418E+02  0.90234617080E+01  0.13191713863E+01  0.15661476797E+02  0.10500000000E+00 0.  1.
         13    1    4    4    0    0 -0.17625617699E+02  0.12453466568E+02  0.19761014952E+01  0.21671807284E+02  0.10500000000E+00 0. -1.
    3000001    1    5    5    0    0  0.24252420836E+02 -0.15631539612E+02 -0.19894212632E+01  0.28939294117E+02  0.10000000000E+01 0.  1.
        -13    1    6    6    0    0  0.12183295183E+02 -0.15191857344E+02 -0.11917830540E+01  0.19510422418E+02  0.10500000000E+00 0.  1.
         13    1    6    6    0    0  0.88514943630E+01 -0.10873690417E+02 -0.90186039823E+00  0.14050283731E+02  0.10500000000E+00 0. -1.
</event>
<event>
11    0  0.3494755E-009  0.9118800E+02  0.7816531E-02  0.1126479E+00
         25   -1    0    0    0    0  0.00000000000E+00  0.00000000000E+00  0.99999998245E-14  0.12500000000E+03  0.12500000000E+03 0.  0.
    3000001    1    3    3    0    0 -0.41007028571E+01  0.41234982847E+01 -0.46742311442E+01  0.75277778139E+01  0.10000000000E+01 0.  1.
    1000022    2    1    0    0    0 -0.51163132064E+02  0.27676613837E+02 -0.20556965862E+02  0.62500000442E+02  0.10000008682E+02 0.  0.
    3000022    2    3    3    0    0 -0.47062429207E+02  0.23553115552E+02 -0.15882734718E+02  0.54972222628E+02  0.25000681716E+00 0.  0.
    1000022    2    1    0    0    0  0.51163132064E+02 -0.27676613837E+02  0.20556965862E+02  0.62499999558E+02  0.10000003160E+02 0.  0.
    3000022    2    5    5    0    0  0.16129864002E+02 -0.40947335521E+01  0.77454383661E+01  0.18357387654E+02  0.25002086227E+00 0.  0.
        -13    1    4    4    0    0 -0.25381299590E+02  0.12661003661E+02 -0.86185774726E+01  0.29644599596E+02  0.10500000000E+00 0. -1.
         13    1    4    4    0    0 -0.21681129618E+02  0.10892111891E+02 -0.72641572455E+01  0.25327623032E+02  0.10500000000E+00 0.  1.
    3000001    1    5    5    0    0  0.35033268063E+02 -0.23581880285E+02  0.12811527496E+02  0.44142611904E+02  0.10000000000E+01 0. -1.
        -13    1    6    6    0    0  0.54867857539E+01 -0.13679909473E+01  0.25779195651E+01  0.62155379031E+01  0.10500000000E+00 0. -1.
         13    1    6    6    0    0  0.10643078248E+02 -0.27267426047E+01  0.51675188010E+01  0.12141849751E+02  0.10500000000E+00 0.  1.
</event>
<event>
11    0  0.3494755E-009  0.9118800E+02  0.7816531E-02  0.1126479E+00
         25   -1    0    0    0    0  0.00000000000E+00  0.00000000000E+00  0.99999998245E-14  0.12500000000E+03  0.12500000000E+03 0.  0.
    3000001    1    3    3    0    0 -0.30080274972E+01  0.54658125834E+02  0.46223198176E+01  0.54944743058E+02  0.10000000000E+01 0. -1.
    1000022    2    1    0    0    0 -0.11760542076E+01  0.61637069510E+02  0.23957787942E+01  0.62499990679E+02  0.99998818785E+01 0.  0.
    3000022    2    3    3    0    0  0.18319732897E+01  0.69789436753E+01 -0.22265410234E+01  0.75552476215E+01  0.25000146930E+00 0.  0.
    1000022    2    1    0    0    0  0.11760542076E+01 -0.61637069510E+02 -0.23957787942E+01  0.62500009321E+02  0.99999983922E+01 0.  0.
    3000022    2    5    5    0    0 -0.19087981162E+01 -0.37836042747E+02 -0.54896493155E+01  0.38280652938E+02  0.24999744884E+00 0.  0.
        -13    1    4    4    0    0  0.11743251626E+01  0.45540436265E+01 -0.13960236005E+01  0.49069603455E+01  0.10500000000E+00 0.  1.
         13    1    4    4    0    0  0.65764812706E+00  0.24249000489E+01 -0.83051742290E+00  0.26482872759E+01  0.10500000000E+00 0. -1.
    3000001    1    5    5    0    0  0.30848523237E+01 -0.23801026762E+02  0.30938705213E+01  0.24219356383E+02  0.10000000000E+01 0.  1.
        -13    1    6    6    0    0 -0.85654774087E+00 -0.16694783227E+02 -0.23570458783E+01  0.16882421370E+02  0.10500000000E+00 0. -1.
         13    1    6    6    0    0 -0.10522503753E+01 -0.21141259520E+02 -0.31326034372E+01  0.21398231568E+02  0.10500000000E+00 0.  1.
</event>
<event>
11    0  0.3494755E-009  0.9118800E+02  0.7816531E-02  0.1126479E+00
         25   -1    0    0    0    0  0.00000000000E+00  0.00000000000E+00  0.99999998245E-14  0.12500000000E+03  0.12500000000E+03 0.  0.
    3000001    1    3    3    0    0 -0.23011904438E+02  0.71892246806E+00 -0.34201226816E+02  0.41240617249E+02  0.10000000000E+01 0.  1.
    1000022    2    1    0    0    0 -0.39847607010E+02  0.27571900925E+01 -0.47019318050E+02  0.62500000428E+02  0.99999950978E+01 0.  0.
    3000022    2    3    3    0    0 -0.16835702572E+02  0.20382676244E+01 -0.12818091235E+02  0.21259383179E+02  0.24998849971E+00 0.  0.
    1000022    2    1    0    0    0  0.39847607010E+02 -0.27571900925E+01  0.47019318050E+02  0.62499999572E+02  0.99999897468E+01 0.  0.
    3000022    2    5    5    0    0  0.32266249855E+02  0.16769840589E+01  0.36003354138E+02  0.48375894728E+02  0.25005264350E+00 0.  0.
        -13    1    4    4    0    0 -0.88510772444E+01  0.10832202627E+01 -0.68232403151E+01  0.11228649426E+02  0.10500000000E+00 0. -1.
         13    1    4    4    0    0 -0.79846253277E+01  0.95504736175E+00 -0.59948509195E+01  0.10030733754E+02  0.10500000000E+00 0.  1.
    3000001    1    5    5    0    0  0.75813571545E+01 -0.44341741514E+01  0.11015963913E+02  0.14124104844E+02  0.10000000000E+01 0.  1.
        -13    1    6    6    0    0  0.14701234337E+02  0.69993666226E+00  0.16429540327E+02  0.22058037599E+02  0.10500000000E+00 0.  1.
         13    1    6    6    0    0  0.17565015519E+02  0.97704739665E+00  0.19573813811E+02  0.26317857129E+02  0.10500000000E+00 0. -1.
</event>
<event>
11    0  0.3494755E-009  0.9118800E+02  0.7816531E-02  0.1126479E+00
         25   -1    0    0    0    0  0.00000000000E+00  0.00000000000E+00  0.99999998245E-14  0.12500000000E+03  0.12500000000E+03 0.  0.
    3000001    1    3    3    0    0  0.98166141632E+01  0.10357705481E+02 -0.16024763833E+02  0.21481178561E+02  0.10000000000E+01 0.  1.
    1000022    2    1    0    0    0  0.23837047725E+02  0.40821024784E+02 -0.39644555643E+02  0.62499996765E+02  0.99998947392E+01 0.  0.
    3000022    2    3    3    0    0  0.14020433562E+02  0.30463319303E+02 -0.23619791810E+02  0.41018818204E+02  0.25000296312E+00 0.  0.
    1000022    2    1    0    0    0 -0.23837047725E+02 -0.40821024784E+02  0.39644555643E+02  0.62500003235E+02  0.99999351823E+01 0.  0.
    3000022    2    5    5    0    0 -0.39180795865E+01 -0.10840838472E+02  0.14761899171E+02  0.18731024996E+02  0.25000770706E+00 0.  0.
        -13    1    4    4    0    0  0.73939445906E+01  0.15925048585E+02 -0.12325544563E+02  0.21452451207E+02  0.10500000000E+00 0.  1.
         13    1    4    4    0    0  0.66264889714E+01  0.14538270718E+02 -0.11294247248E+02  0.19566366997E+02  0.10500000000E+00 0. -1.
    3000001    1    5    5    0    0 -0.19918968139E+02 -0.29980186312E+02  0.24882656472E+02  0.43768978239E+02  0.10000000000E+01 0. -1.
        -13    1    6    6    0    0 -0.18914324196E+01 -0.53495617950E+01  0.73557663369E+01  0.92905140546E+01  0.10500000000E+00 0.  1.
         13    1    6    6    0    0 -0.20266471668E+01 -0.54912766770E+01  0.74061328340E+01  0.94405109415E+01  0.10500000000E+00 0. -1.
</event>
<event>
11    0  0.3494755E-009  0.9118800E+02  0.7816531E-02  0.1126479E+00
         25   -1    0    0    0    0  0.00000000000E+00  0.00000000000E+00  0.99999998245E-14  0.12500000000E+03  0.12500000000E+03 0.  0.
    3000001    1    3    3    0    0  0.16505297840E+02  0.21684766920E+02  0.69265732042E+01  0.28135944795E+02  0.10000000000E+01 0. -1.
    1000022    2    1    0    0    0  0.42249060236E+02  0.44445700987E+02  0.67710096335E+01  0.62499997551E+02  0.99999847683E+01 0.  0.
    3000022    2    3    3    0    0  0.25743762396E+02  0.22760934067E+02 -0.15556357075E+00  0.34364052756E+02  0.24999974860E+00 0.  0.
    1000022    2    1    0    0    0 -0.42249060236E+02 -0.44445700987E+02 -0.67710096335E+01  0.62500002449E+02  0.10000015384E+02 0.  0.
    3000022    2    5    5    0    0 -0.29695735633E+02 -0.24999098371E+02 -0.21647628515E+01  0.38878532950E+02  0.24998401155E+00 0.  0.
        -13    1    4    4    0    0  0.14476714622E+02  0.12876821903E+02 -0.56452453903E-01  0.19375294074E+02  0.10500000000E+00 0. -1.
         13    1    4    4    0    0  0.11267047774E+02  0.98841121639E+01 -0.99111116846E-01  0.14988758682E+02  0.10500000000E+00 0.  1.
    3000001    1    5    5    0    0 -0.12553324603E+02 -0.19446602616E+02 -0.46062467820E+01  0.23621469499E+02  0.10000000000E+01 0.  1.
        -13    1    6    6    0    0 -0.12341467202E+02 -0.10332592430E+02 -0.85019005938E+00  0.16118564674E+02  0.10500000000E+00 0. -1.
         13    1    6    6    0    0 -0.17354268431E+02 -0.14666505941E+02 -0.13145727921E+01  0.22759968276E+02  0.10500000000E+00 0.  1.
</event>
<event>
11    0  0.3494755E-009  0.9118800E+02  0.7816531E-02  0.1126479E+00
         25   -1    0    0    0    0  0.00000000000E+00  0.00000000000E+00  0.99999998245E-14  0.12500000000E+03  0.12500000000E+03 0.  0.
    3000001    1    3    3    0    0 -0.23567495696E+01 -0.11124773913E+02 -0.97957981283E+01  0.15042357665E+02  0.10000000000E+01 0.  1.
    1000022    2    1    0    0    0 -0.10915853319E+02 -0.54996689623E+02 -0.25738270179E+02  0.62500003534E+02  0.10000008336E+02 0.  0.
    3000022    2    3    3    0    0 -0.85591037492E+01 -0.43871915710E+02 -0.15942472051E+02  0.47457645868E+02  0.24998252696E+00 0.  0.
    1000022    2    1    0    0    0  0.10915853319E+02  0.54996689623E+02  0.25738270179E+02  0.62499996466E+02  0.99999641660E+01 0.  0.
    3000022    2    5    5    0    0  0.11934323736E+02  0.50993778536E+02  0.21876487246E+02  0.56757701926E+02  0.25000268596E+00 0.  0.
        -13    1    4    4    0    0 -0.61675479926E+01 -0.31627134003E+02 -0.11534278403E+02  0.34225207914E+02  0.10500000000E+00 0.  1.
         13    1    4    4    0    0 -0.23915557567E+01 -0.12244781707E+02 -0.44081936480E+01  0.13232437955E+02  0.10500000000E+00 0. -1.
    3000001    1    5    5    0    0 -0.10184704170E+01  0.40029110874E+01  0.38617829332E+01  0.57422945403E+01  0.10000000000E+01 0. -1.
        -13    1    6    6    0    0  0.51379541416E+01  0.21862809060E+02  0.93139967776E+01  0.24313423324E+02  0.10500000000E+00 0.  1.
         13    1    6    6    0    0  0.67963695943E+01  0.29130969476E+02  0.12562490468E+02  0.32444278602E+02  0.10500000000E+00 0. -1.
</event>
<event>
11    0  0.3494755E-009  0.9118800E+02  0.7816531E-02  0.1126479E+00
         25   -1    0    0    0    0  0.00000000000E+00  0.00000000000E+00  0.99999998245E-14  0.12500000000E+03  0.12500000000E+03 0.  0.
    3000001    1    3    3    0    0  0.37063227025E+02  0.26344175065E+02 -0.13700867843E+02  0.47501706675E+02  0.10000000000E+01 0.  1.
    1000022    2    1    0    0    0  0.48139402321E+02  0.36410928162E+02 -0.12770760174E+02  0.62499999220E+02  0.99999920819E+01 0.  0.
    3000022    2    3    3    0    0  0.11076175296E+02  0.10066753097E+02  0.93010766943E+00  0.14998292545E+02  0.25000377825E+00 0.  0.
    1000022    2    1    0    0    0 -0.48139402321E+02 -0.36410928162E+02  0.12770760174E+02  0.62500000780E+02  0.10000001834E+02 0.  0.
    3000022    2    5    5    0    0 -0.14727850194E+02 -0.64492586248E+01  0.10945494976E+01  0.16117166102E+02  0.24999285666E+00 0.  0.
        -13    1    4    4    0    0  0.38890289985E+01  0.35768900307E+01  0.28063137404E+00  0.52923026946E+01  0.10500000000E+00 0. -1.
         13    1    4    4    0    0  0.71871462976E+01  0.64898630664E+01  0.64947629539E+00  0.97059898507E+01  0.10500000000E+00 0.  1.
    3000001    1    5    5    0    0 -0.33411552127E+02 -0.29961669537E+02  0.11676210676E+02  0.46382834678E+02  0.10000000000E+01 0.  1.
        -13    1    6    6    0    0 -0.70450051154E+01 -0.31581676377E+01  0.53451011429E+00  0.77396928858E+01  0.10500000000E+00 0. -1.
         13    1    6    6    0    0 -0.76828450783E+01 -0.32910909871E+01  0.56003938330E+00  0.83774732166E+01  0.10500000000E+00 0.  1.
</event>
<event>
11    0  0.3494755E-009  0.9118800E+02  0.7816531E-02  0.1126479E+00
         25   -1    0    0    0    0  0.00000000000E+00  0.00000000000E+00  0.99999998245E-14  0.12500000000E+03  0.12500000000E+03 0.  0.
    3000001    1    3    3    0    0  0.25333592840E+01 -0.32955802460E+01  0.91016112407E+01  0.10055748883E+02  0.10000000000E+01 0. -1.
    1000022    2    1    0    0    0  0.34710156206E+02 -0.11427982077E+02  0.49707706581E+02  0.62500002047E+02  0.10000022205E+02 0.  0.
    3000022    2    3    3    0    0  0.32176796922E+02 -0.81324018313E+01  0.40606095341E+02  0.52444253164E+02  0.24998286229E+00 0.  0.
    1000022    2    1    0    0    0 -0.34710156206E+02  0.11427982077E+02 -0.49707706581E+02  0.62499997953E+02  0.99999966166E+01 0.  0.
    3000022    2    5    5    0    0 -0.68262442673E+01  0.64441523577E+01 -0.14894856761E+02  0.17608065311E+02  0.24999134633E+00 0.  0.
        -13    1    4    4    0    0  0.22352942829E+02 -0.56097016359E+01  0.28239506378E+02  0.36450014417E+02  0.10500000000E+00 0.  1.
         13    1    4    4    0    0  0.98238540929E+01 -0.25227001953E+01  0.12366588963E+02  0.15994238747E+02  0.10500000000E+00 0. -1.
    3000001    1    5    5    0    0 -0.27883911939E+02  0.49838297196E+01 -0.34812849821E+02  0.44891932642E+02  0.10000000000E+01 0.  1.
        -13    1    6    6    0    0 -0.26188440513E+01  0.24868482161E+01 -0.58448017537E+01  0.68713529057E+01  0.10500000000E+00 0.  1.
         13    1    6    6    0    0 -0.42074002160E+01  0.39573041416E+01 -0.90500550071E+01  0.10736712405E+02  0.10500000000E+00 0. -1.
</event>
<event>
11    0  0.3494755E-009  0.9118800E+02  0.7816531E-02  0.1126479E+00
         25   -1    0    0    0    0  0.00000000000E+00  0.00000000000E+00  0.99999998245E-14  0.12500000000E+03  0.12500000000E+03 0.  0.
    3000001    1    3    3    0    0  0.12427366638E+02  0.45343672785E+02  0.49316812324E+01  0.47284348182E+02  0.10000000000E+01 0. -1.
    1000022    2    1    0    0    0  0.17466101180E+02  0.59161638391E+02  0.10421441361E+01  0.62499998722E+02  0.99999814177E+01 0.  0.
    3000022    2    3    3    0    0  0.50387345420E+01  0.13817965606E+02 -0.38895370963E+01  0.15215650540E+02  0.25000655479E+00 0.  0.
    1000022    2    1    0    0    0 -0.17466101180E+02 -0.59161638391E+02 -0.10421441361E+01  0.62500001278E+02  0.99999973925E+01 0.  0.
    3000022    2    5    5    0    0 -0.60226859214E+01 -0.34694108263E+02  0.21661741822E+01  0.35280429464E+02  0.24999735476E+00 0.  0.
        -13    1    4    4    0    0  0.17970687653E+01  0.47829186728E+01 -0.13245437906E+01  0.52793189363E+01  0.10500000000E+00 0.  1.
         13    1    4    4    0    0  0.32416657767E+01  0.90350469329E+01 -0.25649933058E+01  0.99363316041E+01  0.10500000000E+00 0. -1.
    3000001    1    5    5    0    0 -0.11443415258E+02 -0.24467530128E+02 -0.32083183183E+01  0.27219571814E+02  0.10000000000E+01 0. -1.
        -13    1    6    6    0    0 -0.45078458697E+01 -0.26065667225E+02  0.16078329666E+01  0.26501619463E+02  0.10500000000E+00 0. -1.
         13    1    6    6    0    0 -0.15148400517E+01 -0.86284410375E+01  0.55834121561E+00  0.87788100010E+01  0.10500000000E+00 0.  1.
</event>
<event>
11    0  0.3494755E-009  0.9118800E+02  0.7816531E-02  0.1126479E+00
         25   -1    0    0    0    0  0.00000000000E+00  0.00000000000E+00  0.99999998245E-14  0.12500000000E+03  0.12500000000E+03 0.  0.
    3000001    1    3    3    0    0 -0.17707217945E+02  0.38599140677E+02  0.18502985002E+02  0.46333569712E+02  0.10000000000E+01 0. -1.
    1000022    2    1    0    0    0 -0.18552540274E+02  0.52076894152E+02  0.27387047401E+02  0.62500000138E+02  0.99999998381E+01 0.  0.
    3000022    2    3    3    0    0 -0.84532232943E+00  0.13477753476E+02  0.88840623988E+01  0.16166430426E+02  0.24999881959E+00 0.  0.
    1000022    2    1    0    0    0  0.18552540274E+02 -0.52076894152E+02 -0.27387047401E+02  0.62499999862E+02  0.99999981130E+01 0.  0.
    3000022    2    5    5    0    0  0.19388634567E+02 -0.47221893983E+02 -0.23793362576E+02  0.56320626842E+02  0.24996683277E+00 0.  0.
        -13    1    4    4    0    0 -0.41574944291E+00  0.71904918320E+01  0.46694755427E+01  0.85843489695E+01  0.10500000000E+00 0.  1.
         13    1    4    4    0    0 -0.42957288652E+00  0.62872616435E+01  0.42145868561E+01  0.75820814560E+01  0.10500000000E+00 0. -1.
    3000001    1    5    5    0    0 -0.83609429286E+00 -0.48550001687E+01 -0.35936848241E+01  0.61793730199E+01  0.10000000000E+01 0. -1.
        -13    1    6    6    0    0  0.47099344630E+01 -0.11494134708E+02 -0.58121362856E+01  0.13714611498E+02  0.10500000000E+00 0.  1.
         13    1    6    6    0    0  0.14678700104E+02 -0.35727759276E+02 -0.17981226291E+02  0.42606015344E+02  0.10500000000E+00 0. -1.
</event>
<event>
11    0  0.3494755E-009  0.9118800E+02  0.7816531E-02  0.1126479E+00
         25   -1    0    0    0    0  0.00000000000E+00  0.00000000000E+00  0.99999998245E-14  0.12500000000E+03  0.12500000000E+03 0.  0.
    3000001    1    3    3    0    0  0.27904176410E+02 -0.24541147591E+01  0.19294549591E+00  0.28030393653E+02  0.10000000000E+01 0.  1.
    1000022    2    1    0    0    0  0.60546422906E+02 -0.56799046597E+01 -0.10398052273E+02  0.62499999312E+02  0.99999889634E+01 0.  0.
    3000022    2    3    3    0    0  0.32642246496E+02 -0.32257899006E+01 -0.10590997769E+02  0.34469605659E+02  0.25000752433E+00 0.  0.
    1000022    2    1    0    0    0 -0.60546422906E+02  0.56799046597E+01  0.10398052273E+02  0.62500000688E+02  0.99999975684E+01 0.  0.
    3000022    2    5    5    0    0 -0.19184695111E+02  0.34592203787E+01 -0.10194039365E+01  0.19522305646E+02  0.25000246728E+00 0.  0.
        -13    1    4    4    0    0  0.24349368822E+02 -0.23880692452E+01 -0.79229457926E+01  0.25717284689E+02  0.10500000000E+00 0.  1.
         13    1    4    4    0    0  0.82928776740E+01 -0.83772065547E+00 -0.26680519764E+01  0.87523209700E+01  0.10500000000E+00 0. -1.
    3000001    1    5    5    0    0 -0.41361727795E+02  0.22206842810E+01  0.11417456209E+02  0.42977695042E+02  0.10000000000E+01 0.  1.
        -13    1    6    6    0    0 -0.14209154159E+02  0.25388471299E+01 -0.77636364086E+00  0.14455434002E+02  0.10500000000E+00 0. -1.
         13    1    6    6    0    0 -0.49755409512E+01  0.92037324879E+00 -0.24304029562E+00  0.50668716442E+01  0.10500000000E+00 0.  1.
</event>
<event>
11    0  0.3494755E-009  0.9118800E+02  0.7816531E-02  0.1126479E+00
         25   -1    0    0    0    0  0.00000000000E+00  0.00000000000E+00  0.99999998245E-14  0.12500000000E+03  0.12500000000E+03 0.  0.
    3000001    1    3    3    0    0  0.81959552105E+01 -0.77013952032E+01 -0.31349280821E+02  0.33320602904E+02  0.10000000000E+01 0. -1.
    1000022    2    1    0    0    0  0.18998017229E+02 -0.21803469284E+02 -0.54497101249E+02  0.62499998528E+02  0.99999919956E+01 0.  0.
    3000022    2    3    3    0    0  0.10802062018E+02 -0.14102074081E+02 -0.23147820428E+02  0.29179395624E+02  0.25000228448E+00 0.  0.
    1000022    2    1    0    0    0 -0.18998017229E+02  0.21803469284E+02  0.54497101249E+02  0.62500001472E+02  0.10000010399E+02 0.  0.
    3000022    2    5    5    0    0 -0.62012523951E+01  0.42108354318E+01  0.70475988674E+01  0.10291637847E+02  0.24998696953E+00 0.  0.
        -13    1    4    4    0    0  0.34459543188E+01 -0.45800251816E+01 -0.74918556691E+01  0.94334595032E+01  0.10500000000E+00 0. -1.
         13    1    4    4    0    0  0.73561076994E+01 -0.95220488996E+01 -0.15655964759E+02  0.19745936121E+02  0.10500000000E+00 0.  1.
    3000001    1    5    5    0    0 -0.12796764834E+02  0.17592633853E+02  0.47449502382E+02  0.52208363625E+02  0.10000000000E+01 0.  1.
        -13    1    6    6    0    0 -0.20500220150E+01  0.13732561058E+01  0.22521338866E+01  0.33423875654E+01  0.10500000000E+00 0. -1.
         13    1    6    6    0    0 -0.41512303801E+01  0.28375793260E+01  0.47954649808E+01  0.69492502820E+01  0.10500000000E+00 0.  1.
</event>
<event>
11    0  0.3494755E-009  0.9118800E+02  0.7816531E-02  0.1126479E+00
         25   -1    0    0    0    0  0.00000000000E+00  0.00000000000E+00  0.99999998245E-14  0.12500000000E+03  0.12500000000E+03 0.  0.
    3000001    1    3    3    0    0 -0.78373772299E+01  0.22158272734E+02 -0.25054185992E+02  0.34367510357E+02  0.10000000000E+01 0.  1.
    1000022    2    1    0    0    0 -0.85026587308E+01  0.35080420398E+02 -0.50033177748E+02  0.62500000793E+02  0.10000006145E+02 0.  0.
    3000022    2    3    3    0    0 -0.66528150096E+00  0.12922147664E+02 -0.24978991755E+02  0.28132490437E+02  0.24997865793E+00 0.  0.
    1000022    2    1    0    0    0  0.85026587308E+01 -0.35080420398E+02  0.50033177748E+02  0.62499999207E+02  0.99999962265E+01 0.  0.
    3000022    2    5    5    0    0  0.53567048771E+00 -0.13438584423E+01  0.73964627578E+01  0.75407599528E+01  0.25000190785E+00 0.  0.
        -13    1    4    4    0    0 -0.22316085660E+00  0.38799567504E+01 -0.74183984082E+01  0.83754119359E+01  0.10500000000E+00 0.  1.
         13    1    4    4    0    0 -0.44212064436E+00  0.90421909131E+01 -0.17560593347E+02  0.19757078501E+02  0.10500000000E+00 0. -1.
    3000001    1    5    5    0    0  0.79669882431E+01 -0.33736561955E+02  0.42636714990E+02  0.54959239254E+02  0.10000000000E+01 0.  1.
        -13    1    6    6    0    0  0.32549664386E+00 -0.67553566186E+00  0.35996473246E+01  0.36784211772E+01  0.10500000000E+00 0. -1.
         13    1    6    6    0    0  0.21017384385E+00 -0.66832278049E+00  0.37968154332E+01  0.38623387756E+01  0.10500000000E+00 0.  1.
</event>
<event>
11    0  0.3494755E-009  0.9118800E+02  0.7816531E-02  0.1126479E+00
         25   -1    0    0    0    0  0.00000000000E+00  0.00000000000E+00  0.99999998245E-14  0.12500000000E+03  0.12500000000E+03 0.  0.
    3000001    1    3    3    0    0 -0.53741928946E+00 -0.23184018942E+02  0.20377021896E+02  0.30887061614E+02  0.10000000000E+01 0.  1.
    1000022    2    1    0    0    0 -0.98631531754E+01 -0.48584370647E+02  0.36722298303E+02  0.62499997800E+02  0.99999835289E+01 0.  0.
    3000022    2    3    3    0    0 -0.93257338859E+01 -0.25400351705E+02  0.16345276406E+02  0.31612936186E+02  0.24998841240E+00 0.  0.
    1000022    2    1    0    0    0  0.98631531754E+01  0.48584370647E+02 -0.36722298303E+02  0.62500002200E+02  0.10000011035E+02 0.  0.
    3000022    2    5    5    0    0  0.63758002598E+01  0.10297657429E+02 -0.85934480466E+01  0.14852691089E+02  0.25001156899E+00 0.  0.
        -13    1    4    4    0    0 -0.37567878565E+01 -0.10116622327E+02  0.65759568903E+01  0.12637790009E+02  0.10500000000E+00 0.  1.
         13    1    4    4    0    0 -0.55689460294E+01 -0.15283729379E+02  0.97693195161E+01  0.18975146176E+02  0.10500000000E+00 0. -1.
    3000001    1    5    5    0    0  0.34873529156E+01  0.38286713219E+02 -0.28128850256E+02  0.47647311112E+02  0.10000000000E+01 0. -1.
        -13    1    6    6    0    0  0.43031252598E+01  0.68660059535E+01 -0.57125907424E+01  0.99148193500E+01  0.10500000000E+00 0.  1.
         13    1    6    6    0    0  0.20726750000E+01  0.34316514751E+01 -0.28808573043E+01  0.49378717389E+01  0.10500000000E+00 0. -1.
</event>
<event>
11    0  0.3494755E-009  0.9118800E+02  0.7816531E-02  0.1126479E+00
         25   -1    0    0    0    0  0.00000000000E+00  0.00000000000E+00  0.99999998245E-14  0.12500000000E+03  0.12500000000E+03 0.  0.
    3000001    1    3    3    0    0  0.29486377248E+01  0.10100028306E+02 -0.12965702062E+02  0.16727655728E+02  0.10000000000E+01 0.  1.
    1000022    2    1    0    0    0  0.88515277268E+01  0.23693710338E+02 -0.56271737120E+02  0.62499999731E+02  0.10000005755E+02 0.  0.
    3000022    2    3    3    0    0  0.59028900020E+01  0.13593682033E+02 -0.43306035059E+02  0.45772344003E+02  0.25000281284E+00 0.  0.
    1000022    2    1    0    0    0 -0.88515277268E+01 -0.23693710338E+02  0.56271737120E+02  0.62500000269E+02  0.10000009122E+02 0.  0.
    3000022    2    5    5    0    0 -0.48502591979E+01 -0.26838304858E+01  0.15224688599E+02  0.16204369876E+02  0.24999952576E+00 0.  0.
        -13    1    4    4    0    0  0.19066810524E+01  0.43532445890E+01 -0.14039790207E+02  0.14822715849E+02  0.10500000000E+00 0.  1.
         13    1    4    4    0    0  0.39962089496E+01  0.92404374439E+01 -0.29266244852E+02  0.30949628154E+02  0.10500000000E+00 0. -1.
    3000001    1    5    5    0    0 -0.40012685288E+01 -0.21009879853E+02  0.41047048521E+02  0.46295630394E+02  0.10000000000E+01 0.  1.
        -13    1    6    6    0    0 -0.30632918832E+01 -0.16534673971E+01  0.94175619634E+01  0.10040876950E+02  0.10500000000E+00 0. -1.
         13    1    6    6    0    0 -0.17869673147E+01 -0.10303630888E+01  0.58071266360E+01  0.61634929257E+01  0.10500000000E+00 0.  1.
</event>
<event>
11    0  0.3494755E-009  0.9118800E+02  0.7816531E-02  0.1126479E+00
         25   -1    0    0    0    0  0.00000000000E+00  0.00000000000E+00  0.99999998245E-14  0.12500000000E+03  0.12500000000E+03 0.  0.
    3000001    1    3    3    0    0 -0.24661138946E+01 -0.13665926470E+01 -0.13099471507E+01  0.32657701606E+01  0.10000000000E+01 0.  1.
    1000022    2    1    0    0    0 -0.56452091604E+02 -0.21895950767E+02  0.11831246477E+02  0.62499998490E+02  0.10000005579E+02 0.  0.
    3000022    2    3    3    0    0 -0.53985977710E+02 -0.20529358120E+02  0.13141193628E+02  0.59234228330E+02  0.25000350538E+00 0.  0.
    1000022    2    1    0    0    0  0.56452091604E+02  0.21895950767E+02 -0.11831246477E+02  0.62500001510E+02  0.10000024449E+02 0.  0.
    3000022    2    5    5    0    0  0.35479142955E+02  0.13695922702E+02 -0.12247047298E+02  0.39954981535E+02  0.24999693773E+00 0.  0.
        -13    1    4    4    0    0 -0.17329578651E+02 -0.65361611974E+01  0.42221351265E+01  0.18996661534E+02  0.10500000000E+00 0. -1.
         13    1    4    4    0    0 -0.36656399059E+02 -0.13993196923E+02  0.89190585011E+01  0.40237566796E+02  0.10500000000E+00 0.  1.
    3000001    1    5    5    0    0  0.20972948650E+02  0.82000280654E+01  0.41580082145E+00  0.22545019975E+02  0.10000000000E+01 0. -1.
        -13    1    6    6    0    0  0.23988297504E+02  0.92070131579E+01 -0.82588427369E+01  0.26989387114E+02  0.10500000000E+00 0.  1.
         13    1    6    6    0    0  0.11490845451E+02  0.44889095442E+01 -0.39882045614E+01  0.12965594421E+02  0.10500000000E+00 0. -1.
</event>
<event>
11    0  0.3494755E-009  0.9118800E+02  0.7816531E-02  0.1126479E+00
         25   -1    0    0    0    0  0.00000000000E+00  0.00000000000E+00  0.99999998245E-14  0.12500000000E+03  0.12500000000E+03 0.  0.
    3000001    1    3    3    0    0  0.68590808609E+01  0.10193894676E+00  0.87762483483E+01  0.11183913308E+02  0.10000000000E+01 0.  1.
    1000022    2    1    0    0    0  0.44019812641E+02  0.18038973502E+02  0.39282329266E+02  0.62499999138E+02  0.10000001487E+02 0.  0.
    3000022    2    3    3    0    0  0.37160731780E+02  0.17937034556E+02  0.30506080918E+02  0.51316085830E+02  0.24999380883E+00 0.  0.
    1000022    2    1    0    0    0 -0.44019812641E+02 -0.18038973502E+02 -0.39282329266E+02  0.62500000862E+02  0.10000012262E+02 0.  0.
    3000022    2    5    5    0    0 -0.13616318491E+02 -0.62185430968E+01 -0.67615624683E+01  0.16427283289E+02  0.25000346998E+00 0.  0.
        -13    1    4    4    0    0  0.15271756963E+02  0.73550281776E+01  0.12609221911E+02  0.21126440837E+02  0.10500000000E+00 0.  1.
         13    1    4    4    0    0  0.21888974817E+02  0.10582006378E+02  0.17896859007E+02  0.30189644993E+02  0.10500000000E+00 0. -1.
    3000001    1    5    5    0    0 -0.30403494149E+02 -0.11820430406E+02 -0.32520766798E+02  0.46072717573E+02  0.10000000000E+01 0. -1.
        -13    1    6    6    0    0 -0.79158877107E+01 -0.36041186486E+01 -0.39987926399E+01  0.95735216643E+01  0.10500000000E+00 0.  1.
         13    1    6    6    0    0 -0.57004307807E+01 -0.26144244482E+01 -0.27627698285E+01  0.68537616245E+01  0.10500000000E+00 0. -1.
</event>
<event>
11    0  0.3494755E-009  0.9118800E+02  0.7816531E-02  0.1126479E+00
         25   -1    0    0    0    0  0.00000000000E+00  0.00000000000E+00  0.99999998245E-14  0.12500000000E+03  0.12500000000E+03 0.  0.
    3000001    1    3    3    0    0 -0.23506575233E+02  0.46895393217E+01 -0.21802158530E+02  0.32417356073E+02  0.10000000000E+01 0. -1.
    1000022    2    1    0    0    0 -0.38180316817E+02  0.13451964281E+02 -0.46557041243E+02  0.62500000527E+02  0.10000002064E+02 0.  0.
    3000022    2    3    3    0    0 -0.14673741583E+02  0.87624249595E+01 -0.24754882714E+02  0.30082644453E+02  0.24999181419E+00 0.  0.
    1000022    2    1    0    0    0  0.38180316817E+02 -0.13451964281E+02  0.46557041243E+02  0.62499999473E+02  0.99999954804E+01 0.  0.
    3000022    2    5    5    0    0  0.59456854947E+01  0.37409863547E+00  0.11191340306E+02  0.12680683189E+02  0.25000501953E+00 0.  0.
        -13    1    4    4    0    0 -0.80540718339E+01  0.47654486396E+01 -0.13457571739E+02  0.16391913737E+02  0.10500000000E+00 0.  1.
         13    1    4    4    0    0 -0.66196697496E+01  0.39969763199E+01 -0.11297310975E+02  0.13690730717E+02  0.10500000000E+00 0. -1.
    3000001    1    5    5    0    0  0.32234631322E+02 -0.13826062917E+02  0.35365700937E+02  0.49819316284E+02  0.10000000000E+01 0.  1.
        -13    1    6    6    0    0  0.29614189589E+01  0.25223988377E+00  0.56171450131E+01  0.63558610988E+01  0.10500000000E+00 0. -1.
         13    1    6    6    0    0  0.29842665358E+01  0.12185875170E+00  0.55741952930E+01  0.63248220905E+01  0.10500000000E+00 0.  1.
</event>
<event>
11    0  0.3494755E-009  0.9118800E+02  0.7816531E-02  0.1126479E+00
         25   -1    0    0    0    0  0.00000000000E+00  0.00000000000E+00  0.99999998245E-14  0.12500000000E+03  0.12500000000E+03 0.  0.
    3000001    1    3    3    0    0  0.65586958343E+01 -0.28235061118E+00 -0.12907005381E-01  0.66405104853E+01  0.10000000000E+01 0.  1.
    1000022    2    1    0    0    0  0.54537078260E+02 -0.23575189551E+02 -0.16618287093E+02  0.62500000931E+02  0.10000009152E+02 0.  0.
    3000022    2    3    3    0    0  0.47978382425E+02 -0.23292838939E+02 -0.16605380088E+02  0.55859490446E+02  0.24999799353E+00 0.  0.
    1000022    2    1    0    0    0 -0.54537078260E+02  0.23575189551E+02  0.16618287093E+02  0.62499999069E+02  0.99999975120E+01 0.  0.
    3000022    2    5    5    0    0 -0.59902949968E+01  0.63188337942E+01  0.27480525002E+01  0.91337608013E+01  0.24999832618E+00 0.  0.
        -13    1    4    4    0    0  0.34270059362E+02 -0.16648210769E+02 -0.11819891746E+02  0.39891361926E+02  0.10500000000E+00 0.  1.
         13    1    4    4    0    0  0.13708323064E+02 -0.66446281707E+01 -0.47854883419E+01  0.15968128520E+02  0.10500000000E+00 0. -1.
    3000001    1    5    5    0    0 -0.48546783263E+02  0.17256355756E+02  0.13870234593E+02  0.53366238268E+02  0.10000000000E+01 0. -1.
        -13    1    6    6    0    0 -0.18133135983E+01  0.18578929871E+01  0.84606503920E+00  0.27325306234E+01  0.10500000000E+00 0. -1.
         13    1    6    6    0    0 -0.41769813986E+01  0.44609408072E+01  0.19019874610E+01  0.64012301779E+01  0.10500000000E+00 0.  1.
</event>
<event>
11    0  0.3494755E-009  0.9118800E+02  0.7816531E-02  0.1126479E+00
         25   -1    0    0    0    0  0.00000000000E+00  0.00000000000E+00  0.99999998245E-14  0.12500000000E+03  0.12500000000E+03 0.  0.
    3000001    1    3    3    0    0 -0.26578293894E+02 -0.10415596904E+02  0.42851518390E+01  0.28883436283E+02  0.10000000000E+01 0. -1.
    1000022    2    1    0    0    0 -0.54802998996E+02 -0.28325639313E+02  0.73447997842E+00  0.62500000136E+02  0.10000000736E+02 0.  0.
    3000022    2    3    3    0    0 -0.28224705102E+02 -0.17910042409E+02 -0.35506718606E+01  0.33616563853E+02  0.24999498863E+00 0.  0.
    1000022    2    1    0    0    0  0.54802998996E+02  0.28325639313E+02 -0.73447997842E+00  0.62499999864E+02  0.99999990355E+01 0.  0.
    3000022    2    5    5    0    0  0.54442610743E+02  0.26963148861E+02 -0.92672958154E+00  0.60761258988E+02  0.25001015561E+00 0.  0.
        -13    1    4    4    0    0 -0.18539055523E+02 -0.11828883967E+02 -0.23422183879E+01  0.22115969062E+02  0.10500000000E+00 0.  1.
         13    1    4    4    0    0 -0.96856495788E+01 -0.60811584414E+01 -0.12084534727E+01  0.11500594791E+02  0.10500000000E+00 0. -1.
    3000001    1    5    5    0    0  0.36038825320E+00  0.13624904516E+01  0.19224960312E+00  0.17387408759E+01  0.10000000000E+01 0.  1.
        -13    1    6    6    0    0  0.38911832748E+02  0.19239059979E+02 -0.63237929157E+00  0.43412936843E+02  0.10500000000E+00 0. -1.
         13    1    6    6    0    0  0.15530777994E+02  0.77240888820E+01 -0.29435028997E+00  0.17348322146E+02  0.10500000000E+00 0.  1.
</event>
<event>
11    0  0.3494755E-009  0.9118800E+02  0.7816531E-02  0.1126479E+00
         25   -1    0    0    0    0  0.00000000000E+00  0.00000000000E+00  0.99999998245E-14  0.12500000000E+03  0.12500000000E+03 0.  0.
    3000001    1    3    3    0    0  0.32449098882E+01  0.42988762062E+01  0.20565646066E+01  0.58514301500E+01  0.10000000000E+01 0.  1.
    1000022    2    1    0    0    0  0.74583548012E+01  0.53131768175E+02  0.30457152644E+02  0.62499998952E+02  0.99999937992E+01 0.  0.
    3000022    2    3    3    0    0  0.42134449130E+01  0.48832891969E+02  0.28400588038E+02  0.56648568802E+02  0.24998058873E+00 0.  0.
    1000022    2    1    0    0    0 -0.74583548012E+01 -0.53131768175E+02 -0.30457152644E+02  0.62500001048E+02  0.10000006904E+02 0.  0.
    3000022    2    5    5    0    0  0.45820067006E+00 -0.14462714887E+02 -0.12506225964E+02  0.19127160452E+02  0.25001864057E+00 0.  0.
        -13    1    4    4    0    0  0.19953195336E+01  0.23369047653E+02  0.13515837612E+02  0.27069957141E+02  0.10500000000E+00 0.  1.
         13    1    4    4    0    0  0.22181253794E+01  0.25463844316E+02  0.14884750426E+02  0.29578611661E+02  0.10500000000E+00 0. -1.
    3000001    1    5    5    0    0 -0.79165554712E+01 -0.38669053289E+02 -0.17950926680E+02  0.43372840597E+02  0.10000000000E+01 0. -1.
        -13    1    6    6    0    0  0.20908450954E+00 -0.72851879201E+01 -0.63839909337E+01  0.96893779266E+01  0.10500000000E+00 0. -1.
         13    1    6    6    0    0  0.24911616052E+00 -0.71775269666E+01 -0.61222350306E+01  0.94377825250E+01  0.10500000000E+00 0.  1.
</event>
<event>
11    0  0.3494755E-009  0.9118800E+02  0.7816531E-02  0.1126479E+00
         25   -1    0    0    0    0  0.00000000000E+00  0.00000000000E+00  0.99999998245E-14  0.12500000000E+03  0.12500000000E+03 0.  0.
    3000001    1    3    3    0    0  0.19683328427E+02  0.73219400650E+01  0.17055911851E+01  0.21093915368E+02  0.10000000000E+01 0. -1.
    1000022    2    1    0    0    0  0.52404355310E+02  0.32540121769E+02 -0.10834945470E+01  0.62499999445E+02  0.99999995003E+01 0.  0.
    3000022    2    3    3    0    0  0.32721026883E+02  0.25218181704E+02 -0.27890857321E+01  0.41406084077E+02  0.25002122226E+00 0.  0.
    1000022    2    1    0    0    0 -0.52404355310E+02 -0.32540121769E+02  0.10834945470E+01  0.62500000555E+02  0.10000006434E+02 0.  0.
    3000022    2    5    5    0    0 -0.35584778078E+02 -0.22539454781E+02  0.53072836995E+01  0.42456250574E+02  0.24999974593E+00 0.  0.
        -13    1    4    4    0    0  0.24393382419E+02  0.18835702767E+02 -0.20760488097E+01  0.30889185943E+02  0.10500000000E+00 0.  1.
         13    1    4    4    0    0  0.83276444645E+01  0.63824789374E+01 -0.71303692244E+00  0.10516898134E+02  0.10500000000E+00 0. -1.
    3000001    1    5    5    0    0 -0.16819577232E+02 -0.10000666989E+02 -0.42237891525E+01  0.20043749980E+02  0.10000000000E+01 0.  1.
        -13    1    6    6    0    0 -0.10595390123E+02 -0.66888529491E+01  0.15374466142E+01  0.12624492573E+02  0.10500000000E+00 0. -1.
         13    1    6    6    0    0 -0.24989387955E+02 -0.15850601831E+02  0.37698370852E+01  0.29831758001E+02  0.10500000000E+00 0.  1.
</event>
<event>
11    0  0.3494755E-009  0.9118800E+02  0.7816531E-02  0.1126479E+00
         25   -1    0    0    0    0  0.00000000000E+00  0.00000000000E+00  0.99999998245E-14  0.12500000000E+03  0.12500000000E+03 0.  0.
    3000001    1    3    3    0    0 -0.35070107446E+00 -0.35384908782E+01  0.32091906568E+01  0.48931394432E+01  0.10000000000E+01 0. -1.
    1000022    2    1    0    0    0 -0.30320207774E+02 -0.27060566066E+02  0.46418319343E+02  0.62500002343E+02  0.10000034348E+02 0.  0.
    3000022    2    3    3    0    0 -0.29969506700E+02 -0.23522075188E+02  0.43209128686E+02  0.57606862900E+02  0.24999674209E+00 0.  0.
    1000022    2    1    0    0    0  0.30320207774E+02  0.27060566066E+02 -0.46418319343E+02  0.62499997657E+02  0.10000005055E+02 0.  0.
    3000022    2    5    5    0    0  0.30360553789E+02  0.27247930310E+02 -0.44832247039E+02  0.60615227508E+02  0.24999738445E+00 0.  0.
        -13    1    4    4    0    0 -0.18550220483E+02 -0.14517100294E+02  0.26792591792E+02  0.35675073662E+02  0.10500000000E+00 0. -1.
         13    1    4    4    0    0 -0.11419286217E+02 -0.90049748947E+01  0.16416536895E+02  0.21931789238E+02  0.10500000000E+00 0.  1.
    3000001    1    5    5    0    0 -0.40346014454E-01 -0.18736424333E+00 -0.15860723042E+01  0.18847701490E+01  0.10000000000E+01 0.  1.
        -13    1    6    6    0    0  0.14274727611E+02  0.12898984423E+02 -0.21168523688E+02  0.28605402770E+02  0.10500000000E+00 0. -1.
         13    1    6    6    0    0  0.16085826177E+02  0.14348945887E+02 -0.23663723351E+02  0.32009824737E+02  0.10500000000E+00 0.  1.
</event>
<event>
11    0  0.3494755E-009  0.9118800E+02  0.7816531E-02  0.1126479E+00
         25   -1    0    0    0    0  0.00000000000E+00  0.00000000000E+00  0.99999998245E-14  0.12500000000E+03  0.12500000000E+03 0.  0.
    3000001    1    3    3    0    0 -0.21964314128E+02  0.33372175339E+02  0.80656905011E+01  0.40769946593E+02  0.10000000000E+01 0. -1.
    1000022    2    1    0    0    0 -0.31319889761E+02  0.52843949261E+02  0.57299042904E+01  0.62499998907E+02  0.99999796068E+01 0.  0.
    3000022    2    3    3    0    0 -0.93555756327E+01  0.19471773922E+02 -0.23357862107E+01  0.21730052314E+02  0.25000252287E+00 0.  0.
    1000022    2    1    0    0    0  0.31319889761E+02 -0.52843949261E+02 -0.57299042904E+01  0.62500001093E+02  0.99999932660E+01 0.  0.
    3000022    2    5    5    0    0 -0.18284568147E+00 -0.54208067800E+00 -0.10938560347E+01  0.12594855739E+01  0.24999776275E+00 0.  0.
        -13    1    4    4    0    0 -0.29479890837E+01  0.62111248791E+01 -0.78196537479E+00  0.69203472997E+01  0.10500000000E+00 0.  1.
         13    1    4    4    0    0 -0.64075865491E+01  0.13260649043E+02 -0.15538208359E+01  0.14809705015E+02  0.10500000000E+00 0. -1.
    3000001    1    5    5    0    0  0.31502735442E+02 -0.52301868583E+02 -0.46360482557E+01  0.61240515519E+02  0.10000000000E+01 0. -1.
        -13    1    6    6    0    0 -0.12163191064E+00 -0.25332119227E+00 -0.65337938179E+00  0.71895449417E+00  0.10500000000E+00 0.  1.
         13    1    6    6    0    0 -0.61213770837E-01 -0.28875948573E+00 -0.44047665296E+00  0.54053107972E+00  0.10500000000E+00 0. -1.
</event>
<event>
11    0  0.3494755E-009  0.9118800E+02  0.7816531E-02  0.1126479E+00
         25   -1    0    0    0    0  0.00000000000E+00  0.00000000000E+00  0.99999998245E-14  0.12500000000E+03  0.12500000000E+03 0.  0.
    3000001    1    3    3    0    0  0.13915702801E+02  0.18085445332E+02  0.54292839297E+02  0.58901973789E+02  0.10000000000E+01 0.  1.
    1000022    2    1    0    0    0  0.15941875497E+02  0.17110530200E+02  0.57090597815E+02  0.62499999271E+02  0.99999955971E+01 0.  0.
    3000022    2    3    3    0    0  0.20261726962E+01 -0.97491513151E+00  0.27977585178E+01  0.35980254823E+01  0.24999867749E+00 0.  0.
    1000022    2    1    0    0    0 -0.15941875497E+02 -0.17110530200E+02 -0.57090597815E+02  0.62500000729E+02  0.10000004705E+02 0.  0.
    3000022    2    5    5    0    0 -0.46942439713E+01 -0.10888143531E+02 -0.34598777865E+02  0.36574930325E+02  0.25000491497E+00 0.  0.
        -13    1    4    4    0    0  0.13645620457E+01 -0.68961636811E+00  0.19617747392E+01  0.24894146780E+01  0.10500000000E+00 0.  1.
         13    1    4    4    0    0  0.66161065058E+00 -0.28529876340E+00  0.83598377856E+00  0.11086108043E+01  0.10500000000E+00 0. -1.
    3000001    1    5    5    0    0 -0.11247631526E+02 -0.62223866690E+01 -0.22491819950E+02  0.25925070404E+02  0.10000000000E+01 0.  1.
        -13    1    6    6    0    0 -0.14784715882E+01 -0.35602241622E+01 -0.11254159547E+02  0.11896562799E+02  0.10500000000E+00 0. -1.
         13    1    6    6    0    0 -0.32157723831E+01 -0.73279193689E+01 -0.23344618319E+02  0.24678367526E+02  0.10500000000E+00 0.  1.
</event>
<event>
11    0  0.3494755E-009  0.9118800E+02  0.7816531E-02  0.1126479E+00
         25   -1    0    0    0    0  0.00000000000E+00  0.00000000000E+00  0.99999998245E-14  0.12500000000E+03  0.12500000000E+03 0.  0.
    3000001    1    3    3    0    0  0.80115854833E+01  0.35127185448E+01 -0.13432709870E+02  0.16061207551E+02  0.10000000000E+01 0. -1.
    1000022    2    1    0    0    0  0.43592766478E+02  0.14470313887E+02 -0.41188965141E+02  0.62500001090E+02  0.10000000683E+02 0.  0.
    3000022    2    3    3    0    0  0.35581180994E+02  0.10957595342E+02 -0.27756255271E+02  0.46438793539E+02  0.25000412752E+00 0.  0.
    1000022    2    1    0    0    0 -0.43592766478E+02 -0.14470313887E+02  0.41188965141E+02  0.62499998910E+02  0.99999870608E+01 0.  0.
    3000022    2    5    5    0    0 -0.41672158587E+02 -0.15544543433E+02  0.38011218576E+02  0.58507408646E+02  0.24999392253E+00 0.  0.
        -13    1    4    4    0    0  0.23473974285E+02  0.72801369650E+01 -0.18353564072E+02  0.30673966195E+02  0.10500000000E+00 0. -1.
         13    1    4    4    0    0  0.12107206709E+02  0.36774583772E+01 -0.94026911995E+01  0.15764827345E+02  0.10500000000E+00 0.  1.
    3000001    1    5    5    0    0 -0.19206078902E+01  0.10742295462E+01  0.31777465647E+01  0.39925902639E+01  0.10000000000E+01 0. -1.
        -13    1    6    6    0    0 -0.30432647233E+02 -0.11386752345E+02  0.27749892291E+02  0.42730219912E+02  0.10500000000E+00 0.  1.
         13    1    6    6    0    0 -0.11239511355E+02 -0.41577910886E+01  0.10261326286E+02  0.15777188735E+02  0.10500000000E+00 0. -1.
</event>
<event>
11    0  0.3494755E-009  0.9118800E+02  0.7816531E-02  0.1126479E+00
         25   -1    0    0    0    0  0.00000000000E+00  0.00000000000E+00  0.99999998245E-14  0.12500000000E+03  0.12500000000E+03 0.  0.
    3000001    1    3    3    0    0 -0.31569692097E+01  0.72024013186E+00  0.34521723772E+02  0.34687672344E+02  0.10000000000E+01 0. -1.
    1000022    2    1    0    0    0  0.81575787666E+00  0.72507444420E+01  0.61261825383E+02  0.62500000147E+02  0.10000000662E+02 0.  0.
    3000022    2    3    3    0    0  0.39727270864E+01  0.65305043101E+01  0.26740101611E+02  0.27812327803E+02  0.24999323174E+00 0.  0.
    1000022    2    1    0    0    0 -0.81575787666E+00 -0.72507444420E+01 -0.61261825383E+02  0.62499999853E+02  0.99999988214E+01 0.  0.
    3000022    2    5    5    0    0 -0.28015031957E+01 -0.24683315598E+01 -0.66218002524E+01  0.76060384021E+01  0.25000149280E+00 0.  0.
        -13    1    4    4    0    0  0.10952805864E+01  0.18694586976E+01  0.76559603788E+01  0.79573406178E+01  0.10500000000E+00 0. -1.
         13    1    4    4    0    0  0.28774465000E+01  0.46610456125E+01  0.19084141232E+02  0.19854987186E+02  0.10500000000E+00 0.  1.
    3000001    1    5    5    0    0  0.19857453191E+01 -0.47824128821E+01 -0.54640025131E+02  0.54893961451E+02  0.10000000000E+01 0.  1.
        -13    1    6    6    0    0 -0.18919844991E+01 -0.17262574795E+01 -0.44918136250E+01  0.51717487248E+01  0.10500000000E+00 0.  1.
         13    1    6    6    0    0 -0.90951869660E+00 -0.74207408031E+00 -0.21299866274E+01  0.24342896773E+01  0.10500000000E+00 0. -1.
</event>
<event>
11    0  0.3494755E-009  0.9118800E+02  0.7816531E-02  0.1126479E+00
         25   -1    0    0    0    0  0.00000000000E+00  0.00000000000E+00  0.99999998245E-14  0.12500000000E+03  0.12500000000E+03 0.  0.
    3000001    1    3    3    0    0 -0.28187824284E+02  0.10250979578E+02 -0.28232665738E+02  0.41203391060E+02  0.10000000000E+01 0.  1.
    1000022    2    1    0    0    0 -0.44822018563E+02  0.88657373533E+01 -0.41456424771E+02  0.62500001540E+02  0.10000019538E+02 0.  0.
    3000022    2    3    3    0    0 -0.16634194279E+02 -0.13852422243E+01 -0.13223759033E+02  0.21296610480E+02  0.24999925219E+00 0.  0.
    1000022    2    1    0    0    0  0.44822018563E+02 -0.88657373533E+01  0.41456424771E+02  0.62499998460E+02  0.10000000294E+02 0.  0.
    3000022    2    5    5    0    0  0.26720785052E+02 -0.10162414387E+02  0.25894711544E+02  0.38572964701E+02  0.24999987570E+00 0.  0.
        -13    1    4    4    0    0 -0.45134338451E+01 -0.37729798578E+00 -0.36353762904E+01  0.58086508431E+01  0.10500000000E+00 0.  1.
         13    1    4    4    0    0 -0.12120760434E+02 -0.10079442385E+01 -0.95883827429E+01  0.15487959637E+02  0.10500000000E+00 0. -1.
    3000001    1    5    5    0    0  0.18101233511E+02  0.12966770333E+01  0.15561713227E+02  0.23927033759E+02  0.10000000000E+01 0.  1.
        -13    1    6    6    0    0  0.14716389093E+02 -0.55884185073E+01  0.14347853395E+02  0.21299635006E+02  0.10500000000E+00 0. -1.
         13    1    6    6    0    0  0.12004395959E+02 -0.45739958793E+01  0.11546858150E+02  0.17273329696E+02  0.10500000000E+00 0.  1.
</event>
<event>
11    0  0.3494755E-009  0.9118800E+02  0.7816531E-02  0.1126479E+00
         25   -1    0    0    0    0  0.00000000000E+00  0.00000000000E+00  0.99999998245E-14  0.12500000000E+03  0.12500000000E+03 0.  0.
    3000001    1    3    3    0    0 -0.17427013991E+02  0.37594269500E+01  0.90449379762E+01  0.20016118770E+02  0.10000000000E+01 0. -1.
    1000022    2    1    0    0    0 -0.51930476409E+02 -0.14484733276E+01  0.33277283269E+02  0.62500000290E+02  0.99999999716E+01 0.  0.
    3000022    2    3    3    0    0 -0.34503462419E+02 -0.52079002775E+01  0.24232345292E+02  0.42483881520E+02  0.24997291049E+00 0.  0.
    1000022    2    1    0    0    0  0.51930476409E+02  0.14484733276E+01 -0.33277283269E+02  0.62499999710E+02  0.99999963465E+01 0.  0.
    3000022    2    5    5    0    0  0.44708936248E+02 -0.21154150236E+01 -0.28913446464E+02  0.53286150670E+02  0.25001121131E+00 0.  0.
        -13    1    4    4    0    0 -0.80975647832E+01 -0.12106334255E+01  0.56960088570E+01  0.99745541559E+01  0.10500000000E+00 0. -1.
         13    1    4    4    0    0 -0.26405897635E+02 -0.39972668520E+01  0.18536336435E+02  0.32509327364E+02  0.10500000000E+00 0.  1.
    3000001    1    5    5    0    0  0.72215401611E+01  0.35638883512E+01 -0.43638368044E+01  0.92138490401E+01  0.10000000000E+01 0. -1.
        -13    1    6    6    0    0  0.10729205086E+02 -0.50832504495E+00 -0.69619297797E+01  0.12800536215E+02  0.10500000000E+00 0. -1.
         13    1    6    6    0    0  0.33979731162E+02 -0.16070899787E+01 -0.21951516685E+02  0.40485614455E+02  0.10500000000E+00 0.  1.
</event>
<event>
11    0  0.3494755E-009  0.9118800E+02  0.7816531E-02  0.1126479E+00
         25   -1    0    0    0    0  0.00000000000E+00  0.00000000000E+00  0.99999998245E-14  0.12500000000E+03  0.12500000000E+03 0.  0.
    3000001    1    3    3    0    0  0.68879413125E+01 -0.53341997861E+01  0.11780907792E+02  0.14686293313E+02  0.10000000000E+01 0. -1.
    1000022    2    1    0    0    0  0.40451721012E+02 -0.27751666801E+02  0.37413272885E+02  0.62500002379E+02  0.10000028313E+02 0.  0.
    3000022    2    3    3    0    0  0.33563779700E+02 -0.22417467015E+02  0.25632365094E+02  0.47813709066E+02  0.24999844546E+00 0.  0.
    1000022    2    1    0    0    0 -0.40451721012E+02  0.27751666801E+02 -0.37413272885E+02  0.62499997621E+02  0.99999985808E+01 0.  0.
    3000022    2    5    5    0    0 -0.40592807194E+02  0.27333374012E+02 -0.36908829183E+02  0.61296113234E+02  0.24999046081E+00 0.  0.
        -13    1    4    4    0    0  0.21140609613E+02 -0.14108925112E+02  0.16210605252E+02  0.30146009524E+02  0.10500000000E+00 0. -1.
         13    1    4    4    0    0  0.12423170087E+02 -0.83085419033E+01  0.94217598420E+01  0.17667699541E+02  0.10500000000E+00 0.  1.
    3000001    1    5    5    0    0  0.14108618205E+00  0.41829278940E+00 -0.50444370218E+00  0.12038843869E+01  0.10000000000E+01 0.  1.
        -13    1    6    6    0    0 -0.27647354706E+02  0.18598659283E+02 -0.25191078202E+02  0.41771854105E+02  0.10500000000E+00 0.  1.
         13    1    6    6    0    0 -0.12945452488E+02  0.87347147286E+01 -0.11717750981E+02  0.19524259130E+02  0.10500000000E+00 0. -1.
</event>
<event>
11    0  0.3494755E-009  0.9118800E+02  0.7816531E-02  0.1126479E+00
         25   -1    0    0    0    0  0.00000000000E+00  0.00000000000E+00  0.99999998245E-14  0.12500000000E+03  0.12500000000E+03 0.  0.
    3000001    1    3    3    0    0 -0.14885666943E+02 -0.25544955747E+01  0.50345159846E+01  0.15951641896E+02  0.10000000000E+01 0. -1.
    1000022    2    1    0    0    0 -0.51846383613E+02 -0.25291289122E+02  0.21875857793E+02  0.62499999889E+02  0.10000001639E+02 0.  0.
    3000022    2    3    3    0    0 -0.36960716670E+02 -0.22736793547E+02  0.16841341809E+02  0.46548357993E+02  0.24996078834E+00 0.  0.
    1000022    2    1    0    0    0  0.51846383613E+02  0.25291289122E+02 -0.21875857793E+02  0.62500000111E+02  0.10000003029E+02 0.  0.
    3000022    2    5    5    0    0  0.42787372015E+02  0.16922717150E+02 -0.19096163220E+02  0.49818305039E+02  0.25001520502E+00 0.  0.
        -13    1    4    4    0    0 -0.22037357178E+02 -0.13538473834E+02  0.10103684780E+02  0.27767442379E+02  0.10500000000E+00 0.  1.
         13    1    4    4    0    0 -0.14923359492E+02 -0.91983197125E+01  0.67376570282E+01  0.18780915614E+02  0.10500000000E+00 0. -1.
    3000001    1    5    5    0    0  0.90590115979E+01  0.83685719717E+01 -0.27796945731E+01  0.12681695072E+02  0.10000000000E+01 0. -1.
        -13    1    6    6    0    0  0.24699384928E+02  0.96989898683E+01 -0.11017757829E+02  0.28732073244E+02  0.10500000000E+00 0.  1.
         13    1    6    6    0    0  0.18087987086E+02  0.72237272817E+01 -0.80784053913E+01  0.21086231796E+02  0.10500000000E+00 0. -1.
</event>
<event>
11    0  0.3494755E-009  0.9118800E+02  0.7816531E-02  0.1126479E+00
         25   -1    0    0    0    0  0.00000000000E+00  0.00000000000E+00  0.99999998245E-14  0.12500000000E+03  0.12500000000E+03 0.  0.
    3000001    1    3    3    0    0 -0.37437746007E+02 -0.35691389190E+02  0.24151019991E+01  0.51790856395E+02  0.10000000000E+01 0. -1.
    1000022    2    1    0    0    0 -0.41467381959E+02 -0.45609457076E+02  0.25462918556E+01  0.62499999600E+02  0.10000000320E+02 0.  0.
    3000022    2    3    3    0    0 -0.40296359518E+01 -0.99180678861E+01  0.13118985646E+00  0.10709143205E+02  0.25000181356E+00 0.  0.
    1000022    2    1    0    0    0  0.41467381959E+02  0.45609457076E+02 -0.25462918556E+01  0.62500000400E+02  0.10000005325E+02 0.  0.
    3000022    2    5    5    0    0  0.32021754434E+02  0.36288466444E+02  0.19951730584E+01  0.48438505129E+02  0.25001938019E+00 0.  0.
        -13    1    4    4    0    0 -0.15885274144E+01 -0.37907807516E+01  0.92220074685E-01  0.41125378533E+01  0.10500000000E+00 0.  1.
         13    1    4    4    0    0 -0.24411085374E+01 -0.61272871346E+01  0.38969781779E-01  0.65966053516E+01  0.10500000000E+00 0. -1.
    3000001    1    5    5    0    0  0.94456275250E+01  0.93209906321E+01 -0.45414649140E+01  0.14061495271E+02  0.10000000000E+01 0.  1.
        -13    1    6    6    0    0  0.22183509745E+02  0.25199183524E+02  0.13577485473E+01  0.33600021741E+02  0.10500000000E+00 0.  1.
         13    1    6    6    0    0  0.98382446886E+01  0.11089282921E+02  0.63742451114E+00  0.14838483388E+02  0.10500000000E+00 0. -1.
</event>
<event>
11    0  0.3494755E-009  0.9118800E+02  0.7816531E-02  0.1126479E+00
         25   -1    0    0    0    0  0.00000000000E+00  0.00000000000E+00  0.99999998245E-14  0.12500000000E+03  0.12500000000E+03 0.  0.
    3000001    1    3    3    0    0  0.28654532106E+02 -0.25978270923E+02  0.35988384037E+02  0.52840482170E+02  0.10000000000E+01 0. -1.
    1000022    2    1    0    0    0  0.36862609728E+02 -0.28999509409E+02  0.40080256767E+02  0.62500002659E+02  0.99999903982E+01 0.  0.
    3000022    2    3    3    0    0  0.82080776217E+01 -0.30212384860E+01  0.40918727297E+01  0.96595204888E+01  0.24998680947E+00 0.  0.
    1000022    2    1    0    0    0 -0.36862609728E+02  0.28999509409E+02 -0.40080256767E+02  0.62499997341E+02  0.99999571597E+01 0.  0.
    3000022    2    5    5    0    0 -0.24694097262E+02  0.15725912669E+02 -0.19712799914E+02  0.35295321920E+02  0.25000039263E+00 0.  0.
        -13    1    4    4    0    0  0.50626895906E+01 -0.18800093211E+01  0.24608427699E+01  0.59356577627E+01  0.10500000000E+00 0. -1.
         13    1    4    4    0    0  0.31453880311E+01 -0.11412291649E+01  0.16310299598E+01  0.37238627261E+01  0.10500000000E+00 0.  1.
    3000001    1    5    5    0    0 -0.12168512466E+02  0.13273596740E+02 -0.20367456853E+02  0.27204675420E+02  0.10000000000E+01 0.  1.
        -13    1    6    6    0    0 -0.14368440324E+02  0.91171280742E+01 -0.11387571122E+02  0.20475885884E+02  0.10500000000E+00 0.  1.
         13    1    6    6    0    0 -0.10325656938E+02  0.66087845944E+01 -0.83252287916E+01  0.14819436037E+02  0.10500000000E+00 0. -1.
</event>
<event>
11    0  0.3494755E-009  0.9118800E+02  0.7816531E-02  0.1126479E+00
         25   -1    0    0    0    0  0.00000000000E+00  0.00000000000E+00  0.99999998245E-14  0.12500000000E+03  0.12500000000E+03 0.  0.
    3000001    1    3    3    0    0  0.60677258308E+01  0.25055372618E+02 -0.24392169150E+02  0.35504463235E+02  0.10000000000E+01 0. -1.
    1000022    2    1    0    0    0  0.40094792682E+01  0.40115579617E+02 -0.46700252385E+02  0.62500005266E+02  0.10000071671E+02 0.  0.
    3000022    2    3    3    0    0 -0.20582465626E+01  0.15060206999E+02 -0.22308083235E+02  0.26995542031E+02  0.24999629335E+00 0.  0.
    1000022    2    1    0    0    0 -0.40094792682E+01 -0.40115579617E+02  0.46700252385E+02  0.62499994734E+02  0.10000005850E+02 0.  0.
    3000022    2    5    5    0    0 -0.41744038434E+01 -0.90426084233E+01  0.15711534886E+02  0.18604011420E+02  0.24999580364E+00 0.  0.
        -13    1    4    4    0    0 -0.11523404797E+01  0.86706921881E+01 -0.12937000496E+02  0.15616843421E+02  0.10500000000E+00 0. -1.
         13    1    4    4    0    0 -0.90590608297E+00  0.63895148110E+01 -0.93710827392E+01  0.11378698610E+02  0.10500000000E+00 0.  1.
    3000001    1    5    5    0    0  0.16492457521E+00 -0.31072971193E+02  0.30988717499E+02  0.43895983314E+02  0.10000000000E+01 0.  1.
        -13    1    6    6    0    0 -0.18202972630E+01 -0.37931244005E+01  0.66064208958E+01  0.78330771027E+01  0.10500000000E+00 0.  1.
         13    1    6    6    0    0 -0.23541065804E+01 -0.52494840228E+01  0.91051139902E+01  0.10770934317E+02  0.10500000000E+00 0. -1.
</event>
<event>
11    0  0.3494755E-009  0.9118800E+02  0.7816531E-02  0.1126479E+00
         25   -1    0    0    0    0  0.00000000000E+00  0.00000000000E+00  0.99999998245E-14  0.12500000000E+03  0.12500000000E+03 0.  0.
    3000001    1    3    3    0    0 -0.10008693326E+00 -0.10831176652E+01  0.20703740492E+00  0.14919871843E+01  0.10000000000E+01 0.  1.
    1000022    2    1    0    0    0 -0.23240120939E+02 -0.27805962168E+02  0.49929703423E+02  0.62499999808E+02  0.99999969340E+01 0.  0.
    3000022    2    3    3    0    0 -0.23140034006E+02 -0.26722844502E+02  0.49722666018E+02  0.61008012623E+02  0.24999236774E+00 0.  0.
    1000022    2    1    0    0    0  0.23240120939E+02  0.27805962168E+02 -0.49929703423E+02  0.62500000192E+02  0.99999993401E+01 0.  0.
    3000022    2    5    5    0    0  0.25481760106E+01  0.61499041360E+00 -0.10095401102E+01  0.28201216033E+01  0.25000086645E+00 0.  0.
        -13    1    4    4    0    0 -0.16693642820E+02 -0.19296698250E+02  0.35825686708E+02  0.43983305095E+02  0.10500000000E+00 0. -1.
         13    1    4    4    0    0 -0.64463911860E+01 -0.74261462520E+01  0.13896979310E+02  0.17024707528E+02  0.10500000000E+00 0.  1.
    3000001    1    5    5    0    0  0.20691944928E+02  0.27190971754E+02 -0.48920163313E+02  0.59679878589E+02  0.10000000000E+01 0. -1.
        -13    1    6    6    0    0  0.11469626964E+01  0.30667364053E+00 -0.39310066298E+00  0.12550399515E+01  0.10500000000E+00 0.  1.
         13    1    6    6    0    0  0.14012133142E+01  0.30831677307E+00 -0.61643944719E+00  0.15650816517E+01  0.10500000000E+00 0. -1.
</event>
<event>
11    0  0.3494755E-009  0.9118800E+02  0.7816531E-02  0.1126479E+00
         25   -1    0    0    0    0  0.00000000000E+00  0.00000000000E+00  0.99999998245E-14  0.12500000000E+03  0.12500000000E+03 0.  0.
    3000001    1    3    3    0    0 -0.59836676083E+01 -0.10431192898E+01 -0.33300842284E+01  0.69987025131E+01  0.10000000000E+01 0. -1.
    1000022    2    1    0    0    0 -0.47353324509E+02  0.16055265535E+02 -0.36140573590E+02  0.62499999669E+02  0.10000000294E+02 0.  0.
    3000022    2    3    3    0    0 -0.41369656900E+02  0.17098384824E+02 -0.32810489362E+02  0.55501297156E+02  0.24999648202E+00 0.  0.
    1000022    2    1    0    0    0  0.47353324509E+02 -0.16055265535E+02  0.36140573590E+02  0.62500000331E+02  0.10000004426E+02 0.  0.
    3000022    2    5    5    0    0  0.43018188411E+02 -0.14402707296E+02  0.35710104364E+02  0.57734535246E+02  0.24998949253E+00 0.  0.
        -13    1    4    4    0    0 -0.16134188397E+02  0.66327811224E+01 -0.12721155841E+02  0.21590383312E+02  0.10500000000E+00 0. -1.
         13    1    4    4    0    0 -0.25235468504E+02  0.10465603702E+02 -0.20089333520E+02  0.33910913844E+02  0.10500000000E+00 0.  1.
    3000001    1    5    5    0    0  0.43351360980E+01 -0.16525582391E+01  0.43046922546E+00  0.47654650849E+01  0.10000000000E+01 0. -1.
        -13    1    6    6    0    0  0.12538135927E+02 -0.42200091501E+01  0.10365541650E+02  0.16806808396E+02  0.10500000000E+00 0. -1.
         13    1    6    6    0    0  0.30480052483E+02 -0.10182698145E+02  0.25344562714E+02  0.40927726850E+02  0.10500000000E+00 0.  1.
</event>
<event>
11    0  0.3494755E-009  0.9118800E+02  0.7816531E-02  0.1126479E+00
         25   -1    0    0    0    0  0.00000000000E+00  0.00000000000E+00  0.99999998245E-14  0.12500000000E+03  0.12500000000E+03 0.  0.
    3000001    1    3    3    0    0 -0.11504774732E+01  0.18010899598E+01  0.37617268846E+01  0.44405081482E+01  0.10000000000E+01 0.  1.
    1000022    2    1    0    0    0  0.34163549625E+01  0.48238049877E+02  0.38310169435E+02  0.62499999963E+02  0.99999988060E+01 0.  0.
    3000022    2    3    3    0    0  0.45668324357E+01  0.46436959917E+02  0.34548442550E+02  0.58059491815E+02  0.25000466803E+00 0.  0.
    1000022    2    1    0    0    0 -0.34163549625E+01 -0.48238049877E+02 -0.38310169435E+02  0.62500000037E+02  0.99999992659E+01 0.  0.
    3000022    2    5    5    0    0 -0.23760623034E+01 -0.37088158664E+02 -0.23754957116E+02  0.44108249481E+02  0.24999902426E+00 0.  0.
        -13    1    4    4    0    0  0.24740756107E+01  0.25605421572E+02  0.19109180040E+02  0.32045755582E+02  0.10500000000E+00 0. -1.
         13    1    4    4    0    0  0.20927568250E+01  0.20831538345E+02  0.15439262510E+02  0.26013736233E+02  0.10500000000E+00 0.  1.
    3000001    1    5    5    0    0 -0.10402926591E+01 -0.11149891213E+02 -0.14555212319E+02  0.18391750556E+02  0.10000000000E+01 0. -1.
        -13    1    6    6    0    0 -0.17273847974E+01 -0.27357043008E+02 -0.17496073203E+02  0.32519459758E+02  0.10500000000E+00 0. -1.
         13    1    6    6    0    0 -0.64867750602E+00 -0.97311156554E+01 -0.62588839135E+01  0.11588789723E+02  0.10500000000E+00 0.  1.
</event>
<event>
11    0  0.3494755E-009  0.9118800E+02  0.7816531E-02  0.1126479E+00
         25   -1    0    0    0    0  0.00000000000E+00  0.00000000000E+00  0.99999998245E-14  0.12500000000E+03  0.12500000000E+03 0.  0.
    3000001    1    3    3    0    0  0.28279554524E+02  0.35626261827E+02 -0.28419089167E+02  0.53643344088E+02  0.10000000000E+01 0. -1.
    1000022    2    1    0    0    0  0.34051355089E+02  0.42279605576E+02 -0.29311946774E+02  0.62500000293E+02  0.99999991000E+01 0.  0.
    3000022    2    3    3    0    0  0.57718005642E+01  0.66533437488E+01 -0.89285760647E+00  0.88566562053E+01  0.24999928135E+00 0.  0.
    1000022    2    1    0    0    0 -0.34051355089E+02 -0.42279605576E+02  0.29311946774E+02  0.62499999707E+02  0.99999954331E+01 0.  0.
    3000022    2    5    5    0    0 -0.72518447774E+01 -0.51081320091E+01  0.18424764211E+01  0.90630836141E+01  0.24999987178E+00 0.  0.
        -13    1    4    4    0    0  0.23710231325E+01  0.28313440152E+01 -0.38163991542E+00  0.37141531541E+01  0.10500000000E+00 0. -1.
         13    1    4    4    0    0  0.34007774317E+01  0.38219997337E+01 -0.51121769106E+00  0.51425030512E+01  0.10500000000E+00 0.  1.
    3000001    1    5    5    0    0 -0.26799510311E+02 -0.37171473567E+02  0.27469470353E+02  0.53436916093E+02  0.10000000000E+01 0. -1.
        -13    1    6    6    0    0 -0.45348072019E+01 -0.31805413242E+01  0.10898521668E+01  0.56461599533E+01  0.10500000000E+00 0.  1.
         13    1    6    6    0    0 -0.27170375755E+01 -0.19275906849E+01  0.75262425432E+00  0.34169236607E+01  0.10500000000E+00 0. -1.
</event>
<event>
11    0  0.3494755E-009  0.9118800E+02  0.7816531E-02  0.1126479E+00
         25   -1    0    0    0    0  0.00000000000E+00  0.00000000000E+00  0.99999998245E-14  0.12500000000E+03  0.12500000000E+03 0.  0.
    3000001    1    3    3    0    0 -0.35001550960E+02 -0.95156881913E+01 -0.28762637149E+02  0.46302766517E+02  0.10000000000E+01 0. -1.
    1000022    2    1    0    0    0 -0.47472722008E+02 -0.69817104582E+01 -0.38779458722E+02  0.62499999678E+02  0.99999962582E+01 0.  0.
    3000022    2    3    3    0    0 -0.12471171048E+02  0.25339777331E+01 -0.10016821573E+02  0.16197233161E+02  0.24999435236E+00 0.  0.
    1000022    2    1    0    0    0  0.47472722008E+02  0.69817104582E+01  0.38779458722E+02  0.62500000322E+02  0.10000000286E+02 0.  0.
    3000022    2    5    5    0    0  0.14079017727E+02  0.20729600478E+01  0.60223925352E+01  0.15454695547E+02  0.24999818575E+00 0.  0.
        -13    1    4    4    0    0 -0.64871829590E+01  0.13811581357E+01 -0.51853537205E+01  0.84196234326E+01  0.10500000000E+00 0.  1.
         13    1    4    4    0    0 -0.59839880886E+01  0.11528195974E+01 -0.48314678528E+01  0.77776097280E+01  0.10500000000E+00 0. -1.
    3000001    1    5    5    0    0  0.33393704281E+02  0.49087504105E+01  0.32757066187E+02  0.47045304775E+02  0.10000000000E+01 0.  1.
        -13    1    6    6    0    0  0.98842044197E+01  0.14574268423E+01  0.42768808686E+01  0.10868501505E+02  0.10500000000E+00 0. -1.
         13    1    6    6    0    0  0.41948133069E+01  0.61553320548E+00  0.17455116666E+01  0.45861940414E+01  0.10500000000E+00 0.  1.
</event>
<event>
11    0  0.3494755E-009  0.9118800E+02  0.7816531E-02  0.1126479E+00
         25   -1    0    0    0    0  0.00000000000E+00  0.00000000000E+00  0.99999998245E-14  0.12500000000E+03  0.12500000000E+03 0.  0.
    3000001    1    3    3    0    0 -0.52485311269E+01  0.37680518865E+02  0.98006447576E+01  0.39299124908E+02  0.10000000000E+01 0.  1.
    1000022    2    1    0    0    0 -0.99417970134E+00  0.60164888993E+02  0.13617921074E+02  0.62499998049E+02  0.99999860511E+01 0.  0.
    3000022    2    3    3    0    0  0.42543514256E+01  0.22484370128E+02  0.38172763164E+01  0.23200873141E+02  0.25001984985E+00 0.  0.
    1000022    2    1    0    0    0  0.99417970134E+00 -0.60164888993E+02 -0.13617921074E+02  0.62500001951E+02  0.10000010434E+02 0.  0.
    3000022    2    5    5    0    0  0.43465970160E+00 -0.35735455699E+02 -0.30847319010E+01  0.35871852413E+02  0.25000304970E+00 0.  0.
        -13    1    4    4    0    0  0.28571773728E+01  0.15120311788E+02  0.25138799824E+01  0.15592238732E+02  0.10500000000E+00 0.  1.
         13    1    4    4    0    0  0.13971740528E+01  0.73640583400E+01  0.13033963340E+01  0.76086344092E+01  0.10500000000E+00 0. -1.
    3000001    1    5    5    0    0  0.55951999974E+00 -0.24429433293E+02 -0.10533189173E+02  0.26628149538E+02  0.10000000000E+01 0. -1.
        -13    1    6    6    0    0  0.21966247367E+00 -0.16384852259E+02 -0.13502935021E+01  0.16442200361E+02  0.10500000000E+00 0.  1.
         13    1    6    6    0    0  0.21499722793E+00 -0.19350603440E+02 -0.17344383989E+01  0.19429652052E+02  0.10500000000E+00 0. -1.
</event>
<event>
11    0  0.3494755E-009  0.9118800E+02  0.7816531E-02  0.1126479E+00
         25   -1    0    0    0    0  0.00000000000E+00  0.00000000000E+00  0.99999998245E-14  0.12500000000E+03  0.12500000000E+03 0.  0.
    3000001    1    3    3    0    0  0.50905436039E+02  0.50209858387E-01  0.19871125002E+02  0.54655535385E+02  0.10000000000E+01 0.  1.
    1000022    2    1    0    0    0  0.58278921262E+02  0.27088676990E+01  0.20061891197E+02  0.62500000540E+02  0.99999980736E+01 0.  0.
    3000022    2    3    3    0    0  0.73734852224E+01  0.26586578406E+01  0.19076619457E+00  0.78444651549E+01  0.24999197356E+00 0.  0.
    1000022    2    1    0    0    0 -0.58278921262E+02 -0.27088676990E+01 -0.20061891197E+02  0.62499999460E+02  0.99999913228E+01 0.  0.
    3000022    2    5    5    0    0 -0.58275036386E+01  0.11590131970E+01  0.61540393884E+00  0.59786561688E+01  0.24999465732E+00 0.  0.
        -13    1    4    4    0    0  0.25599129263E+01  0.91550261715E+00  0.10641984683E-01  0.27207420833E+01  0.10500000000E+00 0. -1.
         13    1    4    4    0    0  0.48135722962E+01  0.17431552235E+01  0.18012420989E+00  0.51237230716E+01  0.10500000000E+00 0.  1.
    3000001    1    5    5    0    0 -0.52451417623E+02 -0.38678808960E+01 -0.20677295135E+02  0.56521343291E+02  0.10000000000E+01 0.  1.
        -13    1    6    6    0    0 -0.42944049725E+01  0.86651854564E+00  0.42272124296E+00  0.44025545660E+01  0.10500000000E+00 0.  1.
         13    1    6    6    0    0 -0.15330986661E+01  0.29249465135E+00  0.19268269588E+00  0.15761016028E+01  0.10500000000E+00 0. -1.
</event>
<event>
11    0  0.3494755E-009  0.9118800E+02  0.7816531E-02  0.1126479E+00
         25   -1    0    0    0    0  0.00000000000E+00  0.00000000000E+00  0.99999998245E-14  0.12500000000E+03  0.12500000000E+03 0.  0.
    3000001    1    3    3    0    0  0.43990916808E+00 -0.53510703509E+00  0.26770258162E+01  0.29404637110E+01  0.10000000000E+01 0. -1.
    1000022    2    1    0    0    0 -0.10861908245E+02  0.23044510020E+02  0.56189140207E+02  0.62499999514E+02  0.99999984625E+01 0.  0.
    3000022    2    3    3    0    0 -0.11301817414E+02  0.23579617055E+02  0.53512114391E+02  0.59559535803E+02  0.25000235430E+00 0.  0.
    1000022    2    1    0    0    0  0.10861908245E+02 -0.23044510020E+02 -0.56189140207E+02  0.62500000486E+02  0.10000004534E+02 0.  0.
    3000022    2    5    5    0    0 -0.23527647336E+00 -0.15694043988E+01 -0.34893228144E+00  0.16439696314E+01  0.24999445239E+00 0.  0.
        -13    1    4    4    0    0 -0.77455457752E+01  0.16144594672E+02  0.36532434718E+02  0.40685024614E+02  0.10500000000E+00 0. -1.
         13    1    4    4    0    0 -0.35562716383E+01  0.74350223830E+01  0.16979679674E+02  0.18874511189E+02  0.10500000000E+00 0.  1.
    3000001    1    5    5    0    0  0.11097184719E+02 -0.21475105621E+02 -0.55840207926E+02  0.60856030854E+02  0.10000000000E+01 0.  1.
        -13    1    6    6    0    0 -0.10914272442E+00 -0.80409176914E+00 -0.10993613526E+00  0.82558261933E+00  0.10500000000E+00 0.  1.
         13    1    6    6    0    0 -0.12613374894E+00 -0.76531262965E+00 -0.23899614617E+00  0.81838701212E+00  0.10500000000E+00 0. -1.
</event>
<event>
11    0  0.3494755E-009  0.9118800E+02  0.7816531E-02  0.1126479E+00
         25   -1    0    0    0    0  0.00000000000E+00  0.00000000000E+00  0.99999998245E-14  0.12500000000E+03  0.12500000000E+03 0.  0.
    3000001    1    3    3    0    0 -0.56536560101E+02 -0.14222590432E+02 -0.86576788713E+01  0.58945908340E+02  0.10000000000E+01 0.  1.
    1000022    2    1    0    0    0 -0.59623195327E+02 -0.12693766146E+02 -0.94969914244E+01  0.62500000256E+02  0.10000003293E+02 0.  0.
    3000022    2    3    3    0    0 -0.30866352265E+01  0.15288242862E+01 -0.83931255301E+00  0.35540919154E+01  0.25000612471E+00 0.  0.
    1000022    2    1    0    0    0  0.59623195327E+02  0.12693766146E+02  0.94969914244E+01  0.62499999744E+02  0.10000000094E+02 0.  0.
    3000022    2    5    5    0    0  0.33567105821E+02  0.11737557514E+02  0.35472858592E+01  0.35737467509E+02  0.24999482552E+00 0.  0.
        -13    1    4    4    0    0 -0.96148226364E+00  0.48303126420E+00 -0.21285521527E+00  0.11018619188E+01  0.10500000000E+00 0.  1.
         13    1    4    4    0    0 -0.21251529628E+01  0.10457930220E+01 -0.62645733774E+00  0.24522299966E+01  0.10500000000E+00 0.  1.
    3000001    1    5    5    0    0  0.26056089507E+02  0.95620863190E+00  0.59497055652E+01  0.26762532235E+02  0.10000000000E+01 0. -1.
        -13    1    6    6    0    0  0.82891156314E+01  0.28781349456E+01  0.89032320283E+00  0.88202493798E+01  0.10500000000E+00 0. -1.
         13    1    6    6    0    0  0.25277990189E+02  0.88594225681E+01  0.26569626563E+01  0.26917218129E+02  0.10500000000E+00 0.  1.
</event>
<event>
11    0  0.3494755E-009  0.9118800E+02  0.7816531E-02  0.1126479E+00
         25   -1    0    0    0    0  0.00000000000E+00  0.00000000000E+00  0.99999998245E-14  0.12500000000E+03  0.12500000000E+03 0.  0.
    3000001    1    3    3    0    0  0.26673766186E+02  0.29846479978E+02  0.26610938182E+02  0.48077481221E+02  0.10000000000E+01 0. -1.
    1000022    2    1    0    0    0  0.38471168230E+02  0.35336623589E+02  0.32825935577E+02  0.62500000748E+02  0.10000014768E+02 0.  0.
    3000022    2    3    3    0    0  0.11797402044E+02  0.54901436109E+01  0.62149973943E+01  0.14422519527E+02  0.25001006266E+00 0.  0.
    1000022    2    1    0    0    0 -0.38471168230E+02 -0.35336623589E+02 -0.32825935577E+02  0.62499999252E+02  0.10000005422E+02 0.  0.
    3000022    2    5    5    0    0 -0.19386329796E+02 -0.23070509650E+02 -0.15189379378E+02  0.33746969434E+02  0.25000321786E+00 0.  0.
        -13    1    4    4    0    0  0.41319737401E+01  0.18742920731E+01  0.21284741366E+01  0.50127442499E+01  0.10500000000E+00 0.  1.
         13    1    4    4    0    0  0.76654283038E+01  0.36158515378E+01  0.40865232577E+01  0.94097752768E+01  0.10500000000E+00 0. -1.
    3000001    1    5    5    0    0 -0.19084838433E+02 -0.12266113939E+02 -0.17636556198E+02  0.28753029818E+02  0.10000000000E+01 0. -1.
        -13    1    6    6    0    0 -0.85216350758E+01 -0.10244004787E+02 -0.67196770705E+01  0.14923906438E+02  0.10500000000E+00 0.  1.
         13    1    6    6    0    0 -0.10864694721E+02 -0.12826504863E+02 -0.84697023078E+01  0.18823062996E+02  0.10500000000E+00 0. -1.
</event>
<event>
11    0  0.3494755E-009  0.9118800E+02  0.7816531E-02  0.1126479E+00
         25   -1    0    0    0    0  0.00000000000E+00  0.00000000000E+00  0.99999998245E-14  0.12500000000E+03  0.12500000000E+03 0.  0.
    3000001    1    3    3    0    0 -0.18048253636E+02 -0.43654467828E+02  0.30869090402E+02  0.56438929498E+02  0.10000000000E+01 0. -1.
    1000022    2    1    0    0    0 -0.21891710429E+02 -0.45843314711E+02  0.35005623523E+02  0.62500002269E+02  0.10000005808E+02 0.  0.
    3000022    2    3    3    0    0 -0.38434567925E+01 -0.21888468838E+01  0.41365331214E+01  0.60610727713E+01  0.24997215448E+00 0.  0.
    1000022    2    1    0    0    0  0.21891710429E+02  0.45843314711E+02 -0.35005623523E+02  0.62499997731E+02  0.99999774430E+01 0.  0.
    3000022    2    5    5    0    0  0.19773072194E+02  0.40319121628E+02 -0.26671948516E+02  0.52230846045E+02  0.24997644171E+00 0.  0.
        -13    1    4    4    0    0 -0.16940413914E+01 -0.91119867596E+00  0.17356212186E+01  0.25929645731E+01  0.10500000000E+00 0.  1.
         13    1    4    4    0    0 -0.21494154011E+01 -0.12776482079E+01  0.24009119027E+01  0.34681081982E+01  0.10500000000E+00 0. -1.
    3000001    1    5    5    0    0  0.21186382350E+01  0.55241930839E+01 -0.83336750078E+01  0.10269151685E+02  0.10000000000E+01 0.  1.
        -13    1    6    6    0    0  0.88976644928E+01  0.18278383333E+02 -0.12109358221E+02  0.23662529709E+02  0.10500000000E+00 0.  1.
         13    1    6    6    0    0  0.10875407701E+02  0.22040738294E+02 -0.14562590295E+02  0.28568316336E+02  0.10500000000E+00 0. -1.
</event>
<event>
11    0  0.3494755E-009  0.9118800E+02  0.7816531E-02  0.1126479E+00
         25   -1    0    0    0    0  0.00000000000E+00  0.00000000000E+00  0.99999998245E-14  0.12500000000E+03  0.12500000000E+03 0.  0.
    3000001    1    3    3    0    0  0.41848349386E+01  0.28617793466E+02  0.34072446175E+02  0.44703719472E+02  0.10000000000E+01 0. -1.
    1000022    2    1    0    0    0  0.11682028211E+02  0.40143413872E+02  0.45368345161E+02  0.62500001828E+02  0.10000001272E+02 0.  0.
    3000022    2    3    3    0    0  0.74971932721E+01  0.11525620406E+02  0.11295898986E+02  0.17796282356E+02  0.24999814799E+00 0.  0.
    1000022    2    1    0    0    0 -0.11682028211E+02 -0.40143413872E+02 -0.45368345161E+02  0.62499998172E+02  0.99999784233E+01 0.  0.
    3000022    2    5    5    0    0 -0.12693842437E+02 -0.29625554996E+02 -0.31853842862E+02  0.45315967919E+02  0.24999741131E+00 0.  0.
        -13    1    4    4    0    0  0.41236585726E+01  0.63703176054E+01  0.61508065651E+01  0.97687743764E+01  0.10500000000E+00 0.  1.
         13    1    4    4    0    0  0.33735346996E+01  0.51553028007E+01  0.51450924208E+01  0.80275079791E+01  0.10500000000E+00 0. -1.
    3000001    1    5    5    0    0  0.10118142260E+01 -0.10517858876E+02 -0.13514502299E+02  0.17184030253E+02  0.10000000000E+01 0.  1.
        -13    1    6    6    0    0 -0.96045825881E+01 -0.22359075780E+02 -0.24058476062E+02  0.34219841786E+02  0.10500000000E+00 0.  1.
         13    1    6    6    0    0 -0.30892598486E+01 -0.72664792167E+01 -0.77953667999E+01  0.11096126133E+02  0.10500000000E+00 0. -1.
</event>
<event>
11    0  0.3494755E-009  0.9118800E+02  0.7816531E-02  0.1126479E+00
         25   -1    0    0    0    0  0.00000000000E+00  0.00000000000E+00  0.99999998245E-14  0.12500000000E+03  0.12500000000E+03 0.  0.
    3000001    1    3    3    0    0  0.10595794645E+02 -0.20095646739E+02 -0.15576674416E+02  0.27563357341E+02  0.10000000000E+01 0. -1.
    1000022    2    1    0    0    0  0.13848655628E+02 -0.49766004900E+02 -0.33731427359E+02  0.62499997307E+02  0.99999982635E+01 0.  0.
    3000022    2    3    3    0    0  0.32528609837E+01 -0.29670358161E+02 -0.18154752943E+02  0.34936639966E+02  0.24999950015E+00 0.  0.
    1000022    2    1    0    0    0 -0.13848655628E+02  0.49766004900E+02  0.33731427359E+02  0.62500002693E+02  0.10000031926E+02 0.  0.
    3000022    2    5    5    0    0 -0.14575079796E+02  0.38368337420E+02  0.27977690794E+02  0.49672688067E+02  0.24998036585E+00 0.  0.
        -13    1    4    4    0    0  0.87987108909E+00 -0.80254569425E+01 -0.48685951414E+01  0.94284874673E+01  0.10500000000E+00 0. -1.
         13    1    4    4    0    0  0.23729898947E+01 -0.21644901218E+02 -0.13286157801E+02  0.25508152499E+02  0.10500000000E+00 0.  1.
    3000001    1    5    5    0    0  0.72642416745E+00  0.11397667480E+02  0.57537365644E+01  0.12827314626E+02  0.10000000000E+01 0. -1.
        -13    1    6    6    0    0 -0.97614607663E+01  0.25761826936E+02  0.18721865159E+02  0.33308814200E+02  0.10500000000E+00 0. -1.
         13    1    6    6    0    0 -0.48136190296E+01  0.12606510484E+02  0.92558256349E+01  0.16363873867E+02  0.10500000000E+00 0.  1.
</event>
<event>
11    0  0.3494755E-009  0.9118800E+02  0.7816531E-02  0.1126479E+00
         25   -1    0    0    0    0  0.00000000000E+00  0.00000000000E+00  0.99999998245E-14  0.12500000000E+03  0.12500000000E+03 0.  0.
    3000001    1    3    3    0    0  0.26643707171E+02 -0.21590430528E+02  0.39469246231E+01  0.34534215442E+02  0.10000000000E+01 0. -1.
    1000022    2    1    0    0    0  0.48050779060E+02 -0.35534556796E+02  0.15318872377E+02  0.62499999527E+02  0.99999997502E+01 0.  0.
    3000022    2    3    3    0    0  0.21407071889E+02 -0.13944126268E+02  0.11371947754E+02  0.27965784085E+02  0.24999907400E+00 0.  0.
    1000022    2    1    0    0    0 -0.48050779060E+02  0.35534556796E+02 -0.15318872377E+02  0.62500000473E+02  0.10000005663E+02 0.  0.
    3000022    2    5    5    0    0 -0.36507108291E+02  0.23731015459E+02 -0.74208415309E+01  0.44170821164E+02  0.25000547688E+00 0.  0.
        -13    1    4    4    0    0  0.11614698458E+02 -0.75753776062E+01  0.60995843506E+01  0.15149373598E+02  0.10500000000E+00 0. -1.
         13    1    4    4    0    0  0.97923734304E+01 -0.63687486616E+01  0.52723634037E+01  0.12816410487E+02  0.10500000000E+00 0.  1.
    3000001    1    5    5    0    0 -0.11543670769E+02  0.11803541337E+02 -0.78980308465E+01  0.18329179310E+02  0.10000000000E+01 0.  1.
        -13    1    6    6    0    0 -0.19100499055E+02  0.12351028754E+02 -0.38359959967E+01  0.23067354979E+02  0.10500000000E+00 0.  1.
         13    1    6    6    0    0 -0.17406609236E+02  0.11379986705E+02 -0.35848455342E+01  0.21103466185E+02  0.10500000000E+00 0. -1.
</event>
<event>
11    0  0.3494755E-009  0.9118800E+02  0.7816531E-02  0.1126479E+00
         25   -1    0    0    0    0  0.00000000000E+00  0.00000000000E+00  0.99999998245E-14  0.12500000000E+03  0.12500000000E+03 0.  0.
    3000001    1    3    3    0    0 -0.95087984722E+00 -0.12883596552E+01 -0.63144730125E+00  0.19906704346E+01  0.10000000000E+01 0.  1.
    1000022    2    1    0    0    0  0.57679882749E+01 -0.61422775144E+02 -0.47221601383E+00  0.62500000091E+02  0.10000001415E+02 0.  0.
    3000022    2    3    3    0    0  0.67188681221E+01 -0.60134415488E+02  0.15923128742E+00  0.60509329656E+02  0.25001172337E+00 0.  0.
    1000022    2    1    0    0    0 -0.57679882749E+01  0.61422775144E+02  0.47221601383E+00  0.62499999909E+02  0.10000000280E+02 0.  0.
    3000022    2    5    5    0    0 -0.49022748624E+01  0.59363871176E+02 -0.11261371704E+01  0.59577111242E+02  0.24999833071E+00 0.  0.
        -13    1    4    4    0    0  0.47967985110E+01 -0.43111305596E+02  0.14970023331E+00  0.43377729094E+02  0.10500000000E+00 0.  1.
         13    1    4    4    0    0  0.19220696111E+01 -0.17023109892E+02  0.95310541124E-02  0.17131600563E+02  0.10500000000E+00 0. -1.
    3000001    1    5    5    0    0 -0.86571341250E+00  0.20589039677E+01  0.15983531842E+01  0.29228886674E+01  0.10000000000E+01 0. -1.
        -13    1    6    6    0    0 -0.23602810358E+01  0.27857881085E+02 -0.49705260809E+00  0.27962305903E+02  0.10500000000E+00 0.  1.
         13    1    6    6    0    0 -0.25419938266E+01  0.31505990091E+02 -0.62908456228E+00  0.31614805339E+02  0.10500000000E+00 0. -1.
</event>
<event>
11    0  0.3494755E-009  0.9118800E+02  0.7816531E-02  0.1126479E+00
         25   -1    0    0    0    0  0.00000000000E+00  0.00000000000E+00  0.99999998245E-14  0.12500000000E+03  0.12500000000E+03 0.  0.
    3000001    1    3    3    0    0 -0.11905449638E+02 -0.45129383785E+01 -0.27188468532E+02  0.30038627882E+02  0.10000000000E+01 0.  1.
    1000022    2    1    0    0    0 -0.19909528136E+02 -0.51673121617E+00 -0.58391715705E+02  0.62499990741E+02  0.10000002895E+02 0.  0.
    3000022    2    3    3    0    0 -0.80040784981E+01  0.39962071624E+01 -0.31203247173E+02  0.32461362859E+02  0.25000052626E+00 0.  0.
    1000022    2    1    0    0    0  0.19909528136E+02  0.51673121617E+00  0.58391715705E+02  0.62500009259E+02  0.10000118635E+02 0.  0.
    3000022    2    5    5    0    0  0.52813196215E+01  0.37984056152E+01  0.25848040592E+02  0.26655279367E+02  0.24998704948E+00 0.  0.
        -13    1    4    4    0    0 -0.32300244474E+01  0.15453128575E+01 -0.12557093310E+02  0.13058049899E+02  0.10500000000E+00 0. -1.
         13    1    4    4    0    0 -0.47740540507E+01  0.24508943049E+01 -0.18646153863E+02  0.19403312960E+02  0.10500000000E+00 0.  1.
    3000001    1    5    5    0    0  0.14628208515E+02 -0.32816743990E+01  0.32543675113E+02  0.35844729892E+02  0.10000000000E+01 0. -1.
        -13    1    6    6    0    0  0.18031585026E+01  0.12914527170E+01  0.90428782036E+01  0.93114930011E+01  0.10500000000E+00 0.  1.
         13    1    6    6    0    0  0.34781611189E+01  0.25069528982E+01  0.16805162388E+02  0.17343786366E+02  0.10500000000E+00 0. -1.
</event>
<event>
11    0  0.3494755E-009  0.9118800E+02  0.7816531E-02  0.1126479E+00
         25   -1    0    0    0    0  0.00000000000E+00  0.00000000000E+00  0.99999998245E-14  0.12500000000E+03  0.12500000000E+03 0.  0.
    3000001    1    3    3    0    0  0.54514649664E+01 -0.46401012863E+01 -0.17423108287E+02  0.18863025012E+02  0.10000000000E+01 0.  1.
    1000022    2    1    0    0    0  0.14515828233E+02 -0.28930551190E+02 -0.52522033101E+02  0.62500000860E+02  0.10000004249E+02 0.  0.
    3000022    2    3    3    0    0  0.90643632663E+01 -0.24290449904E+02 -0.35098924815E+02  0.43636975848E+02  0.25000017489E+00 0.  0.
    1000022    2    1    0    0    0 -0.14515828233E+02  0.28930551190E+02  0.52522033101E+02  0.62499999140E+02  0.99999934966E+01 0.  0.
    3000022    2    5    5    0    0 -0.12538291242E+02  0.14053633835E+02  0.29436562246E+02  0.34946917876E+02  0.25000179229E+00 0.  0.
        -13    1    4    4    0    0  0.35165934021E+01 -0.95865878070E+01 -0.13866854003E+02  0.17221200883E+02  0.10500000000E+00 0.  1.
         13    1    4    4    0    0  0.55477698642E+01 -0.14703862097E+02 -0.21232070812E+02  0.26415774965E+02  0.10500000000E+00 0. -1.
    3000001    1    5    5    0    0 -0.19775369903E+01  0.14876917355E+02  0.23085470856E+02  0.27553081264E+02  0.10000000000E+01 0.  1.
        -13    1    6    6    0    0 -0.68944361097E+01  0.76830403606E+01  0.16244884353E+02  0.19247588189E+02  0.10500000000E+00 0.  1.
         13    1    6    6    0    0 -0.56438551328E+01  0.63705934748E+01  0.13191677893E+02  0.15699329687E+02  0.10500000000E+00 0. -1.
</event>
<event>
11    0  0.3494755E-009  0.9118800E+02  0.7816531E-02  0.1126479E+00
         25   -1    0    0    0    0  0.00000000000E+00  0.00000000000E+00  0.99999998245E-14  0.12500000000E+03  0.12500000000E+03 0.  0.
    3000001    1    3    3    0    0 -0.17500989504E+00  0.11912258407E+01 -0.30108148146E+01  0.33933248172E+01  0.10000000000E+01 0.  1.
    1000022    2    1    0    0    0 -0.37516272107E+02  0.80538919882E+01 -0.48310601787E+02  0.62500001697E+02  0.10000005903E+02 0.  0.
    3000022    2    3    3    0    0 -0.37341262212E+02  0.68626661475E+01 -0.45299786973E+02  0.59106676880E+02  0.25000344095E+00 0.  0.
    1000022    2    1    0    0    0  0.37516272107E+02 -0.80538919882E+01  0.48310601787E+02  0.62499998303E+02  0.99999846920E+01 0.  0.
    3000022    2    5    5    0    0  0.13260142170E+01 -0.27471340828E+01  0.36056033333E+01  0.47294752622E+01  0.25000297266E+00 0.  0.
        -13    1    4    4    0    0 -0.12538172817E+02  0.23201101304E+01 -0.15133652738E+02  0.19789571971E+02  0.10500000000E+00 0.  1.
         13    1    4    4    0    0 -0.24803089396E+02  0.45425560171E+01 -0.30166134234E+02  0.39317104908E+02  0.10500000000E+00 0. -1.
    3000001    1    5    5    0    0  0.36190257890E+02 -0.53067579054E+01  0.44704998454E+02  0.57770523041E+02  0.10000000000E+01 0.  1.
        -13    1    6    6    0    0  0.40690657579E+00 -0.86953565274E+00  0.12138163925E+01  0.15511416594E+01  0.10500000000E+00 0.  1.
         13    1    6    6    0    0  0.91910764119E+00 -0.18775984301E+01  0.23917869407E+01  0.31783336028E+01  0.10500000000E+00 0. -1.
</event>
<event>
11    0  0.3494755E-009  0.9118800E+02  0.7816531E-02  0.1126479E+00
         25   -1    0    0    0    0  0.00000000000E+00  0.00000000000E+00  0.99999998245E-14  0.12500000000E+03  0.12500000000E+03 0.  0.
    3000001    1    3    3    0    0 -0.22256785626E+02 -0.54116108612E+02  0.52975049977E+01  0.58762073456E+02  0.10000000000E+01 0.  1.
    1000022    2    1    0    0    0 -0.22269490828E+02 -0.57027406948E+02  0.76285491208E+01  0.62499998986E+02  0.99999873277E+01 0.  0.
    3000022    2    3    3    0    0 -0.12705202627E-01 -0.29112983363E+01  0.23310441231E+01  0.37379255296E+01  0.25000227074E+00 0.  0.
    1000022    2    1    0    0    0  0.22269490828E+02  0.57027406948E+02 -0.76285491208E+01  0.62500001014E+02  0.10000000009E+02 0.  0.
    3000022    2    5    5    0    0  0.21420498336E+02  0.56793241384E+02 -0.75194679292E+01  0.61163019164E+02  0.24999876348E+00 0.  0.
        -13    1    4    4    0    0  0.29746597269E-01 -0.14532456173E+01  0.10900247864E+01  0.18198864578E+01  0.10500000000E+00 0.  1.
         13    1    4    4    0    0 -0.42451799896E-01 -0.14580527190E+01  0.12410193368E+01  0.19180390718E+01  0.10500000000E+00 0. -1.
    3000001    1    5    5    0    0  0.84899249196E+00  0.23416556350E+00 -0.10908119159E+00  0.13369818506E+01  0.10000000000E+01 0. -1.
        -13    1    6    6    0    0  0.97668118109E+01  0.25722047137E+02 -0.33812936376E+01  0.27721083917E+02  0.10500000000E+00 0. -1.
         13    1    6    6    0    0  0.11653686525E+02  0.31071194247E+02 -0.41381742916E+01  0.33441935247E+02  0.10500000000E+00 0.  1.
</event>
<event>
11    0  0.3494755E-009  0.9118800E+02  0.7816531E-02  0.1126479E+00
         25   -1    0    0    0    0  0.00000000000E+00  0.00000000000E+00  0.99999998245E-14  0.12500000000E+03  0.12500000000E+03 0.  0.
    3000001    1    3    3    0    0  0.20860740232E+02  0.92334395751E+00 -0.51097906587E+01  0.21520525264E+02  0.10000000000E+01 0.  1.
    1000022    2    1    0    0    0  0.59994463870E+02  0.13043314465E+02 -0.60651968327E+01  0.62499999527E+02  0.99999790469E+01 0.  0.
    3000022    2    3    3    0    0  0.39133723639E+02  0.12119970508E+02 -0.95540617400E+00  0.40979474263E+02  0.24999791812E+00 0.  0.
    1000022    2    1    0    0    0 -0.59994463870E+02 -0.13043314465E+02  0.60651968327E+01  0.62500000473E+02  0.99999849604E+01 0.  0.
    3000022    2    5    5    0    0 -0.12293849772E+01  0.11872149853E+01  0.26958445380E-01  0.17274508428E+01  0.24998562588E+00 0.  0.
        -13    1    4    4    0    0  0.15645155637E+02  0.48790079923E+01 -0.32791229870E+00  0.16391893282E+02  0.10500000000E+00 0.  1.
         13    1    4    4    0    0  0.23488568002E+02  0.72409625153E+01 -0.62749387530E+00  0.24587580981E+02  0.10500000000E+00 0. -1.
    3000001    1    5    5    0    0 -0.58765078893E+02 -0.14230529450E+02  0.60382383873E+01  0.60772549630E+02  0.10000000000E+01 0. -1.
        -13    1    6    6    0    0 -0.53163414061E+00  0.43668764828E+00  0.41808576961E-01  0.69721153083E+00  0.10500000000E+00 0.  1.
         13    1    6    6    0    0 -0.69775083655E+00  0.75052733702E+00 -0.14850131581E-01  0.10302393120E+01  0.10500000000E+00 0. -1.
</event>
<event>
11    0  0.3494755E-009  0.9118800E+02  0.7816531E-02  0.1126479E+00
         25   -1    0    0    0    0  0.00000000000E+00  0.00000000000E+00  0.99999998245E-14  0.12500000000E+03  0.12500000000E+03 0.  0.
    3000001    1    3    3    0    0 -0.22303452927E+02  0.41776241094E+01  0.30856726803E+02  0.38314933702E+02  0.10000000000E+01 0. -1.
    1000022    2    1    0    0    0 -0.41190633957E+02  0.98148461600E+01  0.44869261329E+02  0.62500001397E+02  0.10000001574E+02 0.  0.
    3000022    2    3    3    0    0 -0.18887181031E+02  0.56372220505E+01  0.14012534527E+02  0.24185067695E+02  0.24999162502E+00 0.  0.
    1000022    2    1    0    0    0  0.41190633957E+02 -0.98148461600E+01 -0.44869261329E+02  0.62499998603E+02  0.99999841088E+01 0.  0.
    3000022    2    5    5    0    0  0.12380969177E+02 -0.57466452014E+01 -0.92198955705E+01  0.16473654811E+02  0.24999937860E+00 0.  0.
        -13    1    4    4    0    0 -0.11088338082E+02  0.33271690094E+01  0.81539185278E+01  0.14160462824E+02  0.10500000000E+00 0. -1.
         13    1    4    4    0    0 -0.77988429485E+01  0.23100530411E+01  0.58586159988E+01  0.10024604870E+02  0.10500000000E+00 0.  1.
    3000001    1    5    5    0    0  0.28809664781E+02 -0.40682009586E+01 -0.35649365759E+02  0.46026343792E+02  0.10000000000E+01 0.  1.
        -13    1    6    6    0    0  0.89938995214E+01 -0.41612733520E+01 -0.67360272620E+01  0.11982967612E+02  0.10500000000E+00 0.  1.
         13    1    6    6    0    0  0.33870696551E+01 -0.15853718494E+01 -0.24838683085E+01  0.44906871995E+01  0.10500000000E+00 0. -1.
</event>
<event>
11    0  0.3494755E-009  0.9118800E+02  0.7816531E-02  0.1126479E+00
         25   -1    0    0    0    0  0.00000000000E+00  0.00000000000E+00  0.99999998245E-14  0.12500000000E+03  0.12500000000E+03 0.  0.
    3000001    1    3    3    0    0  0.19268324118E+02  0.15760418604E+02  0.83404476551E+01  0.26272079780E+02  0.10000000000E+01 0. -1.
    1000022    2    1    0    0    0  0.43680574204E+02  0.31844031997E+02  0.29735754030E+02  0.62500000072E+02  0.10000000231E+02 0.  0.
    3000022    2    3    3    0    0  0.24412250086E+02  0.16083613393E+02  0.21395306375E+02  0.36227920292E+02  0.24999948624E+00 0.  0.
    1000022    2    1    0    0    0 -0.43680574204E+02 -0.31844031997E+02 -0.29735754030E+02  0.62499999928E+02  0.99999993339E+01 0.  0.
    3000022    2    5    5    0    0 -0.96325109481E+01 -0.34903534383E+01 -0.27485966832E+01  0.10610614107E+02  0.25002740144E+00 0.  0.
        -13    1    4    4    0    0  0.75542379092E+01  0.49240324394E+01  0.65764077219E+01  0.11161217200E+02  0.10500000000E+00 0.  1.
         13    1    4    4    0    0  0.16858012177E+02  0.11159580954E+02  0.14818898654E+02  0.25066703092E+02  0.10500000000E+00 0. -1.
    3000001    1    5    5    0    0 -0.34048063256E+02 -0.28353678559E+02 -0.26987157347E+02  0.51889385822E+02  0.10000000000E+01 0. -1.
        -13    1    6    6    0    0 -0.54598730492E+01 -0.19479460021E+01 -0.16164310599E+01  0.60190183346E+01  0.10500000000E+00 0. -1.
         13    1    6    6    0    0 -0.41726378988E+01 -0.15424074362E+01 -0.11321656232E+01  0.45915957719E+01  0.10500000000E+00 0.  1.
</event>
<event>
11    0  0.3494755E-009  0.9118800E+02  0.7816531E-02  0.1126479E+00
         25   -1    0    0    0    0  0.00000000000E+00  0.00000000000E+00  0.99999998245E-14  0.12500000000E+03  0.12500000000E+03 0.  0.
    3000001    1    3    3    0    0  0.34981841377E+02 -0.54337794715E+01  0.41088535145E+02  0.54245026554E+02  0.10000000000E+01 0. -1.
    1000022    2    1    0    0    0  0.37738223197E+02 -0.36871756182E+01  0.48667047534E+02  0.62500001733E+02  0.99999973415E+01 0.  0.
    3000022    2    3    3    0    0  0.27563818199E+01  0.17466038534E+01  0.75785123894E+01  0.82549751793E+01  0.24999883192E+00 0.  0.
    1000022    2    1    0    0    0 -0.37738223197E+02  0.36871756182E+01 -0.48667047534E+02  0.62499998267E+02  0.99999756788E+01 0.  0.
    3000022    2    5    5    0    0 -0.19141876703E+02  0.59899835058E+01 -0.29525520145E+02  0.35694679805E+02  0.24996077589E+00 0.  0.
        -13    1    4    4    0    0  0.16843023295E+01  0.11329606664E+01  0.47688841566E+01  0.51839902882E+01  0.10500000000E+00 0. -1.
         13    1    4    4    0    0  0.10720794904E+01  0.61364318693E+00  0.28096282328E+01  0.30709848911E+01  0.10500000000E+00 0.  1.
    3000001    1    5    5    0    0 -0.18596346494E+02 -0.23028078877E+01 -0.19141527389E+02  0.26805318462E+02  0.10000000000E+01 0. -1.
        -13    1    6    6    0    0 -0.11634808153E+02  0.36016072821E+01 -0.18016994607E+02  0.21747722995E+02  0.10500000000E+00 0.  1.
         13    1    6    6    0    0 -0.75070685497E+01  0.23883762237E+01 -0.11508525538E+02  0.13946956810E+02  0.10500000000E+00 0. -1.
</event>
<event>
11    0  0.3494755E-009  0.9118800E+02  0.7816531E-02  0.1126479E+00
         25   -1    0    0    0    0  0.00000000000E+00  0.00000000000E+00  0.99999998245E-14  0.12500000000E+03  0.12500000000E+03 0.  0.
    3000001    1    3    3    0    0 -0.10345575164E+02  0.39130171143E+01  0.20738923066E+01  0.11297949270E+02  0.10000000000E+01 0. -1.
    1000022    2    1    0    0    0 -0.57400218881E+02  0.20665896156E+02 -0.91861704698E+01  0.62499999757E+02  0.99999925134E+01 0.  0.
    3000022    2    3    3    0    0 -0.47054643717E+02  0.16752879041E+02 -0.11260062776E+02  0.51202050487E+02  0.25001772323E+00 0.  0.
    1000022    2    1    0    0    0  0.57400218881E+02 -0.20665896156E+02  0.91861704698E+01  0.62500000243E+02  0.99999955488E+01 0.  0.
    3000022    2    5    5    0    0  0.52546371697E+02 -0.16592319700E+02  0.62925458795E+01  0.55462463678E+02  0.24998422987E+00 0.  0.
        -13    1    4    4    0    0 -0.23730698187E+02  0.84235803082E+01 -0.57418990246E+01  0.25827953288E+02  0.10500000000E+00 0. -1.
         13    1    4    4    0    0 -0.23323945530E+02  0.83292987331E+01 -0.55181637518E+01  0.25374097199E+02  0.10500000000E+00 0.  1.
    3000001    1    5    5    0    0  0.48538471840E+01 -0.40735764555E+01  0.28936245904E+01  0.70375365644E+01  0.10000000000E+01 0. -1.
        -13    1    6    6    0    0  0.39512800895E+02 -0.12473357348E+02  0.47566752542E+01  0.41707110456E+02  0.10500000000E+00 0.  1.
         13    1    6    6    0    0  0.13033570802E+02 -0.41189623522E+01  0.15358706252E+01  0.13755353223E+02  0.10500000000E+00 0. -1.
</event>
<event>
11    0  0.3494755E-009  0.9118800E+02  0.7816531E-02  0.1126479E+00
         25   -1    0    0    0    0  0.00000000000E+00  0.00000000000E+00  0.99999998245E-14  0.12500000000E+03  0.12500000000E+03 0.  0.
    3000001    1    3    3    0    0  0.22811317336E+02  0.31065908309E+02  0.20103124901E+02  0.43480828976E+02  0.10000000000E+01 0.  1.
    1000022    2    1    0    0    0  0.28869688935E+02  0.48365843273E+02  0.25170123921E+02  0.62499992996E+02  0.10000012585E+02 0.  0.
    3000022    2    3    3    0    0  0.60583715985E+01  0.17299934964E+02  0.50669990199E+01  0.19019164020E+02  0.25000957285E+00 0.  0.
    1000022    2    1    0    0    0 -0.28869688935E+02 -0.48365843273E+02 -0.25170123921E+02  0.62500007004E+02  0.10000100130E+02 0.  0.
    3000022    2    5    5    0    0 -0.22144496392E+02 -0.29258855618E+02 -0.18874751832E+02  0.41264732065E+02  0.25000634206E+00 0.  0.
        -13    1    4    4    0    0  0.43373472378E+01  0.12399897472E+02  0.36732313309E+01  0.13640883102E+02  0.10500000000E+00 0. -1.
         13    1    4    4    0    0  0.17210243607E+01  0.49000374912E+01  0.13937676889E+01  0.53782809183E+01  0.10500000000E+00 0.  1.
    3000001    1    5    5    0    0 -0.67251925425E+01 -0.19106987655E+02 -0.62953720890E+01  0.21235274938E+02  0.10000000000E+01 0.  1.
        -13    1    6    6    0    0 -0.79533766132E+01 -0.10553329340E+02 -0.68553744884E+01  0.14887449214E+02  0.10500000000E+00 0. -1.
         13    1    6    6    0    0 -0.14191119779E+02 -0.18705526278E+02 -0.12019377344E+02  0.26377282852E+02  0.10500000000E+00 0.  1.
</event>
<event>
11    0  0.3494755E-009  0.9118800E+02  0.7816531E-02  0.1126479E+00
         25   -1    0    0    0    0  0.00000000000E+00  0.00000000000E+00  0.99999998245E-14  0.12500000000E+03  0.12500000000E+03 0.  0.
    3000001    1    3    3    0    0 -0.11390532976E+02 -0.19431325016E+01  0.21331845004E+02  0.24281013501E+02  0.10000000000E+01 0. -1.
    1000022    2    1    0    0    0 -0.35563392464E+02  0.45933934992E+01  0.50203547301E+02  0.62500000816E+02  0.99999896510E+01 0.  0.
    3000022    2    3    3    0    0 -0.24172859488E+02  0.65365260007E+01  0.28871702297E+02  0.38218987314E+02  0.24997964421E+00 0.  0.
    1000022    2    1    0    0    0  0.35563392464E+02 -0.45933934992E+01 -0.50203547301E+02  0.62499999184E+02  0.99999794543E+01 0.  0.
    3000022    2    5    5    0    0  0.10910989405E+02  0.22352058345E+01 -0.20119114099E+02  0.22997545254E+02  0.25000133999E+00 0.  0.
        -13    1    4    4    0    0 -0.17496049861E+02  0.46915736639E+01  0.20876659856E+02  0.27639981475E+02  0.10500000000E+00 0.  1.
         13    1    4    4    0    0 -0.66768096269E+01  0.18449523368E+01  0.79950424407E+01  0.10579005839E+02  0.10500000000E+00 0. -1.
    3000001    1    5    5    0    0  0.24652403059E+02 -0.68285993337E+01 -0.30084433202E+02  0.39502453931E+02  0.10000000000E+01 0. -1.
        -13    1    6    6    0    0  0.35961250590E+01  0.71851013571E+00 -0.67285666828E+01  0.76637462680E+01  0.10500000000E+00 0. -1.
         13    1    6    6    0    0  0.73148643458E+01  0.15166956988E+01 -0.13390547416E+02  0.15333798986E+02  0.10500000000E+00 0.  1.
</event>
<event>
11    0  0.3494755E-009  0.9118800E+02  0.7816531E-02  0.1126479E+00
         25   -1    0    0    0    0  0.00000000000E+00  0.00000000000E+00  0.99999998245E-14  0.12500000000E+03  0.12500000000E+03 0.  0.
    3000001    1    3    3    0    0  0.88009053871E+01  0.37868572397E+02 -0.42992042857E+02  0.57972411198E+02  0.10000000000E+01 0.  1.
    1000022    2    1    0    0    0  0.78993089204E+01  0.38781827737E+02 -0.47326744897E+02  0.62500000470E+02  0.10000001604E+02 0.  0.
    3000022    2    3    3    0    0 -0.90159646671E+00  0.91325534015E+00 -0.43347020398E+01  0.45275892719E+01  0.25002267053E+00 0.  0.
    1000022    2    1    0    0    0 -0.78993089204E+01 -0.38781827737E+02  0.47326744897E+02  0.62499999530E+02  0.99999957343E+01 0.  0.
    3000022    2    5    5    0    0 -0.58256125926E+01 -0.37916680720E+02  0.44443306743E+02  0.58710156340E+02  0.25000857297E+00 0.  0.
        -13    1    4    4    0    0 -0.39968630040E+00  0.31994765363E+00 -0.18028810405E+01  0.18771043354E+01  0.10500000000E+00 0. -1.
         13    1    4    4    0    0 -0.50191016631E+00  0.59330768653E+00 -0.25318209993E+01  0.26504849365E+01  0.10500000000E+00 0.  1.
    3000001    1    5    5    0    0 -0.20736963278E+01 -0.86514701731E+00  0.28834381538E+01  0.37898431904E+01  0.10000000000E+01 0. -1.
        -13    1    6    6    0    0 -0.32485398987E+01 -0.21510431053E+02  0.25256333888E+02  0.33333842894E+02  0.10500000000E+00 0.  1.
         13    1    6    6    0    0 -0.25770726939E+01 -0.16406249666E+02  0.19186972855E+02  0.25376313446E+02  0.10500000000E+00 0. -1.
</event>
<event>
11    0  0.3494755E-009  0.9118800E+02  0.7816531E-02  0.1126479E+00
         25   -1    0    0    0    0  0.00000000000E+00  0.00000000000E+00  0.99999998245E-14  0.12500000000E+03  0.12500000000E+03 0.  0.
    3000001    1    3    3    0    0 -0.33385965288E+01 -0.42096953151E+02  0.28149657591E+01  0.42334663382E+02  0.10000000000E+01 0. -1.
    1000022    2    1    0    0    0 -0.70728151531E+01 -0.61245611650E+02 -0.22803928905E+01  0.62499997051E+02  0.99999889545E+01 0.  0.
    3000022    2    3    3    0    0 -0.37342186244E+01 -0.19148658498E+02 -0.50953586496E+01  0.20165333669E+02  0.24998240754E+00 0.  0.
    1000022    2    1    0    0    0  0.70728151531E+01  0.61245611650E+02  0.22803928905E+01  0.62500002949E+02  0.10000025820E+02 0.  0.
    3000022    2    5    5    0    0  0.48847476522E+01  0.13956497775E+02  0.32421505200E+01  0.15139968024E+02  0.25000398250E+00 0.  0.
        -13    1    4    4    0    0 -0.15278639183E+01 -0.78976842991E+01 -0.21661314460E+01  0.83313225770E+01  0.10500000000E+00 0. -1.
         13    1    4    4    0    0 -0.22063547060E+01 -0.11250974199E+02 -0.29292272037E+01  0.11834011092E+02  0.10500000000E+00 0.  1.
    3000001    1    5    5    0    0  0.21880675009E+01  0.47289113874E+02 -0.96175762944E+00  0.47360034926E+02  0.10000000000E+01 0.  1.
        -13    1    6    6    0    0  0.18216409051E+01  0.51217177189E+01  0.12457455465E+01  0.55779274777E+01  0.10500000000E+00 0. -1.
         13    1    6    6    0    0  0.30631067471E+01  0.88347800562E+01  0.19964049734E+01  0.95620405460E+01  0.10500000000E+00 0.  1.
</event>
<event>
11    0  0.3494755E-009  0.9118800E+02  0.7816531E-02  0.1126479E+00
         25   -1    0    0    0    0  0.00000000000E+00  0.00000000000E+00  0.99999998245E-14  0.12500000000E+03  0.12500000000E+03 0.  0.
    3000001    1    3    3    0    0 -0.10226073649E+02 -0.10339715051E+01 -0.10412633764E+01  0.10379109247E+02  0.10000000000E+01 0. -1.
    1000022    2    1    0    0    0 -0.55228789626E+02 -0.51536541257E+01 -0.27008716790E+02  0.62500001142E+02  0.10000000284E+02 0.  0.
    3000022    2    3    3    0    0 -0.45002715978E+02 -0.41196826205E+01 -0.25967453414E+02  0.52120891895E+02  0.25000977601E+00 0.  0.
    1000022    2    1    0    0    0  0.55228789626E+02  0.51536541257E+01  0.27008716790E+02  0.62499998858E+02  0.99999860068E+01 0.  0.
    3000022    2    5    5    0    0  0.49346361452E+02  0.33507589890E+01  0.26819201061E+02  0.56263869585E+02  0.25000146953E+00 0.  0.
        -13    1    4    4    0    0 -0.21835078688E+02 -0.19378860106E+01 -0.12561454381E+02  0.25265138525E+02  0.10500000000E+00 0. -1.
         13    1    4    4    0    0 -0.23167637289E+02 -0.21817966100E+01 -0.13405999033E+02  0.26855753370E+02  0.10500000000E+00 0.  1.
    3000001    1    5    5    0    0  0.58824281740E+01  0.18028951366E+01  0.18951572915E+00  0.62361292728E+01  0.10000000000E+01 0.  1.
        -13    1    6    6    0    0  0.29452286160E+02  0.20394060777E+01  0.15951963853E+02  0.33557003933E+02  0.10500000000E+00 0. -1.
         13    1    6    6    0    0  0.19894075293E+02  0.13113529113E+01  0.10867237208E+02  0.22706865652E+02  0.10500000000E+00 0.  1.
</event>
<event>
11    0  0.3494755E-009  0.9118800E+02  0.7816531E-02  0.1126479E+00
         25   -1    0    0    0    0  0.00000000000E+00  0.00000000000E+00  0.99999998245E-14  0.12500000000E+03  0.12500000000E+03 0.  0.
    3000001    1    3    3    0    0 -0.11178973969E+02 -0.18395061606E+02  0.54320338010E+02  0.58438402374E+02  0.10000000000E+01 0. -1.
    1000022    2    1    0    0    0 -0.12174704063E+02 -0.21692815461E+02  0.56457491727E+02  0.62500000597E+02  0.10000002046E+02 0.  0.
    3000022    2    3    3    0    0 -0.99573009408E+00 -0.32977538548E+01  0.21371537171E+01  0.40615982235E+01  0.24999042262E+00 0.  0.
    1000022    2    1    0    0    0  0.12174704063E+02  0.21692815461E+02 -0.56457491727E+02  0.62499999403E+02  0.99999945828E+01 0.  0.
    3000022    2    5    5    0    0  0.12558391552E+01  0.35665201382E+01 -0.19817659929E+02  0.20176702424E+02  0.24995552288E+00 0.  0.
        -13    1    4    4    0    0 -0.75405410193E+00 -0.24109894081E+01  0.15931576919E+01  0.29884183017E+01  0.10500000000E+00 0. -1.
         13    1    4    4    0    0 -0.24167599215E+00 -0.88676444673E+00  0.54399602520E+00  0.10731799218E+01  0.10500000000E+00 0.  1.
    3000001    1    5    5    0    0  0.10918864908E+02  0.18126295323E+02 -0.36639831797E+02  0.42323296979E+02  0.10000000000E+01 0. -1.
        -13    1    6    6    0    0  0.39270765373E+00  0.11257169051E+01 -0.65287755006E+01  0.66375742850E+01  0.10500000000E+00 0.  1.
         13    1    6    6    0    0  0.86313150144E+00  0.24408032331E+01 -0.13288884429E+02  0.13539128139E+02  0.10500000000E+00 0. -1.
</event>
<event>
11    0  0.3494755E-009  0.9118800E+02  0.7816531E-02  0.1126479E+00
         25   -1    0    0    0    0  0.00000000000E+00  0.00000000000E+00  0.99999998245E-14  0.12500000000E+03  0.12500000000E+03 0.  0.
    3000001    1    3    3    0    0 -0.51006647846E+01 -0.54740134895E+01  0.86899984593E+01  0.11510763578E+02  0.10000000000E+01 0. -1.
    1000022    2    1    0    0    0 -0.87919072829E+01 -0.37481009168E+02  0.48209193138E+02  0.62500000627E+02  0.10000004675E+02 0.  0.
    3000022    2    3    3    0    0 -0.36912424983E+01 -0.32006995678E+02  0.39519194679E+02  0.50989237049E+02  0.25000655921E+00 0.  0.
    1000022    2    1    0    0    0  0.87919072829E+01  0.37481009168E+02 -0.48209193138E+02  0.62499999373E+02  0.99999968329E+01 0.  0.
    3000022    2    5    5    0    0  0.45134161521E+01  0.92806561006E+01 -0.19233468107E+02  0.21828657613E+02  0.24998947274E+00 0.  0.
        -13    1    4    4    0    0 -0.20176950952E+01 -0.17466945763E+02  0.21461200000E+02  0.27744538530E+02  0.10500000000E+00 0. -1.
         13    1    4    4    0    0 -0.16735474031E+01 -0.14540049915E+02  0.18057994678E+02  0.23244698519E+02  0.10500000000E+00 0.  1.
    3000001    1    5    5    0    0  0.42784911308E+01  0.28200353067E+02 -0.28975725031E+02  0.40671341760E+02  0.10000000000E+01 0. -1.
        -13    1    6    6    0    0  0.29124979425E+01  0.60974927252E+01 -0.12530391706E+02  0.14236706189E+02  0.10500000000E+00 0. -1.
         13    1    6    6    0    0  0.16009182096E+01  0.31831633754E+01 -0.67030764008E+01  0.75919514239E+01  0.10500000000E+00 0.  1.
</event>
<event>
11    0  0.3494755E-009  0.9118800E+02  0.7816531E-02  0.1126479E+00
         25   -1    0    0    0    0  0.00000000000E+00  0.00000000000E+00  0.99999998245E-14  0.12500000000E+03  0.12500000000E+03 0.  0.
    3000001    1    3    3    0    0  0.25305326859E+02  0.52828884679E+02  0.19004212026E+02  0.61590670549E+02  0.10000000000E+01 0.  1.
    1000022    2    1    0    0    0  0.25631115719E+02  0.52525845255E+02  0.19756809419E+02  0.62499999961E+02  0.99999981983E+01 0.  0.
    3000022    2    3    3    0    0  0.32578886017E+00 -0.30303942447E+00  0.75259739298E+00  0.90932941239E+00  0.25001174000E+00 0.  0.
    1000022    2    1    0    0    0 -0.25631115719E+02 -0.52525845255E+02 -0.19756809419E+02  0.62500000039E+02  0.99999986861E+01 0.  0.
    3000022    2    5    5    0    0 -0.72696305851E+01 -0.25640721154E+02 -0.73788824695E+01  0.27655099267E+02  0.24999766146E+00 0.  0.
        -13    1    4    4    0    0  0.13349141526E+00 -0.19142333270E+00  0.30058376139E+00  0.39476378742E+00  0.10500000000E+00 0.  1.
         13    1    4    4    0    0  0.19229744490E+00 -0.11161609177E+00  0.45201363159E+00  0.51456562497E+00  0.10500000000E+00 0. -1.
    3000001    1    5    5    0    0 -0.18361485134E+02 -0.26885124101E+02 -0.12377926949E+02  0.34844900772E+02  0.10000000000E+01 0. -1.
        -13    1    6    6    0    0 -0.20958342563E+01 -0.72673468877E+01 -0.21178313391E+01  0.78551312273E+01  0.10500000000E+00 0.  1.
         13    1    6    6    0    0 -0.51737963287E+01 -0.18373374266E+02 -0.52610511304E+01  0.19799968040E+02  0.10500000000E+00 0. -1.
</event>
<event>
11    0  0.3494755E-009  0.9118800E+02  0.7816531E-02  0.1126479E+00
         25   -1    0    0    0    0  0.00000000000E+00  0.00000000000E+00  0.99999998245E-14  0.12500000000E+03  0.12500000000E+03 0.  0.
    3000001    1    3    3    0    0 -0.53784532540E+01  0.60893375571E+01 -0.60635323124E+01  0.10186963011E+02  0.10000000000E+01 0. -1.
    1000022    2    1    0    0    0 -0.47036817338E+02  0.20780821101E+02 -0.34087321424E+02  0.62500003857E+02  0.10000014467E+02 0.  0.
    3000022    2    3    3    0    0 -0.41658364084E+02  0.14691483544E+02 -0.28023789112E+02  0.52313040846E+02  0.24999896876E+00 0.  0.
    1000022    2    1    0    0    0  0.47036817338E+02 -0.20780821101E+02  0.34087321424E+02  0.62499996143E+02  0.99999662529E+01 0.  0.
    3000022    2    5    5    0    0  0.34323517031E+02 -0.10874771590E+02  0.20756172612E+02  0.41560145373E+02  0.25000684136E+00 0.  0.
        -13    1    4    4    0    0 -0.22733349869E+02  0.79795524846E+01 -0.15351883348E+02  0.28568685680E+02  0.10500000000E+00 0. -1.
         13    1    4    4    0    0 -0.18925014214E+02  0.67119310593E+01 -0.12671905763E+02  0.23744355166E+02  0.10500000000E+00 0.  1.
    3000001    1    5    5    0    0  0.12713300307E+02 -0.99060495109E+01  0.13331148812E+02  0.20939850770E+02  0.10000000000E+01 0.  1.
        -13    1    6    6    0    0  0.23704701154E+02 -0.74843521048E+01  0.14282170436E+02  0.28669143701E+02  0.10500000000E+00 0.  1.
         13    1    6    6    0    0  0.10618815877E+02 -0.33904194852E+01  0.64740021767E+01  0.12891001672E+02  0.10500000000E+00 0. -1.
</event>
<event>
11    0  0.3494755E-009  0.9118800E+02  0.7816531E-02  0.1126479E+00
         25   -1    0    0    0    0  0.00000000000E+00  0.00000000000E+00  0.99999998245E-14  0.12500000000E+03  0.12500000000E+03 0.  0.
    3000001    1    3    3    0    0 -0.72826468136E+01 -0.32997549434E+01 -0.10521353331E+02  0.13252328218E+02  0.10000000000E+01 0.  1.
    1000022    2    1    0    0    0 -0.38531833337E+02 -0.29699352784E+02 -0.37940693772E+02  0.62499999783E+02  0.99999996497E+01 0.  0.
    3000022    2    3    3    0    0 -0.31249186523E+02 -0.26399597840E+02 -0.27419340441E+02  0.49247671565E+02  0.24999975908E+00 0.  0.
    1000022    2    1    0    0    0  0.38531833337E+02  0.29699352784E+02  0.37940693772E+02  0.62500000217E+02  0.10000002357E+02 0.  0.
    3000022    2    5    5    0    0  0.89078418727E+01  0.10876738990E+02  0.70314060024E+01  0.15721204479E+02  0.25000400438E+00 0.  0.
        -13    1    4    4    0    0 -0.74567684125E+01 -0.62776978777E+01 -0.65413537504E+01  0.11739387535E+02  0.10500000000E+00 0. -1.
         13    1    4    4    0    0 -0.23792418111E+02 -0.20121899962E+02 -0.20877986691E+02  0.37508284031E+02  0.10500000000E+00 0.  1.
    3000001    1    5    5    0    0  0.29623991464E+02  0.18822613793E+02  0.30909287769E+02  0.46778795738E+02  0.10000000000E+01 0. -1.
        -13    1    6    6    0    0  0.56917231652E+01  0.69930088834E+01  0.44521546236E+01  0.10056370699E+02  0.10500000000E+00 0.  1.
         13    1    6    6    0    0  0.32161187075E+01  0.38837301068E+01  0.25792513788E+01  0.56648337803E+01  0.10500000000E+00 0. -1.
</event>
<event>
11    0  0.3494755E-009  0.9118800E+02  0.7816531E-02  0.1126479E+00
         25   -1    0    0    0    0  0.00000000000E+00  0.00000000000E+00  0.99999998245E-14  0.12500000000E+03  0.12500000000E+03 0.  0.
    3000001    1    3    3    0    0  0.71180683780E+01 -0.35675807043E+00 -0.49151170347E+02  0.49675262659E+02  0.10000000000E+01 0.  1.
    1000022    2    1    0    0    0  0.87740620418E+01  0.45007903644E+01 -0.60901630649E+02  0.62500000899E+02  0.10000010907E+02 0.  0.
    3000022    2    3    3    0    0  0.16559936638E+01  0.48575484349E+01 -0.11750460302E+02  0.12824738240E+02  0.25000364635E+00 0.  0.
    1000022    2    1    0    0    0 -0.87740620418E+01 -0.45007903644E+01  0.60901630649E+02  0.62499999101E+02  0.99999996664E+01 0.  0.
    3000022    2    5    5    0    0 -0.56119933302E+01 -0.45105465880E+01  0.16873314804E+02  0.18346954248E+02  0.24995603591E+00 0.  0.
        -13    1    4    4    0    0  0.57030413079E+00  0.18457653589E+01 -0.44824953322E+01  0.48822009346E+01  0.10500000000E+00 0.  1.
         13    1    4    4    0    0  0.10856895330E+01  0.30117830759E+01 -0.72679649695E+01  0.79425373059E+01  0.10500000000E+00 0. -1.
    3000001    1    5    5    0    0 -0.31620687116E+01  0.97562235237E-02  0.44028315844E+02  0.44153044853E+02  0.10000000000E+01 0. -1.
        -13    1    6    6    0    0 -0.23423995023E+01 -0.18523539933E+01  0.68475767611E+01  0.74711701388E+01  0.10500000000E+00 0. -1.
         13    1    6    6    0    0 -0.32695938280E+01 -0.26581925946E+01  0.10025738043E+02  0.10875784109E+02  0.10500000000E+00 0.  1.
</event>
<event>
11    0  0.3494755E-009  0.9118800E+02  0.7816531E-02  0.1126479E+00
         25   -1    0    0    0    0  0.00000000000E+00  0.00000000000E+00  0.99999998245E-14  0.12500000000E+03  0.12500000000E+03 0.  0.
    3000001    1    3    3    0    0 -0.92331099145E+01 -0.16997280099E+02 -0.93953463311E+01  0.21527433246E+02  0.10000000000E+01 0.  1.
    1000022    2    1    0    0    0 -0.15196719584E+02 -0.55110143071E+02 -0.23198741591E+02  0.62499999611E+02  0.10000009224E+02 0.  0.
    3000022    2    3    3    0    0 -0.59636096693E+01 -0.38112862972E+02 -0.13803395260E+02  0.40972566365E+02  0.25001924214E+00 0.  0.
    1000022    2    1    0    0    0  0.15196719584E+02  0.55110143071E+02  0.23198741591E+02  0.62500000389E+02  0.10000014086E+02 0.  0.
    3000022    2    5    5    0    0  0.29011856076E+01  0.15438390824E+02  0.19357324471E+01  0.15829413934E+02  0.24999246633E+00 0.  0.
        -13    1    4    4    0    0 -0.18170194878E+01 -0.11763650957E+02 -0.43038794571E+01  0.12657782075E+02  0.10500000000E+00 0.  1.
         13    1    4    4    0    0 -0.41465901815E+01 -0.26349212015E+02 -0.94995158032E+01  0.28314784291E+02  0.10500000000E+00 0. -1.
    3000001    1    5    5    0    0  0.12295533976E+02  0.39671752247E+02  0.21263009144E+02  0.46670586455E+02  0.10000000000E+01 0. -1.
        -13    1    6    6    0    0  0.12967061175E+01  0.72507190250E+01  0.92649759138E+00  0.74245401152E+01  0.10500000000E+00 0. -1.
         13    1    6    6    0    0  0.16044794900E+01  0.81876717990E+01  0.10092348558E+01  0.84048738192E+01  0.10500000000E+00 0.  1.
</event>
<event>
11    0  0.3494755E-009  0.9118800E+02  0.7816531E-02  0.1126479E+00
         25   -1    0    0    0    0  0.00000000000E+00  0.00000000000E+00  0.99999998245E-14  0.12500000000E+03  0.12500000000E+03 0.  0.
    3000001    1    3    3    0    0 -0.32650306520E+02 -0.43109218639E+02 -0.26089203321E+02  0.60050760007E+02  0.10000000000E+01 0.  1.
    1000022    2    1    0    0    0 -0.34922263408E+02 -0.43893880346E+02 -0.25690715323E+02  0.62499999536E+02  0.99999937379E+01 0.  0.
    3000022    2    3    3    0    0 -0.22719568880E+01 -0.78466170727E+00  0.39848799808E+00  0.24492395284E+01  0.24999897450E+00 0.  0.
    1000022    2    1    0    0    0  0.34922263408E+02  0.43893880346E+02  0.25690715323E+02  0.62500000464E+02  0.99999995428E+01 0.  0.
    3000022    2    5    5    0    0  0.33240178566E+02  0.43795085440E+02  0.25191418099E+02  0.60478004528E+02  0.25001219308E+00 0.  0.
        -13    1    4    4    0    0 -0.76559237311E+00 -0.26408047607E+00  0.19005740716E+00  0.83846108892E+00  0.10500000000E+00 0.  1.
         13    1    4    4    0    0 -0.15063645149E+01 -0.52058123120E+00  0.20843059092E+00  0.16107784395E+01  0.10500000000E+00 0. -1.
    3000001    1    5    5    0    0  0.16820848417E+01  0.98794906541E-01  0.49929722475E+00  0.20219959364E+01  0.10000000000E+01 0. -1.
        -13    1    6    6    0    0  0.82015509638E+01  0.10770285983E+02  0.61910335582E+01  0.14886383708E+02  0.10500000000E+00 0. -1.
         13    1    6    6    0    0  0.25038627602E+02  0.33024799456E+02  0.19000384540E+02  0.45591620820E+02  0.10500000000E+00 0.  1.
</event>
<event>
11    0  0.3494755E-009  0.9118800E+02  0.7816531E-02  0.1126479E+00
         25   -1    0    0    0    0  0.00000000000E+00  0.00000000000E+00  0.99999998245E-14  0.12500000000E+03  0.12500000000E+03 0.  0.
    3000001    1    3    3    0    0  0.30174590810E+02  0.18117352150E+02 -0.38087331572E+02  0.51868961872E+02  0.10000000000E+01 0.  1.
    1000022    2    1    0    0    0  0.33287575496E+02  0.25082389142E+02 -0.45486921091E+02  0.62499993536E+02  0.10000013710E+02 0.  0.
    3000022    2    3    3    0    0  0.31129846861E+01  0.69650369925E+01 -0.73995895191E+01  0.10631031664E+02  0.24999044274E+00 0.  0.
    1000022    2    1    0    0    0 -0.33287575496E+02 -0.25082389142E+02  0.45486921091E+02  0.62500006464E+02  0.10000094509E+02 0.  0.
    3000022    2    5    5    0    0 -0.20195833928E+02 -0.20698359420E+02  0.32723982806E+02  0.43671676544E+02  0.24998158160E+00 0.  0.
        -13    1    4    4    0    0  0.14270289719E+01  0.32571072433E+01 -0.33629216868E+01  0.48954495761E+01  0.10500000000E+00 0. -1.
         13    1    4    4    0    0  0.16859557142E+01  0.37079297492E+01 -0.40366678323E+01  0.57355820876E+01  0.10500000000E+00 0.  1.
    3000001    1    5    5    0    0 -0.13091741568E+02 -0.43840297221E+01  0.12762938285E+02  0.18828329920E+02  0.10000000000E+01 0. -1.
        -13    1    6    6    0    0 -0.13612160595E+02 -0.13915560923E+02  0.21957743192E+02  0.29344288421E+02  0.10500000000E+00 0.  1.
         13    1    6    6    0    0 -0.65836733333E+01 -0.67827984972E+01  0.10766239614E+02  0.14327388123E+02  0.10500000000E+00 0. -1.
</event>
<event>
11    0  0.3494755E-009  0.9118800E+02  0.7816531E-02  0.1126479E+00
         25   -1    0    0    0    0  0.00000000000E+00  0.00000000000E+00  0.99999998245E-14  0.12500000000E+03  0.12500000000E+03 0.  0.
    3000001    1    3    3    0    0 -0.44308304960E+02 -0.33916792645E+02  0.16606948118E+02  0.58226844647E+02  0.10000000000E+01 0. -1.
    1000022    2    1    0    0    0 -0.47962658129E+02 -0.35670934619E+02  0.15278018022E+02  0.62500001485E+02  0.10000009979E+02 0.  0.
    3000022    2    3    3    0    0 -0.36543531690E+01 -0.17541419739E+01 -0.13289300964E+01  0.42731568380E+01  0.25000602530E+00 0.  0.
    1000022    2    1    0    0    0  0.47962658129E+02  0.35670934619E+02 -0.15278018022E+02  0.62499998515E+02  0.99999914154E+01 0.  0.
    3000022    2    5    5    0    0  0.23134497759E+02  0.16714328605E+02 -0.12383847952E+02  0.31112633552E+02  0.25001833406E+00 0.  0.
        -13    1    4    4    0    0 -0.14498029522E+01 -0.62723491488E+00 -0.51588487302E+00  0.16650869169E+01  0.10500000000E+00 0. -1.
         13    1    4    4    0    0 -0.22045502168E+01 -0.11269070590E+01 -0.81304522336E+00  0.26080699211E+01  0.10500000000E+00 0.  1.
    3000001    1    5    5    0    0  0.24828160370E+02  0.18956606015E+02 -0.28941700699E+01  0.31387364963E+02  0.10000000000E+01 0. -1.
        -13    1    6    6    0    0  0.10022966821E+02  0.73211897227E+01 -0.53718587787E+01  0.13525072074E+02  0.10500000000E+00 0. -1.
         13    1    6    6    0    0  0.13111530938E+02  0.93931388820E+01 -0.70119891731E+01  0.17587561478E+02  0.10500000000E+00 0.  1.
</event>
<event>
11    0  0.3494755E-009  0.9118800E+02  0.7816531E-02  0.1126479E+00
         25   -1    0    0    0    0  0.00000000000E+00  0.00000000000E+00  0.99999998245E-14  0.12500000000E+03  0.12500000000E+03 0.  0.
    3000001    1    3    3    0    0  0.22319362663E+01  0.55573564602E+01 -0.43982630758E+02  0.44399747282E+02  0.10000000000E+01 0. -1.
    1000022    2    1    0    0    0  0.27882902961E+01  0.15070459503E+01 -0.61613345087E+02  0.62499999449E+02  0.99999944015E+01 0.  0.
    3000022    2    3    3    0    0  0.55635402985E+00 -0.40503105100E+01 -0.17630714329E+02  0.18100252167E+02  0.24999143132E+00 0.  0.
    1000022    2    1    0    0    0 -0.27882902961E+01 -0.15070459503E+01  0.61613345087E+02  0.62500000551E+02  0.10000001288E+02 0.  0.
    3000022    2    5    5    0    0 -0.38741092711E+01  0.25639724623E+01  0.47748901992E+02  0.47975022888E+02  0.25000451149E+00 0.  0.
        -13    1    4    4    0    0  0.41195224585E+00 -0.25705511778E+01 -0.11188249127E+02  0.11487618620E+02  0.10500000000E+00 0. -1.
         13    1    4    4    0    0  0.14440178400E+00 -0.14797593322E+01 -0.64424652013E+01  0.66126335470E+01  0.10500000000E+00 0.  1.
    3000001    1    5    5    0    0  0.10858189750E+01 -0.40710184126E+01  0.13864443096E+02  0.14524977663E+02  0.10000000000E+01 0.  1.
        -13    1    6    6    0    0 -0.22462165540E+01  0.14570277051E+01  0.28127932640E+02  0.28255265671E+02  0.10500000000E+00 0.  1.
         13    1    6    6    0    0 -0.16278927172E+01  0.11069447572E+01  0.19620969351E+02  0.19719757217E+02  0.10500000000E+00 0. -1.
</event>
<event>
11    0  0.3494755E-009  0.9118800E+02  0.7816531E-02  0.1126479E+00
         25   -1    0    0    0    0  0.00000000000E+00  0.00000000000E+00  0.99999998245E-14  0.12500000000E+03  0.12500000000E+03 0.  0.
    3000001    1    3    3    0    0  0.82066520402E+01 -0.17498107316E+02  0.68626231468E+01  0.20533594274E+02  0.10000000000E+01 0. -1.
    1000022    2    1    0    0    0  0.36393099568E+02 -0.45042425346E+02  0.21283143504E+02  0.62499999783E+02  0.99999999112E+01 0.  0.
    3000022    2    3    3    0    0  0.28186447528E+02 -0.27544318030E+02  0.14420520357E+02  0.41966405509E+02  0.25000797832E+00 0.  0.
    1000022    2    1    0    0    0 -0.36393099568E+02  0.45042425346E+02 -0.21283143504E+02  0.62500000217E+02  0.10000002624E+02 0.  0.
    3000022    2    5    5    0    0 -0.28949425346E+02  0.40831481782E+02 -0.16836850183E+02  0.52809290443E+02  0.25000125163E+00 0.  0.
        -13    1    4    4    0    0  0.21337065560E+02 -0.20856457298E+02  0.10894848715E+02  0.31764302782E+02  0.10500000000E+00 0. -1.
         13    1    4    4    0    0  0.68493819686E+01 -0.66878607323E+01  0.35256716422E+01  0.10202102727E+02  0.10500000000E+00 0.  1.
    3000001    1    5    5    0    0 -0.74436742225E+01  0.42109435637E+01 -0.44462933211E+01  0.96907097741E+01  0.10000000000E+01 0. -1.
        -13    1    6    6    0    0 -0.16562437873E+02  0.23472403748E+02 -0.96714305359E+01  0.30311972546E+02  0.10500000000E+00 0. -1.
         13    1    6    6    0    0 -0.12386987473E+02  0.17359078034E+02 -0.71654196466E+01  0.22497317897E+02  0.10500000000E+00 0.  1.
</event>
<event>
11    0  0.3494755E-009  0.9118800E+02  0.7816531E-02  0.1126479E+00
         25   -1    0    0    0    0  0.00000000000E+00  0.00000000000E+00  0.99999998245E-14  0.12500000000E+03  0.12500000000E+03 0.  0.
    3000001    1    3    3    0    0  0.52374238566E+01 -0.12761825742E+02  0.17634795045E+02  0.22411622012E+02  0.10000000000E+01 0. -1.
    1000022    2    1    0    0    0  0.10390466228E+02 -0.24828225170E+02  0.55514396564E+02  0.62500006263E+02  0.10000000175E+02 0.  0.
    3000022    2    3    3    0    0  0.51530423716E+01 -0.12066399428E+02  0.37879601519E+02  0.40088384251E+02  0.24999961896E+00 0.  0.
    1000022    2    1    0    0    0 -0.10390466228E+02  0.24828225170E+02 -0.55514396564E+02  0.62499993737E+02  0.99999218839E+01 0.  0.
    3000022    2    5    5    0    0 -0.10655797423E+02  0.23607270976E+02 -0.55040977142E+02  0.60831085190E+02  0.24999812661E+00 0.  0.
        -13    1    4    4    0    0  0.22565519636E+01 -0.54325438112E+01  0.16885017449E+02  0.17880699043E+02  0.10500000000E+00 0. -1.
         13    1    4    4    0    0  0.28964904079E+01 -0.66338556169E+01  0.20994584070E+02  0.22207685208E+02  0.10500000000E+00 0.  1.
    3000001    1    5    5    0    0  0.26533119454E+00  0.12209541942E+01 -0.47341942234E+00  0.16689085465E+01  0.10000000000E+01 0. -1.
        -13    1    6    6    0    0 -0.59587459262E+01  0.13055925583E+02 -0.30429119731E+02  0.33643813673E+02  0.10500000000E+00 0. -1.
         13    1    6    6    0    0 -0.46970514965E+01  0.10551345393E+02 -0.24611857410E+02  0.27187271517E+02  0.10500000000E+00 0.  1.
</event>
<event>
11    0  0.3494755E-009  0.9118800E+02  0.7816531E-02  0.1126479E+00
         25   -1    0    0    0    0  0.00000000000E+00  0.00000000000E+00  0.99999998245E-14  0.12500000000E+03  0.12500000000E+03 0.  0.
    3000001    1    3    3    0    0 -0.56048097587E+01 -0.40257087494E+01 -0.15150228899E+01  0.71355110345E+01  0.10000000000E+01 0. -1.
    1000022    2    1    0    0    0 -0.36135682340E+02 -0.34207291530E+02 -0.36473600680E+02  0.62500001292E+02  0.10000014153E+02 0.  0.
    3000022    2    3    3    0    0 -0.30530872581E+02 -0.30181582780E+02 -0.34958577790E+02  0.55364490258E+02  0.25000151099E+00 0.  0.
    1000022    2    1    0    0    0  0.36135682340E+02  0.34207291530E+02  0.36473600680E+02  0.62499998708E+02  0.99999979982E+01 0.  0.
    3000022    2    5    5    0    0  0.68249322797E+00 -0.59135317362E+00  0.13829802865E+01  0.16705162920E+01  0.24998925345E+00 0.  0.
        -13    1    4    4    0    0 -0.15658476636E+02 -0.15395209203E+02 -0.17840118620E+02  0.28292776716E+02  0.10500000000E+00 0. -1.
         13    1    4    4    0    0 -0.14872395945E+02 -0.14786373578E+02 -0.17118459170E+02  0.27071713542E+02  0.10500000000E+00 0.  1.
    3000001    1    5    5    0    0  0.35453189112E+02  0.34798644703E+02  0.35090620393E+02  0.60829482416E+02  0.10000000000E+01 0.  1.
        -13    1    6    6    0    0  0.18207186519E+00 -0.17093289480E+00  0.33296227531E+00  0.42925178555E+00  0.10500000000E+00 0.  1.
         13    1    6    6    0    0  0.50042136278E+00 -0.42042027882E+00  0.10500180112E+01  0.12412645064E+01  0.10500000000E+00 0. -1.
</event>
<event>
11    0  0.3494755E-009  0.9118800E+02  0.7816531E-02  0.1126479E+00
         25   -1    0    0    0    0  0.00000000000E+00  0.00000000000E+00  0.99999998245E-14  0.12500000000E+03  0.12500000000E+03 0.  0.
    3000001    1    3    3    0    0  0.11440599401E+02 -0.42147232737E+01  0.46927156999E+01  0.13102396253E+02  0.10000000000E+01 0. -1.
    1000022    2    1    0    0    0  0.45942357013E+02 -0.36595232157E+02  0.18876938850E+02  0.62500000645E+02  0.10000003785E+02 0.  0.
    3000022    2    3    3    0    0  0.34501757612E+02 -0.32380508884E+02  0.14184223150E+02  0.49397604392E+02  0.24999882759E+00 0.  0.
    1000022    2    1    0    0    0 -0.45942357013E+02  0.36595232157E+02 -0.18876938850E+02  0.62499999355E+02  0.99999957256E+01 0.  0.
    3000022    2    5    5    0    0 -0.26466502647E+02  0.22628766616E+02 -0.62025791913E+01  0.35370486721E+02  0.25000270817E+00 0.  0.
        -13    1    4    4    0    0  0.84675459564E+01 -0.79771825141E+01  0.34966144853E+01  0.12147926294E+02  0.10500000000E+00 0. -1.
         13    1    4    4    0    0  0.26034211656E+02 -0.24403326370E+02  0.10687608665E+02  0.37249678098E+02  0.10500000000E+00 0.  1.
    3000001    1    5    5    0    0 -0.19475854366E+02  0.13966465542E+02 -0.12674359659E+02  0.27129512634E+02  0.10000000000E+01 0.  1.
        -13    1    6    6    0    0 -0.18402388078E+02  0.15723488686E+02 -0.42642500062E+01  0.24577852561E+02  0.10500000000E+00 0.  1.
         13    1    6    6    0    0 -0.80641145695E+01  0.69052779296E+01 -0.19383291851E+01  0.10792634160E+02  0.10500000000E+00 0. -1.
</event>
<event>
11    0  0.3494755E-009  0.9118800E+02  0.7816531E-02  0.1126479E+00
         25   -1    0    0    0    0  0.00000000000E+00  0.00000000000E+00  0.99999998245E-14  0.12500000000E+03  0.12500000000E+03 0.  0.
    3000001    1    3    3    0    0  0.31586057551E+02 -0.44519187299E+02  0.29089866370E+02  0.61861598709E+02  0.10000000000E+01 0.  1.
    1000022    2    1    0    0    0  0.31416312175E+02 -0.44750467621E+02  0.28577282363E+02  0.62500000229E+02  0.99999969172E+01 0.  0.
    3000022    2    3    3    0    0 -0.16974537545E+00 -0.23128032194E+00 -0.51258400688E+00  0.63840152013E+00  0.25002011319E+00 0.  0.
    1000022    2    1    0    0    0 -0.31416312175E+02  0.44750467621E+02 -0.28577282363E+02  0.62499999771E+02  0.99999940570E+01 0.  0.
    3000022    2    5    5    0    0 -0.15990681695E+02  0.30708742703E+02 -0.19409272352E+02  0.39692708788E+02  0.24999659945E+00 0.  0.
        -13    1    4    4    0    0 -0.28413480962E-01 -0.14220168767E+00 -0.19692892944E+00  0.26614779565E+00  0.10500000000E+00 0.  1.
         13    1    4    4    0    0 -0.14133189448E+00 -0.89078634265E-01 -0.31565507743E+00  0.37225372448E+00  0.10500000000E+00 0. -1.
    3000001    1    5    5    0    0 -0.15425630480E+02  0.14041724918E+02 -0.91680100115E+01  0.22807290983E+02  0.10000000000E+01 0.  1.
        -13    1    6    6    0    0 -0.11647945919E+02  0.22397245217E+02 -0.14190804256E+02  0.28960338186E+02  0.10500000000E+00 0.  1.
         13    1    6    6    0    0 -0.43427357755E+01  0.83114974858E+01 -0.52184680959E+01  0.10732370602E+02  0.10500000000E+00 0. -1.
</event>
<event>
11    0  0.3494755E-009  0.9118800E+02  0.7816531E-02  0.1126479E+00
         25   -1    0    0    0    0  0.00000000000E+00  0.00000000000E+00  0.99999998245E-14  0.12500000000E+03  0.12500000000E+03 0.  0.
    3000001    1    3    3    0    0 -0.23784443134E+01 -0.43116978764E+02  0.11520121322E+02  0.44703960119E+02  0.10000000000E+01 0. -1.
    1000022    2    1    0    0    0 -0.44686229056E+01 -0.57600416019E+02  0.21644238868E+02  0.62500000770E+02  0.10000025194E+02 0.  0.
    3000022    2    3    3    0    0 -0.20901785922E+01 -0.14483437255E+02  0.10124117546E+02  0.17796040651E+02  0.25001099130E+00 0.  0.
    1000022    2    1    0    0    0  0.44686229056E+01  0.57600416019E+02 -0.21644238868E+02  0.62499999230E+02  0.10000015564E+02 0.  0.
    3000022    2    5    5    0    0  0.61853850113E+01  0.24399845657E+02 -0.67820735103E+01  0.26070490536E+02  0.24999979730E+00 0.  0.
        -13    1    4    4    0    0 -0.68027772939E+00 -0.44286702985E+01  0.30706845195E+01  0.54328654337E+01  0.10500000000E+00 0. -1.
         13    1    4    4    0    0 -0.14099008628E+01 -0.10054766957E+02  0.70534330268E+01  0.12363175218E+02  0.10500000000E+00 0.  1.
    3000001    1    5    5    0    0 -0.17167621057E+01  0.33200570362E+02 -0.14862165358E+02  0.36429508693E+02  0.10000000000E+01 0.  1.
        -13    1    6    6    0    0  0.32679864445E+01  0.12685337616E+02 -0.35758331461E+01  0.13579216970E+02  0.10500000000E+00 0.  1.
         13    1    6    6    0    0  0.29173985668E+01  0.11714508041E+02 -0.32062403642E+01  0.12491273567E+02  0.10500000000E+00 0. -1.
</event>
<event>
11    0  0.3494755E-009  0.9118800E+02  0.7816531E-02  0.1126479E+00
         25   -1    0    0    0    0  0.00000000000E+00  0.00000000000E+00  0.99999998245E-14  0.12500000000E+03  0.12500000000E+03 0.  0.
    3000001    1    3    3    0    0 -0.25187135768E+02 -0.52730689131E+02 -0.16696361257E+02  0.60783927676E+02  0.10000000000E+01 0.  1.
    1000022    2    1    0    0    0 -0.25472963464E+02 -0.53118719501E+02 -0.18324292639E+02  0.62500000806E+02  0.10000008551E+02 0.  0.
    3000022    2    3    3    0    0 -0.28582769648E+00 -0.38803036931E+00 -0.16279313822E+01  0.17160731306E+01  0.24996272704E+00 0.  0.
    1000022    2    1    0    0    0  0.25472963464E+02  0.53118719501E+02  0.18324292639E+02  0.62499999194E+02  0.99999984734E+01 0.  0.
    3000022    2    5    5    0    0  0.23713898869E+02  0.45674734738E+02  0.18751245862E+02  0.54774100771E+02  0.25000170924E+00 0.  0.
        -13    1    4    4    0    0 -0.14579909880E+00 -0.11011970606E+00 -0.73687125720E+00  0.76641240632E+00  0.10500000000E+00 0.  1.
         13    1    4    4    0    0 -0.14002859767E+00 -0.27791066325E+00 -0.89106012500E+00  0.94966072430E+00  0.10500000000E+00 0. -1.
    3000001    1    5    5    0    0  0.17590645947E+01  0.74439847623E+01 -0.42695322283E+00  0.77258984231E+01  0.10000000000E+01 0. -1.
        -13    1    6    6    0    0  0.11537916884E+02  0.22349056872E+02  0.91271025053E+01  0.26756660745E+02  0.10500000000E+00 0.  1.
         13    1    6    6    0    0  0.12175981986E+02  0.23325677866E+02  0.96241433570E+01  0.28017440026E+02  0.10500000000E+00 0. -1.
</event>
<event>
11    0  0.3494755E-009  0.9118800E+02  0.7816531E-02  0.1126479E+00
         25   -1    0    0    0    0  0.00000000000E+00  0.00000000000E+00  0.99999998245E-14  0.12500000000E+03  0.12500000000E+03 0.  0.
    3000001    1    3    3    0    0 -0.12625402767E+02  0.14301794829E+02  0.51563561205E+01  0.19787120528E+02  0.10000000000E+01 0.  1.
    1000022    2    1    0    0    0 -0.49213598246E+02  0.35604689323E+02  0.10797119373E+02  0.62499999976E+02  0.10000002807E+02 0.  0.
    3000022    2    3    3    0    0 -0.36588195479E+02  0.21302894494E+02  0.56407632524E+01  0.42712879448E+02  0.24999681580E+00 0.  0.
    1000022    2    1    0    0    0  0.49213598246E+02 -0.35604689323E+02 -0.10797119373E+02  0.62500000024E+02  0.10000003110E+02 0.  0.
    3000022    2    5    5    0    0  0.37329812575E+02 -0.31432853479E+02 -0.69580818467E+01  0.49295198424E+02  0.24999989044E+00 0.  0.
        -13    1    4    4    0    0 -0.21009174055E+02  0.12162846408E+02  0.32603091415E+01  0.24494098634E+02  0.10500000000E+00 0.  1.
         13    1    4    4    0    0 -0.15579021424E+02  0.91400480866E+01  0.23804541109E+01  0.18218780813E+02  0.10500000000E+00 0. -1.
    3000001    1    5    5    0    0  0.11883785671E+02 -0.41718358440E+01 -0.38390375262E+01  0.13204801600E+02  0.10000000000E+01 0. -1.
        -13    1    6    6    0    0  0.12804662979E+02 -0.10795609969E+02 -0.24429050762E+01  0.16925820477E+02  0.10500000000E+00 0. -1.
         13    1    6    6    0    0  0.24525149596E+02 -0.20637243510E+02 -0.45151767705E+01  0.32369377947E+02  0.10500000000E+00 0.  1.
</event>
<event>
11    0  0.3494755E-009  0.9118800E+02  0.7816531E-02  0.1126479E+00
         25   -1    0    0    0    0  0.00000000000E+00  0.00000000000E+00  0.99999998245E-14  0.12500000000E+03  0.12500000000E+03 0.  0.
    3000001    1    3    3    0    0  0.39247205206E+00 -0.58029421258E+02  0.15988275654E+02  0.60201268460E+02  0.10000000000E+01 0. -1.
    1000022    2    1    0    0    0 -0.59615790144E+00 -0.59839471760E+02  0.15004407307E+02  0.62500000128E+02  0.99999996292E+01 0.  0.
    3000022    2    3    3    0    0 -0.98862995350E+00 -0.18100505023E+01 -0.98386834711E+00  0.22987316677E+01  0.24999669948E+00 0.  0.
    1000022    2    1    0    0    0  0.59615790144E+00  0.59839471760E+02 -0.15004407307E+02  0.62499999872E+02  0.99999980273E+01 0.  0.
    3000022    2    5    5    0    0 -0.26361178733E+01  0.44682725957E+01 -0.14809410157E+01  0.54009504564E+01  0.25000421818E+00 0.  0.
        -13    1    4    4    0    0 -0.56458388066E+00 -0.95739833435E+00 -0.46707433332E+00  0.12101859203E+01  0.10500000000E+00 0. -1.
         13    1    4    4    0    0 -0.42404607284E+00 -0.85265216792E+00 -0.51679401379E+00  0.10885457473E+01  0.10500000000E+00 0.  1.
    3000001    1    5    5    0    0  0.32322757748E+01  0.55371199165E+02 -0.13523466292E+02  0.57099049415E+02  0.10000000000E+01 0. -1.
        -13    1    6    6    0    0 -0.13406790538E+01  0.23795156975E+01 -0.82098677255E+00  0.28538674742E+01  0.10500000000E+00 0.  1.
         13    1    6    6    0    0 -0.12954388196E+01  0.20887568982E+01 -0.65995424314E+00  0.25470829822E+01  0.10500000000E+00 0. -1.
</event>
<event>
11    0  0.3494755E-009  0.9118800E+02  0.7816531E-02  0.1126479E+00
         25   -1    0    0    0    0  0.00000000000E+00  0.00000000000E+00  0.99999998245E-14  0.12500000000E+03  0.12500000000E+03 0.  0.
    3000001    1    3    3    0    0 -0.61267572272E+00  0.35784739420E+01 -0.97542809413E+01  0.10455947780E+02  0.10000000000E+01 0.  1.
    1000022    2    1    0    0    0  0.17098174387E+02  0.25240192560E+02 -0.53636132756E+02  0.62500002984E+02  0.10000037405E+02 0.  0.
    3000022    2    3    3    0    0  0.17710850109E+02  0.21661718617E+02 -0.43881851815E+02  0.52044055204E+02  0.24999655053E+00 0.  0.
    1000022    2    1    0    0    0 -0.17098174387E+02 -0.25240192560E+02  0.53636132756E+02  0.62499997016E+02  0.10000000109E+02 0.  0.
    3000022    2    5    5    0    0 -0.11592751255E+02 -0.12636190111E+02  0.21301058535E+02  0.27347079833E+02  0.24999700913E+00 0.  0.
        -13    1    4    4    0    0  0.12235846544E+02  0.14893746591E+02 -0.30261893933E+02  0.35879421366E+02  0.10500000000E+00 0. -1.
         13    1    4    4    0    0  0.54750035654E+01  0.67679720261E+01 -0.13619957882E+02  0.16164633838E+02  0.10500000000E+00 0.  1.
    3000001    1    5    5    0    0 -0.55054231316E+01 -0.12604002449E+02  0.32335074221E+02  0.35152917183E+02  0.10000000000E+01 0. -1.
        -13    1    6    6    0    0 -0.44208513775E+01 -0.47294338709E+01  0.80480960112E+01  0.10329295525E+02  0.10500000000E+00 0.  1.
         13    1    6    6    0    0 -0.71718998776E+01 -0.79067562401E+01  0.13252962524E+02  0.17017784308E+02  0.10500000000E+00 0. -1.
</event>
<event>
11    0  0.3494755E-009  0.9118800E+02  0.7816531E-02  0.1126479E+00
         25   -1    0    0    0    0  0.00000000000E+00  0.00000000000E+00  0.99999998245E-14  0.12500000000E+03  0.12500000000E+03 0.  0.
    3000001    1    3    3    0    0 -0.21692443075E+02 -0.47642577794E+02  0.10367502803E+02  0.53374735782E+02  0.10000000000E+01 0. -1.
    1000022    2    1    0    0    0 -0.21849867737E+02 -0.56762997283E+02  0.10334195132E+02  0.62499999817E+02  0.99999903694E+01 0.  0.
    3000022    2    3    3    0    0 -0.15742466138E+00 -0.91204194890E+01 -0.33307671400E-01  0.91252640345E+01  0.25000023745E+00 0.  0.
    1000022    2    1    0    0    0  0.21849867737E+02  0.56762997283E+02 -0.10334195132E+02  0.62500000183E+02  0.99999926617E+01 0.  0.
    3000022    2    5    5    0    0  0.87190920160E+01  0.34527347043E+02 -0.83721543674E+01  0.36582997722E+02  0.24998832097E+00 0.  0.
        -13    1    4    4    0    0 -0.59211342872E-01 -0.23793027608E+01  0.17778526540E-01  0.23824207619E+01  0.10500000000E+00 0. -1.
         13    1    4    4    0    0 -0.98213318510E-01 -0.67411167282E+01 -0.51086197939E-01  0.67428432726E+01  0.10500000000E+00 0.  1.
    3000001    1    5    5    0    0  0.13130775721E+02  0.22235650240E+02 -0.19620407641E+01  0.25917002462E+02  0.10000000000E+01 0.  1.
        -13    1    6    6    0    0  0.24919518268E+01  0.97885558099E+01 -0.23378057218E+01  0.10368317575E+02  0.10500000000E+00 0.  1.
         13    1    6    6    0    0  0.62271401892E+01  0.24738791233E+02 -0.60343486456E+01  0.26214680146E+02  0.10500000000E+00 0. -1.
</event>
<event>
11    0  0.3494755E-009  0.9118800E+02  0.7816531E-02  0.1126479E+00
         25   -1    0    0    0    0  0.00000000000E+00  0.00000000000E+00  0.99999998245E-14  0.12500000000E+03  0.12500000000E+03 0.  0.
    3000001    1    3    3    0    0 -0.13232428353E+02  0.42217099479E+02  0.94899322448E+01  0.45259689157E+02  0.10000000000E+01 0.  1.
    1000022    2    1    0    0    0 -0.12369960523E+02  0.58628646137E+02  0.14694069009E+02  0.62499998205E+02  0.10000002018E+02 0.  0.
    3000022    2    3    3    0    0  0.86246782993E+00  0.16411546657E+02  0.52041367647E+01  0.17240309048E+02  0.25000430929E+00 0.  0.
    1000022    2    1    0    0    0  0.12369960523E+02 -0.58628646137E+02 -0.14694069009E+02  0.62500001795E+02  0.10000024459E+02 0.  0.
    3000022    2    5    5    0    0  0.54591658099E+01 -0.37025444969E+02 -0.47964201729E+01  0.37732667729E+02  0.25000195505E+00 0.  0.
        -13    1    4    4    0    0  0.37175313955E+00  0.60042343410E+01  0.19240360540E+01  0.63168006265E+01  0.10500000000E+00 0.  1.
         13    1    4    4    0    0  0.49071469039E+00  0.10407312316E+02  0.32801007107E+01  0.10923508421E+02  0.10500000000E+00 0. -1.
    3000001    1    5    5    0    0  0.69107947131E+01 -0.21603201168E+02 -0.98976488365E+01  0.24767334066E+02  0.10000000000E+01 0. -1.
        -13    1    6    6    0    0  0.37648232015E+01 -0.25517982375E+02 -0.32567529489E+01  0.25999207353E+02  0.10500000000E+00 0. -1.
         13    1    6    6    0    0  0.16943426084E+01 -0.11507462594E+02 -0.15396672240E+01  0.11733460376E+02  0.10500000000E+00 0.  1.
</event>
<event>
11    0  0.3494755E-009  0.9118800E+02  0.7816531E-02  0.1126479E+00
         25   -1    0    0    0    0  0.00000000000E+00  0.00000000000E+00  0.99999998245E-14  0.12500000000E+03  0.12500000000E+03 0.  0.
    3000001    1    3    3    0    0  0.29432845389E+01 -0.96305239602E+01 -0.55846959092E+02  0.56756433604E+02  0.10000000000E+01 0.  1.
    1000022    2    1    0    0    0  0.29533286633E+00 -0.96319472182E+01 -0.60937576929E+02  0.62499998272E+02  0.99999936694E+01 0.  0.
    3000022    2    3    3    0    0 -0.26479516726E+01 -0.14232580612E-02 -0.50906178365E+01  0.57435646682E+01  0.24999010771E+00 0.  0.
    1000022    2    1    0    0    0 -0.29533286633E+00  0.96319472182E+01  0.60937576929E+02  0.62500001728E+02  0.10000015265E+02 0.  0.
    3000022    2    5    5    0    0 -0.43465382516E+01  0.55260670105E+01  0.44465559720E+02  0.45018643992E+02  0.24998861081E+00 0.  0.
        -13    1    4    4    0    0 -0.63585247988E+00 -0.17024403418E-01 -0.12088007895E+01  0.13699717352E+01  0.10500000000E+00 0. -1.
         13    1    4    4    0    0 -0.20120991927E+01  0.15601145357E-01 -0.38818170470E+01  0.43735929330E+01  0.10500000000E+00 0.  1.
    3000001    1    5    5    0    0  0.40512053853E+01  0.41058802077E+01  0.16472017209E+02  0.17481357736E+02  0.10000000000E+01 0.  1.
        -13    1    6    6    0    0 -0.20277401028E+01  0.24944135509E+01  0.20603302060E+02  0.20852839367E+02  0.10500000000E+00 0. -1.
         13    1    6    6    0    0 -0.23187981488E+01  0.30316534596E+01  0.23862257659E+02  0.24165804625E+02  0.10500000000E+00 0.  1.
</event>
<event>
11    0  0.3494755E-009  0.9118800E+02  0.7816531E-02  0.1126479E+00
         25   -1    0    0    0    0  0.00000000000E+00  0.00000000000E+00  0.99999998245E-14  0.12500000000E+03  0.12500000000E+03 0.  0.
    3000001    1    3    3    0    0 -0.32000747382E+02 -0.42633325277E+02  0.15817442090E+02  0.55613305345E+02  0.10000000000E+01 0.  1.
    1000022    2    1    0    0    0 -0.36942436086E+02 -0.45261354886E+02  0.19822097464E+02  0.62500002281E+02  0.10000045355E+02 0.  0.
    3000022    2    3    3    0    0 -0.49416887047E+01 -0.26280296091E+01  0.40046553740E+01  0.68866969355E+01  0.25000627248E+00 0.  0.
    1000022    2    1    0    0    0  0.36942436086E+02  0.45261354886E+02 -0.19822097464E+02  0.62499997719E+02  0.10000016843E+02 0.  0.
    3000022    2    5    5    0    0  0.79828215705E+00  0.67819324425E+00  0.96847920354E+00  0.14483290814E+01  0.25000936304E+00 0.  0.
        -13    1    4    4    0    0 -0.30710599571E+01 -0.16012087138E+01  0.25434797339E+01  0.42983244133E+01  0.10500000000E+00 0.  1.
         13    1    4    4    0    0 -0.18706287476E+01 -0.10268208953E+01  0.14611756401E+01  0.25883725222E+01  0.10500000000E+00 0. -1.
    3000001    1    5    5    0    0  0.36144153929E+02  0.44583161642E+02 -0.20790576667E+02  0.61051668638E+02  0.10000000000E+01 0.  1.
        -13    1    6    6    0    0  0.49245035544E+00  0.34958657711E+00  0.60492832210E+00  0.86120926745E+00  0.10500000000E+00 0. -1.
         13    1    6    6    0    0  0.30583180161E+00  0.32860666715E+00  0.36355088144E+00  0.58711981398E+00  0.10500000000E+00 0.  1.
</event>
<event>
11    0  0.3494755E-009  0.9118800E+02  0.7816531E-02  0.1126479E+00
         25   -1    0    0    0    0  0.00000000000E+00  0.00000000000E+00  0.99999998245E-14  0.12500000000E+03  0.12500000000E+03 0.  0.
    3000001    1    3    3    0    0 -0.21813479514E+02 -0.12295468303E+02  0.28815717658E+02  0.38188375371E+02  0.10000000000E+01 0.  1.
    1000022    2    1    0    0    0 -0.31080537039E+02 -0.26475237529E+02  0.46252699072E+02  0.62499998792E+02  0.99999846356E+01 0.  0.
    3000022    2    3    3    0    0 -0.92670575254E+01 -0.14179769226E+02  0.17436981414E+02  0.24311623421E+02  0.25000417330E+00 0.  0.
    1000022    2    1    0    0    0  0.31080537039E+02  0.26475237529E+02 -0.46252699072E+02  0.62500001208E+02  0.99999997328E+01 0.  0.
    3000022    2    5    5    0    0  0.23475916886E+02  0.14073046488E+02 -0.28307704215E+02  0.39377124424E+02  0.24999790752E+00 0.  0.
        -13    1    4    4    0    0 -0.48852858251E+01 -0.74826242587E+01  0.91019211224E+01  0.12755848718E+02  0.10500000000E+00 0.  1.
         13    1    4    4    0    0 -0.43817717003E+01 -0.66971449673E+01  0.83350602911E+01  0.11555774704E+02  0.10500000000E+00 0. -1.
    3000001    1    5    5    0    0  0.76046201532E+01  0.12402191042E+02 -0.17944994857E+02  0.23122876783E+02  0.10000000000E+01 0.  1.
        -13    1    6    6    0    0  0.13266845540E+02  0.79822910602E+01 -0.15925296445E+02  0.22211534234E+02  0.10500000000E+00 0. -1.
         13    1    6    6    0    0  0.10209071345E+02  0.60907554273E+01 -0.12382407769E+02  0.17165590190E+02  0.10500000000E+00 0.  1.
</event>
<event>
11    0  0.3494755E-009  0.9118800E+02  0.7816531E-02  0.1126479E+00
         25   -1    0    0    0    0  0.00000000000E+00  0.00000000000E+00  0.99999998245E-14  0.12500000000E+03  0.12500000000E+03 0.  0.
    3000001    1    3    3    0    0 -0.51236343465E+00 -0.36651621859E+01 -0.56641236221E+00  0.38751455588E+01  0.10000000000E+01 0.  1.
    1000022    2    1    0    0    0  0.17629066118E+01 -0.46253863957E+02 -0.40788752260E+02  0.62499999638E+02  0.99999936572E+01 0.  0.
    3000022    2    3    3    0    0  0.22752700465E+01 -0.42588701771E+02 -0.40222339898E+02  0.58624854079E+02  0.25003322428E+00 0.  0.
    1000022    2    1    0    0    0 -0.17629066118E+01  0.46253863957E+02  0.40788752260E+02  0.62500000362E+02  0.99999981816E+01 0.  0.
    3000022    2    5    5    0    0 -0.51922278855E+01  0.34780725992E+02  0.28007538003E+02  0.44957122119E+02  0.25002655782E+00 0.  0.
        -13    1    4    4    0    0  0.16495155052E+01 -0.31192033856E+02 -0.29499960410E+02  0.42964200990E+02  0.10500000000E+00 0.  1.
         13    1    4    4    0    0  0.62575454124E+00 -0.11396667915E+02 -0.10722379488E+02  0.15660653090E+02  0.10500000000E+00 0. -1.
    3000001    1    5    5    0    0  0.34293212737E+01  0.11473137965E+02  0.12781214258E+02  0.17542878243E+02  0.10000000000E+01 0.  1.
        -13    1    6    6    0    0 -0.35825719013E+01  0.24309377036E+02  0.19563329383E+02  0.31408844533E+02  0.10500000000E+00 0.  1.
         13    1    6    6    0    0 -0.16096559842E+01  0.10471348956E+02  0.84442086194E+01  0.13548277586E+02  0.10500000000E+00 0. -1.
</event>
<event>
11    0  0.3494755E-009  0.9118800E+02  0.7816531E-02  0.1126479E+00
         25   -1    0    0    0    0  0.00000000000E+00  0.00000000000E+00  0.99999998245E-14  0.12500000000E+03  0.12500000000E+03 0.  0.
    3000001    1    3    3    0    0 -0.74170977081E+01 -0.11501964481E+02 -0.12411901633E+02  0.18503076162E+02  0.10000000000E+01 0. -1.
    1000022    2    1    0    0    0 -0.12526597084E+02 -0.34765928789E+02 -0.49403084697E+02  0.62499998148E+02  0.99999775908E+01 0.  0.
    3000022    2    3    3    0    0 -0.51094993762E+01 -0.23263964308E+02 -0.36991183064E+02  0.43996921985E+02  0.25000098152E+00 0.  0.
    1000022    2    1    0    0    0  0.12526597084E+02  0.34765928789E+02  0.49403084697E+02  0.62500001852E+02  0.10000000745E+02 0.  0.
    3000022    2    5    5    0    0  0.74421640065E+01  0.30979796912E+02  0.41418412307E+02  0.52255918317E+02  0.24999853331E+00 0.  0.
        -13    1    4    4    0    0 -0.31375315160E+01 -0.14287358180E+02 -0.22830851375E+02  0.27115152725E+02  0.10500000000E+00 0.  1.
         13    1    4    4    0    0 -0.19719678602E+01 -0.89766061275E+01 -0.14160331689E+02  0.16881769261E+02  0.10500000000E+00 0. -1.
    3000001    1    5    5    0    0  0.50844330778E+01  0.37861318769E+01  0.79846723900E+01  0.10244083536E+02  0.10000000000E+01 0.  1.
        -13    1    6    6    0    0  0.20893648389E+01  0.88661644712E+01  0.11819693637E+02  0.14922818116E+02  0.10500000000E+00 0. -1.
         13    1    6    6    0    0  0.53527991675E+01  0.22113632441E+02  0.29598718670E+02  0.37333100200E+02  0.10500000000E+00 0.  1.
</event>
<event>
11    0  0.3494755E-009  0.9118800E+02  0.7816531E-02  0.1126479E+00
         25   -1    0    0    0    0  0.00000000000E+00  0.00000000000E+00  0.99999998245E-14  0.12500000000E+03  0.12500000000E+03 0.  0.
    3000001    1    3    3    0    0  0.48023441008E+02  0.10477757376E+02 -0.56061428611E+01  0.49481947452E+02  0.10000000000E+01 0. -1.
    1000022    2    1    0    0    0  0.58497916596E+02  0.17481876750E+02 -0.88672981130E+01  0.62500010689E+02  0.10000004973E+02 0.  0.
    3000022    2    3    3    0    0  0.10474475588E+02  0.70041193745E+01 -0.32611552519E+01  0.13018063237E+02  0.25001958717E+00 0.  0.
    1000022    2    1    0    0    0 -0.58497916596E+02 -0.17481876750E+02  0.88672981130E+01  0.62499989311E+02  0.99998713622E+01 0.  0.
    3000022    2    5    5    0    0 -0.43301754653E+02 -0.12042780537E+02  0.21742561011E+01  0.44998448899E+02  0.24998929742E+00 0.  0.
        -13    1    4    4    0    0  0.36912621583E+01  0.24959277768E+01 -0.12074405592E+01  0.46177927078E+01  0.10500000000E+00 0. -1.
         13    1    4    4    0    0  0.67832134300E+01  0.45081915977E+01 -0.20537146928E+01  0.84002705288E+01  0.10500000000E+00 0.  1.
    3000001    1    5    5    0    0 -0.15196161944E+02 -0.54390962128E+01  0.66930420119E+01  0.17501540412E+02  0.10000000000E+01 0.  1.
        -13    1    6    6    0    0 -0.18913902411E+02 -0.52006905892E+01  0.91635475156E+00  0.19637556316E+02  0.10500000000E+00 0. -1.
         13    1    6    6    0    0 -0.24387852242E+02 -0.68420899482E+01  0.12579013496E+01  0.25360892583E+02  0.10500000000E+00 0.  1.
</event>
<event>
11    0  0.3494755E-009  0.9118800E+02  0.7816531E-02  0.1126479E+00
         25   -1    0    0    0    0  0.00000000000E+00  0.00000000000E+00  0.99999998245E-14  0.12500000000E+03  0.12500000000E+03 0.  0.
    3000001    1    3    3    0    0 -0.12337718810E+02  0.41295216595E+02 -0.21688537080E+02  0.48258749049E+02  0.10000000000E+01 0.  1.
    1000022    2    1    0    0    0 -0.17828966339E+02  0.54356459605E+02 -0.23103086090E+02  0.62500003103E+02  0.10000052977E+02 0.  0.
    3000022    2    3    3    0    0 -0.54912475290E+01  0.13061243010E+02 -0.14145490103E+01  0.14241254055E+02  0.24999952842E+00 0.  0.
    1000022    2    1    0    0    0  0.17828966339E+02 -0.54356459605E+02  0.23103086090E+02  0.62499996897E+02  0.10000014184E+02 0.  0.
    3000022    2    5    5    0    0  0.16483593593E+02 -0.39932431328E+02  0.14240720118E+02  0.45488114279E+02  0.25000340282E+00 0.  0.
        -13    1    4    4    0    0 -0.33723596591E+01  0.81764268825E+01 -0.88780379774E+00  0.88896561699E+01  0.10500000000E+00 0. -1.
         13    1    4    4    0    0 -0.21188878699E+01  0.48848161271E+01 -0.52674521255E+00  0.53515978847E+01  0.10500000000E+00 0.  1.
    3000001    1    5    5    0    0  0.13453727464E+01 -0.14424028277E+02  0.88623659729E+01  0.17011882618E+02  0.10000000000E+01 0.  1.
        -13    1    6    6    0    0  0.75276710939E+01 -0.18409691280E+02  0.65447189114E+01  0.20938646942E+02  0.10500000000E+00 0.  1.
         13    1    6    6    0    0  0.89559224990E+01 -0.21522740047E+02  0.76960012062E+01  0.24549467337E+02  0.10500000000E+00 0. -1.
</event>
<event>
11    0  0.3494755E-009  0.9118800E+02  0.7816531E-02  0.1126479E+00
         25   -1    0    0    0    0  0.00000000000E+00  0.00000000000E+00  0.99999998245E-14  0.12500000000E+03  0.12500000000E+03 0.  0.
    3000001    1    3    3    0    0  0.22723449504E+02  0.61199032623E+01 -0.11427304506E+02  0.26179985897E+02  0.10000000000E+01 0.  1.
    1000022    2    1    0    0    0  0.58199486192E+02  0.73346874066E+01 -0.19112098689E+02  0.62500000188E+02  0.99999937411E+01 0.  0.
    3000022    2    3    3    0    0  0.35476036689E+02  0.12147841444E+01 -0.76847941830E+01  0.36320014291E+02  0.24999367554E+00 0.  0.
    1000022    2    1    0    0    0 -0.58199486192E+02 -0.73346874066E+01  0.19112098689E+02  0.62499999812E+02  0.99999913883E+01 0.  0.
    3000022    2    5    5    0    0 -0.30411308720E+01  0.97798064236E-01 -0.11482784850E+01  0.32617614420E+01  0.25000556671E+00 0.  0.
        -13    1    4    4    0    0  0.25925145634E+02  0.87681337008E+00 -0.56504443366E+01  0.26548456152E+02  0.10500000000E+00 0. -1.
         13    1    4    4    0    0  0.95508910546E+01  0.33797077428E+00 -0.20343498464E+01  0.97715581398E+01  0.10500000000E+00 0.  1.
    3000001    1    5    5    0    0 -0.55158355320E+02 -0.74324854709E+01  0.20260377174E+02  0.59238238370E+02  0.10000000000E+01 0.  1.
        -13    1    6    6    0    0 -0.14177431643E+01 -0.20312661707E-01 -0.52014116396E+00  0.15139287019E+01  0.10500000000E+00 0. -1.
         13    1    6    6    0    0 -0.16233877077E+01  0.11811072594E+00 -0.62813732105E+00  0.17478327400E+01  0.10500000000E+00 0.  1.
</event>
<event>
11    0  0.3494755E-009  0.9118800E+02  0.7816531E-02  0.1126479E+00
         25   -1    0    0    0    0  0.00000000000E+00  0.00000000000E+00  0.99999998245E-14  0.12500000000E+03  0.12500000000E+03 0.  0.
    3000001    1    3    3    0    0 -0.52015048384E+02  0.12478491793E+01  0.45054894068E+01  0.52234297360E+02  0.10000000000E+01 0.  1.
    1000022    2    1    0    0    0 -0.61543514668E+02  0.39275433782E+01  0.17944514918E+01  0.62500000559E+02  0.10000010948E+02 0.  0.
    3000022    2    3    3    0    0 -0.95284662847E+01  0.26796941989E+01 -0.27110379150E+01  0.10265703198E+02  0.25000968405E+00 0.  0.
    1000022    2    1    0    0    0  0.61543514668E+02 -0.39275433782E+01 -0.17944514918E+01  0.62499999441E+02  0.10000003965E+02 0.  0.
    3000022    2    5    5    0    0  0.60095425076E+02 -0.24404392535E+01 -0.13951961109E+01  0.60161656651E+02  0.25000001879E+00 0.  0.
        -13    1    4    4    0    0 -0.39219007525E+01  0.10384442410E+01 -0.10952881451E+01  0.42036119083E+01  0.10500000000E+00 0. -1.
         13    1    4    4    0    0 -0.56065655322E+01  0.16412499579E+01 -0.16157497699E+01  0.60620912902E+01  0.10500000000E+00 0.  1.
    3000001    1    5    5    0    0  0.14480895920E+01 -0.14871041247E+01 -0.39925538085E+00  0.23383427899E+01  0.10000000000E+01 0.  1.
        -13    1    6    6    0    0  0.25702818445E+02 -0.10219589870E+01 -0.65835094105E+00  0.25731764945E+02  0.10500000000E+00 0.  1.
         13    1    6    6    0    0  0.34392606631E+02 -0.14184802665E+01 -0.73684516987E+00  0.34429891707E+02  0.10500000000E+00 0. -1.
</event>
<event>
11    0  0.3494755E-009  0.9118800E+02  0.7816531E-02  0.1126479E+00
         25   -1    0    0    0    0  0.00000000000E+00  0.00000000000E+00  0.99999998245E-14  0.12500000000E+03  0.12500000000E+03 0.  0.
    3000001    1    3    3    0    0  0.11221210759E+02  0.97681071278E+01  0.53138258795E+02  0.55190633585E+02  0.10000000000E+01 0.  1.
    1000022    2    1    0    0    0  0.14826419365E+02  0.82710942037E+01  0.59312865941E+02  0.62500000303E+02  0.10000013059E+02 0.  0.
    3000022    2    3    3    0    0  0.36052086069E+01 -0.14970129240E+01  0.61746071457E+01  0.73093667174E+01  0.24998322432E+00 0.  0.
    1000022    2    1    0    0    0 -0.14826419365E+02 -0.82710942037E+01 -0.59312865941E+02  0.62499999697E+02  0.10000009276E+02 0.  0.
    3000022    2    5    5    0    0 -0.46429570959E+00  0.16545480142E+01 -0.10648635083E+02  0.10789301246E+02  0.24998521654E+00 0.  0.
        -13    1    4    4    0    0  0.10349152879E+01 -0.43463935146E+00  0.18593969190E+01  0.21744753209E+01  0.10500000000E+00 0. -1.
         13    1    4    4    0    0  0.25702933190E+01 -0.10623735725E+01  0.43152102267E+01  0.51348913965E+01  0.10500000000E+00 0.  1.
    3000001    1    5    5    0    0 -0.14362123656E+02 -0.99256422179E+01 -0.48664230858E+02  0.51710698451E+02  0.10000000000E+01 0. -1.
        -13    1    6    6    0    0 -0.19476029919E+00  0.74763261993E+00 -0.52019184099E+01  0.52600253091E+01  0.10500000000E+00 0.  1.
         13    1    6    6    0    0 -0.26953541040E+00  0.90691539425E+00 -0.54467166733E+01  0.55292759371E+01  0.10500000000E+00 0. -1.
</event>
<event>
11    0  0.3494755E-009  0.9118800E+02  0.7816531E-02  0.1126479E+00
         25   -1    0    0    0    0  0.00000000000E+00  0.00000000000E+00  0.99999998245E-14  0.12500000000E+03  0.12500000000E+03 0.  0.
    3000001    1    3    3    0    0  0.13560799077E+02 -0.36524514301E+02  0.39649605310E+02  0.55597001878E+02  0.10000000000E+01 0. -1.
    1000022    2    1    0    0    0  0.16520086847E+02 -0.38009141619E+02  0.45701662526E+02  0.62500001182E+02  0.10000003707E+02 0.  0.
    3000022    2    3    3    0    0  0.29592877704E+01 -0.14846273179E+01  0.60520572151E+01  0.69029993045E+01  0.25000096386E+00 0.  0.
    1000022    2    1    0    0    0 -0.16520086847E+02  0.38009141619E+02 -0.45701662526E+02  0.62499998818E+02  0.99999889281E+01 0.  0.
    3000022    2    5    5    0    0 -0.55818339245E+01  0.24775717157E+02 -0.28528614794E+02  0.38196038885E+02  0.24998775889E+00 0.  0.
        -13    1    4    4    0    0  0.16194473762E+01 -0.84122896878E+00  0.32060202508E+01  0.36905103754E+01  0.10500000000E+00 0. -1.
         13    1    4    4    0    0  0.13398403943E+01 -0.64339834911E+00  0.28460369643E+01  0.32124889291E+01  0.10500000000E+00 0.  1.
    3000001    1    5    5    0    0 -0.10938252923E+02  0.13233424462E+02 -0.17173047732E+02  0.24303959933E+02  0.10000000000E+01 0. -1.
        -13    1    6    6    0    0 -0.31220916566E+01  0.14080174414E+02 -0.16266348958E+02  0.21739454944E+02  0.10500000000E+00 0. -1.
         13    1    6    6    0    0 -0.24597422679E+01  0.10695542743E+02 -0.12262265836E+02  0.16456583941E+02  0.10500000000E+00 0.  1.
</event>
<event>
11    0  0.3494755E-009  0.9118800E+02  0.7816531E-02  0.1126479E+00
         25   -1    0    0    0    0  0.00000000000E+00  0.00000000000E+00  0.99999998245E-14  0.12500000000E+03  0.12500000000E+03 0.  0.
    3000001    1    3    3    0    0 -0.36812380599E+02 -0.42375573041E+02  0.61485466700E+01  0.56476943810E+02  0.10000000000E+01 0. -1.
    1000022    2    1    0    0    0 -0.38379130570E+02 -0.47468735421E+02  0.89449155499E+01  0.62499997580E+02  0.99999838788E+01 0.  0.
    3000022    2    3    3    0    0 -0.15667499708E+01 -0.50931623802E+01  0.27963688799E+01  0.60230537708E+01  0.24997862249E+00 0.  0.
    1000022    2    1    0    0    0  0.38379130570E+02  0.47468735421E+02 -0.89449155499E+01  0.62500002420E+02  0.10000014123E+02 0.  0.
    3000022    2    5    5    0    0  0.12815873654E+01  0.53247689058E+01  0.68668136112E+00  0.55253652156E+01  0.24999879868E+00 0.  0.
        -13    1    4    4    0    0 -0.94380357880E+00 -0.28924095476E+01  0.15505802014E+01  0.34164487625E+01  0.10500000000E+00 0.  1.
         13    1    4    4    0    0 -0.62294639200E+00 -0.22007528327E+01  0.12457886785E+01  0.26066050083E+01  0.10500000000E+00 0. -1.
    3000001    1    5    5    0    0  0.37097543205E+02  0.42143966515E+02 -0.96315969110E+01  0.56974637204E+02  0.10000000000E+01 0.  1.
        -13    1    6    6    0    0  0.64436910607E+00  0.25721467398E+01  0.26889315658E+00  0.26672980572E+01  0.10500000000E+00 0.  1.
         13    1    6    6    0    0  0.63721825929E+00  0.27526221659E+01  0.41778820454E+00  0.28580671584E+01  0.10500000000E+00 0. -1.
</event>
<event>
11    0  0.3494755E-009  0.9118800E+02  0.7816531E-02  0.1126479E+00
         25   -1    0    0    0    0  0.00000000000E+00  0.00000000000E+00  0.99999998245E-14  0.12500000000E+03  0.12500000000E+03 0.  0.
    3000001    1    3    3    0    0 -0.17681315623E+02 -0.80468218079E+01  0.10861802778E+01  0.19482300967E+02  0.10000000000E+01 0.  1.
    1000022    2    1    0    0    0 -0.53142320210E+02 -0.29648692069E+02 -0.10153760785E+02  0.62499999873E+02  0.99999993679E+01 0.  0.
    3000022    2    3    3    0    0 -0.35461004588E+02 -0.21601870261E+02 -0.11239941063E+02  0.43017698907E+02  0.24999800088E+00 0.  0.
    1000022    2    1    0    0    0  0.53142320210E+02  0.29648692069E+02  0.10153760785E+02  0.62500000127E+02  0.10000000950E+02 0.  0.
    3000022    2    5    5    0    0  0.30945612000E+02  0.19844057925E+02  0.17617941183E+01  0.36804673496E+02  0.25007141156E+00 0.  0.
        -13    1    4    4    0    0 -0.25452130977E+02 -0.15465189558E+02 -0.80384324102E+01  0.30848184387E+02  0.10500000000E+00 0.  1.
         13    1    4    4    0    0 -0.10008873611E+02 -0.61366807029E+01 -0.32015086525E+01  0.12169514520E+02  0.10500000000E+00 0. -1.
    3000001    1    5    5    0    0  0.22196708211E+02  0.98046341441E+01  0.83919666666E+01  0.25695326630E+02  0.10000000000E+01 0. -1.
        -13    1    6    6    0    0  0.14956029756E+02  0.95724231033E+01  0.91707939444E+00  0.17781062110E+02  0.10500000000E+00 0.  1.
         13    1    6    6    0    0  0.15989582244E+02  0.10271634822E+02  0.84471472382E+00  0.19023611387E+02  0.10500000000E+00 0. -1.
</event>
<event>
11    0  0.3494755E-009  0.9118800E+02  0.7816531E-02  0.1126479E+00
         25   -1    0    0    0    0  0.00000000000E+00  0.00000000000E+00  0.99999998245E-14  0.12500000000E+03  0.12500000000E+03 0.  0.
    3000001    1    3    3    0    0 -0.49816549082E+02 -0.11554498103E+02  0.29898335520E+02  0.59246142961E+02  0.10000000000E+01 0. -1.
    1000022    2    1    0    0    0 -0.50875594351E+02 -0.11460248216E+02  0.32963406854E+02  0.62500004578E+02  0.10000049556E+02 0.  0.
    3000022    2    3    3    0    0 -0.10590452695E+01  0.94249887118E-01  0.30650713336E+01  0.32538616178E+01  0.24998644662E+00 0.  0.
    1000022    2    1    0    0    0  0.50875594351E+02  0.11460248216E+02 -0.32963406854E+02  0.62499995422E+02  0.99999923267E+01 0.  0.
    3000022    2    5    5    0    0  0.50739468960E+02  0.10787545241E+02 -0.32413259642E+02  0.61168184111E+02  0.25000814337E+00 0.  0.
        -13    1    4    4    0    0 -0.77828864734E+00  0.88891220008E-01  0.21300295615E+01  0.22719343742E+01  0.10500000000E+00 0.  1.
         13    1    4    4    0    0 -0.28075662211E+00  0.53586671101E-02  0.93504177205E+00  0.98192724356E+00  0.10500000000E+00 0. -1.
    3000001    1    5    5    0    0  0.13612539130E+00  0.67270297444E+00 -0.55014721148E+00  0.13318113111E+01  0.10000000000E+01 0. -1.
        -13    1    6    6    0    0  0.29004940192E+02  0.61906184066E+01 -0.18603933617E+02  0.35010393926E+02  0.10500000000E+00 0.  1.
         13    1    6    6    0    0  0.21734528768E+02  0.45969268347E+01 -0.13809326025E+02  0.26157790185E+02  0.10500000000E+00 0. -1.
</event>
<event>
11    0  0.3494755E-009  0.9118800E+02  0.7816531E-02  0.1126479E+00
         25   -1    0    0    0    0  0.00000000000E+00  0.00000000000E+00  0.99999998245E-14  0.12500000000E+03  0.12500000000E+03 0.  0.
    3000001    1    3    3    0    0 -0.11977101689E+02 -0.12853535268E+01 -0.39801183631E+02  0.41596121417E+02  0.10000000000E+01 0.  1.
    1000022    2    1    0    0    0 -0.16631037271E+02  0.49378199680E+01 -0.59205375566E+02  0.62500000847E+02  0.10000007161E+02 0.  0.
    3000022    2    3    3    0    0 -0.46539355821E+01  0.62231734947E+01 -0.19404191936E+02  0.20903879430E+02  0.25001160380E+00 0.  0.
    1000022    2    1    0    0    0  0.16631037271E+02 -0.49378199680E+01  0.59205375566E+02  0.62499999153E+02  0.99999965725E+01 0.  0.
    3000022    2    5    5    0    0  0.12781221458E+02 -0.32702585720E+01  0.27492159984E+02  0.30494845109E+02  0.25000912595E+00 0.  0.
        -13    1    4    4    0    0 -0.18993095992E+01  0.26032099668E+01 -0.79079313455E+01  0.85399345577E+01  0.10500000000E+00 0.  1.
         13    1    4    4    0    0 -0.27546259829E+01  0.36199635280E+01 -0.11496260590E+02  0.12363944872E+02  0.10500000000E+00 0. -1.
    3000001    1    5    5    0    0  0.38498158128E+01 -0.16675613960E+01  0.31713215582E+02  0.32005154044E+02  0.10000000000E+01 0.  1.
        -13    1    6    6    0    0  0.35710443080E+01 -0.87338529821E+00  0.76539958475E+01  0.84917511011E+01  0.10500000000E+00 0.  1.
         13    1    6    6    0    0  0.92101771499E+01 -0.23968732738E+01  0.19838164136E+02  0.22003094008E+02  0.10500000000E+00 0. -1.
</event>
<event>
11    0  0.3494755E-009  0.9118800E+02  0.7816531E-02  0.1126479E+00
         25   -1    0    0    0    0  0.00000000000E+00  0.00000000000E+00  0.99999998245E-14  0.12500000000E+03  0.12500000000E+03 0.  0.
    3000001    1    3    3    0    0  0.31308266254E+01 -0.21087925384E+02  0.14082186495E+01  0.21388916572E+02  0.10000000000E+01 0. -1.
    1000022    2    1    0    0    0  0.91551786518E+01 -0.58477554571E+02  0.17401392710E+02  0.62500000925E+02  0.99999981329E+01 0.  0.
    3000022    2    3    3    0    0  0.60243520263E+01 -0.37389629187E+02  0.15993174060E+02  0.41111084353E+02  0.24990417270E+00 0.  0.
    1000022    2    1    0    0    0 -0.91551786518E+01  0.58477554571E+02 -0.17401392710E+02  0.62499999075E+02  0.99999865743E+01 0.  0.
    3000022    2    5    5    0    0 -0.76693332460E+01  0.24914929960E+02 -0.10949838846E+02  0.28276030069E+02  0.24999667773E+00 0.  0.
        -13    1    4    4    0    0  0.43047149998E+01 -0.26525472046E+02  0.11380927686E+02  0.29183347622E+02  0.10500000000E+00 0.  1.
         13    1    4    4    0    0  0.17196370265E+01 -0.10864157141E+02  0.46122463745E+01  0.11927736731E+02  0.10500000000E+00 0. -1.
    3000001    1    5    5    0    0 -0.14858454058E+01  0.33562624610E+02 -0.64515538635E+01  0.34223969006E+02  0.10000000000E+01 0. -1.
        -13    1    6    6    0    0 -0.29764871318E+01  0.97284835826E+01 -0.42088393292E+01  0.11010368839E+02  0.10500000000E+00 0.  1.
         13    1    6    6    0    0 -0.46928461142E+01  0.15186446378E+02 -0.67409995169E+01  0.17265661230E+02  0.10500000000E+00 0. -1.
</event>
<event>
11    0  0.3494755E-009  0.9118800E+02  0.7816531E-02  0.1126479E+00
         25   -1    0    0    0    0  0.00000000000E+00  0.00000000000E+00  0.99999998245E-14  0.12500000000E+03  0.12500000000E+03 0.  0.
    3000001    1    3    3    0    0  0.18535571041E+02  0.21866366444E+02  0.39151892287E+02  0.48534277011E+02  0.10000000000E+01 0. -1.
    1000022    2    1    0    0    0  0.19278006297E+02  0.30792508416E+02  0.49864114721E+02  0.62500000132E+02  0.99999989142E+01 0.  0.
    3000022    2    3    3    0    0  0.74243525641E+00  0.89261419720E+01  0.10712222433E+02  0.13965723121E+02  0.24998445303E+00 0.  0.
    1000022    2    1    0    0    0 -0.19278006297E+02 -0.30792508416E+02 -0.49864114721E+02  0.62499999868E+02  0.99999972615E+01 0.  0.
    3000022    2    5    5    0    0 -0.17434538131E+00  0.92947726391E-01 -0.38950112707E+01  0.39080231685E+01  0.24999338962E+00 0.  0.
        -13    1    4    4    0    0  0.33069259103E+00  0.47788507866E+01  0.57431433393E+01  0.74794045783E+01  0.10500000000E+00 0. -1.
         13    1    4    4    0    0  0.41174266538E+00  0.41472911854E+01  0.49690790941E+01  0.64863185431E+01  0.10500000000E+00 0.  1.
    3000001    1    5    5    0    0 -0.19103660916E+02 -0.30885456143E+02 -0.45969103450E+02  0.58591976699E+02  0.10000000000E+01 0. -1.
        -13    1    6    6    0    0 -0.15496461159E+00  0.20340441995E-01 -0.24763086472E+01  0.24834567201E+01  0.10500000000E+00 0. -1.
         13    1    6    6    0    0 -0.19380769717E-01  0.72607284396E-01 -0.14187026235E+01  0.14245664484E+01  0.10500000000E+00 0.  1.
</event>
<event>
11    0  0.3494755E-009  0.9118800E+02  0.7816531E-02  0.1126479E+00
         25   -1    0    0    0    0  0.00000000000E+00  0.00000000000E+00  0.99999998245E-14  0.12500000000E+03  0.12500000000E+03 0.  0.
    3000001    1    3    3    0    0 -0.48052361171E+02 -0.30854765137E+02  0.25188932521E+01  0.57169841429E+02  0.10000000000E+01 0.  1.
    1000022    2    1    0    0    0 -0.51637150656E+02 -0.33761460531E+02 -0.13600740022E+00  0.62500000075E+02  0.99999983136E+01 0.  0.
    3000022    2    3    3    0    0 -0.35847894849E+01 -0.29066953932E+01 -0.26549006523E+01  0.53301586455E+01  0.24999990526E+00 0.  0.
    1000022    2    1    0    0    0  0.51637150656E+02  0.33761460531E+02  0.13600740022E+00  0.62499999925E+02  0.99999973820E+01 0.  0.
    3000022    2    5    5    0    0  0.39425088129E+02  0.30254993515E+02 -0.98044862835E+00  0.49706397768E+02  0.24998598438E+00 0.  0.
        -13    1    4    4    0    0 -0.24290541231E+01 -0.19240544970E+01 -0.18260862071E+01  0.35983198130E+01  0.10500000000E+00 0.  1.
         13    1    4    4    0    0 -0.11557353618E+01 -0.98264089618E+00 -0.82881444527E+00  0.17318388326E+01  0.10500000000E+00 0. -1.
    3000001    1    5    5    0    0  0.12212062527E+02  0.35064670153E+01  0.11164560286E+01  0.12793602157E+02  0.10000000000E+01 0. -1.
        -13    1    6    6    0    0  0.29083787503E+02  0.22291225002E+02 -0.69862038198E+00  0.36650573025E+02  0.10500000000E+00 0.  1.
         13    1    6    6    0    0  0.10341300626E+02  0.79637685131E+01 -0.28182824637E+00  0.13055824743E+02  0.10500000000E+00 0. -1.
</event>
<event>
11    0  0.3494755E-009  0.9118800E+02  0.7816531E-02  0.1126479E+00
         25   -1    0    0    0    0  0.00000000000E+00  0.00000000000E+00  0.99999998245E-14  0.12500000000E+03  0.12500000000E+03 0.  0.
    3000001    1    3    3    0    0 -0.13929267340E+02  0.30238252262E+01 -0.59131882825E+01  0.15463951736E+02  0.10000000000E+01 0.  1.
    1000022    2    1    0    0    0 -0.57350508180E+02  0.20808059958E+02 -0.91757232861E+01  0.62499999596E+02  0.99999952007E+01 0.  0.
    3000022    2    3    3    0    0 -0.43421240840E+02  0.17784234732E+02 -0.32625350036E+01  0.47036047861E+02  0.25000520353E+00 0.  0.
    1000022    2    1    0    0    0  0.57350508180E+02 -0.20808059958E+02  0.91757232861E+01  0.62500000404E+02  0.10000000247E+02 0.  0.
    3000022    2    5    5    0    0  0.70271773646E+01 -0.62275089218E+01  0.20652437610E+01  0.96172148121E+01  0.24999972982E+00 0.  0.
        -13    1    4    4    0    0 -0.26741972502E+02  0.10889226813E+02 -0.19901270242E+01  0.28942701748E+02  0.10500000000E+00 0. -1.
         13    1    4    4    0    0 -0.16679268339E+02  0.68950079185E+01 -0.12724079793E+01  0.18093346113E+02  0.10500000000E+00 0.  1.
    3000001    1    5    5    0    0  0.50323330815E+02 -0.14580551036E+02  0.71104795250E+01  0.52882785592E+02  0.10000000000E+01 0. -1.
        -13    1    6    6    0    0  0.28685028674E+01 -0.25442877232E+01  0.90883388278E+00  0.39419173945E+01  0.10500000000E+00 0.  1.
         13    1    6    6    0    0  0.41586744972E+01 -0.36832211986E+01  0.11564098782E+01  0.56752974176E+01  0.10500000000E+00 0. -1.
</event>
<event>
11    0  0.3494755E-009  0.9118800E+02  0.7816531E-02  0.1126479E+00
         25   -1    0    0    0    0  0.00000000000E+00  0.00000000000E+00  0.99999998245E-14  0.12500000000E+03  0.12500000000E+03 0.  0.
    3000001    1    3    3    0    0  0.66322805435E+01 -0.16316707688E+02 -0.12728182111E+02  0.21753820695E+02  0.10000000000E+01 0. -1.
    1000022    2    1    0    0    0  0.28263415207E+02 -0.47861319373E+02 -0.26771690280E+02  0.62500000049E+02  0.10000003720E+02 0.  0.
    3000022    2    3    3    0    0  0.21631134664E+02 -0.31544611686E+02 -0.14043508169E+02  0.40746179355E+02  0.24999412391E+00 0.  0.
    1000022    2    1    0    0    0 -0.28263415207E+02  0.47861319373E+02  0.26771690280E+02  0.62499999951E+02  0.10000003101E+02 0.  0.
    3000022    2    5    5    0    0 -0.22475401045E+02  0.30426085677E+02  0.20727992646E+02  0.43134702042E+02  0.24999872789E+00 0.  0.
        -13    1    4    4    0    0  0.15116119171E+02 -0.21981929209E+02 -0.97623060147E+01  0.28408025525E+02  0.10500000000E+00 0.  1.
         13    1    4    4    0    0  0.65150154928E+01 -0.95626824770E+01 -0.42812021542E+01  0.12338153829E+02  0.10500000000E+00 0. -1.
    3000001    1    5    5    0    0 -0.57880141625E+01  0.17435233697E+02  0.60436976336E+01  0.19365297909E+02  0.10000000000E+01 0. -1.
        -13    1    6    6    0    0 -0.13902769188E+02  0.18913999801E+02  0.12891425040E+02  0.26781079965E+02  0.10500000000E+00 0.  1.
         13    1    6    6    0    0 -0.85726318570E+01  0.11512085876E+02  0.78365676063E+01  0.16353622077E+02  0.10500000000E+00 0. -1.
</event>
<event>
11    0  0.3494755E-009  0.9118800E+02  0.7816531E-02  0.1126479E+00
         25   -1    0    0    0    0  0.00000000000E+00  0.00000000000E+00  0.99999998245E-14  0.12500000000E+03  0.12500000000E+03 0.  0.
    3000001    1    3    3    0    0 -0.97968711244E+01 -0.46953192128E+01  0.30826562487E+02  0.32700178304E+02  0.10000000000E+01 0. -1.
    1000022    2    1    0    0    0 -0.19384660054E+02 -0.17861434285E+02  0.55780410640E+02  0.62499999128E+02  0.99999899850E+01 0.  0.
    3000022    2    3    3    0    0 -0.95877889294E+01 -0.13166115072E+02  0.24953848152E+02  0.29799820823E+02  0.25000170447E+00 0.  0.
    1000022    2    1    0    0    0  0.19384660054E+02  0.17861434285E+02 -0.55780410640E+02  0.62500000872E+02  0.10000000890E+02 0.  0.
    3000022    2    5    5    0    0  0.18885535148E+02  0.18843373373E+02 -0.53379085488E+02  0.59675165916E+02  0.25000347542E+00 0.  0.
        -13    1    4    4    0    0 -0.37041413783E+01 -0.50504539006E+01  0.94912518710E+01  0.11372011037E+02  0.10500000000E+00 0. -1.
         13    1    4    4    0    0 -0.58836475511E+01 -0.81156611713E+01  0.15462596281E+02  0.18427809786E+02  0.10500000000E+00 0.  1.
    3000001    1    5    5    0    0  0.49912490611E+00 -0.98193908792E+00 -0.24013251518E+01  0.28248349560E+01  0.10000000000E+01 0.  1.
        -13    1    6    6    0    0  0.12404595404E+02  0.12302267067E+02 -0.34915405206E+02  0.39042493617E+02  0.10500000000E+00 0.  1.
         13    1    6    6    0    0  0.64809397438E+01  0.65411063059E+01 -0.18463680282E+02  0.20632672300E+02  0.10500000000E+00 0. -1.
</event>
<event>
11    0  0.3494755E-009  0.9118800E+02  0.7816531E-02  0.1126479E+00
         25   -1    0    0    0    0  0.00000000000E+00  0.00000000000E+00  0.99999998245E-14  0.12500000000E+03  0.12500000000E+03 0.  0.
    3000001    1    3    3    0    0 -0.29523962827E+02 -0.50857988825E+02  0.15569942558E+02  0.60840960870E+02  0.10000000000E+01 0. -1.
    1000022    2    1    0    0    0 -0.29690660661E+02 -0.51291686750E+02  0.17142849656E+02  0.62499999846E+02  0.10000011315E+02 0.  0.
    3000022    2    3    3    0    0 -0.16669783469E+00 -0.43369792508E+00  0.15729070978E+01  0.16590389765E+01  0.24998305758E+00 0.  0.
    1000022    2    1    0    0    0  0.29690660661E+02  0.51291686750E+02 -0.17142849656E+02  0.62500000154E+02  0.10000013240E+02 0.  0.
    3000022    2    5    5    0    0  0.24845709764E+02  0.48259343594E+02 -0.15001504884E+02  0.56315017401E+02  0.24999676844E+00 0.  0.
        -13    1    4    4    0    0 -0.93541750910E-01 -0.14311473211E+00  0.46290757062E+00  0.50451987537E+00  0.10500000000E+00 0.  1.
         13    1    4    4    0    0 -0.73156083779E-01 -0.29058319297E+00  0.11099995272E+01  0.11545191012E+01  0.10500000000E+00 0. -1.
    3000001    1    5    5    0    0  0.48449508977E+01  0.30323431558E+01 -0.21413447721E+01  0.61849827525E+01  0.10000000000E+01 0. -1.
        -13    1    6    6    0    0  0.16284478872E+02  0.31516921749E+02 -0.97829044882E+01  0.36799685514E+02  0.10500000000E+00 0.  1.
         13    1    6    6    0    0  0.85612308914E+01  0.16742421845E+02 -0.52186003957E+01  0.19515331888E+02  0.10500000000E+00 0. -1.
</event>
<event>
11    0  0.3494755E-009  0.9118800E+02  0.7816531E-02  0.1126479E+00
         25   -1    0    0    0    0  0.00000000000E+00  0.00000000000E+00  0.99999998245E-14  0.12500000000E+03  0.12500000000E+03 0.  0.
    3000001    1    3    3    0    0 -0.40368100140E+02 -0.23183747828E+02 -0.31793206282E+02  0.56381536321E+02  0.10000000000E+01 0. -1.
    1000022    2    1    0    0    0 -0.45893343594E+02 -0.22767026612E+02 -0.34376060681E+02  0.62499999338E+02  0.99999941138E+01 0.  0.
    3000022    2    3    3    0    0 -0.55252434544E+01  0.41672121547E+00 -0.25828543999E+01  0.61184630173E+01  0.24996207991E+00 0.  0.
    1000022    2    1    0    0    0  0.45893343594E+02  0.22767026612E+02  0.34376060681E+02  0.62500000662E+02  0.10000002389E+02 0.  0.
    3000022    2    5    5    0    0  0.42746194978E+01  0.18756568506E+01  0.71661155202E+01  0.85560608579E+01  0.25001056425E+00 0.  0.
        -13    1    4    4    0    0 -0.17029432991E+01  0.17296789661E+00 -0.81910244557E+00  0.19004966692E+01  0.10500000000E+00 0.  1.
         13    1    4    4    0    0 -0.38223001553E+01  0.24375331886E+00 -0.17637519543E+01  0.42179663481E+01  0.10500000000E+00 0. -1.
    3000001    1    5    5    0    0  0.41618724096E+02  0.20891369762E+02  0.27209945161E+02  0.53943939804E+02  0.10000000000E+01 0. -1.
        -13    1    6    6    0    0  0.18405126573E+01  0.77796697968E+00  0.31776272071E+01  0.37551376980E+01  0.10500000000E+00 0. -1.
         13    1    6    6    0    0  0.24341068405E+01  0.10976898709E+01  0.39884883131E+01  0.48009231599E+01  0.10500000000E+00 0.  1.
</event>
<event>
11    0  0.3494755E-009  0.9118800E+02  0.7816531E-02  0.1126479E+00
         25   -1    0    0    0    0  0.00000000000E+00  0.00000000000E+00  0.99999998245E-14  0.12500000000E+03  0.12500000000E+03 0.  0.
    3000001    1    3    3    0    0  0.24771868486E+02  0.13156648849E+01  0.29237745250E+02  0.38356514306E+02  0.10000000000E+01 0.  1.
    1000022    2    1    0    0    0  0.42419131959E+02  0.87648671305E+01  0.43932266952E+02  0.62500001835E+02  0.10000024892E+02 0.  0.
    3000022    2    3    3    0    0  0.17647263473E+02  0.74492022455E+01  0.14694521702E+02  0.24143487529E+02  0.24999967858E+00 0.  0.
    1000022    2    1    0    0    0 -0.42419131959E+02 -0.87648671305E+01 -0.43932266952E+02  0.62499998165E+02  0.10000001960E+02 0.  0.
    3000022    2    5    5    0    0 -0.15069442051E+01  0.15637917024E+01 -0.29286511860E+01  0.36545666864E+01  0.25006913148E+00 0.  0.
        -13    1    4    4    0    0  0.81792099741E+01  0.34678430500E+01  0.68981472367E+01  0.11248149693E+02  0.10500000000E+00 0. -1.
         13    1    4    4    0    0  0.94680534988E+01  0.39813591956E+01  0.77963744651E+01  0.12895337836E+02  0.10500000000E+00 0.  1.
    3000001    1    5    5    0    0 -0.40912187754E+02 -0.10328658833E+02 -0.41003615766E+02  0.58845431479E+02  0.10000000000E+01 0.  1.
        -13    1    6    6    0    0 -0.85206527581E+00  0.80266724403E+00 -0.16359353115E+01  0.20143483518E+01  0.10500000000E+00 0. -1.
         13    1    6    6    0    0 -0.65487892924E+00  0.76112445836E+00 -0.12927158745E+01  0.16402183346E+01  0.10500000000E+00 0.  1.
</event>
<event>
11    0  0.3494755E-009  0.9118800E+02  0.7816531E-02  0.1126479E+00
         25   -1    0    0    0    0  0.00000000000E+00  0.00000000000E+00  0.99999998245E-14  0.12500000000E+03  0.12500000000E+03 0.  0.
    3000001    1    3    3    0    0 -0.63397747597E+01  0.19136919181E+02  0.21484301219E+02  0.29478629863E+02  0.10000000000E+01 0.  1.
    1000022    2    1    0    0    0 -0.21554813228E+02  0.34065579638E+02  0.46703065564E+02  0.62499999862E+02  0.99999980129E+01 0.  0.
    3000022    2    3    3    0    0 -0.15215038469E+02  0.14928660457E+02  0.25218764346E+02  0.33021369999E+02  0.25000568131E+00 0.  0.
    1000022    2    1    0    0    0  0.21554813228E+02 -0.34065579638E+02 -0.46703065564E+02  0.62500000138E+02  0.99999997360E+01 0.  0.
    3000022    2    5    5    0    0 -0.10375093617E+01 -0.92201139408E+00 -0.15830029982E+01  0.21201259913E+01  0.25001008068E+00 0.  0.
        -13    1    4    4    0    0 -0.84912949503E+01  0.83419766027E+01  0.14184677390E+02  0.18517741797E+02  0.10500000000E+00 0.  1.
         13    1    4    4    0    0 -0.67237435186E+01  0.65866838542E+01  0.11034086955E+02  0.14503628202E+02  0.10500000000E+00 0. -1.
    3000001    1    5    5    0    0  0.22592322590E+02 -0.33143568244E+02 -0.45120062566E+02  0.60379874147E+02  0.10000000000E+01 0.  1.
        -13    1    6    6    0    0 -0.27325871384E+00 -0.29973980168E+00 -0.48810844431E+00  0.64326442992E+00  0.10500000000E+00 0.  1.
         13    1    6    6    0    0 -0.76425064786E+00 -0.62227159240E+00 -0.10948945539E+01  0.14768615614E+01  0.10500000000E+00 0. -1.
</event>
<event>
11    0  0.3494755E-009  0.9118800E+02  0.7816531E-02  0.1126479E+00
         25   -1    0    0    0    0  0.00000000000E+00  0.00000000000E+00  0.99999998245E-14  0.12500000000E+03  0.12500000000E+03 0.  0.
    3000001    1    3    3    0    0 -0.34414686601E+01  0.86062351496E+00  0.26934163266E+00  0.36955276062E+01  0.10000000000E+01 0. -1.
    1000022    2    1    0    0    0 -0.41510796924E+02  0.34325801678E+02  0.30080609880E+02  0.62500001229E+02  0.10000007038E+02 0.  0.
    3000022    2    3    3    0    0 -0.38069328264E+02  0.33465178163E+02  0.29811268248E+02  0.58804473623E+02  0.24999915447E+00 0.  0.
    1000022    2    1    0    0    0  0.41510796924E+02 -0.34325801678E+02 -0.30080609880E+02  0.62499998771E+02  0.99999916728E+01 0.  0.
    3000022    2    5    5    0    0  0.97707281362E+01 -0.52031204999E+01 -0.25327669437E+01  0.11358565704E+02  0.25003042187E+00 0.  0.
        -13    1    4    4    0    0 -0.25773431270E+02  0.22618758834E+02  0.20217851430E+02  0.39807669513E+02  0.10500000000E+00 0.  1.
         13    1    4    4    0    0 -0.12295896994E+02  0.10846419329E+02  0.95934168175E+01  0.18996804110E+02  0.10500000000E+00 0. -1.
    3000001    1    5    5    0    0  0.31740068788E+02 -0.29122681178E+02 -0.27547842937E+02  0.51141433067E+02  0.10000000000E+01 0. -1.
        -13    1    6    6    0    0  0.60597967913E+01 -0.31644893391E+01 -0.15910707055E+01  0.70198049061E+01  0.10500000000E+00 0. -1.
         13    1    6    6    0    0  0.37109313449E+01 -0.20386311608E+01 -0.94169623819E+00  0.43387607979E+01  0.10500000000E+00 0.  1.
</event>
<event>
11    0  0.3494755E-009  0.9118800E+02  0.7816531E-02  0.1126479E+00
         25   -1    0    0    0    0  0.00000000000E+00  0.00000000000E+00  0.99999998245E-14  0.12500000000E+03  0.12500000000E+03 0.  0.
    3000001    1    3    3    0    0  0.29412166976E+02  0.20360429463E+02 -0.24208032440E+02  0.43204762339E+02  0.10000000000E+01 0.  1.
    1000022    2    1    0    0    0  0.37252761114E+02  0.33249572305E+02 -0.36234619364E+02  0.62500000582E+02  0.10000008161E+02 0.  0.
    3000022    2    3    3    0    0  0.78405941375E+01  0.12889142841E+02 -0.12026586925E+02  0.19295238243E+02  0.25001236048E+00 0.  0.
    1000022    2    1    0    0    0 -0.37252761114E+02 -0.33249572305E+02  0.36234619364E+02  0.62499999418E+02  0.10000000889E+02 0.  0.
    3000022    2    5    5    0    0 -0.15033679336E+02 -0.79344054713E+01  0.14980296459E+02  0.22659172256E+02  0.25000150521E+00 0.  0.
        -13    1    4    4    0    0  0.20604937362E+01  0.34501175265E+01 -0.31899959127E+01  0.51318655776E+01  0.10500000000E+00 0. -1.
         13    1    4    4    0    0  0.57801004013E+01  0.94390253145E+01 -0.88365910119E+01  0.14163372665E+02  0.10500000000E+00 0.  1.
    3000001    1    5    5    0    0 -0.22219081778E+02 -0.25315166833E+02  0.21254322905E+02  0.39840827163E+02  0.10000000000E+01 0.  1.
        -13    1    6    6    0    0 -0.11235326240E+02 -0.59379168433E+01  0.11162286074E+02  0.16914463265E+02  0.10500000000E+00 0. -1.
         13    1    6    6    0    0 -0.37983530962E+01 -0.19964886280E+01  0.38180103851E+01  0.57447089906E+01  0.10500000000E+00 0.  1.
</event>
<event>
11    0  0.3494755E-009  0.9118800E+02  0.7816531E-02  0.1126479E+00
         25   -1    0    0    0    0  0.00000000000E+00  0.00000000000E+00  0.99999998245E-14  0.12500000000E+03  0.12500000000E+03 0.  0.
    3000001    1    3    3    0    0 -0.22715324623E+01  0.71833709742E+00  0.36694608403E+01  0.44878514650E+01  0.10000000000E+01 0.  1.
    1000022    2    1    0    0    0 -0.42735233881E+02 -0.19423929186E+02  0.40033245925E+02  0.62500000097E+02  0.99999996461E+01 0.  0.
    3000022    2    3    3    0    0 -0.40463701419E+02 -0.20142266283E+02  0.36363785085E+02  0.58012148632E+02  0.24999932779E+00 0.  0.
    1000022    2    1    0    0    0  0.42735233881E+02  0.19423929186E+02 -0.40033245925E+02  0.62499999903E+02  0.99999984338E+01 0.  0.
    3000022    2    5    5    0    0  0.20512244827E+01 -0.19641021419E+00  0.88093595180E-01  0.20775849909E+01  0.25000012422E+00 0.  0.
        -13    1    4    4    0    0 -0.29846173720E+02 -0.14832835482E+02  0.26844837178E+02  0.42795600268E+02  0.10500000000E+00 0. -1.
         13    1    4    4    0    0 -0.10617527699E+02 -0.53094308013E+01  0.95189479067E+01  0.15216548364E+02  0.10500000000E+00 0.  1.
    3000001    1    5    5    0    0  0.40684009399E+02  0.19620339400E+02 -0.40121339520E+02  0.60422414912E+02  0.10000000000E+01 0. -1.
        -13    1    6    6    0    0  0.81974363276E+00 -0.56298263102E-01  0.94278277344E-01  0.83370409106E+00  0.10500000000E+00 0.  1.
         13    1    6    6    0    0  0.12314808500E+01 -0.14011195109E+00 -0.61846821637E-02  0.12438808998E+01  0.10500000000E+00 0. -1.
</event>
<event>
11    0  0.3494755E-009  0.9118800E+02  0.7816531E-02  0.1126479E+00
         25   -1    0    0    0    0  0.00000000000E+00  0.00000000000E+00  0.99999998245E-14  0.12500000000E+03  0.12500000000E+03 0.  0.
    3000001    1    3    3    0    0  0.38372333367E+00  0.12098648791E+00 -0.66326436280E+01  0.67196609158E+01  0.10000000000E+01 0.  1.
    1000022    2    1    0    0    0 -0.22528419656E+02 -0.59726434436E+01 -0.57123091743E+02  0.62500002170E+02  0.10000024951E+02 0.  0.
    3000022    2    3    3    0    0 -0.22912142990E+02 -0.60936299315E+01 -0.50490448115E+02  0.55780341254E+02  0.24999483626E+00 0.  0.
    1000022    2    1    0    0    0  0.22528419656E+02  0.59726434436E+01  0.57123091743E+02  0.62499997830E+02  0.99999978321E+01 0.  0.
    3000022    2    5    5    0    0  0.13363770979E+02  0.28248728251E+01  0.20738105170E+02  0.24833480960E+02  0.24997858794E+00 0.  0.
        -13    1    4    4    0    0 -0.14596432828E+02 -0.38627308063E+01 -0.32023571175E+02  0.35404754997E+02  0.10500000000E+00 0. -1.
         13    1    4    4    0    0 -0.83157101624E+01 -0.22308991252E+01 -0.18466876940E+02  0.20375586257E+02  0.10500000000E+00 0.  1.
    3000001    1    5    5    0    0  0.91646486772E+01  0.31477706185E+01  0.36384986573E+02  0.37666516870E+02  0.10000000000E+01 0. -1.
        -13    1    6    6    0    0  0.75107050599E+01  0.16341630091E+01  0.11582617485E+02  0.13901411153E+02  0.10500000000E+00 0. -1.
         13    1    6    6    0    0  0.58530659192E+01  0.11907098160E+01  0.91554876845E+01  0.10932069807E+02  0.10500000000E+00 0.  1.
</event>
<event>
11    0  0.3494755E-009  0.9118800E+02  0.7816531E-02  0.1126479E+00
         25   -1    0    0    0    0  0.00000000000E+00  0.00000000000E+00  0.99999998245E-14  0.12500000000E+03  0.12500000000E+03 0.  0.
    3000001    1    3    3    0    0  0.38288081905E+01 -0.15803830068E+02 -0.16488959634E+02  0.23179875038E+02  0.10000000000E+01 0. -1.
    1000022    2    1    0    0    0  0.15303726847E+02 -0.48866443617E+02 -0.34410997328E+02  0.62499998602E+02  0.99999860467E+01 0.  0.
    3000022    2    3    3    0    0  0.11474918657E+02 -0.33062613549E+02 -0.17922037694E+02  0.39320123564E+02  0.25001814383E+00 0.  0.
    1000022    2    1    0    0    0 -0.15303726847E+02  0.48866443617E+02  0.34410997328E+02  0.62500001398E+02  0.10000003524E+02 0.  0.
    3000022    2    5    5    0    0 -0.11428417189E+02  0.38650631605E+02  0.21942158754E+02  0.45891185203E+02  0.25001131891E+00 0.  0.
        -13    1    4    4    0    0  0.64532345299E+01 -0.18395166465E+02 -0.99685149046E+01  0.21895403617E+02  0.10500000000E+00 0. -1.
         13    1    4    4    0    0  0.50216841269E+01 -0.14667447084E+02 -0.79535227894E+01  0.17424719946E+02  0.10500000000E+00 0.  1.
    3000001    1    5    5    0    0 -0.38753096580E+01  0.10215812012E+02  0.12468838574E+02  0.16608816195E+02  0.10000000000E+01 0.  1.
        -13    1    6    6    0    0 -0.71580650066E+01  0.24330384378E+02  0.13862130212E+02  0.28902857603E+02  0.10500000000E+00 0. -1.
         13    1    6    6    0    0 -0.42703521826E+01  0.14320247227E+02  0.80800285421E+01  0.16988327600E+02  0.10500000000E+00 0.  1.
</event>
<event>
11    0  0.3494755E-009  0.9118800E+02  0.7816531E-02  0.1126479E+00
         25   -1    0    0    0    0  0.00000000000E+00  0.00000000000E+00  0.99999998245E-14  0.12500000000E+03  0.12500000000E+03 0.  0.
    3000001    1    3    3    0    0 -0.38928559088E+02 -0.22790289950E+02  0.40759555054E+02  0.60804369554E+02  0.10000000000E+01 0. -1.
    1000022    2    1    0    0    0 -0.39274675146E+02 -0.24429854430E+02  0.40828078723E+02  0.62500000895E+02  0.10000010214E+02 0.  0.
    3000022    2    3    3    0    0 -0.34611605770E+00 -0.16395644803E+01  0.68523669608E-01  0.16956313405E+01  0.25000427867E+00 0.  0.
    1000022    2    1    0    0    0  0.39274675146E+02  0.24429854430E+02 -0.40828078723E+02  0.62499999105E+02  0.99999990289E+01 0.  0.
    3000022    2    5    5    0    0  0.88651515742E+00 -0.87352486086E+00 -0.61809402947E+00  0.14119094316E+01  0.24998641362E+00 0.  0.
        -13    1    4    4    0    0 -0.14030141121E+00 -0.93861949226E+00  0.72378957404E-01  0.95757754292E+00  0.10500000000E+00 0.  1.
         13    1    4    4    0    0 -0.20581464649E+00 -0.70094498799E+00 -0.38552877957E-02  0.73805379760E+00  0.10500000000E+00 0. -1.
    3000001    1    5    5    0    0  0.38388159989E+02  0.25303379291E+02 -0.40209984694E+02  0.61088089674E+02  0.10000000000E+01 0. -1.
        -13    1    6    6    0    0  0.55246015856E+00 -0.47322133908E+00 -0.40310448921E+00  0.83825347705E+00  0.10500000000E+00 0. -1.
         13    1    6    6    0    0  0.33405499886E+00 -0.40030352178E+00 -0.21498954026E+00  0.57365595459E+00  0.10500000000E+00 0.  1.
</event>
<event>
11    0  0.3494755E-009  0.9118800E+02  0.7816531E-02  0.1126479E+00
         25   -1    0    0    0    0  0.00000000000E+00  0.00000000000E+00  0.99999998245E-14  0.12500000000E+03  0.12500000000E+03 0.  0.
    3000001    1    3    3    0    0  0.36217599934E+01 -0.20968524429E+01 -0.44637842321E+01  0.61999439746E+01  0.10000000000E+01 0.  1.
    1000022    2    1    0    0    0  0.48179402826E+02 -0.32088842115E+02 -0.21337773660E+02  0.62500006108E+02  0.10000076691E+02 0.  0.
    3000022    2    3    3    0    0  0.44557642832E+02 -0.29991989672E+02 -0.16873989428E+02  0.56300062133E+02  0.24999553646E+00 0.  0.
    1000022    2    1    0    0    0 -0.48179402826E+02  0.32088842115E+02  0.21337773660E+02  0.62499993892E+02  0.10000000343E+02 0.  0.
    3000022    2    5    5    0    0 -0.22545396352E+02  0.19590564161E+02  0.14265138702E+02  0.33100480207E+02  0.25001381983E+00 0.  0.
        -13    1    4    4    0    0  0.32781191938E+02 -0.22093144262E+02 -0.12393788840E+02  0.41428620482E+02  0.10500000000E+00 0. -1.
         13    1    4    4    0    0  0.11776450895E+02 -0.78988454096E+01 -0.44802005887E+01  0.14871441651E+02  0.10500000000E+00 0.  1.
    3000001    1    5    5    0    0 -0.25634006473E+02  0.12498277953E+02  0.70726349584E+01  0.29399513685E+02  0.10000000000E+01 0.  1.
        -13    1    6    6    0    0 -0.13562338458E+02  0.11776931099E+02  0.86481302182E+01  0.19935754609E+02  0.10500000000E+00 0.  1.
         13    1    6    6    0    0 -0.89830578945E+01  0.78136330620E+01  0.56170084837E+01  0.13164725598E+02  0.10500000000E+00 0. -1.
</event>
<event>
11    0  0.3494755E-009  0.9118800E+02  0.7816531E-02  0.1126479E+00
         25   -1    0    0    0    0  0.00000000000E+00  0.00000000000E+00  0.99999998245E-14  0.12500000000E+03  0.12500000000E+03 0.  0.
    3000001    1    3    3    0    0 -0.10389961853E+02 -0.90907499522E+01  0.68998466088E+01  0.15466121855E+02  0.10000000000E+01 0.  1.
    1000022    2    1    0    0    0 -0.35269017019E+02 -0.28957858415E+02  0.41518536882E+02  0.62499999013E+02  0.99999923192E+01 0.  0.
    3000022    2    3    3    0    0 -0.24879055166E+02 -0.19867108463E+02  0.34618690273E+02  0.47033877158E+02  0.24999944339E+00 0.  0.
    1000022    2    1    0    0    0  0.35269017019E+02  0.28957858415E+02 -0.41518536882E+02  0.62500000987E+02  0.10000004657E+02 0.  0.
    3000022    2    5    5    0    0  0.97736287783E+01  0.14050914733E+02 -0.16614797075E+02  0.23855104198E+02  0.24998025874E+00 0.  0.
        -13    1    4    4    0    0 -0.14954193628E+02 -0.11894452155E+02  0.20700700831E+02  0.28171544846E+02  0.10500000000E+00 0.  1.
         13    1    4    4    0    0 -0.99248615378E+01 -0.79726563073E+01  0.13917989442E+02  0.18862332312E+02  0.10500000000E+00 0. -1.
    3000001    1    5    5    0    0  0.25495388240E+02  0.14906943682E+02 -0.24903739807E+02  0.38644896789E+02  0.10000000000E+01 0. -1.
        -13    1    6    6    0    0  0.67443105432E+01  0.96188911477E+01 -0.11434111814E+02  0.16393862558E+02  0.10500000000E+00 0. -1.
         13    1    6    6    0    0  0.30293182351E+01  0.44320235853E+01 -0.51806852614E+01  0.74612416398E+01  0.10500000000E+00 0.  1.
</event>
<event>
11    0  0.3494755E-009  0.9118800E+02  0.7816531E-02  0.1126479E+00
         25   -1    0    0    0    0  0.00000000000E+00  0.00000000000E+00  0.99999998245E-14  0.12500000000E+03  0.12500000000E+03 0.  0.
    3000001    1    3    3    0    0  0.50419257523E+01 -0.59360345960E+02  0.62458965104E+01  0.59908955182E+02  0.10000000000E+01 0. -1.
    1000022    2    1    0    0    0  0.53340619580E+01 -0.61294056787E+02  0.45646979795E+01  0.62500000048E+02  0.99999961977E+01 0.  0.
    3000022    2    3    3    0    0  0.29213620569E+00 -0.19337108268E+01 -0.16811985309E+01  0.25910448656E+01  0.25000774152E+00 0.  0.
    1000022    2    1    0    0    0 -0.53340619580E+01  0.61294056787E+02 -0.45646979795E+01  0.62499999952E+02  0.99999955981E+01 0.  0.
    3000022    2    5    5    0    0  0.28019856072E+01  0.11930582709E+02 -0.56626128456E-01  0.12257880621E+02  0.25000736856E+00 0.  0.
        -13    1    4    4    0    0  0.15302835544E+00 -0.11539476831E+01 -0.10768127554E+01  0.15892022034E+01  0.10500000000E+00 0.  1.
         13    1    4    4    0    0  0.13910785025E+00 -0.77976314369E+00 -0.60438577550E+00  0.10018426622E+01  0.10500000000E+00 0. -1.
    3000001    1    5    5    0    0 -0.81360475652E+01  0.49363474078E+02 -0.45080718511E+01  0.50242119331E+02  0.10000000000E+01 0. -1.
        -13    1    6    6    0    0  0.20978860255E+01  0.89296373748E+01 -0.69635475542E-01  0.91736265196E+01  0.10500000000E+00 0.  1.
         13    1    6    6    0    0  0.70409958162E+00  0.30009453340E+01  0.13009347086E-01  0.30842541014E+01  0.10500000000E+00 0. -1.
</event>
<event>
11    0  0.3494755E-009  0.9118800E+02  0.7816531E-02  0.1126479E+00
         25   -1    0    0    0    0  0.00000000000E+00  0.00000000000E+00  0.99999998245E-14  0.12500000000E+03  0.12500000000E+03 0.  0.
    3000001    1    3    3    0    0  0.78371897100E+00 -0.44029537296E+02  0.25387912975E+02  0.50840539879E+02  0.10000000000E+01 0. -1.
    1000022    2    1    0    0    0 -0.33096736803E+01 -0.52410323218E+02  0.32379841616E+02  0.62499999578E+02  0.99999942196E+01 0.  0.
    3000022    2    3    3    0    0 -0.40933926513E+01 -0.83807859222E+01  0.69919286407E+01  0.11659459699E+02  0.24999655099E+00 0.  0.
    1000022    2    1    0    0    0  0.33096736803E+01  0.52410323218E+02 -0.32379841616E+02  0.62500000422E+02  0.99999994993E+01 0.  0.
    3000022    2    5    5    0    0  0.50372547838E+01  0.38734461456E+02 -0.19718163757E+02  0.43756152962E+02  0.25000007281E+00 0.  0.
        -13    1    4    4    0    0 -0.17364562774E+01 -0.34096415179E+01  0.28637057756E+01  0.47804572431E+01  0.10500000000E+00 0. -1.
         13    1    4    4    0    0 -0.23569363739E+01 -0.49711444043E+01  0.41282228651E+01  0.68790024555E+01  0.10500000000E+00 0.  1.
    3000001    1    5    5    0    0 -0.17275811035E+01  0.13675861762E+02 -0.12661677859E+02  0.18743847460E+02  0.10000000000E+01 0. -1.
        -13    1    6    6    0    0  0.28431808206E+01  0.21666830337E+02 -0.10962825382E+02  0.24448512825E+02  0.10500000000E+00 0. -1.
         13    1    6    6    0    0  0.21940739631E+01  0.17067631120E+02 -0.87553383753E+01  0.19307640137E+02  0.10500000000E+00 0.  1.
</event>
<event>
11    0  0.3494755E-009  0.9118800E+02  0.7816531E-02  0.1126479E+00
         25   -1    0    0    0    0  0.00000000000E+00  0.00000000000E+00  0.99999998245E-14  0.12500000000E+03  0.12500000000E+03 0.  0.
    3000001    1    3    3    0    0 -0.34426060687E+01 -0.15489726241E+02 -0.46279164808E+02  0.48934080669E+02  0.10000000000E+01 0. -1.
    1000022    2    1    0    0    0 -0.10997313342E+01 -0.15766555928E+02 -0.59636033468E+02  0.62499998902E+02  0.99999840047E+01 0.  0.
    3000022    2    3    3    0    0  0.23428747345E+01 -0.27682968659E+00 -0.13356868660E+02  0.13565918233E+02  0.25000081451E+00 0.  0.
    1000022    2    1    0    0    0  0.10997313342E+01  0.15766555928E+02  0.59636033468E+02  0.62500001098E+02  0.99999977326E+01 0.  0.
    3000022    2    5    5    0    0  0.76321584559E+00 -0.11574175027E+01  0.87595592683E+01  0.88721189254E+01  0.25000389807E+00 0.  0.
        -13    1    4    4    0    0  0.17753154215E+01 -0.22864874940E+00 -0.10155979990E+02  0.10313048999E+02  0.10500000000E+00 0.  1.
         13    1    4    4    0    0  0.56755931303E+00 -0.48180937186E-01 -0.32008886701E+01  0.32528692342E+01  0.10500000000E+00 0. -1.
    3000001    1    5    5    0    0  0.33651548857E+00  0.16923973431E+02  0.50876474200E+02  0.53627882173E+02  0.10000000000E+01 0. -1.
        -13    1    6    6    0    0  0.17626108145E+00 -0.28438090232E+00  0.20495857057E+01  0.20793669785E+01  0.10500000000E+00 0. -1.
         13    1    6    6    0    0  0.58695476414E+00 -0.87303660040E+00  0.67099735626E+01  0.67927519469E+01  0.10500000000E+00 0.  1.
</event>
<event>
11    0  0.3494755E-009  0.9118800E+02  0.7816531E-02  0.1126479E+00
         25   -1    0    0    0    0  0.00000000000E+00  0.00000000000E+00  0.99999998245E-14  0.12500000000E+03  0.12500000000E+03 0.  0.
    3000001    1    3    3    0    0  0.14534262993E+02  0.93631010963E+01  0.12216641369E+02  0.21193366633E+02  0.10000000000E+01 0. -1.
    1000022    2    1    0    0    0  0.32968629864E+02  0.25695255273E+02  0.45377012814E+02  0.62499999004E+02  0.99999942456E+01 0.  0.
    3000022    2    3    3    0    0  0.18434366872E+02  0.16332154176E+02  0.33160371445E+02  0.41306632372E+02  0.25000299926E+00 0.  0.
    1000022    2    1    0    0    0 -0.32968629864E+02 -0.25695255273E+02 -0.45377012814E+02  0.62500000996E+02  0.10000006693E+02 0.  0.
    3000022    2    5    5    0    0 -0.40695165714E+01 -0.20828789635E+01 -0.13447424085E+01  0.47718111646E+01  0.24999948844E+00 0.  0.
        -13    1    4    4    0    0  0.11947040134E+02  0.10532773948E+02  0.21373803274E+02  0.26655610786E+02  0.10500000000E+00 0. -1.
         13    1    4    4    0    0  0.64873267379E+01  0.57993802281E+01  0.11786568171E+02  0.14651021585E+02  0.10500000000E+00 0.  1.
    3000001    1    5    5    0    0 -0.28899113293E+02 -0.23612376309E+02 -0.44032270406E+02  0.57728189831E+02  0.10000000000E+01 0. -1.
        -13    1    6    6    0    0 -0.12662865362E+01 -0.63513475939E+00 -0.36841920003E+00  0.14675269883E+01  0.10500000000E+00 0. -1.
         13    1    6    6    0    0 -0.28032300352E+01 -0.14477442041E+01 -0.97632320848E+00  0.33042841764E+01  0.10500000000E+00 0.  1.
</event>
<event>
11    0  0.3494755E-009  0.9118800E+02  0.7816531E-02  0.1126479E+00
         25   -1    0    0    0    0  0.00000000000E+00  0.00000000000E+00  0.99999998245E-14  0.12500000000E+03  0.12500000000E+03 0.  0.
    3000001    1    3    3    0    0 -0.10063866395E+02  0.33225920000E+02 -0.24140507189E+02  0.42296657717E+02  0.10000000000E+01 0. -1.
    1000022    2    1    0    0    0 -0.14301766798E+02  0.44277976110E+02 -0.40511359495E+02  0.62500000245E+02  0.10000004028E+02 0.  0.
    3000022    2    3    3    0    0 -0.42379004027E+01  0.11052056110E+02 -0.16370852305E+02  0.20203342528E+02  0.25000002982E+00 0.  0.
    1000022    2    1    0    0    0  0.14301766798E+02 -0.44277976110E+02  0.40511359495E+02  0.62499999755E+02  0.10000000970E+02 0.  0.
    3000022    2    5    5    0    0  0.12977632478E+02 -0.31329795614E+02  0.33559014721E+02  0.47710009637E+02  0.25002514680E+00 0.  0.
        -13    1    4    4    0    0 -0.20951124103E+01  0.54684717546E+01 -0.79836523681E+01  0.99016872035E+01  0.10500000000E+00 0.  1.
         13    1    4    4    0    0 -0.21427879924E+01  0.55835843556E+01 -0.83871999374E+01  0.10301655325E+02  0.10500000000E+00 0. -1.
    3000001    1    5    5    0    0  0.13241343198E+01 -0.12948180495E+02  0.69523447734E+01  0.14789990118E+02  0.10000000000E+01 0.  1.
        -13    1    6    6    0    0  0.65280373682E+01 -0.15908527706E+02  0.16965383121E+02  0.24156402362E+02  0.10500000000E+00 0.  1.
         13    1    6    6    0    0  0.64495951096E+01 -0.15421267909E+02  0.16593631601E+02  0.23553607275E+02  0.10500000000E+00 0. -1.
</event>
<event>
11    0  0.3494755E-009  0.9118800E+02  0.7816531E-02  0.1126479E+00
         25   -1    0    0    0    0  0.00000000000E+00  0.00000000000E+00  0.99999998245E-14  0.12500000000E+03  0.12500000000E+03 0.  0.
    3000001    1    3    3    0    0 -0.74514000924E+00 -0.18043058888E+02  0.32210204539E+01  0.18370688077E+02  0.10000000000E+01 0. -1.
    1000022    2    1    0    0    0  0.11325941849E+02 -0.58362282223E+02  0.16486874874E+02  0.62500000104E+02  0.10000001247E+02 0.  0.
    3000022    2    3    3    0    0  0.12071081859E+02 -0.40319223335E+02  0.13265854420E+02  0.44129312027E+02  0.24999789308E+00 0.  0.
    1000022    2    1    0    0    0 -0.11325941849E+02  0.58362282223E+02 -0.16486874874E+02  0.62499999896E+02  0.99999999405E+01 0.  0.
    3000022    2    5    5    0    0 -0.30446480553E+00  0.69093395676E+01 -0.52438549422E+01  0.86828672956E+01  0.24999547771E+00 0.  0.
        -13    1    4    4    0    0  0.48087867943E+01 -0.15845046976E+02  0.52151197650E+01  0.17360830720E+02  0.10500000000E+00 0. -1.
         13    1    4    4    0    0  0.72622950643E+01 -0.24474176359E+02  0.80507346552E+01  0.26768481308E+02  0.10500000000E+00 0.  1.
    3000001    1    5    5    0    0 -0.11021477044E+02  0.51452942655E+02 -0.11243019932E+02  0.53817132600E+02  0.10000000000E+01 0.  1.
        -13    1    6    6    0    0 -0.97812657928E-01  0.17236327982E+01 -0.12924537101E+01  0.21591523642E+01  0.10500000000E+00 0.  1.
         13    1    6    6    0    0 -0.20665214760E+00  0.51857067695E+01 -0.39514012321E+01  0.65237149314E+01  0.10500000000E+00 0. -1.
</event>
<event>
11    0  0.3494755E-009  0.9118800E+02  0.7816531E-02  0.1126479E+00
         25   -1    0    0    0    0  0.00000000000E+00  0.00000000000E+00  0.99999998245E-14  0.12500000000E+03  0.12500000000E+03 0.  0.
    3000001    1    3    3    0    0 -0.72429508324E+01 -0.53498808603E+01 -0.82211690554E+01  0.12233935696E+02  0.10000000000E+01 0.  1.
    1000022    2    1    0    0    0 -0.49591762540E+02 -0.24855912372E+02 -0.27001679401E+02  0.62499999743E+02  0.99999992865E+01 0.  0.
    3000022    2    3    3    0    0 -0.42348811708E+02 -0.19506031512E+02 -0.18780510346E+02  0.50266064047E+02  0.25001507968E+00 0.  0.
    1000022    2    1    0    0    0  0.49591762540E+02  0.24855912372E+02  0.27001679401E+02  0.62500000257E+02  0.10000002496E+02 0.  0.
    3000022    2    5    5    0    0  0.29948269111E+02  0.18861512695E+02  0.13395736602E+02  0.37843939317E+02  0.25000011461E+00 0.  0.
        -13    1    4    4    0    0 -0.16630019911E+02 -0.77255347740E+01 -0.73664584645E+01  0.19761507663E+02  0.10500000000E+00 0.  1.
         13    1    4    4    0    0 -0.25718791797E+02 -0.11780496738E+02 -0.11414051881E+02  0.30504556385E+02  0.10500000000E+00 0. -1.
    3000001    1    5    5    0    0  0.19643493429E+02  0.59943996766E+01  0.13605942799E+02  0.24656060939E+02  0.10000000000E+01 0.  1.
        -13    1    6    6    0    0  0.11390869596E+02  0.72372640778E+01  0.50766759544E+01  0.14419208204E+02  0.10500000000E+00 0.  1.
         13    1    6    6    0    0  0.18557399515E+02  0.11624248618E+02  0.83190606477E+01  0.23424731114E+02  0.10500000000E+00 0. -1.
</event>
<event>
11    0  0.3494755E-009  0.9118800E+02  0.7816531E-02  0.1126479E+00
         25   -1    0    0    0    0  0.00000000000E+00  0.00000000000E+00  0.99999998245E-14  0.12500000000E+03  0.12500000000E+03 0.  0.
    3000001    1    3    3    0    0  0.60835144531E+01 -0.22338650845E+02 -0.36018083256E+01  0.23452025348E+02  0.10000000000E+01 0.  1.
    1000022    2    1    0    0    0  0.27809004669E+02 -0.54328439718E+02 -0.90182937311E+01  0.62500000117E+02  0.10000014498E+02 0.  0.
    3000022    2    3    3    0    0  0.21725490216E+02 -0.31989788872E+02 -0.54164854055E+01  0.39047974769E+02  0.25000442489E+00 0.  0.
    1000022    2    1    0    0    0 -0.27809004669E+02  0.54328439718E+02  0.90182937311E+01  0.62499999883E+02  0.10000013035E+02 0.  0.
    3000022    2    5    5    0    0 -0.23850627911E+02  0.51182577742E+02  0.67522506666E+01  0.56869711676E+02  0.25000179109E+00 0.  0.
        -13    1    4    4    0    0  0.71785990420E+01 -0.10511696466E+02 -0.17413875636E+01  0.12848015506E+02  0.10500000000E+00 0. -1.
         13    1    4    4    0    0  0.14546891174E+02 -0.21478092407E+02 -0.36750978418E+01  0.26199959263E+02  0.10500000000E+00 0.  1.
    3000001    1    5    5    0    0 -0.39583767580E+01  0.31458619752E+01  0.22660430645E+01  0.56302882071E+01  0.10000000000E+01 0.  1.
        -13    1    6    6    0    0 -0.66221464351E+01  0.14211998820E+02  0.18357752074E+01  0.15786539503E+02  0.10500000000E+00 0. -1.
         13    1    6    6    0    0 -0.17228481476E+02  0.36970578922E+02  0.49164754593E+01  0.41083172173E+02  0.10500000000E+00 0.  1.
</event>
<event>
11    0  0.3494755E-009  0.9118800E+02  0.7816531E-02  0.1126479E+00
         25   -1    0    0    0    0  0.00000000000E+00  0.00000000000E+00  0.99999998245E-14  0.12500000000E+03  0.12500000000E+03 0.  0.
    3000001    1    3    3    0    0  0.16333452745E+02  0.12714388565E+02 -0.12645493213E+01  0.20761417103E+02  0.10000000000E+01 0.  1.
    1000022    2    1    0    0    0  0.48533495872E+02  0.36738693828E+02  0.10050789750E+02  0.62500001372E+02  0.99999975581E+01 0.  0.
    3000022    2    3    3    0    0  0.32200043126E+02  0.24024305264E+02  0.11315339072E+02  0.41738584269E+02  0.24999540009E+00 0.  0.
    1000022    2    1    0    0    0 -0.48533495872E+02 -0.36738693828E+02 -0.10050789750E+02  0.62499998628E+02  0.99999804085E+01 0.  0.
    3000022    2    5    5    0    0 -0.10951875063E+02 -0.13881131093E+02 -0.25145072313E+01  0.17860980371E+02  0.25001071252E+00 0.  0.
        -13    1    4    4    0    0  0.22970395329E+02  0.17186784814E+02  0.80952311586E+01  0.29808864895E+02  0.10500000000E+00 0. -1.
         13    1    4    4    0    0  0.92296477973E+01  0.68375204494E+01  0.32201079131E+01  0.11929719373E+02  0.10500000000E+00 0.  1.
    3000001    1    5    5    0    0 -0.37581620809E+02 -0.22857562735E+02 -0.75362825190E+01  0.44639018257E+02  0.10000000000E+01 0.  1.
        -13    1    6    6    0    0 -0.80241493231E+01 -0.10213074518E+02 -0.18686775521E+01  0.13122379520E+02  0.10500000000E+00 0.  1.
         13    1    6    6    0    0 -0.29277257400E+01 -0.36680565750E+01 -0.64582967917E+00  0.47386008506E+01  0.10500000000E+00 0. -1.
</event>
<event>
11    0  0.3494755E-009  0.9118800E+02  0.7816531E-02  0.1126479E+00
         25   -1    0    0    0    0  0.00000000000E+00  0.00000000000E+00  0.99999998245E-14  0.12500000000E+03  0.12500000000E+03 0.  0.
    3000001    1    3    3    0    0  0.42030336235E+01 -0.10966568902E+02 -0.12247521089E+02  0.16998026295E+02  0.10000000000E+01 0.  1.
    1000022    2    1    0    0    0 -0.21165123777E+00 -0.43550842549E+02 -0.43698160629E+02  0.62499999413E+02  0.10000000065E+02 0.  0.
    3000022    2    3    3    0    0 -0.44146848613E+01 -0.32584273647E+02 -0.31450639541E+02  0.45501973118E+02  0.24999716311E+00 0.  0.
    1000022    2    1    0    0    0  0.21165123777E+00  0.43550842549E+02  0.43698160629E+02  0.62500000587E+02  0.10000007404E+02 0.  0.
    3000022    2    5    5    0    0  0.87849104507E+00  0.43470337180E+02  0.42497442796E+02  0.60799153810E+02  0.24999762853E+00 0.  0.
        -13    1    4    4    0    0 -0.24939980793E+01 -0.18016638404E+02 -0.17452975265E+02  0.25207868939E+02  0.10500000000E+00 0. -1.
         13    1    4    4    0    0 -0.19206867819E+01 -0.14567635242E+02 -0.13997664275E+02  0.20294104179E+02  0.10500000000E+00 0.  1.
    3000001    1    5    5    0    0 -0.66683980730E+00  0.80505368812E-01  0.12007178334E+01  0.17008467769E+01  0.10000000000E+01 0. -1.
        -13    1    6    6    0    0  0.51621734452E+00  0.25071752819E+02  0.24420734246E+02  0.35003464913E+02  0.10500000000E+00 0.  1.
         13    1    6    6    0    0  0.36227370055E+00  0.18398584361E+02  0.18076708550E+02  0.25795688897E+02  0.10500000000E+00 0. -1.
</event>
<event>
11    0  0.3494755E-009  0.9118800E+02  0.7816531E-02  0.1126479E+00
         25   -1    0    0    0    0  0.00000000000E+00  0.00000000000E+00  0.99999998245E-14  0.12500000000E+03  0.12500000000E+03 0.  0.
    3000001    1    3    3    0    0  0.11865227365E+02  0.75415057084E+01  0.17235039222E+02  0.22264422421E+02  0.10000000000E+01 0.  1.
    1000022    2    1    0    0    0  0.26451624248E+02  0.32141284119E+02  0.45535694714E+02  0.62499998774E+02  0.99999891733E+01 0.  0.
    3000022    2    3    3    0    0  0.14586396883E+02  0.24599778410E+02  0.28300655493E+02  0.40235576353E+02  0.24986249176E+00 0.  0.
    1000022    2    1    0    0    0 -0.26451624248E+02 -0.32141284119E+02 -0.45535694714E+02  0.62500001226E+02  0.10000004500E+02 0.  0.
    3000022    2    5    5    0    0 -0.22542551192E+02 -0.31429730177E+02 -0.41884170967E+02  0.57011760448E+02  0.24999694021E+00 0.  0.
        -13    1    4    4    0    0  0.39069409769E+01  0.66448820454E+01  0.75983360453E+01  0.10824249667E+02  0.10500000000E+00 0.  1.
         13    1    4    4    0    0  0.10679455906E+02  0.17954896365E+02  0.20702319447E+02  0.29411326686E+02  0.10500000000E+00 0. -1.
    3000001    1    5    5    0    0 -0.39090730555E+01 -0.71155394139E+00 -0.36515237472E+01  0.54882407784E+01  0.10000000000E+01 0. -1.
        -13    1    6    6    0    0 -0.13648228066E+02 -0.19097049202E+02 -0.25347428950E+02  0.34546701680E+02  0.10500000000E+00 0. -1.
         13    1    6    6    0    0 -0.88943231265E+01 -0.12332680975E+02 -0.16536742017E+02  0.22465058768E+02  0.10500000000E+00 0.  1.
</event>
<event>
11    0  0.3494755E-009  0.9118800E+02  0.7816531E-02  0.1126479E+00
         25   -1    0    0    0    0  0.00000000000E+00  0.00000000000E+00  0.99999998245E-14  0.12500000000E+03  0.12500000000E+03 0.  0.
    3000001    1    3    3    0    0 -0.23643998548E+02  0.33503383246E+02 -0.28090041756E+02  0.49714844887E+02  0.10000000000E+01 0.  1.
    1000022    2    1    0    0    0 -0.33173271054E+02  0.41187182315E+02 -0.31771058253E+02  0.62500000163E+02  0.99999989224E+01 0.  0.
    3000022    2    3    3    0    0 -0.95292725063E+01  0.76837990686E+01 -0.36810164969E+01  0.12785155277E+02  0.25002073574E+00 0.  0.
    1000022    2    1    0    0    0  0.33173271054E+02 -0.41187182315E+02  0.31771058253E+02  0.62499999837E+02  0.99999968825E+01 0.  0.
    3000022    2    5    5    0    0  0.83182548996E+01 -0.46686262854E+01  0.70956510222E+01  0.11891181588E+02  0.25000034449E+00 0.  0.
        -13    1    4    4    0    0 -0.67903558916E+01  0.54346001299E+01 -0.25849268628E+01  0.90739563363E+01  0.10500000000E+00 0. -1.
         13    1    4    4    0    0 -0.27389166146E+01  0.22491989387E+01 -0.10960896340E+01  0.37111989402E+01  0.10500000000E+00 0.  1.
    3000001    1    5    5    0    0  0.24855016155E+02 -0.36518556029E+02  0.24675407230E+02  0.50608818248E+02  0.10000000000E+01 0.  1.
        -13    1    6    6    0    0  0.45749691384E+01 -0.26438695222E+01  0.39333401129E+01  0.65880633051E+01  0.10500000000E+00 0.  1.
         13    1    6    6    0    0  0.37432857611E+01 -0.20247567632E+01  0.31623109093E+01  0.53031182833E+01  0.10500000000E+00 0. -1.
</event>
<event>
11    0  0.3494755E-009  0.9118800E+02  0.7816531E-02  0.1126479E+00
         25   -1    0    0    0    0  0.00000000000E+00  0.00000000000E+00  0.99999998245E-14  0.12500000000E+03  0.12500000000E+03 0.  0.
    3000001    1    3    3    0    0  0.23069339552E+02 -0.30567695165E+01 -0.39056515481E+01  0.23617628612E+02  0.10000000000E+01 0.  1.
    1000022    2    1    0    0    0  0.58013711763E+02 -0.19856494653E+02 -0.68102046981E+01  0.62500000386E+02  0.10000001392E+02 0.  0.
    3000022    2    3    3    0    0  0.34944372211E+02 -0.16799725136E+02 -0.29045531499E+01  0.38882371774E+02  0.24998382450E+00 0.  0.
    1000022    2    1    0    0    0 -0.58013711763E+02  0.19856494653E+02  0.68102046981E+01  0.62499999614E+02  0.99999965637E+01 0.  0.
    3000022    2    5    5    0    0 -0.52720079040E+02  0.16566696577E+02  0.35016375508E+01  0.55373153513E+02  0.24998978969E+00 0.  0.
        -13    1    4    4    0    0  0.18684978850E+02 -0.89290569800E+01 -0.15980306057E+01  0.20770681741E+02  0.10500000000E+00 0. -1.
         13    1    4    4    0    0  0.16259393361E+02 -0.78706681565E+01 -0.13065225442E+01  0.18111690033E+02  0.10500000000E+00 0.  1.
    3000001    1    5    5    0    0 -0.52936327225E+01  0.32897980757E+01  0.33085671473E+01  0.71268461010E+01  0.10000000000E+01 0. -1.
        -13    1    6    6    0    0 -0.30524702084E+02  0.95329763396E+01  0.20585593478E+01  0.32045027178E+02  0.10500000000E+00 0. -1.
         13    1    6    6    0    0 -0.22195376956E+02  0.70337202377E+01  0.14430782030E+01  0.23328126335E+02  0.10500000000E+00 0.  1.
</event>
<event>
11    0  0.3494755E-009  0.9118800E+02  0.7816531E-02  0.1126479E+00
         25   -1    0    0    0    0  0.00000000000E+00  0.00000000000E+00  0.99999998245E-14  0.12500000000E+03  0.12500000000E+03 0.  0.
    3000001    1    3    3    0    0 -0.18771807765E+02  0.27251449326E+02 -0.44096145787E+02  0.55140659502E+02  0.10000000000E+01 0. -1.
    1000022    2    1    0    0    0 -0.21772958713E+02  0.33190946727E+02 -0.47228692816E+02  0.62499999762E+02  0.99999934673E+01 0.  0.
    3000022    2    3    3    0    0 -0.30011509476E+01  0.59394974018E+01 -0.31325470292E+01  0.73593402593E+01  0.25000353060E+00 0.  0.
    1000022    2    1    0    0    0  0.21772958713E+02 -0.33190946727E+02  0.47228692816E+02  0.62500000238E+02  0.99999964453E+01 0.  0.
    3000022    2    5    5    0    0  0.10839532464E+02 -0.16588241380E+02  0.31117933026E+02  0.36892458079E+02  0.24998246810E+00 0.  0.
        -13    1    4    4    0    0 -0.20384997623E+01  0.39986343772E+01 -0.20573698020E+01  0.49384566077E+01  0.10500000000E+00 0. -1.
         13    1    4    4    0    0 -0.96265118530E+00  0.19408630246E+01 -0.10751772272E+01  0.24208836516E+01  0.10500000000E+00 0.  1.
    3000001    1    5    5    0    0  0.10933426249E+02 -0.16602705348E+02  0.16110759790E+02  0.25607542159E+02  0.10000000000E+01 0. -1.
        -13    1    6    6    0    0  0.31871467999E+01 -0.49501207251E+01  0.92854192236E+01  0.10995073218E+02  0.10500000000E+00 0.  1.
         13    1    6    6    0    0  0.76523856643E+01 -0.11638120654E+02  0.21832513802E+02  0.25897384861E+02  0.10500000000E+00 0.  1.
</event>
<event>
11    0  0.3494755E-009  0.9118800E+02  0.7816531E-02  0.1126479E+00
         25   -1    0    0    0    0  0.00000000000E+00  0.00000000000E+00  0.99999998245E-14  0.12500000000E+03  0.12500000000E+03 0.  0.
    3000001    1    3    3    0    0  0.30316974268E+01 -0.41465939744E+01 -0.57283997509E+01  0.77588655474E+01  0.10000000000E+01 0.  1.
    1000022    2    1    0    0    0  0.22019640773E+02 -0.50622243480E+02 -0.27545852360E+02  0.62499999467E+02  0.99999918211E+01 0.  0.
    3000022    2    3    3    0    0  0.18987943346E+02 -0.46475649505E+02 -0.21817452609E+02  0.54741133919E+02  0.25002995353E+00 0.  0.
    1000022    2    1    0    0    0 -0.22019640773E+02  0.50622243480E+02  0.27545852360E+02  0.62500000533E+02  0.99999984853E+01 0.  0.
    3000022    2    5    5    0    0 -0.19516130090E+02  0.45675903298E+02  0.27683955665E+02  0.56865027645E+02  0.24998394963E+00 0.  0.
        -13    1    4    4    0    0  0.67940797821E+01 -0.16526625979E+02 -0.77190432932E+01  0.19464931048E+02  0.10500000000E+00 0.  1.
         13    1    4    4    0    0  0.12193863564E+02 -0.29949023526E+02 -0.14098409316E+02  0.35276202871E+02  0.10500000000E+00 0. -1.
    3000001    1    5    5    0    0 -0.25035106830E+01  0.49463401813E+01 -0.13810330477E+00  0.56349728883E+01  0.10000000000E+01 0.  1.
        -13    1    6    6    0    0 -0.84990525541E+01  0.19982886524E+02  0.12039710990E+02  0.24829726415E+02  0.10500000000E+00 0. -1.
         13    1    6    6    0    0 -0.11017077536E+02  0.25693016774E+02  0.15644244675E+02  0.32035301229E+02  0.10500000000E+00 0.  1.
</event>
<event>
11    0  0.3494755E-009  0.9118800E+02  0.7816531E-02  0.1126479E+00
         25   -1    0    0    0    0  0.00000000000E+00  0.00000000000E+00  0.99999998245E-14  0.12500000000E+03  0.12500000000E+03 0.  0.
    3000001    1    3    3    0    0  0.30050230542E+02 -0.29935217118E+01  0.21597513457E+02  0.37140680061E+02  0.10000000000E+01 0.  1.
    1000022    2    1    0    0    0  0.45742548485E+02 -0.76457944847E+00  0.41391844615E+02  0.62499999265E+02  0.99999891935E+01 0.  0.
    3000022    2    3    3    0    0  0.15692317943E+02  0.22289422633E+01  0.19794331158E+02  0.25359319204E+02  0.24999693649E+00 0.  0.
    1000022    2    1    0    0    0 -0.45742548485E+02  0.76457944847E+00 -0.41391844615E+02  0.62500000735E+02  0.99999983787E+01 0.  0.
    3000022    2    5    5    0    0 -0.17846924985E+02 -0.44938104146E+01 -0.15411522617E+02  0.24005928393E+02  0.25001025043E+00 0.  0.
        -13    1    4    4    0    0  0.65942949123E+01  0.98022287833E+00  0.82486294415E+01  0.10606435544E+02  0.10500000000E+00 0.  1.
         13    1    4    4    0    0  0.90980230307E+01  0.12487193850E+01  0.11545701717E+02  0.14752883661E+02  0.10500000000E+00 0. -1.
    3000001    1    5    5    0    0 -0.27895623499E+02  0.52583898631E+01 -0.25980321998E+02  0.38494072342E+02  0.10000000000E+01 0. -1.
        -13    1    6    6    0    0 -0.65541666071E+01 -0.16099006898E+01 -0.57095554064E+01  0.88407538187E+01  0.10500000000E+00 0.  1.
         13    1    6    6    0    0 -0.11292758378E+02 -0.28839097248E+01 -0.97019672109E+01  0.15165174574E+02  0.10500000000E+00 0. -1.
</event>
<event>
11    0  0.3494755E-009  0.9118800E+02  0.7816531E-02  0.1126479E+00
         25   -1    0    0    0    0  0.00000000000E+00  0.00000000000E+00  0.99999998245E-14  0.12500000000E+03  0.12500000000E+03 0.  0.
    3000001    1    3    3    0    0  0.89219861062E+01  0.42789010227E+01  0.77153025405E+01  0.12587165024E+02  0.10000000000E+01 0. -1.
    1000022    2    1    0    0    0  0.49228169056E+02  0.25166811429E+01  0.37101264259E+02  0.62499999540E+02  0.99999910148E+01 0.  0.
    3000022    2    3    3    0    0  0.40306182950E+02 -0.17622198798E+01  0.29385961719E+02  0.49912834517E+02  0.25000088432E+00 0.  0.
    1000022    2    1    0    0    0 -0.49228169056E+02 -0.25166811429E+01 -0.37101264259E+02  0.62500000460E+02  0.99999967614E+01 0.  0.
    3000022    2    5    5    0    0 -0.11194934510E+02 -0.43183584195E+01 -0.65525862648E+01  0.13673832289E+02  0.25004915505E+00 0.  0.
        -13    1    4    4    0    0  0.24955623898E+02 -0.10460566438E+01  0.18243650413E+02  0.30930877842E+02  0.10500000000E+00 0.  1.
         13    1    4    4    0    0  0.15350559052E+02 -0.71616323596E+00  0.11142311306E+02  0.18981956675E+02  0.10500000000E+00 0. -1.
    3000001    1    5    5    0    0 -0.38033234546E+02  0.18016772765E+01 -0.30548677994E+02  0.48826168171E+02  0.10000000000E+01 0.  1.
        -13    1    6    6    0    0 -0.46736096596E+01 -0.18710468222E+01 -0.27630449317E+01  0.57435951943E+01  0.10500000000E+00 0. -1.
         13    1    6    6    0    0 -0.65213248505E+01 -0.24473115972E+01 -0.37895413331E+01  0.79302370945E+01  0.10500000000E+00 0.  1.
</event>
<event>
11    0  0.3494755E-009  0.9118800E+02  0.7816531E-02  0.1126479E+00
         25   -1    0    0    0    0  0.00000000000E+00  0.00000000000E+00  0.99999998245E-14  0.12500000000E+03  0.12500000000E+03 0.  0.
    3000001    1    3    3    0    0 -0.53314002342E+00  0.30659456789E+01 -0.22271012649E+01  0.39552801715E+01  0.10000000000E+01 0. -1.
    1000022    2    1    0    0    0  0.15999181907E+02  0.29237308509E+02 -0.51917781388E+02  0.62499998927E+02  0.99999905545E+01 0.  0.
    3000022    2    3    3    0    0  0.16532321930E+02  0.26171362830E+02 -0.49690680123E+02  0.58544718756E+02  0.25000457129E+00 0.  0.
    1000022    2    1    0    0    0 -0.15999181907E+02 -0.29237308509E+02  0.51917781388E+02  0.62500001073E+02  0.10000003967E+02 0.  0.
    3000022    2    5    5    0    0  0.87400557902E+00 -0.10304142535E+01  0.51400569329E+01  0.53205568236E+01  0.25000070743E+00 0.  0.
        -13    1    4    4    0    0  0.39011556279E+01  0.62060203184E+01 -0.11762003583E+02  0.13859634075E+02  0.10500000000E+00 0.  1.
         13    1    4    4    0    0  0.12631166302E+02  0.19965342511E+02 -0.37928676540E+02  0.44685084680E+02  0.10500000000E+00 0. -1.
    3000001    1    5    5    0    0 -0.16873187486E+02 -0.28206894255E+02  0.46777724455E+02  0.57179444249E+02  0.10000000000E+01 0. -1.
        -13    1    6    6    0    0  0.26856117368E+00 -0.39647788856E+00  0.19321838514E+01  0.19934089535E+01  0.10500000000E+00 0. -1.
         13    1    6    6    0    0  0.60544440534E+00 -0.63393636493E+00  0.32078730815E+01  0.33271478701E+01  0.10500000000E+00 0.  1.
</event>
<event>
11    0  0.3494755E-009  0.9118800E+02  0.7816531E-02  0.1126479E+00
         25   -1    0    0    0    0  0.00000000000E+00  0.00000000000E+00  0.99999998245E-14  0.12500000000E+03  0.12500000000E+03 0.  0.
    3000001    1    3    3    0    0  0.40458607496E+02 -0.13163154811E+02  0.21155454537E+02  0.47526001533E+02  0.10000000000E+01 0. -1.
    1000022    2    1    0    0    0  0.54609930600E+02 -0.12253665535E+02  0.25958682879E+02  0.62499999599E+02  0.99999946965E+01 0.  0.
    3000022    2    3    3    0    0  0.14151323105E+02  0.90948927600E+00  0.48032283417E+01  0.14973998066E+02  0.24999846683E+00 0.  0.
    1000022    2    1    0    0    0 -0.54609930600E+02  0.12253665535E+02 -0.25958682879E+02  0.62500000401E+02  0.99999997048E+01 0.  0.
    3000022    2    5    5    0    0 -0.32601327960E+02  0.51554062941E+01 -0.10387429146E+02  0.34603265515E+02  0.25000258790E+00 0.  0.
        -13    1    4    4    0    0  0.76723430511E+01  0.51950969670E+00  0.26696743494E+01  0.81408184079E+01  0.10500000000E+00 0.  1.
         13    1    4    4    0    0  0.64789800535E+01  0.38997957930E+00  0.21335539924E+01  0.68331796584E+01  0.10500000000E+00 0. -1.
    3000001    1    5    5    0    0 -0.22008602641E+02  0.70982592406E+01 -0.15571253733E+02  0.27896734885E+02  0.10000000000E+01 0. -1.
        -13    1    6    6    0    0 -0.13646728631E+02  0.21173268626E+01 -0.43992959090E+01  0.14494174860E+02  0.10500000000E+00 0.  1.
         13    1    6    6    0    0 -0.18954599328E+02  0.30380794315E+01 -0.59881332368E+01  0.20109090655E+02  0.10500000000E+00 0. -1.
</event>
<event>
11    0  0.3494755E-009  0.9118800E+02  0.7816531E-02  0.1126479E+00
         25   -1    0    0    0    0  0.00000000000E+00  0.00000000000E+00  0.99999998245E-14  0.12500000000E+03  0.12500000000E+03 0.  0.
    3000001    1    3    3    0    0 -0.61506737287E+01 -0.17574315179E+02  0.27091321030E+02  0.32888098402E+02  0.10000000000E+01 0.  1.
    1000022    2    1    0    0    0 -0.34653936258E+01 -0.37237936531E+02  0.49067068900E+02  0.62500000159E+02  0.99999949702E+01 0.  0.
    3000022    2    3    3    0    0  0.26852801029E+01 -0.19663621352E+02  0.21975747869E+02  0.29611901757E+02  0.24999469651E+00 0.  0.
    1000022    2    1    0    0    0  0.34653936258E+01  0.37237936531E+02 -0.49067068900E+02  0.62499999841E+02  0.99999929836E+01 0.  0.
    3000022    2    5    5    0    0  0.47536076292E+01  0.26881224531E+02 -0.28804860673E+02  0.39686011566E+02  0.24999578743E+00 0.  0.
        -13    1    4    4    0    0  0.16063172477E+01 -0.11502532195E+02  0.12779630107E+02  0.17269003234E+02  0.10500000000E+00 0.  1.
         13    1    4    4    0    0  0.10789628552E+01 -0.81610891567E+01  0.91961177623E+01  0.12342898524E+02  0.10500000000E+00 0. -1.
    3000001    1    5    5    0    0 -0.12882140033E+01  0.10356712000E+02 -0.20262208227E+02  0.22813988275E+02  0.10000000000E+01 0. -1.
        -13    1    6    6    0    0  0.29515329623E+01  0.16812742679E+02 -0.17929802417E+02  0.24756185145E+02  0.10500000000E+00 0. -1.
         13    1    6    6    0    0  0.18020746669E+01  0.10068481852E+02 -0.10875058256E+02  0.14929826421E+02  0.10500000000E+00 0.  1.
</event>
<event>
11    0  0.3494755E-009  0.9118800E+02  0.7816531E-02  0.1126479E+00
         25   -1    0    0    0    0  0.00000000000E+00  0.00000000000E+00  0.99999998245E-14  0.12500000000E+03  0.12500000000E+03 0.  0.
    3000001    1    3    3    0    0 -0.17595800145E+01 -0.99826319705E+00  0.56211471586E-02  0.22566973292E+01  0.10000000000E+01 0. -1.
    1000022    2    1    0    0    0 -0.59875157991E+02  0.14813575758E+02  0.13316617489E+01  0.62500000201E+02  0.10000006545E+02 0.  0.
    3000022    2    3    3    0    0 -0.58115577977E+02  0.15811838955E+02  0.13260406017E+01  0.60243302872E+02  0.25000505387E+00 0.  0.
    1000022    2    1    0    0    0  0.59875157991E+02 -0.14813575758E+02 -0.13316617489E+01  0.62499999799E+02  0.10000004032E+02 0.  0.
    3000022    2    5    5    0    0  0.33775108203E+02 -0.13288477837E+02  0.11678573670E+00  0.36296249633E+02  0.25004239775E+00 0.  0.
        -13    1    4    4    0    0 -0.43715687934E+02  0.11917741594E+02  0.98782729551E+00  0.45321967786E+02  0.10500000000E+00 0. -1.
         13    1    4    4    0    0 -0.14399890043E+02  0.38940973613E+01  0.33821330623E+00  0.14921335086E+02  0.10500000000E+00 0.  1.
    3000001    1    5    5    0    0  0.26100049788E+02 -0.15250979211E+01 -0.14484474856E+01  0.26203750166E+02  0.10000000000E+01 0.  1.
        -13    1    6    6    0    0  0.17565939416E+02 -0.69818166766E+01  0.76727511916E-01  0.18903039538E+02  0.10500000000E+00 0.  1.
         13    1    6    6    0    0  0.16209168787E+02 -0.63066611604E+01  0.40058224789E-01  0.17393210095E+02  0.10500000000E+00 0. -1.
</event>
<event>
11    0  0.3494755E-009  0.9118800E+02  0.7816531E-02  0.1126479E+00
         25   -1    0    0    0    0  0.00000000000E+00  0.00000000000E+00  0.99999998245E-14  0.12500000000E+03  0.12500000000E+03 0.  0.
    3000001    1    3    3    0    0  0.33785723025E+01  0.18153927249E+01 -0.45530348998E+00  0.39896995898E+01  0.10000000000E+01 0. -1.
    1000022    2    1    0    0    0  0.60927236775E+02 -0.57866483143E+01 -0.77869104481E+01  0.62499995871E+02  0.10000001488E+02 0.  0.
    3000022    2    3    3    0    0  0.57548664473E+02 -0.76020410393E+01 -0.73316069581E+01  0.58510296281E+02  0.24999952027E+00 0.  0.
    1000022    2    1    0    0    0 -0.60927236775E+02  0.57866483143E+01  0.77869104481E+01  0.62500004129E+02  0.10000053102E+02 0.  0.
    3000022    2    5    5    0    0 -0.19063498644E+02  0.60103613372E+01  0.51296704855E+00  0.19996676373E+02  0.25001357588E+00 0.  0.
        -13    1    4    4    0    0  0.24922126295E+02 -0.32264404013E+01 -0.31652591877E+01  0.25328880501E+02  0.10500000000E+00 0. -1.
         13    1    4    4    0    0  0.32626538178E+02 -0.43756006379E+01 -0.41663477704E+01  0.33181415780E+02  0.10500000000E+00 0.  1.
    3000001    1    5    5    0    0 -0.41863738131E+02 -0.22371302284E+00  0.72739433995E+01  0.42503327757E+02  0.10000000000E+01 0.  1.
        -13    1    6    6    0    0 -0.13313032812E+02  0.41820529120E+01  0.31408592099E+00  0.13958369682E+02  0.10500000000E+00 0.  1.
         13    1    6    6    0    0 -0.57504658324E+01  0.18283084251E+01  0.19888112757E+00  0.60383066906E+01  0.10500000000E+00 0. -1.
</event>
<event>
11    0  0.3494755E-009  0.9118800E+02  0.7816531E-02  0.1126479E+00
         25   -1    0    0    0    0  0.00000000000E+00  0.00000000000E+00  0.99999998245E-14  0.12500000000E+03  0.12500000000E+03 0.  0.
    3000001    1    3    3    0    0  0.19107454151E+02  0.42372457248E+02 -0.96594171828E+01  0.47484990025E+02  0.10000000000E+01 0. -1.
    1000022    2    1    0    0    0  0.19791722186E+02  0.57177800403E+02 -0.12051415516E+02  0.62500001167E+02  0.10000020196E+02 0.  0.
    3000022    2    3    3    0    0  0.68426803437E+00  0.14805343155E+02 -0.23919983332E+01  0.15015011141E+02  0.24998976625E+00 0.  0.
    1000022    2    1    0    0    0 -0.19791722186E+02 -0.57177800403E+02  0.12051415516E+02  0.62499998833E+02  0.10000005614E+02 0.  0.
    3000022    2    5    5    0    0 -0.63232605405E+01 -0.32616178869E+02  0.80526429908E+01  0.34186346770E+02  0.24999696504E+00 0.  0.
        -13    1    4    4    0    0  0.31902419653E+00  0.65835801155E+01 -0.99823771707E+00  0.66672938375E+01  0.10500000000E+00 0.  1.
         13    1    4    4    0    0  0.36524383784E+00  0.82217630391E+01 -0.13937606161E+01  0.83477173040E+01  0.10500000000E+00 0. -1.
    3000001    1    5    5    0    0 -0.13468461645E+02 -0.24561621534E+02  0.39987725252E+01  0.28313652063E+02  0.10000000000E+01 0.  1.
        -13    1    6    6    0    0 -0.34817254638E+01 -0.18222888524E+02  0.44522195891E+01  0.19079553523E+02  0.10500000000E+00 0. -1.
         13    1    6    6    0    0 -0.28415350767E+01 -0.14393290345E+02  0.36004234016E+01  0.15106793247E+02  0.10500000000E+00 0.  1.
</event>
<event>
11    0  0.3494755E-009  0.9118800E+02  0.7816531E-02  0.1126479E+00
         25   -1    0    0    0    0  0.00000000000E+00  0.00000000000E+00  0.99999998245E-14  0.12500000000E+03  0.12500000000E+03 0.  0.
    3000001    1    3    3    0    0 -0.23325271083E+00  0.44174221164E+00  0.57495551357E+00  0.12570269891E+01  0.10000000000E+01 0.  1.
    1000022    2    1    0    0    0 -0.55050255935E+02 -0.16535378697E+01  0.27802611199E+02  0.62500000224E+02  0.99999986250E+01 0.  0.
    3000022    2    3    3    0    0 -0.54817003225E+02 -0.20952800813E+01  0.27227655686E+02  0.61242973235E+02  0.24999081894E+00 0.  0.
    1000022    2    1    0    0    0  0.55050255935E+02  0.16535378697E+01 -0.27802611199E+02  0.62499999776E+02  0.99999958202E+01 0.  0.
    3000022    2    5    5    0    0  0.99495292727E+01 -0.28265693337E+01 -0.77617206966E+01  0.12934041718E+02  0.25000007044E+00 0.  0.
        -13    1    4    4    0    0 -0.33671007440E+02 -0.13262807421E+01  0.16777974204E+02  0.37643156164E+02  0.10500000000E+00 0.  1.
         13    1    4    4    0    0 -0.21145995785E+02 -0.76899933918E+00  0.10449681482E+02  0.23599817071E+02  0.10500000000E+00 0. -1.
    3000001    1    5    5    0    0  0.45100726663E+02  0.44801072033E+01 -0.20040890503E+02  0.49565958058E+02  0.10000000000E+01 0.  1.
        -13    1    6    6    0    0  0.66945309389E+01 -0.19136436312E+01 -0.52878238587E+01  0.87436195366E+01  0.10500000000E+00 0. -1.
         13    1    6    6    0    0  0.32549983338E+01 -0.91292570245E+00 -0.24738968379E+01  0.41904221811E+01  0.10500000000E+00 0.  1.
</event>
<event>
11    0  0.3494755E-009  0.9118800E+02  0.7816531E-02  0.1126479E+00
         25   -1    0    0    0    0  0.00000000000E+00  0.00000000000E+00  0.99999998245E-14  0.12500000000E+03  0.12500000000E+03 0.  0.
    3000001    1    3    3    0    0  0.24697465343E+02  0.59540965462E+01 -0.24962586685E+02  0.35630700163E+02  0.10000000000E+01 0.  1.
    1000022    2    1    0    0    0  0.48266810925E+02  0.11119770745E+02 -0.36782004506E+02  0.62500001956E+02  0.10000002534E+02 0.  0.
    3000022    2    3    3    0    0  0.23569345581E+02  0.51656741991E+01 -0.11819417821E+02  0.26869301793E+02  0.25000029625E+00 0.  0.
    1000022    2    1    0    0    0 -0.48266810925E+02 -0.11119770745E+02  0.36782004506E+02  0.62499998044E+02  0.99999780892E+01 0.  0.
    3000022    2    5    5    0    0 -0.29101976981E+02 -0.36115280826E+01  0.16809759955E+02  0.33802347960E+02  0.24999710715E+00 0.  0.
        -13    1    4    4    0    0  0.10615328201E+02  0.23938044675E+01 -0.53433368106E+01  0.12123438700E+02  0.10500000000E+00 0.  1.
         13    1    4    4    0    0  0.12954017381E+02  0.27718697316E+01 -0.64760810106E+01  0.14745863093E+02  0.10500000000E+00 0. -1.
    3000001    1    5    5    0    0 -0.19164833944E+02 -0.75082426627E+01  0.19972244551E+02  0.28697650085E+02  0.10000000000E+01 0.  1.
        -13    1    6    6    0    0 -0.75844887348E+01 -0.90915275313E+00  0.43776639689E+01  0.88048847194E+01  0.10500000000E+00 0. -1.
         13    1    6    6    0    0 -0.21517488246E+02 -0.27023753294E+01  0.12432095987E+02  0.24997463240E+02  0.10500000000E+00 0.  1.
</event>
<event>
11    0  0.3494755E-009  0.9118800E+02  0.7816531E-02  0.1126479E+00
         25   -1    0    0    0    0  0.00000000000E+00  0.00000000000E+00  0.99999998245E-14  0.12500000000E+03  0.12500000000E+03 0.  0.
    3000001    1    3    3    0    0 -0.66111536315E+01  0.13536985587E+02 -0.40309325109E+01  0.15627083798E+02  0.10000000000E+01 0.  1.
    1000022    2    1    0    0    0 -0.22907778137E+02  0.47861021834E+02 -0.31477050308E+02  0.62500011131E+02  0.10000149257E+02 0.  0.
    3000022    2    3    3    0    0 -0.16296624505E+02  0.34324036247E+02 -0.27446117797E+02  0.46872927333E+02  0.25000022952E+00 0.  0.
    1000022    2    1    0    0    0  0.22907778137E+02 -0.47861021834E+02  0.31477050308E+02  0.62499988869E+02  0.10000010121E+02 0.  0.
    3000022    2    5    5    0    0  0.14866195202E+01 -0.61807189572E+01  0.75494327474E+01  0.98725761788E+01  0.25000234546E+00 0.  0.
        -13    1    4    4    0    0 -0.68129532848E+01  0.14461325363E+02 -0.11493323357E+02  0.19688925072E+02  0.10500000000E+00 0.  1.
         13    1    4    4    0    0 -0.94836712202E+01  0.19862710884E+02 -0.15952794440E+02  0.27184002261E+02  0.10500000000E+00 0. -1.
    3000001    1    5    5    0    0  0.21421158616E+02 -0.41680302876E+02  0.23927617561E+02  0.52627412690E+02  0.10000000000E+01 0. -1.
        -13    1    6    6    0    0  0.78843930015E+00 -0.31432276935E+01  0.39413055896E+01  0.51035704770E+01  0.10500000000E+00 0. -1.
         13    1    6    6    0    0  0.69818022006E+00 -0.30374912637E+01  0.36081271578E+01  0.47690057018E+01  0.10500000000E+00 0.  1.
</event>
<event>
11    0  0.3494755E-009  0.9118800E+02  0.7816531E-02  0.1126479E+00
         25   -1    0    0    0    0  0.00000000000E+00  0.00000000000E+00  0.99999998245E-14  0.12500000000E+03  0.12500000000E+03 0.  0.
    3000001    1    3    3    0    0  0.87538922620E+01 -0.13466917329E+01 -0.38861402028E+01  0.97234918642E+01  0.10000000000E+01 0.  1.
    1000022    2    1    0    0    0  0.42813148955E+02 -0.12409892861E+02 -0.42653004669E+02  0.62499998629E+02  0.99999928530E+01 0.  0.
    3000022    2    3    3    0    0  0.34059256693E+02 -0.11063201128E+02 -0.38766864466E+02  0.52776506765E+02  0.25000012791E+00 0.  0.
    1000022    2    1    0    0    0 -0.42813148955E+02  0.12409892861E+02  0.42653004669E+02  0.62500001371E+02  0.10000009989E+02 0.  0.
    3000022    2    5    5    0    0 -0.75615259111E+01  0.24027757942E+00  0.12129964915E+02  0.14298005363E+02  0.25000217870E+00 0.  0.
        -13    1    4    4    0    0  0.13830720005E+02 -0.44257109774E+01 -0.15723140143E+02  0.21403361756E+02  0.10500000000E+00 0.  1.
         13    1    4    4    0    0  0.20228536688E+02 -0.66374901511E+01 -0.23043724323E+02  0.31373145009E+02  0.10500000000E+00 0. -1.
    3000001    1    5    5    0    0 -0.35251623044E+02  0.12169615282E+02  0.30523039754E+02  0.48201996008E+02  0.10000000000E+01 0.  1.
        -13    1    6    6    0    0 -0.40137593840E+01  0.13818522380E+00  0.65645708079E+01  0.76963611169E+01  0.10500000000E+00 0. -1.
         13    1    6    6    0    0 -0.35477665271E+01  0.10209235562E+00  0.55653941072E+01  0.66016442459E+01  0.10500000000E+00 0.  1.
</event>
<event>
11    0  0.3494755E-009  0.9118800E+02  0.7816531E-02  0.1126479E+00
         25   -1    0    0    0    0  0.00000000000E+00  0.00000000000E+00  0.99999998245E-14  0.12500000000E+03  0.12500000000E+03 0.  0.
    3000001    1    3    3    0    0 -0.17469200665E+02 -0.26732795580E+02 -0.67084628555E+01  0.32646880484E+02  0.10000000000E+01 0. -1.
    1000022    2    1    0    0    0 -0.24803563174E+02 -0.55039117724E+02 -0.12717252548E+02  0.62500001082E+02  0.10000019846E+02 0.  0.
    3000022    2    3    3    0    0 -0.73343625081E+01 -0.28306322143E+02 -0.60087896920E+01  0.29853120598E+02  0.25001837161E+00 0.  0.
    1000022    2    1    0    0    0  0.24803563174E+02  0.55039117724E+02  0.12717252548E+02  0.62499998918E+02  0.10000006327E+02 0.  0.
    3000022    2    5    5    0    0  0.56568982914E+01  0.13593736764E+02 -0.11632226903E+01  0.14771789526E+02  0.25000255200E+00 0.  0.
        -13    1    4    4    0    0 -0.27351027757E+01 -0.10666848338E+02 -0.23176484146E+01  0.11253664285E+02  0.10500000000E+00 0. -1.
         13    1    4    4    0    0 -0.45992597325E+01 -0.17639473805E+02 -0.36911412774E+01  0.18599456313E+02  0.10500000000E+00 0.  1.
    3000001    1    5    5    0    0  0.19146664882E+02  0.41445380959E+02  0.13880475238E+02  0.47728209392E+02  0.10000000000E+01 0.  1.
        -13    1    6    6    0    0  0.14036607031E+01  0.33185175825E+01 -0.27526446898E+00  0.36151926426E+01  0.10500000000E+00 0. -1.
         13    1    6    6    0    0  0.42532375883E+01  0.10275219182E+02 -0.88795822134E+00  0.11156596884E+02  0.10500000000E+00 0.  1.
</event>
<event>
11    0  0.3494755E-009  0.9118800E+02  0.7816531E-02  0.1126479E+00
         25   -1    0    0    0    0  0.00000000000E+00  0.00000000000E+00  0.99999998245E-14  0.12500000000E+03  0.12500000000E+03 0.  0.
    3000001    1    3    3    0    0 -0.11615381092E+02  0.28243874564E+02  0.18981118797E+02  0.35971049458E+02  0.10000000000E+01 0.  1.
    1000022    2    1    0    0    0 -0.23849752725E+02  0.42835499034E+02  0.37450754530E+02  0.62500001569E+02  0.10000024932E+02 0.  0.
    3000022    2    3    3    0    0 -0.12234371633E+02  0.14591624470E+02  0.18469635733E+02  0.26528952111E+02  0.25000411860E+00 0.  0.
    1000022    2    1    0    0    0  0.23849752725E+02 -0.42835499034E+02 -0.37450754530E+02  0.62499998431E+02  0.10000005323E+02 0.  0.
    3000022    2    5    5    0    0  0.90225549266E+01 -0.78685620257E+01 -0.76024320291E+01  0.14183802032E+02  0.25000316409E+00 0.  0.
        -13    1    4    4    0    0 -0.39462616174E+01  0.47312764682E+01  0.59080803650E+01  0.85366501845E+01  0.10500000000E+00 0.  1.
         13    1    4    4    0    0 -0.82881100154E+01  0.98603480022E+01  0.12561555368E+02  0.17992301927E+02  0.10500000000E+00 0. -1.
    3000001    1    5    5    0    0  0.14827197799E+02 -0.34966937009E+02 -0.29848322501E+02  0.48316196399E+02  0.10000000000E+01 0. -1.
        -13    1    6    6    0    0  0.38521611094E+01 -0.33360190215E+01 -0.31619235035E+01  0.59980791398E+01  0.10500000000E+00 0. -1.
         13    1    6    6    0    0  0.51703938171E+01 -0.45325430041E+01 -0.44405085256E+01  0.81857228926E+01  0.10500000000E+00 0.  1.
</event>
<event>
11    0  0.3494755E-009  0.9118800E+02  0.7816531E-02  0.1126479E+00
         25   -1    0    0    0    0  0.00000000000E+00  0.00000000000E+00  0.99999998245E-14  0.12500000000E+03  0.12500000000E+03 0.  0.
    3000001    1    3    3    0    0  0.39651911817E+02 -0.19726749357E+02  0.38783193446E+01  0.44468641894E+02  0.10000000000E+01 0. -1.
    1000022    2    1    0    0    0  0.55621514792E+02 -0.24401294417E+02  0.10820064211E+02  0.62500001403E+02  0.10000015445E+02 0.  0.
    3000022    2    3    3    0    0  0.15969602975E+02 -0.46745450602E+01  0.69417448659E+01  0.18031359510E+02  0.25002655438E+00 0.  0.
    1000022    2    1    0    0    0 -0.55621514792E+02  0.24401294417E+02 -0.10820064211E+02  0.62499998597E+02  0.99999979014E+01 0.  0.
    3000022    2    5    5    0    0 -0.28580185278E+02  0.12220521582E+02 -0.52102705911E+00  0.31088616981E+02  0.24999664650E+00 0.  0.
        -13    1    4    4    0    0  0.10634136316E+02 -0.30835697630E+01  0.45690706386E+01  0.11978342505E+02  0.10500000000E+00 0. -1.
         13    1    4    4    0    0  0.53354666588E+01 -0.15909752972E+01  0.23726742273E+01  0.60530170041E+01  0.10500000000E+00 0.  1.
    3000001    1    5    5    0    0 -0.27041329514E+02  0.12180772835E+02 -0.10299037151E+02  0.31411381616E+02  0.10000000000E+01 0. -1.
        -13    1    6    6    0    0 -0.16439406506E+02  0.69680117854E+01 -0.33215546305E+00  0.17858572921E+02  0.10500000000E+00 0. -1.
         13    1    6    6    0    0 -0.12140778772E+02  0.52525097969E+01 -0.18887159606E+00  0.13230044060E+02  0.10500000000E+00 0.  1.
</event>
<event>
11    0  0.3494755E-009  0.9118800E+02  0.7816531E-02  0.1126479E+00
         25   -1    0    0    0    0  0.00000000000E+00  0.00000000000E+00  0.99999998245E-14  0.12500000000E+03  0.12500000000E+03 0.  0.
    3000001    1    3    3    0    0 -0.28398017839E+00 -0.42547284905E+01 -0.58047608776E+01  0.72717678810E+01  0.10000000000E+01 0.  1.
    1000022    2    1    0    0    0 -0.27193411344E+02 -0.27793492210E+02 -0.47898750776E+02  0.62499997677E+02  0.99999777019E+01 0.  0.
    3000022    2    3    3    0    0 -0.26909431166E+02 -0.23538763720E+02 -0.42093989898E+02  0.55228229796E+02  0.24999557403E+00 0.  0.
    1000022    2    1    0    0    0  0.27193411344E+02  0.27793492210E+02  0.47898750776E+02  0.62500002323E+02  0.10000006736E+02 0.  0.
    3000022    2    5    5    0    0  0.31622943290E+01  0.89163471809E+01  0.13359184695E+02  0.16371672476E+02  0.24998292659E+00 0.  0.
        -13    1    4    4    0    0 -0.15850880948E+02 -0.13910557696E+02 -0.24746343245E+02  0.32513790478E+02  0.10500000000E+00 0. -1.
         13    1    4    4    0    0 -0.11058550218E+02 -0.96282060237E+01 -0.17347646653E+02  0.22714439318E+02  0.10500000000E+00 0.  1.
    3000001    1    5    5    0    0  0.24031117015E+02  0.18877145029E+02  0.34539566081E+02  0.46128329847E+02  0.10000000000E+01 0.  1.
        -13    1    6    6    0    0  0.14782291495E+01  0.39697602200E+01  0.59710034405E+01  0.73217528441E+01  0.10500000000E+00 0. -1.
         13    1    6    6    0    0  0.16840651794E+01  0.49465869609E+01  0.73881812545E+01  0.90499196316E+01  0.10500000000E+00 0.  1.
</event>
<event>
11    0  0.3494755E-009  0.9118800E+02  0.7816531E-02  0.1126479E+00
         25   -1    0    0    0    0  0.00000000000E+00  0.00000000000E+00  0.99999998245E-14  0.12500000000E+03  0.12500000000E+03 0.  0.
    3000001    1    3    3    0    0  0.20152510053E+02 -0.28128847194E+02  0.29671024912E+02  0.45593041412E+02  0.10000000000E+01 0.  1.
    1000022    2    1    0    0    0  0.23266123692E+02 -0.42167311899E+02  0.38559763389E+02  0.62500000108E+02  0.99999978226E+01 0.  0.
    3000022    2    3    3    0    0  0.31136136391E+01 -0.14038464704E+02  0.88887384773E+01  0.16906958696E+02  0.24999892822E+00 0.  0.
    1000022    2    1    0    0    0 -0.23266123692E+02  0.42167311899E+02 -0.38559763389E+02  0.62499999892E+02  0.99999964753E+01 0.  0.
    3000022    2    5    5    0    0 -0.59786223871E+01  0.11531170750E+02 -0.16363290762E+02  0.20893338852E+02  0.24999861901E+00 0.  0.
        -13    1    4    4    0    0  0.13903636775E+01 -0.65762310676E+01  0.41666942107E+01  0.79090006863E+01  0.10500000000E+00 0.  1.
         13    1    4    4    0    0  0.17232499616E+01 -0.74622336369E+01  0.47220442666E+01  0.89979580093E+01  0.10500000000E+00 0. -1.
    3000001    1    5    5    0    0 -0.17287501305E+02  0.30636141148E+02 -0.22196472627E+02  0.41606661040E+02  0.10000000000E+01 0.  1.
        -13    1    6    6    0    0 -0.22702222737E+01  0.42796215835E+01 -0.60409654929E+01  0.77442468425E+01  0.10500000000E+00 0. -1.
         13    1    6    6    0    0 -0.37084001134E+01  0.72515491669E+01 -0.10322325269E+02  0.13149092010E+02  0.10500000000E+00 0.  1.
</event>
<event>
11    0  0.3494755E-009  0.9118800E+02  0.7816531E-02  0.1126479E+00
         25   -1    0    0    0    0  0.00000000000E+00  0.00000000000E+00  0.99999998245E-14  0.12500000000E+03  0.12500000000E+03 0.  0.
    3000001    1    3    3    0    0 -0.17830689209E+02  0.64883766357E+01 -0.23096282323E+02  0.29907704127E+02  0.10000000000E+01 0. -1.
    1000022    2    1    0    0    0 -0.28545091607E+02  0.17911436469E+02 -0.51677929338E+02  0.62500000011E+02  0.99999904742E+01 0.  0.
    3000022    2    3    3    0    0 -0.10714402398E+02  0.11423059834E+02 -0.28581647015E+02  0.32592295884E+02  0.24998035366E+00 0.  0.
    1000022    2    1    0    0    0  0.28545091607E+02 -0.17911436469E+02  0.51677929338E+02  0.62499999989E+02  0.99999903328E+01 0.  0.
    3000022    2    5    5    0    0  0.24993829489E+02 -0.17576959123E+02  0.40566104200E+02  0.50786930552E+02  0.25000077818E+00 0.  0.
        -13    1    4    4    0    0 -0.38460839129E+01  0.40423573725E+01 -0.10269934834E+02  0.11688267669E+02  0.10500000000E+00 0.  1.
         13    1    4    4    0    0 -0.68683184855E+01  0.73807024610E+01 -0.18311712181E+02  0.20904028215E+02  0.10500000000E+00 0. -1.
    3000001    1    5    5    0    0  0.35512621177E+01 -0.33447734639E+00  0.11111825138E+02  0.11713069437E+02  0.10000000000E+01 0. -1.
        -13    1    6    6    0    0  0.12924672064E+02 -0.90126795925E+01  0.20876172184E+02  0.26155327018E+02  0.10500000000E+00 0.  1.
         13    1    6    6    0    0  0.12069157426E+02 -0.85642795303E+01  0.19689932016E+02  0.24631603534E+02  0.10500000000E+00 0. -1.
</event>
<event>
11    0  0.3494755E-009  0.9118800E+02  0.7816531E-02  0.1126479E+00
         25   -1    0    0    0    0  0.00000000000E+00  0.00000000000E+00  0.99999998245E-14  0.12500000000E+03  0.12500000000E+03 0.  0.
    3000001    1    3    3    0    0 -0.24964991215E+02  0.48970587444E+02  0.15324467973E+02  0.57071959311E+02  0.10000000000E+01 0. -1.
    1000022    2    1    0    0    0 -0.24349617655E+02  0.54216432831E+02  0.16550671437E+02  0.62500002416E+02  0.10000005404E+02 0.  0.
    3000022    2    3    3    0    0  0.61537355984E+00  0.52458453873E+01  0.12262034640E+01  0.54280431047E+01  0.24999713257E+00 0.  0.
    1000022    2    1    0    0    0  0.24349617655E+02 -0.54216432831E+02 -0.16550671437E+02  0.62499997584E+02  0.99999752072E+01 0.  0.
    3000022    2    5    5    0    0  0.11287508442E+02 -0.16589955672E+02 -0.23562271805E+01  0.20205166597E+02  0.24994930465E+00 0.  0.
        -13    1    4    4    0    0  0.38078702471E+00  0.31260424072E+01  0.79432403353E+00  0.32494792752E+01  0.10500000000E+00 0.  1.
         13    1    4    4    0    0  0.23458653513E+00  0.21198029800E+01  0.43187943049E+00  0.21785638295E+01  0.10500000000E+00 0. -1.
    3000001    1    5    5    0    0  0.13062109213E+02 -0.37626477159E+02 -0.14194444256E+02  0.42294830987E+02  0.10000000000E+01 0.  1.
        -13    1    6    6    0    0  0.43555692596E+01 -0.65056469830E+01 -0.89876548136E+00  0.78811947465E+01  0.10500000000E+00 0. -1.
         13    1    6    6    0    0  0.69319391826E+01 -0.10084308689E+02 -0.14574616991E+01  0.12323971851E+02  0.10500000000E+00 0.  1.
</event>
<event>
11    0  0.3494755E-009  0.9118800E+02  0.7816531E-02  0.1126479E+00
         25   -1    0    0    0    0  0.00000000000E+00  0.00000000000E+00  0.99999998245E-14  0.12500000000E+03  0.12500000000E+03 0.  0.
    3000001    1    3    3    0    0 -0.45102089123E+02 -0.18488135739E+02  0.35698272986E+01  0.48885102775E+02  0.10000000000E+01 0.  1.
    1000022    2    1    0    0    0 -0.58591682781E+02 -0.18551649330E+02  0.53945686543E+01  0.62499997241E+02  0.99999650116E+01 0.  0.
    3000022    2    3    3    0    0 -0.13489593658E+02 -0.63513590696E-01  0.18247413557E+01  0.13614894466E+02  0.24999856872E+00 0.  0.
    1000022    2    1    0    0    0  0.58591682781E+02  0.18551649330E+02 -0.53945686543E+01  0.62500002759E+02  0.99999995001E+01 0.  0.
    3000022    2    5    5    0    0  0.36360288332E+02  0.64366534421E+01 -0.34698239985E+01  0.37089125827E+02  0.25000175907E+00 0.  0.
        -13    1    4    4    0    0 -0.93924464815E+01 -0.24053925570E-01  0.13130334601E+01  0.94843930415E+01  0.10500000000E+00 0.  1.
         13    1    4    4    0    0 -0.40971471762E+01 -0.39459665126E-01  0.51170789564E+00  0.41305014247E+01  0.10500000000E+00 0. -1.
    3000001    1    5    5    0    0  0.22231394448E+02  0.12114995888E+02 -0.19247446558E+01  0.25410876932E+02  0.10000000000E+01 0. -1.
        -13    1    6    6    0    0  0.25028725118E+02  0.44794037893E+01 -0.23804305875E+01  0.25537807544E+02  0.10500000000E+00 0. -1.
         13    1    6    6    0    0  0.11331563214E+02  0.19572496528E+01 -0.10893934110E+01  0.11551318283E+02  0.10500000000E+00 0.  1.
</event>
<event>
11    0  0.3494755E-009  0.9118800E+02  0.7816531E-02  0.1126479E+00
         25   -1    0    0    0    0  0.00000000000E+00  0.00000000000E+00  0.99999998245E-14  0.12500000000E+03  0.12500000000E+03 0.  0.
    3000001    1    3    3    0    0 -0.29578474010E+01  0.17469605371E+01 -0.40607286845E+02  0.40764598333E+02  0.10000000000E+01 0.  1.
    1000022    2    1    0    0    0 -0.10761347651E+02  0.59044741988E+01 -0.60461396391E+02  0.62500000262E+02  0.10000008023E+02 0.  0.
    3000022    2    3    3    0    0 -0.78035002499E+01  0.41575136617E+01 -0.19854109546E+02  0.21735401929E+02  0.24999034337E+00 0.  0.
    1000022    2    1    0    0    0  0.10761347651E+02 -0.59044741988E+01  0.60461396391E+02  0.62499999738E+02  0.10000004743E+02 0.  0.
    3000022    2    5    5    0    0  0.32694851768E+01  0.23556117338E+01  0.24671705140E+02  0.24999879434E+02  0.24999451017E+00 0.  0.
        -13    1    4    4    0    0 -0.37550418466E+01  0.20619799793E+01 -0.95190777071E+01  0.10439155430E+02  0.10500000000E+00 0.  1.
         13    1    4    4    0    0 -0.40484584033E+01  0.20955336824E+01 -0.10335031839E+02  0.11296246499E+02  0.10500000000E+00 0. -1.
    3000001    1    5    5    0    0  0.74918624741E+01 -0.82600859325E+01  0.35789691251E+02  0.37500120303E+02  0.10000000000E+01 0.  1.
        -13    1    6    6    0    0  0.16649063055E+01  0.11781493145E+01  0.12892179421E+02  0.13052940819E+02  0.10500000000E+00 0.  1.
         13    1    6    6    0    0  0.16045788713E+01  0.11774624192E+01  0.11779525719E+02  0.11946938615E+02  0.10500000000E+00 0. -1.
</event>
<event>
11    0  0.3494755E-009  0.9118800E+02  0.7816531E-02  0.1126479E+00
         25   -1    0    0    0    0  0.00000000000E+00  0.00000000000E+00  0.99999998245E-14  0.12500000000E+03  0.12500000000E+03 0.  0.
    3000001    1    3    3    0    0  0.30988132112E+02 -0.16499933843E+02 -0.32669981938E+02  0.47967070668E+02  0.10000000000E+01 0. -1.
    1000022    2    1    0    0    0  0.41443417256E+02 -0.24826137802E+02 -0.38371290193E+02  0.62500001420E+02  0.10000015722E+02 0.  0.
    3000022    2    3    3    0    0  0.10455285144E+02 -0.83262039591E+01 -0.57013082549E+01  0.14532930753E+02  0.25000125604E+00 0.  0.
    1000022    2    1    0    0    0 -0.41443417256E+02  0.24826137802E+02  0.38371290193E+02  0.62499998580E+02  0.99999979696E+01 0.  0.
    3000022    2    5    5    0    0 -0.52947779634E+01  0.76250269660E+01  0.74965558429E+01  0.11934678865E+02  0.25000037380E+00 0.  0.
        -13    1    4    4    0    0  0.27010625102E+01 -0.21807374564E+01 -0.15044151904E+01  0.37849233286E+01  0.10500000000E+00 0.  1.
         13    1    4    4    0    0  0.77542226340E+01 -0.61454665026E+01 -0.41968930646E+01  0.10748007424E+02  0.10500000000E+00 0. -1.
    3000001    1    5    5    0    0 -0.36148639292E+02  0.17201110836E+02  0.30874734350E+02  0.50565319715E+02  0.10000000000E+01 0. -1.
        -13    1    6    6    0    0 -0.23215839869E+01  0.33007353813E+01  0.33377325195E+01  0.52379470823E+01  0.10500000000E+00 0.  1.
         13    1    6    6    0    0 -0.29731939765E+01  0.43242915847E+01  0.41588233234E+01  0.66967317825E+01  0.10500000000E+00 0. -1.
</event>
<event>
11    0  0.3494755E-009  0.9118800E+02  0.7816531E-02  0.1126479E+00
         25   -1    0    0    0    0  0.00000000000E+00  0.00000000000E+00  0.99999998245E-14  0.12500000000E+03  0.12500000000E+03 0.  0.
    3000001    1    3    3    0    0 -0.40720508845E+02  0.68279412342E+01 -0.11711701899E+02  0.42929530436E+02  0.10000000000E+01 0.  1.
    1000022    2    1    0    0    0 -0.57978832074E+02  0.44267243378E+01 -0.20618169791E+02  0.62499998855E+02  0.10000003720E+02 0.  0.
    3000022    2    3    3    0    0 -0.17258323229E+02 -0.24012168964E+01 -0.89064678912E+01  0.19570468419E+02  0.25000119139E+00 0.  0.
    1000022    2    1    0    0    0  0.57978832074E+02 -0.44267243378E+01  0.20618169791E+02  0.62500001145E+02  0.10000018027E+02 0.  0.
    3000022    2    5    5    0    0  0.47739365284E+02 -0.18750377473E+01  0.20257302116E+02  0.51893964652E+02  0.25002808145E+00 0.  0.
        -13    1    4    4    0    0 -0.53078432002E+01 -0.78527845976E+00 -0.27565234907E+01  0.60331839398E+01  0.10500000000E+00 0. -1.
         13    1    4    4    0    0 -0.11950480029E+02 -0.16159384367E+01 -0.61499444005E+01  0.13537284480E+02  0.10500000000E+00 0.  1.
    3000001    1    5    5    0    0  0.10239466790E+02 -0.25516865905E+01  0.36086767459E+00  0.10606036493E+02  0.10000000000E+01 0. -1.
        -13    1    6    6    0    0  0.18526373384E+02 -0.66607228620E+00  0.78540744649E+01  0.20133744653E+02  0.10500000000E+00 0. -1.
         13    1    6    6    0    0  0.29212991900E+02 -0.12089654611E+01  0.12403227651E+02  0.31760219999E+02  0.10500000000E+00 0.  1.
</event>
<event>
11    0  0.3494755E-009  0.9118800E+02  0.7816531E-02  0.1126479E+00
         25   -1    0    0    0    0  0.00000000000E+00  0.00000000000E+00  0.99999998245E-14  0.12500000000E+03  0.12500000000E+03 0.  0.
    3000001    1    3    3    0    0 -0.29249306842E+02  0.14498371552E+02 -0.28067856366E+02  0.43064246067E+02  0.10000000000E+01 0. -1.
    1000022    2    1    0    0    0 -0.37045525941E+02  0.24229948695E+02 -0.42974278987E+02  0.62500001338E+02  0.10000005340E+02 0.  0.
    3000022    2    3    3    0    0 -0.77962190996E+01  0.97315771431E+01 -0.14906422621E+02  0.19435755271E+02  0.25004329267E+00 0.  0.
    1000022    2    1    0    0    0  0.37045525941E+02 -0.24229948695E+02  0.42974278987E+02  0.62499998662E+02  0.99999886130E+01 0.  0.
    3000022    2    5    5    0    0  0.33491641126E+02 -0.24478580078E+02  0.40909274901E+02  0.58262528105E+02  0.25000058655E+00 0.  0.
        -13    1    4    4    0    0 -0.58425174291E+01  0.72979787359E+01 -0.11133022487E+02  0.14537906253E+02  0.10500000000E+00 0. -1.
         13    1    4    4    0    0 -0.19537016705E+01  0.24335984072E+01 -0.37734001341E+01  0.48978490174E+01  0.10500000000E+00 0.  1.
    3000001    1    5    5    0    0  0.35538848156E+01  0.24863138347E+00  0.20650040863E+01  0.42374705573E+01  0.10000000000E+01 0.  1.
        -13    1    6    6    0    0  0.13852361321E+02 -0.10054875298E+02  0.16923542717E+02  0.24070848646E+02  0.10500000000E+00 0.  1.
         13    1    6    6    0    0  0.19639279804E+02 -0.14423704780E+02  0.23985732184E+02  0.34191679458E+02  0.10500000000E+00 0. -1.
</event>
<event>
11    0  0.3494755E-009  0.9118800E+02  0.7816531E-02  0.1126479E+00
         25   -1    0    0    0    0  0.00000000000E+00  0.00000000000E+00  0.99999998245E-14  0.12500000000E+03  0.12500000000E+03 0.  0.
    3000001    1    3    3    0    0 -0.53975467602E+02  0.10346816886E+02  0.28349901611E+02  0.61847592062E+02  0.10000000000E+01 0.  1.
    1000022    2    1    0    0    0 -0.53698709995E+02  0.99438365612E+01  0.28702240164E+02  0.62499999581E+02  0.10000000823E+02 0.  0.
    3000022    2    3    3    0    0  0.27675760671E+00 -0.40298032475E+00  0.35233855331E+00  0.65240751884E+00  0.25001039874E+00 0.  0.
    1000022    2    1    0    0    0  0.53698709995E+02 -0.99438365612E+01 -0.28702240164E+02  0.62500000419E+02  0.10000006063E+02 0.  0.
    3000022    2    5    5    0    0  0.44895039827E+02 -0.10485882065E+02 -0.27102521906E+02  0.53480160051E+02  0.25000341175E+00 0.  0.
        -13    1    4    4    0    0  0.76982777742E-01 -0.19541476311E+00  0.20722662712E+00  0.31317910642E+00  0.10500000000E+00 0. -1.
         13    1    4    4    0    0  0.19977482896E+00 -0.20756556164E+00  0.14511192619E+00  0.33922841241E+00  0.10500000000E+00 0.  1.
    3000001    1    5    5    0    0  0.88036701680E+01  0.54204550347E+00 -0.15997182581E+01  0.90198403678E+01  0.10000000000E+01 0. -1.
        -13    1    6    6    0    0  0.23176367225E+02 -0.53677744212E+01 -0.13925685739E+02  0.27566152222E+02  0.10500000000E+00 0.  1.
         13    1    6    6    0    0  0.21718672602E+02 -0.51181076434E+01 -0.13176836167E+02  0.25914007830E+02  0.10500000000E+00 0. -1.
</event>
<event>
11    0  0.3494755E-009  0.9118800E+02  0.7816531E-02  0.1126479E+00
         25   -1    0    0    0    0  0.00000000000E+00  0.00000000000E+00  0.99999998245E-14  0.12500000000E+03  0.12500000000E+03 0.  0.
    3000001    1    3    3    0    0 -0.66104693970E+01  0.47617451142E+00 -0.48314364985E+01  0.82624346565E+01  0.10000000000E+01 0. -1.
    1000022    2    1    0    0    0 -0.40443496746E+02  0.26207583986E+02 -0.38519295409E+02  0.62500000062E+02  0.10000000077E+02 0.  0.
    3000022    2    3    3    0    0 -0.33833027349E+02  0.25731409474E+02 -0.33687858910E+02  0.54237565405E+02  0.24998004636E+00 0.  0.
    1000022    2    1    0    0    0  0.40443496746E+02 -0.26207583986E+02  0.38519295409E+02  0.62499999938E+02  0.99999993047E+01 0.  0.
    3000022    2    5    5    0    0  0.28586330220E+02 -0.13785352793E+02  0.28092813507E+02  0.42384937158E+02  0.25000004985E+00 0.  0.
        -13    1    4    4    0    0 -0.22109298585E+02  0.16785432840E+02 -0.21935262058E+02  0.35379917836E+02  0.10500000000E+00 0.  1.
         13    1    4    4    0    0 -0.11723728764E+02  0.89459766340E+01 -0.11752596853E+02  0.18857647569E+02  0.10500000000E+00 0. -1.
    3000001    1    5    5    0    0  0.11857166526E+02 -0.12422231193E+02  0.10426481902E+02  0.20115062780E+02  0.10000000000E+01 0. -1.
        -13    1    6    6    0    0  0.10991257230E+02 -0.53184327139E+01  0.10887713860E+02  0.16359914429E+02  0.10500000000E+00 0.  1.
         13    1    6    6    0    0  0.17595072990E+02 -0.84669200791E+01  0.17205099647E+02  0.26025022729E+02  0.10500000000E+00 0. -1.
</event>
<event>
11    0  0.3494755E-009  0.9118800E+02  0.7816531E-02  0.1126479E+00
         25   -1    0    0    0    0  0.00000000000E+00  0.00000000000E+00  0.99999998245E-14  0.12500000000E+03  0.12500000000E+03 0.  0.
    3000001    1    3    3    0    0  0.43977882280E+02 -0.53088724514E+01  0.16488142425E+02  0.47276813526E+02  0.10000000000E+01 0. -1.
    1000022    2    1    0    0    0  0.55855550366E+02 -0.39186219733E+01  0.25904674732E+02  0.62499998982E+02  0.99999797447E+01 0.  0.
    3000022    2    3    3    0    0  0.11877668086E+02  0.13902504781E+01  0.94165323075E+01  0.15223185456E+02  0.24999835434E+00 0.  0.
    1000022    2    1    0    0    0 -0.55855550366E+02  0.39186219733E+01 -0.25904674732E+02  0.62500001018E+02  0.99999924718E+01 0.  0.
    3000022    2    5    5    0    0 -0.38182568462E+02  0.42193685665E+00 -0.13081902319E+02  0.40364405508E+02  0.24999748287E+00 0.  0.
        -13    1    4    4    0    0  0.86268862644E+01  0.10127367866E+01  0.67912175148E+01  0.11026353103E+02  0.10500000000E+00 0. -1.
         13    1    4    4    0    0  0.32507818214E+01  0.37751369148E+00  0.26253147928E+01  0.41968323530E+01  0.10500000000E+00 0.  1.
    3000001    1    5    5    0    0 -0.17672981904E+02  0.34966851166E+01 -0.12822772414E+02  0.22135595510E+02  0.10000000000E+01 0.  1.
        -13    1    6    6    0    0 -0.16521864203E+02  0.20258799337E+00 -0.57268945783E+01  0.17487749574E+02  0.10500000000E+00 0. -1.
         13    1    6    6    0    0 -0.21660704259E+02  0.21934886328E+00 -0.73550077402E+01  0.22876655935E+02  0.10500000000E+00 0.  1.
</event>
<event>
11    0  0.3494755E-009  0.9118800E+02  0.7816531E-02  0.1126479E+00
         25   -1    0    0    0    0  0.00000000000E+00  0.00000000000E+00  0.99999998245E-14  0.12500000000E+03  0.12500000000E+03 0.  0.
    3000001    1    3    3    0    0 -0.14298791337E+02  0.26094208919E+02  0.44451834621E+02  0.53500736200E+02  0.10000000000E+01 0.  1.
    1000022    2    1    0    0    0 -0.20206857019E+02  0.30154513874E+02  0.49886253945E+02  0.62499998852E+02  0.99999873104E+01 0.  0.
    3000022    2    3    3    0    0 -0.59080656820E+01  0.40603049554E+01  0.54344193243E+01  0.89992626516E+01  0.24999689232E+00 0.  0.
    1000022    2    1    0    0    0  0.20206857019E+02 -0.30154513874E+02 -0.49886253945E+02  0.62500001148E+02  0.10000001660E+02 0.  0.
    3000022    2    5    5    0    0  0.26506445763E+01 -0.49368786682E+01 -0.14925328091E+02  0.15944485285E+02  0.25000940564E+00 0.  0.
        -13    1    4    4    0    0 -0.18808049883E+01  0.12378172859E+01  0.16825314229E+01  0.28127488381E+01  0.10500000000E+00 0.  1.
         13    1    4    4    0    0 -0.40272606937E+01  0.28224876696E+01  0.37518879014E+01  0.61865138135E+01  0.10500000000E+00 0. -1.
    3000001    1    5    5    0    0  0.17556212443E+02 -0.25217635206E+02 -0.34960925854E+02  0.46555515863E+02  0.10000000000E+01 0.  1.
        -13    1    6    6    0    0  0.18758323178E+01 -0.35175653890E+01 -0.10495331407E+02  0.11227422656E+02  0.10500000000E+00 0. -1.
         13    1    6    6    0    0  0.77481225854E+00 -0.14193132792E+01 -0.44299966846E+01  0.47170626290E+01  0.10500000000E+00 0.  1.
</event>
<event>
11    0  0.3494755E-009  0.9118800E+02  0.7816531E-02  0.1126479E+00
         25   -1    0    0    0    0  0.00000000000E+00  0.00000000000E+00  0.99999998245E-14  0.12500000000E+03  0.12500000000E+03 0.  0.
    3000001    1    3    3    0    0  0.67061752897E+01 -0.25480792985E+02 -0.96256113606E+00  0.26385035950E+02  0.10000000000E+01 0.  1.
    1000022    2    1    0    0    0  0.24290810706E+02 -0.56520178967E+02  0.46557460123E+01  0.62500001788E+02  0.10000006866E+02 0.  0.
    3000022    2    3    3    0    0  0.17584635417E+02 -0.31039385982E+02  0.56183071483E+01  0.36114965837E+02  0.24999471880E+00 0.  0.
    1000022    2    1    0    0    0 -0.24290810706E+02  0.56520178967E+02 -0.46557460123E+01  0.62499998212E+02  0.99999845172E+01 0.  0.
    3000022    2    5    5    0    0 -0.14213310021E+02  0.21014342970E+02 -0.88817176207E+00  0.25386455864E+02  0.25000005167E+00 0.  0.
        -13    1    4    4    0    0  0.68917242818E+01 -0.12092120949E+02  0.22431838051E+01  0.14098161271E+02  0.10500000000E+00 0.  1.
         13    1    4    4    0    0  0.10692911135E+02 -0.18947265033E+02  0.33751233432E+01  0.22016804567E+02  0.10500000000E+00 0. -1.
    3000001    1    5    5    0    0 -0.10077500685E+02  0.35505835997E+02 -0.37675742502E+01  0.37113542348E+02  0.10000000000E+01 0.  1.
        -13    1    6    6    0    0 -0.45194032766E+01  0.66362827489E+01 -0.32404079852E+00  0.80362480137E+01  0.10500000000E+00 0.  1.
         13    1    6    6    0    0 -0.96939067447E+01  0.14378060221E+02 -0.56413096355E+00  0.17350207850E+02  0.10500000000E+00 0. -1.
</event>
<event>
11    0  0.3494755E-009  0.9118800E+02  0.7816531E-02  0.1126479E+00
         25   -1    0    0    0    0  0.00000000000E+00  0.00000000000E+00  0.99999998245E-14  0.12500000000E+03  0.12500000000E+03 0.  0.
    3000001    1    3    3    0    0 -0.10920481309E+00  0.49075284021E+02  0.37392877451E+02  0.61705937409E+02  0.10000000000E+01 0. -1.
    1000022    2    1    0    0    0  0.20162747016E+00  0.48653569417E+02  0.37934698859E+02  0.62499997744E+02  0.99998934897E+01 0.  0.
    3000022    2    3    3    0    0  0.31083228325E+00 -0.42171460387E+00  0.54182140739E+00  0.79406033477E+00  0.25000292461E+00 0.  0.
    1000022    2    1    0    0    0 -0.20162747016E+00 -0.48653569417E+02 -0.37934698859E+02  0.62500002256E+02  0.99999216913E+01 0.  0.
    3000022    2    5    5    0    0  0.24369818678E+01 -0.22556450067E+02 -0.12293995783E+02  0.25805758131E+02  0.25000040770E+00 0.  0.
        -13    1    4    4    0    0  0.11165546146E+00 -0.25507359365E+00  0.24019097147E+00  0.38242147302E+00  0.10500000000E+00 0. -1.
         13    1    4    4    0    0  0.19917682180E+00 -0.16664101022E+00  0.30163043593E+00  0.41163886175E+00  0.10500000000E+00 0.  1.
    3000001    1    5    5    0    0 -0.26386093379E+01 -0.26097119351E+02 -0.25640703076E+02  0.36694244125E+02  0.10000000000E+01 0. -1.
        -13    1    6    6    0    0  0.57015148938E+00 -0.54224490383E+01 -0.29412960350E+01  0.61959885135E+01  0.10500000000E+00 0.  1.
         13    1    6    6    0    0  0.18668303784E+01 -0.17134001028E+02 -0.93526997475E+01  0.19609769618E+02  0.10500000000E+00 0. -1.
</event>
<event>
11    0  0.3494755E-009  0.9118800E+02  0.7816531E-02  0.1126479E+00
         25   -1    0    0    0    0  0.00000000000E+00  0.00000000000E+00  0.99999998245E-14  0.12500000000E+03  0.12500000000E+03 0.  0.
    3000001    1    3    3    0    0 -0.15949194168E+02 -0.24146155058E+01 -0.40596904379E+01  0.16663980590E+02  0.10000000000E+01 0.  1.
    1000022    2    1    0    0    0 -0.60935143392E+02 -0.96009535865E+01  0.98996296592E+00  0.62499998985E+02  0.99999918244E+01 0.  0.
    3000022    2    3    3    0    0 -0.44985949224E+02 -0.71863380807E+01  0.50496534038E+01  0.45836018395E+02  0.25000045856E+00 0.  0.
    1000022    2    1    0    0    0  0.60935143392E+02  0.96009535865E+01 -0.98996296592E+00  0.62500001015E+02  0.10000004515E+02 0.  0.
    3000022    2    5    5    0    0  0.95610023333E+01  0.52221409756E+01  0.49786313333E+00  0.10908431977E+02  0.24999700347E+00 0.  0.
        -13    1    4    4    0    0 -0.30847962689E+02 -0.49262722730E+01  0.34128957463E+01  0.31424892092E+02  0.10500000000E+00 0.  1.
         13    1    4    4    0    0 -0.14137986534E+02 -0.22600658077E+01  0.16367576575E+01  0.14411126303E+02  0.10500000000E+00 0. -1.
    3000001    1    5    5    0    0  0.51374141058E+02  0.43788126109E+01 -0.14878260993E+01  0.51591569039E+02  0.10000000000E+01 0. -1.
        -13    1    6    6    0    0  0.39842121536E+01  0.21029019614E+01  0.20526731367E+00  0.45110201522E+01  0.10500000000E+00 0.  1.
         13    1    6    6    0    0  0.55767901797E+01  0.31192390142E+01  0.29259581966E+00  0.63974118243E+01  0.10500000000E+00 0. -1.
</event>
<event>
11    0  0.3494755E-009  0.9118800E+02  0.7816531E-02  0.1126479E+00
         25   -1    0    0    0    0  0.00000000000E+00  0.00000000000E+00  0.99999998245E-14  0.12500000000E+03  0.12500000000E+03 0.  0.
    3000001    1    3    3    0    0 -0.17202430216E+02  0.10930975724E+02 -0.38967952915E+02  0.43987625419E+02  0.10000000000E+01 0.  1.
    1000022    2    1    0    0    0 -0.19786748413E+02  0.11526336078E+02 -0.57287678481E+02  0.62499999501E+02  0.99999997842E+01 0.  0.
    3000022    2    3    3    0    0 -0.25843181975E+01  0.59536035463E+00 -0.18319725566E+02  0.18512374082E+02  0.24998966907E+00 0.  0.
    1000022    2    1    0    0    0  0.19786748413E+02 -0.11526336078E+02  0.57287678481E+02  0.62500000499E+02  0.10000006024E+02 0.  0.
    3000022    2    5    5    0    0  0.19149114700E+02 -0.12958822745E+02  0.53326205548E+02  0.58123716390E+02  0.25005631822E+00 0.  0.
        -13    1    4    4    0    0 -0.12001549985E+01  0.34281298774E+00 -0.84825333083E+01  0.85745139274E+01  0.10500000000E+00 0.  1.
         13    1    4    4    0    0 -0.13841631990E+01  0.25254736690E+00 -0.98371922580E+01  0.99378601547E+01  0.10500000000E+00 0. -1.
    3000001    1    5    5    0    0  0.63763371329E+00  0.14324866663E+01  0.39614729334E+01  0.43762841091E+01  0.10000000000E+01 0.  1.
        -13    1    6    6    0    0  0.47279906553E+01 -0.32287027355E+01  0.13222110080E+02  0.14408804148E+02  0.10500000000E+00 0.  1.
         13    1    6    6    0    0  0.14421124045E+02 -0.97301200091E+01  0.40104095467E+02  0.43714912242E+02  0.10500000000E+00 0. -1.
</event>
<event>
11    0  0.3494755E-009  0.9118800E+02  0.7816531E-02  0.1126479E+00
         25   -1    0    0    0    0  0.00000000000E+00  0.00000000000E+00  0.99999998245E-14  0.12500000000E+03  0.12500000000E+03 0.  0.
    3000001    1    3    3    0    0 -0.15632386448E+02  0.10569618778E+02 -0.13721765256E+02  0.23353269341E+02  0.10000000000E+01 0.  1.
    1000022    2    1    0    0    0 -0.37253181190E+02  0.19751919019E+02 -0.45036787531E+02  0.62499999925E+02  0.99999972929E+01 0.  0.
    3000022    2    3    3    0    0 -0.21620794741E+02  0.91823002413E+01 -0.31315022275E+02  0.39146730584E+02  0.24998476341E+00 0.  0.
    1000022    2    1    0    0    0  0.37253181190E+02 -0.19751919019E+02  0.45036787531E+02  0.62500000075E+02  0.99999982283E+01 0.  0.
    3000022    2    5    5    0    0  0.14391062984E+02 -0.59581769922E+01  0.10297928886E+02  0.18673842726E+02  0.24999191941E+00 0.  0.
        -13    1    4    4    0    0 -0.60457348030E+01  0.25484471041E+01 -0.88060566522E+01  0.10981946581E+02  0.10500000000E+00 0. -1.
         13    1    4    4    0    0 -0.15575059938E+02  0.66338531371E+01 -0.22508965623E+02  0.28164784003E+02  0.10500000000E+00 0.  1.
    3000001    1    5    5    0    0  0.22862118206E+02 -0.13793742027E+02  0.34738858645E+02  0.43826157349E+02  0.10000000000E+01 0.  1.
        -13    1    6    6    0    0  0.77389505972E+01 -0.32496776017E+01  0.56118787098E+01  0.10097324820E+02  0.10500000000E+00 0.  1.
         13    1    6    6    0    0  0.66521123864E+01 -0.27084993905E+01  0.46860501758E+01  0.85765179065E+01  0.10500000000E+00 0. -1.
</event>
<event>
11    0  0.3494755E-009  0.9118800E+02  0.7816531E-02  0.1126479E+00
         25   -1    0    0    0    0  0.00000000000E+00  0.00000000000E+00  0.99999998245E-14  0.12500000000E+03  0.12500000000E+03 0.  0.
    3000001    1    3    3    0    0  0.81196140115E+01 -0.30466890738E+02  0.54735653870E+01  0.32017487112E+02  0.10000000000E+01 0.  1.
    1000022    2    1    0    0    0  0.20321886871E+02 -0.55342504039E+02  0.18179046669E+02  0.62499996475E+02  0.99999991114E+01 0.  0.
    3000022    2    3    3    0    0  0.12202272859E+02 -0.24875613302E+02  0.12705481282E+02  0.30482509363E+02  0.25004476638E+00 0.  0.
    1000022    2    1    0    0    0 -0.20321886871E+02  0.55342504039E+02 -0.18179046669E+02  0.62500003525E+02  0.10000043174E+02 0.  0.
    3000022    2    5    5    0    0 -0.41770249277E+01  0.19070975615E+02 -0.10058620398E+02  0.21963332914E+02  0.25000044527E+00 0.  0.
        -13    1    4    4    0    0  0.79079838263E+01 -0.16204511256E+02  0.82210308874E+01  0.19817133171E+02  0.10500000000E+00 0.  1.
         13    1    4    4    0    0  0.42942890332E+01 -0.86711020453E+01  0.44844503946E+01  0.10665376192E+02  0.10500000000E+00 0. -1.
    3000001    1    5    5    0    0 -0.16144861943E+02  0.36271528424E+02 -0.81204262714E+01  0.40536670611E+02  0.10000000000E+01 0.  1.
        -13    1    6    6    0    0 -0.19068743464E+01  0.89669981443E+01 -0.47657382440E+01  0.10332788177E+02  0.10500000000E+00 0.  1.
         13    1    6    6    0    0 -0.22701505813E+01  0.10103977471E+02 -0.52928821537E+01  0.11630544737E+02  0.10500000000E+00 0. -1.
</event>
<event>
11    0  0.3494755E-009  0.9118800E+02  0.7816531E-02  0.1126479E+00
         25   -1    0    0    0    0  0.00000000000E+00  0.00000000000E+00  0.99999998245E-14  0.12500000000E+03  0.12500000000E+03 0.  0.
    3000001    1    3    3    0    0 -0.20059254559E+02  0.31123231729E+01  0.42387839012E+01  0.20761202709E+02  0.10000000000E+01 0.  1.
    1000022    2    1    0    0    0 -0.57318261834E+02  0.21715923134E+02  0.70203602462E+01  0.62500000295E+02  0.10000006082E+02 0.  0.
    3000022    2    3    3    0    0 -0.37259007275E+02  0.18603599962E+02  0.27815763451E+01  0.41738797586E+02  0.25000449647E+00 0.  0.
    1000022    2    1    0    0    0  0.57318261834E+02 -0.21715923134E+02 -0.70203602462E+01  0.62499999705E+02  0.10000002394E+02 0.  0.
    3000022    2    5    5    0    0  0.24010064197E+02 -0.14280382795E+02 -0.40380500086E+01  0.28227307013E+02  0.24999570766E+00 0.  0.
        -13    1    4    4    0    0 -0.28468891226E+02  0.14231477685E+02  0.21288904120E+01  0.31899152405E+02  0.10500000000E+00 0.  1.
         13    1    4    4    0    0 -0.87901160491E+01  0.43721222764E+01  0.65268593313E+00  0.98396451808E+01  0.10500000000E+00 0. -1.
    3000001    1    5    5    0    0  0.33308197638E+02 -0.74355403396E+01 -0.29823102376E+01  0.34272692692E+02  0.10000000000E+01 0. -1.
        -13    1    6    6    0    0  0.13706653005E+02 -0.80761240824E+01 -0.23036008603E+01  0.16075251746E+02  0.10500000000E+00 0. -1.
         13    1    6    6    0    0  0.10303411192E+02 -0.62042587123E+01 -0.17344491483E+01  0.12152055267E+02  0.10500000000E+00 0.  1.
</event>
<event>
11    0  0.3494755E-009  0.9118800E+02  0.7816531E-02  0.1126479E+00
         25   -1    0    0    0    0  0.00000000000E+00  0.00000000000E+00  0.99999998245E-14  0.12500000000E+03  0.12500000000E+03 0.  0.
    3000001    1    3    3    0    0 -0.50434042070E+01  0.16809243225E+02 -0.15684272087E+02  0.23558076634E+02  0.10000000000E+01 0.  1.
    1000022    2    1    0    0    0 -0.15062082130E+02  0.34395928646E+02 -0.48952055432E+02  0.62499999028E+02  0.99999960951E+01 0.  0.
    3000022    2    3    3    0    0 -0.10018677923E+02  0.17586685421E+02 -0.33267783345E+02  0.38941922394E+02  0.24999918994E+00 0.  0.
    1000022    2    1    0    0    0  0.15062082130E+02 -0.34395928646E+02  0.48952055432E+02  0.62500000972E+02  0.10000008247E+02 0.  0.
    3000022    2    5    5    0    0  0.14519775177E+02 -0.23295341479E+02  0.37874628727E+02  0.46776562586E+02  0.25000057407E+00 0.  0.
        -13    1    4    4    0    0 -0.67315091566E+01  0.11730530690E+02 -0.22290536715E+02  0.26072928831E+02  0.10500000000E+00 0.  1.
         13    1    4    4    0    0 -0.32871687666E+01  0.58561547318E+01 -0.10977246630E+02  0.12868993563E+02  0.10500000000E+00 0. -1.
    3000001    1    5    5    0    0  0.54230695272E+00 -0.11100587167E+02  0.11077426705E+02  0.15723438387E+02  0.10000000000E+01 0. -1.
        -13    1    6    6    0    0  0.82844732223E+01 -0.13358910692E+02  0.21781948929E+02  0.26861818918E+02  0.10500000000E+00 0.  1.
         13    1    6    6    0    0  0.62353019552E+01 -0.99364307878E+01  0.16092679798E+02  0.19914743668E+02  0.10500000000E+00 0. -1.
</event>
<event>
11    0  0.3494755E-009  0.9118800E+02  0.7816531E-02  0.1126479E+00
         25   -1    0    0    0    0  0.00000000000E+00  0.00000000000E+00  0.99999998245E-14  0.12500000000E+03  0.12500000000E+03 0.  0.
    3000001    1    3    3    0    0  0.51930734072E+02 -0.29221195365E+02  0.39412566572E+01  0.59726149247E+02  0.10000000000E+01 0. -1.
    1000022    2    1    0    0    0  0.53201103415E+02 -0.31145429812E+02  0.24196704877E+01  0.62500000495E+02  0.10000002692E+02 0.  0.
    3000022    2    3    3    0    0  0.12703693421E+01 -0.19242344472E+01 -0.15215861695E+01  0.27738512474E+01  0.25001959614E+00 0.  0.
    1000022    2    1    0    0    0 -0.53201103415E+02  0.31145429812E+02 -0.24196704877E+01  0.62499999505E+02  0.99999965093E+01 0.  0.
    3000022    2    5    5    0    0 -0.80672592143E+01  0.92505949681E+01 -0.68878687872E+00  0.12295979316E+02  0.25000294172E+00 0.  0.
        -13    1    4    4    0    0  0.83329958999E+00 -0.11632980312E+01 -0.97405129709E+00  0.17342005205E+01  0.10500000000E+00 0. -1.
         13    1    4    4    0    0  0.43706975214E+00 -0.76093641597E+00 -0.54753487242E+00  0.10396507269E+01  0.10500000000E+00 0.  1.
    3000001    1    5    5    0    0 -0.45133844200E+02  0.21894834844E+02 -0.17308836089E+01  0.50204020190E+02  0.10000000000E+01 0. -1.
        -13    1    6    6    0    0 -0.44659491757E+01  0.51133551456E+01 -0.31453876600E+00  0.67971363470E+01  0.10500000000E+00 0.  1.
         13    1    6    6    0    0 -0.36013100386E+01  0.41372398225E+01 -0.37424811272E+00  0.54988429686E+01  0.10500000000E+00 0. -1.
</event>
<event>
11    0  0.3494755E-009  0.9118800E+02  0.7816531E-02  0.1126479E+00
         25   -1    0    0    0    0  0.00000000000E+00  0.00000000000E+00  0.99999998245E-14  0.12500000000E+03  0.12500000000E+03 0.  0.
    3000001    1    3    3    0    0 -0.32198882501E+01  0.30879632603E+02 -0.51506395238E+02  0.60148384354E+02  0.10000000000E+01 0.  1.
    1000022    2    1    0    0    0 -0.42652145393E+01  0.30366889229E+02 -0.53534195894E+02  0.62500000529E+02  0.99999959813E+01 0.  0.
    3000022    2    3    3    0    0 -0.10453262892E+01 -0.51274337421E+00 -0.20278006561E+01  0.23516161747E+01  0.25002062690E+00 0.  0.
    1000022    2    1    0    0    0  0.42652145393E+01 -0.30366889229E+02  0.53534195894E+02  0.62499999471E+02  0.99999893677E+01 0.  0.
    3000022    2    5    5    0    0  0.35628849629E+01 -0.20214929093E+02  0.43847854854E+02  0.48415228824E+02  0.24999861597E+00 0.  0.
        -13    1    4    4    0    0 -0.56747105005E+00 -0.32452233156E+00 -0.12328185276E+01  0.13993586596E+01  0.10500000000E+00 0.  1.
         13    1    4    4    0    0 -0.47785523917E+00 -0.18822104265E+00 -0.79498212848E+00  0.95225751512E+00  0.10500000000E+00 0. -1.
    3000001    1    5    5    0    0  0.70232957644E+00 -0.10151960136E+02  0.96863410404E+01  0.14084770647E+02  0.10000000000E+01 0. -1.
        -13    1    6    6    0    0  0.20896067466E+01 -0.11676560582E+02  0.25473128617E+02  0.28099819037E+02  0.10500000000E+00 0. -1.
         13    1    6    6    0    0  0.14732782163E+01 -0.85383685109E+01  0.18374726237E+02  0.20315409787E+02  0.10500000000E+00 0.  1.
</event>
<event>
11    0  0.3494755E-009  0.9118800E+02  0.7816531E-02  0.1126479E+00
         25   -1    0    0    0    0  0.00000000000E+00  0.00000000000E+00  0.99999998245E-14  0.12500000000E+03  0.12500000000E+03 0.  0.
    3000001    1    3    3    0    0  0.54899323971E+01  0.25584888676E+02 -0.17725685548E+02  0.31621603603E+02  0.10000000000E+01 0. -1.
    1000022    2    1    0    0    0  0.15066256043E+01  0.52280666843E+02 -0.32721735990E+02  0.62499999424E+02  0.99999937753E+01 0.  0.
    3000022    2    3    3    0    0 -0.39833067929E+01  0.26695778167E+02 -0.14996050442E+02  0.30878395821E+02  0.24998929061E+00 0.  0.
    1000022    2    1    0    0    0 -0.15066256043E+01 -0.52280666843E+02  0.32721735990E+02  0.62500000576E+02  0.10000000981E+02 0.  0.
    3000022    2    5    5    0    0 -0.90593464748E+00 -0.48741287799E+02  0.32825868083E+02  0.58771880791E+02  0.25000483530E+00 0.  0.
        -13    1    4    4    0    0 -0.22606994787E+01  0.14870159611E+02 -0.84156823396E+01  0.17235635852E+02  0.10500000000E+00 0. -1.
         13    1    4    4    0    0 -0.17226073141E+01  0.11825618556E+02 -0.65803681025E+01  0.13642759969E+02  0.10500000000E+00 0.  1.
    3000001    1    5    5    0    0 -0.60069095677E+00 -0.35393790441E+01 -0.10413209303E+00  0.37281197857E+01  0.10000000000E+01 0.  1.
        -13    1    6    6    0    0 -0.34665788540E+00 -0.20188045837E+02  0.13526280570E+02  0.24303264338E+02  0.10500000000E+00 0.  1.
         13    1    6    6    0    0 -0.55927676208E+00 -0.28553241961E+02  0.19299587513E+02  0.34468616452E+02  0.10500000000E+00 0. -1.
</event>
<event>
11    0  0.3494755E-009  0.9118800E+02  0.7816531E-02  0.1126479E+00
         25   -1    0    0    0    0  0.00000000000E+00  0.00000000000E+00  0.99999998245E-14  0.12500000000E+03  0.12500000000E+03 0.  0.
    3000001    1    3    3    0    0 -0.49435391050E+00 -0.87896501426E+00  0.84408216933E+00  0.16521016899E+01  0.10000000000E+01 0.  1.
    1000022    2    1    0    0    0 -0.64133932160E+01 -0.61163892631E+02 -0.49088633015E+01  0.62499997349E+02  0.99999677751E+01 0.  0.
    3000022    2    3    3    0    0 -0.59190393055E+01 -0.60284927616E+02 -0.57529454708E+01  0.60847895660E+02  0.25000121259E+00 0.  0.
    1000022    2    1    0    0    0  0.64133932160E+01  0.61163892631E+02  0.49088633015E+01  0.62500002651E+02  0.10000000907E+02 0.  0.
    3000022    2    5    5    0    0 -0.46418767271E+00  0.21670101446E+02  0.56194790196E+01  0.22393075123E+02  0.25000425665E+00 0.  0.
        -13    1    4    4    0    0 -0.37612560930E+01 -0.38852834695E+02 -0.37288122608E+01  0.39212305175E+02  0.10500000000E+00 0.  1.
         13    1    4    4    0    0 -0.21577832125E+01 -0.21432092921E+02 -0.20241332100E+01  0.21635590485E+02  0.10500000000E+00 0. -1.
    3000001    1    5    5    0    0  0.68775808887E+01  0.39493791184E+02 -0.71061571815E+00  0.40106927528E+02  0.10000000000E+01 0. -1.
        -13    1    6    6    0    0 -0.31266472615E+00  0.15986285365E+02  0.41311942928E+01  0.16514747055E+02  0.10500000000E+00 0. -1.
         13    1    6    6    0    0 -0.15152294657E+00  0.56838160813E+01  0.14882847268E+01  0.58783280682E+01  0.10500000000E+00 0.  1.
</event>
<event>
11    0  0.3494755E-009  0.9118800E+02  0.7816531E-02  0.1126479E+00
         25   -1    0    0    0    0  0.00000000000E+00  0.00000000000E+00  0.99999998245E-14  0.12500000000E+03  0.12500000000E+03 0.  0.
    3000001    1    3    3    0    0 -0.46603004411E+01 -0.24435079140E+02  0.17120992901E+02  0.30214564215E+02  0.10000000000E+01 0.  1.
    1000022    2    1    0    0    0 -0.43098253902E+01 -0.44912814085E+02  0.42077483097E+02  0.62499999992E+02  0.99999975626E+01 0.  0.
    3000022    2    3    3    0    0  0.35047505082E+00 -0.20477734945E+02  0.24956490197E+02  0.32285435777E+02  0.24999829535E+00 0.  0.
    1000022    2    1    0    0    0  0.43098253902E+01  0.44912814085E+02 -0.42077483097E+02  0.62500000008E+02  0.99999976621E+01 0.  0.
    3000022    2    5    5    0    0  0.31459211062E+01  0.19031383372E+02 -0.11697364647E+02  0.22560611855E+02  0.24998989889E+00 0.  0.
        -13    1    4    4    0    0  0.17867210247E+00 -0.72720980873E+01  0.88938052788E+01  0.11490262471E+02  0.10500000000E+00 0.  1.
         13    1    4    4    0    0  0.17180294835E+00 -0.13205636858E+02  0.16062684918E+02  0.20795173306E+02  0.10500000000E+00 0. -1.
    3000001    1    5    5    0    0  0.11639042840E+01  0.25881430713E+02 -0.30380118450E+02  0.39939388153E+02  0.10000000000E+01 0.  1.
        -13    1    6    6    0    0  0.15990040533E+01  0.99552361073E+01 -0.60562840422E+01  0.11762361213E+02  0.10500000000E+00 0.  1.
         13    1    6    6    0    0  0.15469170530E+01  0.90761472645E+01 -0.56410806049E+01  0.10798250642E+02  0.10500000000E+00 0. -1.
</event>
<event>
11    0  0.3494755E-009  0.9118800E+02  0.7816531E-02  0.1126479E+00
         25   -1    0    0    0    0  0.00000000000E+00  0.00000000000E+00  0.99999998245E-14  0.12500000000E+03  0.12500000000E+03 0.  0.
    3000001    1    3    3    0    0 -0.51080180410E+01 -0.30982218316E+02 -0.19181877167E+02  0.36809429657E+02  0.10000000000E+01 0. -1.
    1000022    2    1    0    0    0 -0.78140762204E+01 -0.47284587679E+02 -0.38850454184E+02  0.62500000290E+02  0.10000011338E+02 0.  0.
    3000022    2    3    3    0    0 -0.27060581795E+01 -0.16302369363E+02 -0.19668577018E+02  0.25690570632E+02  0.24999960064E+00 0.  0.
    1000022    2    1    0    0    0  0.78140762204E+01  0.47284587679E+02  0.38850454184E+02  0.62499999710E+02  0.10000007717E+02 0.  0.
    3000022    2    5    5    0    0  0.68633286095E+01  0.31021698278E+02  0.30993748371E+02  0.44386101209E+02  0.24999763448E+00 0.  0.
        -13    1    4    4    0    0 -0.64222339323E+00 -0.39099847006E+01 -0.46892255243E+01  0.61400563730E+01  0.10500000000E+00 0.  1.
         13    1    4    4    0    0 -0.20638347863E+01 -0.12392384662E+02 -0.14979351493E+02  0.19550514259E+02  0.10500000000E+00 0. -1.
    3000001    1    5    5    0    0  0.95074761095E+00  0.16262889400E+02  0.78567058138E+01  0.18113898501E+02  0.10000000000E+01 0.  1.
        -13    1    6    6    0    0  0.43895540581E+01  0.20087047854E+02  0.20085406502E+02  0.28743560247E+02  0.10500000000E+00 0.  1.
         13    1    6    6    0    0  0.24737745514E+01  0.10934650425E+02  0.10908341868E+02  0.15642540962E+02  0.10500000000E+00 0. -1.
</event>
<event>
11    0  0.3494755E-009  0.9118800E+02  0.7816531E-02  0.1126479E+00
         25   -1    0    0    0    0  0.00000000000E+00  0.00000000000E+00  0.99999998245E-14  0.12500000000E+03  0.12500000000E+03 0.  0.
    3000001    1    3    3    0    0 -0.11765246234E+01 -0.25287003329E+02  0.12956833051E+02  0.28455162454E+02  0.10000000000E+01 0.  1.
    1000022    2    1    0    0    0  0.81501864204E+01 -0.54296872157E+02  0.28136699712E+02  0.62499998811E+02  0.10000005799E+02 0.  0.
    3000022    2    3    3    0    0  0.93267110438E+01 -0.29009868828E+02  0.15179866660E+02  0.34044836357E+02  0.25000488398E+00 0.  0.
    1000022    2    1    0    0    0 -0.81501864204E+01  0.54296872157E+02 -0.28136699712E+02  0.62500001189E+02  0.10000020660E+02 0.  0.
    3000022    2    5    5    0    0 -0.79248126535E+00  0.14748570135E+01  0.73584477792E+00  0.18458592505E+01  0.24999813811E+00 0.  0.
        -13    1    4    4    0    0  0.68515776949E+01 -0.21337398608E+02  0.11127023692E+02  0.25020998731E+02  0.10500000000E+00 0.  1.
         13    1    4    4    0    0  0.24751333490E+01 -0.76724702206E+01  0.40528429681E+01  0.90238376263E+01  0.10500000000E+00 0. -1.
    3000001    1    5    5    0    0 -0.73577051551E+01  0.52822015144E+02 -0.28872544490E+02  0.60654141938E+02  0.10000000000E+01 0. -1.
        -13    1    6    6    0    0 -0.19277582877E+00  0.36988201061E+00  0.21665992947E+00  0.48160330872E+00  0.10500000000E+00 0.  1.
         13    1    6    6    0    0 -0.59970543658E+00  0.11049750029E+01  0.51918484845E+00  0.13642559418E+01  0.10500000000E+00 0. -1.
</event>
<event>
11    0  0.3494755E-009  0.9118800E+02  0.7816531E-02  0.1126479E+00
         25   -1    0    0    0    0  0.00000000000E+00  0.00000000000E+00  0.99999998245E-14  0.12500000000E+03  0.12500000000E+03 0.  0.
    3000001    1    3    3    0    0 -0.27299747941E+02  0.54197690917E+01  0.18880589321E+02  0.33647091817E+02  0.10000000000E+01 0. -1.
    1000022    2    1    0    0    0 -0.53032697046E+02  0.19662073691E+01  0.31462953085E+02  0.62499996967E+02  0.99999638331E+01 0.  0.
    3000022    2    3    3    0    0 -0.25732949106E+02 -0.34535617227E+01  0.12582363764E+02  0.28852905150E+02  0.24999895743E+00 0.  0.
    1000022    2    1    0    0    0  0.53032697046E+02 -0.19662073691E+01 -0.31462953085E+02  0.62500003033E+02  0.10000001743E+02 0.  0.
    3000022    2    5    5    0    0  0.21900736002E+02  0.32417681506E+01 -0.16135797209E+02  0.27396673921E+02  0.24998440339E+00 0.  0.
        -13    1    4    4    0    0 -0.18907033235E+02 -0.25716341693E+01  0.92490952041E+01  0.21204857819E+02  0.10500000000E+00 0. -1.
         13    1    4    4    0    0 -0.68259158706E+01 -0.88192755333E+00  0.33332685596E+01  0.76480473307E+01  0.10500000000E+00 0.  1.
    3000001    1    5    5    0    0  0.31131961045E+02 -0.52079755197E+01 -0.15327155876E+02  0.35103329112E+02  0.10000000000E+01 0.  1.
        -13    1    6    6    0    0  0.14394175838E+02  0.21640832122E+01 -0.10663137257E+02  0.18044086992E+02  0.10500000000E+00 0. -1.
         13    1    6    6    0    0  0.75065601633E+01  0.10776849384E+01 -0.54726599522E+01  0.93525869290E+01  0.10500000000E+00 0.  1.
</event>
<event>
11    0  0.3494755E-009  0.9118800E+02  0.7816531E-02  0.1126479E+00
         25   -1    0    0    0    0  0.00000000000E+00  0.00000000000E+00  0.99999998245E-14  0.12500000000E+03  0.12500000000E+03 0.  0.
    3000001    1    3    3    0    0 -0.39646279832E+01  0.25950746518E+01  0.54039570163E+01  0.72564067504E+01  0.10000000000E+01 0.  1.
    1000022    2    1    0    0    0 -0.97150140857E+01  0.29701726004E+02  0.53194696040E+02  0.62500001149E+02  0.10000021527E+02 0.  0.
    3000022    2    3    3    0    0 -0.57503861025E+01  0.27106651352E+02  0.47790739024E+02  0.55243594399E+02  0.24999556804E+00 0.  0.
    1000022    2    1    0    0    0  0.97150140857E+01 -0.29701726004E+02 -0.53194696040E+02  0.62499998851E+02  0.10000007163E+02 0.  0.
    3000022    2    5    5    0    0  0.75515465565E+01 -0.19839275293E+02 -0.26583503594E+02  0.34020109645E+02  0.24999476360E+00 0.  0.
        -13    1    4    4    0    0 -0.39393657679E+01  0.18718269166E+02  0.33063684261E+02  0.38198304218E+02  0.10500000000E+00 0.  1.
         13    1    4    4    0    0 -0.18110203345E+01  0.83883821869E+01  0.14727054763E+02  0.17045290181E+02  0.10500000000E+00 0. -1.
    3000001    1    5    5    0    0  0.21634675291E+01 -0.98624507110E+01 -0.26611192446E+02  0.28479889205E+02  0.10000000000E+01 0.  1.
        -13    1    6    6    0    0  0.54826754620E+01 -0.14374418517E+02 -0.19206585599E+02  0.24608689386E+02  0.10500000000E+00 0. -1.
         13    1    6    6    0    0  0.20688710945E+01 -0.54648567764E+01 -0.73769179952E+01  0.94114202594E+01  0.10500000000E+00 0.  1.
</event>
<event>
11    0  0.3494755E-009  0.9118800E+02  0.7816531E-02  0.1126479E+00
         25   -1    0    0    0    0  0.00000000000E+00  0.00000000000E+00  0.99999998245E-14  0.12500000000E+03  0.12500000000E+03 0.  0.
    3000001    1    3    3    0    0  0.41891395467E+02 -0.43527805034E+02  0.64290864357E+00  0.60423274959E+02  0.10000000000E+01 0.  1.
    1000022    2    1    0    0    0  0.43769897793E+02 -0.43453752859E+02  0.14890968157E+01  0.62500000732E+02  0.10000004591E+02 0.  0.
    3000022    2    3    3    0    0  0.18785023258E+01  0.74052174531E-01  0.84618817210E+00  0.20767257730E+01  0.25000160212E+00 0.  0.
    1000022    2    1    0    0    0 -0.43769897793E+02  0.43453752859E+02 -0.14890968157E+01  0.62499999268E+02  0.99999954377E+01 0.  0.
    3000022    2    5    5    0    0 -0.10594056268E+01  0.19629902751E+01  0.17677139096E+01  0.28570924219E+01  0.24998707799E+00 0.  0.
        -13    1    4    4    0    0  0.10718797818E+01  0.73129807864E-01  0.41908524430E+00  0.11579860437E+01  0.10500000000E+00 0. -1.
         13    1    4    4    0    0  0.80662254401E+00  0.92236666637E-03  0.42710292780E+00  0.91873972931E+00  0.10500000000E+00 0. -1.
    3000001    1    5    5    0    0 -0.42710492166E+02  0.41490762584E+02 -0.32568107252E+01  0.59642906846E+02  0.10000000000E+01 0.  1.
        -13    1    6    6    0    0 -0.66196453086E+00  0.11008215058E+01  0.98195129228E+00  0.16202649068E+01  0.10500000000E+00 0. -1.
         13    1    6    6    0    0 -0.39744109590E+00  0.86216876931E+00  0.78576261727E+00  0.12368275151E+01  0.10500000000E+00 0.  1.
</event>
<event>
11    0  0.3494755E-009  0.9118800E+02  0.7816531E-02  0.1126479E+00
         25   -1    0    0    0    0  0.00000000000E+00  0.00000000000E+00  0.99999998245E-14  0.12500000000E+03  0.12500000000E+03 0.  0.
    3000001    1    3    3    0    0 -0.24831229600E+01 -0.11251773959E+01 -0.12223976227E+01  0.31505840339E+01  0.10000000000E+01 0. -1.
    1000022    2    1    0    0    0 -0.58942124276E+02  0.13374127465E+02 -0.12377750985E+02  0.62499999237E+02  0.99999942799E+01 0.  0.
    3000022    2    3    3    0    0 -0.56459001316E+02  0.14499304861E+02 -0.11155353362E+02  0.59349415203E+02  0.25001058936E+00 0.  0.
    1000022    2    1    0    0    0  0.58942124276E+02 -0.13374127465E+02  0.12377750985E+02  0.62500000763E+02  0.10000003816E+02 0.  0.
    3000022    2    5    5    0    0  0.39257212343E+02 -0.72260245000E+01  0.36494500041E+01  0.40083976007E+02  0.24999226035E+00 0.  0.
        -13    1    4    4    0    0 -0.26213057013E+02  0.66684627115E+01 -0.52042501267E+01  0.27544291556E+02  0.10500000000E+00 0.  1.
         13    1    4    4    0    0 -0.30245944302E+02  0.78308421491E+01 -0.59511032354E+01  0.31805123647E+02  0.10500000000E+00 0. -1.
    3000001    1    5    5    0    0  0.19684911933E+02 -0.61481029647E+01  0.87283009806E+01  0.22416024756E+02  0.10000000000E+01 0.  1.
        -13    1    6    6    0    0  0.22805995089E+02 -0.42600647185E+01  0.21423129363E+01  0.23299401132E+02  0.10500000000E+00 0. -1.
         13    1    6    6    0    0  0.16451217254E+02 -0.29659597815E+01  0.15071370678E+01  0.16784574874E+02  0.10500000000E+00 0.  1.
</event>
<event>
11    0  0.3494755E-009  0.9118800E+02  0.7816531E-02  0.1126479E+00
         25   -1    0    0    0    0  0.00000000000E+00  0.00000000000E+00  0.99999998245E-14  0.12500000000E+03  0.12500000000E+03 0.  0.
    3000001    1    3    3    0    0  0.59675188176E+01  0.46969890264E+02 -0.15586653344E+02  0.49857052006E+02  0.10000000000E+01 0.  1.
    1000022    2    1    0    0    0  0.66403805750E+01  0.59558458333E+02 -0.14661027797E+02  0.62499997544E+02  0.99999671863E+01 0.  0.
    3000022    2    3    3    0    0  0.67286175742E+00  0.12588568069E+02  0.92562554664E+00  0.12642945538E+02  0.25000050575E+00 0.  0.
    1000022    2    1    0    0    0 -0.66403805750E+01 -0.59558458333E+02  0.14661027797E+02  0.62500002456E+02  0.99999978897E+01 0.  0.
    3000022    2    5    5    0    0 -0.86966088845E+01 -0.54147931507E+02  0.12565080147E+02  0.56263427118E+02  0.24999882882E+00 0.  0.
        -13    1    4    4    0    0  0.39148242990E+00  0.78037846473E+01  0.62902063388E+00  0.78395794066E+01  0.10500000000E+00 0. -1.
         13    1    4    4    0    0  0.28137932752E+00  0.47847834217E+01  0.29660491276E+00  0.48033661315E+01  0.10500000000E+00 0.  1.
    3000001    1    5    5    0    0  0.20562283095E+01 -0.54105268261E+01  0.20959476504E+01  0.62365753382E+01  0.10000000000E+01 0.  1.
        -13    1    6    6    0    0 -0.59321941550E+01 -0.37142694386E+02  0.86556387343E+01  0.38596655045E+02  0.10500000000E+00 0. -1.
         13    1    6    6    0    0 -0.27644147294E+01 -0.17005237121E+02  0.39094414123E+01  0.17666772073E+02  0.10500000000E+00 0.  1.
</event>
<event>
11    0  0.3494755E-009  0.9118800E+02  0.7816531E-02  0.1126479E+00
         25   -1    0    0    0    0  0.00000000000E+00  0.00000000000E+00  0.99999998245E-14  0.12500000000E+03  0.12500000000E+03 0.  0.
    3000001    1    3    3    0    0  0.33466482606E+02  0.36003384741E+02 -0.10844592746E+02  0.50347337195E+02  0.10000000000E+01 0.  1.
    1000022    2    1    0    0    0  0.44433323728E+02  0.41150858787E+02 -0.11770139963E+02  0.62500000348E+02  0.10000020618E+02 0.  0.
    3000022    2    3    3    0    0  0.10966841123E+02  0.51474740460E+01 -0.92554721742E+00  0.12152663154E+02  0.24998161509E+00 0.  0.
    1000022    2    1    0    0    0 -0.44433323728E+02 -0.41150858787E+02  0.11770139963E+02  0.62499999652E+02  0.10000016265E+02 0.  0.
    3000022    2    5    5    0    0 -0.84553795984E+01 -0.67259199549E+01  0.60036992557E+01  0.12362780784E+02  0.25000112771E+00 0.  0.
        -13    1    4    4    0    0  0.55612873306E+01  0.26643187539E+01 -0.51813751724E+00  0.61891843310E+01  0.10500000000E+00 0.  1.
         13    1    4    4    0    0  0.54055537920E+01  0.24831552921E+01 -0.40740970018E+00  0.59634788225E+01  0.10500000000E+00 0. -1.
    3000001    1    5    5    0    0 -0.35977944130E+02 -0.34424938832E+02  0.57664407076E+01  0.50137218868E+02  0.10000000000E+01 0.  1.
        -13    1    6    6    0    0 -0.53850339966E+01 -0.43247306640E+01  0.37819263457E+01  0.78750160854E+01  0.10500000000E+00 0. -1.
         13    1    6    6    0    0 -0.30703456018E+01 -0.24011892909E+01  0.22217729100E+01  0.44877646984E+01  0.10500000000E+00 0.  1.
</event>
<event>
11    0  0.3494755E-009  0.9118800E+02  0.7816531E-02  0.1126479E+00
         25   -1    0    0    0    0  0.00000000000E+00  0.00000000000E+00  0.99999998245E-14  0.12500000000E+03  0.12500000000E+03 0.  0.
    3000001    1    3    3    0    0 -0.33318558586E+01 -0.54079829911E+02  0.84373096325E+01  0.54844484321E+02  0.10000000000E+01 0.  1.
    1000022    2    1    0    0    0 -0.71971935573E+00 -0.60624716700E+02  0.11418178649E+02  0.62499997414E+02  0.10000030111E+02 0.  0.
    3000022    2    3    3    0    0  0.26121365029E+01 -0.65448867892E+01  0.29808690160E+01  0.76555130929E+01  0.25000086258E+00 0.  0.
    1000022    2    1    0    0    0  0.71971935573E+00  0.60624716700E+02 -0.11418178649E+02  0.62500002586E+02  0.10000062435E+02 0.  0.
    3000022    2    5    5    0    0 -0.30027271557E+01  0.20122213167E+02 -0.40628796976E+00  0.20350611882E+02  0.25000182890E+00 0.  0.
        -13    1    4    4    0    0  0.13895561073E+01 -0.33079927045E+01  0.15405492356E+01  0.39061488522E+01  0.10500000000E+00 0.  1.
         13    1    4    4    0    0  0.12225803956E+01 -0.32368940847E+01  0.14403197804E+01  0.37493642407E+01  0.10500000000E+00 0. -1.
    3000001    1    5    5    0    0  0.37224465115E+01  0.40502503532E+02 -0.11011890679E+02  0.42149390704E+02  0.10000000000E+01 0.  1.
        -13    1    6    6    0    0 -0.15867952055E+01  0.10555582274E+02 -0.14659218277E+00  0.10675708428E+02  0.10500000000E+00 0.  1.
         13    1    6    6    0    0 -0.14159319503E+01  0.95666308931E+01 -0.25969578698E+00  0.96749034535E+01  0.10500000000E+00 0. -1.
</event>
<event>
11    0  0.3494755E-009  0.9118800E+02  0.7816531E-02  0.1126479E+00
         25   -1    0    0    0    0  0.00000000000E+00  0.00000000000E+00  0.99999998245E-14  0.12500000000E+03  0.12500000000E+03 0.  0.
    3000001    1    3    3    0    0  0.48743150964E+01 -0.31482507641E+02 -0.45625287332E+02  0.55655853952E+02  0.10000000000E+01 0. -1.
    1000022    2    1    0    0    0  0.86323273549E+01 -0.33978764373E+02 -0.50765899024E+02  0.62500000389E+02  0.10000002056E+02 0.  0.
    3000022    2    3    3    0    0  0.37580122584E+01 -0.24962567316E+01 -0.51406116917E+01  0.68441464369E+01  0.24999616231E+00 0.  0.
    1000022    2    1    0    0    0 -0.86323273549E+01  0.33978764373E+02  0.50765899024E+02  0.62499999611E+02  0.99999971891E+01 0.  0.
    3000022    2    5    5    0    0 -0.82615789028E+01  0.12991945358E+02  0.22999259237E+02  0.27678019314E+02  0.24999502978E+00 0.  0.
        -13    1    4    4    0    0  0.26868760775E+01 -0.18303294318E+01 -0.36835674619E+01  0.49141736977E+01  0.10500000000E+00 0.  1.
         13    1    4    4    0    0  0.10711361810E+01 -0.66592729981E+00 -0.14570442298E+01  0.19299727393E+01  0.10500000000E+00 0. -1.
    3000001    1    5    5    0    0 -0.37074845211E+00  0.20986819015E+02  0.27766639787E+02  0.34821980297E+02  0.10000000000E+01 0.  1.
        -13    1    6    6    0    0 -0.30769012339E+01  0.49199574769E+01  0.87441364109E+01  0.10494963047E+02  0.10500000000E+00 0. -1.
         13    1    6    6    0    0 -0.51846776689E+01  0.80719878815E+01  0.14255122826E+02  0.17183056267E+02  0.10500000000E+00 0.  1.
</event>
<event>
11    0  0.3494755E-009  0.9118800E+02  0.7816531E-02  0.1126479E+00
         25   -1    0    0    0    0  0.00000000000E+00  0.00000000000E+00  0.99999998245E-14  0.12500000000E+03  0.12500000000E+03 0.  0.
    3000001    1    3    3    0    0 -0.12056807636E+01  0.37156706081E+01 -0.13000104598E+01  0.42367323927E+01  0.10000000000E+01 0.  1.
    1000022    2    1    0    0    0  0.15796230347E+02  0.53813485982E+02 -0.25706764821E+02  0.62499999084E+02  0.99999980603E+01 0.  0.
    3000022    2    3    3    0    0  0.17001911111E+02  0.50097815374E+02 -0.24406754362E+02  0.58263266691E+02  0.25000084630E+00 0.  0.
    1000022    2    1    0    0    0 -0.15796230347E+02 -0.53813485982E+02  0.25706764821E+02  0.62500000916E+02  0.10000009512E+02 0.  0.
    3000022    2    5    5    0    0 -0.47588576297E+01 -0.32305259090E+02  0.12769434085E+02  0.35062764410E+02  0.25002074328E+00 0.  0.
        -13    1    4    4    0    0  0.10076259676E+02  0.29804164996E+02 -0.14456961161E+02  0.34624182463E+02  0.10500000000E+00 0.  1.
         13    1    4    4    0    0  0.69256514353E+01  0.20293650377E+02 -0.99497932007E+01  0.23639084229E+02  0.10500000000E+00 0. -1.
    3000001    1    5    5    0    0 -0.11037372718E+02 -0.21508226891E+02  0.12937330737E+02  0.27437236506E+02  0.10000000000E+01 0.  1.
        -13    1    6    6    0    0 -0.28847196814E+01 -0.19929045385E+02  0.78371685557E+01  0.21608347775E+02  0.10500000000E+00 0.  1.
         13    1    6    6    0    0 -0.18741379484E+01 -0.12376213705E+02  0.49322655289E+01  0.13454416635E+02  0.10500000000E+00 0. -1.
</event>
<event>
11    0  0.3494755E-009  0.9118800E+02  0.7816531E-02  0.1126479E+00
         25   -1    0    0    0    0  0.00000000000E+00  0.00000000000E+00  0.99999998245E-14  0.12500000000E+03  0.12500000000E+03 0.  0.
    3000001    1    3    3    0    0  0.12544609593E+02 -0.13747919572E+02  0.89789807075E+01  0.20688030765E+02  0.10000000000E+01 0.  1.
    1000022    2    1    0    0    0  0.40880708904E+02 -0.44127675600E+02  0.13702773313E+02  0.62500000519E+02  0.99999977004E+01 0.  0.
    3000022    2    3    3    0    0  0.28336099311E+02 -0.30379756029E+02  0.47237926052E+01  0.41811969754E+02  0.24999517449E+00 0.  0.
    1000022    2    1    0    0    0 -0.40880708904E+02  0.44127675600E+02 -0.13702773313E+02  0.62499999481E+02  0.99999912138E+01 0.  0.
    3000022    2    5    5    0    0 -0.14794306582E+02  0.10202806558E+02 -0.63788582675E+01  0.19071473634E+02  0.25000975732E+00 0.  0.
        -13    1    4    4    0    0  0.17627263563E+02 -0.18887390075E+02  0.28771224029E+01  0.25995053047E+02  0.10500000000E+00 0.  1.
         13    1    4    4    0    0  0.10708835748E+02 -0.11492365953E+02  0.18466702023E+01  0.15816916707E+02  0.10500000000E+00 0. -1.
    3000001    1    5    5    0    0 -0.26086402322E+02  0.33924869042E+02 -0.73239150452E+01  0.43428525847E+02  0.10000000000E+01 0.  1.
        -13    1    6    6    0    0 -0.68668556505E+01  0.48050965153E+01 -0.29370608124E+01  0.88814419021E+01  0.10500000000E+00 0. -1.
         13    1    6    6    0    0 -0.79274509313E+01  0.53977100430E+01 -0.34417974551E+01  0.10190031732E+02  0.10500000000E+00 0.  1.
</event>
<event>
11    0  0.3494755E-009  0.9118800E+02  0.7816531E-02  0.1126479E+00
         25   -1    0    0    0    0  0.00000000000E+00  0.00000000000E+00  0.99999998245E-14  0.12500000000E+03  0.12500000000E+03 0.  0.
    3000001    1    3    3    0    0 -0.52545462380E+02 -0.13207656320E+02  0.12931702635E+02  0.55710831399E+02  0.10000000000E+01 0. -1.
    1000022    2    1    0    0    0 -0.57054268746E+02 -0.17461921438E+02  0.15688907975E+02  0.62499998633E+02  0.99999856639E+01 0.  0.
    3000022    2    3    3    0    0 -0.45088063661E+01 -0.42542651182E+01  0.27572053393E+01  0.67891672337E+01  0.25000780348E+00 0.  0.
    1000022    2    1    0    0    0  0.57054268746E+02  0.17461921438E+02 -0.15688907975E+02  0.62500001367E+02  0.10000002749E+02 0.  0.
    3000022    2    5    5    0    0  0.28630684558E+02  0.37812824738E+01 -0.88642919760E+01  0.30210136021E+02  0.24990145232E+00 0.  0.
        -13    1    4    4    0    0 -0.30748160812E+01 -0.28322908583E+01  0.18735736663E+01  0.45823213247E+01  0.10500000000E+00 0.  1.
         13    1    4    4    0    0 -0.14339902849E+01 -0.14219742599E+01  0.88363167302E+00  0.22068459091E+01  0.10500000000E+00 0. -1.
    3000001    1    5    5    0    0  0.28423584188E+02  0.13680638964E+02 -0.68246159985E+01  0.32289865346E+02  0.10000000000E+01 0. -1.
        -13    1    6    6    0    0  0.73257822055E+01  0.95533252030E+00 -0.22397598224E+01  0.77205760283E+01  0.10500000000E+00 0.  1.
         13    1    6    6    0    0  0.21304902353E+02  0.28259499535E+01 -0.66245321536E+01  0.22489559992E+02  0.10500000000E+00 0. -1.
</event>
<event>
11    0  0.3494755E-009  0.9118800E+02  0.7816531E-02  0.1126479E+00
         25   -1    0    0    0    0  0.00000000000E+00  0.00000000000E+00  0.99999998245E-14  0.12500000000E+03  0.12500000000E+03 0.  0.
    3000001    1    3    3    0    0 -0.13136305470E+02  0.14756639585E+02 -0.23121732929E+01  0.19916502669E+02  0.10000000000E+01 0.  1.
    1000022    2    1    0    0    0 -0.41719246541E+02  0.40591937751E+02 -0.20446244280E+02  0.62499999296E+02  0.10000003222E+02 0.  0.
    3000022    2    3    3    0    0 -0.28582941072E+02  0.25835298166E+02 -0.18134070987E+02  0.42583496626E+02  0.25000547975E+00 0.  0.
    1000022    2    1    0    0    0  0.41719246541E+02 -0.40591937751E+02  0.20446244280E+02  0.62500000704E+02  0.10000012027E+02 0.  0.
    3000022    2    5    5    0    0  0.16518408716E+02 -0.18137781825E+02  0.13579172178E+02  0.28040923168E+02  0.24999799936E+00 0.  0.
        -13    1    4    4    0    0 -0.15393684723E+02  0.13995011659E+02 -0.98246861504E+01  0.23007854390E+02  0.10500000000E+00 0.  1.
         13    1    4    4    0    0 -0.13189256348E+02  0.11840286507E+02 -0.83093848364E+01  0.19575642236E+02  0.10500000000E+00 0. -1.
    3000001    1    5    5    0    0  0.25200837825E+02 -0.22454155926E+02  0.68670721015E+01  0.34459077537E+02  0.10000000000E+01 0. -1.
        -13    1    6    6    0    0  0.12122018344E+02 -0.13327108411E+02  0.10008447926E+02  0.20609104838E+02  0.10500000000E+00 0.  1.
         13    1    6    6    0    0  0.43963903723E+01 -0.48106734134E+01  0.35707242517E+01  0.74318183292E+01  0.10500000000E+00 0. -1.
</event>
<event>
11    0  0.3494755E-009  0.9118800E+02  0.7816531E-02  0.1126479E+00
         25   -1    0    0    0    0  0.00000000000E+00  0.00000000000E+00  0.99999998245E-14  0.12500000000E+03  0.12500000000E+03 0.  0.
    3000001    1    3    3    0    0  0.15557968610E+02 -0.16422785277E+02  0.40388554986E+02  0.46303278905E+02  0.10000000000E+01 0.  1.
    1000022    2    1    0    0    0  0.18172574836E+02 -0.17362151921E+02  0.56343262100E+02  0.62499999371E+02  0.99999970861E+01 0.  0.
    3000022    2    3    3    0    0  0.26146062262E+01 -0.93936664438E+00  0.15954707115E+02  0.16196720466E+02  0.24999864263E+00 0.  0.
    1000022    2    1    0    0    0 -0.18172574836E+02  0.17362151921E+02 -0.56343262100E+02  0.62500000629E+02  0.10000004952E+02 0.  0.
    3000022    2    5    5    0    0 -0.15976807083E+02  0.10293232347E+02 -0.45721330093E+02  0.49514760564E+02  0.24998314620E+00 0.  0.
        -13    1    4    4    0    0  0.64628641837E+00 -0.22959146955E+00  0.41158394530E+01  0.41739139642E+01  0.10500000000E+00 0. -1.
         13    1    4    4    0    0  0.19683198078E+01 -0.70977517484E+00  0.11838867662E+02  0.12022806502E+02  0.10500000000E+00 0.  1.
    3000001    1    5    5    0    0 -0.21957677534E+01  0.70689195741E+01 -0.10621932008E+02  0.12985240065E+02  0.10000000000E+01 0. -1.
        -13    1    6    6    0    0 -0.59440766285E+01  0.38240096560E+01 -0.16848931082E+02  0.18271633764E+02  0.10500000000E+00 0.  1.
         13    1    6    6    0    0 -0.10032730454E+02  0.64692226910E+01 -0.28872399011E+02  0.31243126800E+02  0.10500000000E+00 0. -1.
</event>
<event>
11    0  0.3494755E-009  0.9118800E+02  0.7816531E-02  0.1126479E+00
         25   -1    0    0    0    0  0.00000000000E+00  0.00000000000E+00  0.99999998245E-14  0.12500000000E+03  0.12500000000E+03 0.  0.
    3000001    1    3    3    0    0  0.12542339257E+02  0.12679150041E+02  0.19587669325E+02  0.26509392852E+02  0.10000000000E+01 0. -1.
    1000022    2    1    0    0    0  0.36953298532E+02  0.21205249441E+02  0.44621086222E+02  0.62499999450E+02  0.99999859667E+01 0.  0.
    3000022    2    3    3    0    0  0.24410959276E+02  0.85260993999E+01  0.25033416897E+02  0.35990606598E+02  0.24999603810E+00 0.  0.
    1000022    2    1    0    0    0 -0.36953298532E+02 -0.21205249441E+02 -0.44621086222E+02  0.62500000550E+02  0.99999928414E+01 0.  0.
    3000022    2    5    5    0    0 -0.27173107826E+02 -0.10402882630E+02 -0.31223918418E+02  0.42680127590E+02  0.24990759143E+00 0.  0.
        -13    1    4    4    0    0  0.90805589801E+01  0.31798626177E+01  0.92325097115E+01  0.13334854264E+02  0.10500000000E+00 0.  1.
         13    1    4    4    0    0  0.15330400296E+02  0.53462367822E+01  0.15800907186E+02  0.22655752335E+02  0.10500000000E+00 0. -1.
    3000001    1    5    5    0    0 -0.97801907061E+01 -0.10802366811E+02 -0.13397167805E+02  0.19819872960E+02  0.10000000000E+01 0.  1.
        -13    1    6    6    0    0 -0.86093450122E+01 -0.32717024332E+01 -0.98187413648E+01  0.13462673038E+02  0.10500000000E+00 0. -1.
         13    1    6    6    0    0 -0.18563762814E+02 -0.71311801967E+01 -0.21405177053E+02  0.29217454552E+02  0.10500000000E+00 0.  1.
</event>
<event>
11    0  0.3494755E-009  0.9118800E+02  0.7816531E-02  0.1126479E+00
         25   -1    0    0    0    0  0.00000000000E+00  0.00000000000E+00  0.99999998245E-14  0.12500000000E+03  0.12500000000E+03 0.  0.
    3000001    1    3    3    0    0 -0.26253951111E+01  0.29049625850E+02  0.40573720245E+02  0.49979998360E+02  0.10000000000E+01 0. -1.
    1000022    2    1    0    0    0  0.86356143695E+00  0.33747613796E+02  0.51639160941E+02  0.62499997837E+02  0.99999805807E+01 0.  0.
    3000022    2    3    3    0    0  0.34889565480E+01  0.46979879459E+01  0.11065440696E+02  0.12519999477E+02  0.25000114373E+00 0.  0.
    1000022    2    1    0    0    0 -0.86356143695E+00 -0.33747613796E+02 -0.51639160941E+02  0.62500002163E+02  0.10000007620E+02 0.  0.
    3000022    2    5    5    0    0 -0.61685305627E+00 -0.33267154622E+02 -0.51555307301E+02  0.61360380526E+02  0.25000607463E+00 0.  0.
        -13    1    4    4    0    0  0.11892511676E+01  0.16912698693E+01  0.39530215386E+01  0.44622994515E+01  0.10500000000E+00 0.  1.
         13    1    4    4    0    0  0.22997053804E+01  0.30067180766E+01  0.71124191577E+01  0.80577000256E+01  0.10500000000E+00 0. -1.
    3000001    1    5    5    0    0 -0.24670838068E+00 -0.48045917345E+00 -0.83853640057E-01  0.11396216370E+01  0.10000000000E+01 0. -1.
        -13    1    6    6    0    0 -0.28807093537E+00 -0.13829277094E+02 -0.21536479943E+02  0.25596149771E+02  0.10500000000E+00 0. -1.
         13    1    6    6    0    0 -0.32878212090E+00 -0.19437877528E+02 -0.30018827359E+02  0.35764230755E+02  0.10500000000E+00 0.  1.
</event>
<event>
11    0  0.3494755E-009  0.9118800E+02  0.7816531E-02  0.1126479E+00
         25   -1    0    0    0    0  0.00000000000E+00  0.00000000000E+00  0.99999998245E-14  0.12500000000E+03  0.12500000000E+03 0.  0.
    3000001    1    3    3    0    0 -0.17162122237E+02 -0.67702786309E+00  0.11068431963E+02  0.20457443451E+02  0.10000000000E+01 0.  1.
    1000022    2    1    0    0    0 -0.58008586366E+02 -0.24578436663E+01  0.20861756290E+02  0.62500000967E+02  0.10000007883E+02 0.  0.
    3000022    2    3    3    0    0 -0.40846464129E+02 -0.17808158033E+01  0.97933243270E+01  0.42042557516E+02  0.25000873232E+00 0.  0.
    1000022    2    1    0    0    0  0.58008586366E+02  0.24578436663E+01 -0.20861756290E+02  0.62499999033E+02  0.99999957969E+01 0.  0.
    3000022    2    5    5    0    0  0.33060431084E+02  0.54593736466E+01 -0.14799056419E+02  0.36631563364E+02  0.24999914909E+00 0.  0.
        -13    1    4    4    0    0 -0.11920677792E+02 -0.55581501683E+00  0.28835912146E+01  0.12277524695E+02  0.10500000000E+00 0.  1.
         13    1    4    4    0    0 -0.28925786337E+02 -0.12250007864E+01  0.69097331124E+01  0.29765032821E+02  0.10500000000E+00 0. -1.
    3000001    1    5    5    0    0  0.24948155283E+02 -0.30015299803E+01 -0.60626998717E+01  0.25868435669E+02  0.10000000000E+01 0.  1.
        -13    1    6    6    0    0  0.14639875695E+02  0.24595123742E+01 -0.66130164850E+01  0.16251712941E+02  0.10500000000E+00 0.  1.
         13    1    6    6    0    0  0.18420555388E+02  0.29998612724E+01 -0.81860399337E+01  0.20379850423E+02  0.10500000000E+00 0. -1.
</event>
<event>
11    0  0.3494755E-009  0.9118800E+02  0.7816531E-02  0.1126479E+00
         25   -1    0    0    0    0  0.00000000000E+00  0.00000000000E+00  0.99999998245E-14  0.12500000000E+03  0.12500000000E+03 0.  0.
    3000001    1    3    3    0    0  0.10215152144E+02 -0.71933798165E+01 -0.19293424878E+02  0.23007179098E+02  0.10000000000E+01 0. -1.
    1000022    2    1    0    0    0  0.31322275342E+02 -0.71317813538E+01 -0.52671650390E+02  0.62499999670E+02  0.99999982971E+01 0.  0.
    3000022    2    3    3    0    0  0.21107123199E+02  0.61598462657E-01 -0.33378225512E+02  0.39492820572E+02  0.24998856300E+00 0.  0.
    1000022    2    1    0    0    0 -0.31322275342E+02  0.71317813538E+01  0.52671650390E+02  0.62500000330E+02  0.10000002428E+02 0.  0.
    3000022    2    5    5    0    0 -0.10790833009E+02  0.43624237515E+01  0.27639341872E+02  0.29991140990E+02  0.25000157115E+00 0.  0.
        -13    1    4    4    0    0  0.53770298808E+01 -0.13167227952E-01 -0.85091311072E+01  0.10066228733E+02  0.10500000000E+00 0.  1.
         13    1    4    4    0    0  0.15730093318E+02  0.74765690609E-01 -0.24869094405E+02  0.29426591838E+02  0.10500000000E+00 0. -1.
    3000001    1    5    5    0    0 -0.20531442334E+02  0.27693576023E+01  0.25032308518E+02  0.32508859340E+02  0.10000000000E+01 0. -1.
        -13    1    6    6    0    0 -0.65663978543E+01  0.26807188340E+01  0.16693592263E+02  0.18138105796E+02  0.10500000000E+00 0. -1.
         13    1    6    6    0    0 -0.42244351544E+01  0.16817049176E+01  0.10945749609E+02  0.11853035194E+02  0.10500000000E+00 0.  1.
</event>
<event>
11    0  0.3494755E-009  0.9118800E+02  0.7816531E-02  0.1126479E+00
         25   -1    0    0    0    0  0.00000000000E+00  0.00000000000E+00  0.99999998245E-14  0.12500000000E+03  0.12500000000E+03 0.  0.
    3000001    1    3    3    0    0  0.20757642942E+02  0.27930140782E+02 -0.22701829058E+02  0.41561346793E+02  0.10000000000E+01 0.  1.
    1000022    2    1    0    0    0  0.28308940431E+02  0.38208656569E+02 -0.39305886027E+02  0.62499999725E+02  0.99999872047E+01 0.  0.
    3000022    2    3    3    0    0  0.75512974887E+01  0.10278515787E+02 -0.16604056969E+02  0.20938652932E+02  0.24999648751E+00 0.  0.
    1000022    2    1    0    0    0 -0.28308940431E+02 -0.38208656569E+02  0.39305886027E+02  0.62500000275E+02  0.99999906401E+01 0.  0.
    3000022    2    5    5    0    0 -0.77178284715E+01 -0.46258473874E+01  0.95353248271E+01  0.13112904000E+02  0.24998277669E+00 0.  0.
        -13    1    4    4    0    0  0.19392239061E+01  0.26926734032E+01 -0.43142567321E+01  0.54437960619E+01  0.10500000000E+00 0.  1.
         13    1    4    4    0    0  0.56120735827E+01  0.75858423838E+01 -0.12289800237E+02  0.15494856870E+02  0.10500000000E+00 0. -1.
    3000001    1    5    5    0    0 -0.20591111959E+02 -0.33582809182E+02  0.29770561200E+02  0.49387096275E+02  0.10000000000E+01 0.  1.
        -13    1    6    6    0    0 -0.44607526478E+01 -0.27051958657E+01  0.56136202895E+01  0.76642127196E+01  0.10500000000E+00 0. -1.
         13    1    6    6    0    0 -0.32570758237E+01 -0.19206515217E+01  0.39217045376E+01  0.54486912804E+01  0.10500000000E+00 0.  1.
</event>
<event>
11    0  0.3494755E-009  0.9118800E+02  0.7816531E-02  0.1126479E+00
         25   -1    0    0    0    0  0.00000000000E+00  0.00000000000E+00  0.99999998245E-14  0.12500000000E+03  0.12500000000E+03 0.  0.
    3000001    1    3    3    0    0  0.14563899247E+02 -0.33869130558E+02  0.40722847883E+02  0.54941564464E+02  0.10000000000E+01 0.  1.
    1000022    2    1    0    0    0  0.16633353143E+02 -0.40653132178E+02  0.43323252946E+02  0.62499998247E+02  0.99999971181E+01 0.  0.
    3000022    2    3    3    0    0  0.20694538968E+01 -0.67840016203E+01  0.26004050630E+01  0.75584337833E+01  0.24999470002E+00 0.  0.
    1000022    2    1    0    0    0 -0.16633353143E+02  0.40653132178E+02 -0.43323252946E+02  0.62500001753E+02  0.10000019027E+02 0.  0.
    3000022    2    5    5    0    0 -0.31016852440E+01  0.51288106742E+01 -0.11264106170E+02  0.12761964533E+02  0.25000128431E+00 0.  0.
        -13    1    4    4    0    0  0.59331083626E+00 -0.21064916839E+01  0.81282683914E+00  0.23368862687E+01  0.10500000000E+00 0. -1.
         13    1    4    4    0    0  0.14761430605E+01 -0.46775099365E+01  0.17875782239E+01  0.52215475146E+01  0.10500000000E+00 0.  1.
    3000001    1    5    5    0    0 -0.13531667899E+02  0.35524321504E+02 -0.32059146777E+02  0.49738037220E+02  0.10000000000E+01 0.  1.
        -13    1    6    6    0    0 -0.11074972726E+01  0.17679939472E+01 -0.40203050183E+01  0.45305882893E+01  0.10500000000E+00 0.  1.
         13    1    6    6    0    0 -0.19941879713E+01  0.33608167270E+01 -0.72438011515E+01  0.82313762434E+01  0.10500000000E+00 0. -1.
</event>
<event>
11    0  0.3494755E-009  0.9118800E+02  0.7816531E-02  0.1126479E+00
         25   -1    0    0    0    0  0.00000000000E+00  0.00000000000E+00  0.99999998245E-14  0.12500000000E+03  0.12500000000E+03 0.  0.
    3000001    1    3    3    0    0  0.11981733141E+01  0.80905426681E+00 -0.17558843447E+01  0.24846162539E+01  0.10000000000E+01 0. -1.
    1000022    2    1    0    0    0  0.13153782748E+02 -0.16028159761E+02 -0.58106169599E+02  0.62499993588E+02  0.99999173574E+01 0.  0.
    3000022    2    3    3    0    0  0.11955609434E+02 -0.16837214027E+02 -0.56350285254E+02  0.60015377334E+02  0.24999037350E+00 0.  0.
    1000022    2    1    0    0    0 -0.13153782748E+02  0.16028159761E+02  0.58106169599E+02  0.62500006412E+02  0.99999975087E+01 0.  0.
    3000022    2    5    5    0    0 -0.25282937268E+01  0.10866298187E+02  0.27491165568E+02  0.29669771816E+02  0.24993969541E+00 0.  0.
        -13    1    4    4    0    0  0.43402275495E+01 -0.60205375467E+01 -0.20186300464E+02  0.21507724169E+02  0.10500000000E+00 0.  1.
         13    1    4    4    0    0  0.76153818847E+01 -0.10816676481E+02 -0.36163984790E+02  0.38507653165E+02  0.10500000000E+00 0. -1.
    3000001    1    5    5    0    0 -0.10625489022E+02  0.51618615736E+01  0.30615004031E+02  0.32830234596E+02  0.10000000000E+01 0.  1.
        -13    1    6    6    0    0 -0.16663514099E+01  0.71162037657E+01  0.18152634584E+02  0.19569012505E+02  0.10500000000E+00 0.  1.
         13    1    6    6    0    0 -0.86194231683E+00  0.37500944213E+01  0.93385309837E+01  0.10100759311E+02  0.10500000000E+00 0. -1.
</event>
<event>
11    0  0.3494755E-009  0.9118800E+02  0.7816531E-02  0.1126479E+00
         25   -1    0    0    0    0  0.00000000000E+00  0.00000000000E+00  0.99999998245E-14  0.12500000000E+03  0.12500000000E+03 0.  0.
    3000001    1    3    3    0    0  0.39603654353E+02  0.14261983135E+02 -0.55487584114E+01  0.42469310343E+02  0.10000000000E+01 0. -1.
    1000022    2    1    0    0    0  0.59336288525E+02  0.16617682976E+02 -0.30507947325E+01  0.62499999363E+02  0.10000002424E+02 0.  0.
    3000022    2    3    3    0    0  0.19732634172E+02  0.23556998404E+01  0.24979636789E+01  0.20030689020E+02  0.25001397995E+00 0.  0.
    1000022    2    1    0    0    0 -0.59336288525E+02 -0.16617682976E+02  0.30507947325E+01  0.62500000637E+02  0.10000010387E+02 0.  0.
    3000022    2    5    5    0    0 -0.52287222026E+01 -0.13059508862E+01  0.31721930051E+01  0.62586225383E+01  0.25000805266E+00 0.  0.
        -13    1    4    4    0    0  0.99587523172E+01  0.12322955881E+01  0.12085499683E+01  0.10107765240E+02  0.10500000000E+00 0. -1.
         13    1    4    4    0    0  0.97738818547E+01  0.11234042523E+01  0.12894137107E+01  0.99229237799E+01  0.10500000000E+00 0.  1.
    3000001    1    5    5    0    0 -0.54107566322E+02 -0.15311732090E+02 -0.12139827264E+00  0.56241378099E+02  0.10000000000E+01 0.  1.
        -13    1    6    6    0    0 -0.19931350567E+01 -0.44278887018E+00  0.11686945972E+01  0.23548930760E+01  0.10500000000E+00 0. -1.
         13    1    6    6    0    0 -0.32355871459E+01 -0.86316201598E+00  0.20034984079E+01  0.39037294624E+01  0.10500000000E+00 0.  1.
</event>
<event>
11    0  0.3494755E-009  0.9118800E+02  0.7816531E-02  0.1126479E+00
         25   -1    0    0    0    0  0.00000000000E+00  0.00000000000E+00  0.99999998245E-14  0.12500000000E+03  0.12500000000E+03 0.  0.
    3000001    1    3    3    0    0 -0.20211216159E+02 -0.34146229725E+02  0.21931016508E+01  0.39752584292E+02  0.10000000000E+01 0. -1.
    1000022    2    1    0    0    0 -0.28017656670E+02 -0.54062481961E+02  0.99251673533E+01  0.62500000823E+02  0.10000005736E+02 0.  0.
    3000022    2    3    3    0    0 -0.78064405117E+01 -0.19916252236E+02  0.77320657025E+01  0.22747416531E+02  0.25000437052E+00 0.  0.
    1000022    2    1    0    0    0  0.28017656670E+02  0.54062481961E+02 -0.99251673533E+01  0.62499999177E+02  0.99999954536E+01 0.  0.
    3000022    2    5    5    0    0  0.15917079138E+02  0.25624538519E+02 -0.48895545991E+00  0.30170713712E+02  0.25001163945E+00 0.  0.
        -13    1    4    4    0    0 -0.37624373592E+01 -0.97846820869E+01  0.37897983419E+01  0.11147624630E+02  0.10500000000E+00 0. -1.
         13    1    4    4    0    0 -0.40440031525E+01 -0.10131570150E+02  0.39422673606E+01  0.11599791900E+02  0.10500000000E+00 0.  1.
    3000001    1    5    5    0    0  0.12100577532E+02  0.28437943442E+02 -0.94362118934E+01  0.32329285466E+02  0.10000000000E+01 0. -1.
        -13    1    6    6    0    0  0.11013140816E+02  0.17783193836E+02 -0.30069858990E+00  0.20919672518E+02  0.10500000000E+00 0.  1.
         13    1    6    6    0    0  0.49039383221E+01  0.78413446835E+01 -0.18825687001E+00  0.92510411934E+01  0.10500000000E+00 0. -1.
</event>
<event>
11    0  0.3494755E-009  0.9118800E+02  0.7816531E-02  0.1126479E+00
         25   -1    0    0    0    0  0.00000000000E+00  0.00000000000E+00  0.99999998245E-14  0.12500000000E+03  0.12500000000E+03 0.  0.
    3000001    1    3    3    0    0  0.38400306681E+02 -0.85648654943E+01 -0.38511468475E+02  0.55064268616E+02  0.10000000000E+01 0. -1.
    1000022    2    1    0    0    0  0.43228204222E+02 -0.60968520375E+01 -0.43593586500E+02  0.62500000482E+02  0.10000001564E+02 0.  0.
    3000022    2    3    3    0    0  0.48278975402E+01  0.24680134569E+01 -0.50821180250E+01  0.74357318652E+01  0.24999933754E+00 0.  0.
    1000022    2    1    0    0    0 -0.43228204222E+02  0.60968520375E+01  0.43593586500E+02  0.62499999518E+02  0.99999955435E+01 0.  0.
    3000022    2    5    5    0    0 -0.92628525875E+01 -0.24780722761E+01  0.73511153969E+01  0.12084811824E+02  0.24999795272E+00 0.  0.
        -13    1    4    4    0    0  0.13167692382E+01  0.63550743612E+00 -0.13902164433E+01  0.20202667366E+01  0.10500000000E+00 0. -1.
         13    1    4    4    0    0  0.35111283021E+01  0.18325060208E+01 -0.36919015817E+01  0.54154651286E+01  0.10500000000E+00 0.  1.
    3000001    1    5    5    0    0 -0.33965351634E+02  0.85749243136E+01  0.36242471103E+02  0.50415187694E+02  0.10000000000E+01 0. -1.
        -13    1    6    6    0    0 -0.53135469770E+01 -0.14722124543E+01  0.41723680294E+01  0.69152636219E+01  0.10500000000E+00 0.  1.
         13    1    6    6    0    0 -0.39493056105E+01 -0.10058598218E+01  0.31787473675E+01  0.51695482020E+01  0.10500000000E+00 0. -1.
</event>
<event>
11    0  0.3494755E-009  0.9118800E+02  0.7816531E-02  0.1126479E+00
         25   -1    0    0    0    0  0.00000000000E+00  0.00000000000E+00  0.99999998245E-14  0.12500000000E+03  0.12500000000E+03 0.  0.
    3000001    1    3    3    0    0  0.26402087302E+01  0.69859282256E+00 -0.18623519443E+02  0.18849249601E+02  0.10000000000E+01 0. -1.
    1000022    2    1    0    0    0  0.15375115739E+02  0.15132195443E+02 -0.57800283067E+02  0.62500000910E+02  0.99999934071E+01 0.  0.
    3000022    2    3    3    0    0  0.12734907009E+02  0.14433602620E+02 -0.39176763624E+02  0.43650751309E+02  0.25008124082E+00 0.  0.
    1000022    2    1    0    0    0 -0.15375115739E+02 -0.15132195443E+02  0.57800283067E+02  0.62499999090E+02  0.99999820372E+01 0.  0.
    3000022    2    5    5    0    0 -0.35473825073E+01 -0.30810323815E+00  0.36027814801E+01  0.50716249067E+01  0.24998908646E+00 0.  0.
        -13    1    4    4    0    0  0.64417756013E+01  0.72917224001E+01 -0.19649473238E+02  0.21926662126E+02  0.10500000000E+00 0.  1.
         13    1    4    4    0    0  0.62931314079E+01  0.71418802204E+01 -0.19527290386E+02  0.21724089183E+02  0.10500000000E+00 0. -1.
    3000001    1    5    5    0    0 -0.11827733232E+02 -0.14824092205E+02  0.54197501587E+02  0.57428374184E+02  0.10000000000E+01 0.  1.
        -13    1    6    6    0    0 -0.23242674492E+01 -0.21147668220E+00  0.24365393621E+01  0.33756022612E+01  0.10500000000E+00 0.  1.
         13    1    6    6    0    0 -0.12231150581E+01 -0.96626555955E-01  0.11662421180E+01  0.16960226456E+01  0.10500000000E+00 0. -1.
</event>
<event>
11    0  0.3494755E-009  0.9118800E+02  0.7816531E-02  0.1126479E+00
         25   -1    0    0    0    0  0.00000000000E+00  0.00000000000E+00  0.99999998245E-14  0.12500000000E+03  0.12500000000E+03 0.  0.
    3000001    1    3    3    0    0  0.27993340212E+02  0.10705344229E+02  0.21788557851E+02  0.37067138337E+02  0.10000000000E+01 0.  1.
    1000022    2    1    0    0    0  0.47273403738E+02  0.24249037613E+02  0.31360157402E+02  0.62500000858E+02  0.10000005440E+02 0.  0.
    3000022    2    3    3    0    0  0.19280063526E+02  0.13543693384E+02  0.95715995512E+01  0.25432862520E+02  0.24999595287E+00 0.  0.
    1000022    2    1    0    0    0 -0.47273403738E+02 -0.24249037613E+02 -0.31360157402E+02  0.62499999142E+02  0.99999947207E+01 0.  0.
    3000022    2    5    5    0    0 -0.75682423173E+01 -0.65575215751E+01 -0.25340470934E+01  0.10332631769E+02  0.25000724379E+00 0.  0.
        -13    1    4    4    0    0  0.13453034380E+02  0.94044790735E+01  0.66378364133E+01  0.17705938493E+02  0.10500000000E+00 0.  1.
         13    1    4    4    0    0  0.58270291453E+01  0.41392143103E+01  0.29337631379E+01  0.77269240268E+01  0.10500000000E+00 0. -1.
    3000001    1    5    5    0    0 -0.39705161420E+02 -0.17691516038E+02 -0.28826110309E+02  0.52167367373E+02  0.10000000000E+01 0. -1.
        -13    1    6    6    0    0 -0.30692770363E+01 -0.26071575159E+01 -0.96817353668E+00  0.41432012786E+01  0.10500000000E+00 0.  1.
         13    1    6    6    0    0 -0.44989652810E+01 -0.39503640593E+01 -0.15658735567E+01  0.61894304904E+01  0.10500000000E+00 0. -1.
</event>
<event>
11    0  0.3494755E-009  0.9118800E+02  0.7816531E-02  0.1126479E+00
         25   -1    0    0    0    0  0.00000000000E+00  0.00000000000E+00  0.99999998245E-14  0.12500000000E+03  0.12500000000E+03 0.  0.
    3000001    1    3    3    0    0 -0.16718142443E+01  0.14297117704E+02  0.28788503045E+01  0.14713609910E+02  0.10000000000E+01 0.  1.
    1000022    2    1    0    0    0  0.10336122119E+02  0.59130096599E+02  0.14249431997E+02  0.62500000830E+02  0.10000002366E+02 0.  0.
    3000022    2    3    3    0    0  0.12007936363E+02  0.44832978895E+02  0.11370581693E+02  0.47786390920E+02  0.24999377451E+00 0.  0.
    1000022    2    1    0    0    0 -0.10336122119E+02 -0.59130096599E+02 -0.14249431997E+02  0.62499999170E+02  0.99999919892E+01 0.  0.
    3000022    2    5    5    0    0 -0.42587334786E+01 -0.44723441912E+02 -0.80078469931E+01  0.45634539339E+02  0.24999985013E+00 0.  0.
        -13    1    4    4    0    0  0.81230194946E+01  0.30129104811E+02  0.76544592473E+01  0.32130175439E+02  0.10500000000E+00 0. -1.
         13    1    4    4    0    0  0.38849168686E+01  0.14703874084E+02  0.37161224454E+01  0.15656215481E+02  0.10500000000E+00 0.  1.
    3000001    1    5    5    0    0 -0.60773886402E+01 -0.14406654687E+02 -0.62415850041E+01  0.16865459831E+02  0.10000000000E+01 0.  1.
        -13    1    6    6    0    0 -0.20535025835E+01 -0.20875343125E+02 -0.37226124451E+01  0.21304123823E+02  0.10500000000E+00 0.  1.
         13    1    6    6    0    0 -0.22052308950E+01 -0.23848098787E+02 -0.42852345480E+01  0.24330415516E+02  0.10500000000E+00 0. -1.
</event>
<event>
11    0  0.3494755E-009  0.9118800E+02  0.7816531E-02  0.1126479E+00
         25   -1    0    0    0    0  0.00000000000E+00  0.00000000000E+00  0.99999998245E-14  0.12500000000E+03  0.12500000000E+03 0.  0.
    3000001    1    3    3    0    0 -0.57694107320E+00  0.43819748296E+00 -0.46691969470E+00  0.13201863646E+01  0.10000000000E+01 0.  1.
    1000022    2    1    0    0    0  0.71214636593E+01  0.21253132241E+02 -0.57479028161E+02  0.62500002962E+02  0.10000040861E+02 0.  0.
    3000022    2    3    3    0    0  0.76984047325E+01  0.20814934758E+02 -0.57012108467E+02  0.61179816598E+02  0.25000542598E+00 0.  0.
    1000022    2    1    0    0    0 -0.71214636593E+01 -0.21253132241E+02  0.57479028161E+02  0.62499997038E+02  0.10000003831E+02 0.  0.
    3000022    2    5    5    0    0  0.42078444217E+00 -0.13950695442E+02  0.30983829057E+02  0.33983218377E+02  0.25001065660E+00 0.  0.
        -13    1    4    4    0    0  0.52378227239E+01  0.14173784905E+02 -0.38677900753E+02  0.41524956317E+02  0.10500000000E+00 0. -1.
         13    1    4    4    0    0  0.24605820086E+01  0.66411498530E+01 -0.18334207713E+02  0.19654860281E+02  0.10500000000E+00 0.  1.
    3000001    1    5    5    0    0 -0.75422481015E+01 -0.73024367994E+01  0.26495199104E+02  0.28516778661E+02  0.10000000000E+01 0.  1.
        -13    1    6    6    0    0  0.22750075461E+00 -0.59344815600E+01  0.13077959322E+02  0.14363630216E+02  0.10500000000E+00 0. -1.
         13    1    6    6    0    0  0.19328368756E+00 -0.80162138820E+01  0.17905869736E+02  0.19619588160E+02  0.10500000000E+00 0.  1.
</event>
<event>
11    0  0.3494755E-009  0.9118800E+02  0.7816531E-02  0.1126479E+00
         25   -1    0    0    0    0  0.00000000000E+00  0.00000000000E+00  0.99999998245E-14  0.12500000000E+03  0.12500000000E+03 0.  0.
    3000001    1    3    3    0    0 -0.11699836214E+02  0.18601845487E+02  0.43926030386E+01  0.22432337917E+02  0.10000000000E+01 0. -1.
    1000022    2    1    0    0    0 -0.21300557384E+02  0.54951176669E+02  0.18245658660E+02  0.62499997881E+02  0.10000005652E+02 0.  0.
    3000022    2    3    3    0    0 -0.96007211700E+01  0.36349331182E+02  0.13853055621E+02  0.40067659964E+02  0.25000122213E+00 0.  0.
    1000022    2    1    0    0    0  0.21300557384E+02 -0.54951176669E+02 -0.18245658660E+02  0.62500002119E+02  0.10000032139E+02 0.  0.
    3000022    2    5    5    0    0  0.11195582466E+02 -0.18037438778E+02 -0.93306774363E+01  0.23190824395E+02  0.25006049281E+00 0.  0.
        -13    1    4    4    0    0 -0.71021506129E+01  0.26935233156E+02  0.10294785657E+02  0.29697490891E+02  0.10500000000E+00 0. -1.
         13    1    4    4    0    0 -0.24985705570E+01  0.94140980255E+01  0.35582699649E+01  0.10370169073E+02  0.10500000000E+00 0.  1.
    3000001    1    5    5    0    0  0.10104974918E+02 -0.36913737890E+02 -0.89149812238E+01  0.39309177724E+02  0.10000000000E+01 0. -1.
        -13    1    6    6    0    0  0.68058603105E+01 -0.10982941684E+02 -0.56115424318E+01  0.14087057040E+02  0.10500000000E+00 0.  1.
         13    1    6    6    0    0  0.43897221557E+01 -0.70544970947E+01 -0.37191350045E+01  0.91037673546E+01  0.10500000000E+00 0. -1.
</event>
