<event>
 4    1  0.1116135E+000  0.1918746E+03  0.7546771E-02  0.1156781E+00
         21   -1    0    0  501  502  0.00000000000E+00  0.00000000000E+00  0.42714634729E+03  0.42714634729E+03  0.00000000000E+00 0.  1.
         21   -1    0    0  502  503 -0.00000000000E+00 -0.00000000000E+00 -0.11290867673E+03  0.11290867673E+03  0.00000000000E+00 0.  1.
          6    1    1    2  501    0 -0.85025220444E+02 -0.16087918545E+01  0.28847465077E+03  0.34645851189E+03  0.17200000000E+03 0.  1.
         -6    1    1    2    0  503  0.85025220444E+02  0.16087918545E+01  0.25763019787E+02  0.19359651214E+03  0.17200000000E+03 0.  1.
<mgrwt>
<rscale>  2 0.19187464E+03</rscale>
<asrwt>0</asrwt>
<pdfrwt beam="1">  1       21 0.10678658E+00 0.19187464E+03</pdfrwt>
<pdfrwt beam="2">  1       21 0.28227170E-01 0.19187464E+03</pdfrwt>
<totfact> 0.84201096E+03</totfact>
</mgrwt>
</event>
<event>
 4    1  0.1116135E+000  0.1725972E+03  0.7546771E-02  0.1175166E+00
         21   -1    0    0  501  502  0.00000000000E+00  0.00000000000E+00  0.26091212685E+03  0.26091212685E+03  0.00000000000E+00 0.  1.
         21   -1    0    0  502  503 -0.00000000000E+00 -0.00000000000E+00 -0.11564839895E+03  0.11564839895E+03  0.00000000000E+00 0.  1.
          6    1    1    2  501    0 -0.13275329866E+01 -0.14284382247E+02  0.93879107522E+02  0.19647669773E+03  0.17200000000E+03 0.  1.
         -6    1    1    2    0  503  0.13275329866E+01  0.14284382247E+02  0.51384620381E+02  0.18008382807E+03  0.17200000000E+03 0.  1.
<mgrwt>
<rscale>  2 0.17259724E+03</rscale>
<asrwt>0</asrwt>
<pdfrwt beam="1">  1       21 0.65228031E-01 0.17259724E+03</pdfrwt>
<pdfrwt beam="2">  1       21 0.28912100E-01 0.17259724E+03</pdfrwt>
<totfact> 0.25054489E+04</totfact>
</mgrwt>
</event>
<event>
 4    1  0.1116135E+000  0.2073849E+03  0.7546771E-02  0.1143654E+00
         21   -1    0    0  501  502  0.00000000000E+00  0.00000000000E+00  0.26080729433E+03  0.26080729433E+03  0.00000000000E+00 0.  1.
         21   -1    0    0  502  503 -0.00000000000E+00 -0.00000000000E+00 -0.17689535126E+03  0.17689535126E+03  0.00000000000E+00 0.  1.
          6    1    1    2  501    0  0.10564728483E+03  0.47572442885E+02  0.98933394835E+02  0.22977446056E+03  0.17200000000E+03 0.  1.
         -6    1    1    2    0  503 -0.10564728483E+03 -0.47572442885E+02 -0.15021451768E+02  0.20792818502E+03  0.17200000000E+03 0.  1.
<mgrwt>
<rscale>  2 0.20738487E+03</rscale>
<asrwt>0</asrwt>
<pdfrwt beam="1">  1       21 0.65201823E-01 0.20738487E+03</pdfrwt>
<pdfrwt beam="2">  1       21 0.44223838E-01 0.20738487E+03</pdfrwt>
<totfact> 0.10525385E+04</totfact>
</mgrwt>
</event>
<event>
 4    1  0.1116135E+000  0.1736048E+03  0.7546771E-02  0.1174140E+00
         21   -1    0    0  503  502  0.00000000000E+00  0.00000000000E+00  0.70239095969E+02  0.70239095969E+02  0.00000000000E+00 0. -1.
         21   -1    0    0  501  503 -0.00000000000E+00 -0.00000000000E+00 -0.60879680704E+03  0.60879680704E+03  0.00000000000E+00 0. -1.
          6    1    1    2  501    0  0.11752427612E+02  0.20408302898E+02 -0.45374367832E+03  0.48582089703E+03  0.17200000000E+03 0. -1.
         -6    1    1    2    0  502 -0.11752427612E+02 -0.20408302898E+02 -0.84814032752E+02  0.19321500597E+03  0.17200000000E+03 0. -1.
<mgrwt>
<rscale>  2 0.17360478E+03</rscale>
<asrwt>0</asrwt>
<pdfrwt beam="1">  1       21 0.17559774E-01 0.17360478E+03</pdfrwt>
<pdfrwt beam="2">  1       21 0.15219920E+00 0.17360478E+03</pdfrwt>
<totfact> 0.85840522E+03</totfact>
</mgrwt>
</event>
<event>
 4    1  0.1116135E+000  0.1805623E+03  0.7546771E-02  0.1167260E+00
         21   -1    0    0  503  502  0.00000000000E+00  0.00000000000E+00  0.54228723421E+03  0.54228723421E+03  0.00000000000E+00 0. -1.
         21   -1    0    0  501  503 -0.00000000000E+00 -0.00000000000E+00 -0.95044690020E+02  0.95044690020E+02  0.00000000000E+00 0. -1.
          6    1    1    2  501    0  0.29750100130E+02  0.46191872227E+02  0.30454296517E+02  0.18311259294E+03  0.17200000000E+03 0. -1.
         -6    1    1    2    0  502 -0.29750100130E+02 -0.46191872227E+02  0.41678824767E+03  0.45421933129E+03  0.17200000000E+03 0. -1.
<mgrwt>
<rscale>  2 0.18056234E+03</rscale>
<asrwt>0</asrwt>
<pdfrwt beam="1">  1       21 0.13557180E+00 0.18056234E+03</pdfrwt>
<pdfrwt beam="2">  1       21 0.23761174E-01 0.18056234E+03</pdfrwt>
<totfact> 0.65479417E+03</totfact>
</mgrwt>
</event>
<event>
 4    1  0.1116135E+000  0.1754180E+03  0.7546771E-02  0.1172313E+00
         21   -1    0    0  501  502  0.00000000000E+00  0.00000000000E+00  0.27142574439E+03  0.27142574439E+03  0.00000000000E+00 0. -1.
         21   -1    0    0  502  503 -0.00000000000E+00 -0.00000000000E+00 -0.14155076386E+03  0.14155076386E+03  0.00000000000E+00 0. -1.
          6    1    1    2  501    0 -0.16698593369E+02 -0.30143664996E+02  0.15707089722E+03  0.23546284274E+03  0.17200000000E+03 0. -1.
         -6    1    1    2    0  503  0.16698593369E+02  0.30143664996E+02 -0.27195916687E+02  0.17751366551E+03  0.17200000000E+03 0. -1.
<mgrwt>
<rscale>  2 0.17541803E+03</rscale>
<asrwt>0</asrwt>
<pdfrwt beam="1">  1       21 0.67856435E-01 0.17541803E+03</pdfrwt>
<pdfrwt beam="2">  1       21 0.35387691E-01 0.17541803E+03</pdfrwt>
<totfact> 0.15445328E+04</totfact>
</mgrwt>
</event>
<event>
 4    1  0.1116135E+000  0.1737553E+03  0.7546771E-02  0.1173987E+00
         21   -1    0    0  501  502  0.00000000000E+00  0.00000000000E+00  0.31303150199E+03  0.31303150199E+03  0.00000000000E+00 0.  1.
         21   -1    0    0  502  503 -0.00000000000E+00 -0.00000000000E+00 -0.19437839044E+03  0.19437839044E+03  0.00000000000E+00 0.  1.
          6    1    1    2  501    0 -0.66681162558E+01  0.23716085887E+02  0.23940682694E+03  0.29581505251E+03  0.17200000000E+03 0.  1.
         -6    1    1    2    0  503  0.66681162558E+01 -0.23716085887E+02 -0.12075371538E+03  0.21159483993E+03  0.17200000000E+03 0.  1.
<mgrwt>
<rscale>  2 0.17375534E+03</rscale>
<asrwt>0</asrwt>
<pdfrwt beam="1">  1       21 0.78257875E-01 0.17375534E+03</pdfrwt>
<pdfrwt beam="2">  1       21 0.48594598E-01 0.17375534E+03</pdfrwt>
<totfact> 0.59311508E+03</totfact>
</mgrwt>
</event>
<event>
 4    1  0.1116135E+000  0.1778644E+03  0.7546771E-02  0.1169886E+00
         21   -1    0    0  501  502  0.00000000000E+00  0.00000000000E+00  0.36760799679E+03  0.36760799679E+03  0.00000000000E+00 0. -1.
         21   -1    0    0  502  503 -0.00000000000E+00 -0.00000000000E+00 -0.97893170961E+02  0.97893170961E+02  0.00000000000E+00 0. -1.
          6    1    1    2  501    0  0.35352638859E+02 -0.28318467334E+02  0.21578471771E+03  0.27964046392E+03  0.17200000000E+03 0. -1.
         -6    1    1    2    0  503 -0.35352638859E+02  0.28318467334E+02  0.53930108126E+02  0.18586070383E+03  0.17200000000E+03 0. -1.
<mgrwt>
<rscale>  2 0.17786440E+03</rscale>
<asrwt>0</asrwt>
<pdfrwt beam="1">  1       21 0.91901996E-01 0.17786440E+03</pdfrwt>
<pdfrwt beam="2">  1       21 0.24473294E-01 0.17786440E+03</pdfrwt>
<totfact> 0.15939318E+04</totfact>
</mgrwt>
</event>
<event>
 4    1  0.1116135E+000  0.2243477E+03  0.7546771E-02  0.1130683E+00
         21   -1    0    0  503  502  0.00000000000E+00  0.00000000000E+00  0.55878717060E+02  0.55878717060E+02  0.00000000000E+00 0.  1.
         21   -1    0    0  501  503 -0.00000000000E+00 -0.00000000000E+00 -0.90433389828E+03  0.90433389828E+03  0.00000000000E+00 0. -1.
          6    1    1    2  501    0 -0.10877737096E+03  0.94421285150E+02 -0.45451625556E+03  0.50686972891E+03  0.17200000000E+03 0. -1.
         -6    1    1    2    0  502  0.10877737096E+03 -0.94421285150E+02 -0.39393892566E+03  0.45334288643E+03  0.17200000000E+03 0.  1.
<mgrwt>
<rscale>  2 0.22434771E+03</rscale>
<asrwt>0</asrwt>
<pdfrwt beam="1">  1       21 0.13969679E-01 0.22434771E+03</pdfrwt>
<pdfrwt beam="2">  1       21 0.22608348E+00 0.22434771E+03</pdfrwt>
<totfact> 0.39999451E+03</totfact>
</mgrwt>
</event>
<event>
 4    1  0.1116135E+000  0.1739520E+03  0.7546771E-02  0.1173788E+00
         21   -1    0    0  501  502  0.00000000000E+00  0.00000000000E+00  0.42585832048E+03  0.42585832048E+03  0.00000000000E+00 0. -1.
         21   -1    0    0  502  503 -0.00000000000E+00 -0.00000000000E+00 -0.31144595509E+03  0.31144595509E+03  0.00000000000E+00 0. -1.
          6    1    1    2  501    0  0.25482489098E+02 -0.50927627169E+01  0.38108654626E+03  0.41891078910E+03  0.17200000000E+03 0. -1.
         -6    1    1    2    0  503 -0.25482489098E+02  0.50927627169E+01 -0.26667418087E+03  0.31839348647E+03  0.17200000000E+03 0. -1.
<mgrwt>
<rscale>  2 0.17395199E+03</rscale>
<asrwt>0</asrwt>
<pdfrwt beam="1">  1       21 0.10646458E+00 0.17395199E+03</pdfrwt>
<pdfrwt beam="2">  1       21 0.77861489E-01 0.17395199E+03</pdfrwt>
<totfact> 0.10536076E+03</totfact>
</mgrwt>
</event>
<event>
 4    1  0.1116135E+000  0.1946372E+03  0.7546771E-02  0.1154344E+00
         21   -1    0    0  501  502  0.00000000000E+00  0.00000000000E+00  0.13543494088E+04  0.13543494088E+04  0.00000000000E+00 0.  1.
         21   -1    0    0  502  503 -0.00000000000E+00 -0.00000000000E+00 -0.40766406106E+02  0.40766406106E+02  0.00000000000E+00 0.  1.
          6    1    1    2  501    0 -0.34800210792E+02  0.84193713572E+02  0.10475801549E+04  0.10655082435E+04  0.17200000000E+03 0.  1.
         -6    1    1    2    0  503  0.34800210792E+02 -0.84193713572E+02  0.26600284778E+03  0.32960757136E+03  0.17200000000E+03 0.  1.
<mgrwt>
<rscale>  2 0.19463719E+03</rscale>
<asrwt>0</asrwt>
<pdfrwt beam="1">  1       21 0.33858720E+00 0.19463719E+03</pdfrwt>
<pdfrwt beam="2">  1       21 0.10191606E-01 0.19463719E+03</pdfrwt>
<totfact> 0.15968130E+03</totfact>
</mgrwt>
</event>
<event>
 4    1  0.1116135E+000  0.2664098E+03  0.7546771E-02  0.1103352E+00
         21   -1    0    0  501  502  0.00000000000E+00  0.00000000000E+00  0.90378182899E+02  0.90378182899E+02  0.00000000000E+00 0.  1.
         21   -1    0    0  502  503 -0.00000000000E+00 -0.00000000000E+00 -0.93074658239E+03  0.93074658239E+03  0.00000000000E+00 0. -1.
          6    1    1    2  501    0 -0.33051259220E+02 -0.20074315144E+03 -0.62201217074E+03  0.67666338687E+03  0.17200000000E+03 0. -1.
         -6    1    1    2    0  503  0.33051259220E+02  0.20074315144E+03 -0.21835622875E+03  0.34446137841E+03  0.17200000000E+03 0.  1.
<mgrwt>
<rscale>  2 0.26640983E+03</rscale>
<asrwt>0</asrwt>
<pdfrwt beam="1">  1       21 0.22594546E-01 0.26640983E+03</pdfrwt>
<pdfrwt beam="2">  1       21 0.23268664E+00 0.26640983E+03</pdfrwt>
<totfact> 0.14384426E+03</totfact>
</mgrwt>
</event>
<event>
 4    1  0.1116135E+000  0.2132818E+03  0.7546771E-02  0.1138993E+00
         21   -1    0    0  503  502  0.00000000000E+00  0.00000000000E+00  0.29006473788E+03  0.29006473788E+03  0.00000000000E+00 0.  1.
         21   -1    0    0  501  503 -0.00000000000E+00 -0.00000000000E+00 -0.17489650191E+03  0.17489650191E+03  0.00000000000E+00 0. -1.
          6    1    1    2  501    0 -0.44398101513E+02  0.11804207187E+03 -0.17147594013E+02  0.21397000287E+03  0.17200000000E+03 0. -1.
         -6    1    1    2    0  502  0.44398101513E+02 -0.11804207187E+03  0.13231582998E+03  0.25099123692E+03  0.17200000000E+03 0.  1.
<mgrwt>
<rscale>  2 0.21328179E+03</rscale>
<asrwt>0</asrwt>
<pdfrwt beam="1">  1       21 0.72516184E-01 0.21328179E+03</pdfrwt>
<pdfrwt beam="2">  1       21 0.43724126E-01 0.21328179E+03</pdfrwt>
<totfact> 0.84904557E+03</totfact>
</mgrwt>
</event>
<event>
 4    1  0.1116135E+000  0.3434724E+03  0.7546771E-02  0.1065327E+00
         21   -1    0    0  503  502  0.00000000000E+00  0.00000000000E+00  0.78172917587E+03  0.78172917587E+03  0.00000000000E+00 0. -1.
         21   -1    0    0  501  503 -0.00000000000E+00 -0.00000000000E+00 -0.15289611173E+03  0.15289611173E+03  0.00000000000E+00 0.  1.
          6    1    1    2  501    0  0.17343829391E+03  0.24147139070E+03  0.26119862383E+03  0.43150665744E+03  0.17200000000E+03 0. -1.
         -6    1    1    2    0  502 -0.17343829391E+03 -0.24147139070E+03  0.36763444031E+03  0.50311863017E+03  0.17200000000E+03 0.  1.
<mgrwt>
<rscale>  2 0.34347238E+03</rscale>
<asrwt>0</asrwt>
<pdfrwt beam="1">  1       21 0.19543228E+00 0.34347238E+03</pdfrwt>
<pdfrwt beam="2">  1       21 0.38224030E-01 0.34347238E+03</pdfrwt>
<totfact> 0.83547626E+02</totfact>
</mgrwt>
</event>
<event>
 4    1  0.1116135E+000  0.1765956E+03  0.7546771E-02  0.1171139E+00
         21   -1    0    0  501  502  0.00000000000E+00  0.00000000000E+00  0.22113766031E+03  0.22113766031E+03  0.00000000000E+00 0. -1.
         21   -1    0    0  502  503 -0.00000000000E+00 -0.00000000000E+00 -0.17485123919E+03  0.17485123919E+03  0.00000000000E+00 0. -1.
          6    1    1    2  501    0  0.37736126754E+02 -0.13341765908E+02  0.11022818138E+03  0.20817365335E+03  0.17200000000E+03 0. -1.
         -6    1    1    2    0  503 -0.37736126754E+02  0.13341765908E+02 -0.63941760256E+02  0.18781524615E+03  0.17200000000E+03 0. -1.
<mgrwt>
<rscale>  2 0.17659563E+03</rscale>
<asrwt>0</asrwt>
<pdfrwt beam="1">  1       21 0.55284415E-01 0.17659563E+03</pdfrwt>
<pdfrwt beam="2">  1       21 0.43712810E-01 0.17659563E+03</pdfrwt>
<totfact> 0.15675256E+04</totfact>
</mgrwt>
</event>
<event>
 4    1  0.1116135E+000  0.2076672E+03  0.7546771E-02  0.1143427E+00
         21   -1    0    0  503  502  0.00000000000E+00  0.00000000000E+00  0.11588057549E+03  0.11588057549E+03  0.00000000000E+00 0. -1.
         21   -1    0    0  501  503 -0.00000000000E+00 -0.00000000000E+00 -0.51102377360E+03  0.51102377360E+03  0.00000000000E+00 0.  1.
          6    1    1    2  501    0  0.10471934367E+03  0.50749470743E+02 -0.36097138923E+03  0.41644446635E+03  0.17200000000E+03 0.  1.
         -6    1    1    2    0  502 -0.10471934367E+03 -0.50749470743E+02 -0.34171808884E+02  0.21045988273E+03  0.17200000000E+03 0. -1.
<mgrwt>
<rscale>  2 0.20766716E+03</rscale>
<asrwt>0</asrwt>
<pdfrwt beam="1">  1       21 0.28970145E-01 0.20766716E+03</pdfrwt>
<pdfrwt beam="2">  1       21 0.12775594E+00 0.20766716E+03</pdfrwt>
<totfact> 0.50892720E+03</totfact>
</mgrwt>
</event>
<event>
 4    1  0.1116135E+000  0.1871227E+03  0.7546771E-02  0.1161082E+00
         21   -1    0    0  503  502  0.00000000000E+00  0.00000000000E+00  0.15437782654E+03  0.15437782654E+03  0.00000000000E+00 0.  1.
         21   -1    0    0  501  503 -0.00000000000E+00 -0.00000000000E+00 -0.38238589757E+03  0.38238589757E+03  0.00000000000E+00 0.  1.
          6    1    1    2  501    0 -0.30410319268E+02 -0.67127508973E+02  0.57182369137E+02  0.19566479836E+03  0.17200000000E+03 0.  1.
         -6    1    1    2    0  502  0.30410319268E+02  0.67127508973E+02 -0.28519044016E+03  0.34109892574E+03  0.17200000000E+03 0.  1.
<mgrwt>
<rscale>  2 0.18712266E+03</rscale>
<asrwt>0</asrwt>
<pdfrwt beam="1">  1       21 0.38594457E-01 0.18712266E+03</pdfrwt>
<pdfrwt beam="2">  1       21 0.95596474E-01 0.18712266E+03</pdfrwt>
<totfact> 0.59348686E+03</totfact>
</mgrwt>
</event>
<event>
 4    1  0.1116135E+000  0.2637706E+03  0.7546771E-02  0.1104899E+00
         21   -1    0    0  503  502  0.00000000000E+00  0.00000000000E+00  0.19441109848E+03  0.19441109848E+03  0.00000000000E+00 0.  1.
         21   -1    0    0  501  503 -0.00000000000E+00 -0.00000000000E+00 -0.38913710534E+03  0.38913710534E+03  0.00000000000E+00 0. -1.
          6    1    1    2  501    0 -0.18794118657E+03  0.68330395811E+02 -0.18006240370E+03  0.31937032083E+03  0.17200000000E+03 0. -1.
         -6    1    1    2    0  502  0.18794118657E+03 -0.68330395811E+02 -0.14663603163E+02  0.26417788298E+03  0.17200000000E+03 0.  1.
<mgrwt>
<rscale>  2 0.26377061E+03</rscale>
<asrwt>0</asrwt>
<pdfrwt beam="1">  1       21 0.48602775E-01 0.26377061E+03</pdfrwt>
<pdfrwt beam="2">  1       21 0.97284276E-01 0.26377061E+03</pdfrwt>
<totfact> 0.33611015E+03</totfact>
</mgrwt>
</event>
<event>
 4    1  0.1116135E+000  0.1991422E+03  0.7546771E-02  0.1150465E+00
         21   -1    0    0  503  502  0.00000000000E+00  0.00000000000E+00  0.12864761954E+03  0.12864761954E+03  0.00000000000E+00 0. -1.
         21   -1    0    0  501  503 -0.00000000000E+00 -0.00000000000E+00 -0.37318980168E+03  0.37318980168E+03  0.00000000000E+00 0. -1.
          6    1    1    2  501    0 -0.45519907178E+01 -0.10026420855E+03 -0.17613300178E+02  0.19991963505E+03  0.17200000000E+03 0. -1.
         -6    1    1    2    0  502  0.45519907178E+01  0.10026420855E+03 -0.22692888196E+03  0.30191778617E+03  0.17200000000E+03 0. -1.
<mgrwt>
<rscale>  2 0.19914224E+03</rscale>
<asrwt>0</asrwt>
<pdfrwt beam="1">  1       21 0.32161905E-01 0.19914224E+03</pdfrwt>
<pdfrwt beam="2">  1       21 0.93297449E-01 0.19914224E+03</pdfrwt>
<totfact> 0.89448239E+03</totfact>
</mgrwt>
</event>
<event>
 4    1  0.1116135E+000  0.2055635E+03  0.7546771E-02  0.1145128E+00
         21   -1    0    0  503  502  0.00000000000E+00  0.00000000000E+00  0.12205394314E+03  0.12205394314E+03  0.00000000000E+00 0.  1.
         21   -1    0    0  501  503 -0.00000000000E+00 -0.00000000000E+00 -0.36218610809E+03  0.36218610809E+03  0.00000000000E+00 0.  1.
          6    1    1    2  501    0 -0.60525701986E+02  0.94915653319E+02 -0.17091657548E+03  0.26733652504E+03  0.17200000000E+03 0.  1.
         -6    1    1    2    0  502  0.60525701986E+02 -0.94915653319E+02 -0.69215589468E+02  0.21690352618E+03  0.17200000000E+03 0.  1.
<mgrwt>
<rscale>  2 0.20556347E+03</rscale>
<asrwt>0</asrwt>
<pdfrwt beam="1">  1       21 0.30513486E-01 0.20556347E+03</pdfrwt>
<pdfrwt beam="2">  1       21 0.90546526E-01 0.20556347E+03</pdfrwt>
<totfact> 0.10585196E+04</totfact>
</mgrwt>
</event>
<event>
 4    1  0.1116135E+000  0.1930736E+03  0.7546771E-02  0.1155718E+00
         21   -1    0    0  503  502  0.00000000000E+00  0.00000000000E+00  0.44390631244E+03  0.44390631244E+03  0.00000000000E+00 0. -1.
         21   -1    0    0  501  503 -0.00000000000E+00 -0.00000000000E+00 -0.29774313512E+03  0.29774313512E+03  0.00000000000E+00 0.  1.
          6    1    1    2  501    0 -0.10645088496E+02 -0.87063803437E+02 -0.24112724635E+03  0.30890091083E+03  0.17200000000E+03 0.  1.
         -6    1    1    2    0  502  0.10645088496E+02  0.87063803437E+02  0.38729042367E+03  0.43274853673E+03  0.17200000000E+03 0. -1.
<mgrwt>
<rscale>  2 0.19307362E+03</rscale>
<asrwt>0</asrwt>
<pdfrwt beam="1">  1       21 0.11097658E+00 0.19307362E+03</pdfrwt>
<pdfrwt beam="2">  1       21 0.74435784E-01 0.19307362E+03</pdfrwt>
<totfact> 0.10332888E+03</totfact>
</mgrwt>
</event>
<event>
 4    1  0.1116135E+000  0.1746295E+03  0.7546771E-02  0.1173104E+00
         21   -1    0    0  501  502  0.00000000000E+00  0.00000000000E+00  0.90337566151E+02  0.90337566151E+02  0.00000000000E+00 0. -1.
         21   -1    0    0  502  503 -0.00000000000E+00 -0.00000000000E+00 -0.54074449333E+03  0.54074449333E+03  0.00000000000E+00 0. -1.
          6    1    1    2  501    0 -0.28115594021E+02 -0.10999681890E+02 -0.31787779653E+02  0.17749913398E+03  0.17200000000E+03 0. -1.
         -6    1    1    2    0  503  0.28115594021E+02  0.10999681890E+02 -0.41861914752E+03  0.45358292550E+03  0.17200000000E+03 0. -1.
<mgrwt>
<rscale>  2 0.17462955E+03</rscale>
<asrwt>0</asrwt>
<pdfrwt beam="1">  1       21 0.22584392E-01 0.17462955E+03</pdfrwt>
<pdfrwt beam="2">  1       21 0.13518612E+00 0.17462955E+03</pdfrwt>
<totfact> 0.72959584E+03</totfact>
</mgrwt>
</event>
<event>
 4    1  0.1116135E+000  0.1817619E+03  0.7546771E-02  0.1166109E+00
         21   -1    0    0  503  502  0.00000000000E+00  0.00000000000E+00  0.42113603037E+03  0.42113603037E+03  0.00000000000E+00 0. -1.
         21   -1    0    0  501  503 -0.00000000000E+00 -0.00000000000E+00 -0.19238805616E+03  0.19238805616E+03  0.00000000000E+00 0. -1.
          6    1    1    2  501    0 -0.40902244448E+02 -0.42194877031E+02 -0.12170113951E+03  0.21874315671E+03  0.17200000000E+03 0. -1.
         -6    1    1    2    0  502  0.40902244448E+02  0.42194877031E+02  0.35044911372E+03  0.39478092983E+03  0.17200000000E+03 0. -1.
<mgrwt>
<rscale>  2 0.18176194E+03</rscale>
<asrwt>0</asrwt>
<pdfrwt beam="1">  1       21 0.10528401E+00 0.18176194E+03</pdfrwt>
<pdfrwt beam="2">  1       21 0.48097015E-01 0.18176194E+03</pdfrwt>
<totfact> 0.30270972E+03</totfact>
</mgrwt>
</event>
<event>
 4    1  0.1116135E+000  0.1730601E+03  0.7546771E-02  0.1174694E+00
         21   -1    0    0  503  502  0.00000000000E+00  0.00000000000E+00  0.10271968211E+03  0.10271968211E+03  0.00000000000E+00 0.  1.
         21   -1    0    0  501  503 -0.00000000000E+00 -0.00000000000E+00 -0.62459400662E+03  0.62459400662E+03  0.00000000000E+00 0.  1.
          6    1    1    2  501    0 -0.82702259351E+01  0.17245572671E+02 -0.52647824249E+03  0.55419233685E+03  0.17200000000E+03 0.  1.
         -6    1    1    2    0  502  0.82702259351E+01 -0.17245572671E+02  0.46039179825E+01  0.17312135187E+03  0.17200000000E+03 0.  1.
<mgrwt>
<rscale>  2 0.17306012E+03</rscale>
<asrwt>0</asrwt>
<pdfrwt beam="1">  1       21 0.25679921E-01 0.17306012E+03</pdfrwt>
<pdfrwt beam="2">  1       21 0.15614850E+00 0.17306012E+03</pdfrwt>
<totfact> 0.39367725E+03</totfact>
</mgrwt>
</event>
<event>
 4    1  0.1116135E+000  0.2271701E+03  0.7546771E-02  0.1128648E+00
         21   -1    0    0  501  502  0.00000000000E+00  0.00000000000E+00  0.31157177977E+03  0.31157177977E+03  0.00000000000E+00 0.  1.
         21   -1    0    0  502  503 -0.00000000000E+00 -0.00000000000E+00 -0.20240607804E+03  0.20240607804E+03  0.00000000000E+00 0. -1.
          6    1    1    2  501    0  0.14637431628E+03  0.24429961989E+02  0.16412302154E+03  0.28025458018E+03  0.17200000000E+03 0. -1.
         -6    1    1    2    0  503 -0.14637431628E+03 -0.24429961989E+02 -0.54957319810E+02  0.23372327764E+03  0.17200000000E+03 0.  1.
<mgrwt>
<rscale>  2 0.22717012E+03</rscale>
<asrwt>0</asrwt>
<pdfrwt beam="1">  1       21 0.77892944E-01 0.22717012E+03</pdfrwt>
<pdfrwt beam="2">  1       21 0.50601520E-01 0.22717012E+03</pdfrwt>
<totfact> 0.52924044E+03</totfact>
</mgrwt>
</event>
<event>
 4    1  0.1116135E+000  0.1976529E+03  0.7546771E-02  0.1151734E+00
         21   -1    0    0  503  502  0.00000000000E+00  0.00000000000E+00  0.12689773558E+03  0.12689773558E+03  0.00000000000E+00 0. -1.
         21   -1    0    0  501  503 -0.00000000000E+00 -0.00000000000E+00 -0.34872280407E+03  0.34872280407E+03  0.00000000000E+00 0. -1.
          6    1    1    2  501    0 -0.68098710304E+02  0.69607768538E+02 -0.29506411131E+02  0.19984319874E+03  0.17200000000E+03 0. -1.
         -6    1    1    2    0  502  0.68098710304E+02 -0.69607768538E+02 -0.19231865736E+03  0.27577734090E+03  0.17200000000E+03 0. -1.
<mgrwt>
<rscale>  2 0.19765292E+03</rscale>
<asrwt>0</asrwt>
<pdfrwt beam="1">  1       21 0.31724434E-01 0.19765292E+03</pdfrwt>
<pdfrwt beam="2">  1       21 0.87180700E-01 0.19765292E+03</pdfrwt>
<totfact> 0.10763764E+04</totfact>
</mgrwt>
</event>
<event>
 4    1  0.1116135E+000  0.1803124E+03  0.7546771E-02  0.1167501E+00
         21   -1    0    0  501  502  0.00000000000E+00  0.00000000000E+00  0.20161913751E+03  0.20161913751E+03  0.00000000000E+00 0. -1.
         21   -1    0    0  502  503 -0.00000000000E+00 -0.00000000000E+00 -0.25029253748E+03  0.25029253748E+03  0.00000000000E+00 0. -1.
          6    1    1    2  501    0  0.53935608543E+02  0.44192250341E+01  0.11042929237E+03  0.21144079084E+03  0.17200000000E+03 0. -1.
         -6    1    1    2    0  503 -0.53935608543E+02 -0.44192250341E+01 -0.15910269233E+03  0.24047088416E+03  0.17200000000E+03 0. -1.
<mgrwt>
<rscale>  2 0.18031245E+03</rscale>
<asrwt>0</asrwt>
<pdfrwt beam="1">  1       21 0.50404785E-01 0.18031245E+03</pdfrwt>
<pdfrwt beam="2">  1       21 0.62573134E-01 0.18031245E+03</pdfrwt>
<totfact> 0.89469076E+03</totfact>
</mgrwt>
</event>
<event>
 4    1  0.1116135E+000  0.3065896E+03  0.7546771E-02  0.1081992E+00
         21   -1    0    0  501  502  0.00000000000E+00  0.00000000000E+00  0.12198813172E+04  0.12198813172E+04  0.00000000000E+00 0. -1.
         21   -1    0    0  502  503 -0.00000000000E+00 -0.00000000000E+00 -0.80018025523E+02  0.80018025523E+02  0.00000000000E+00 0.  1.
          6    1    1    2  501    0 -0.18897243755E+03  0.16941849389E+03  0.69501466670E+03  0.75963319777E+03  0.17200000000E+03 0.  1.
         -6    1    1    2    0  503  0.18897243755E+03 -0.16941849389E+03  0.44484862493E+03  0.54026614491E+03  0.17200000000E+03 0.  1.
<mgrwt>
<rscale>  2 0.30658964E+03</rscale>
<asrwt>0</asrwt>
<pdfrwt beam="1">  1       21 0.30497027E+00 0.30658964E+03</pdfrwt>
<pdfrwt beam="2">  1       21 0.20004510E-01 0.30658964E+03</pdfrwt>
<totfact> 0.65041506E+02</totfact>
</mgrwt>
</event>
<event>
 4    1  0.1116135E+000  0.3955308E+03  0.7546771E-02  0.1045338E+00
         21   -1    0    0  503  502  0.00000000000E+00  0.00000000000E+00  0.32589257818E+03  0.32589257818E+03  0.00000000000E+00 0.  1.
         21   -1    0    0  501  503 -0.00000000000E+00 -0.00000000000E+00 -0.57802513039E+03  0.57802513039E+03  0.00000000000E+00 0. -1.
          6    1    1    2  501    0  0.16979624050E+03 -0.31309722016E+03 -0.31213961098E+03  0.50386086304E+03  0.17200000000E+03 0. -1.
         -6    1    1    2    0  502 -0.16979624050E+03  0.31309722016E+03  0.60007058776E+02  0.40005684554E+03  0.17200000000E+03 0.  1.
<mgrwt>
<rscale>  2 0.39553082E+03</rscale>
<asrwt>0</asrwt>
<pdfrwt beam="1">  1       21 0.81473145E-01 0.39553082E+03</pdfrwt>
<pdfrwt beam="2">  1       21 0.14450628E+00 0.39553082E+03</pdfrwt>
<totfact> 0.37027397E+02</totfact>
</mgrwt>
</event>
<event>
 4    1  0.1116135E+000  0.1989211E+03  0.7546771E-02  0.1150652E+00
         21   -1    0    0  503  502  0.00000000000E+00  0.00000000000E+00  0.19651253306E+03  0.19651253306E+03  0.00000000000E+00 0.  1.
         21   -1    0    0  501  503 -0.00000000000E+00 -0.00000000000E+00 -0.36518763338E+03  0.36518763338E+03  0.00000000000E+00 0.  1.
          6    1    1    2  501    0  0.55851572618E+02  0.82862551457E+02 -0.27244725604E+03  0.33733826928E+03  0.17200000000E+03 0.  1.
         -6    1    1    2    0  502 -0.55851572618E+02 -0.82862551457E+02  0.10377215571E+03  0.22436189716E+03  0.17200000000E+03 0.  1.
<mgrwt>
<rscale>  2 0.19892109E+03</rscale>
<asrwt>0</asrwt>
<pdfrwt beam="1">  1       21 0.49128134E-01 0.19892109E+03</pdfrwt>
<pdfrwt beam="2">  1       21 0.91296907E-01 0.19892109E+03</pdfrwt>
<totfact> 0.39965833E+03</totfact>
</mgrwt>
</event>
<event>
 4    1  0.1116135E+000  0.2356873E+03  0.7546771E-02  0.1122700E+00
         21   -1    0    0  503  502  0.00000000000E+00  0.00000000000E+00  0.52671270887E+03  0.52671270887E+03  0.00000000000E+00 0. -1.
         21   -1    0    0  501  503 -0.00000000000E+00 -0.00000000000E+00 -0.15464021741E+03  0.15464021741E+03  0.00000000000E+00 0.  1.
          6    1    1    2  501    0  0.10528108507E+02  0.16079080948E+03 -0.60801202291E+01  0.23576575948E+03  0.17200000000E+03 0.  1.
         -6    1    1    2    0  502 -0.10528108507E+02 -0.16079080948E+03  0.37815261169E+03  0.44558716679E+03  0.17200000000E+03 0. -1.
<mgrwt>
<rscale>  2 0.23568735E+03</rscale>
<asrwt>0</asrwt>
<pdfrwt beam="1">  1       21 0.13167817E+00 0.23568735E+03</pdfrwt>
<pdfrwt beam="2">  1       21 0.38660056E-01 0.23568735E+03</pdfrwt>
<totfact> 0.26042866E+03</totfact>
</mgrwt>
</event>
<event>
 4    1  0.1116135E+000  0.1763352E+03  0.7546771E-02  0.1171398E+00
         21   -1    0    0  503  502  0.00000000000E+00  0.00000000000E+00  0.13839607268E+03  0.13839607268E+03  0.00000000000E+00 0. -1.
         21   -1    0    0  501  503 -0.00000000000E+00 -0.00000000000E+00 -0.29704208130E+03  0.29704208130E+03  0.00000000000E+00 0. -1.
          6    1    1    2  501    0 -0.10015971552E+02  0.37546885346E+02 -0.18678603718E+03  0.25687178118E+03  0.17200000000E+03 0. -1.
         -6    1    1    2    0  502  0.10015971552E+02 -0.37546885346E+02  0.28140028555E+02  0.17856637279E+03  0.17200000000E+03 0. -1.
<mgrwt>
<rscale>  2 0.17633516E+03</rscale>
<asrwt>0</asrwt>
<pdfrwt beam="1">  1       21 0.34599018E-01 0.17633516E+03</pdfrwt>
<pdfrwt beam="2">  1       21 0.74260520E-01 0.17633516E+03</pdfrwt>
<totfact> 0.13229678E+04</totfact>
</mgrwt>
</event>
<event>
 4    1  0.1116135E+000  0.1979152E+03  0.7546771E-02  0.1151510E+00
         21   -1    0    0  503  502  0.00000000000E+00  0.00000000000E+00  0.10580062477E+04  0.10580062477E+04  0.00000000000E+00 0. -1.
         21   -1    0    0  501  503 -0.00000000000E+00 -0.00000000000E+00 -0.39033625582E+02  0.39033625582E+02  0.00000000000E+00 0. -1.
          6    1    1    2  501    0  0.15509029466E+02  0.96674113594E+02  0.38499071354E+03  0.43288366075E+03  0.17200000000E+03 0. -1.
         -6    1    1    2    0  502 -0.15509029466E+02 -0.96674113594E+02  0.63398190853E+03  0.66415621248E+03  0.17200000000E+03 0. -1.
<mgrwt>
<rscale>  2 0.19791517E+03</rscale>
<asrwt>0</asrwt>
<pdfrwt beam="1">  1       21 0.26450147E+00 0.19791517E+03</pdfrwt>
<pdfrwt beam="2">  1       21 0.97584099E-02 0.19791517E+03</pdfrwt>
<totfact> 0.46090742E+03</totfact>
</mgrwt>
</event>
<event>
 4    1  0.1116135E+000  0.2230898E+03  0.7546771E-02  0.1131600E+00
         21   -1    0    0  503  502  0.00000000000E+00  0.00000000000E+00  0.11433039119E+03  0.11433039119E+03  0.00000000000E+00 0.  1.
         21   -1    0    0  501  503 -0.00000000000E+00 -0.00000000000E+00 -0.56312853882E+03  0.56312853882E+03  0.00000000000E+00 0.  1.
          6    1    1    2  501    0  0.12554996329E+03 -0.66500067220E+02 -0.38577835312E+03  0.44563885598E+03  0.17200000000E+03 0.  1.
         -6    1    1    2    0  502 -0.12554996329E+03  0.66500067220E+02 -0.63019794515E+02  0.23182007403E+03  0.17200000000E+03 0.  1.
<mgrwt>
<rscale>  2 0.22308979E+03</rscale>
<asrwt>0</asrwt>
<pdfrwt beam="1">  1       21 0.28582598E-01 0.22308979E+03</pdfrwt>
<pdfrwt beam="2">  1       21 0.14078213E+00 0.22308979E+03</pdfrwt>
<totfact> 0.40276005E+03</totfact>
</mgrwt>
</event>
<event>
 4    1  0.1116135E+000  0.2217219E+03  0.7546771E-02  0.1132606E+00
         21   -1    0    0  501  502  0.00000000000E+00  0.00000000000E+00  0.85796832643E+03  0.85796832643E+03  0.00000000000E+00 0.  1.
         21   -1    0    0  502  503 -0.00000000000E+00 -0.00000000000E+00 -0.59923821886E+02  0.59923821886E+02  0.00000000000E+00 0.  1.
          6    1    1    2  501    0  0.72037357695E+02 -0.11994679689E+03  0.49507784133E+03  0.54245984548E+03  0.17200000000E+03 0.  1.
         -6    1    1    2    0  503 -0.72037357695E+02  0.11994679689E+03  0.30296666321E+03  0.37543230283E+03  0.17200000000E+03 0.  1.
<mgrwt>
<rscale>  2 0.22172193E+03</rscale>
<asrwt>0</asrwt>
<pdfrwt beam="1">  1       21 0.21449204E+00 0.22172193E+03</pdfrwt>
<pdfrwt beam="2">  1       21 0.14980958E-01 0.22172193E+03</pdfrwt>
<totfact> 0.41631816E+03</totfact>
</mgrwt>
</event>
<event>
 4    1  0.1116135E+000  0.2211424E+03  0.7546771E-02  0.1133034E+00
         21   -1    0    0  503  502  0.00000000000E+00  0.00000000000E+00  0.67126049215E+03  0.67126049215E+03  0.00000000000E+00 0. -1.
         21   -1    0    0  501  503 -0.00000000000E+00 -0.00000000000E+00 -0.87161461280E+02  0.87161461280E+02  0.00000000000E+00 0. -1.
          6    1    1    2  501    0  0.59545753846E+02 -0.12559569685E+03  0.13841076976E+03  0.26088602311E+03  0.17200000000E+03 0. -1.
         -6    1    1    2    0  502 -0.59545753846E+02  0.12559569685E+03  0.44568826110E+03  0.49753593031E+03  0.17200000000E+03 0. -1.
<mgrwt>
<rscale>  2 0.22114243E+03</rscale>
<asrwt>0</asrwt>
<pdfrwt beam="1">  1       21 0.16781511E+00 0.22114243E+03</pdfrwt>
<pdfrwt beam="2">  1       21 0.21790367E-01 0.22114243E+03</pdfrwt>
<totfact> 0.42413097E+03</totfact>
</mgrwt>
</event>
<event>
 4    1  0.1116135E+000  0.2333495E+03  0.7546771E-02  0.1124304E+00
         21   -1    0    0  501  502  0.00000000000E+00  0.00000000000E+00  0.13902757369E+03  0.13902757369E+03  0.00000000000E+00 0. -1.
         21   -1    0    0  502  503 -0.00000000000E+00 -0.00000000000E+00 -0.70603193812E+03  0.70603193812E+03  0.00000000000E+00 0. -1.
          6    1    1    2  501    0  0.14776271153E+03  0.55083132417E+02 -0.15568748980E+01  0.23335465338E+03  0.17200000000E+03 0. -1.
         -6    1    1    2    0  503 -0.14776271153E+03 -0.55083132417E+02 -0.56544748953E+03  0.61170485842E+03  0.17200000000E+03 0. -1.
<mgrwt>
<rscale>  2 0.23334946E+03</rscale>
<asrwt>0</asrwt>
<pdfrwt beam="1">  1       21 0.34756894E-01 0.23334946E+03</pdfrwt>
<pdfrwt beam="2">  1       21 0.17650798E+00 0.23334946E+03</pdfrwt>
<totfact> 0.14750685E+03</totfact>
</mgrwt>
</event>
<event>
 4    1  0.1116135E+000  0.1870460E+03  0.7546771E-02  0.1161153E+00
         21   -1    0    0  501  502  0.00000000000E+00  0.00000000000E+00  0.48505324882E+02  0.48505324882E+02  0.00000000000E+00 0. -1.
         21   -1    0    0  502  503 -0.00000000000E+00 -0.00000000000E+00 -0.73355324966E+03  0.73355324966E+03  0.00000000000E+00 0. -1.
          6    1    1    2  501    0  0.73321447359E+02  0.51140112603E+01 -0.29195595658E+03  0.34673400228E+03  0.17200000000E+03 0. -1.
         -6    1    1    2    0  503 -0.73321447359E+02 -0.51140112603E+01 -0.39309196819E+03  0.43532457226E+03  0.17200000000E+03 0. -1.
<mgrwt>
<rscale>  2 0.18704595E+03</rscale>
<asrwt>0</asrwt>
<pdfrwt beam="1">  1       21 0.12126331E-01 0.18704595E+03</pdfrwt>
<pdfrwt beam="2">  1       21 0.18338831E+00 0.18704595E+03</pdfrwt>
<totfact> 0.99862492E+03</totfact>
</mgrwt>
</event>
<event>
 4    1  0.1116135E+000  0.1957503E+03  0.7546771E-02  0.1153375E+00
         21   -1    0    0  501  502  0.00000000000E+00  0.00000000000E+00  0.71046462564E+03  0.71046462564E+03  0.00000000000E+00 0.  1.
         21   -1    0    0  502  503 -0.00000000000E+00 -0.00000000000E+00 -0.88205166488E+02  0.88205166488E+02  0.00000000000E+00 0.  1.
          6    1    1    2  501    0 -0.13621043229E+02  0.92458791251E+02  0.56004700295E+03  0.59327127557E+03  0.17200000000E+03 0.  1.
         -6    1    1    2    0  503  0.13621043229E+02 -0.92458791251E+02  0.62212456198E+02  0.20539851656E+03  0.17200000000E+03 0.  1.
<mgrwt>
<rscale>  2 0.19575025E+03</rscale>
<asrwt>0</asrwt>
<pdfrwt beam="1">  1       21 0.17761614E+00 0.19575025E+03</pdfrwt>
<pdfrwt beam="2">  1       21 0.22051294E-01 0.19575025E+03</pdfrwt>
<totfact> 0.36203345E+03</totfact>
</mgrwt>
</event>
<event>
 4    1  0.1116135E+000  0.2202715E+03  0.7546771E-02  0.1133681E+00
         21   -1    0    0  503  502  0.00000000000E+00  0.00000000000E+00  0.22098541553E+03  0.22098541553E+03  0.00000000000E+00 0.  1.
         21   -1    0    0  501  503 -0.00000000000E+00 -0.00000000000E+00 -0.23190549772E+03  0.23190549772E+03  0.00000000000E+00 0.  1.
          6    1    1    2  501    0 -0.13739573832E+03 -0.76127374259E+01  0.46787228229E+02  0.22518567318E+03  0.17200000000E+03 0.  1.
         -6    1    1    2    0  502  0.13739573832E+03  0.76127374259E+01 -0.57707310416E+02  0.22770524007E+03  0.17200000000E+03 0.  1.
<mgrwt>
<rscale>  2 0.22027152E+03</rscale>
<asrwt>0</asrwt>
<pdfrwt beam="1">  1       21 0.55246354E-01 0.22027152E+03</pdfrwt>
<pdfrwt beam="2">  1       21 0.57976374E-01 0.22027152E+03</pdfrwt>
<totfact> 0.84548645E+03</totfact>
</mgrwt>
</event>
<event>
 4    1  0.1116135E+000  0.1905711E+03  0.7546771E-02  0.1157947E+00
         21   -1    0    0  501  502  0.00000000000E+00  0.00000000000E+00  0.86510913318E+02  0.86510913318E+02  0.00000000000E+00 0.  1.
         21   -1    0    0  502  503 -0.00000000000E+00 -0.00000000000E+00 -0.51031426176E+03  0.51031426176E+03  0.00000000000E+00 0. -1.
          6    1    1    2  501    0  0.65751113146E+02  0.49093037322E+02 -0.86224820154E+02  0.20916991850E+03  0.17200000000E+03 0.  1.
         -6    1    1    2    0  503 -0.65751113146E+02 -0.49093037322E+02 -0.33757852829E+03  0.38765525658E+03  0.17200000000E+03 0. -1.
<mgrwt>
<rscale>  2 0.19057108E+03</rscale>
<asrwt>0</asrwt>
<pdfrwt beam="1">  1       21 0.21627729E-01 0.19057108E+03</pdfrwt>
<pdfrwt beam="2">  1       21 0.12757856E+00 0.19057108E+03</pdfrwt>
<totfact> 0.90483363E+03</totfact>
</mgrwt>
</event>
<event>
 4    1  0.1116135E+000  0.2297708E+03  0.7546771E-02  0.1126801E+00
         21   -1    0    0  503  502  0.00000000000E+00  0.00000000000E+00  0.47892805614E+03  0.47892805614E+03  0.00000000000E+00 0. -1.
         21   -1    0    0  501  503 -0.00000000000E+00 -0.00000000000E+00 -0.16680069785E+03  0.16680069785E+03  0.00000000000E+00 0. -1.
          6    1    1    2  501    0 -0.18715388524E+02  0.15119641297E+03 -0.31953649958E+02  0.23198201829E+03  0.17200000000E+03 0. -1.
         -6    1    1    2    0  502  0.18715388524E+02 -0.15119641297E+03  0.34408100825E+03  0.41374673570E+03  0.17200000000E+03 0. -1.
<mgrwt>
<rscale>  2 0.22977080E+03</rscale>
<asrwt>0</asrwt>
<pdfrwt beam="1">  1       21 0.11973201E+00 0.22977080E+03</pdfrwt>
<pdfrwt beam="2">  1       21 0.41700176E-01 0.22977080E+03</pdfrwt>
<totfact> 0.28510380E+03</totfact>
</mgrwt>
</event>
<event>
 4    1  0.1116135E+000  0.1862384E+03  0.7546771E-02  0.1161899E+00
         21   -1    0    0  503  502  0.00000000000E+00  0.00000000000E+00  0.17727195237E+03  0.17727195237E+03  0.00000000000E+00 0. -1.
         21   -1    0    0  501  503 -0.00000000000E+00 -0.00000000000E+00 -0.20262437717E+03  0.20262437717E+03  0.00000000000E+00 0. -1.
          6    1    1    2  501    0  0.22202581354E+02 -0.67880563651E+02 -0.47895776465E+02  0.19229854639E+03  0.17200000000E+03 0.  1.
         -6    1    1    2    0  502 -0.22202581354E+02  0.67880563651E+02  0.22543351660E+02  0.18759778315E+03  0.17200000000E+03 0.  1.
<mgrwt>
<rscale>  2 0.18623836E+03</rscale>
<asrwt>0</asrwt>
<pdfrwt beam="1">  1       21 0.44317988E-01 0.18623836E+03</pdfrwt>
<pdfrwt beam="2">  1       21 0.50656094E-01 0.18623836E+03</pdfrwt>
<totfact> 0.18201223E+04</totfact>
</mgrwt>
</event>
<event>
 4    1  0.1116135E+000  0.2508580E+03  0.7546771E-02  0.1112764E+00
         21   -1    0    0  501  502  0.00000000000E+00  0.00000000000E+00  0.33471429540E+03  0.33471429540E+03  0.00000000000E+00 0.  1.
         21   -1    0    0  502  503 -0.00000000000E+00 -0.00000000000E+00 -0.37880769303E+03  0.37880769303E+03  0.00000000000E+00 0.  1.
          6    1    1    2  501    0 -0.39179185467E+02 -0.17835566902E+03  0.23114771918E+03  0.34111438159E+03  0.17200000000E+03 0.  1.
         -6    1    1    2    0  503  0.39179185467E+02  0.17835566902E+03 -0.27524111682E+03  0.37240760684E+03  0.17200000000E+03 0.  1.
<mgrwt>
<rscale>  2 0.25085803E+03</rscale>
<asrwt>0</asrwt>
<pdfrwt beam="1">  1       21 0.83678574E-01 0.25085803E+03</pdfrwt>
<pdfrwt beam="2">  1       21 0.94701923E-01 0.25085803E+03</pdfrwt>
<totfact> 0.11008390E+03</totfact>
</mgrwt>
</event>
<event>
 4    1  0.1116135E+000  0.1754567E+03  0.7546771E-02  0.1172274E+00
         21   -1    0    0  501  502  0.00000000000E+00  0.00000000000E+00  0.80113226795E+03  0.80113226795E+03  0.00000000000E+00 0.  1.
         21   -1    0    0  502  503 -0.00000000000E+00 -0.00000000000E+00 -0.46099383619E+02  0.46099383619E+02  0.00000000000E+00 0.  1.
          6    1    1    2  501    0  0.28575622227E+02 -0.19608287337E+02  0.55033558233E+03  0.57762817132E+03  0.17200000000E+03 0.  1.
         -6    1    1    2    0  503 -0.28575622227E+02  0.19608287337E+02  0.20469730200E+03  0.26960348025E+03  0.17200000000E+03 0.  1.
<mgrwt>
<rscale>  2 0.17545669E+03</rscale>
<asrwt>0</asrwt>
<pdfrwt beam="1">  1       21 0.20028302E+00 0.17545669E+03</pdfrwt>
<pdfrwt beam="2">  1       21 0.11524848E-01 0.17545669E+03</pdfrwt>
<totfact> 0.85635203E+03</totfact>
</mgrwt>
</event>
<event>
 4    1  0.1116135E+000  0.2225512E+03  0.7546771E-02  0.1131995E+00
         21   -1    0    0  503  502  0.00000000000E+00  0.00000000000E+00  0.11703915020E+03  0.11703915020E+03  0.00000000000E+00 0.  1.
         21   -1    0    0  501  503 -0.00000000000E+00 -0.00000000000E+00 -0.45421531086E+03  0.45421531086E+03  0.00000000000E+00 0.  1.
          6    1    1    2  501    0  0.62432313225E+02 -0.12667765598E+03 -0.24324553485E+03  0.32969290633E+03  0.17200000000E+03 0.  1.
         -6    1    1    2    0  502 -0.62432313225E+02  0.12667765598E+03 -0.93930625802E+02  0.24156155473E+03  0.17200000000E+03 0.  1.
<mgrwt>
<rscale>  2 0.22255117E+03</rscale>
<asrwt>0</asrwt>
<pdfrwt beam="1">  1       21 0.29259788E-01 0.22255117E+03</pdfrwt>
<pdfrwt beam="2">  1       21 0.11355383E+00 0.22255117E+03</pdfrwt>
<totfact> 0.66165332E+03</totfact>
</mgrwt>
</event>
<event>
 4    1  0.1116135E+000  0.1782331E+03  0.7546771E-02  0.1169524E+00
         21   -1    0    0  501  502  0.00000000000E+00  0.00000000000E+00  0.20297518622E+03  0.20297518622E+03  0.00000000000E+00 0. -1.
         21   -1    0    0  502  503 -0.00000000000E+00 -0.00000000000E+00 -0.30092896078E+03  0.30092896078E+03  0.00000000000E+00 0. -1.
          6    1    1    2  501    0 -0.79505903691E+01 -0.46041525195E+02  0.12556617407E+03  0.21802270065E+03  0.17200000000E+03 0.  1.
         -6    1    1    2    0  503  0.79505903691E+01  0.46041525195E+02 -0.22351994863E+03  0.28588144635E+03  0.17200000000E+03 0.  1.
<mgrwt>
<rscale>  2 0.17823309E+03</rscale>
<asrwt>0</asrwt>
<pdfrwt beam="1">  1       21 0.50743797E-01 0.17823309E+03</pdfrwt>
<pdfrwt beam="2">  1       21 0.75232240E-01 0.17823309E+03</pdfrwt>
<totfact> 0.58994259E+03</totfact>
</mgrwt>
</event>
<event>
 4    1  0.1116135E+000  0.2732949E+03  0.7546771E-02  0.1099409E+00
         21   -1    0    0  503  502  0.00000000000E+00  0.00000000000E+00  0.17806554039E+04  0.17806554039E+04  0.00000000000E+00 0. -1.
         21   -1    0    0  501  503 -0.00000000000E+00 -0.00000000000E+00 -0.48989286446E+02  0.48989286446E+02  0.00000000000E+00 0.  1.
          6    1    1    2  501    0 -0.52789964714E+02 -0.20571660583E+03  0.51893980165E+03  0.58650543052E+03  0.17200000000E+03 0.  1.
         -6    1    1    2    0  502  0.52789964714E+02  0.20571660583E+03  0.12127263158E+04  0.12431392599E+04  0.17200000000E+03 0. -1.
<mgrwt>
<rscale>  2 0.27329490E+03</rscale>
<asrwt>0</asrwt>
<pdfrwt beam="1">  1       21 0.44516363E+00 0.27329490E+03</pdfrwt>
<pdfrwt beam="2">  1       21 0.12247328E-01 0.27329490E+03</pdfrwt>
<totfact> 0.22520434E+02</totfact>
</mgrwt>
</event>
<event>
 4    1  0.1116135E+000  0.1989152E+03  0.7546771E-02  0.1150658E+00
         21   -1    0    0  503  502  0.00000000000E+00  0.00000000000E+00  0.16911116894E+03  0.16911116894E+03  0.00000000000E+00 0. -1.
         21   -1    0    0  501  503 -0.00000000000E+00 -0.00000000000E+00 -0.45625849907E+03  0.45625849907E+03  0.00000000000E+00 0. -1.
          6    1    1    2  501    0 -0.16791064349E+02  0.98495196842E+02 -0.36182558735E+03  0.41289829172E+03  0.17200000000E+03 0. -1.
         -6    1    1    2    0  502  0.16791064349E+02 -0.98495196842E+02  0.74678257223E+02  0.21247137630E+03  0.17200000000E+03 0. -1.
<mgrwt>
<rscale>  2 0.19891517E+03</rscale>
<asrwt>0</asrwt>
<pdfrwt beam="1">  1       21 0.42277793E-01 0.19891517E+03</pdfrwt>
<pdfrwt beam="2">  1       21 0.11406462E+00 0.19891517E+03</pdfrwt>
<totfact> 0.32023111E+03</totfact>
</mgrwt>
</event>
<event>
 4    1  0.1116135E+000  0.1956194E+03  0.7546771E-02  0.1153488E+00
         21   -1    0    0  501  502  0.00000000000E+00  0.00000000000E+00  0.51008540851E+03  0.51008540851E+03  0.00000000000E+00 0. -1.
         21   -1    0    0  502  503 -0.00000000000E+00 -0.00000000000E+00 -0.74464169874E+03  0.74464169874E+03  0.00000000000E+00 0. -1.
          6    1    1    2  501    0 -0.83871295642E+02  0.40602320400E+02  0.47764402680E+03  0.51614993848E+03  0.17200000000E+03 0. -1.
         -6    1    1    2    0  503  0.83871295642E+02 -0.40602320400E+02 -0.71220031703E+03  0.73857716877E+03  0.17200000000E+03 0. -1.
<mgrwt>
<rscale>  2 0.19561938E+03</rscale>
<asrwt>0</asrwt>
<pdfrwt beam="1">  1       21 0.12752135E+00 0.19561938E+03</pdfrwt>
<pdfrwt beam="2">  1       21 0.18616042E+00 0.19561938E+03</pdfrwt>
<totfact> 0.74711405E+01</totfact>
</mgrwt>
</event>
<event>
 4    1  0.1116135E+000  0.1759787E+03  0.7546771E-02  0.1171753E+00
         21   -1    0    0  501  502  0.00000000000E+00  0.00000000000E+00  0.16576404550E+03  0.16576404550E+03  0.00000000000E+00 0. -1.
         21   -1    0    0  502  503 -0.00000000000E+00 -0.00000000000E+00 -0.36661295268E+03  0.36661295268E+03  0.00000000000E+00 0. -1.
          6    1    1    2  501    0 -0.15210522094E+02  0.33957753276E+02  0.85985216835E+02  0.19586205989E+03  0.17200000000E+03 0. -1.
         -6    1    1    2    0  503  0.15210522094E+02 -0.33957753276E+02 -0.28683412402E+03  0.33651493829E+03  0.17200000000E+03 0. -1.
<mgrwt>
<rscale>  2 0.17597866E+03</rscale>
<asrwt>0</asrwt>
<pdfrwt beam="1">  1       21 0.41441012E-01 0.17597866E+03</pdfrwt>
<pdfrwt beam="2">  1       21 0.91653238E-01 0.17597866E+03</pdfrwt>
<totfact> 0.57218263E+03</totfact>
</mgrwt>
</event>
<event>
 4    1  0.1116135E+000  0.2360495E+03  0.7546771E-02  0.1122453E+00
         21   -1    0    0  503  502  0.00000000000E+00  0.00000000000E+00  0.82741410942E+02  0.82741410942E+02  0.00000000000E+00 0. -1.
         21   -1    0    0  501  503 -0.00000000000E+00 -0.00000000000E+00 -0.12290757085E+04  0.12290757085E+04  0.00000000000E+00 0.  1.
          6    1    1    2  501    0  0.16008377347E+03 -0.22551534549E+02 -0.10141873184E+04  0.10412950125E+04  0.17200000000E+03 0.  1.
         -6    1    1    2    0  502 -0.16008377347E+03  0.22551534549E+02 -0.13214697912E+03  0.27052210692E+03  0.17200000000E+03 0. -1.
<mgrwt>
<rscale>  2 0.23604954E+03</rscale>
<asrwt>0</asrwt>
<pdfrwt beam="1">  1       21 0.20685353E-01 0.23604954E+03</pdfrwt>
<pdfrwt beam="2">  1       21 0.30726893E+00 0.23604954E+03</pdfrwt>
<totfact> 0.63504652E+02</totfact>
</mgrwt>
</event>
<event>
 4    1  0.1116135E+000  0.2273597E+03  0.7546771E-02  0.1128512E+00
         21   -1    0    0  503  502  0.00000000000E+00  0.00000000000E+00  0.44449109803E+03  0.44449109803E+03  0.00000000000E+00 0.  1.
         21   -1    0    0  501  503 -0.00000000000E+00 -0.00000000000E+00 -0.17113329654E+03  0.17113329654E+03  0.00000000000E+00 0. -1.
          6    1    1    2  501    0  0.23252790933E+01 -0.14867092451E+03 -0.37564906261E+02  0.23044212484E+03  0.17200000000E+03 0. -1.
         -6    1    1    2    0  502 -0.23252790933E+01  0.14867092451E+03  0.31092270775E+03  0.38518226973E+03  0.17200000000E+03 0.  1.
<mgrwt>
<rscale>  2 0.22735974E+03</rscale>
<asrwt>0</asrwt>
<pdfrwt beam="1">  1       21 0.11112277E+00 0.22735974E+03</pdfrwt>
<pdfrwt beam="2">  1       21 0.42783325E-01 0.22735974E+03</pdfrwt>
<totfact> 0.32556789E+03</totfact>
</mgrwt>
</event>
<event>
 4    1  0.1116135E+000  0.2699956E+03  0.7546771E-02  0.1101282E+00
         21   -1    0    0  501  502  0.00000000000E+00  0.00000000000E+00  0.17180445223E+03  0.17180445223E+03  0.00000000000E+00 0. -1.
         21   -1    0    0  502  503 -0.00000000000E+00 -0.00000000000E+00 -0.42620361062E+03  0.42620361062E+03  0.00000000000E+00 0.  1.
          6    1    1    2  501    0  0.20615452929E+03  0.28529316021E+02 -0.14715238884E+03  0.30749217447E+03  0.17200000000E+03 0. -1.
         -6    1    1    2    0  503 -0.20615452929E+03 -0.28529316021E+02 -0.10724676954E+03  0.29051588837E+03  0.17200000000E+03 0. -1.
<mgrwt>
<rscale>  2 0.26999558E+03</rscale>
<asrwt>0</asrwt>
<pdfrwt beam="1">  1       21 0.42951113E-01 0.26999558E+03</pdfrwt>
<pdfrwt beam="2">  1       21 0.10655090E+00 0.26999558E+03</pdfrwt>
<totfact> 0.34760207E+03</totfact>
</mgrwt>
</event>
<event>
 4    1  0.1116135E+000  0.2038081E+03  0.7546771E-02  0.1146565E+00
         21   -1    0    0  501  502  0.00000000000E+00  0.00000000000E+00  0.97552303334E+02  0.97552303334E+02  0.00000000000E+00 0.  1.
         21   -1    0    0  502  503 -0.00000000000E+00 -0.00000000000E+00 -0.48133360855E+03  0.48133360855E+03  0.00000000000E+00 0. -1.
          6    1    1    2  501    0 -0.21349644283E+02  0.10722851517E+03 -0.29020529385E+03  0.35462215717E+03  0.17200000000E+03 0. -1.
         -6    1    1    2    0  503  0.21349644283E+02 -0.10722851517E+03 -0.93576011368E+02  0.22426375472E+03  0.17200000000E+03 0.  1.
<mgrwt>
<rscale>  2 0.20380815E+03</rscale>
<asrwt>0</asrwt>
<pdfrwt beam="1">  1       21 0.24388076E-01 0.20380815E+03</pdfrwt>
<pdfrwt beam="2">  1       21 0.12033340E+00 0.20380815E+03</pdfrwt>
<totfact> 0.82597133E+03</totfact>
</mgrwt>
</event>
<event>
 4    1  0.1116135E+000  0.4509498E+03  0.7546771E-02  0.1027439E+00
         21   -1    0    0  503  502  0.00000000000E+00  0.00000000000E+00  0.14596967600E+04  0.14596967600E+04  0.00000000000E+00 0. -1.
         21   -1    0    0  501  503 -0.00000000000E+00 -0.00000000000E+00 -0.24819755509E+03  0.24819755509E+03  0.00000000000E+00 0.  1.
          6    1    1    2  501    0  0.26376447065E+03 -0.32280026670E+03  0.40143536843E+02  0.45273304685E+03  0.17200000000E+03 0.  1.
         -6    1    1    2    0  502 -0.26376447065E+03  0.32280026670E+03  0.11713556681E+04  0.12551612682E+04  0.17200000000E+03 0. -1.
<mgrwt>
<rscale>  2 0.45094978E+03</rscale>
<asrwt>0</asrwt>
<pdfrwt beam="1">  1       21 0.36492417E+00 0.45094978E+03</pdfrwt>
<pdfrwt beam="2">  1       21 0.62049393E-01 0.45094978E+03</pdfrwt>
<totfact> 0.25358314E+01</totfact>
</mgrwt>
</event>
<event>
 4    1  0.1116135E+000  0.1855419E+03  0.7546771E-02  0.1162545E+00
         21   -1    0    0  501  502  0.00000000000E+00  0.00000000000E+00  0.15971932844E+03  0.15971932844E+03  0.00000000000E+00 0. -1.
         21   -1    0    0  502  503 -0.00000000000E+00 -0.00000000000E+00 -0.22237309247E+03  0.22237309247E+03  0.00000000000E+00 0. -1.
          6    1    1    2  501    0  0.69499405715E+02 -0.34119540248E+01  0.21638703839E+01  0.18555455036E+03  0.17200000000E+03 0. -1.
         -6    1    1    2    0  503 -0.69499405715E+02  0.34119540248E+01 -0.64817634415E+02  0.19653787054E+03  0.17200000000E+03 0. -1.
<mgrwt>
<rscale>  2 0.18554193E+03</rscale>
<asrwt>0</asrwt>
<pdfrwt beam="1">  1       21 0.39929832E-01 0.18554193E+03</pdfrwt>
<pdfrwt beam="2">  1       21 0.55593273E-01 0.18554193E+03</pdfrwt>
<totfact> 0.18510847E+04</totfact>
</mgrwt>
</event>
<event>
 4    1  0.1116135E+000  0.2174307E+03  0.7546771E-02  0.1135813E+00
         21   -1    0    0  501  502  0.00000000000E+00  0.00000000000E+00  0.20185702278E+03  0.20185702278E+03  0.00000000000E+00 0.  1.
         21   -1    0    0  502  503 -0.00000000000E+00 -0.00000000000E+00 -0.23800918327E+03  0.23800918327E+03  0.00000000000E+00 0. -1.
          6    1    1    2  501    0 -0.12336635817E+03  0.49727892125E+02  0.97254426653E+01  0.21764812386E+03  0.17200000000E+03 0.  1.
         -6    1    1    2    0  503  0.12336635817E+03 -0.49727892125E+02 -0.45877603161E+02  0.22221808220E+03  0.17200000000E+03 0. -1.
<mgrwt>
<rscale>  2 0.21743073E+03</rscale>
<asrwt>0</asrwt>
<pdfrwt beam="1">  1       21 0.50464256E-01 0.21743073E+03</pdfrwt>
<pdfrwt beam="2">  1       21 0.59502296E-01 0.21743073E+03</pdfrwt>
<totfact> 0.96964105E+03</totfact>
</mgrwt>
</event>
<event>
 4    1  0.1116135E+000  0.2116724E+03  0.7546771E-02  0.1140248E+00
         21   -1    0    0  503  502  0.00000000000E+00  0.00000000000E+00  0.52646156313E+03  0.52646156313E+03  0.00000000000E+00 0.  1.
         21   -1    0    0  501  503 -0.00000000000E+00 -0.00000000000E+00 -0.14012819097E+03  0.14012819097E+03  0.00000000000E+00 0.  1.
          6    1    1    2  501    0 -0.96801514984E+02  0.76489602518E+02 -0.15682919840E+02  0.21225255375E+03  0.17200000000E+03 0.  1.
         -6    1    1    2    0  502  0.96801514984E+02 -0.76489602518E+02  0.40201629200E+03  0.45433720036E+03  0.17200000000E+03 0.  1.
<mgrwt>
<rscale>  2 0.21167237E+03</rscale>
<asrwt>0</asrwt>
<pdfrwt beam="1">  1       21 0.13161539E+00 0.21167237E+03</pdfrwt>
<pdfrwt beam="2">  1       21 0.35032049E-01 0.21167237E+03</pdfrwt>
<totfact> 0.32379964E+03</totfact>
</mgrwt>
</event>
<event>
 4    1  0.1116135E+000  0.2337167E+03  0.7546771E-02  0.1124051E+00
         21   -1    0    0  501  502  0.00000000000E+00  0.00000000000E+00  0.15666097767E+03  0.15666097767E+03  0.00000000000E+00 0.  1.
         21   -1    0    0  502  503 -0.00000000000E+00 -0.00000000000E+00 -0.45451268066E+03  0.45451268066E+03  0.00000000000E+00 0. -1.
          6    1    1    2  501    0 -0.67382424786E+02 -0.14317515026E+03 -0.14621667345E+01  0.23372131429E+03  0.17200000000E+03 0.  1.
         -6    1    1    2    0  503  0.67382424786E+02  0.14317515026E+03 -0.29638953626E+03  0.37745234404E+03  0.17200000000E+03 0. -1.
<mgrwt>
<rscale>  2 0.23371674E+03</rscale>
<asrwt>0</asrwt>
<pdfrwt beam="1">  1       21 0.39165245E-01 0.23371674E+03</pdfrwt>
<pdfrwt beam="2">  1       21 0.11362817E+00 0.23371674E+03</pdfrwt>
<totfact> 0.36735267E+03</totfact>
</mgrwt>
</event>
<event>
 4    1  0.1116135E+000  0.1999904E+03  0.7546771E-02  0.1149747E+00
         21   -1    0    0  503  502  0.00000000000E+00  0.00000000000E+00  0.26153456923E+03  0.26153456923E+03  0.00000000000E+00 0. -1.
         21   -1    0    0  501  503 -0.00000000000E+00 -0.00000000000E+00 -0.22792850797E+03  0.22792850797E+03  0.00000000000E+00 0. -1.
          6    1    1    2  501    0  0.46960425858E+02  0.90591753165E+02 -0.12358194463E+03  0.23509284204E+03  0.17200000000E+03 0. -1.
         -6    1    1    2    0  502 -0.46960425858E+02 -0.90591753165E+02  0.15718800589E+03  0.25437023516E+03  0.17200000000E+03 0. -1.
<mgrwt>
<rscale>  2 0.19999037E+03</rscale>
<asrwt>0</asrwt>
<pdfrwt beam="1">  1       21 0.65383642E-01 0.19999037E+03</pdfrwt>
<pdfrwt beam="2">  1       21 0.56982127E-01 0.19999037E+03</pdfrwt>
<totfact> 0.61917476E+03</totfact>
</mgrwt>
</event>
<event>
 4    1  0.1116135E+000  0.1932820E+03  0.7546771E-02  0.1155534E+00
         21   -1    0    0  503  502  0.00000000000E+00  0.00000000000E+00  0.55144700215E+03  0.55144700215E+03  0.00000000000E+00 0.  1.
         21   -1    0    0  501  503 -0.00000000000E+00 -0.00000000000E+00 -0.12087742163E+03  0.12087742163E+03  0.00000000000E+00 0.  1.
          6    1    1    2  501    0  0.37159662193E+02 -0.79956776223E+02 -0.75869461601E+01  0.19343083599E+03  0.17200000000E+03 0.  1.
         -6    1    1    2    0  502 -0.37159662193E+02  0.79956776223E+02  0.43815652668E+03  0.47889358779E+03  0.17200000000E+03 0.  1.
<mgrwt>
<rscale>  2 0.19328199E+03</rscale>
<asrwt>0</asrwt>
<pdfrwt beam="1">  1       21 0.13786174E+00 0.19328199E+03</pdfrwt>
<pdfrwt beam="2">  1       21 0.30219357E-01 0.19328199E+03</pdfrwt>
<totfact> 0.39096644E+03</totfact>
</mgrwt>
</event>
<event>
 4    1  0.1116135E+000  0.1875646E+03  0.7546771E-02  0.1160676E+00
         21   -1    0    0  501  502  0.00000000000E+00  0.00000000000E+00  0.69763088089E+03  0.69763088089E+03  0.00000000000E+00 0. -1.
         21   -1    0    0  502  503 -0.00000000000E+00 -0.00000000000E+00 -0.90341666413E+02  0.90341666413E+02  0.00000000000E+00 0. -1.
          6    1    1    2  501    0 -0.27572784186E+02 -0.69543049909E+02  0.41769019741E+02  0.19215916639E+03  0.17200000000E+03 0. -1.
         -6    1    1    2    0  503  0.27572784186E+02  0.69543049909E+02  0.56552019473E+03  0.59581338091E+03  0.17200000000E+03 0. -1.
<mgrwt>
<rscale>  2 0.18756464E+03</rscale>
<asrwt>0</asrwt>
<pdfrwt beam="1">  1       21 0.17440770E+00 0.18756464E+03</pdfrwt>
<pdfrwt beam="2">  1       21 0.22585419E-01 0.18756464E+03</pdfrwt>
<totfact> 0.36690953E+03</totfact>
</mgrwt>
</event>
<event>
 4    1  0.1116135E+000  0.2208619E+03  0.7546771E-02  0.1133242E+00
         21   -1    0    0  501  502  0.00000000000E+00  0.00000000000E+00  0.49065297371E+02  0.49065297371E+02  0.00000000000E+00 0.  1.
         21   -1    0    0  502  503 -0.00000000000E+00 -0.00000000000E+00 -0.10645262269E+04  0.10645262269E+04  0.00000000000E+00 0.  1.
          6    1    1    2  501    0  0.13570594410E+03  0.27926243742E+02 -0.36460299980E+03  0.42628080630E+03  0.17200000000E+03 0.  1.
         -6    1    1    2    0  503 -0.13570594410E+03 -0.27926243742E+02 -0.65085792975E+03  0.68731071800E+03  0.17200000000E+03 0.  1.
<mgrwt>
<rscale>  2 0.22086190E+03</rscale>
<asrwt>0</asrwt>
<pdfrwt beam="1">  1       21 0.12266324E-01 0.22086190E+03</pdfrwt>
<pdfrwt beam="2">  1       21 0.26613157E+00 0.22086190E+03</pdfrwt>
<totfact> 0.29295432E+03</totfact>
</mgrwt>
</event>
<event>
 4    1  0.1116135E+000  0.1871058E+03  0.7546771E-02  0.1161098E+00
         21   -1    0    0  503  502  0.00000000000E+00  0.00000000000E+00  0.10327340936E+04  0.10327340936E+04  0.00000000000E+00 0.  1.
         21   -1    0    0  501  503 -0.00000000000E+00 -0.00000000000E+00 -0.39890899802E+02  0.39890899802E+02  0.00000000000E+00 0. -1.
          6    1    1    2  501    0  0.26202672846E+02  0.68833202273E+02  0.28856419685E+03  0.34391552089E+03  0.17200000000E+03 0. -1.
         -6    1    1    2    0  502 -0.26202672846E+02 -0.68833202273E+02  0.70427899690E+03  0.72870947247E+03  0.17200000000E+03 0.  1.
<mgrwt>
<rscale>  2 0.18710583E+03</rscale>
<asrwt>0</asrwt>
<pdfrwt beam="1">  1       21 0.25818344E+00 0.18710583E+03</pdfrwt>
<pdfrwt beam="2">  1       21 0.99727284E-02 0.18710583E+03</pdfrwt>
<totfact> 0.48840757E+03</totfact>
</mgrwt>
</event>
<event>
 4    1  0.1116135E+000  0.1799362E+03  0.7546771E-02  0.1167865E+00
         21   -1    0    0  501  502  0.00000000000E+00  0.00000000000E+00  0.21569977244E+03  0.21569977244E+03  0.00000000000E+00 0. -1.
         21   -1    0    0  502  503 -0.00000000000E+00 -0.00000000000E+00 -0.17486985780E+03  0.17486985780E+03  0.00000000000E+00 0.  1.
          6    1    1    2  501    0 -0.89919281996E+01  0.52078721994E+02  0.93908965684E+02  0.20296783463E+03  0.17200000000E+03 0. -1.
         -6    1    1    2    0  503  0.89919281996E+01 -0.52078721994E+02 -0.53079051047E+02  0.18760179561E+03  0.17200000000E+03 0. -1.
<mgrwt>
<rscale>  2 0.17993623E+03</rscale>
<asrwt>0</asrwt>
<pdfrwt beam="1">  1       21 0.53924943E-01 0.17993623E+03</pdfrwt>
<pdfrwt beam="2">  1       21 0.43717465E-01 0.17993623E+03</pdfrwt>
<totfact> 0.16481004E+04</totfact>
</mgrwt>
</event>
<event>
 4    1  0.1116135E+000  0.3218748E+03  0.7546771E-02  0.1074790E+00
         21   -1    0    0  503  502  0.00000000000E+00  0.00000000000E+00  0.61755699318E+03  0.61755699318E+03  0.00000000000E+00 0.  1.
         21   -1    0    0  501  503 -0.00000000000E+00 -0.00000000000E+00 -0.39467696878E+03  0.39467696878E+03  0.00000000000E+00 0. -1.
          6    1    1    2  501    0  0.40966529708E+01 -0.27203416854E+03 -0.27232059135E+03  0.42161816362E+03  0.17200000000E+03 0. -1.
         -6    1    1    2    0  502 -0.40966529708E+01  0.27203416854E+03  0.49520061575E+03  0.59061579835E+03  0.17200000000E+03 0.  1.
<mgrwt>
<rscale>  2 0.32187478E+03</rscale>
<asrwt>0</asrwt>
<pdfrwt beam="1">  1       21 0.15438925E+00 0.32187478E+03</pdfrwt>
<pdfrwt beam="2">  1       21 0.98669243E-01 0.32187478E+03</pdfrwt>
<totfact> 0.20702409E+02</totfact>
</mgrwt>
</event>
<event>
 4    1  0.1116135E+000  0.1854315E+03  0.7546771E-02  0.1162648E+00
         21   -1    0    0  501  502  0.00000000000E+00  0.00000000000E+00  0.14665917119E+03  0.14665917119E+03  0.00000000000E+00 0. -1.
         21   -1    0    0  502  503 -0.00000000000E+00 -0.00000000000E+00 -0.29980649032E+03  0.29980649032E+03  0.00000000000E+00 0. -1.
          6    1    1    2  501    0  0.56406218938E+02  0.40239219799E+02  0.27650405924E+02  0.18748173589E+03  0.17200000000E+03 0. -1.
         -6    1    1    2    0  503 -0.56406218938E+02 -0.40239219799E+02 -0.18079772506E+03  0.25898392562E+03  0.17200000000E+03 0. -1.
<mgrwt>
<rscale>  2 0.18543154E+03</rscale>
<asrwt>0</asrwt>
<pdfrwt beam="1">  1       21 0.36664793E-01 0.18543154E+03</pdfrwt>
<pdfrwt beam="2">  1       21 0.74951622E-01 0.18543154E+03</pdfrwt>
<totfact> 0.11478349E+04</totfact>
</mgrwt>
</event>
<event>
 4    1  0.1116135E+000  0.1742788E+03  0.7546771E-02  0.1173458E+00
         21   -1    0    0  501  502  0.00000000000E+00  0.00000000000E+00  0.66299896846E+03  0.66299896846E+03  0.00000000000E+00 0. -1.
         21   -1    0    0  502  503 -0.00000000000E+00 -0.00000000000E+00 -0.52583097295E+02  0.52583097295E+02  0.00000000000E+00 0. -1.
          6    1    1    2  501    0  0.16169240616E+02 -0.22970587130E+02  0.17681345032E+03  0.24826616449E+03  0.17200000000E+03 0. -1.
         -6    1    1    2    0  503 -0.16169240616E+02  0.22970587130E+02  0.43360242084E+03  0.46731590127E+03  0.17200000000E+03 0. -1.
<mgrwt>
<rscale>  2 0.17427878E+03</rscale>
<asrwt>0</asrwt>
<pdfrwt beam="1">  1       21 0.16574972E+00 0.17427878E+03</pdfrwt>
<pdfrwt beam="2">  1       21 0.13145776E-01 0.17427878E+03</pdfrwt>
<totfact> 0.11559736E+04</totfact>
</mgrwt>
</event>
<event>
 4    1  0.1116135E+000  0.1846198E+03  0.7546771E-02  0.1163405E+00
         21   -1    0    0  501  502  0.00000000000E+00  0.00000000000E+00  0.24621112383E+03  0.24621112383E+03  0.00000000000E+00 0. -1.
         21   -1    0    0  502  503 -0.00000000000E+00 -0.00000000000E+00 -0.17713290618E+03  0.17713290618E+03  0.00000000000E+00 0. -1.
          6    1    1    2  501    0  0.39266631147E+02  0.54393051708E+02  0.13347461662E+03  0.22781559577E+03  0.17200000000E+03 0. -1.
         -6    1    1    2    0  503 -0.39266631147E+02 -0.54393051708E+02 -0.64396398970E+02  0.19552843424E+03  0.17200000000E+03 0. -1.
<mgrwt>
<rscale>  2 0.18461980E+03</rscale>
<asrwt>0</asrwt>
<pdfrwt beam="1">  1       21 0.61552781E-01 0.18461980E+03</pdfrwt>
<pdfrwt beam="2">  1       21 0.44283227E-01 0.18461980E+03</pdfrwt>
<totfact> 0.12075178E+04</totfact>
</mgrwt>
</event>
<event>
 4    1  0.1116135E+000  0.1748032E+03  0.7546771E-02  0.1172929E+00
         21   -1    0    0  501  502  0.00000000000E+00  0.00000000000E+00  0.63890080470E+03  0.63890080470E+03  0.00000000000E+00 0.  1.
         21   -1    0    0  502  503 -0.00000000000E+00 -0.00000000000E+00 -0.76630127531E+02  0.76630127531E+02  0.00000000000E+00 0.  1.
          6    1    1    2  501    0 -0.15039641343E+02  0.27312097729E+02  0.50047903637E+03  0.53012772738E+03  0.17200000000E+03 0.  1.
         -6    1    1    2    0  503  0.15039641343E+02 -0.27312097729E+02  0.61791640795E+02  0.18540320484E+03  0.17200000000E+03 0.  1.
<mgrwt>
<rscale>  2 0.17480315E+03</rscale>
<asrwt>0</asrwt>
<pdfrwt beam="1">  1       21 0.15972519E+00 0.17480315E+03</pdfrwt>
<pdfrwt beam="2">  1       21 0.19157534E-01 0.17480315E+03</pdfrwt>
<totfact> 0.64213468E+03</totfact>
</mgrwt>
</event>
<event>
 4    1  0.1116135E+000  0.1928785E+03  0.7546771E-02  0.1155890E+00
         21   -1    0    0  503  502  0.00000000000E+00  0.00000000000E+00  0.11663338085E+03  0.11663338085E+03  0.00000000000E+00 0. -1.
         21   -1    0    0  501  503 -0.00000000000E+00 -0.00000000000E+00 -0.34853596190E+03  0.34853596190E+03  0.00000000000E+00 0. -1.
          6    1    1    2  501    0  0.61344338162E+02  0.62088605564E+02 -0.48205835017E+02  0.19881128060E+03  0.17200000000E+03 0. -1.
         -6    1    1    2    0  502 -0.61344338162E+02 -0.62088605564E+02 -0.18369674603E+03  0.26635806214E+03  0.17200000000E+03 0. -1.
<mgrwt>
<rscale>  2 0.19287852E+03</rscale>
<asrwt>0</asrwt>
<pdfrwt beam="1">  1       21 0.29158345E-01 0.19287852E+03</pdfrwt>
<pdfrwt beam="2">  1       21 0.87133990E-01 0.19287852E+03</pdfrwt>
<totfact> 0.12748707E+04</totfact>
</mgrwt>
</event>
<event>
 4    1  0.1116135E+000  0.1833668E+03  0.7546771E-02  0.1164584E+00
         21   -1    0    0  503  502  0.00000000000E+00  0.00000000000E+00  0.22461075193E+03  0.22461075193E+03  0.00000000000E+00 0. -1.
         21   -1    0    0  501  503 -0.00000000000E+00 -0.00000000000E+00 -0.16180946765E+03  0.16180946765E+03  0.00000000000E+00 0. -1.
          6    1    1    2  501    0 -0.40894703069E+02  0.48651865681E+02  0.84264415811E+02  0.20180156725E+03  0.17200000000E+03 0. -1.
         -6    1    1    2    0  502  0.40894703069E+02 -0.48651865681E+02 -0.21463131537E+02  0.18461865233E+03  0.17200000000E+03 0. -1.
<mgrwt>
<rscale>  2 0.18336679E+03</rscale>
<asrwt>0</asrwt>
<pdfrwt beam="1">  1       21 0.56152688E-01 0.18336679E+03</pdfrwt>
<pdfrwt beam="2">  1       21 0.40452367E-01 0.18336679E+03</pdfrwt>
<totfact> 0.17676144E+04</totfact>
</mgrwt>
</event>
<event>
 4    1  0.1116135E+000  0.2133605E+03  0.7546771E-02  0.1138932E+00
         21   -1    0    0  503  502  0.00000000000E+00  0.00000000000E+00  0.64979547899E+02  0.64979547899E+02  0.00000000000E+00 0. -1.
         21   -1    0    0  501  503 -0.00000000000E+00 -0.00000000000E+00 -0.80686590550E+03  0.80686590550E+03  0.00000000000E+00 0.  1.
          6    1    1    2  501    0  0.92210345304E+02 -0.86231983281E+02 -0.52916548091E+03  0.57056008353E+03  0.17200000000E+03 0.  1.
         -6    1    1    2    0  502 -0.92210345304E+02  0.86231983281E+02 -0.21272087669E+03  0.30128536987E+03  0.17200000000E+03 0. -1.
<mgrwt>
<rscale>  2 0.21336050E+03</rscale>
<asrwt>0</asrwt>
<pdfrwt beam="1">  1       21 0.16244887E-01 0.21336050E+03</pdfrwt>
<pdfrwt beam="2">  1       21 0.20171648E+00 0.21336050E+03</pdfrwt>
<totfact> 0.43558372E+03</totfact>
</mgrwt>
</event>
<event>
 4    1  0.1116135E+000  0.1910175E+03  0.7546771E-02  0.1157547E+00
         21   -1    0    0  503  502  0.00000000000E+00  0.00000000000E+00  0.11662650401E+03  0.11662650401E+03  0.00000000000E+00 0.  1.
         21   -1    0    0  501  503 -0.00000000000E+00 -0.00000000000E+00 -0.73302992032E+03  0.73302992032E+03  0.00000000000E+00 0.  1.
          6    1    1    2  501    0  0.69881372233E+02 -0.44947492347E+02 -0.62983822764E+03  0.65816705801E+03  0.17200000000E+03 0.  1.
         -6    1    1    2    0  502 -0.69881372233E+02  0.44947492347E+02  0.13434811335E+02  0.19148936631E+03  0.17200000000E+03 0.  1.
<mgrwt>
<rscale>  2 0.19101749E+03</rscale>
<asrwt>0</asrwt>
<pdfrwt beam="1">  1       21 0.29156627E-01 0.19101749E+03</pdfrwt>
<pdfrwt beam="2">  1       21 0.18325748E+00 0.19101749E+03</pdfrwt>
<totfact> 0.19514877E+03</totfact>
</mgrwt>
</event>
<event>
 4    1  0.1116135E+000  0.1831706E+03  0.7546771E-02  0.1164769E+00
         21   -1    0    0  501  502  0.00000000000E+00  0.00000000000E+00  0.68561758632E+03  0.68561758632E+03  0.00000000000E+00 0. -1.
         21   -1    0    0  502  503 -0.00000000000E+00 -0.00000000000E+00 -0.64185980321E+02  0.64185980321E+02  0.00000000000E+00 0. -1.
          6    1    1    2  501    0 -0.61470332851E+02  0.13742284776E+02  0.49345453397E+03  0.52635428117E+03  0.17200000000E+03 0. -1.
         -6    1    1    2    0  503  0.61470332851E+02 -0.13742284776E+02  0.12797707203E+03  0.22344928547E+03  0.17200000000E+03 0. -1.
<mgrwt>
<rscale>  2 0.18317055E+03</rscale>
<asrwt>0</asrwt>
<pdfrwt beam="1">  1       21 0.17140437E+00 0.18317055E+03</pdfrwt>
<pdfrwt beam="2">  1       21 0.16046497E-01 0.18317055E+03</pdfrwt>
<totfact> 0.72926881E+03</totfact>
</mgrwt>
</event>
<event>
 4    1  0.1116135E+000  0.2345726E+03  0.7546771E-02  0.1123462E+00
         21   -1    0    0  501  502  0.00000000000E+00  0.00000000000E+00  0.29871534958E+03  0.29871534958E+03  0.00000000000E+00 0.  1.
         21   -1    0    0  502  503 -0.00000000000E+00 -0.00000000000E+00 -0.37722012375E+03  0.37722012375E+03  0.00000000000E+00 0. -1.
          6    1    1    2  501    0 -0.11227493573E+03  0.11329013153E+03  0.20250265600E+03  0.30988972358E+03  0.17200000000E+03 0.  1.
         -6    1    1    2    0  503  0.11227493573E+03 -0.11329013153E+03 -0.28100743017E+03  0.36604574975E+03  0.17200000000E+03 0. -1.
<mgrwt>
<rscale>  2 0.23457262E+03</rscale>
<asrwt>0</asrwt>
<pdfrwt beam="1">  1       21 0.74678838E-01 0.23457262E+03</pdfrwt>
<pdfrwt beam="2">  1       21 0.94305030E-01 0.23457262E+03</pdfrwt>
<totfact> 0.14577061E+03</totfact>
</mgrwt>
</event>
<event>
 4    1  0.1116135E+000  0.3095874E+03  0.7546771E-02  0.1080544E+00
         21   -1    0    0  501  502  0.00000000000E+00  0.00000000000E+00  0.36340930345E+03  0.36340930345E+03  0.00000000000E+00 0. -1.
         21   -1    0    0  502  503 -0.00000000000E+00 -0.00000000000E+00 -0.82704428622E+03  0.82704428622E+03  0.00000000000E+00 0.  1.
          6    1    1    2  501    0  0.23757550107E+03  0.99087141583E+02  0.25941929317E+03  0.40390933389E+03  0.17200000000E+03 0. -1.
         -6    1    1    2    0  503 -0.23757550107E+03 -0.99087141583E+02 -0.72305427594E+03  0.78654425577E+03  0.17200000000E+03 0.  1.
<mgrwt>
<rscale>  2 0.30958744E+03</rscale>
<asrwt>0</asrwt>
<pdfrwt beam="1">  1       21 0.90852327E-01 0.30958744E+03</pdfrwt>
<pdfrwt beam="2">  1       21 0.20676107E+00 0.30958744E+03</pdfrwt>
<totfact> 0.10970509E+02</totfact>
</mgrwt>
</event>
<event>
 4    1  0.1116135E+000  0.1758618E+03  0.7546771E-02  0.1171869E+00
         21   -1    0    0  501  502  0.00000000000E+00  0.00000000000E+00  0.50915561592E+03  0.50915561592E+03  0.00000000000E+00 0.  1.
         21   -1    0    0  502  503 -0.00000000000E+00 -0.00000000000E+00 -0.13723641182E+03  0.13723641182E+03  0.00000000000E+00 0.  1.
          6    1    1    2  501    0  0.21225951123E+02 -0.29880524307E+02  0.42725261386E+03  0.46203049985E+03  0.17200000000E+03 0.  1.
         -6    1    1    2    0  503 -0.21225951123E+02  0.29880524307E+02 -0.55333409759E+02  0.18436152790E+03  0.17200000000E+03 0.  1.
<mgrwt>
<rscale>  2 0.17586184E+03</rscale>
<asrwt>0</asrwt>
<pdfrwt beam="1">  1       21 0.12728890E+00 0.17586184E+03</pdfrwt>
<pdfrwt beam="2">  1       21 0.34309104E-01 0.17586184E+03</pdfrwt>
<totfact> 0.37868744E+03</totfact>
</mgrwt>
</event>
<event>
 4    1  0.1116135E+000  0.2612633E+03  0.7546771E-02  0.1106387E+00
         21   -1    0    0  501  502  0.00000000000E+00  0.00000000000E+00  0.18675348680E+03  0.18675348680E+03  0.00000000000E+00 0.  1.
         21   -1    0    0  502  503 -0.00000000000E+00 -0.00000000000E+00 -0.44990451707E+03  0.44990451707E+03  0.00000000000E+00 0. -1.
          6    1    1    2  501    0 -0.19649796269E+03 -0.79411432977E+01  0.63032347446E+01  0.26133932323E+03  0.17200000000E+03 0.  1.
         -6    1    1    2    0  503  0.19649796269E+03  0.79411432977E+01 -0.26945426502E+03  0.37531868064E+03  0.17200000000E+03 0. -1.
<mgrwt>
<rscale>  2 0.26126330E+03</rscale>
<asrwt>0</asrwt>
<pdfrwt beam="1">  1       21 0.46688372E-01 0.26126330E+03</pdfrwt>
<pdfrwt beam="2">  1       21 0.11247613E+00 0.26126330E+03</pdfrwt>
<totfact> 0.25773219E+03</totfact>
</mgrwt>
</event>
<event>
 4    1  0.1116135E+000  0.1955683E+03  0.7546771E-02  0.1153533E+00
         21   -1    0    0  501  502  0.00000000000E+00  0.00000000000E+00  0.16850252138E+03  0.16850252138E+03  0.00000000000E+00 0.  1.
         21   -1    0    0  502  503 -0.00000000000E+00 -0.00000000000E+00 -0.10092396615E+04  0.10092396615E+04  0.00000000000E+00 0. -1.
          6    1    1    2  501    0 -0.45375730436E+02 -0.81265053849E+02  0.98070966444E+02  0.21878043868E+03  0.17200000000E+03 0.  1.
         -6    1    1    2    0  503  0.45375730436E+02  0.81265053849E+02 -0.93880810655E+03  0.95896174419E+03  0.17200000000E+03 0. -1.
<mgrwt>
<rscale>  2 0.19556832E+03</rscale>
<asrwt>0</asrwt>
<pdfrwt beam="1">  1       21 0.42125631E-01 0.19556832E+03</pdfrwt>
<pdfrwt beam="2">  1       21 0.25230991E+00 0.19556832E+03</pdfrwt>
<totfact> 0.34812173E+02</totfact>
</mgrwt>
</event>
<event>
 4    1  0.1116135E+000  0.2284158E+03  0.7546771E-02  0.1127760E+00
         21   -1    0    0  503  502  0.00000000000E+00  0.00000000000E+00  0.14108419873E+03  0.14108419873E+03  0.00000000000E+00 0.  1.
         21   -1    0    0  501  503 -0.00000000000E+00 -0.00000000000E+00 -0.37008795966E+03  0.37008795966E+03  0.00000000000E+00 0.  1.
          6    1    1    2  501    0  0.14185308251E+03 -0.49673841244E+02 -0.12155619151E+03  0.25874639170E+03  0.17200000000E+03 0. -1.
         -6    1    1    2    0  502 -0.14185308251E+03  0.49673841244E+02 -0.10744756941E+03  0.25242576670E+03  0.17200000000E+03 0. -1.
<mgrwt>
<rscale>  2 0.22841582E+03</rscale>
<asrwt>0</asrwt>
<pdfrwt beam="1">  1       21 0.35271050E-01 0.22841582E+03</pdfrwt>
<pdfrwt beam="2">  1       21 0.92521989E-01 0.22841582E+03</pdfrwt>
<totfact> 0.74471043E+03</totfact>
</mgrwt>
</event>
<event>
 4    1  0.1116135E+000  0.2034688E+03  0.7546771E-02  0.1146845E+00
         21   -1    0    0  501  502  0.00000000000E+00  0.00000000000E+00  0.27504865927E+03  0.27504865927E+03  0.00000000000E+00 0. -1.
         21   -1    0    0  502  503 -0.00000000000E+00 -0.00000000000E+00 -0.19582870647E+03  0.19582870647E+03  0.00000000000E+00 0. -1.
          6    1    1    2  501    0 -0.81157212328E+02 -0.72312285451E+02  0.15286143225E+03  0.25449199832E+03  0.17200000000E+03 0. -1.
         -6    1    1    2    0  503  0.81157212328E+02  0.72312285451E+02 -0.73641479452E+02  0.21638536743E+03  0.17200000000E+03 0. -1.
<mgrwt>
<rscale>  2 0.20346882E+03</rscale>
<asrwt>0</asrwt>
<pdfrwt beam="1">  1       21 0.68762165E-01 0.20346882E+03</pdfrwt>
<pdfrwt beam="2">  1       21 0.48957177E-01 0.20346882E+03</pdfrwt>
<totfact> 0.76127445E+03</totfact>
</mgrwt>
</event>
<event>
 4    1  0.1116135E+000  0.2128750E+03  0.7546771E-02  0.1139309E+00
         21   -1    0    0  501  502  0.00000000000E+00  0.00000000000E+00  0.27318539616E+03  0.27318539616E+03  0.00000000000E+00 0. -1.
         21   -1    0    0  502  503 -0.00000000000E+00 -0.00000000000E+00 -0.30633805452E+03  0.30633805452E+03  0.00000000000E+00 0. -1.
          6    1    1    2  501    0  0.48979126662E+02 -0.11546778731E+03  0.17963097145E+03  0.27853734159E+03  0.17200000000E+03 0. -1.
         -6    1    1    2    0  503 -0.48979126662E+02  0.11546778731E+03 -0.21278362980E+03  0.30098610909E+03  0.17200000000E+03 0. -1.
<mgrwt>
<rscale>  2 0.21287500E+03</rscale>
<asrwt>0</asrwt>
<pdfrwt beam="1">  1       21 0.68296349E-01 0.21287500E+03</pdfrwt>
<pdfrwt beam="2">  1       21 0.76584513E-01 0.21287500E+03</pdfrwt>
<totfact> 0.29184128E+03</totfact>
</mgrwt>
</event>
<event>
 4    1  0.1116135E+000  0.1819705E+03  0.7546771E-02  0.1165910E+00
         21   -1    0    0  501  502  0.00000000000E+00  0.00000000000E+00  0.46191055555E+03  0.46191055555E+03  0.00000000000E+00 0.  1.
         21   -1    0    0  502  503 -0.00000000000E+00 -0.00000000000E+00 -0.10430621527E+04  0.10430621527E+04  0.00000000000E+00 0.  1.
          6    1    1    2  501    0 -0.53446436550E+02 -0.25936921648E+02  0.43559185966E+03  0.47207363164E+03  0.17200000000E+03 0.  1.
         -6    1    1    2    0  503  0.53446436550E+02  0.25936921648E+02 -0.10167434568E+04  0.10328990766E+04  0.17200000000E+03 0.  1.
<mgrwt>
<rscale>  2 0.18197045E+03</rscale>
<asrwt>0</asrwt>
<pdfrwt beam="1">  1       21 0.11547764E+00 0.18197045E+03</pdfrwt>
<pdfrwt beam="2">  1       21 0.26076554E+00 0.18197045E+03</pdfrwt>
<totfact> 0.34025114E+01</totfact>
</mgrwt>
</event>
<event>
 4    1  0.1116135E+000  0.1766001E+03  0.7546771E-02  0.1171135E+00
         21   -1    0    0  503  502  0.00000000000E+00  0.00000000000E+00  0.92068954757E+03  0.92068954757E+03  0.00000000000E+00 0. -1.
         21   -1    0    0  501  503 -0.00000000000E+00 -0.00000000000E+00 -0.64497488803E+02  0.64497488803E+02  0.00000000000E+00 0.  1.
          6    1    1    2  501    0  0.25085120024E+02 -0.31214343902E+02  0.88671374621E+02  0.19761126281E+03  0.17200000000E+03 0.  1.
         -6    1    1    2    0  502 -0.25085120024E+02  0.31214343902E+02  0.76752068414E+03  0.78757577356E+03  0.17200000000E+03 0. -1.
<mgrwt>
<rscale>  2 0.17660011E+03</rscale>
<asrwt>0</asrwt>
<pdfrwt beam="1">  1       21 0.23017235E+00 0.17660011E+03</pdfrwt>
<pdfrwt beam="2">  1       21 0.16124375E-01 0.17660011E+03</pdfrwt>
<totfact> 0.30522568E+03</totfact>
</mgrwt>
</event>
<event>
 4    1  0.1116135E+000  0.2271180E+03  0.7546771E-02  0.1128685E+00
         21   -1    0    0  503  502  0.00000000000E+00  0.00000000000E+00  0.11905313195E+03  0.11905313195E+03  0.00000000000E+00 0.  1.
         21   -1    0    0  501  503 -0.00000000000E+00 -0.00000000000E+00 -0.47638175269E+03  0.47638175269E+03  0.00000000000E+00 0.  1.
          6    1    1    2  501    0 -0.44649110824E+02  0.14143921426E+03 -0.89106023650E+02  0.24397228916E+03  0.17200000000E+03 0.  1.
         -6    1    1    2    0  502  0.44649110824E+02 -0.14143921426E+03 -0.26822259709E+03  0.35146259547E+03  0.17200000000E+03 0.  1.
<mgrwt>
<rscale>  2 0.22711802E+03</rscale>
<asrwt>0</asrwt>
<pdfrwt beam="1">  1       21 0.29763283E-01 0.22711802E+03</pdfrwt>
<pdfrwt beam="2">  1       21 0.11909544E+00 0.22711802E+03</pdfrwt>
<totfact> 0.56743291E+03</totfact>
</mgrwt>
</event>
<event>
 4    1  0.1116135E+000  0.1820607E+03  0.7546771E-02  0.1165824E+00
         21   -1    0    0  501  502  0.00000000000E+00  0.00000000000E+00  0.12201211908E+03  0.12201211908E+03  0.00000000000E+00 0. -1.
         21   -1    0    0  502  503 -0.00000000000E+00 -0.00000000000E+00 -0.39798165801E+03  0.39798165801E+03  0.00000000000E+00 0. -1.
          6    1    1    2  501    0 -0.58621269815E+02 -0.11208493593E+02  0.84929966383E+01  0.18225864752E+03  0.17200000000E+03 0. -1.
         -6    1    1    2    0  503  0.58621269815E+02  0.11208493593E+02 -0.28446253556E+03  0.33773512957E+03  0.17200000000E+03 0. -1.
<mgrwt>
<rscale>  2 0.18206066E+03</rscale>
<asrwt>0</asrwt>
<pdfrwt beam="1">  1       21 0.30503030E-01 0.18206066E+03</pdfrwt>
<pdfrwt beam="2">  1       21 0.99495413E-01 0.18206066E+03</pdfrwt>
<totfact> 0.86375686E+03</totfact>
</mgrwt>
</event>
<event>
 4    1  0.1116135E+000  0.1863856E+03  0.7546771E-02  0.1161762E+00
         21   -1    0    0  503  502  0.00000000000E+00  0.00000000000E+00  0.21164557327E+03  0.21164557327E+03  0.00000000000E+00 0. -1.
         21   -1    0    0  501  503 -0.00000000000E+00 -0.00000000000E+00 -0.81479027355E+03  0.81479027355E+03  0.00000000000E+00 0.  1.
          6    1    1    2  501    0 -0.32604094160E+02 -0.63973189286E+02 -0.76019189726E+03  0.78270768271E+03  0.17200000000E+03 0.  1.
         -6    1    1    2    0  502  0.32604094160E+02  0.63973189286E+02  0.15704719699E+03  0.24372816412E+03  0.17200000000E+03 0. -1.
<mgrwt>
<rscale>  2 0.18638561E+03</rscale>
<asrwt>0</asrwt>
<pdfrwt beam="1">  1       21 0.52911394E-01 0.18638561E+03</pdfrwt>
<pdfrwt beam="2">  1       21 0.20369757E+00 0.18638561E+03</pdfrwt>
<totfact> 0.43383205E+02</totfact>
</mgrwt>
</event>
<event>
 4    1  0.1116135E+000  0.1872456E+03  0.7546771E-02  0.1160969E+00
         21   -1    0    0  503  502  0.00000000000E+00  0.00000000000E+00  0.44797108047E+03  0.44797108047E+03  0.00000000000E+00 0. -1.
         21   -1    0    0  501  503 -0.00000000000E+00 -0.00000000000E+00 -0.12931094877E+03  0.12931094877E+03  0.00000000000E+00 0. -1.
          6    1    1    2  501    0  0.69070616107E+02 -0.26573471626E+02 -0.22019628818E+02  0.18853584131E+03  0.17200000000E+03 0. -1.
         -6    1    1    2    0  502 -0.69070616107E+02  0.26573471626E+02  0.34067976052E+03  0.38874618793E+03  0.17200000000E+03 0. -1.
<mgrwt>
<rscale>  2 0.18724556E+03</rscale>
<asrwt>0</asrwt>
<pdfrwt beam="1">  1       21 0.11199277E+00 0.18724556E+03</pdfrwt>
<pdfrwt beam="2">  1       21 0.32327738E-01 0.18724556E+03</pdfrwt>
<totfact> 0.57810981E+03</totfact>
</mgrwt>
</event>
<event>
 4    1  0.1116135E+000  0.3472425E+03  0.7546771E-02  0.1063753E+00
         21   -1    0    0  503  502  0.00000000000E+00  0.00000000000E+00  0.97270371041E+03  0.97270371041E+03  0.00000000000E+00 0.  1.
         21   -1    0    0  501  503 -0.00000000000E+00 -0.00000000000E+00 -0.23952393830E+03  0.23952393830E+03  0.00000000000E+00 0.  1.
          6    1    1    2  501    0  0.21039981142E+03 -0.21616022209E+03 -0.54416826322E+02  0.35148045927E+03  0.17200000000E+03 0.  1.
         -6    1    1    2    0  502 -0.21039981142E+03  0.21616022209E+03  0.78759659843E+03  0.86074718944E+03  0.17200000000E+03 0.  1.
<mgrwt>
<rscale>  2 0.34724245E+03</rscale>
<asrwt>0</asrwt>
<pdfrwt beam="1">  1       21 0.24317592E+00 0.34724245E+03</pdfrwt>
<pdfrwt beam="2">  1       21 0.59880987E-01 0.34724245E+03</pdfrwt>
<totfact> 0.16135633E+02</totfact>
</mgrwt>
</event>
<event>
 4    1  0.1116135E+000  0.1800927E+03  0.7546771E-02  0.1167713E+00
         21   -1    0    0  503  502  0.00000000000E+00  0.00000000000E+00  0.24616610608E+03  0.24616610608E+03  0.00000000000E+00 0.  1.
         21   -1    0    0  501  503 -0.00000000000E+00 -0.00000000000E+00 -0.30549731174E+03  0.30549731174E+03  0.00000000000E+00 0. -1.
          6    1    1    2  501    0 -0.39902651113E+02  0.35456589805E+02 -0.23768049531E+03  0.29820363709E+03  0.17200000000E+03 0. -1.
         -6    1    1    2    0  502  0.39902651113E+02 -0.35456589805E+02  0.17834928965E+03  0.25345978072E+03  0.17200000000E+03 0.  1.
<mgrwt>
<rscale>  2 0.18009273E+03</rscale>
<asrwt>0</asrwt>
<pdfrwt beam="1">  1       21 0.61541527E-01 0.18009273E+03</pdfrwt>
<pdfrwt beam="2">  1       21 0.76374327E-01 0.18009273E+03</pdfrwt>
<totfact> 0.37851419E+03</totfact>
</mgrwt>
</event>
<event>
 4    1  0.1116135E+000  0.1807405E+03  0.7546771E-02  0.1167088E+00
         21   -1    0    0  503  502  0.00000000000E+00  0.00000000000E+00  0.25313296601E+03  0.25313296601E+03  0.00000000000E+00 0.  1.
         21   -1    0    0  501  503 -0.00000000000E+00 -0.00000000000E+00 -0.13538258380E+03  0.13538258380E+03  0.00000000000E+00 0.  1.
          6    1    1    2  501    0  0.49908236446E+02  0.24336999911E+02  0.10088446400E+03  0.20698984687E+03  0.17200000000E+03 0.  1.
         -6    1    1    2    0  502 -0.49908236446E+02 -0.24336999911E+02  0.16865918211E+02  0.18152570294E+03  0.17200000000E+03 0.  1.
<mgrwt>
<rscale>  2 0.18074048E+03</rscale>
<asrwt>0</asrwt>
<pdfrwt beam="1">  1       21 0.63283241E-01 0.18074048E+03</pdfrwt>
<pdfrwt beam="2">  1       21 0.33845646E-01 0.18074048E+03</pdfrwt>
<totfact> 0.19565832E+04</totfact>
</mgrwt>
</event>
<event>
 4    1  0.1116135E+000  0.2456480E+03  0.7546771E-02  0.1116086E+00
         21   -1    0    0  503  502  0.00000000000E+00  0.00000000000E+00  0.22763281671E+03  0.22763281671E+03  0.00000000000E+00 0. -1.
         21   -1    0    0  501  503 -0.00000000000E+00 -0.00000000000E+00 -0.35423733242E+03  0.35423733242E+03  0.00000000000E+00 0.  1.
          6    1    1    2  501    0 -0.17537254526E+03 -0.18444441305E+01 -0.20925282535E+03  0.32269130221E+03  0.17200000000E+03 0.  1.
         -6    1    1    2    0  502  0.17537254526E+03  0.18444441305E+01  0.82648309637E+02  0.25917884692E+03  0.17200000000E+03 0. -1.
<mgrwt>
<rscale>  2 0.24564798E+03</rscale>
<asrwt>0</asrwt>
<pdfrwt beam="1">  1       21 0.56908204E-01 0.24564798E+03</pdfrwt>
<pdfrwt beam="2">  1       21 0.88559333E-01 0.24564798E+03</pdfrwt>
<totfact> 0.30373313E+03</totfact>
</mgrwt>
</event>
<event>
 4    1  0.1116135E+000  0.2950145E+03  0.7546771E-02  0.1087760E+00
         21   -1    0    0  501  502  0.00000000000E+00  0.00000000000E+00  0.26368279969E+03  0.26368279969E+03  0.00000000000E+00 0.  1.
         21   -1    0    0  502  503 -0.00000000000E+00 -0.00000000000E+00 -0.33801883301E+03  0.33801883301E+03  0.00000000000E+00 0. -1.
          6    1    1    2  501    0  0.24763393488E+02  0.23840369103E+03  0.89697847473E+01  0.29515081330E+03  0.17200000000E+03 0. -1.
         -6    1    1    2    0  503 -0.24763393488E+02 -0.23840369103E+03 -0.83305818068E+02  0.30655081941E+03  0.17200000000E+03 0.  1.
<mgrwt>
<rscale>  2 0.29501448E+03</rscale>
<asrwt>0</asrwt>
<pdfrwt beam="1">  1       21 0.65920700E-01 0.29501448E+03</pdfrwt>
<pdfrwt beam="2">  1       21 0.84504708E-01 0.29501448E+03</pdfrwt>
<totfact> 0.23847478E+03</totfact>
</mgrwt>
</event>
<event>
 4    1  0.1116135E+000  0.2433237E+03  0.7546771E-02  0.1117598E+00
         21   -1    0    0  501  502  0.00000000000E+00  0.00000000000E+00  0.33596426561E+03  0.33596426561E+03  0.00000000000E+00 0.  1.
         21   -1    0    0  502  503 -0.00000000000E+00 -0.00000000000E+00 -0.34057980104E+03  0.34057980104E+03  0.00000000000E+00 0. -1.
          6    1    1    2  501    0  0.16414424580E+03 -0.51760107486E+02  0.23267897790E+03  0.33666890102E+03  0.17200000000E+03 0.  1.
         -6    1    1    2    0  503 -0.16414424580E+03  0.51760107486E+02 -0.23729451333E+03  0.33987516563E+03  0.17200000000E+03 0. -1.
<mgrwt>
<rscale>  2 0.24332374E+03</rscale>
<asrwt>0</asrwt>
<pdfrwt beam="1">  1       21 0.83991066E-01 0.24332374E+03</pdfrwt>
<pdfrwt beam="2">  1       21 0.85144950E-01 0.24332374E+03</pdfrwt>
<totfact> 0.14065751E+03</totfact>
</mgrwt>
</event>
<event>
 4    1  0.1116135E+000  0.2308254E+03  0.7546771E-02  0.1126060E+00
         21   -1    0    0  501  502  0.00000000000E+00  0.00000000000E+00  0.23612617757E+03  0.23612617757E+03  0.00000000000E+00 0. -1.
         21   -1    0    0  502  503 -0.00000000000E+00 -0.00000000000E+00 -0.34842575044E+03  0.34842575044E+03  0.00000000000E+00 0.  1.
          6    1    1    2  501    0 -0.48319331800E+00 -0.15393547450E+03  0.11735264873E+03  0.25894402474E+03  0.17200000000E+03 0. -1.
         -6    1    1    2    0  503  0.48319331800E+00  0.15393547450E+03 -0.22965222160E+03  0.32560790327E+03  0.17200000000E+03 0.  1.
<mgrwt>
<rscale>  2 0.23082540E+03</rscale>
<asrwt>0</asrwt>
<pdfrwt beam="1">  1       21 0.59031545E-01 0.23082540E+03</pdfrwt>
<pdfrwt beam="2">  1       21 0.87106437E-01 0.23082540E+03</pdfrwt>
<totfact> 0.29479121E+03</totfact>
</mgrwt>
</event>
<event>
 4    1  0.1116135E+000  0.1806653E+03  0.7546771E-02  0.1167161E+00
         21   -1    0    0  503  502  0.00000000000E+00  0.00000000000E+00  0.51127303988E+02  0.51127303988E+02  0.00000000000E+00 0.  1.
         21   -1    0    0  501  503 -0.00000000000E+00 -0.00000000000E+00 -0.66257236917E+03  0.66257236917E+03  0.00000000000E+00 0. -1.
          6    1    1    2  501    0  0.28785499038E+01  0.55205498705E+02 -0.37387512244E+03  0.41523793217E+03  0.17200000000E+03 0. -1.
         -6    1    1    2    0  502 -0.28785499038E+01 -0.55205498705E+02 -0.23756994275E+03  0.29846174099E+03  0.17200000000E+03 0.  1.
<mgrwt>
<rscale>  2 0.18066525E+03</rscale>
<asrwt>0</asrwt>
<pdfrwt beam="1">  1       21 0.12781826E-01 0.18066525E+03</pdfrwt>
<pdfrwt beam="2">  1       21 0.16564310E+00 0.18066525E+03</pdfrwt>
<totfact> 0.12116858E+04</totfact>
</mgrwt>
</event>
<event>
 4    1  0.1116135E+000  0.5001524E+03  0.7546771E-02  0.1013739E+00
         21   -1    0    0  503  502  0.00000000000E+00  0.00000000000E+00  0.12835370633E+04  0.12835370633E+04  0.00000000000E+00 0.  1.
         21   -1    0    0  501  503 -0.00000000000E+00 -0.00000000000E+00 -0.20894700806E+03  0.20894700806E+03  0.00000000000E+00 0. -1.
          6    1    1    2  501    0 -0.19493727322E+03 -0.42727964897E+03  0.34375930980E+03  0.60689612125E+03  0.17200000000E+03 0. -1.
         -6    1    1    2    0  502  0.19493727322E+03  0.42727964897E+03  0.73083074547E+03  0.88558795014E+03  0.17200000000E+03 0.  1.
<mgrwt>
<rscale>  2 0.50015242E+03</rscale>
<asrwt>0</asrwt>
<pdfrwt beam="1">  1       21 0.32088424E+00 0.50015242E+03</pdfrwt>
<pdfrwt beam="2">  1       21 0.52236756E-01 0.50015242E+03</pdfrwt>
<totfact> 0.66362768E+01</totfact>
</mgrwt>
</event>
<event>
 4    1  0.1116135E+000  0.2139037E+03  0.7546771E-02  0.1138511E+00
         21   -1    0    0  503  502  0.00000000000E+00  0.00000000000E+00  0.93964141413E+02  0.93964141413E+02  0.00000000000E+00 0. -1.
         21   -1    0    0  501  503 -0.00000000000E+00 -0.00000000000E+00 -0.49817466202E+03  0.49817466202E+03  0.00000000000E+00 0.  1.
          6    1    1    2  501    0 -0.47388612075E+02 -0.11800475995E+03 -0.24656861990E+03  0.32642133546E+03  0.17200000000E+03 0. -1.
         -6    1    1    2    0  502  0.47388612075E+02  0.11800475995E+03 -0.15764190071E+03  0.26571746797E+03  0.17200000000E+03 0.  1.
<mgrwt>
<rscale>  2 0.21390373E+03</rscale>
<asrwt>0</asrwt>
<pdfrwt beam="1">  1       21 0.23491035E-01 0.21390373E+03</pdfrwt>
<pdfrwt beam="2">  1       21 0.12454367E+00 0.21390373E+03</pdfrwt>
<totfact> 0.80815923E+03</totfact>
</mgrwt>
</event>
<event>
 4    1  0.1116135E+000  0.1792194E+03  0.7546771E-02  0.1168561E+00
         21   -1    0    0  501  502  0.00000000000E+00  0.00000000000E+00  0.26582499402E+02  0.26582499402E+02  0.00000000000E+00 0. -1.
         21   -1    0    0  502  503 -0.00000000000E+00 -0.00000000000E+00 -0.12135428115E+04  0.12135428115E+04  0.00000000000E+00 0. -1.
          6    1    1    2  501    0  0.46328242800E+01 -0.50141061195E+02 -0.55271771609E+03  0.58104772846E+03  0.17200000000E+03 0.  1.
         -6    1    1    2    0  503 -0.46328242800E+01  0.50141061195E+02 -0.63424259606E+03  0.65907758249E+03  0.17200000000E+03 0.  1.
<mgrwt>
<rscale>  2 0.17921939E+03</rscale>
<asrwt>0</asrwt>
<pdfrwt beam="1">  1       21 0.66456256E-02 0.17921939E+03</pdfrwt>
<pdfrwt beam="2">  1       21 0.30338567E+00 0.17921939E+03</pdfrwt>
<totfact> 0.54873212E+03</totfact>
</mgrwt>
</event>
<event>
 4    1  0.1116135E+000  0.1981724E+03  0.7546771E-02  0.1151290E+00
         21   -1    0    0  503  502  0.00000000000E+00  0.00000000000E+00  0.37073526392E+03  0.37073526392E+03  0.00000000000E+00 0. -1.
         21   -1    0    0  501  503 -0.00000000000E+00 -0.00000000000E+00 -0.42632011817E+03  0.42632011817E+03  0.00000000000E+00 0. -1.
          6    1    1    2  501    0 -0.89341676263E+02 -0.41308190777E+02 -0.37327772383E+03  0.42262106058E+03  0.17200000000E+03 0. -1.
         -6    1    1    2    0  502  0.89341676263E+02  0.41308190777E+02  0.31769286957E+03  0.37443432150E+03  0.17200000000E+03 0. -1.
<mgrwt>
<rscale>  2 0.19817240E+03</rscale>
<asrwt>0</asrwt>
<pdfrwt beam="1">  1       21 0.92683816E-01 0.19817240E+03</pdfrwt>
<pdfrwt beam="2">  1       21 0.10658003E+00 0.19817240E+03</pdfrwt>
<totfact> 0.68763107E+02</totfact>
</mgrwt>
</event>
<event>
 4    1  0.1116135E+000  0.2027512E+03  0.7546771E-02  0.1147438E+00
         21   -1    0    0  503  502  0.00000000000E+00  0.00000000000E+00  0.84780118701E+03  0.84780118701E+03  0.00000000000E+00 0.  1.
         21   -1    0    0  501  503 -0.00000000000E+00 -0.00000000000E+00 -0.53822951525E+02  0.53822951525E+02  0.00000000000E+00 0.  1.
          6    1    1    2  501    0  0.10708840367E+03 -0.74911283911E+01  0.25505598918E+03  0.32582449390E+03  0.17200000000E+03 0.  1.
         -6    1    1    2    0  502 -0.10708840367E+03  0.74911283911E+01  0.53892224630E+03  0.57579964464E+03  0.17200000000E+03 0.  1.
<mgrwt>
<rscale>  2 0.20275119E+03</rscale>
<asrwt>0</asrwt>
<pdfrwt beam="1">  1       21 0.21195025E+00 0.20275119E+03</pdfrwt>
<pdfrwt beam="2">  1       21 0.13455741E-01 0.20275119E+03</pdfrwt>
<totfact> 0.53390851E+03</totfact>
</mgrwt>
</event>
<event>
 4    1  0.1116135E+000  0.2463222E+03  0.7546771E-02  0.1115651E+00
         21   -1    0    0  503  502  0.00000000000E+00  0.00000000000E+00  0.53415774714E+03  0.53415774714E+03  0.00000000000E+00 0. -1.
         21   -1    0    0  501  503 -0.00000000000E+00 -0.00000000000E+00 -0.15101128915E+03  0.15101128915E+03  0.00000000000E+00 0.  1.
          6    1    1    2  501    0 -0.14775293326E+03  0.96227336426E+02  0.21033256683E+02  0.24721858233E+03  0.17200000000E+03 0.  1.
         -6    1    1    2    0  502  0.14775293326E+03 -0.96227336426E+02  0.36211320131E+03  0.43795045396E+03  0.17200000000E+03 0. -1.
<mgrwt>
<rscale>  2 0.24632221E+03</rscale>
<asrwt>0</asrwt>
<pdfrwt beam="1">  1       21 0.13353943E+00 0.24632221E+03</pdfrwt>
<pdfrwt beam="2">  1       21 0.37752823E-01 0.24632221E+03</pdfrwt>
<totfact> 0.26154901E+03</totfact>
</mgrwt>
</event>
<event>
 4    1  0.1116135E+000  0.1885610E+03  0.7546771E-02  0.1159766E+00
         21   -1    0    0  503  502  0.00000000000E+00  0.00000000000E+00  0.58086461043E+03  0.58086461043E+03  0.00000000000E+00 0. -1.
         21   -1    0    0  501  503 -0.00000000000E+00 -0.00000000000E+00 -0.64387412509E+02  0.64387412509E+02  0.00000000000E+00 0. -1.
          6    1    1    2  501    0  0.31623654871E+02 -0.70506734495E+02  0.32989797972E+03  0.37998412096E+03  0.17200000000E+03 0. -1.
         -6    1    1    2    0  502 -0.31623654871E+02  0.70506734495E+02  0.18657921820E+03  0.26526790198E+03  0.17200000000E+03 0. -1.
<mgrwt>
<rscale>  2 0.18856101E+03</rscale>
<asrwt>0</asrwt>
<pdfrwt beam="1">  1       21 0.14521614E+00 0.18856101E+03</pdfrwt>
<pdfrwt beam="2">  1       21 0.16096855E-01 0.18856101E+03</pdfrwt>
<totfact> 0.11255368E+04</totfact>
</mgrwt>
</event>
<event>
 4    1  0.1116135E+000  0.2933671E+03  0.7546771E-02  0.1088604E+00
         21   -1    0    0  501  502  0.00000000000E+00  0.00000000000E+00  0.62539586699E+03  0.62539586699E+03  0.00000000000E+00 0. -1.
         21   -1    0    0  502  503 -0.00000000000E+00 -0.00000000000E+00 -0.14419015858E+03  0.14419015858E+03  0.00000000000E+00 0. -1.
          6    1    1    2  501    0 -0.15126803700E+03 -0.18329827639E+03  0.32276845665E+03  0.43616940947E+03  0.17200000000E+03 0. -1.
         -6    1    1    2    0  503  0.15126803700E+03  0.18329827639E+03  0.15843725176E+03  0.33341661610E+03  0.17200000000E+03 0. -1.
<mgrwt>
<rscale>  2 0.29336714E+03</rscale>
<asrwt>0</asrwt>
<pdfrwt beam="1">  1       21 0.15634896E+00 0.29336714E+03</pdfrwt>
<pdfrwt beam="2">  1       21 0.36047541E-01 0.29336714E+03</pdfrwt>
<totfact> 0.18341466E+03</totfact>
</mgrwt>
</event>
<event>
 4    1  0.1116135E+000  0.2548378E+03  0.7546771E-02  0.1110285E+00
         21   -1    0    0  501  502  0.00000000000E+00  0.00000000000E+00  0.48204264233E+03  0.48204264233E+03  0.00000000000E+00 0. -1.
         21   -1    0    0  502  503 -0.00000000000E+00 -0.00000000000E+00 -0.29941781733E+03  0.29941781733E+03  0.00000000000E+00 0. -1.
          6    1    1    2  501    0  0.12152182506E+03 -0.14349478059E+03  0.38109878181E+03  0.45845238304E+03  0.17200000000E+03 0. -1.
         -6    1    1    2    0  503 -0.12152182506E+03  0.14349478059E+03 -0.19847395681E+03  0.32300807661E+03  0.17200000000E+03 0. -1.
<mgrwt>
<rscale>  2 0.25483780E+03</rscale>
<asrwt>0</asrwt>
<pdfrwt beam="1">  1       21 0.12051066E+00 0.25483780E+03</pdfrwt>
<pdfrwt beam="2">  1       21 0.74854455E-01 0.25483780E+03</pdfrwt>
<totfact> 0.78778204E+02</totfact>
</mgrwt>
</event>
<event>
 4    1  0.1116135E+000  0.1813881E+03  0.7546771E-02  0.1166466E+00
         21   -1    0    0  503  502  0.00000000000E+00  0.00000000000E+00  0.89783196832E+02  0.89783196832E+02  0.00000000000E+00 0.  1.
         21   -1    0    0  501  503 -0.00000000000E+00 -0.00000000000E+00 -0.37456605107E+03  0.37456605107E+03  0.00000000000E+00 0.  1.
          6    1    1    2  501    0 -0.20834115357E+01  0.57561224429E+02 -0.17655389387E+03  0.25312627798E+03  0.17200000000E+03 0.  1.
         -6    1    1    2    0  502  0.20834115357E+01 -0.57561224429E+02 -0.10822896036E+03  0.21122296992E+03  0.17200000000E+03 0.  1.
<mgrwt>
<rscale>  2 0.18138808E+03</rscale>
<asrwt>0</asrwt>
<pdfrwt beam="1">  1       21 0.22445799E-01 0.18138808E+03</pdfrwt>
<pdfrwt beam="2">  1       21 0.93641512E-01 0.18138808E+03</pdfrwt>
<totfact> 0.17933023E+04</totfact>
</mgrwt>
</event>
<event>
 4    1  0.1116135E+000  0.2204419E+03  0.7546771E-02  0.1133554E+00
         21   -1    0    0  501  502  0.00000000000E+00  0.00000000000E+00  0.54699395570E+03  0.54699395570E+03  0.00000000000E+00 0. -1.
         21   -1    0    0  502  503 -0.00000000000E+00 -0.00000000000E+00 -0.12332052333E+03  0.12332052333E+03  0.00000000000E+00 0. -1.
          6    1    1    2  501    0  0.18117355101E+02  0.13668356345E+03  0.38906025123E+03  0.44717168310E+03  0.17200000000E+03 0. -1.
         -6    1    1    2    0  503 -0.18117355101E+02 -0.13668356345E+03  0.34613181137E+02  0.22314279594E+03  0.17200000000E+03 0. -1.
<mgrwt>
<rscale>  2 0.22044191E+03</rscale>
<asrwt>0</asrwt>
<pdfrwt beam="1">  1       21 0.13674848E+00 0.22044191E+03</pdfrwt>
<pdfrwt beam="2">  1       21 0.30830132E-01 0.22044191E+03</pdfrwt>
<totfact> 0.37535850E+03</totfact>
</mgrwt>
</event>
<event>
 4    1  0.1116135E+000  0.1862964E+03  0.7546771E-02  0.1161845E+00
         21   -1    0    0  503  502  0.00000000000E+00  0.00000000000E+00  0.56358950176E+02  0.56358950176E+02  0.00000000000E+00 0.  1.
         21   -1    0    0  501  503 -0.00000000000E+00 -0.00000000000E+00 -0.12940866360E+04  0.12940866360E+04  0.00000000000E+00 0.  1.
          6    1    1    2  501    0 -0.33769102466E+02  0.63102934391E+02 -0.11077066829E+04  0.11232632941E+04  0.17200000000E+03 0.  1.
         -6    1    1    2    0  502  0.33769102466E+02 -0.63102934391E+02 -0.13002100289E+03  0.22718229201E+03  0.17200000000E+03 0.  1.
<mgrwt>
<rscale>  2 0.18629636E+03</rscale>
<asrwt>0</asrwt>
<pdfrwt beam="1">  1       21 0.14089738E-01 0.18629636E+03</pdfrwt>
<pdfrwt beam="2">  1       21 0.32352165E+00 0.18629636E+03</pdfrwt>
<totfact> 0.11075917E+03</totfact>
</mgrwt>
</event>
<event>
 4    1  0.1116135E+000  0.1902482E+03  0.7546771E-02  0.1158238E+00
         21   -1    0    0  501  502  0.00000000000E+00  0.00000000000E+00  0.12899545853E+03  0.12899545853E+03  0.00000000000E+00 0. -1.
         21   -1    0    0  502  503 -0.00000000000E+00 -0.00000000000E+00 -0.30594568052E+03  0.30594568052E+03  0.00000000000E+00 0. -1.
          6    1    1    2  501    0  0.32850900334E+02  0.74371902172E+02 -0.25864571495E+02  0.19199827485E+03  0.17200000000E+03 0. -1.
         -6    1    1    2    0  503 -0.32850900334E+02 -0.74371902172E+02 -0.15108565049E+03  0.24294286421E+03  0.17200000000E+03 0. -1.
<mgrwt>
<rscale>  2 0.19024816E+03</rscale>
<asrwt>0</asrwt>
<pdfrwt beam="1">  1       21 0.32248865E-01 0.19024816E+03</pdfrwt>
<pdfrwt beam="2">  1       21 0.76486420E-01 0.19024816E+03</pdfrwt>
<totfact> 0.14098002E+04</totfact>
</mgrwt>
</event>
<event>
 4    1  0.1116135E+000  0.1722184E+03  0.7546771E-02  0.1175554E+00
         21   -1    0    0  501  502  0.00000000000E+00  0.00000000000E+00  0.28640816163E+03  0.28640816163E+03  0.00000000000E+00 0. -1.
         21   -1    0    0  502  503 -0.00000000000E+00 -0.00000000000E+00 -0.29931064581E+03  0.29931064581E+03  0.00000000000E+00 0. -1.
          6    1    1    2  501    0  0.16838366545E+01 -0.85047850894E+01  0.23038850221E+03  0.28764218854E+03  0.17200000000E+03 0. -1.
         -6    1    1    2    0  503 -0.16838366545E+01  0.85047850894E+01 -0.24329098640E+03  0.29807661891E+03  0.17200000000E+03 0. -1.
<mgrwt>
<rscale>  2 0.17221837E+03</rscale>
<asrwt>0</asrwt>
<pdfrwt beam="1">  1       21 0.71602041E-01 0.17221837E+03</pdfrwt>
<pdfrwt beam="2">  1       21 0.74827661E-01 0.17221837E+03</pdfrwt>
<totfact> 0.28685114E+03</totfact>
</mgrwt>
</event>
<event>
 4    1  0.1116135E+000  0.1790794E+03  0.7546771E-02  0.1168697E+00
         21   -1    0    0  503  502  0.00000000000E+00  0.00000000000E+00  0.49086207130E+03  0.49086207130E+03  0.00000000000E+00 0.  1.
         21   -1    0    0  501  503 -0.00000000000E+00 -0.00000000000E+00 -0.66050277893E+02  0.66050277893E+02  0.00000000000E+00 0.  1.
          6    1    1    2  501    0 -0.15114428987E+02  0.47507874035E+02  0.24142557771E+03  0.30059233794E+03  0.17200000000E+03 0.  1.
         -6    1    1    2    0  502  0.15114428987E+02 -0.47507874035E+02  0.18338621570E+03  0.25632001125E+03  0.17200000000E+03 0.  1.
<mgrwt>
<rscale>  2 0.17907944E+03</rscale>
<asrwt>0</asrwt>
<pdfrwt beam="1">  1       21 0.12271551E+00 0.17907944E+03</pdfrwt>
<pdfrwt beam="2">  1       21 0.16512571E-01 0.17907944E+03</pdfrwt>
<totfact> 0.16588593E+04</totfact>
</mgrwt>
</event>
<event>
 4    1  0.1116135E+000  0.1793480E+03  0.7546771E-02  0.1168436E+00
         21   -1    0    0  501  502  0.00000000000E+00  0.00000000000E+00  0.26952181218E+03  0.26952181218E+03  0.00000000000E+00 0.  1.
         21   -1    0    0  502  503 -0.00000000000E+00 -0.00000000000E+00 -0.14373759583E+03  0.14373759583E+03  0.00000000000E+00 0.  1.
          6    1    1    2  501    0  0.26575749009E+02  0.43306205097E+02  0.14801555874E+03  0.23253882141E+03  0.17200000000E+03 0.  1.
         -6    1    1    2    0  503 -0.26575749009E+02 -0.43306205097E+02 -0.22231342390E+02  0.18072058660E+03  0.17200000000E+03 0.  1.
<mgrwt>
<rscale>  2 0.17934798E+03</rscale>
<asrwt>0</asrwt>
<pdfrwt beam="1">  1       21 0.67380452E-01 0.17934798E+03</pdfrwt>
<pdfrwt beam="2">  1       21 0.35934399E-01 0.17934798E+03</pdfrwt>
<totfact> 0.15175203E+04</totfact>
</mgrwt>
</event>
<event>
 4    1  0.1116135E+000  0.2177963E+03  0.7546771E-02  0.1135537E+00
         21   -1    0    0  503  502  0.00000000000E+00  0.00000000000E+00  0.11612471598E+03  0.11612471598E+03  0.00000000000E+00 0.  1.
         21   -1    0    0  501  503 -0.00000000000E+00 -0.00000000000E+00 -0.42055729533E+03  0.42055729533E+03  0.00000000000E+00 0.  1.
          6    1    1    2  501    0 -0.13338365532E+03  0.77471010019E+01 -0.19768026954E+03  0.29413042353E+03  0.17200000000E+03 0.  1.
         -6    1    1    2    0  502  0.13338365532E+03 -0.77471010019E+01 -0.10675230982E+03  0.24255158778E+03  0.17200000000E+03 0.  1.
<mgrwt>
<rscale>  2 0.21779627E+03</rscale>
<asrwt>0</asrwt>
<pdfrwt beam="1">  1       21 0.29031179E-01 0.21779627E+03</pdfrwt>
<pdfrwt beam="2">  1       21 0.10513932E+00 0.21779627E+03</pdfrwt>
<totfact> 0.81254747E+03</totfact>
</mgrwt>
</event>
<event>
 4    1  0.1116135E+000  0.2744498E+03  0.7546771E-02  0.1098760E+00
         21   -1    0    0  503  502  0.00000000000E+00  0.00000000000E+00  0.21853617556E+03  0.21853617556E+03  0.00000000000E+00 0.  1.
         21   -1    0    0  501  503 -0.00000000000E+00 -0.00000000000E+00 -0.34489774313E+03  0.34489774313E+03  0.00000000000E+00 0. -1.
          6    1    1    2  501    0 -0.14123843798E+03  0.16059392464E+03 -0.70431509807E+02  0.28334308279E+03  0.17200000000E+03 0. -1.
         -6    1    1    2    0  502  0.14123843798E+03 -0.16059392464E+03 -0.55930057758E+02  0.28009083590E+03  0.17200000000E+03 0.  1.
<mgrwt>
<rscale>  2 0.27444982E+03</rscale>
<asrwt>0</asrwt>
<pdfrwt beam="1">  1       21 0.54634044E-01 0.27444982E+03</pdfrwt>
<pdfrwt beam="2">  1       21 0.86224435E-01 0.27444982E+03</pdfrwt>
<totfact> 0.34615335E+03</totfact>
</mgrwt>
</event>
<event>
 4    1  0.1116135E+000  0.3240591E+03  0.7546771E-02  0.1073796E+00
         21   -1    0    0  501  502  0.00000000000E+00  0.00000000000E+00  0.46154362177E+03  0.46154362177E+03  0.00000000000E+00 0. -1.
         21   -1    0    0  502  503 -0.00000000000E+00 -0.00000000000E+00 -0.29097179785E+03  0.29097179785E+03  0.00000000000E+00 0.  1.
          6    1    1    2  501    0  0.26238081922E+03 -0.81157952966E+02  0.26097831570E+03  0.41608170939E+03  0.17200000000E+03 0. -1.
         -6    1    1    2    0  503 -0.26238081922E+03  0.81157952966E+02 -0.90406491781E+02  0.33643371023E+03  0.17200000000E+03 0.  1.
<mgrwt>
<rscale>  2 0.32405911E+03</rscale>
<asrwt>0</asrwt>
<pdfrwt beam="1">  1       21 0.11538590E+00 0.32405911E+03</pdfrwt>
<pdfrwt beam="2">  1       21 0.72742950E-01 0.32405911E+03</pdfrwt>
<totfact> 0.89214697E+02</totfact>
</mgrwt>
</event>
<event>
 4    1  0.1116135E+000  0.2073492E+03  0.7546771E-02  0.1143682E+00
         21   -1    0    0  501  502  0.00000000000E+00  0.00000000000E+00  0.39991640543E+02  0.39991640543E+02  0.00000000000E+00 0. -1.
         21   -1    0    0  502  503 -0.00000000000E+00 -0.00000000000E+00 -0.12152101330E+04  0.12152101330E+04  0.00000000000E+00 0.  1.
          6    1    1    2  501    0 -0.10478287763E+03  0.49297653245E+02 -0.80073852165E+03  0.82714925504E+03  0.17200000000E+03 0. -1.
         -6    1    1    2    0  503  0.10478287763E+03 -0.49297653245E+02 -0.37447997080E+03  0.42805251850E+03  0.17200000000E+03 0. -1.
<mgrwt>
<rscale>  2 0.20734925E+03</rscale>
<asrwt>0</asrwt>
<pdfrwt beam="1">  1       21 0.99979110E-02 0.20734925E+03</pdfrwt>
<pdfrwt beam="2">  1       21 0.30380251E+00 0.20734925E+03</pdfrwt>
<totfact> 0.25884881E+03</totfact>
</mgrwt>
</event>
<event>
 4    1  0.1116135E+000  0.1872893E+03  0.7546771E-02  0.1160929E+00
         21   -1    0    0  501  502  0.00000000000E+00  0.00000000000E+00  0.33360222940E+03  0.33360222940E+03  0.00000000000E+00 0.  1.
         21   -1    0    0  502  503 -0.00000000000E+00 -0.00000000000E+00 -0.31831309281E+03  0.31831309281E+03  0.00000000000E+00 0.  1.
          6    1    1    2  501    0  0.48514871442E+02 -0.56032050167E+02  0.27438753331E+03  0.33221348834E+03  0.17200000000E+03 0.  1.
         -6    1    1    2    0  503 -0.48514871442E+02  0.56032050167E+02 -0.25909839672E+03  0.31970183387E+03  0.17200000000E+03 0.  1.
<mgrwt>
<rscale>  2 0.18728930E+03</rscale>
<asrwt>0</asrwt>
<pdfrwt beam="1">  1       21 0.83400557E-01 0.18728930E+03</pdfrwt>
<pdfrwt beam="2">  1       21 0.79578273E-01 0.18728930E+03</pdfrwt>
<totfact> 0.17505359E+03</totfact>
</mgrwt>
</event>
<event>
 4    1  0.1116135E+000  0.1950140E+03  0.7546771E-02  0.1154015E+00
         21   -1    0    0  501  502  0.00000000000E+00  0.00000000000E+00  0.91838064938E+02  0.91838064938E+02  0.00000000000E+00 0.  1.
         21   -1    0    0  502  503 -0.00000000000E+00 -0.00000000000E+00 -0.41478568240E+03  0.41478568240E+03  0.00000000000E+00 0.  1.
          6    1    1    2  501    0 -0.65259424142E+02 -0.64712325091E+02 -0.17174563586E+03  0.25985965615E+03  0.17200000000E+03 0.  1.
         -6    1    1    2    0  503  0.65259424142E+02  0.64712325091E+02 -0.15120198160E+03  0.24676409118E+03  0.17200000000E+03 0.  1.
<mgrwt>
<rscale>  2 0.19501404E+03</rscale>
<asrwt>0</asrwt>
<pdfrwt beam="1">  1       21 0.22959517E-01 0.19501404E+03</pdfrwt>
<pdfrwt beam="2">  1       21 0.10369642E+00 0.19501404E+03</pdfrwt>
<totfact> 0.13385401E+04</totfact>
</mgrwt>
</event>
<event>
 4    1  0.1116135E+000  0.2337552E+03  0.7546771E-02  0.1124024E+00
         21   -1    0    0  501  502  0.00000000000E+00  0.00000000000E+00  0.34516201789E+03  0.34516201789E+03  0.00000000000E+00 0.  1.
         21   -1    0    0  502  503 -0.00000000000E+00 -0.00000000000E+00 -0.16160615431E+03  0.16160615431E+03  0.00000000000E+00 0.  1.
          6    1    1    2  501    0  0.15815736718E+03  0.66141496163E+01  0.55573322289E+02  0.24027045993E+03  0.17200000000E+03 0.  1.
         -6    1    1    2    0  503 -0.15815736718E+03 -0.66141496163E+01  0.12798254129E+03  0.26649771227E+03  0.17200000000E+03 0.  1.
<mgrwt>
<rscale>  2 0.23375521E+03</rscale>
<asrwt>0</asrwt>
<pdfrwt beam="1">  1       21 0.86290503E-01 0.23375521E+03</pdfrwt>
<pdfrwt beam="2">  1       21 0.40401539E-01 0.23375521E+03</pdfrwt>
<totfact> 0.66390470E+03</totfact>
</mgrwt>
</event>
<event>
 4    1  0.1116135E+000  0.1920344E+03  0.7546771E-02  0.1156639E+00
         21   -1    0    0  501  502  0.00000000000E+00  0.00000000000E+00  0.20856310619E+03  0.20856310619E+03  0.00000000000E+00 0. -1.
         21   -1    0    0  502  503 -0.00000000000E+00 -0.00000000000E+00 -0.19489126224E+03  0.19489126224E+03  0.00000000000E+00 0. -1.
          6    1    1    2  501    0 -0.73071080859E+02  0.44201957872E+02  0.68270970378E+02  0.20380903153E+03  0.17200000000E+03 0. -1.
         -6    1    1    2    0  503  0.73071080859E+02 -0.44201957872E+02 -0.54599126432E+02  0.19964533690E+03  0.17200000000E+03 0. -1.
<mgrwt>
<rscale>  2 0.19203436E+03</rscale>
<asrwt>0</asrwt>
<pdfrwt beam="1">  1       21 0.52140776E-01 0.19203436E+03</pdfrwt>
<pdfrwt beam="2">  1       21 0.48722816E-01 0.19203436E+03</pdfrwt>
<totfact> 0.14042501E+04</totfact>
</mgrwt>
</event>
<event>
 4    1  0.1116135E+000  0.1804334E+03  0.7546771E-02  0.1167384E+00
         21   -1    0    0  501  502  0.00000000000E+00  0.00000000000E+00  0.78686596944E+03  0.78686596944E+03  0.00000000000E+00 0.  1.
         21   -1    0    0  502  503 -0.00000000000E+00 -0.00000000000E+00 -0.42798457757E+02  0.42798457757E+02  0.00000000000E+00 0.  1.
          6    1    1    2  501    0 -0.19217549409E+02  0.51018584863E+02  0.29636749277E+03  0.34697247870E+03  0.17200000000E+03 0.  1.
         -6    1    1    2    0  503  0.19217549409E+02 -0.51018584863E+02  0.44770001891E+03  0.48269194849E+03  0.17200000000E+03 0.  1.
<mgrwt>
<rscale>  2 0.18043340E+03</rscale>
<asrwt>0</asrwt>
<pdfrwt beam="1">  1       21 0.19671645E+00 0.18043340E+03</pdfrwt>
<pdfrwt beam="2">  1       21 0.10699617E-01 0.18043340E+03</pdfrwt>
<totfact> 0.10254520E+04</totfact>
</mgrwt>
</event>
<event>
 4    1  0.1116135E+000  0.2043074E+03  0.7546771E-02  0.1146155E+00
         21   -1    0    0  501  502  0.00000000000E+00  0.00000000000E+00  0.62080644367E+03  0.62080644367E+03  0.00000000000E+00 0. -1.
         21   -1    0    0  502  503 -0.00000000000E+00 -0.00000000000E+00 -0.33854346251E+03  0.33854346251E+03  0.00000000000E+00 0. -1.
          6    1    1    2  501    0 -0.76379284929E+02  0.79521797185E+02  0.57053881300E+03  0.60601654147E+03  0.17200000000E+03 0. -1.
         -6    1    1    2    0  503  0.76379284929E+02 -0.79521797185E+02 -0.28827583184E+03  0.35333336471E+03  0.17200000000E+03 0. -1.
<mgrwt>
<rscale>  2 0.20430739E+03</rscale>
<asrwt>0</asrwt>
<pdfrwt beam="1">  1       21 0.15520161E+00 0.20430739E+03</pdfrwt>
<pdfrwt beam="2">  1       21 0.84635867E-01 0.20430739E+03</pdfrwt>
<totfact> 0.32596622E+02</totfact>
</mgrwt>
</event>
<event>
 4    1  0.1116135E+000  0.2100137E+03  0.7546771E-02  0.1141555E+00
         21   -1    0    0  501  502  0.00000000000E+00  0.00000000000E+00  0.16107624005E+03  0.16107624005E+03  0.00000000000E+00 0.  1.
         21   -1    0    0  502  503 -0.00000000000E+00 -0.00000000000E+00 -0.28978856514E+03  0.28978856514E+03  0.00000000000E+00 0. -1.
          6    1    1    2  501    0 -0.58857319085E+02  0.10515506040E+03 -0.11436234686E+02  0.21032488726E+03  0.17200000000E+03 0.  1.
         -6    1    1    2    0  503  0.58857319085E+02 -0.10515506040E+03 -0.11727609041E+03  0.24053991793E+03  0.17200000000E+03 0. -1.
<mgrwt>
<rscale>  2 0.21001374E+03</rscale>
<asrwt>0</asrwt>
<pdfrwt beam="1">  1       21 0.40269060E-01 0.21001374E+03</pdfrwt>
<pdfrwt beam="2">  1       21 0.72447141E-01 0.21001374E+03</pdfrwt>
<totfact> 0.10084938E+04</totfact>
</mgrwt>
</event>
<event>
 4    1  0.1116135E+000  0.1902787E+03  0.7546771E-02  0.1158210E+00
         21   -1    0    0  503  502  0.00000000000E+00  0.00000000000E+00  0.30037811318E+02  0.30037811318E+02  0.00000000000E+00 0.  1.
         21   -1    0    0  501  503 -0.00000000000E+00 -0.00000000000E+00 -0.12632725824E+04  0.12632725824E+04  0.00000000000E+00 0.  1.
          6    1    1    2  501    0  0.54998202979E+02 -0.59976393159E+02 -0.47814556578E+03  0.51461553818E+03  0.17200000000E+03 0.  1.
         -6    1    1    2    0  502 -0.54998202979E+02  0.59976393159E+02 -0.75508920526E+03  0.77869485549E+03  0.17200000000E+03 0.  1.
<mgrwt>
<rscale>  2 0.19027866E+03</rscale>
<asrwt>0</asrwt>
<pdfrwt beam="1">  1       21 0.75094529E-02 0.19027866E+03</pdfrwt>
<pdfrwt beam="2">  1       21 0.31581814E+00 0.19027866E+03</pdfrwt>
<totfact> 0.37173819E+03</totfact>
</mgrwt>
</event>
<event>
 4    1  0.1116135E+000  0.1788113E+03  0.7546771E-02  0.1168958E+00
         21   -1    0    0  503  502  0.00000000000E+00  0.00000000000E+00  0.24179271934E+03  0.24179271934E+03  0.00000000000E+00 0. -1.
         21   -1    0    0  501  503 -0.00000000000E+00 -0.00000000000E+00 -0.14308672262E+03  0.14308672262E+03  0.00000000000E+00 0. -1.
          6    1    1    2  501    0 -0.45155951091E+02  0.18719300441E+02  0.10234903708E+03  0.20603105960E+03  0.17200000000E+03 0. -1.
         -6    1    1    2    0  502  0.45155951091E+02 -0.18719300441E+02 -0.36430403623E+01  0.17884838235E+03  0.17200000000E+03 0. -1.
<mgrwt>
<rscale>  2 0.17881128E+03</rscale>
<asrwt>0</asrwt>
<pdfrwt beam="1">  1       21 0.60448179E-01 0.17881128E+03</pdfrwt>
<pdfrwt beam="2">  1       21 0.35771681E-01 0.17881128E+03</pdfrwt>
<totfact> 0.19377719E+04</totfact>
</mgrwt>
</event>
<event>
 4    1  0.1116135E+000  0.3138692E+03  0.7546771E-02  0.1078506E+00
         21   -1    0    0  501  502  0.00000000000E+00  0.00000000000E+00  0.20185667035E+03  0.20185667035E+03  0.00000000000E+00 0. -1.
         21   -1    0    0  502  503 -0.00000000000E+00 -0.00000000000E+00 -0.48814750306E+03  0.48814750306E+03  0.00000000000E+00 0. -1.
          6    1    1    2  501    0  0.66831964689E+02 -0.25389639047E+03 -0.13799724557E+03  0.34286605020E+03  0.17200000000E+03 0. -1.
         -6    1    1    2    0  503 -0.66831964689E+02  0.25389639047E+03 -0.14829358714E+03  0.34713812321E+03  0.17200000000E+03 0. -1.
<mgrwt>
<rscale>  2 0.31386922E+03</rscale>
<asrwt>0</asrwt>
<pdfrwt beam="1">  1       21 0.50464168E-01 0.31386922E+03</pdfrwt>
<pdfrwt beam="2">  1       21 0.12203687E+00 0.31386922E+03</pdfrwt>
<totfact> 0.17302920E+03</totfact>
</mgrwt>
</event>
<event>
 4    1  0.1116135E+000  0.1869288E+03  0.7546771E-02  0.1161261E+00
         21   -1    0    0  503  502  0.00000000000E+00  0.00000000000E+00  0.16100899237E+03  0.16100899237E+03  0.00000000000E+00 0. -1.
         21   -1    0    0  501  503 -0.00000000000E+00 -0.00000000000E+00 -0.21933064911E+03  0.21933064911E+03  0.00000000000E+00 0.  1.
          6    1    1    2  501    0 -0.49198096516E+02 -0.54202609345E+02 -0.96471199390E+01  0.18717756939E+03  0.17200000000E+03 0.  1.
         -6    1    1    2    0  502  0.49198096516E+02  0.54202609345E+02 -0.48674536801E+02  0.19316207209E+03  0.17200000000E+03 0.  1.
<mgrwt>
<rscale>  2 0.18692880E+03</rscale>
<asrwt>0</asrwt>
<pdfrwt beam="1">  1       21 0.40252248E-01 0.18692880E+03</pdfrwt>
<pdfrwt beam="2">  1       21 0.54832662E-01 0.18692880E+03</pdfrwt>
<totfact> 0.18735475E+04</totfact>
</mgrwt>
</event>
<event>
 4    1  0.1116135E+000  0.1795859E+03  0.7546771E-02  0.1168204E+00
         21   -1    0    0  501  502  0.00000000000E+00  0.00000000000E+00  0.11872855533E+03  0.11872855533E+03  0.00000000000E+00 0.  1.
         21   -1    0    0  502  503 -0.00000000000E+00 -0.00000000000E+00 -0.27420939407E+03  0.27420939407E+03  0.00000000000E+00 0.  1.
          6    1    1    2  501    0 -0.78426394709E+01  0.51045121288E+02 -0.58712507998E+02  0.18893985815E+03  0.17200000000E+03 0.  1.
         -6    1    1    2    0  503  0.78426394709E+01 -0.51045121288E+02 -0.96768330738E+02  0.20399809125E+03  0.17200000000E+03 0.  1.
<mgrwt>
<rscale>  2 0.17958594E+03</rscale>
<asrwt>0</asrwt>
<pdfrwt beam="1">  1       21 0.29682139E-01 0.17958594E+03</pdfrwt>
<pdfrwt beam="2">  1       21 0.68552348E-01 0.17958594E+03</pdfrwt>
<totfact> 0.21271792E+04</totfact>
</mgrwt>
</event>
<event>
 4    1  0.1116135E+000  0.1968719E+03  0.7546771E-02  0.1152405E+00
         21   -1    0    0  503  502  0.00000000000E+00  0.00000000000E+00  0.19145111352E+03  0.19145111352E+03  0.00000000000E+00 0.  1.
         21   -1    0    0  501  503 -0.00000000000E+00 -0.00000000000E+00 -0.66794618587E+03  0.66794618587E+03  0.00000000000E+00 0.  1.
          6    1    1    2  501    0  0.10816621111E+02  0.95171103806E+02 -0.59696549311E+03  0.62859075579E+03  0.17200000000E+03 0.  1.
         -6    1    1    2    0  502 -0.10816621111E+02 -0.95171103806E+02  0.12047042077E+03  0.23080654361E+03  0.17200000000E+03 0.  1.
<mgrwt>
<rscale>  2 0.19687188E+03</rscale>
<asrwt>0</asrwt>
<pdfrwt beam="1">  1       21 0.47862779E-01 0.19687188E+03</pdfrwt>
<pdfrwt beam="2">  1       21 0.16698654E+00 0.19687188E+03</pdfrwt>
<totfact> 0.93088861E+02</totfact>
</mgrwt>
</event>
<event>
 4    1  0.1116135E+000  0.1829428E+03  0.7546771E-02  0.1164985E+00
         21   -1    0    0  501  502  0.00000000000E+00  0.00000000000E+00  0.48172160789E+02  0.48172160789E+02  0.00000000000E+00 0. -1.
         21   -1    0    0  502  503 -0.00000000000E+00 -0.00000000000E+00 -0.11555522234E+04  0.11555522234E+04  0.00000000000E+00 0. -1.
          6    1    1    2  501    0  0.23462193048E+02  0.57737218563E+02 -0.17362743296E+03  0.25221924270E+03  0.17200000000E+03 0. -1.
         -6    1    1    2    0  503 -0.23462193048E+02 -0.57737218563E+02 -0.93375262969E+03  0.95150514153E+03  0.17200000000E+03 0. -1.
<mgrwt>
<rscale>  2 0.18294278E+03</rscale>
<asrwt>0</asrwt>
<pdfrwt beam="1">  1       21 0.12043041E-01 0.18294278E+03</pdfrwt>
<pdfrwt beam="2">  1       21 0.28888805E+00 0.18294278E+03</pdfrwt>
<totfact> 0.23344825E+03</totfact>
</mgrwt>
</event>
<event>
 4    1  0.1116135E+000  0.1816333E+03  0.7546771E-02  0.1166232E+00
         21   -1    0    0  503  502  0.00000000000E+00  0.00000000000E+00  0.66536447600E+03  0.66536447600E+03  0.00000000000E+00 0. -1.
         21   -1    0    0  501  503 -0.00000000000E+00 -0.00000000000E+00 -0.54184302369E+02  0.54184302369E+02  0.00000000000E+00 0.  1.
          6    1    1    2  501    0  0.38508265951E+02  0.43860995745E+02  0.20074682912E+03  0.27072119033E+03  0.17200000000E+03 0. -1.
         -6    1    1    2    0  502 -0.38508265951E+02 -0.43860995745E+02  0.41043334451E+03  0.44882758804E+03  0.17200000000E+03 0.  1.
<mgrwt>
<rscale>  2 0.18163335E+03</rscale>
<asrwt>0</asrwt>
<pdfrwt beam="1">  1       21 0.16634109E+00 0.18163335E+03</pdfrwt>
<pdfrwt beam="2">  1       21 0.13546078E-01 0.18163335E+03</pdfrwt>
<totfact> 0.10782070E+04</totfact>
</mgrwt>
</event>
<event>
 4    1  0.1116135E+000  0.1879743E+03  0.7546771E-02  0.1160301E+00
         21   -1    0    0  503  502  0.00000000000E+00  0.00000000000E+00  0.36765922068E+02  0.36765922068E+02  0.00000000000E+00 0. -1.
         21   -1    0    0  501  503 -0.00000000000E+00 -0.00000000000E+00 -0.98099586602E+03  0.98099586602E+03  0.00000000000E+00 0. -1.
          6    1    1    2  501    0 -0.17718621116E+02  0.73731935251E+02 -0.54465424911E+03  0.57617931140E+03  0.17200000000E+03 0. -1.
         -6    1    1    2    0  502  0.17718621116E+02 -0.73731935251E+02 -0.39957569484E+03  0.44158247669E+03  0.17200000000E+03 0. -1.
<mgrwt>
<rscale>  2 0.18797433E+03</rscale>
<asrwt>0</asrwt>
<pdfrwt beam="1">  1       21 0.91914810E-02 0.18797433E+03</pdfrwt>
<pdfrwt beam="2">  1       21 0.24524895E+00 0.18797433E+03</pdfrwt>
<totfact> 0.67079188E+03</totfact>
</mgrwt>
</event>
<event>
 4    1  0.1116135E+000  0.2035560E+03  0.7546771E-02  0.1146773E+00
         21   -1    0    0  503  502  0.00000000000E+00  0.00000000000E+00  0.82907640082E+02  0.82907640082E+02  0.00000000000E+00 0.  1.
         21   -1    0    0  501  503 -0.00000000000E+00 -0.00000000000E+00 -0.52963765929E+03  0.52963765929E+03  0.00000000000E+00 0.  1.
          6    1    1    2  501    0 -0.73275683549E+02  0.80509216317E+02 -0.29609145027E+03  0.35931212982E+03  0.17200000000E+03 0.  1.
         -6    1    1    2    0  502  0.73275683549E+02 -0.80509216317E+02 -0.15063856894E+03  0.25323316956E+03  0.17200000000E+03 0.  1.
<mgrwt>
<rscale>  2 0.20355604E+03</rscale>
<asrwt>0</asrwt>
<pdfrwt beam="1">  1       21 0.20726910E-01 0.20355604E+03</pdfrwt>
<pdfrwt beam="2">  1       21 0.13240941E+00 0.20355604E+03</pdfrwt>
<totfact> 0.88372628E+03</totfact>
</mgrwt>
</event>
<event>
 4    1  0.1116135E+000  0.2058113E+03  0.7546771E-02  0.1144927E+00
         21   -1    0    0  501  502  0.00000000000E+00  0.00000000000E+00  0.15265628794E+04  0.15265628794E+04  0.00000000000E+00 0. -1.
         21   -1    0    0  502  503 -0.00000000000E+00 -0.00000000000E+00 -0.54114716110E+02  0.54114716110E+02  0.00000000000E+00 0. -1.
          6    1    1    2  501    0 -0.10788334359E+03  0.33696928426E+02  0.12879047608E+04  0.13042457482E+04  0.17200000000E+03 0. -1.
         -6    1    1    2    0  503  0.10788334359E+03 -0.33696928426E+02  0.18454340252E+03  0.27643184734E+03  0.17200000000E+03 0. -1.
<mgrwt>
<rscale>  2 0.20581132E+03</rscale>
<asrwt>0</asrwt>
<pdfrwt beam="1">  1       21 0.38164058E+00 0.20581132E+03</pdfrwt>
<pdfrwt beam="2">  1       21 0.13528684E-01 0.20581132E+03</pdfrwt>
<totfact> 0.52387631E+02</totfact>
</mgrwt>
</event>
<event>
 4    1  0.1116135E+000  0.1875384E+03  0.7546771E-02  0.1160700E+00
         21   -1    0    0  501  502  0.00000000000E+00  0.00000000000E+00  0.14057216149E+03  0.14057216149E+03  0.00000000000E+00 0. -1.
         21   -1    0    0  502  503 -0.00000000000E+00 -0.00000000000E+00 -0.56669601607E+03  0.56669601607E+03  0.00000000000E+00 0. -1.
          6    1    1    2  501    0 -0.72381177278E+01 -0.74392608416E+02  0.51218881802E+02  0.19440685273E+03  0.17200000000E+03 0. -1.
         -6    1    1    2    0  503  0.72381177278E+01  0.74392608416E+02 -0.47734273638E+03  0.51286132483E+03  0.17200000000E+03 0. -1.
<mgrwt>
<rscale>  2 0.18753840E+03</rscale>
<asrwt>0</asrwt>
<pdfrwt beam="1">  1       21 0.35143041E-01 0.18753840E+03</pdfrwt>
<pdfrwt beam="2">  1       21 0.14167400E+00 0.18753840E+03</pdfrwt>
<totfact> 0.27213203E+03</totfact>
</mgrwt>
</event>
<event>
 4    1  0.1116135E+000  0.1747182E+03  0.7546771E-02  0.1173015E+00
         21   -1    0    0  503  502  0.00000000000E+00  0.00000000000E+00  0.82474683649E+02  0.82474683649E+02  0.00000000000E+00 0. -1.
         21   -1    0    0  501  503 -0.00000000000E+00 -0.00000000000E+00 -0.41894828176E+03  0.41894828176E+03  0.00000000000E+00 0. -1.
          6    1    1    2  501    0  0.30688724692E+02  0.81271695452E+00 -0.25381825526E+03  0.30813984656E+03  0.17200000000E+03 0. -1.
         -6    1    1    2    0  502 -0.30688724692E+02 -0.81271695452E+00 -0.82655342852E+02  0.19328311885E+03  0.17200000000E+03 0. -1.
<mgrwt>
<rscale>  2 0.17471823E+03</rscale>
<asrwt>0</asrwt>
<pdfrwt beam="1">  1       21 0.20618671E-01 0.17471823E+03</pdfrwt>
<pdfrwt beam="2">  1       21 0.10473707E+00 0.17471823E+03</pdfrwt>
<totfact> 0.16217289E+04</totfact>
</mgrwt>
</event>
<event>
 4    1  0.1116135E+000  0.2131237E+03  0.7546771E-02  0.1139116E+00
         21   -1    0    0  501  502  0.00000000000E+00  0.00000000000E+00  0.17457826198E+03  0.17457826198E+03  0.00000000000E+00 0.  1.
         21   -1    0    0  502  503 -0.00000000000E+00 -0.00000000000E+00 -0.43392947199E+03  0.43392947199E+03  0.00000000000E+00 0.  1.
          6    1    1    2  501    0  0.76082381256E+02 -0.10024557927E+03  0.62850117230E+02  0.22219775457E+03  0.17200000000E+03 0.  1.
         -6    1    1    2    0  503 -0.76082381256E+02  0.10024557927E+03 -0.32220132724E+03  0.38630997939E+03  0.17200000000E+03 0.  1.
<mgrwt>
<rscale>  2 0.21312368E+03</rscale>
<asrwt>0</asrwt>
<pdfrwt beam="1">  1       21 0.43644566E-01 0.21312368E+03</pdfrwt>
<pdfrwt beam="2">  1       21 0.10848237E+00 0.21312368E+03</pdfrwt>
<totfact> 0.33501927E+03</totfact>
</mgrwt>
</event>
<event>
 4    1  0.1116135E+000  0.2072407E+03  0.7546771E-02  0.1143770E+00
         21   -1    0    0  501  502  0.00000000000E+00  0.00000000000E+00  0.28404736188E+03  0.28404736188E+03  0.00000000000E+00 0.  1.
         21   -1    0    0  502  503 -0.00000000000E+00 -0.00000000000E+00 -0.15283618256E+03  0.15283618256E+03  0.00000000000E+00 0.  1.
          6    1    1    2  501    0  0.80111961041E+01  0.11532793285E+03  0.43022276270E+02  0.21165922520E+03  0.17200000000E+03 0.  1.
         -6    1    1    2    0  503 -0.80111961041E+01 -0.11532793285E+03  0.88188903045E+02  0.22522431924E+03  0.17200000000E+03 0.  1.
<mgrwt>
<rscale>  2 0.20724071E+03</rscale>
<asrwt>0</asrwt>
<pdfrwt beam="1">  1       21 0.71011840E-01 0.20724071E+03</pdfrwt>
<pdfrwt beam="2">  1       21 0.38209046E-01 0.20724071E+03</pdfrwt>
<totfact> 0.11742969E+04</totfact>
</mgrwt>
</event>
<event>
 4    1  0.1116135E+000  0.2151984E+03  0.7546771E-02  0.1137514E+00
         21   -1    0    0  503  502  0.00000000000E+00  0.00000000000E+00  0.52467863920E+03  0.52467863920E+03  0.00000000000E+00 0. -1.
         21   -1    0    0  501  503 -0.00000000000E+00 -0.00000000000E+00 -0.11814025871E+03  0.11814025871E+03  0.00000000000E+00 0. -1.
          6    1    1    2  501    0  0.44909529043E+02 -0.12128263896E+03  0.41639448634E+02  0.21918984464E+03  0.17200000000E+03 0. -1.
         -6    1    1    2    0  502 -0.44909529043E+02  0.12128263896E+03  0.36489893185E+03  0.42362905328E+03  0.17200000000E+03 0. -1.
<mgrwt>
<rscale>  2 0.21519838E+03</rscale>
<asrwt>0</asrwt>
<pdfrwt beam="1">  1       21 0.13116965E+00 0.21519838E+03</pdfrwt>
<pdfrwt beam="2">  1       21 0.29535066E-01 0.21519838E+03</pdfrwt>
<totfact> 0.45584228E+03</totfact>
</mgrwt>
</event>
<event>
 4    1  0.1116135E+000  0.2067836E+03  0.7546771E-02  0.1144139E+00
         21   -1    0    0  503  502  0.00000000000E+00  0.00000000000E+00  0.53137035176E+02  0.53137035176E+02  0.00000000000E+00 0. -1.
         21   -1    0    0  501  503 -0.00000000000E+00 -0.00000000000E+00 -0.97537426879E+03  0.97537426879E+03  0.00000000000E+00 0. -1.
          6    1    1    2  501    0  0.91283435685E+02 -0.69590231626E+02 -0.67623585169E+03  0.70714524185E+03  0.17200000000E+03 0. -1.
         -6    1    1    2    0  502 -0.91283435685E+02  0.69590231626E+02 -0.24600138192E+03  0.32136606211E+03  0.17200000000E+03 0. -1.
<mgrwt>
<rscale>  2 0.20678362E+03</rscale>
<asrwt>0</asrwt>
<pdfrwt beam="1">  1       21 0.13284258E-01 0.20678362E+03</pdfrwt>
<pdfrwt beam="2">  1       21 0.24384358E+00 0.20678362E+03</pdfrwt>
<totfact> 0.34825676E+03</totfact>
</mgrwt>
</event>
<event>
 4    1  0.1116135E+000  0.1878341E+03  0.7546771E-02  0.1160429E+00
         21   -1    0    0  501  502  0.00000000000E+00  0.00000000000E+00  0.32606203739E+03  0.32606203739E+03  0.00000000000E+00 0. -1.
         21   -1    0    0  502  503 -0.00000000000E+00 -0.00000000000E+00 -0.14694394838E+03  0.14694394838E+03  0.00000000000E+00 0. -1.
          6    1    1    2  501    0  0.36617087698E+02 -0.66006481306E+02  0.21099088331E+03  0.28248684841E+03  0.17200000000E+03 0. -1.
         -6    1    1    2    0  503 -0.36617087698E+02  0.66006481306E+02 -0.31872794300E+02  0.19051913737E+03  0.17200000000E+03 0. -1.
<mgrwt>
<rscale>  2 0.18783415E+03</rscale>
<asrwt>0</asrwt>
<pdfrwt beam="1">  1       21 0.81515508E-01 0.18783415E+03</pdfrwt>
<pdfrwt beam="2">  1       21 0.36735988E-01 0.18783415E+03</pdfrwt>
<totfact> 0.94518065E+03</totfact>
</mgrwt>
</event>
<event>
 4    1  0.1116135E+000  0.1754764E+03  0.7546771E-02  0.1172254E+00
         21   -1    0    0  503  502  0.00000000000E+00  0.00000000000E+00  0.35479229621E+02  0.35479229621E+02  0.00000000000E+00 0.  1.
         21   -1    0    0  501  503 -0.00000000000E+00 -0.00000000000E+00 -0.87970907604E+03  0.87970907604E+03  0.00000000000E+00 0.  1.
          6    1    1    2  501    0  0.24877906466E+02 -0.24270259512E+02 -0.36906788589E+03  0.40866007895E+03  0.17200000000E+03 0.  1.
         -6    1    1    2    0  502 -0.24877906466E+02  0.24270259512E+02 -0.47516196052E+03  0.50652822671E+03  0.17200000000E+03 0.  1.
<mgrwt>
<rscale>  2 0.17547637E+03</rscale>
<asrwt>0</asrwt>
<pdfrwt beam="1">  1       21 0.88698080E-02 0.17547637E+03</pdfrwt>
<pdfrwt beam="2">  1       21 0.21992725E+00 0.17547637E+03</pdfrwt>
<totfact> 0.10250437E+04</totfact>
</mgrwt>
</event>
<event>
 4    1  0.1116135E+000  0.1906653E+03  0.7546771E-02  0.1157863E+00
         21   -1    0    0  501  502  0.00000000000E+00  0.00000000000E+00  0.27089204670E+02  0.27089204670E+02  0.00000000000E+00 0. -1.
         21   -1    0    0  502  503 -0.00000000000E+00 -0.00000000000E+00 -0.14107769598E+04  0.14107769598E+04  0.00000000000E+00 0. -1.
          6    1    1    2  501    0  0.17335467376E+02  0.80428451934E+02 -0.53308639926E+03  0.56615754290E+03  0.17200000000E+03 0. -1.
         -6    1    1    2    0  503 -0.17335467376E+02 -0.80428451934E+02 -0.85060135592E+03  0.87170862162E+03  0.17200000000E+03 0. -1.
<mgrwt>
<rscale>  2 0.19066529E+03</rscale>
<asrwt>0</asrwt>
<pdfrwt beam="1">  1       21 0.67723017E-02 0.19066529E+03</pdfrwt>
<pdfrwt beam="2">  1       21 0.35269421E+00 0.19066529E+03</pdfrwt>
<totfact> 0.27069425E+03</totfact>
</mgrwt>
</event>
<event>
 4    1  0.1116135E+000  0.2025087E+03  0.7546771E-02  0.1147640E+00
         21   -1    0    0  501  502  0.00000000000E+00  0.00000000000E+00  0.99160179115E+02  0.99160179115E+02  0.00000000000E+00 0.  1.
         21   -1    0    0  502  503 -0.00000000000E+00 -0.00000000000E+00 -0.42602803396E+03  0.42602803396E+03  0.00000000000E+00 0.  1.
          6    1    1    2  501    0 -0.44393741930E+02  0.97236690030E+02 -0.11853121803E+03  0.23464745441E+03  0.17200000000E+03 0.  1.
         -6    1    1    2    0  503  0.44393741930E+02 -0.97236690030E+02 -0.20833663681E+03  0.29054075867E+03  0.17200000000E+03 0.  1.
<mgrwt>
<rscale>  2 0.20250871E+03</rscale>
<asrwt>0</asrwt>
<pdfrwt beam="1">  1       21 0.24790045E-01 0.20250871E+03</pdfrwt>
<pdfrwt beam="2">  1       21 0.10650701E+00 0.20250871E+03</pdfrwt>
<totfact> 0.10792364E+04</totfact>
</mgrwt>
</event>
<event>
 4    1  0.1116135E+000  0.2591855E+03  0.7546771E-02  0.1107634E+00
         21   -1    0    0  503  502  0.00000000000E+00  0.00000000000E+00  0.11999409226E+04  0.11999409226E+04  0.00000000000E+00 0.  1.
         21   -1    0    0  501  503 -0.00000000000E+00 -0.00000000000E+00 -0.86640720472E+02  0.86640720472E+02  0.00000000000E+00 0. -1.
          6    1    1    2  501    0  0.40478056651E+02 -0.18961717627E+03  0.17399173140E+03  0.31217025675E+03  0.17200000000E+03 0. -1.
         -6    1    1    2    0  502 -0.40478056651E+02  0.18961717627E+03  0.93930847070E+03  0.97441138629E+03  0.17200000000E+03 0.  1.
<mgrwt>
<rscale>  2 0.25918554E+03</rscale>
<asrwt>0</asrwt>
<pdfrwt beam="1">  1       21 0.29998518E+00 0.25918554E+03</pdfrwt>
<pdfrwt beam="2">  1       21 0.21660184E-01 0.25918554E+03</pdfrwt>
<totfact> 0.62609742E+02</totfact>
</mgrwt>
</event>
<event>
 4    1  0.1116135E+000  0.1756616E+03  0.7546771E-02  0.1172069E+00
         21   -1    0    0  501  502  0.00000000000E+00  0.00000000000E+00  0.14709557343E+03  0.14709557343E+03  0.00000000000E+00 0.  1.
         21   -1    0    0  502  503 -0.00000000000E+00 -0.00000000000E+00 -0.21635916136E+03  0.21635916136E+03  0.00000000000E+00 0.  1.
          6    1    1    2  501    0 -0.66363659901E+01 -0.35056498383E+02 -0.29304844384E+01  0.17568604717E+03  0.17200000000E+03 0. -1.
         -6    1    1    2    0  503  0.66363659901E+01  0.35056498383E+02 -0.66333103489E+02  0.18776868762E+03  0.17200000000E+03 0. -1.
<mgrwt>
<rscale>  2 0.17566160E+03</rscale>
<asrwt>0</asrwt>
<pdfrwt beam="1">  1       21 0.36773894E-01 0.17566160E+03</pdfrwt>
<pdfrwt beam="2">  1       21 0.54089790E-01 0.17566160E+03</pdfrwt>
<totfact> 0.23272087E+04</totfact>
</mgrwt>
</event>
<event>
 4    1  0.1116135E+000  0.1729266E+03  0.7546771E-02  0.1174830E+00
         21   -1    0    0  501  502  0.00000000000E+00  0.00000000000E+00  0.74208380175E+03  0.74208380175E+03  0.00000000000E+00 0.  1.
         21   -1    0    0  502  503 -0.00000000000E+00 -0.00000000000E+00 -0.56724328120E+02  0.56724328120E+02  0.00000000000E+00 0.  1.
          6    1    1    2  501    0  0.35037422409E+01 -0.17530478598E+02  0.12774131087E+03  0.21499171238E+03  0.17200000000E+03 0.  1.
         -6    1    1    2    0  503 -0.35037422409E+01  0.17530478598E+02  0.55761816276E+03  0.58381641749E+03  0.17200000000E+03 0.  1.
<mgrwt>
<rscale>  2 0.17292656E+03</rscale>
<asrwt>0</asrwt>
<pdfrwt beam="1">  1       21 0.18552092E+00 0.17292656E+03</pdfrwt>
<pdfrwt beam="2">  1       21 0.14181084E-01 0.17292656E+03</pdfrwt>
<totfact> 0.73827839E+03</totfact>
</mgrwt>
</event>
<event>
 4    1  0.1116135E+000  0.2683977E+03  0.7546771E-02  0.1102200E+00
         21   -1    0    0  501  502  0.00000000000E+00  0.00000000000E+00  0.70398488686E+02  0.70398488686E+02  0.00000000000E+00 0. -1.
         21   -1    0    0  502  503 -0.00000000000E+00 -0.00000000000E+00 -0.10238868311E+04  0.10238868311E+04  0.00000000000E+00 0.  1.
          6    1    1    2  501    0  0.18561824914E+03  0.89438124553E+02 -0.49007255732E+03  0.55875613999E+03  0.17200000000E+03 0.  1.
         -6    1    1    2    0  503 -0.18561824914E+03 -0.89438124553E+02 -0.46341578508E+03  0.53552917978E+03  0.17200000000E+03 0. -1.
<mgrwt>
<rscale>  2 0.26839768E+03</rscale>
<asrwt>0</asrwt>
<pdfrwt beam="1">  1       21 0.17599622E-01 0.26839768E+03</pdfrwt>
<pdfrwt beam="2">  1       21 0.25597171E+00 0.26839768E+03</pdfrwt>
<totfact> 0.16634506E+03</totfact>
</mgrwt>
</event>
<event>
 4    1  0.1116135E+000  0.2927132E+03  0.7546771E-02  0.1088941E+00
         21   -1    0    0  503  502  0.00000000000E+00  0.00000000000E+00  0.10553124117E+04  0.10553124117E+04  0.00000000000E+00 0.  1.
         21   -1    0    0  501  503 -0.00000000000E+00 -0.00000000000E+00 -0.85732002168E+02  0.85732002168E+02  0.00000000000E+00 0. -1.
          6    1    1    2  501    0 -0.17377331856E+03 -0.16093421767E+03  0.35347444272E+03  0.45893917932E+03  0.17200000000E+03 0. -1.
         -6    1    1    2    0  502  0.17377331856E+03  0.16093421767E+03  0.61610596682E+03  0.68210523456E+03  0.17200000000E+03 0.  1.
<mgrwt>
<rscale>  2 0.29271315E+03</rscale>
<asrwt>0</asrwt>
<pdfrwt beam="1">  1       21 0.26382806E+00 0.29271315E+03</pdfrwt>
<pdfrwt beam="2">  1       21 0.21433004E-01 0.29271315E+03</pdfrwt>
<totfact> 0.10107925E+03</totfact>
</mgrwt>
</event>
<event>
 4    1  0.1116135E+000  0.2978368E+03  0.7546771E-02  0.1086327E+00
         21   -1    0    0  503  502  0.00000000000E+00  0.00000000000E+00  0.20053266774E+03  0.20053266774E+03  0.00000000000E+00 0. -1.
         21   -1    0    0  501  503 -0.00000000000E+00 -0.00000000000E+00 -0.64458949357E+03  0.64458949357E+03  0.00000000000E+00 0.  1.
          6    1    1    2  501    0  0.23874908544E+03 -0.46061287336E+02 -0.45871560141E+03  0.54692483119E+03  0.17200000000E+03 0.  1.
         -6    1    1    2    0  502 -0.23874908544E+03  0.46061287336E+02  0.14658775588E+02  0.29819733012E+03  0.17200000000E+03 0. -1.
<mgrwt>
<rscale>  2 0.29783681E+03</rscale>
<asrwt>0</asrwt>
<pdfrwt beam="1">  1       21 0.50133167E-01 0.29783681E+03</pdfrwt>
<pdfrwt beam="2">  1       21 0.16114737E+00 0.29783681E+03</pdfrwt>
<totfact> 0.85364940E+02</totfact>
</mgrwt>
</event>
<event>
 4    1  0.1116135E+000  0.1877891E+03  0.7546771E-02  0.1160471E+00
         21   -1    0    0  503  502  0.00000000000E+00  0.00000000000E+00  0.90668992186E+02  0.90668992186E+02  0.00000000000E+00 0. -1.
         21   -1    0    0  501  503 -0.00000000000E+00 -0.00000000000E+00 -0.38934454636E+03  0.38934454636E+03  0.00000000000E+00 0. -1.
          6    1    1    2  501    0 -0.69439304836E+02  0.29307749108E+02 -0.15707806650E+03  0.24482295683E+03  0.17200000000E+03 0. -1.
         -6    1    1    2    0  502  0.69439304836E+02 -0.29307749108E+02 -0.14159748767E+03  0.23519058172E+03  0.17200000000E+03 0. -1.
<mgrwt>
<rscale>  2 0.18778914E+03</rscale>
<asrwt>0</asrwt>
<pdfrwt beam="1">  1       21 0.22667248E-01 0.18778914E+03</pdfrwt>
<pdfrwt beam="2">  1       21 0.97336135E-01 0.18778914E+03</pdfrwt>
<totfact> 0.16013904E+04</totfact>
</mgrwt>
</event>
<event>
 4    1  0.1116135E+000  0.1961663E+03  0.7546771E-02  0.1153014E+00
         21   -1    0    0  503  502  0.00000000000E+00  0.00000000000E+00  0.35122116108E+03  0.35122116108E+03  0.00000000000E+00 0. -1.
         21   -1    0    0  501  503 -0.00000000000E+00 -0.00000000000E+00 -0.19473626074E+03  0.19473626074E+03  0.00000000000E+00 0. -1.
          6    1    1    2  501    0 -0.18112806150E+02 -0.92569601899E+02 -0.10228962850E+03  0.22123375204E+03  0.17200000000E+03 0. -1.
         -6    1    1    2    0  502  0.18112806150E+02  0.92569601899E+02  0.25877452884E+03  0.32472366979E+03  0.17200000000E+03 0. -1.
<mgrwt>
<rscale>  2 0.19616627E+03</rscale>
<asrwt>0</asrwt>
<pdfrwt beam="1">  1       21 0.87805289E-01 0.19616627E+03</pdfrwt>
<pdfrwt beam="2">  1       21 0.48684066E-01 0.19616627E+03</pdfrwt>
<totfact> 0.44673204E+03</totfact>
</mgrwt>
</event>
<event>
 4    1  0.1116135E+000  0.1955587E+03  0.7546771E-02  0.1153541E+00
         21   -1    0    0  501  502  0.00000000000E+00  0.00000000000E+00  0.77786991354E+02  0.77786991354E+02  0.00000000000E+00 0. -1.
         21   -1    0    0  502  503 -0.00000000000E+00 -0.00000000000E+00 -0.88560476383E+03  0.88560476383E+03  0.00000000000E+00 0. -1.
          6    1    1    2  501    0  0.92766822231E+01 -0.92591329547E+02 -0.82630475003E+02  0.21229933241E+03  0.17200000000E+03 0. -1.
         -6    1    1    2    0  503 -0.92766822231E+01  0.92591329547E+02 -0.72518729748E+03  0.75109242278E+03  0.17200000000E+03 0. -1.
<mgrwt>
<rscale>  2 0.19555872E+03</rscale>
<asrwt>0</asrwt>
<pdfrwt beam="1">  1       21 0.19446748E-01 0.19555872E+03</pdfrwt>
<pdfrwt beam="2">  1       21 0.22140119E+00 0.19555872E+03</pdfrwt>
<totfact> 0.23915918E+03</totfact>
</mgrwt>
</event>
<event>
 4    1  0.1116135E+000  0.1884081E+03  0.7546771E-02  0.1159905E+00
         21   -1    0    0  501  502  0.00000000000E+00  0.00000000000E+00  0.12198518900E+04  0.12198518900E+04  0.00000000000E+00 0.  1.
         21   -1    0    0  502  503 -0.00000000000E+00 -0.00000000000E+00 -0.34382477411E+02  0.34382477411E+02  0.00000000000E+00 0.  1.
          6    1    1    2  501    0 -0.76544798425E+02 -0.73824952337E+01  0.83854593951E+03  0.85945151118E+03  0.17200000000E+03 0. -1.
         -6    1    1    2    0  503  0.76544798425E+02  0.73824952337E+01  0.34692347310E+03  0.39478285625E+03  0.17200000000E+03 0. -1.
<mgrwt>
<rscale>  2 0.18840809E+03</rscale>
<asrwt>0</asrwt>
<pdfrwt beam="1">  1       21 0.30496283E+00 0.18840809E+03</pdfrwt>
<pdfrwt beam="2">  1       21 0.85956234E-02 0.18840809E+03</pdfrwt>
<totfact> 0.34016409E+03</totfact>
</mgrwt>
</event>
<event>
 4    1  0.1116135E+000  0.1957356E+03  0.7546771E-02  0.1153388E+00
         21   -1    0    0  503  502  0.00000000000E+00  0.00000000000E+00  0.66325456884E+03  0.66325456884E+03  0.00000000000E+00 0.  1.
         21   -1    0    0  501  503 -0.00000000000E+00 -0.00000000000E+00 -0.92208573857E+02  0.92208573857E+02  0.00000000000E+00 0.  1.
          6    1    1    2  501    0  0.47436276214E+02  0.80487309094E+02  0.54658888024E+02  0.20322401744E+03  0.17200000000E+03 0.  1.
         -6    1    1    2    0  502 -0.47436276214E+02 -0.80487309094E+02  0.51638710696E+03  0.55223912525E+03  0.17200000000E+03 0.  1.
<mgrwt>
<rscale>  2 0.19573555E+03</rscale>
<asrwt>0</asrwt>
<pdfrwt beam="1">  1       21 0.16581363E+00 0.19573555E+03</pdfrwt>
<pdfrwt beam="2">  1       21 0.23052145E-01 0.19573555E+03</pdfrwt>
<totfact> 0.40265609E+03</totfact>
</mgrwt>
</event>
<event>
 4    1  0.1116135E+000  0.1788861E+03  0.7546771E-02  0.1168885E+00
         21   -1    0    0  503  502  0.00000000000E+00  0.00000000000E+00  0.55368275803E+03  0.55368275803E+03  0.00000000000E+00 0.  1.
         21   -1    0    0  501  503 -0.00000000000E+00 -0.00000000000E+00 -0.30897968888E+03  0.30897968888E+03  0.00000000000E+00 0. -1.
          6    1    1    2  501    0  0.48690584618E+02 -0.67434550907E+01 -0.26655234487E+03  0.32101464106E+03  0.17200000000E+03 0. -1.
         -6    1    1    2    0  502 -0.48690584618E+02  0.67434550907E+01  0.51125541402E+03  0.54164780585E+03  0.17200000000E+03 0.  1.
<mgrwt>
<rscale>  2 0.17888613E+03</rscale>
<asrwt>0</asrwt>
<pdfrwt beam="1">  1       21 0.13842069E+00 0.17888613E+03</pdfrwt>
<pdfrwt beam="2">  1       21 0.77244923E-01 0.17888613E+03</pdfrwt>
<totfact> 0.55717782E+02</totfact>
</mgrwt>
</event>
<event>
 4    1  0.1116135E+000  0.1915770E+03  0.7546771E-02  0.1157047E+00
         21   -1    0    0  501  502  0.00000000000E+00  0.00000000000E+00  0.21198919905E+03  0.21198919905E+03  0.00000000000E+00 0.  1.
         21   -1    0    0  502  503 -0.00000000000E+00 -0.00000000000E+00 -0.22802827505E+03  0.22802827505E+03  0.00000000000E+00 0.  1.
          6    1    1    2  501    0  0.84061368235E+02  0.71727392781E+01 -0.11596977172E+03  0.22394363079E+03  0.17200000000E+03 0.  1.
         -6    1    1    2    0  503 -0.84061368235E+02 -0.71727392781E+01  0.99930695718E+02  0.21607384332E+03  0.17200000000E+03 0.  1.
<mgrwt>
<rscale>  2 0.19157704E+03</rscale>
<asrwt>0</asrwt>
<pdfrwt beam="1">  1       21 0.52997300E-01 0.19157704E+03</pdfrwt>
<pdfrwt beam="2">  1       21 0.57007069E-01 0.19157704E+03</pdfrwt>
<totfact> 0.97584306E+03</totfact>
</mgrwt>
</event>
<event>
 4    1  0.1116135E+000  0.1836121E+03  0.7546771E-02  0.1164352E+00
         21   -1    0    0  503  502  0.00000000000E+00  0.00000000000E+00  0.19905702492E+03  0.19905702492E+03  0.00000000000E+00 0.  1.
         21   -1    0    0  501  503 -0.00000000000E+00 -0.00000000000E+00 -0.17656809577E+03  0.17656809577E+03  0.00000000000E+00 0.  1.
          6    1    1    2  501    0 -0.98826677993E+01 -0.63495954598E+02 -0.26688029519E+02  0.18554151636E+03  0.17200000000E+03 0.  1.
         -6    1    1    2    0  502  0.98826677993E+01  0.63495954598E+02  0.49176958662E+02  0.19008360433E+03  0.17200000000E+03 0.  1.
<mgrwt>
<rscale>  2 0.18361210E+03</rscale>
<asrwt>0</asrwt>
<pdfrwt beam="1">  1       21 0.49764256E-01 0.18361210E+03</pdfrwt>
<pdfrwt beam="2">  1       21 0.44142024E-01 0.18361210E+03</pdfrwt>
<totfact> 0.19072334E+04</totfact>
</mgrwt>
</event>
<event>
 4    1  0.1116135E+000  0.1760855E+03  0.7546771E-02  0.1171646E+00
         21   -1    0    0  501  502  0.00000000000E+00  0.00000000000E+00  0.25103818285E+03  0.25103818285E+03  0.00000000000E+00 0.  1.
         21   -1    0    0  502  503 -0.00000000000E+00 -0.00000000000E+00 -0.15001206538E+03  0.15001206538E+03  0.00000000000E+00 0.  1.
          6    1    1    2  501    0  0.34762776731E+02  0.14617160881E+02  0.13479469484E+03  0.22175599607E+03  0.17200000000E+03 0.  1.
         -6    1    1    2    0  503 -0.34762776731E+02 -0.14617160881E+02 -0.33768577364E+02  0.17929425215E+03  0.17200000000E+03 0.  1.
<mgrwt>
<rscale>  2 0.17608552E+03</rscale>
<asrwt>0</asrwt>
<pdfrwt beam="1">  1       21 0.62759545E-01 0.17608552E+03</pdfrwt>
<pdfrwt beam="2">  1       21 0.37503017E-01 0.17608552E+03</pdfrwt>
<totfact> 0.16296719E+04</totfact>
</mgrwt>
</event>
<event>
 4    1  0.1116135E+000  0.2242014E+03  0.7546771E-02  0.1130789E+00
         21   -1    0    0  503  502  0.00000000000E+00  0.00000000000E+00  0.26015145242E+03  0.26015145242E+03  0.00000000000E+00 0. -1.
         21   -1    0    0  501  503 -0.00000000000E+00 -0.00000000000E+00 -0.19898374400E+03  0.19898374400E+03  0.00000000000E+00 0. -1.
          6    1    1    2  501    0  0.86293073096E+02 -0.11504690021E+03 -0.84894544298E+01  0.22436210586E+03  0.17200000000E+03 0. -1.
         -6    1    1    2    0  502 -0.86293073096E+02  0.11504690021E+03  0.69657162854E+02  0.23477309055E+03  0.17200000000E+03 0. -1.
<mgrwt>
<rscale>  2 0.22420144E+03</rscale>
<asrwt>0</asrwt>
<pdfrwt beam="1">  1       21 0.65037863E-01 0.22420144E+03</pdfrwt>
<pdfrwt beam="2">  1       21 0.49745936E-01 0.22420144E+03</pdfrwt>
<totfact> 0.82036012E+03</totfact>
</mgrwt>
</event>
<event>
 4    1  0.1116135E+000  0.2029151E+03  0.7546771E-02  0.1147303E+00
         21   -1    0    0  501  502  0.00000000000E+00  0.00000000000E+00  0.71162777894E+02  0.71162777894E+02  0.00000000000E+00 0. -1.
         21   -1    0    0  502  503 -0.00000000000E+00 -0.00000000000E+00 -0.59844729278E+03  0.59844729278E+03  0.00000000000E+00 0. -1.
          6    1    1    2  501    0 -0.35201810240E+02  0.10174161323E+03 -0.20266475488E+03  0.28678829505E+03  0.17200000000E+03 0. -1.
         -6    1    1    2    0  503  0.35201810240E+02 -0.10174161323E+03 -0.32461976000E+03  0.38282177562E+03  0.17200000000E+03 0. -1.
<mgrwt>
<rscale>  2 0.20291506E+03</rscale>
<asrwt>0</asrwt>
<pdfrwt beam="1">  1       21 0.17790695E-01 0.20291506E+03</pdfrwt>
<pdfrwt beam="2">  1       21 0.14961182E+00 0.20291506E+03</pdfrwt>
<totfact> 0.85656608E+03</totfact>
</mgrwt>
</event>
<event>
 4    1  0.1116135E+000  0.1758559E+03  0.7546771E-02  0.1171875E+00
         21   -1    0    0  503  502  0.00000000000E+00  0.00000000000E+00  0.68453321873E+03  0.68453321873E+03  0.00000000000E+00 0.  1.
         21   -1    0    0  501  503 -0.00000000000E+00 -0.00000000000E+00 -0.12199373224E+03  0.12199373224E+03  0.00000000000E+00 0.  1.
          6    1    1    2  501    0 -0.26391771065E+02  0.25392410459E+02 -0.38728396688E+02  0.18006995529E+03  0.17200000000E+03 0.  1.
         -6    1    1    2    0  502  0.26391771065E+02 -0.25392410459E+02  0.60126788318E+03  0.62645699568E+03  0.17200000000E+03 0.  1.
<mgrwt>
<rscale>  2 0.17585591E+03</rscale>
<asrwt>0</asrwt>
<pdfrwt beam="1">  1       21 0.17113329E+00 0.17585591E+03</pdfrwt>
<pdfrwt beam="2">  1       21 0.30498435E-01 0.17585591E+03</pdfrwt>
<totfact> 0.21990879E+03</totfact>
</mgrwt>
</event>
<event>
 4    1  0.1116135E+000  0.1801506E+03  0.7546771E-02  0.1167657E+00
         21   -1    0    0  501  502  0.00000000000E+00  0.00000000000E+00  0.60028351876E+02  0.60028351876E+02  0.00000000000E+00 0.  1.
         21   -1    0    0  502  503 -0.00000000000E+00 -0.00000000000E+00 -0.55815277423E+03  0.55815277423E+03  0.00000000000E+00 0.  1.
          6    1    1    2  501    0  0.20662104047E+02 -0.49429783187E+02 -0.19432485508E+03  0.26498372650E+03  0.17200000000E+03 0.  1.
         -6    1    1    2    0  503 -0.20662104047E+02  0.49429783187E+02 -0.30379956727E+03  0.35319739960E+03  0.17200000000E+03 0.  1.
<mgrwt>
<rscale>  2 0.18015056E+03</rscale>
<asrwt>0</asrwt>
<pdfrwt beam="1">  1       21 0.15007088E-01 0.18015056E+03</pdfrwt>
<pdfrwt beam="2">  1       21 0.13953819E+00 0.18015056E+03</pdfrwt>
<totfact> 0.14270633E+04</totfact>
</mgrwt>
</event>
<event>
 4    1  0.1116135E+000  0.2453574E+03  0.7546771E-02  0.1116275E+00
         21   -1    0    0  501  502  0.00000000000E+00  0.00000000000E+00  0.11011274243E+04  0.11011274243E+04  0.00000000000E+00 0. -1.
         21   -1    0    0  502  503 -0.00000000000E+00 -0.00000000000E+00 -0.14190573665E+03  0.14190573665E+03  0.00000000000E+00 0.  1.
          6    1    1    2  501    0 -0.10047285780E+03  0.14325305857E+03  0.96691077204E+03  0.99755534936E+03  0.17200000000E+03 0. -1.
         -6    1    1    2    0  503  0.10047285780E+03 -0.14325305857E+03 -0.76890844325E+01  0.24547781155E+03  0.17200000000E+03 0.  1.
<mgrwt>
<rscale>  2 0.24535736E+03</rscale>
<asrwt>0</asrwt>
<pdfrwt beam="1">  1       21 0.27528183E+00 0.24535736E+03</pdfrwt>
<pdfrwt beam="2">  1       21 0.35476437E-01 0.24535736E+03</pdfrwt>
<totfact> 0.33946218E+02</totfact>
</mgrwt>
</event>
<event>
 4    1  0.1116135E+000  0.1984363E+03  0.7546771E-02  0.1151065E+00
         21   -1    0    0  503  502  0.00000000000E+00  0.00000000000E+00  0.94262248668E+02  0.94262248668E+02  0.00000000000E+00 0.  1.
         21   -1    0    0  501  503 -0.00000000000E+00 -0.00000000000E+00 -0.48390739484E+03  0.48390739484E+03  0.00000000000E+00 0.  1.
          6    1    1    2  501    0  0.54094295827E+02  0.82866081779E+02 -0.30172086193E+03  0.36112665212E+03  0.17200000000E+03 0.  1.
         -6    1    1    2    0  502 -0.54094295827E+02 -0.82866081779E+02 -0.87924284246E+02  0.21704299139E+03  0.17200000000E+03 0.  1.
<mgrwt>
<rscale>  2 0.19843634E+03</rscale>
<asrwt>0</asrwt>
<pdfrwt beam="1">  1       21 0.23565562E-01 0.19843634E+03</pdfrwt>
<pdfrwt beam="2">  1       21 0.12097685E+00 0.19843634E+03</pdfrwt>
<totfact> 0.87353065E+03</totfact>
</mgrwt>
</event>
<event>
 4    1  0.1116135E+000  0.2035954E+03  0.7546771E-02  0.1146740E+00
         21   -1    0    0  503  502  0.00000000000E+00  0.00000000000E+00  0.75983264188E+02  0.75983264188E+02  0.00000000000E+00 0. -1.
         21   -1    0    0  501  503 -0.00000000000E+00 -0.00000000000E+00 -0.59645907168E+03  0.59645907168E+03  0.00000000000E+00 0.  1.
          6    1    1    2  501    0  0.10569112971E+03  0.26391099732E+02 -0.16199071388E+03  0.26017704824E+03  0.17200000000E+03 0. -1.
         -6    1    1    2    0  502 -0.10569112971E+03 -0.26391099732E+02 -0.35848509361E+03  0.41226528763E+03  0.17200000000E+03 0.  1.
<mgrwt>
<rscale>  2 0.20359544E+03</rscale>
<asrwt>0</asrwt>
<pdfrwt beam="1">  1       21 0.18995816E-01 0.20359544E+03</pdfrwt>
<pdfrwt beam="2">  1       21 0.14911476E+00 0.20359544E+03</pdfrwt>
<totfact> 0.76478706E+03</totfact>
</mgrwt>
</event>
<event>
 4    1  0.1116135E+000  0.2149618E+03  0.7546771E-02  0.1137696E+00
         21   -1    0    0  503  502  0.00000000000E+00  0.00000000000E+00  0.10479967679E+03  0.10479967679E+03  0.00000000000E+00 0. -1.
         21   -1    0    0  501  503 -0.00000000000E+00 -0.00000000000E+00 -0.72274495301E+03  0.72274495301E+03  0.00000000000E+00 0.  1.
          6    1    1    2  501    0  0.12817925842E+03  0.13951807376E+02 -0.56735115352E+03  0.60670907906E+03  0.17200000000E+03 0.  1.
         -6    1    1    2    0  502 -0.12817925842E+03 -0.13951807376E+02 -0.50594122710E+02  0.22083555074E+03  0.17200000000E+03 0. -1.
<mgrwt>
<rscale>  2 0.21496180E+03</rscale>
<asrwt>0</asrwt>
<pdfrwt beam="1">  1       21 0.26199920E-01 0.21496180E+03</pdfrwt>
<pdfrwt beam="2">  1       21 0.18068623E+00 0.21496180E+03</pdfrwt>
<totfact> 0.24405771E+03</totfact>
</mgrwt>
</event>
<event>
 4    1  0.1116135E+000  0.2009455E+03  0.7546771E-02  0.1148944E+00
         21   -1    0    0  501  502  0.00000000000E+00  0.00000000000E+00  0.42013280277E+03  0.42013280277E+03  0.00000000000E+00 0. -1.
         21   -1    0    0  502  503 -0.00000000000E+00 -0.00000000000E+00 -0.45501410406E+03  0.45501410406E+03  0.00000000000E+00 0. -1.
          6    1    1    2  501    0  0.52937199960E+02  0.89402159493E+02  0.37118151067E+03  0.42208388636E+03  0.17200000000E+03 0. -1.
         -6    1    1    2    0  503 -0.52937199960E+02 -0.89402159493E+02 -0.40606281196E+03  0.45306302047E+03  0.17200000000E+03 0. -1.
<mgrwt>
<rscale>  2 0.20094550E+03</rscale>
<asrwt>0</asrwt>
<pdfrwt beam="1">  1       21 0.10503320E+00 0.20094550E+03</pdfrwt>
<pdfrwt beam="2">  1       21 0.11375353E+00 0.20094550E+03</pdfrwt>
<totfact> 0.43543065E+02</totfact>
</mgrwt>
</event>
<event>
 4    1  0.1116135E+000  0.1836806E+03  0.7546771E-02  0.1164288E+00
         21   -1    0    0  503  502  0.00000000000E+00  0.00000000000E+00  0.56300577192E+03  0.56300577192E+03  0.00000000000E+00 0. -1.
         21   -1    0    0  501  503 -0.00000000000E+00 -0.00000000000E+00 -0.63219617756E+02  0.63219617756E+02  0.00000000000E+00 0. -1.
          6    1    1    2  501    0 -0.62949631040E+02 -0.13852824700E+02  0.32136347872E+03  0.37015272828E+03  0.17200000000E+03 0.  1.
         -6    1    1    2    0  502  0.62949631040E+02  0.13852824700E+02  0.17842267544E+03  0.25607266139E+03  0.17200000000E+03 0.  1.
<mgrwt>
<rscale>  2 0.18368058E+03</rscale>
<asrwt>0</asrwt>
<pdfrwt beam="1">  1       21 0.14075143E+00 0.18368058E+03</pdfrwt>
<pdfrwt beam="2">  1       21 0.15804906E-01 0.18368058E+03</pdfrwt>
<totfact> 0.12666041E+04</totfact>
</mgrwt>
</event>
<event>
 4    1  0.1116135E+000  0.2526810E+03  0.7546771E-02  0.1111622E+00
         21   -1    0    0  503  502  0.00000000000E+00  0.00000000000E+00  0.50819129191E+02  0.50819129191E+02  0.00000000000E+00 0.  1.
         21   -1    0    0  501  503 -0.00000000000E+00 -0.00000000000E+00 -0.13804763924E+04  0.13804763924E+04  0.00000000000E+00 0. -1.
          6    1    1    2  501    0  0.71421404289E+02 -0.17077087919E+03 -0.87940362979E+03  0.91498549402E+03  0.17200000000E+03 0. -1.
         -6    1    1    2    0  502 -0.71421404289E+02  0.17077087919E+03 -0.45025363343E+03  0.51631002758E+03  0.17200000000E+03 0.  1.
<mgrwt>
<rscale>  2 0.25268104E+03</rscale>
<asrwt>0</asrwt>
<pdfrwt beam="1">  1       21 0.12704783E-01 0.25268104E+03</pdfrwt>
<pdfrwt beam="2">  1       21 0.34511909E+00 0.25268104E+03</pdfrwt>
<totfact> 0.91700846E+02</totfact>
</mgrwt>
</event>
<event>
 4    1  0.1116135E+000  0.2377594E+03  0.7546771E-02  0.1121294E+00
         21   -1    0    0  501  502  0.00000000000E+00  0.00000000000E+00  0.15419406933E+04  0.15419406933E+04  0.00000000000E+00 0.  1.
         21   -1    0    0  502  503 -0.00000000000E+00 -0.00000000000E+00 -0.84911040098E+02  0.84911040098E+02  0.00000000000E+00 0. -1.
          6    1    1    2  501    0  0.15635955996E+03 -0.49972287482E+02  0.13416883773E+04  0.13625921046E+04  0.17200000000E+03 0.  1.
         -6    1    1    2    0  503 -0.15635955996E+03  0.49972287482E+02  0.11534127582E+03  0.26425962880E+03  0.17200000000E+03 0. -1.
<mgrwt>
<rscale>  2 0.23775942E+03</rscale>
<asrwt>0</asrwt>
<pdfrwt beam="1">  1       21 0.38548508E+00 0.23775942E+03</pdfrwt>
<pdfrwt beam="2">  1       21 0.21227765E-01 0.23775942E+03</pdfrwt>
<totfact> 0.20613728E+02</totfact>
</mgrwt>
</event>
<event>
 4    1  0.1116135E+000  0.1839942E+03  0.7546771E-02  0.1163992E+00
         21   -1    0    0  503  502  0.00000000000E+00  0.00000000000E+00  0.29082140417E+03  0.29082140417E+03  0.00000000000E+00 0.  1.
         21   -1    0    0  501  503 -0.00000000000E+00 -0.00000000000E+00 -0.12141059566E+03  0.12141059566E+03  0.00000000000E+00 0.  1.
          6    1    1    2  501    0 -0.33591192648E+02  0.56049178223E+02  0.42865567708E+02  0.18892150618E+03  0.17200000000E+03 0.  1.
         -6    1    1    2    0  502  0.33591192648E+02 -0.56049178223E+02  0.12654524081E+03  0.22331049365E+03  0.17200000000E+03 0.  1.
<mgrwt>
<rscale>  2 0.18399424E+03</rscale>
<asrwt>0</asrwt>
<pdfrwt beam="1">  1       21 0.72705350E-01 0.18399424E+03</pdfrwt>
<pdfrwt beam="2">  1       21 0.30352649E-01 0.18399424E+03</pdfrwt>
<totfact> 0.17841470E+04</totfact>
</mgrwt>
</event>
<event>
 4    1  0.1116135E+000  0.4077618E+03  0.7546771E-02  0.1041125E+00
         21   -1    0    0  501  502  0.00000000000E+00  0.00000000000E+00  0.81395304925E+03  0.81395304925E+03  0.00000000000E+00 0. -1.
         21   -1    0    0  502  503 -0.00000000000E+00 -0.00000000000E+00 -0.54319772385E+03  0.54319772385E+03  0.00000000000E+00 0. -1.
          6    1    1    2  501    0  0.18889171748E+03  0.31781385117E+03  0.67138396556E+03  0.78551012352E+03  0.17200000000E+03 0. -1.
         -6    1    1    2    0  503 -0.18889171748E+03 -0.31781385117E+03 -0.40062864016E+03  0.57164064958E+03  0.17200000000E+03 0. -1.
<mgrwt>
<rscale>  2 0.40776185E+03</rscale>
<asrwt>0</asrwt>
<pdfrwt beam="1">  1       21 0.20348826E+00 0.40776185E+03</pdfrwt>
<pdfrwt beam="2">  1       21 0.13579943E+00 0.40776185E+03</pdfrwt>
<totfact> 0.39414012E+01</totfact>
</mgrwt>
</event>
<event>
 4    1  0.1116135E+000  0.2351255E+03  0.7546771E-02  0.1123083E+00
         21   -1    0    0  503  502  0.00000000000E+00  0.00000000000E+00  0.47716107005E+03  0.47716107005E+03  0.00000000000E+00 0.  1.
         21   -1    0    0  501  503 -0.00000000000E+00 -0.00000000000E+00 -0.13886009986E+03  0.13886009986E+03  0.00000000000E+00 0.  1.
          6    1    1    2  501    0  0.41592147930E+02 -0.15482281732E+03  0.43796197139E+02  0.23916964360E+03  0.17200000000E+03 0.  1.
         -6    1    1    2    0  502 -0.41592147930E+02  0.15482281732E+03  0.29450477305E+03  0.37685152631E+03  0.17200000000E+03 0.  1.
<mgrwt>
<rscale>  2 0.23512552E+03</rscale>
<asrwt>0</asrwt>
<pdfrwt beam="1">  1       21 0.11929026E+00 0.23512552E+03</pdfrwt>
<pdfrwt beam="2">  1       21 0.34715026E-01 0.23512552E+03</pdfrwt>
<totfact> 0.41477017E+03</totfact>
</mgrwt>
</event>
<event>
 4    1  0.1116135E+000  0.1821668E+03  0.7546771E-02  0.1165722E+00
         21   -1    0    0  501  502  0.00000000000E+00  0.00000000000E+00  0.76549832498E+02  0.76549832498E+02  0.00000000000E+00 0.  1.
         21   -1    0    0  502  503 -0.00000000000E+00 -0.00000000000E+00 -0.43669885293E+03  0.43669885293E+03  0.00000000000E+00 0.  1.
          6    1    1    2  501    0 -0.46963736166E+01  0.59822191374E+02 -0.20202027048E+03  0.27202378608E+03  0.17200000000E+03 0.  1.
         -6    1    1    2    0  503  0.46963736166E+01 -0.59822191374E+02 -0.15812874995E+03  0.24122489935E+03  0.17200000000E+03 0.  1.
<mgrwt>
<rscale>  2 0.18216682E+03</rscale>
<asrwt>0</asrwt>
<pdfrwt beam="1">  1       21 0.19137459E-01 0.18216682E+03</pdfrwt>
<pdfrwt beam="2">  1       21 0.10917471E+00 0.18216682E+03</pdfrwt>
<totfact> 0.16781344E+04</totfact>
</mgrwt>
</event>
<event>
 4    1  0.1116135E+000  0.2224864E+03  0.7546771E-02  0.1132043E+00
         21   -1    0    0  501  502  0.00000000000E+00  0.00000000000E+00  0.96520469214E+03  0.96520469214E+03  0.00000000000E+00 0. -1.
         21   -1    0    0  502  503 -0.00000000000E+00 -0.00000000000E+00 -0.54703174760E+02  0.54703174760E+02  0.00000000000E+00 0. -1.
          6    1    1    2  501    0  0.91425733384E+02 -0.10750587591E+03  0.32777004442E+03  0.39614817948E+03  0.17200000000E+03 0. -1.
         -6    1    1    2    0  503 -0.91425733384E+02  0.10750587591E+03  0.58273147296E+03  0.62375968743E+03  0.17200000000E+03 0. -1.
<mgrwt>
<rscale>  2 0.22248635E+03</rscale>
<asrwt>0</asrwt>
<pdfrwt beam="1">  1       21 0.24130112E+00 0.22248635E+03</pdfrwt>
<pdfrwt beam="2">  1       21 0.13675797E-01 0.22248635E+03</pdfrwt>
<totfact> 0.33691037E+03</totfact>
</mgrwt>
</event>
<event>
 4    1  0.1116135E+000  0.1797802E+03  0.7546771E-02  0.1168016E+00
         21   -1    0    0  503  502  0.00000000000E+00  0.00000000000E+00  0.45338131994E+02  0.45338131994E+02  0.00000000000E+00 0.  1.
         21   -1    0    0  501  503 -0.00000000000E+00 -0.00000000000E+00 -0.76904512505E+03  0.76904512505E+03  0.00000000000E+00 0.  1.
          6    1    1    2  501    0 -0.89235458624E+01 -0.51548835650E+02 -0.47188922671E+03  0.50497559784E+03  0.17200000000E+03 0. -1.
         -6    1    1    2    0  502  0.89235458624E+01  0.51548835650E+02 -0.25181776635E+03  0.30940765921E+03  0.17200000000E+03 0. -1.
<mgrwt>
<rscale>  2 0.17978018E+03</rscale>
<asrwt>0</asrwt>
<pdfrwt beam="1">  1       21 0.11334533E-01 0.17978018E+03</pdfrwt>
<pdfrwt beam="2">  1       21 0.19226128E+00 0.17978018E+03</pdfrwt>
<totfact> 0.99005051E+03</totfact>
</mgrwt>
</event>
<event>
 4    1  0.1116135E+000  0.1928490E+03  0.7546771E-02  0.1155917E+00
         21   -1    0    0  501  502  0.00000000000E+00  0.00000000000E+00  0.12998657689E+04  0.12998657689E+04  0.00000000000E+00 0. -1.
         21   -1    0    0  502  503 -0.00000000000E+00 -0.00000000000E+00 -0.28643493112E+02  0.28643493112E+02  0.00000000000E+00 0. -1.
          6    1    1    2  501    0  0.55168358796E+02 -0.67551425552E+02  0.61331367922E+03  0.64291866672E+03  0.17200000000E+03 0. -1.
         -6    1    1    2    0  503 -0.55168358796E+02  0.67551425552E+02  0.65790859656E+03  0.68559059528E+03  0.17200000000E+03 0. -1.
<mgrwt>
<rscale>  2 0.19284902E+03</rscale>
<asrwt>0</asrwt>
<pdfrwt beam="1">  1       21 0.32496624E+00 0.19284902E+03</pdfrwt>
<pdfrwt beam="2">  1       21 0.71608776E-02 0.19284902E+03</pdfrwt>
<totfact> 0.35615129E+03</totfact>
</mgrwt>
</event>
<event>
 4    1  0.1116135E+000  0.2132175E+03  0.7546771E-02  0.1139043E+00
         21   -1    0    0  501  502  0.00000000000E+00  0.00000000000E+00  0.18205634306E+03  0.18205634306E+03  0.00000000000E+00 0. -1.
         21   -1    0    0  502  503 -0.00000000000E+00 -0.00000000000E+00 -0.36790024773E+03  0.36790024773E+03  0.00000000000E+00 0. -1.
          6    1    1    2  501    0  0.80439820894E+02  0.96990369335E+02  0.62932813978E+02  0.22231112344E+03  0.17200000000E+03 0. -1.
         -6    1    1    2    0  503 -0.80439820894E+02 -0.96990369335E+02 -0.24877671865E+03  0.32764546735E+03  0.17200000000E+03 0. -1.
<mgrwt>
<rscale>  2 0.21321749E+03</rscale>
<asrwt>0</asrwt>
<pdfrwt beam="1">  1       21 0.45514086E-01 0.21321749E+03</pdfrwt>
<pdfrwt beam="2">  1       21 0.91975061E-01 0.21321749E+03</pdfrwt>
<totfact> 0.45508722E+03</totfact>
</mgrwt>
</event>
<event>
 4    1  0.1116135E+000  0.3044622E+03  0.7546771E-02  0.1083031E+00
         21   -1    0    0  503  502  0.00000000000E+00  0.00000000000E+00  0.28318533204E+03  0.28318533204E+03  0.00000000000E+00 0.  1.
         21   -1    0    0  501  503 -0.00000000000E+00 -0.00000000000E+00 -0.33721197900E+03  0.33721197900E+03  0.00000000000E+00 0.  1.
          6    1    1    2  501    0 -0.32712941912E+01 -0.25120219775E+03 -0.80094472433E+02  0.31482117152E+03  0.17200000000E+03 0.  1.
         -6    1    1    2    0  502  0.32712941912E+01  0.25120219775E+03  0.26067825474E+02  0.30557613953E+03  0.17200000000E+03 0.  1.
<mgrwt>
<rscale>  2 0.30446222E+03</rscale>
<asrwt>0</asrwt>
<pdfrwt beam="1">  1       21 0.70796333E-01 0.30446222E+03</pdfrwt>
<pdfrwt beam="2">  1       21 0.84302995E-01 0.30446222E+03</pdfrwt>
<totfact> 0.20355550E+03</totfact>
</mgrwt>
</event>
<event>
 4    1  0.1116135E+000  0.1811217E+03  0.7546771E-02  0.1166722E+00
         21   -1    0    0  503  502  0.00000000000E+00  0.00000000000E+00  0.70064264620E+03  0.70064264620E+03  0.00000000000E+00 0.  1.
         21   -1    0    0  501  503 -0.00000000000E+00 -0.00000000000E+00 -0.67154498057E+02  0.67154498057E+02  0.00000000000E+00 0.  1.
          6    1    1    2  501    0 -0.11149057819E+02 -0.55648568743E+02  0.10550181885E+03  0.20960844084E+03  0.17200000000E+03 0.  1.
         -6    1    1    2    0  502  0.11149057819E+02  0.55648568743E+02  0.52798632930E+03  0.55818870342E+03  0.17200000000E+03 0.  1.
<mgrwt>
<rscale>  2 0.18112168E+03</rscale>
<asrwt>0</asrwt>
<pdfrwt beam="1">  1       21 0.17516064E+00 0.18112168E+03</pdfrwt>
<pdfrwt beam="2">  1       21 0.16788627E-01 0.18112168E+03</pdfrwt>
<totfact> 0.63334128E+03</totfact>
</mgrwt>
</event>
<event>
 4    1  0.1116135E+000  0.2479242E+03  0.7546771E-02  0.1114624E+00
         21   -1    0    0  503  502  0.00000000000E+00  0.00000000000E+00  0.23230077972E+03  0.23230077972E+03  0.00000000000E+00 0.  1.
         21   -1    0    0  501  503 -0.00000000000E+00 -0.00000000000E+00 -0.55399644271E+03  0.55399644271E+03  0.00000000000E+00 0.  1.
          6    1    1    2  501    0  0.17030863347E+03  0.53641107362E+02 -0.44500008392E+03  0.50940305626E+03  0.17200000000E+03 0.  1.
         -6    1    1    2    0  502 -0.17030863347E+03 -0.53641107362E+02  0.12330442094E+03  0.27689416617E+03  0.17200000000E+03 0.  1.
<mgrwt>
<rscale>  2 0.24792418E+03</rscale>
<asrwt>0</asrwt>
<pdfrwt beam="1">  1       21 0.58075196E-01 0.24792418E+03</pdfrwt>
<pdfrwt beam="2">  1       21 0.13849911E+00 0.24792418E+03</pdfrwt>
<totfact> 0.97113048E+02</totfact>
</mgrwt>
</event>
<event>
 4    1  0.1116135E+000  0.1869038E+03  0.7546771E-02  0.1161284E+00
         21   -1    0    0  503  502  0.00000000000E+00  0.00000000000E+00  0.26833572351E+03  0.26833572351E+03  0.00000000000E+00 0.  1.
         21   -1    0    0  501  503 -0.00000000000E+00 -0.00000000000E+00 -0.13142930806E+03  0.13142930806E+03  0.00000000000E+00 0. -1.
          6    1    1    2  501    0  0.40327020787E+02 -0.61014436635E+02  0.87909457442E+02  0.20654564336E+03  0.17200000000E+03 0. -1.
         -6    1    1    2    0  502 -0.40327020787E+02  0.61014436635E+02  0.48996958009E+02  0.19321938820E+03  0.17200000000E+03 0. -1.
<mgrwt>
<rscale>  2 0.18690380E+03</rscale>
<asrwt>0</asrwt>
<pdfrwt beam="1">  1       21 0.67083930E-01 0.18690380E+03</pdfrwt>
<pdfrwt beam="2">  1       21 0.32857327E-01 0.18690380E+03</pdfrwt>
<totfact> 0.18203396E+04</totfact>
</mgrwt>
</event>
<event>
 4    1  0.1116135E+000  0.1735981E+03  0.7546771E-02  0.1174147E+00
         21   -1    0    0  503  502  0.00000000000E+00  0.00000000000E+00  0.10932214861E+03  0.10932214861E+03  0.00000000000E+00 0.  1.
         21   -1    0    0  501  503 -0.00000000000E+00 -0.00000000000E+00 -0.36307704779E+03  0.36307704779E+03  0.00000000000E+00 0.  1.
          6    1    1    2  501    0 -0.29689876736E+01 -0.23312448036E+02 -0.24277266768E+03  0.29845410584E+03  0.17200000000E+03 0.  1.
         -6    1    1    2    0  502  0.29689876736E+01  0.23312448036E+02 -0.10982231506E+02  0.17394509056E+03  0.17200000000E+03 0.  1.
<mgrwt>
<rscale>  2 0.17359806E+03</rscale>
<asrwt>0</asrwt>
<pdfrwt beam="1">  1       21 0.27330538E-01 0.17359806E+03</pdfrwt>
<pdfrwt beam="2">  1       21 0.90769261E-01 0.17359806E+03</pdfrwt>
<totfact> 0.13321006E+04</totfact>
</mgrwt>
</event>
<event>
 4    1  0.1116135E+000  0.1922301E+03  0.7546771E-02  0.1156465E+00
         21   -1    0    0  503  502  0.00000000000E+00  0.00000000000E+00  0.19708526535E+03  0.19708526535E+03  0.00000000000E+00 0. -1.
         21   -1    0    0  501  503 -0.00000000000E+00 -0.00000000000E+00 -0.25116174324E+03  0.25116174324E+03  0.00000000000E+00 0. -1.
          6    1    1    2  501    0 -0.12028256966E+02  0.84992436260E+02 -0.13987974073E+03  0.23773669269E+03  0.17200000000E+03 0. -1.
         -6    1    1    2    0  502  0.12028256966E+02 -0.84992436260E+02  0.85803262841E+02  0.21051031590E+03  0.17200000000E+03 0. -1.
<mgrwt>
<rscale>  2 0.19223005E+03</rscale>
<asrwt>0</asrwt>
<pdfrwt beam="1">  1       21 0.49271317E-01 0.19223005E+03</pdfrwt>
<pdfrwt beam="2">  1       21 0.62790435E-01 0.19223005E+03</pdfrwt>
<totfact> 0.92332489E+03</totfact>
</mgrwt>
</event>
<event>
 4    1  0.1116135E+000  0.1999932E+03  0.7546771E-02  0.1149745E+00
         21   -1    0    0  503  502  0.00000000000E+00  0.00000000000E+00  0.65797035054E+03  0.65797035054E+03  0.00000000000E+00 0.  1.
         21   -1    0    0  501  503 -0.00000000000E+00 -0.00000000000E+00 -0.75964104138E+02  0.75964104138E+02  0.00000000000E+00 0. -1.
          6    1    1    2  501    0  0.87300634583E+02 -0.52838423301E+02  0.12698561404E+03  0.23690218646E+03  0.17200000000E+03 0. -1.
         -6    1    1    2    0  502 -0.87300634583E+02  0.52838423301E+02  0.45502063236E+03  0.49703226822E+03  0.17200000000E+03 0.  1.
<mgrwt>
<rscale>  2 0.19999325E+03</rscale>
<asrwt>0</asrwt>
<pdfrwt beam="1">  1       21 0.16449257E+00 0.19999325E+03</pdfrwt>
<pdfrwt beam="2">  1       21 0.18991028E-01 0.19999325E+03</pdfrwt>
<totfact> 0.58992067E+03</totfact>
</mgrwt>
</event>
<event>
 4    1  0.1116135E+000  0.2371664E+03  0.7546771E-02  0.1121695E+00
         21   -1    0    0  503  502  0.00000000000E+00  0.00000000000E+00  0.38568217077E+03  0.38568217077E+03  0.00000000000E+00 0.  1.
         21   -1    0    0  501  503 -0.00000000000E+00 -0.00000000000E+00 -0.22583585267E+03  0.22583585267E+03  0.00000000000E+00 0. -1.
          6    1    1    2  501    0 -0.13369457730E+03 -0.93753245200E+02 -0.10205379598E+03  0.25819157278E+03  0.17200000000E+03 0.  1.
         -6    1    1    2    0  502  0.13369457730E+03  0.93753245200E+02  0.26190011407E+03  0.35332645066E+03  0.17200000000E+03 0. -1.
<mgrwt>
<rscale>  2 0.23716642E+03</rscale>
<asrwt>0</asrwt>
<pdfrwt beam="1">  1       21 0.96420542E-01 0.23716642E+03</pdfrwt>
<pdfrwt beam="2">  1       21 0.56458964E-01 0.23716642E+03</pdfrwt>
<totfact> 0.25462724E+03</totfact>
</mgrwt>
</event>
<event>
 4    1  0.1116135E+000  0.1755688E+03  0.7546771E-02  0.1172162E+00
         21   -1    0    0  503  502  0.00000000000E+00  0.00000000000E+00  0.16890992854E+03  0.16890992854E+03  0.00000000000E+00 0. -1.
         21   -1    0    0  501  503 -0.00000000000E+00 -0.00000000000E+00 -0.18324058886E+03  0.18324058886E+03  0.00000000000E+00 0. -1.
          6    1    1    2  501    0 -0.34229899277E+02  0.82903656098E+01 -0.18432487648E+02  0.17653377231E+03  0.17200000000E+03 0. -1.
         -6    1    1    2    0  502  0.34229899277E+02 -0.82903656098E+01  0.41018273245E+01  0.17561674508E+03  0.17200000000E+03 0. -1.
<mgrwt>
<rscale>  2 0.17556884E+03</rscale>
<asrwt>0</asrwt>
<pdfrwt beam="1">  1       21 0.42227482E-01 0.17556884E+03</pdfrwt>
<pdfrwt beam="2">  1       21 0.45810147E-01 0.17556884E+03</pdfrwt>
<totfact> 0.24893082E+04</totfact>
</mgrwt>
</event>
<event>
 4    1  0.1116135E+000  0.1968416E+03  0.7546771E-02  0.1152431E+00
         21   -1    0    0  503  502  0.00000000000E+00  0.00000000000E+00  0.30382908397E+03  0.30382908397E+03  0.00000000000E+00 0. -1.
         21   -1    0    0  501  503 -0.00000000000E+00 -0.00000000000E+00 -0.32389543691E+03  0.32389543691E+03  0.00000000000E+00 0.  1.
          6    1    1    2  501    0  0.21072559879E+02  0.93373311435E+02 -0.25441659584E+03  0.32167441973E+03  0.17200000000E+03 0.  1.
         -6    1    1    2    0  502 -0.21072559879E+02 -0.93373311435E+02  0.23435024290E+03  0.30605010115E+03  0.17200000000E+03 0. -1.
<mgrwt>
<rscale>  2 0.19684163E+03</rscale>
<asrwt>0</asrwt>
<pdfrwt beam="1">  1       21 0.75957271E-01 0.19684163E+03</pdfrwt>
<pdfrwt beam="2">  1       21 0.80973859E-01 0.19684163E+03</pdfrwt>
<totfact> 0.20604106E+03</totfact>
</mgrwt>
</event>
<event>
 4    1  0.1116135E+000  0.2252593E+03  0.7546771E-02  0.1130022E+00
         21   -1    0    0  501  502  0.00000000000E+00  0.00000000000E+00  0.21654324574E+03  0.21654324574E+03  0.00000000000E+00 0. -1.
         21   -1    0    0  502  503 -0.00000000000E+00 -0.00000000000E+00 -0.31871213823E+03  0.31871213823E+03  0.00000000000E+00 0. -1.
          6    1    1    2  501    0  0.11016159101E+03  0.94985207359E+02  0.86625932107E+02  0.24134170354E+03  0.17200000000E+03 0. -1.
         -6    1    1    2    0  503 -0.11016159101E+03 -0.94985207359E+02 -0.18879482460E+03  0.29391368044E+03  0.17200000000E+03 0. -1.
<mgrwt>
<rscale>  2 0.22525933E+03</rscale>
<asrwt>0</asrwt>
<pdfrwt beam="1">  1       21 0.54135812E-01 0.22525933E+03</pdfrwt>
<pdfrwt beam="2">  1       21 0.79678034E-01 0.22525933E+03</pdfrwt>
<totfact> 0.43666794E+03</totfact>
</mgrwt>
</event>
<event>
 4    1  0.1116135E+000  0.1790166E+03  0.7546771E-02  0.1168758E+00
         21   -1    0    0  503  502  0.00000000000E+00  0.00000000000E+00  0.10229489526E+04  0.10229489526E+04  0.00000000000E+00 0. -1.
         21   -1    0    0  501  503 -0.00000000000E+00 -0.00000000000E+00 -0.33357164515E+02  0.33357164515E+02  0.00000000000E+00 0. -1.
          6    1    1    2  501    0 -0.44915528052E+02  0.21107613082E+02  0.36453178141E+03  0.40611618492E+03  0.17200000000E+03 0. -1.
         -6    1    1    2    0  502  0.44915528052E+02 -0.21107613082E+02  0.62506000663E+03  0.65018993215E+03  0.17200000000E+03 0. -1.
<mgrwt>
<rscale>  2 0.17901658E+03</rscale>
<asrwt>0</asrwt>
<pdfrwt beam="1">  1       21 0.25573713E+00 0.17901658E+03</pdfrwt>
<pdfrwt beam="2">  1       21 0.83392945E-02 0.17901658E+03</pdfrwt>
<totfact> 0.69670884E+03</totfact>
</mgrwt>
</event>
<event>
 4    1  0.1116135E+000  0.1780759E+03  0.7546771E-02  0.1169678E+00
         21   -1    0    0  501  502  0.00000000000E+00  0.00000000000E+00  0.16364189178E+04  0.16364189178E+04  0.00000000000E+00 0. -1.
         21   -1    0    0  502  503 -0.00000000000E+00 -0.00000000000E+00 -0.21831546799E+02  0.21831546799E+02  0.00000000000E+00 0. -1.
          6    1    1    2  501    0 -0.24738902559E+00  0.46119062686E+02  0.10852316205E+04  0.10997448337E+04  0.17200000000E+03 0. -1.
         -6    1    1    2    0  503  0.24738902559E+00 -0.46119062686E+02  0.52935575054E+03  0.55850563092E+03  0.17200000000E+03 0. -1.
<mgrwt>
<rscale>  2 0.17807591E+03</rscale>
<asrwt>0</asrwt>
<pdfrwt beam="1">  1       21 0.40910431E+00 0.17807591E+03</pdfrwt>
<pdfrwt beam="2">  1       21 0.54578922E-02 0.17807591E+03</pdfrwt>
<totfact> 0.18120774E+03</totfact>
</mgrwt>
</event>
<event>
 4    1  0.1116135E+000  0.2609790E+03  0.7546771E-02  0.1106556E+00
         21   -1    0    0  503  502  0.00000000000E+00  0.00000000000E+00  0.22387850292E+03  0.22387850292E+03  0.00000000000E+00 0. -1.
         21   -1    0    0  501  503 -0.00000000000E+00 -0.00000000000E+00 -0.47647935324E+03  0.47647935324E+03  0.00000000000E+00 0. -1.
          6    1    1    2  501    0 -0.18467857378E+03 -0.66482028216E+02 -0.33684773693E+03  0.42611786347E+03  0.17200000000E+03 0. -1.
         -6    1    1    2    0  502  0.18467857378E+03  0.66482028216E+02  0.84246886613E+02  0.27423999269E+03  0.17200000000E+03 0. -1.
<mgrwt>
<rscale>  2 0.26097899E+03</rscale>
<asrwt>0</asrwt>
<pdfrwt beam="1">  1       21 0.55969626E-01 0.26097899E+03</pdfrwt>
<pdfrwt beam="2">  1       21 0.11911984E+00 0.26097899E+03</pdfrwt>
<totfact> 0.15267443E+03</totfact>
</mgrwt>
</event>
<event>
 4    1  0.1116135E+000  0.2931794E+03  0.7546771E-02  0.1088701E+00
         21   -1    0    0  503  502  0.00000000000E+00  0.00000000000E+00  0.71691091709E+03  0.71691091709E+03  0.00000000000E+00 0.  1.
         21   -1    0    0  501  503 -0.00000000000E+00 -0.00000000000E+00 -0.14435919781E+03  0.14435919781E+03  0.00000000000E+00 0.  1.
          6    1    1    2  501    0  0.80618300003E+02 -0.22331779644E+03  0.10899933490E+03  0.31278587486E+03  0.17200000000E+03 0.  1.
         -6    1    1    2    0  502 -0.80618300003E+02  0.22331779644E+03  0.46355238438E+03  0.54848424004E+03  0.17200000000E+03 0.  1.
<mgrwt>
<rscale>  2 0.29317938E+03</rscale>
<asrwt>0</asrwt>
<pdfrwt beam="1">  1       21 0.17922772E+00 0.29317938E+03</pdfrwt>
<pdfrwt beam="2">  1       21 0.36089801E-01 0.29317938E+03</pdfrwt>
<totfact> 0.12503854E+03</totfact>
</mgrwt>
</event>
<event>
 4    1  0.1116135E+000  0.1733041E+03  0.7546771E-02  0.1174445E+00
         21   -1    0    0  503  502  0.00000000000E+00  0.00000000000E+00  0.54759149585E+03  0.54759149585E+03  0.00000000000E+00 0.  1.
         21   -1    0    0  501  503 -0.00000000000E+00 -0.00000000000E+00 -0.56206772789E+02  0.56206772789E+02  0.00000000000E+00 0.  1.
          6    1    1    2  501    0  0.10779276336E+00  0.21220375959E+02  0.29263157665E+03  0.34009933200E+03  0.17200000000E+03 0. -1.
         -6    1    1    2    0  502 -0.10779276336E+00 -0.21220375959E+02  0.19875314641E+03  0.26369893664E+03  0.17200000000E+03 0. -1.
<mgrwt>
<rscale>  2 0.17330411E+03</rscale>
<asrwt>0</asrwt>
<pdfrwt beam="1">  1       21 0.13689786E+00 0.17330411E+03</pdfrwt>
<pdfrwt beam="2">  1       21 0.14051695E-01 0.17330411E+03</pdfrwt>
<totfact> 0.16969278E+04</totfact>
</mgrwt>
</event>
<event>
 4    1  0.1116135E+000  0.1921607E+03  0.7546771E-02  0.1156527E+00
         21   -1    0    0  501  502  0.00000000000E+00  0.00000000000E+00  0.16646964388E+03  0.16646964388E+03  0.00000000000E+00 0.  1.
         21   -1    0    0  502  503 -0.00000000000E+00 -0.00000000000E+00 -0.26354711420E+03  0.26354711420E+03  0.00000000000E+00 0.  1.
          6    1    1    2  501    0  0.74007081573E+02 -0.43182013563E+02  0.37017761953E+02  0.19569376362E+03  0.17200000000E+03 0.  1.
         -6    1    1    2    0  503 -0.74007081573E+02  0.43182013563E+02 -0.13409523227E+03  0.23432299447E+03  0.17200000000E+03 0.  1.
<mgrwt>
<rscale>  2 0.19216070E+03</rscale>
<asrwt>0</asrwt>
<pdfrwt beam="1">  1       21 0.41617411E-01 0.19216070E+03</pdfrwt>
<pdfrwt beam="2">  1       21 0.65886778E-01 0.19216070E+03</pdfrwt>
<totfact> 0.11767124E+04</totfact>
</mgrwt>
</event>
<event>
 4    1  0.1116135E+000  0.1793259E+03  0.7546771E-02  0.1168457E+00
         21   -1    0    0  503  502  0.00000000000E+00  0.00000000000E+00  0.81653982031E+03  0.81653982031E+03  0.00000000000E+00 0.  1.
         21   -1    0    0  501  503 -0.00000000000E+00 -0.00000000000E+00 -0.70882707272E+02  0.70882707272E+02  0.00000000000E+00 0.  1.
          6    1    1    2  501    0 -0.13927076579E+02  0.48783297216E+02  0.77038422522E+02  0.19517349229E+03  0.17200000000E+03 0.  1.
         -6    1    1    2    0  502  0.13927076579E+02 -0.48783297216E+02  0.66861869052E+03  0.69224903529E+03  0.17200000000E+03 0.  1.
<mgrwt>
<rscale>  2 0.17932589E+03</rscale>
<asrwt>0</asrwt>
<pdfrwt beam="1">  1       21 0.20413493E+00 0.17932589E+03</pdfrwt>
<pdfrwt beam="2">  1       21 0.17720679E-01 0.17932589E+03</pdfrwt>
<totfact> 0.37003618E+03</totfact>
</mgrwt>
</event>
<event>
 4    1  0.1116135E+000  0.1736874E+03  0.7546771E-02  0.1174056E+00
         21   -1    0    0  503  502  0.00000000000E+00  0.00000000000E+00  0.30771545128E+02  0.30771545128E+02  0.00000000000E+00 0. -1.
         21   -1    0    0  501  503 -0.00000000000E+00 -0.00000000000E+00 -0.14073388036E+04  0.14073388036E+04  0.00000000000E+00 0. -1.
          6    1    1    2  501    0  0.13780541722E+02  0.19834246537E+02 -0.10843466052E+04  0.10981688672E+04  0.17200000000E+03 0. -1.
         -6    1    1    2    0  502 -0.13780541722E+02 -0.19834246537E+02 -0.29222065324E+03  0.33994148150E+03  0.17200000000E+03 0. -1.
<mgrwt>
<rscale>  2 0.17368736E+03</rscale>
<asrwt>0</asrwt>
<pdfrwt beam="1">  1       21 0.76928861E-02 0.17368736E+03</pdfrwt>
<pdfrwt beam="2">  1       21 0.35183471E+00 0.17368736E+03</pdfrwt>
<totfact> 0.22518104E+03</totfact>
</mgrwt>
</event>
<event>
 4    1  0.1116135E+000  0.2075909E+03  0.7546771E-02  0.1143488E+00
         21   -1    0    0  501  502  0.00000000000E+00  0.00000000000E+00  0.63068758864E+03  0.63068758864E+03  0.00000000000E+00 0. -1.
         21   -1    0    0  502  503 -0.00000000000E+00 -0.00000000000E+00 -0.82566899521E+02  0.82566899521E+02  0.00000000000E+00 0. -1.
          6    1    1    2  501    0  0.55193325289E+01  0.11610131160E+03  0.42215559575E+03  0.47043525018E+03  0.17200000000E+03 0. -1.
         -6    1    1    2    0  503 -0.55193325289E+01 -0.11610131160E+03  0.12596509337E+03  0.24281923798E+03  0.17200000000E+03 0. -1.
<mgrwt>
<rscale>  2 0.20759089E+03</rscale>
<asrwt>0</asrwt>
<pdfrwt beam="1">  1       21 0.15767188E+00 0.20759089E+03</pdfrwt>
<pdfrwt beam="2">  1       21 0.20641727E-01 0.20759089E+03</pdfrwt>
<totfact> 0.56269425E+03</totfact>
</mgrwt>
</event>
<event>
 4    1  0.1116135E+000  0.2152300E+03  0.7546771E-02  0.1137490E+00
         21   -1    0    0  503  502  0.00000000000E+00  0.00000000000E+00  0.10878526220E+04  0.10878526220E+04  0.00000000000E+00 0. -1.
         21   -1    0    0  501  503 -0.00000000000E+00 -0.00000000000E+00 -0.93630170375E+02  0.93630170375E+02  0.00000000000E+00 0. -1.
          6    1    1    2  501    0  0.20395400831E+02 -0.12776530961E+03  0.60921277197E+02  0.22368582595E+03  0.17200000000E+03 0. -1.
         -6    1    1    2    0  502 -0.20395400831E+02  0.12776530961E+03  0.93330117445E+03  0.95779696645E+03  0.17200000000E+03 0. -1.
<mgrwt>
<rscale>  2 0.21522999E+03</rscale>
<asrwt>0</asrwt>
<pdfrwt beam="1">  1       21 0.27196312E+00 0.21522999E+03</pdfrwt>
<pdfrwt beam="2">  1       21 0.23407546E-01 0.21522999E+03</pdfrwt>
<totfact> 0.82649543E+02</totfact>
</mgrwt>
</event>
<event>
 4    1  0.1116135E+000  0.2167501E+03  0.7546771E-02  0.1136329E+00
         21   -1    0    0  503  502  0.00000000000E+00  0.00000000000E+00  0.92508879981E+02  0.92508879981E+02  0.00000000000E+00 0. -1.
         21   -1    0    0  501  503 -0.00000000000E+00 -0.00000000000E+00 -0.54778578821E+03  0.54778578821E+03  0.00000000000E+00 0.  1.
          6    1    1    2  501    0  0.10710903742E+03 -0.76969181035E+02 -0.31408101736E+03  0.38161169556E+03  0.17200000000E+03 0.  1.
         -6    1    1    2    0  502 -0.10710903742E+03  0.76969181035E+02 -0.14119589087E+03  0.25868297262E+03  0.17200000000E+03 0.  1.
<mgrwt>
<rscale>  2 0.21675009E+03</rscale>
<asrwt>0</asrwt>
<pdfrwt beam="1">  1       21 0.23127220E-01 0.21675009E+03</pdfrwt>
<pdfrwt beam="2">  1       21 0.13694645E+00 0.21675009E+03</pdfrwt>
<totfact> 0.65302646E+03</totfact>
</mgrwt>
</event>
<event>
 4    1  0.1116135E+000  0.1781100E+03  0.7546771E-02  0.1169645E+00
         21   -1    0    0  501  502  0.00000000000E+00  0.00000000000E+00  0.38482874366E+03  0.38482874366E+03  0.00000000000E+00 0.  1.
         21   -1    0    0  502  503 -0.00000000000E+00 -0.00000000000E+00 -0.19865666796E+03  0.19865666796E+03  0.00000000000E+00 0.  1.
          6    1    1    2  501    0  0.41925708211E+02 -0.19529220363E+02  0.31623402100E+03  0.36294229775E+03  0.17200000000E+03 0.  1.
         -6    1    1    2    0  503 -0.41925708211E+02  0.19529220363E+02 -0.13006194531E+03  0.22054311387E+03  0.17200000000E+03 0.  1.
<mgrwt>
<rscale>  2 0.17810995E+03</rscale>
<asrwt>0</asrwt>
<pdfrwt beam="1">  1       21 0.96207185E-01 0.17810995E+03</pdfrwt>
<pdfrwt beam="2">  1       21 0.49664168E-01 0.17810995E+03</pdfrwt>
<totfact> 0.35188334E+03</totfact>
</mgrwt>
</event>
<event>
 4    1  0.1116135E+000  0.1788508E+03  0.7546771E-02  0.1168920E+00
         21   -1    0    0  503  502  0.00000000000E+00  0.00000000000E+00  0.52037336719E+03  0.52037336719E+03  0.00000000000E+00 0.  1.
         21   -1    0    0  501  503 -0.00000000000E+00 -0.00000000000E+00 -0.61711575342E+02  0.61711575342E+02  0.00000000000E+00 0. -1.
          6    1    1    2  501    0  0.48986969864E+02  0.19680802119E+01  0.21113914230E+03  0.27670803018E+03  0.17200000000E+03 0.  1.
         -6    1    1    2    0  502 -0.48986969864E+02 -0.19680802119E+01  0.24752264954E+03  0.30537691234E+03  0.17200000000E+03 0.  1.
<mgrwt>
<rscale>  2 0.17885077E+03</rscale>
<asrwt>0</asrwt>
<pdfrwt beam="1">  1       21 0.13009333E+00 0.17885077E+03</pdfrwt>
<pdfrwt beam="2">  1       21 0.15427895E-01 0.17885077E+03</pdfrwt>
<totfact> 0.16231249E+04</totfact>
</mgrwt>
</event>
<event>
 4    1  0.1116135E+000  0.1854382E+03  0.7546771E-02  0.1162641E+00
         21   -1    0    0  503  502  0.00000000000E+00  0.00000000000E+00  0.52201059102E+02  0.52201059102E+02  0.00000000000E+00 0. -1.
         21   -1    0    0  501  503 -0.00000000000E+00 -0.00000000000E+00 -0.15957849919E+04  0.15957849919E+04  0.00000000000E+00 0. -1.
          6    1    1    2  501    0  0.62131975650E+02  0.30707337267E+02 -0.14032068370E+04  0.14154069204E+04  0.17200000000E+03 0. -1.
         -6    1    1    2    0  502 -0.62131975650E+02 -0.30707337267E+02 -0.14037709580E+03  0.23257913059E+03  0.17200000000E+03 0. -1.
<mgrwt>
<rscale>  2 0.18543819E+03</rscale>
<asrwt>0</asrwt>
<pdfrwt beam="1">  1       21 0.13050265E-01 0.18543819E+03</pdfrwt>
<pdfrwt beam="2">  1       21 0.39894624E+00 0.18543819E+03</pdfrwt>
<totfact> 0.45196821E+02</totfact>
</mgrwt>
</event>
<event>
 4    1  0.1116135E+000  0.1952795E+03  0.7546771E-02  0.1153784E+00
         21   -1    0    0  503  502  0.00000000000E+00  0.00000000000E+00  0.74217651212E+03  0.74217651212E+03  0.00000000000E+00 0.  1.
         21   -1    0    0  501  503 -0.00000000000E+00 -0.00000000000E+00 -0.57993249109E+02  0.57993249109E+02  0.00000000000E+00 0.  1.
          6    1    1    2  501    0 -0.90358660236E+02 -0.19631411789E+02  0.20700126686E+03  0.28457618363E+03  0.17200000000E+03 0.  1.
         -6    1    1    2    0  502  0.90358660236E+02  0.19631411789E+02  0.47718199615E+03  0.51559357760E+03  0.17200000000E+03 0.  1.
<mgrwt>
<rscale>  2 0.19527949E+03</rscale>
<asrwt>0</asrwt>
<pdfrwt beam="1">  1       21 0.18554410E+00 0.19527949E+03</pdfrwt>
<pdfrwt beam="2">  1       21 0.14498315E-01 0.19527949E+03</pdfrwt>
<totfact> 0.69516524E+03</totfact>
</mgrwt>
</event>
<event>
 4    1  0.1116135E+000  0.5939719E+03  0.7546771E-02  0.9917992E-01
         21   -1    0    0  503  502  0.00000000000E+00  0.00000000000E+00  0.55240191637E+03  0.55240191637E+03  0.00000000000E+00 0. -1.
         21   -1    0    0  501  503 -0.00000000000E+00 -0.00000000000E+00 -0.77703530151E+03  0.77703530151E+03  0.00000000000E+00 0.  1.
          6    1    1    2  501    0 -0.69833348771E+02  0.56421798523E+03 -0.39281534322E+03  0.71211412381E+03  0.17200000000E+03 0.  1.
         -6    1    1    2    0  502  0.69833348771E+02 -0.56421798523E+03  0.16818195808E+03  0.61732309407E+03  0.17200000000E+03 0. -1.
<mgrwt>
<rscale>  2 0.59397191E+03</rscale>
<asrwt>0</asrwt>
<pdfrwt beam="1">  1       21 0.13810048E+00 0.59397191E+03</pdfrwt>
<pdfrwt beam="2">  1       21 0.19425882E+00 0.59397191E+03</pdfrwt>
<totfact> 0.39099823E+01</totfact>
</mgrwt>
</event>
<event>
 4    1  0.1116135E+000  0.2389042E+03  0.7546771E-02  0.1120525E+00
         21   -1    0    0  501  502  0.00000000000E+00  0.00000000000E+00  0.83889488275E+03  0.83889488275E+03  0.00000000000E+00 0.  1.
         21   -1    0    0  502  503 -0.00000000000E+00 -0.00000000000E+00 -0.68187478893E+02  0.68187478893E+02  0.00000000000E+00 0.  1.
          6    1    1    2  501    0 -0.16369236288E+03  0.26382275502E+02  0.36399063174E+03  0.43538993341E+03  0.17200000000E+03 0.  1.
         -6    1    1    2    0  503  0.16369236288E+03 -0.26382275502E+02  0.40671677212E+03  0.47169242823E+03  0.17200000000E+03 0.  1.
<mgrwt>
<rscale>  2 0.23890419E+03</rscale>
<asrwt>0</asrwt>
<pdfrwt beam="1">  1       21 0.20972369E+00 0.23890419E+03</pdfrwt>
<pdfrwt beam="2">  1       21 0.17046872E-01 0.23890419E+03</pdfrwt>
<totfact> 0.34674990E+03</totfact>
</mgrwt>
</event>
<event>
 4    1  0.1116135E+000  0.1870766E+03  0.7546771E-02  0.1161125E+00
         21   -1    0    0  501  502  0.00000000000E+00  0.00000000000E+00  0.78145070675E+02  0.78145070675E+02  0.00000000000E+00 0. -1.
         21   -1    0    0  502  503 -0.00000000000E+00 -0.00000000000E+00 -0.53208064293E+03  0.53208064293E+03  0.00000000000E+00 0. -1.
          6    1    1    2  501    0 -0.55127730341E+02 -0.48729784744E+02 -0.10557468290E+03  0.21481078242E+03  0.17200000000E+03 0. -1.
         -6    1    1    2    0  503  0.55127730341E+02  0.48729784744E+02 -0.34836088935E+03  0.39541493118E+03  0.17200000000E+03 0. -1.
<mgrwt>
<rscale>  2 0.18707661E+03</rscale>
<asrwt>0</asrwt>
<pdfrwt beam="1">  1       21 0.19536268E-01 0.18707661E+03</pdfrwt>
<pdfrwt beam="2">  1       21 0.13302016E+00 0.18707661E+03</pdfrwt>
<totfact> 0.98764557E+03</totfact>
</mgrwt>
</event>
<event>
 4    1  0.1116135E+000  0.1773409E+03  0.7546771E-02  0.1170402E+00
         21   -1    0    0  503  502  0.00000000000E+00  0.00000000000E+00  0.32007338673E+02  0.32007338673E+02  0.00000000000E+00 0.  1.
         21   -1    0    0  501  503 -0.00000000000E+00 -0.00000000000E+00 -0.98281459067E+03  0.98281459067E+03  0.00000000000E+00 0. -1.
          6    1    1    2  501    0 -0.24180347080E+02 -0.35792690332E+02 -0.46758259662E+03  0.50008328359E+03  0.17200000000E+03 0.  1.
         -6    1    1    2    0  502  0.24180347080E+02  0.35792690332E+02 -0.48322465538E+03  0.51473864576E+03  0.17200000000E+03 0. -1.
<mgrwt>
<rscale>  2 0.17734093E+03</rscale>
<asrwt>0</asrwt>
<pdfrwt beam="1">  1       21 0.80018345E-02 0.17734093E+03</pdfrwt>
<pdfrwt beam="2">  1       21 0.24570365E+00 0.17734093E+03</pdfrwt>
<totfact> 0.85848038E+03</totfact>
</mgrwt>
</event>
<event>
 4    1  0.1116135E+000  0.2519374E+03  0.7546771E-02  0.1112087E+00
         21   -1    0    0  503  502  0.00000000000E+00  0.00000000000E+00  0.14445837720E+03  0.14445837720E+03  0.00000000000E+00 0.  1.
         21   -1    0    0  501  503 -0.00000000000E+00 -0.00000000000E+00 -0.51379957854E+03  0.51379957854E+03  0.00000000000E+00 0. -1.
          6    1    1    2  501    0 -0.97646399129E+02 -0.15605649890E+03 -0.30992881617E+03  0.39940996633E+03  0.17200000000E+03 0. -1.
         -6    1    1    2    0  502  0.97646399129E+02  0.15605649890E+03 -0.59412385181E+02  0.25884798941E+03  0.17200000000E+03 0.  1.
<mgrwt>
<rscale>  2 0.25193739E+03</rscale>
<asrwt>0</asrwt>
<pdfrwt beam="1">  1       21 0.36114595E-01 0.25193739E+03</pdfrwt>
<pdfrwt beam="2">  1       21 0.12844989E+00 0.25193739E+03</pdfrwt>
<totfact> 0.31449564E+03</totfact>
</mgrwt>
</event>
<event>
 4    1  0.1116135E+000  0.1931175E+03  0.7546771E-02  0.1155679E+00
         21   -1    0    0  501  502  0.00000000000E+00  0.00000000000E+00  0.30796337806E+03  0.30796337806E+03  0.00000000000E+00 0. -1.
         21   -1    0    0  502  503 -0.00000000000E+00 -0.00000000000E+00 -0.12830888395E+03  0.12830888395E+03  0.00000000000E+00 0. -1.
          6    1    1    2  501    0  0.87758679667E+02  0.29639885753E+01  0.38122231594E+02  0.19684429285E+03  0.17200000000E+03 0. -1.
         -6    1    1    2    0  503 -0.87758679667E+02 -0.29639885753E+01  0.14153226251E+03  0.23942796916E+03  0.17200000000E+03 0. -1.
<mgrwt>
<rscale>  2 0.19311751E+03</rscale>
<asrwt>0</asrwt>
<pdfrwt beam="1">  1       21 0.76990843E-01 0.19311751E+03</pdfrwt>
<pdfrwt beam="2">  1       21 0.32077222E-01 0.19311751E+03</pdfrwt>
<totfact> 0.14012841E+04</totfact>
</mgrwt>
</event>
<event>
 4    1  0.1116135E+000  0.1860322E+03  0.7546771E-02  0.1162089E+00
         21   -1    0    0  503  502  0.00000000000E+00  0.00000000000E+00  0.40986623185E+03  0.40986623185E+03  0.00000000000E+00 0.  1.
         21   -1    0    0  501  503 -0.00000000000E+00 -0.00000000000E+00 -0.85377257459E+02  0.85377257459E+02  0.00000000000E+00 0.  1.
          6    1    1    2  501    0 -0.20660209257E+01 -0.70849969242E+02  0.18822682355E+03  0.26464565685E+03  0.17200000000E+03 0. -1.
         -6    1    1    2    0  502  0.20660209257E+01  0.70849969242E+02  0.13626215084E+03  0.23059783246E+03  0.17200000000E+03 0. -1.
<mgrwt>
<rscale>  2 0.18603222E+03</rscale>
<asrwt>0</asrwt>
<pdfrwt beam="1">  1       21 0.10246655E+00 0.18603222E+03</pdfrwt>
<pdfrwt beam="2">  1       21 0.21344315E-01 0.18603222E+03</pdfrwt>
<totfact> 0.15897011E+04</totfact>
</mgrwt>
</event>
<event>
 4    1  0.1116135E+000  0.2082780E+03  0.7546771E-02  0.1142937E+00
         21   -1    0    0  503  502  0.00000000000E+00  0.00000000000E+00  0.19304761997E+03  0.19304761997E+03  0.00000000000E+00 0. -1.
         21   -1    0    0  501  503 -0.00000000000E+00 -0.00000000000E+00 -0.22712795476E+03  0.22712795476E+03  0.00000000000E+00 0.  1.
          6    1    1    2  501    0 -0.11011403142E+02 -0.11693783409E+03 -0.38717214972E+02  0.21184600722E+03  0.17200000000E+03 0. -1.
         -6    1    1    2    0  502  0.11011403142E+02  0.11693783409E+03  0.46368801809E+01  0.20832956751E+03  0.17200000000E+03 0. -1.
<mgrwt>
<rscale>  2 0.20827796E+03</rscale>
<asrwt>0</asrwt>
<pdfrwt beam="1">  1       21 0.48261905E-01 0.20827796E+03</pdfrwt>
<pdfrwt beam="2">  1       21 0.56781989E-01 0.20827796E+03</pdfrwt>
<totfact> 0.11833424E+04</totfact>
</mgrwt>
</event>
<event>
 4    1  0.1116135E+000  0.1736198E+03  0.7546771E-02  0.1174125E+00
         21   -1    0    0  503  502  0.00000000000E+00  0.00000000000E+00  0.25923835280E+03  0.25923835280E+03  0.00000000000E+00 0. -1.
         21   -1    0    0  501  503 -0.00000000000E+00 -0.00000000000E+00 -0.11679128696E+03  0.11679128696E+03  0.00000000000E+00 0. -1.
          6    1    1    2  501    0 -0.14828360465E+02  0.18437872671E+02  0.58764798171E+02  0.18329521796E+03  0.17200000000E+03 0.  1.
         -6    1    1    2    0  502  0.14828360465E+02 -0.18437872671E+02  0.83682267666E+02  0.19273442179E+03  0.17200000000E+03 0.  1.
<mgrwt>
<rscale>  2 0.17361980E+03</rscale>
<asrwt>0</asrwt>
<pdfrwt beam="1">  1       21 0.64809587E-01 0.17361980E+03</pdfrwt>
<pdfrwt beam="2">  1       21 0.29197822E-01 0.17361980E+03</pdfrwt>
<totfact> 0.24912171E+04</totfact>
</mgrwt>
</event>
<event>
 4    1  0.1116135E+000  0.3044906E+03  0.7546771E-02  0.1083017E+00
         21   -1    0    0  501  502  0.00000000000E+00  0.00000000000E+00  0.77161937383E+03  0.77161937383E+03  0.00000000000E+00 0. -1.
         21   -1    0    0  502  503 -0.00000000000E+00 -0.00000000000E+00 -0.13698038980E+03  0.13698038980E+03  0.00000000000E+00 0.  1.
          6    1    1    2  501    0 -0.31466194431E+02 -0.24927973168E+03  0.47653533788E+03  0.56550900459E+03  0.17200000000E+03 0. -1.
         -6    1    1    2    0  503  0.31466194431E+02  0.24927973168E+03  0.15810364615E+03  0.34309075905E+03  0.17200000000E+03 0. -1.
<mgrwt>
<rscale>  2 0.30449057E+03</rscale>
<asrwt>0</asrwt>
<pdfrwt beam="1">  1       21 0.19290483E+00 0.30449057E+03</pdfrwt>
<pdfrwt beam="2">  1       21 0.34245100E-01 0.30449057E+03</pdfrwt>
<totfact> 0.11125522E+03</totfact>
</mgrwt>
</event>
<event>
 4    1  0.1116135E+000  0.1727385E+03  0.7546771E-02  0.1175022E+00
         21   -1    0    0  503  502  0.00000000000E+00  0.00000000000E+00  0.83277905302E+02  0.83277905302E+02  0.00000000000E+00 0. -1.
         21   -1    0    0  501  503 -0.00000000000E+00 -0.00000000000E+00 -0.76566175133E+03  0.76566175133E+03  0.00000000000E+00 0. -1.
          6    1    1    2  501    0  0.13980565690E+02  0.76892740252E+01 -0.65080392295E+03  0.67333819680E+03  0.17200000000E+03 0. -1.
         -6    1    1    2    0  502 -0.13980565690E+02 -0.76892740252E+01 -0.31579923081E+02  0.17560145983E+03  0.17200000000E+03 0. -1.
<mgrwt>
<rscale>  2 0.17273848E+03</rscale>
<asrwt>0</asrwt>
<pdfrwt beam="1">  1       21 0.20819477E-01 0.17273848E+03</pdfrwt>
<pdfrwt beam="2">  1       21 0.19141543E+00 0.17273848E+03</pdfrwt>
<totfact> 0.33347525E+03</totfact>
</mgrwt>
</event>
<event>
 4    1  0.1116135E+000  0.3268052E+03  0.7546771E-02  0.1072559E+00
         21   -1    0    0  503  502  0.00000000000E+00  0.00000000000E+00  0.14635655153E+03  0.14635655153E+03  0.00000000000E+00 0. -1.
         21   -1    0    0  501  503 -0.00000000000E+00 -0.00000000000E+00 -0.79792041349E+03  0.79792041349E+03  0.00000000000E+00 0.  1.
          6    1    1    2  501    0 -0.27743136076E+03  0.15794077096E+02 -0.46379901766E+03  0.56737213677E+03  0.17200000000E+03 0.  1.
         -6    1    1    2    0  502  0.27743136076E+03 -0.15794077096E+02 -0.18776484430E+03  0.37690482825E+03  0.17200000000E+03 0. -1.
<mgrwt>
<rscale>  2 0.32680516E+03</rscale>
<asrwt>0</asrwt>
<pdfrwt beam="1">  1       21 0.36589138E-01 0.32680516E+03</pdfrwt>
<pdfrwt beam="2">  1       21 0.19948010E+00 0.32680516E+03</pdfrwt>
<totfact> 0.86751624E+02</totfact>
</mgrwt>
</event>
<event>
 4    1  0.1116135E+000  0.1863925E+03  0.7546771E-02  0.1161756E+00
         21   -1    0    0  503  502  0.00000000000E+00  0.00000000000E+00  0.38939691795E+03  0.38939691795E+03  0.00000000000E+00 0. -1.
         21   -1    0    0  501  503 -0.00000000000E+00 -0.00000000000E+00 -0.34528998634E+03  0.34528998634E+03  0.00000000000E+00 0. -1.
          6    1    1    2  501    0 -0.13626500430E+02  0.70515860485E+02 -0.29429029186E+03  0.34835175323E+03  0.17200000000E+03 0. -1.
         -6    1    1    2    0  502  0.13626500430E+02 -0.70515860485E+02  0.33839722347E+03  0.38633515106E+03  0.17200000000E+03 0. -1.
<mgrwt>
<rscale>  2 0.18639251E+03</rscale>
<asrwt>0</asrwt>
<pdfrwt beam="1">  1       21 0.97349229E-01 0.18639251E+03</pdfrwt>
<pdfrwt beam="2">  1       21 0.86322497E-01 0.18639251E+03</pdfrwt>
<totfact> 0.10182117E+03</totfact>
</mgrwt>
</event>
<event>
 4    1  0.1116135E+000  0.1940071E+03  0.7546771E-02  0.1154896E+00
         21   -1    0    0  501  502  0.00000000000E+00  0.00000000000E+00  0.99211073631E+02  0.99211073631E+02  0.00000000000E+00 0. -1.
         21   -1    0    0  502  503 -0.00000000000E+00 -0.00000000000E+00 -0.38044939390E+03  0.38044939390E+03  0.00000000000E+00 0. -1.
          6    1    1    2  501    0  0.58471805508E+02  0.68086710512E+02 -0.15333109287E+03  0.24728359474E+03  0.17200000000E+03 0. -1.
         -6    1    1    2    0  503 -0.58471805508E+02 -0.68086710512E+02 -0.12790722740E+03  0.23237687279E+03  0.17200000000E+03 0. -1.
<mgrwt>
<rscale>  2 0.19400709E+03</rscale>
<asrwt>0</asrwt>
<pdfrwt beam="1">  1       21 0.24802769E-01 0.19400709E+03</pdfrwt>
<pdfrwt beam="2">  1       21 0.95112347E-01 0.19400709E+03</pdfrwt>
<totfact> 0.14193528E+04</totfact>
</mgrwt>
</event>
<event>
 4    1  0.1116135E+000  0.2261382E+03  0.7546771E-02  0.1129388E+00
         21   -1    0    0  503  502  0.00000000000E+00  0.00000000000E+00  0.21265944511E+03  0.21265944511E+03  0.00000000000E+00 0.  1.
         21   -1    0    0  501  503 -0.00000000000E+00 -0.00000000000E+00 -0.49108549748E+03  0.49108549748E+03  0.00000000000E+00 0.  1.
          6    1    1    2  501    0 -0.10965971119E+03  0.97617769333E+02  0.11215476049E+03  0.25242260487E+03  0.17200000000E+03 0.  1.
         -6    1    1    2    0  502  0.10965971119E+03 -0.97617769333E+02 -0.39058081287E+03  0.45132233772E+03  0.17200000000E+03 0.  1.
<mgrwt>
<rscale>  2 0.22613819E+03</rscale>
<asrwt>0</asrwt>
<pdfrwt beam="1">  1       21 0.53164862E-01 0.22613819E+03</pdfrwt>
<pdfrwt beam="2">  1       21 0.12277137E+00 0.22613819E+03</pdfrwt>
<totfact> 0.16220251E+03</totfact>
</mgrwt>
</event>
<event>
 4    1  0.1116135E+000  0.1754045E+03  0.7546771E-02  0.1172326E+00
         21   -1    0    0  503  502  0.00000000000E+00  0.00000000000E+00  0.12141672879E+04  0.12141672879E+04  0.00000000000E+00 0. -1.
         21   -1    0    0  501  503 -0.00000000000E+00 -0.00000000000E+00 -0.61572537163E+02  0.61572537163E+02  0.00000000000E+00 0. -1.
          6    1    1    2  501    0  0.28791542021E+02  0.18808764554E+02  0.86981472063E+02  0.19578687136E+03  0.17200000000E+03 0. -1.
         -6    1    1    2    0  502 -0.28791542021E+02 -0.18808764554E+02  0.10656132787E+04  0.10799529537E+04  0.17200000000E+03 0. -1.
<mgrwt>
<rscale>  2 0.17540445E+03</rscale>
<asrwt>0</asrwt>
<pdfrwt beam="1">  1       21 0.30354174E+00 0.17540445E+03</pdfrwt>
<pdfrwt beam="2">  1       21 0.15393138E-01 0.17540445E+03</pdfrwt>
<totfact> 0.12486064E+03</totfact>
</mgrwt>
</event>
<event>
 4    1  0.1116135E+000  0.1746160E+03  0.7546771E-02  0.1173118E+00
         21   -1    0    0  501  502  0.00000000000E+00  0.00000000000E+00  0.17200548698E+03  0.17200548698E+03  0.00000000000E+00 0.  1.
         21   -1    0    0  502  503 -0.00000000000E+00 -0.00000000000E+00 -0.24771292178E+03  0.24771292178E+03  0.00000000000E+00 0.  1.
          6    1    1    2  501    0 -0.24221229547E+02 -0.17890479179E+02  0.74060297626E+02  0.18967252012E+03  0.17200000000E+03 0.  1.
         -6    1    1    2    0  503  0.24221229547E+02  0.17890479179E+02 -0.14976773242E+03  0.23004588864E+03  0.17200000000E+03 0.  1.
<mgrwt>
<rscale>  2 0.17461597E+03</rscale>
<asrwt>0</asrwt>
<pdfrwt beam="1">  1       21 0.43001372E-01 0.17461597E+03</pdfrwt>
<pdfrwt beam="2">  1       21 0.61928230E-01 0.17461597E+03</pdfrwt>
<totfact> 0.12741086E+04</totfact>
</mgrwt>
</event>
<event>
 4    1  0.1116135E+000  0.2298319E+03  0.7546771E-02  0.1126758E+00
         21   -1    0    0  501  502  0.00000000000E+00  0.00000000000E+00  0.64650741859E+03  0.64650741859E+03  0.00000000000E+00 0.  1.
         21   -1    0    0  502  503 -0.00000000000E+00 -0.00000000000E+00 -0.25257223803E+03  0.25257223803E+03  0.00000000000E+00 0. -1.
          6    1    1    2  501    0 -0.62698226293E+02  0.13895196650E+03  0.56671497174E+03  0.61154605368E+03  0.17200000000E+03 0.  1.
         -6    1    1    2    0  503  0.62698226293E+02 -0.13895196650E+03 -0.17277979119E+03  0.28753360294E+03  0.17200000000E+03 0. -1.
<mgrwt>
<rscale>  2 0.22983193E+03</rscale>
<asrwt>0</asrwt>
<pdfrwt beam="1">  1       21 0.16162685E+00 0.22983193E+03</pdfrwt>
<pdfrwt beam="2">  1       21 0.63143061E-01 0.22983193E+03</pdfrwt>
<totfact> 0.54633220E+02</totfact>
</mgrwt>
</event>
<event>
 4    1  0.1116135E+000  0.2149085E+03  0.7546771E-02  0.1137737E+00
         21   -1    0    0  503  502  0.00000000000E+00  0.00000000000E+00  0.43781465018E+02  0.43781465018E+02  0.00000000000E+00 0. -1.
         21   -1    0    0  501  503 -0.00000000000E+00 -0.00000000000E+00 -0.11335238142E+04  0.11335238142E+04  0.00000000000E+00 0. -1.
          6    1    1    2  501    0 -0.12819267640E+03 -0.12973908193E+02 -0.69988908988E+03  0.73214098554E+03  0.17200000000E+03 0. -1.
         -6    1    1    2    0  502  0.12819267640E+03  0.12973908193E+02 -0.38985325933E+03  0.44516429370E+03  0.17200000000E+03 0. -1.
<mgrwt>
<rscale>  2 0.21490855E+03</rscale>
<asrwt>0</asrwt>
<pdfrwt beam="1">  1       21 0.10945366E-01 0.21490855E+03</pdfrwt>
<pdfrwt beam="2">  1       21 0.28338095E+00 0.21490855E+03</pdfrwt>
<totfact> 0.28687551E+03</totfact>
</mgrwt>
</event>
<event>
 4    1  0.1116135E+000  0.1764345E+03  0.7546771E-02  0.1171299E+00
         21   -1    0    0  501  502  0.00000000000E+00  0.00000000000E+00  0.15788134314E+03  0.15788134314E+03  0.00000000000E+00 0.  1.
         21   -1    0    0  502  503 -0.00000000000E+00 -0.00000000000E+00 -0.41239103137E+03  0.41239103137E+03  0.00000000000E+00 0.  1.
          6    1    1    2  501    0 -0.37906723228E+02  0.10401835560E+02  0.78733336221E+02  0.19320469995E+03  0.17200000000E+03 0.  1.
         -6    1    1    2    0  503  0.37906723228E+02 -0.10401835560E+02 -0.33324302445E+03  0.37706767456E+03  0.17200000000E+03 0.  1.
<mgrwt>
<rscale>  2 0.17643446E+03</rscale>
<asrwt>0</asrwt>
<pdfrwt beam="1">  1       21 0.39470336E-01 0.17643446E+03</pdfrwt>
<pdfrwt beam="2">  1       21 0.10309776E+00 0.17643446E+03</pdfrwt>
<totfact> 0.47867588E+03</totfact>
</mgrwt>
</event>
<event>
 4    1  0.1116135E+000  0.2246629E+03  0.7546771E-02  0.1130454E+00
         21   -1    0    0  503  502  0.00000000000E+00  0.00000000000E+00  0.66772657574E+03  0.66772657574E+03  0.00000000000E+00 0.  1.
         21   -1    0    0  501  503 -0.00000000000E+00 -0.00000000000E+00 -0.12429273636E+03  0.12429273636E+03  0.00000000000E+00 0.  1.
          6    1    1    2  501    0  0.28579540863E+02  0.14167785408E+03  0.23826411053E+02  0.22592277963E+03  0.17200000000E+03 0.  1.
         -6    1    1    2    0  502 -0.28579540863E+02 -0.14167785408E+03  0.51960742833E+03  0.56609653246E+03  0.17200000000E+03 0.  1.
<mgrwt>
<rscale>  2 0.22466287E+03</rscale>
<asrwt>0</asrwt>
<pdfrwt beam="1">  1       21 0.16693163E+00 0.22466287E+03</pdfrwt>
<pdfrwt beam="2">  1       21 0.31073186E-01 0.22466287E+03</pdfrwt>
<totfact> 0.21668613E+03</totfact>
</mgrwt>
</event>
<event>
 4    1  0.1116135E+000  0.2482315E+03  0.7546771E-02  0.1114428E+00
         21   -1    0    0  501  502  0.00000000000E+00  0.00000000000E+00  0.39707743779E+03  0.39707743779E+03  0.00000000000E+00 0. -1.
         21   -1    0    0  502  503 -0.00000000000E+00 -0.00000000000E+00 -0.53682947526E+03  0.53682947526E+03  0.00000000000E+00 0. -1.
          6    1    1    2  501    0  0.10479107627E+03  0.14509891654E+03  0.32384372710E+03  0.40803630333E+03  0.17200000000E+03 0. -1.
         -6    1    1    2    0  503 -0.10479107627E+03 -0.14509891654E+03 -0.46359576457E+03  0.52587060973E+03  0.17200000000E+03 0. -1.
<mgrwt>
<rscale>  2 0.24823148E+03</rscale>
<asrwt>0</asrwt>
<pdfrwt beam="1">  1       21 0.99269360E-01 0.24823148E+03</pdfrwt>
<pdfrwt beam="2">  1       21 0.13420737E+00 0.24823148E+03</pdfrwt>
<totfact> 0.31397620E+02</totfact>
</mgrwt>
</event>
<event>
 4    1  0.1116135E+000  0.3925281E+03  0.7546771E-02  0.1046398E+00
         21   -1    0    0  503  502  0.00000000000E+00  0.00000000000E+00  0.25488830266E+03  0.25488830266E+03  0.00000000000E+00 0.  1.
         21   -1    0    0  501  503 -0.00000000000E+00 -0.00000000000E+00 -0.80904586959E+03  0.80904586959E+03  0.00000000000E+00 0. -1.
          6    1    1    2  501    0 -0.30174163534E+03  0.18288330968E+03 -0.54456441541E+03  0.67128885138E+03  0.17200000000E+03 0. -1.
         -6    1    1    2    0  502  0.30174163534E+03 -0.18288330968E+03 -0.95931515224E+01  0.39264532088E+03  0.17200000000E+03 0.  1.
<mgrwt>
<rscale>  2 0.39252811E+03</rscale>
<asrwt>0</asrwt>
<pdfrwt beam="1">  1       21 0.63722077E-01 0.39252811E+03</pdfrwt>
<pdfrwt beam="2">  1       21 0.20226146E+00 0.39252811E+03</pdfrwt>
<totfact> 0.24758975E+02</totfact>
</mgrwt>
</event>
<event>
 4    1  0.1116135E+000  0.1963937E+03  0.7546771E-02  0.1152818E+00
         21   -1    0    0  503  502  0.00000000000E+00  0.00000000000E+00  0.72158614078E+02  0.72158614078E+02  0.00000000000E+00 0. -1.
         21   -1    0    0  501  503 -0.00000000000E+00 -0.00000000000E+00 -0.81477402756E+03  0.81477402756E+03  0.00000000000E+00 0. -1.
          6    1    1    2  501    0  0.11167036057E+01 -0.94790435343E+02 -0.11122271745E+03  0.22570105568E+03  0.17200000000E+03 0. -1.
         -6    1    1    2    0  502 -0.11167036057E+01  0.94790435343E+02 -0.63139269604E+03  0.66123158596E+03  0.17200000000E+03 0. -1.
<mgrwt>
<rscale>  2 0.19639367E+03</rscale>
<asrwt>0</asrwt>
<pdfrwt beam="1">  1       21 0.18039653E-01 0.19639367E+03</pdfrwt>
<pdfrwt beam="2">  1       21 0.20369351E+00 0.19639367E+03</pdfrwt>
<totfact> 0.35429629E+03</totfact>
</mgrwt>
</event>
<event>
 4    1  0.1116135E+000  0.2159530E+03  0.7546771E-02  0.1136937E+00
         21   -1    0    0  501  502  0.00000000000E+00  0.00000000000E+00  0.63840949155E+03  0.63840949155E+03  0.00000000000E+00 0.  1.
         21   -1    0    0  502  503 -0.00000000000E+00 -0.00000000000E+00 -0.73174575892E+02  0.73174575892E+02  0.00000000000E+00 0. -1.
          6    1    1    2  501    0  0.12100803762E+03  0.49078954614E+02  0.29730917366E+03  0.36746215274E+03  0.17200000000E+03 0.  1.
         -6    1    1    2    0  503 -0.12100803762E+03 -0.49078954614E+02  0.26792574200E+03  0.34412191471E+03  0.17200000000E+03 0.  1.
<mgrwt>
<rscale>  2 0.21595298E+03</rscale>
<asrwt>0</asrwt>
<pdfrwt beam="1">  1       21 0.15960236E+00 0.21595298E+03</pdfrwt>
<pdfrwt beam="2">  1       21 0.18293646E-01 0.21595298E+03</pdfrwt>
<totfact> 0.67775686E+03</totfact>
</mgrwt>
</event>
<event>
 4    1  0.1116135E+000  0.2237089E+03  0.7546771E-02  0.1131148E+00
         21   -1    0    0  503  502  0.00000000000E+00  0.00000000000E+00  0.34995117066E+03  0.34995117066E+03  0.00000000000E+00 0.  1.
         21   -1    0    0  501  503 -0.00000000000E+00 -0.00000000000E+00 -0.33747621615E+03  0.33747621615E+03  0.00000000000E+00 0.  1.
          6    1    1    2  501    0 -0.13118786124E+03 -0.57021108407E+02 -0.25467813093E+03  0.33897877826E+03  0.17200000000E+03 0.  1.
         -6    1    1    2    0  502  0.13118786124E+03  0.57021108407E+02  0.26715308544E+03  0.34844860855E+03  0.17200000000E+03 0.  1.
<mgrwt>
<rscale>  2 0.22370888E+03</rscale>
<asrwt>0</asrwt>
<pdfrwt beam="1">  1       21 0.87487793E-01 0.22370888E+03</pdfrwt>
<pdfrwt beam="2">  1       21 0.84369054E-01 0.22370888E+03</pdfrwt>
<totfact> 0.13285866E+03</totfact>
</mgrwt>
</event>
<event>
 4    1  0.1116135E+000  0.1932086E+03  0.7546771E-02  0.1155599E+00
         21   -1    0    0  503  502  0.00000000000E+00  0.00000000000E+00  0.82748428661E+02  0.82748428661E+02  0.00000000000E+00 0.  1.
         21   -1    0    0  501  503 -0.00000000000E+00 -0.00000000000E+00 -0.96225273054E+03  0.96225273054E+03  0.00000000000E+00 0.  1.
          6    1    1    2  501    0  0.76513004835E+02 -0.43489281028E+02 -0.82056237793E+03  0.84300188229E+03  0.17200000000E+03 0.  1.
         -6    1    1    2    0  502 -0.76513004835E+02  0.43489281028E+02 -0.58941923950E+02  0.20199927691E+03  0.17200000000E+03 0.  1.
<mgrwt>
<rscale>  2 0.19320859E+03</rscale>
<asrwt>0</asrwt>
<pdfrwt beam="1">  1       21 0.20687107E-01 0.19320859E+03</pdfrwt>
<pdfrwt beam="2">  1       21 0.24056318E+00 0.19320859E+03</pdfrwt>
<totfact> 0.16372492E+03</totfact>
</mgrwt>
</event>
<event>
 4    1  0.1116135E+000  0.1820414E+03  0.7546771E-02  0.1165842E+00
         21   -1    0    0  503  502  0.00000000000E+00  0.00000000000E+00  0.22651623231E+03  0.22651623231E+03  0.00000000000E+00 0. -1.
         21   -1    0    0  501  503 -0.00000000000E+00 -0.00000000000E+00 -0.16283995631E+03  0.16283995631E+03  0.00000000000E+00 0. -1.
          6    1    1    2  501    0 -0.17971448728E+02  0.56851466694E+02 -0.30208605622E+02  0.18453081609E+03  0.17200000000E+03 0. -1.
         -6    1    1    2    0  502  0.17971448728E+02 -0.56851466694E+02  0.93884881620E+02  0.20482537253E+03  0.17200000000E+03 0. -1.
<mgrwt>
<rscale>  2 0.18204138E+03</rscale>
<asrwt>0</asrwt>
<pdfrwt beam="1">  1       21 0.56629058E-01 0.18204138E+03</pdfrwt>
<pdfrwt beam="2">  1       21 0.40709989E-01 0.18204138E+03</pdfrwt>
<totfact> 0.17154959E+04</totfact>
</mgrwt>
</event>
<event>
 4    1  0.1116135E+000  0.1838637E+03  0.7546771E-02  0.1164115E+00
         21   -1    0    0  501  502  0.00000000000E+00  0.00000000000E+00  0.34066613464E+03  0.34066613464E+03  0.00000000000E+00 0. -1.
         21   -1    0    0  502  503 -0.00000000000E+00 -0.00000000000E+00 -0.13071240058E+03  0.13071240058E+03  0.00000000000E+00 0. -1.
          6    1    1    2  501    0  0.64429101054E+02 -0.84109976905E+01  0.22063705079E+03  0.28720473904E+03  0.17200000000E+03 0. -1.
         -6    1    1    2    0  503 -0.64429101054E+02  0.84109976905E+01 -0.10683316733E+02  0.18417379618E+03  0.17200000000E+03 0. -1.
<mgrwt>
<rscale>  2 0.18386368E+03</rscale>
<asrwt>0</asrwt>
<pdfrwt beam="1">  1       21 0.85166532E-01 0.18386368E+03</pdfrwt>
<pdfrwt beam="2">  1       21 0.32678101E-01 0.18386368E+03</pdfrwt>
<totfact> 0.10816611E+04</totfact>
</mgrwt>
</event>
<event>
 4    1  0.1116135E+000  0.2033593E+03  0.7546771E-02  0.1146935E+00
         21   -1    0    0  503  502  0.00000000000E+00  0.00000000000E+00  0.82576060843E+03  0.82576060843E+03  0.00000000000E+00 0.  1.
         21   -1    0    0  501  503 -0.00000000000E+00 -0.00000000000E+00 -0.59865060626E+02  0.59865060626E+02  0.00000000000E+00 0.  1.
          6    1    1    2  501    0  0.10955632682E+02 -0.10793966396E+03  0.20393216238E+03  0.28799882604E+03  0.17200000000E+03 0.  1.
         -6    1    1    2    0  502 -0.10955632682E+02  0.10793966396E+03  0.56196338542E+03  0.59762684302E+03  0.17200000000E+03 0.  1.
<mgrwt>
<rscale>  2 0.20335928E+03</rscale>
<asrwt>0</asrwt>
<pdfrwt beam="1">  1       21 0.20644012E+00 0.20335928E+03</pdfrwt>
<pdfrwt beam="2">  1       21 0.14966268E-01 0.20335928E+03</pdfrwt>
<totfact> 0.47645264E+03</totfact>
</mgrwt>
</event>
<event>
 4    1  0.1116135E+000  0.1784287E+03  0.7546771E-02  0.1169332E+00
         21   -1    0    0  501  502  0.00000000000E+00  0.00000000000E+00  0.43769694304E+02  0.43769694304E+02  0.00000000000E+00 0. -1.
         21   -1    0    0  502  503 -0.00000000000E+00 -0.00000000000E+00 -0.10050173517E+04  0.10050173517E+04  0.00000000000E+00 0. -1.
          6    1    1    2  501    0 -0.16703575694E+02 -0.44427367645E+02 -0.20500008355E+03  0.27177533864E+03  0.17200000000E+03 0. -1.
         -6    1    1    2    0  503  0.16703575694E+02  0.44427367645E+02 -0.75624757388E+03  0.77701170740E+03  0.17200000000E+03 0. -1.
<mgrwt>
<rscale>  2 0.17842870E+03</rscale>
<asrwt>0</asrwt>
<pdfrwt beam="1">  1       21 0.10942424E-01 0.17842870E+03</pdfrwt>
<pdfrwt beam="2">  1       21 0.25125433E+00 0.17842870E+03</pdfrwt>
<totfact> 0.45926964E+03</totfact>
</mgrwt>
</event>
<event>
 4    1  0.1116135E+000  0.1904834E+03  0.7546771E-02  0.1158026E+00
         21   -1    0    0  501  502  0.00000000000E+00  0.00000000000E+00  0.67186550587E+03  0.67186550587E+03  0.00000000000E+00 0.  1.
         21   -1    0    0  502  503 -0.00000000000E+00 -0.00000000000E+00 -0.88050028848E+02  0.88050028848E+02  0.00000000000E+00 0.  1.
          6    1    1    2  501    0 -0.60217119482E+02 -0.55441994101E+02  0.52817260338E+03  0.56147147314E+03  0.17200000000E+03 0.  1.
         -6    1    1    2    0  503  0.60217119482E+02  0.55441994101E+02  0.55642873642E+02  0.19844406158E+03  0.17200000000E+03 0.  1.
<mgrwt>
<rscale>  2 0.19048338E+03</rscale>
<asrwt>0</asrwt>
<pdfrwt beam="1">  1       21 0.16796636E+00 0.19048338E+03</pdfrwt>
<pdfrwt beam="2">  1       21 0.22012509E-01 0.19048338E+03</pdfrwt>
<totfact> 0.42610847E+03</totfact>
</mgrwt>
</event>
<event>
 4    1  0.1116135E+000  0.1819934E+03  0.7546771E-02  0.1165888E+00
         21   -1    0    0  503  502  0.00000000000E+00  0.00000000000E+00  0.65808486299E+02  0.65808486299E+02  0.00000000000E+00 0. -1.
         21   -1    0    0  501  503 -0.00000000000E+00 -0.00000000000E+00 -0.13442147730E+04  0.13442147730E+04  0.00000000000E+00 0. -1.
          6    1    1    2  501    0  0.29728570727E+02 -0.51515258943E+02 -0.11968216263E+04  0.12105798673E+04  0.17200000000E+03 0. -1.
         -6    1    1    2    0  502 -0.29728570727E+02  0.51515258943E+02 -0.81584660416E+02  0.19944339206E+03  0.17200000000E+03 0. -1.
<mgrwt>
<rscale>  2 0.18199343E+03</rscale>
<asrwt>0</asrwt>
<pdfrwt beam="1">  1       21 0.16452121E-01 0.18199343E+03</pdfrwt>
<pdfrwt beam="2">  1       21 0.33605370E+00 0.18199343E+03</pdfrwt>
<totfact> 0.71105758E+02</totfact>
</mgrwt>
</event>
<event>
 4    1  0.1116135E+000  0.2216103E+03  0.7546771E-02  0.1132688E+00
         21   -1    0    0  503  502  0.00000000000E+00  0.00000000000E+00  0.22059678724E+03  0.22059678724E+03  0.00000000000E+00 0. -1.
         21   -1    0    0  501  503 -0.00000000000E+00 -0.00000000000E+00 -0.37305099143E+03  0.37305099143E+03  0.00000000000E+00 0.  1.
          6    1    1    2  501    0 -0.99174741616E+02  0.98445305217E+02 -0.26470971787E+03  0.34522795690E+03  0.17200000000E+03 0.  1.
         -6    1    1    2    0  502  0.99174741616E+02 -0.98445305217E+02  0.11225551368E+03  0.24841982176E+03  0.17200000000E+03 0. -1.
<mgrwt>
<rscale>  2 0.22161026E+03</rscale>
<asrwt>0</asrwt>
<pdfrwt beam="1">  1       21 0.55149197E-01 0.22161026E+03</pdfrwt>
<pdfrwt beam="2">  1       21 0.93262747E-01 0.22161026E+03</pdfrwt>
<totfact> 0.29289828E+03</totfact>
</mgrwt>
</event>
<event>
 4    1  0.1116135E+000  0.1858943E+03  0.7546771E-02  0.1162217E+00
         21   -1    0    0  503  502  0.00000000000E+00  0.00000000000E+00  0.56639391319E+02  0.56639391319E+02  0.00000000000E+00 0.  1.
         21   -1    0    0  501  503 -0.00000000000E+00 -0.00000000000E+00 -0.82028916130E+03  0.82028916130E+03  0.00000000000E+00 0.  1.
          6    1    1    2  501    0  0.70122059895E+02  0.74562394570E+01 -0.60376588286E+03  0.63173565682E+03  0.17200000000E+03 0.  1.
         -6    1    1    2    0  502 -0.70122059895E+02 -0.74562394570E+01 -0.15988388713E+03  0.24519289580E+03  0.17200000000E+03 0.  1.
<mgrwt>
<rscale>  2 0.18589432E+03</rscale>
<asrwt>0</asrwt>
<pdfrwt beam="1">  1       21 0.14159848E-01 0.18589432E+03</pdfrwt>
<pdfrwt beam="2">  1       21 0.20507229E+00 0.18589432E+03</pdfrwt>
<totfact> 0.54634218E+03</totfact>
</mgrwt>
</event>
<event>
 4    1  0.1116135E+000  0.2295164E+03  0.7546771E-02  0.1126981E+00
         21   -1    0    0  503  502  0.00000000000E+00  0.00000000000E+00  0.99794619433E+02  0.99794619433E+02  0.00000000000E+00 0.  1.
         21   -1    0    0  501  503 -0.00000000000E+00 -0.00000000000E+00 -0.53345533348E+03  0.53345533348E+03  0.00000000000E+00 0.  1.
          6    1    1    2  501    0 -0.72914911680E+02 -0.13333114125E+03 -0.18440869150E+03  0.29442204923E+03  0.17200000000E+03 0.  1.
         -6    1    1    2    0  502  0.72914911680E+02  0.13333114125E+03 -0.24925202255E+03  0.33882790368E+03  0.17200000000E+03 0.  1.
<mgrwt>
<rscale>  2 0.22951640E+03</rscale>
<asrwt>0</asrwt>
<pdfrwt beam="1">  1       21 0.24948655E-01 0.22951640E+03</pdfrwt>
<pdfrwt beam="2">  1       21 0.13336383E+00 0.22951640E+03</pdfrwt>
<totfact> 0.59923819E+03</totfact>
</mgrwt>
</event>
<event>
 4    1  0.1116135E+000  0.2050303E+03  0.7546771E-02  0.1145563E+00
         21   -1    0    0  501  502  0.00000000000E+00  0.00000000000E+00  0.13007955888E+04  0.13007955888E+04  0.00000000000E+00 0.  1.
         21   -1    0    0  502  503 -0.00000000000E+00 -0.00000000000E+00 -0.37379967497E+02  0.37379967497E+02  0.00000000000E+00 0.  1.
          6    1    1    2  501    0 -0.63336823324E+02 -0.91879711633E+02  0.87795915973E+03  0.90158178817E+03  0.17200000000E+03 0.  1.
         -6    1    1    2    0  503  0.63336823324E+02  0.91879711633E+02  0.38545646154E+03  0.43659376809E+03  0.17200000000E+03 0.  1.
<mgrwt>
<rscale>  2 0.20503033E+03</rscale>
<asrwt>0</asrwt>
<pdfrwt beam="1">  1       21 0.32519875E+00 0.20503033E+03</pdfrwt>
<pdfrwt beam="2">  1       21 0.93449962E-02 0.20503033E+03</pdfrwt>
<totfact> 0.21978099E+03</totfact>
</mgrwt>
</event>
<event>
 4    1  0.1116135E+000  0.2683045E+03  0.7546771E-02  0.1102254E+00
         21   -1    0    0  503  502  0.00000000000E+00  0.00000000000E+00  0.10003255256E+04  0.10003255256E+04  0.00000000000E+00 0. -1.
         21   -1    0    0  501  503 -0.00000000000E+00 -0.00000000000E+00 -0.67676201780E+03  0.67676201780E+03  0.00000000000E+00 0.  1.
          6    1    1    2  501    0  0.22262041890E+02  0.20471377358E+03 -0.63092574060E+03  0.68560529297E+03  0.17200000000E+03 0.  1.
         -6    1    1    2    0  502 -0.22262041890E+02 -0.20471377358E+03  0.95448924835E+03  0.99148225038E+03  0.17200000000E+03 0. -1.
<mgrwt>
<rscale>  2 0.26830454E+03</rscale>
<asrwt>0</asrwt>
<pdfrwt beam="1">  1       21 0.25008138E+00 0.26830454E+03</pdfrwt>
<pdfrwt beam="2">  1       21 0.16919051E+00 0.26830454E+03</pdfrwt>
<totfact> 0.12737144E+01</totfact>
</mgrwt>
</event>
<event>
 4    1  0.1116135E+000  0.2118327E+03  0.7546771E-02  0.1140123E+00
         21   -1    0    0  501  502  0.00000000000E+00  0.00000000000E+00  0.64140568801E+03  0.64140568801E+03  0.00000000000E+00 0.  1.
         21   -1    0    0  502  503 -0.00000000000E+00 -0.00000000000E+00 -0.75790051523E+02  0.75790051523E+02  0.00000000000E+00 0.  1.
          6    1    1    2  501    0  0.20624543711E+02  0.12191689671E+03  0.38226059638E+03  0.43703119460E+03  0.17200000000E+03 0.  1.
         -6    1    1    2    0  503 -0.20624543711E+02 -0.12191689671E+03  0.18335504010E+03  0.28016454493E+03  0.17200000000E+03 0.  1.
<mgrwt>
<rscale>  2 0.21183272E+03</rscale>
<asrwt>0</asrwt>
<pdfrwt beam="1">  1       21 0.16035141E+00 0.21183272E+03</pdfrwt>
<pdfrwt beam="2">  1       21 0.18947515E-01 0.21183272E+03</pdfrwt>
<totfact> 0.62890511E+03</totfact>
</mgrwt>
</event>
<event>
 4    1  0.1116135E+000  0.1866526E+03  0.7546771E-02  0.1161516E+00
         21   -1    0    0  503  502  0.00000000000E+00  0.00000000000E+00  0.66020721748E+02  0.66020721748E+02  0.00000000000E+00 0.  1.
         21   -1    0    0  501  503 -0.00000000000E+00 -0.00000000000E+00 -0.17553630735E+04  0.17553630735E+04  0.00000000000E+00 0.  1.
          6    1    1    2  501    0  0.32907389191E+02  0.64593323715E+02 -0.16062720475E+04  0.16170804199E+04  0.17200000000E+03 0.  1.
         -6    1    1    2    0  502 -0.32907389191E+02 -0.64593323715E+02 -0.83070304202E+02  0.20430337533E+03  0.17200000000E+03 0.  1.
<mgrwt>
<rscale>  2 0.18665260E+03</rscale>
<asrwt>0</asrwt>
<pdfrwt beam="1">  1       21 0.16505180E-01 0.18665260E+03</pdfrwt>
<pdfrwt beam="2">  1       21 0.43884078E+00 0.18665260E+03</pdfrwt>
<totfact> 0.16410957E+02</totfact>
</mgrwt>
</event>
<event>
 4    1  0.1116135E+000  0.2158248E+03  0.7546771E-02  0.1137035E+00
         21   -1    0    0  503  502  0.00000000000E+00  0.00000000000E+00  0.97294259415E+02  0.97294259415E+02  0.00000000000E+00 0. -1.
         21   -1    0    0  501  503 -0.00000000000E+00 -0.00000000000E+00 -0.54954301155E+03  0.54954301155E+03  0.00000000000E+00 0. -1.
          6    1    1    2  501    0 -0.13029830861E+03 -0.43259610686E+01 -0.34219870193E+03  0.40457423888E+03  0.17200000000E+03 0. -1.
         -6    1    1    2    0  502  0.13029830861E+03  0.43259610686E+01 -0.11005005021E+03  0.24226303209E+03  0.17200000000E+03 0. -1.
<mgrwt>
<rscale>  2 0.21582484E+03</rscale>
<asrwt>0</asrwt>
<pdfrwt beam="1">  1       21 0.24323565E-01 0.21582484E+03</pdfrwt>
<pdfrwt beam="2">  1       21 0.13738575E+00 0.21582484E+03</pdfrwt>
<totfact> 0.58874824E+03</totfact>
</mgrwt>
</event>
<event>
 4    1  0.1116135E+000  0.3770265E+03  0.7546771E-02  0.1052038E+00
         21   -1    0    0  501  502  0.00000000000E+00  0.00000000000E+00  0.13897750967E+03  0.13897750967E+03  0.00000000000E+00 0.  1.
         21   -1    0    0  502  503 -0.00000000000E+00 -0.00000000000E+00 -0.13093553524E+04  0.13093553524E+04  0.00000000000E+00 0. -1.
          6    1    1    2  501    0 -0.26020934205E+03 -0.21179256340E+03 -0.92395401061E+03  0.99791783496E+03  0.17200000000E+03 0. -1.
         -6    1    1    2    0  503  0.26020934205E+03  0.21179256340E+03 -0.24642383209E+03  0.45041502709E+03  0.17200000000E+03 0.  1.
<mgrwt>
<rscale>  2 0.37702651E+03</rscale>
<asrwt>0</asrwt>
<pdfrwt beam="1">  1       21 0.34744377E-01 0.37702651E+03</pdfrwt>
<pdfrwt beam="2">  1       21 0.32733884E+00 0.37702651E+03</pdfrwt>
<totfact> 0.15410791E+02</totfact>
</mgrwt>
</event>
<event>
 4    1  0.1116135E+000  0.2084006E+03  0.7546771E-02  0.1142839E+00
         21   -1    0    0  501  502  0.00000000000E+00  0.00000000000E+00  0.31111941153E+03  0.31111941153E+03  0.00000000000E+00 0. -1.
         21   -1    0    0  502  503 -0.00000000000E+00 -0.00000000000E+00 -0.14306454640E+03  0.14306454640E+03  0.00000000000E+00 0.  1.
          6    1    1    2  501    0 -0.11722223887E+03 -0.10284411279E+02  0.11939053643E+03  0.24017685690E+03  0.17200000000E+03 0. -1.
         -6    1    1    2    0  503  0.11722223887E+03  0.10284411279E+02  0.48664328695E+02  0.21400710102E+03  0.17200000000E+03 0.  1.
<mgrwt>
<rscale>  2 0.20840063E+03</rscale>
<asrwt>0</asrwt>
<pdfrwt beam="1">  1       21 0.77779852E-01 0.20840063E+03</pdfrwt>
<pdfrwt beam="2">  1       21 0.35766137E-01 0.20840063E+03</pdfrwt>
<totfact> 0.10929313E+04</totfact>
</mgrwt>
</event>
<event>
 4    1  0.1116135E+000  0.2062174E+03  0.7546771E-02  0.1144597E+00
         21   -1    0    0  503  502  0.00000000000E+00  0.00000000000E+00  0.55252749652E+02  0.55252749652E+02  0.00000000000E+00 0.  1.
         21   -1    0    0  501  503 -0.00000000000E+00 -0.00000000000E+00 -0.17062574051E+04  0.17062574051E+04  0.00000000000E+00 0. -1.
          6    1    1    2  501    0  0.93139056366E+02  0.65320305428E+02 -0.14780469530E+04  0.14923633677E+04  0.17200000000E+03 0. -1.
         -6    1    1    2    0  502 -0.93139056366E+02 -0.65320305428E+02 -0.17295770247E+03  0.26914678702E+03  0.17200000000E+03 0.  1.
<mgrwt>
<rscale>  2 0.20621742E+03</rscale>
<asrwt>0</asrwt>
<pdfrwt beam="1">  1       21 0.13813188E-01 0.20621742E+03</pdfrwt>
<pdfrwt beam="2">  1       21 0.42656433E+00 0.20621742E+03</pdfrwt>
<totfact> 0.26356258E+02</totfact>
</mgrwt>
</event>
<event>
 4    1  0.1116135E+000  0.2160126E+03  0.7546771E-02  0.1136891E+00
         21   -1    0    0  501  502  0.00000000000E+00  0.00000000000E+00  0.46049040864E+03  0.46049040864E+03  0.00000000000E+00 0.  1.
         21   -1    0    0  502  503 -0.00000000000E+00 -0.00000000000E+00 -0.16298084328E+03  0.16298084328E+03  0.00000000000E+00 0. -1.
          6    1    1    2  501    0  0.25159747744E+02 -0.12823585899E+03  0.34048387203E+03  0.40322539050E+03  0.17200000000E+03 0.  1.
         -6    1    1    2    0  503 -0.25159747744E+02  0.12823585899E+03 -0.42974306673E+02  0.22024586142E+03  0.17200000000E+03 0.  1.
<mgrwt>
<rscale>  2 0.21601261E+03</rscale>
<asrwt>0</asrwt>
<pdfrwt beam="1">  1       21 0.11512260E+00 0.21601261E+03</pdfrwt>
<pdfrwt beam="2">  1       21 0.40745212E-01 0.21601261E+03</pdfrwt>
<totfact> 0.33279613E+03</totfact>
</mgrwt>
</event>
<event>
 4    1  0.1116135E+000  0.2326539E+03  0.7546771E-02  0.1124786E+00
         21   -1    0    0  501  502  0.00000000000E+00  0.00000000000E+00  0.85751977301E+02  0.85751977301E+02  0.00000000000E+00 0.  1.
         21   -1    0    0  502  503 -0.00000000000E+00 -0.00000000000E+00 -0.63702952195E+03  0.63702952195E+03  0.00000000000E+00 0.  1.
          6    1    1    2  501    0 -0.47123158388E+02 -0.14940968354E+03 -0.24110906383E+03  0.33505436313E+03  0.17200000000E+03 0.  1.
         -6    1    1    2    0  503  0.47123158388E+02  0.14940968354E+03 -0.31016848081E+03  0.38772713612E+03  0.17200000000E+03 0.  1.
<mgrwt>
<rscale>  2 0.23265392E+03</rscale>
<asrwt>0</asrwt>
<pdfrwt beam="1">  1       21 0.21437995E-01 0.23265392E+03</pdfrwt>
<pdfrwt beam="2">  1       21 0.15925738E+00 0.23265392E+03</pdfrwt>
<totfact> 0.50023526E+03</totfact>
</mgrwt>
</event>
<event>
 4    1  0.1116135E+000  0.1998136E+03  0.7546771E-02  0.1149896E+00
         21   -1    0    0  503  502  0.00000000000E+00  0.00000000000E+00  0.43817221228E+03  0.43817221228E+03  0.00000000000E+00 0.  1.
         21   -1    0    0  501  503 -0.00000000000E+00 -0.00000000000E+00 -0.11457655802E+03  0.11457655802E+03  0.00000000000E+00 0.  1.
          6    1    1    2  501    0  0.29687348530E+02  0.97263131517E+02  0.36743456527E+02  0.20316381817E+03  0.17200000000E+03 0.  1.
         -6    1    1    2    0  502 -0.29687348530E+02 -0.97263131517E+02  0.28685219773E+03  0.34958495213E+03  0.17200000000E+03 0.  1.
<mgrwt>
<rscale>  2 0.19981355E+03</rscale>
<asrwt>0</asrwt>
<pdfrwt beam="1">  1       21 0.10954305E+00 0.19981355E+03</pdfrwt>
<pdfrwt beam="2">  1       21 0.28644141E-01 0.19981355E+03</pdfrwt>
<totfact> 0.76503120E+03</totfact>
</mgrwt>
</event>
<event>
 4    1  0.1116135E+000  0.1853189E+03  0.7546771E-02  0.1162752E+00
         21   -1    0    0  503  502  0.00000000000E+00  0.00000000000E+00  0.69893243071E+03  0.69893243071E+03  0.00000000000E+00 0.  1.
         21   -1    0    0  501  503 -0.00000000000E+00 -0.00000000000E+00 -0.82381978010E+02  0.82381978010E+02  0.00000000000E+00 0.  1.
          6    1    1    2  501    0  0.68886951941E+02 -0.36966246689E+01  0.60107002506E+02  0.19482281420E+03  0.17200000000E+03 0.  1.
         -6    1    1    2    0  502 -0.68886951941E+02  0.36966246689E+01  0.55644345019E+03  0.58649159452E+03  0.17200000000E+03 0.  1.
<mgrwt>
<rscale>  2 0.18531885E+03</rscale>
<asrwt>0</asrwt>
<pdfrwt beam="1">  1       21 0.17473309E+00 0.18531885E+03</pdfrwt>
<pdfrwt beam="2">  1       21 0.20595497E-01 0.18531885E+03</pdfrwt>
<totfact> 0.43501493E+03</totfact>
</mgrwt>
</event>
<event>
 4    1  0.1116135E+000  0.1917644E+03  0.7546771E-02  0.1156879E+00
         21   -1    0    0  503  502  0.00000000000E+00  0.00000000000E+00  0.26683326898E+03  0.26683326898E+03  0.00000000000E+00 0.  1.
         21   -1    0    0  501  503 -0.00000000000E+00 -0.00000000000E+00 -0.13794815222E+03  0.13794815222E+03  0.00000000000E+00 0.  1.
          6    1    1    2  501    0  0.87123127139E+01 -0.84342749654E+02  0.70732524312E+02  0.20439347790E+03  0.17200000000E+03 0.  1.
         -6    1    1    2    0  502 -0.87123127139E+01  0.84342749654E+02  0.58152592451E+02  0.20038794330E+03  0.17200000000E+03 0.  1.
<mgrwt>
<rscale>  2 0.19176445E+03</rscale>
<asrwt>0</asrwt>
<pdfrwt beam="1">  1       21 0.66708316E-01 0.19176445E+03</pdfrwt>
<pdfrwt beam="2">  1       21 0.34487038E-01 0.19176445E+03</pdfrwt>
<totfact> 0.16699215E+04</totfact>
</mgrwt>
</event>
<event>
 4    1  0.1116135E+000  0.2096006E+03  0.7546771E-02  0.1141883E+00
         21   -1    0    0  503  502  0.00000000000E+00  0.00000000000E+00  0.25209325271E+03  0.25209325271E+03  0.00000000000E+00 0.  1.
         21   -1    0    0  501  503 -0.00000000000E+00 -0.00000000000E+00 -0.18317411109E+03  0.18317411109E+03  0.00000000000E+00 0.  1.
          6    1    1    2  501    0 -0.14668689769E+02  0.11888331647E+03  0.82441479728E+02  0.22523101690E+03  0.17200000000E+03 0.  1.
         -6    1    1    2    0  502  0.14668689769E+02 -0.11888331647E+03 -0.13522338105E+02  0.21003634691E+03  0.17200000000E+03 0.  1.
<mgrwt>
<rscale>  2 0.20960060E+03</rscale>
<asrwt>0</asrwt>
<pdfrwt beam="1">  1       21 0.63023313E-01 0.20960060E+03</pdfrwt>
<pdfrwt beam="2">  1       21 0.45793528E-01 0.20960060E+03</pdfrwt>
<totfact> 0.10532862E+04</totfact>
</mgrwt>
</event>
<event>
 4    1  0.1116135E+000  0.1929440E+03  0.7546771E-02  0.1155833E+00
         21   -1    0    0  501  502  0.00000000000E+00  0.00000000000E+00  0.10390363681E+03  0.10390363681E+03  0.00000000000E+00 0.  1.
         21   -1    0    0  502  503 -0.00000000000E+00 -0.00000000000E+00 -0.55968636295E+03  0.55968636295E+03  0.00000000000E+00 0.  1.
          6    1    1    2  501    0  0.69652659624E+02 -0.52838440231E+02 -0.28858046756E+02  0.19509018587E+03  0.17200000000E+03 0.  1.
         -6    1    1    2    0  503 -0.69652659624E+02  0.52838440231E+02 -0.42692467938E+03  0.46849981390E+03  0.17200000000E+03 0.  1.
<mgrwt>
<rscale>  2 0.19294402E+03</rscale>
<asrwt>0</asrwt>
<pdfrwt beam="1">  1       21 0.25975909E-01 0.19294402E+03</pdfrwt>
<pdfrwt beam="2">  1       21 0.13992159E+00 0.19294402E+03</pdfrwt>
<totfact> 0.50434938E+03</totfact>
</mgrwt>
</event>
<event>
 4    1  0.1116135E+000  0.1796954E+03  0.7546771E-02  0.1168098E+00
         21   -1    0    0  501  502  0.00000000000E+00  0.00000000000E+00  0.57918011817E+03  0.57918011817E+03  0.00000000000E+00 0.  1.
         21   -1    0    0  502  503 -0.00000000000E+00 -0.00000000000E+00 -0.59814929233E+02  0.59814929233E+02  0.00000000000E+00 0.  1.
          6    1    1    2  501    0  0.26095222809E+02 -0.45005178677E+02  0.34295180909E+03  0.38717744010E+03  0.17200000000E+03 0.  1.
         -6    1    1    2    0  503 -0.26095222809E+02  0.45005178677E+02  0.17641337985E+03  0.25181760731E+03  0.17200000000E+03 0.  1.
<mgrwt>
<rscale>  2 0.17969537E+03</rscale>
<asrwt>0</asrwt>
<pdfrwt beam="1">  1       21 0.14479501E+00 0.17969537E+03</pdfrwt>
<pdfrwt beam="2">  1       21 0.14953734E-01 0.17969537E+03</pdfrwt>
<totfact> 0.13056749E+04</totfact>
</mgrwt>
</event>
<event>
 4    1  0.1116135E+000  0.1802069E+03  0.7546771E-02  0.1167603E+00
         21   -1    0    0  501  502  0.00000000000E+00  0.00000000000E+00  0.81110645969E+03  0.81110645969E+03  0.00000000000E+00 0.  1.
         21   -1    0    0  502  503 -0.00000000000E+00 -0.00000000000E+00 -0.69414784058E+02  0.69414784058E+02  0.00000000000E+00 0.  1.
          6    1    1    2  501    0 -0.35153118325E+02 -0.40678991378E+02  0.65725774427E+03  0.68151468397E+03  0.17200000000E+03 0.  1.
         -6    1    1    2    0  503  0.35153118325E+02  0.40678991378E+02  0.84433931359E+02  0.19900655977E+03  0.17200000000E+03 0.  1.
<mgrwt>
<rscale>  2 0.18020689E+03</rscale>
<asrwt>0</asrwt>
<pdfrwt beam="1">  1       21 0.20277659E+00 0.18020689E+03</pdfrwt>
<pdfrwt beam="2">  1       21 0.17353699E-01 0.18020689E+03</pdfrwt>
<totfact> 0.39192182E+03</totfact>
</mgrwt>
</event>
<event>
 4    1  0.1116135E+000  0.1888281E+03  0.7546771E-02  0.1159523E+00
         21   -1    0    0  503  502  0.00000000000E+00  0.00000000000E+00  0.12614233998E+03  0.12614233998E+03  0.00000000000E+00 0. -1.
         21   -1    0    0  501  503 -0.00000000000E+00 -0.00000000000E+00 -0.34077776650E+03  0.34077776650E+03  0.00000000000E+00 0. -1.
          6    1    1    2  501    0 -0.68321059114E+02  0.37473958035E+02 -0.20372537310E+03  0.27777705502E+03  0.17200000000E+03 0. -1.
         -6    1    1    2    0  502  0.68321059114E+02 -0.37473958035E+02 -0.10910053418E+02  0.18914305146E+03  0.17200000000E+03 0. -1.
<mgrwt>
<rscale>  2 0.18882814E+03</rscale>
<asrwt>0</asrwt>
<pdfrwt beam="1">  1       21 0.31535585E-01 0.18882814E+03</pdfrwt>
<pdfrwt beam="2">  1       21 0.85194441E-01 0.18882814E+03</pdfrwt>
<totfact> 0.11551351E+04</totfact>
</mgrwt>
</event>
<event>
 4    1  0.1116135E+000  0.1822705E+03  0.7546771E-02  0.1165624E+00
         21   -1    0    0  501  502  0.00000000000E+00  0.00000000000E+00  0.32920336817E+03  0.32920336817E+03  0.00000000000E+00 0. -1.
         21   -1    0    0  502  503 -0.00000000000E+00 -0.00000000000E+00 -0.10109338199E+03  0.10109338199E+03  0.00000000000E+00 0. -1.
          6    1    1    2  501    0 -0.37988645400E+02  0.46855215959E+02  0.10509395808E+03  0.21039792885E+03  0.17200000000E+03 0.  1.
         -6    1    1    2    0  503  0.37988645400E+02 -0.46855215959E+02  0.12301602810E+03  0.21989882131E+03  0.17200000000E+03 0.  1.
<mgrwt>
<rscale>  2 0.18227054E+03</rscale>
<asrwt>0</asrwt>
<pdfrwt beam="1">  1       21 0.82300840E-01 0.18227054E+03</pdfrwt>
<pdfrwt beam="2">  1       21 0.25273346E-01 0.18227054E+03</pdfrwt>
<totfact> 0.19255340E+04</totfact>
</mgrwt>
</event>
<event>
 4    1  0.1116135E+000  0.1752810E+03  0.7546771E-02  0.1172450E+00
         21   -1    0    0  501  502  0.00000000000E+00  0.00000000000E+00  0.96468076917E+03  0.96468076917E+03  0.00000000000E+00 0.  1.
         21   -1    0    0  502  503 -0.00000000000E+00 -0.00000000000E+00 -0.38832905176E+02  0.38832905176E+02  0.00000000000E+00 0.  1.
          6    1    1    2  501    0 -0.31577461644E+02 -0.11928705015E+02  0.67572053463E+03  0.69808428646E+03  0.17200000000E+03 0.  1.
         -6    1    1    2    0  503  0.31577461644E+02  0.11928705015E+02  0.25012732937E+03  0.30542938789E+03  0.17200000000E+03 0.  1.
<mgrwt>
<rscale>  2 0.17528100E+03</rscale>
<asrwt>0</asrwt>
<pdfrwt beam="1">  1       21 0.24117011E+00 0.17528100E+03</pdfrwt>
<pdfrwt beam="2">  1       21 0.97082295E-02 0.17528100E+03</pdfrwt>
<totfact> 0.65253799E+03</totfact>
</mgrwt>
</event>
<event>
 4    1  0.1116135E+000  0.1993647E+03  0.7546771E-02  0.1150276E+00
         21   -1    0    0  503  502  0.00000000000E+00  0.00000000000E+00  0.16852555121E+03  0.16852555121E+03  0.00000000000E+00 0. -1.
         21   -1    0    0  501  503 -0.00000000000E+00 -0.00000000000E+00 -0.24607859442E+03  0.24607859442E+03  0.00000000000E+00 0. -1.
          6    1    1    2  501    0 -0.24757228566E+00 -0.10080791769E+03  0.34934396583E+01  0.19939534017E+03  0.17200000000E+03 0. -1.
         -6    1    1    2    0  502  0.24757228566E+00  0.10080791769E+03 -0.81046482863E+02  0.21520880546E+03  0.17200000000E+03 0. -1.
<mgrwt>
<rscale>  2 0.19936473E+03</rscale>
<asrwt>0</asrwt>
<pdfrwt beam="1">  1       21 0.42131388E-01 0.19936473E+03</pdfrwt>
<pdfrwt beam="2">  1       21 0.61519648E-01 0.19936473E+03</pdfrwt>
<totfact> 0.13254140E+04</totfact>
</mgrwt>
</event>
<event>
 4    1  0.1116135E+000  0.1920422E+03  0.7546771E-02  0.1156632E+00
         21   -1    0    0  501  502  0.00000000000E+00  0.00000000000E+00  0.16960117010E+03  0.16960117010E+03  0.00000000000E+00 0.  1.
         21   -1    0    0  502  503 -0.00000000000E+00 -0.00000000000E+00 -0.30198343809E+03  0.30198343809E+03  0.00000000000E+00 0.  1.
          6    1    1    2  501    0  0.82513631179E+02  0.22084452488E+02  0.58560299717E+02  0.20077233643E+03  0.17200000000E+03 0.  1.
         -6    1    1    2    0  503 -0.82513631179E+02 -0.22084452488E+02 -0.19094256771E+03  0.27081227176E+03  0.17200000000E+03 0.  1.
<mgrwt>
<rscale>  2 0.19204224E+03</rscale>
<asrwt>0</asrwt>
<pdfrwt beam="1">  1       21 0.42400293E-01 0.19204224E+03</pdfrwt>
<pdfrwt beam="2">  1       21 0.75495859E-01 0.19204224E+03</pdfrwt>
<totfact> 0.83888496E+03</totfact>
</mgrwt>
</event>
<event>
 4    1  0.1116135E+000  0.2268901E+03  0.7546771E-02  0.1128848E+00
         21   -1    0    0  503  502  0.00000000000E+00  0.00000000000E+00  0.51600460914E+03  0.51600460914E+03  0.00000000000E+00 0.  1.
         21   -1    0    0  501  503 -0.00000000000E+00 -0.00000000000E+00 -0.10831970889E+03  0.10831970889E+03  0.00000000000E+00 0. -1.
          6    1    1    2  501    0 -0.14781710871E+03  0.67228947188E+01  0.11611524546E+03  0.25487613691E+03  0.17200000000E+03 0. -1.
         -6    1    1    2    0  502  0.14781710871E+03 -0.67228947188E+01  0.29156965478E+03  0.36944818112E+03  0.17200000000E+03 0.  1.
<mgrwt>
<rscale>  2 0.22689005E+03</rscale>
<asrwt>0</asrwt>
<pdfrwt beam="1">  1       21 0.12900115E+00 0.22689005E+03</pdfrwt>
<pdfrwt beam="2">  1       21 0.27079929E-01 0.22689005E+03</pdfrwt>
<totfact> 0.55797797E+03</totfact>
</mgrwt>
</event>
<event>
 4    1  0.1116135E+000  0.2477047E+03  0.7546771E-02  0.1114764E+00
         21   -1    0    0  503  502  0.00000000000E+00  0.00000000000E+00  0.32299409445E+03  0.32299409445E+03  0.00000000000E+00 0. -1.
         21   -1    0    0  501  503 -0.00000000000E+00 -0.00000000000E+00 -0.24048436515E+03  0.24048436515E+03  0.00000000000E+00 0.  1.
          6    1    1    2  501    0 -0.89158238224E+02 -0.15435167207E+03 -0.87876602081E+02  0.26283060573E+03  0.17200000000E+03 0.  1.
         -6    1    1    2    0  502  0.89158238224E+02  0.15435167207E+03  0.17038633139E+03  0.30064785387E+03  0.17200000000E+03 0. -1.
<mgrwt>
<rscale>  2 0.24770472E+03</rscale>
<asrwt>0</asrwt>
<pdfrwt beam="1">  1       21 0.80748523E-01 0.24770472E+03</pdfrwt>
<pdfrwt beam="2">  1       21 0.60121092E-01 0.24770472E+03</pdfrwt>
<totfact> 0.33330822E+03</totfact>
</mgrwt>
</event>
<event>
 4    1  0.1116135E+000  0.2015499E+03  0.7546771E-02  0.1148438E+00
         21   -1    0    0  501  502  0.00000000000E+00  0.00000000000E+00  0.35105379985E+03  0.35105379985E+03  0.00000000000E+00 0.  1.
         21   -1    0    0  502  503 -0.00000000000E+00 -0.00000000000E+00 -0.12430129783E+03  0.12430129783E+03  0.00000000000E+00 0. -1.
          6    1    1    2  501    0 -0.63292464671E+02  0.83859522049E+02  0.50910579875E+02  0.20788035661E+03  0.17200000000E+03 0. -1.
         -6    1    1    2    0  503  0.63292464671E+02 -0.83859522049E+02  0.17584192215E+03  0.26747474107E+03  0.17200000000E+03 0.  1.
<mgrwt>
<rscale>  2 0.20154988E+03</rscale>
<asrwt>0</asrwt>
<pdfrwt beam="1">  1       21 0.87763448E-01 0.20154988E+03</pdfrwt>
<pdfrwt beam="2">  1       21 0.31075325E-01 0.20154988E+03</pdfrwt>
<totfact> 0.11008771E+04</totfact>
</mgrwt>
</event>
<event>
 4    1  0.1116135E+000  0.1775005E+03  0.7546771E-02  0.1170244E+00
         21   -1    0    0  501  502  0.00000000000E+00  0.00000000000E+00  0.20062044353E+03  0.20062044353E+03  0.00000000000E+00 0.  1.
         21   -1    0    0  502  503 -0.00000000000E+00 -0.00000000000E+00 -0.15847318895E+03  0.15847318895E+03  0.00000000000E+00 0.  1.
          6    1    1    2  501    0 -0.43767212620E+02  0.26167734427E+01  0.38119085165E+02  0.18154746227E+03  0.17200000000E+03 0.  1.
         -6    1    1    2    0  503  0.43767212620E+02 -0.26167734427E+01  0.40281694151E+01  0.17754617020E+03  0.17200000000E+03 0.  1.
<mgrwt>
<rscale>  2 0.17750047E+03</rscale>
<asrwt>0</asrwt>
<pdfrwt beam="1">  1       21 0.50155111E-01 0.17750047E+03</pdfrwt>
<pdfrwt beam="2">  1       21 0.39618297E-01 0.17750047E+03</pdfrwt>
<totfact> 0.23454491E+04</totfact>
</mgrwt>
</event>
<event>
 4    1  0.1116135E+000  0.1953672E+03  0.7546771E-02  0.1153708E+00
         21   -1    0    0  503  502  0.00000000000E+00  0.00000000000E+00  0.19201227379E+03  0.19201227379E+03  0.00000000000E+00 0. -1.
         21   -1    0    0  501  503 -0.00000000000E+00 -0.00000000000E+00 -0.37339804190E+03  0.37339804190E+03  0.00000000000E+00 0. -1.
          6    1    1    2  501    0 -0.47937740672E+01 -0.92527590068E+02 -0.28401938649E+03  0.34472503114E+03  0.17200000000E+03 0. -1.
         -6    1    1    2    0  502  0.47937740672E+01  0.92527590068E+02  0.10263361837E+03  0.22068528454E+03  0.17200000000E+03 0. -1.
<mgrwt>
<rscale>  2 0.19536718E+03</rscale>
<asrwt>0</asrwt>
<pdfrwt beam="1">  1       21 0.48003069E-01 0.19536718E+03</pdfrwt>
<pdfrwt beam="2">  1       21 0.93349510E-01 0.19536718E+03</pdfrwt>
<totfact> 0.39937341E+03</totfact>
</mgrwt>
</event>
<event>
 4    1  0.1116135E+000  0.2013732E+03  0.7546771E-02  0.1148586E+00
         21   -1    0    0  501  502  0.00000000000E+00  0.00000000000E+00  0.44793843470E+03  0.44793843470E+03  0.00000000000E+00 0. -1.
         21   -1    0    0  502  503 -0.00000000000E+00 -0.00000000000E+00 -0.14926159138E+03  0.14926159138E+03  0.00000000000E+00 0. -1.
          6    1    1    2  501    0 -0.39263242662E+02 -0.97085380657E+02  0.33664688192E+03  0.39227834056E+03  0.17200000000E+03 0. -1.
         -6    1    1    2    0  503  0.39263242662E+02  0.97085380657E+02 -0.37970038605E+02  0.20492168551E+03  0.17200000000E+03 0. -1.
<mgrwt>
<rscale>  2 0.20137322E+03</rscale>
<asrwt>0</asrwt>
<pdfrwt beam="1">  1       21 0.11198461E+00 0.20137322E+03</pdfrwt>
<pdfrwt beam="2">  1       21 0.37315399E-01 0.20137322E+03</pdfrwt>
<totfact> 0.43009278E+03</totfact>
</mgrwt>
</event>
<event>
 4    1  0.1116135E+000  0.1838136E+03  0.7546771E-02  0.1164162E+00
         21   -1    0    0  503  502  0.00000000000E+00  0.00000000000E+00  0.96654269417E+02  0.96654269417E+02  0.00000000000E+00 0.  1.
         21   -1    0    0  501  503 -0.00000000000E+00 -0.00000000000E+00 -0.61587967969E+03  0.61587967969E+03  0.00000000000E+00 0.  1.
          6    1    1    2  501    0 -0.55215041267E+02 -0.33981237026E+02 -0.49388512810E+03  0.52698192095E+03  0.17200000000E+03 0.  1.
         -6    1    1    2    0  502  0.55215041267E+02  0.33981237026E+02 -0.25340282174E+02  0.18555202816E+03  0.17200000000E+03 0.  1.
<mgrwt>
<rscale>  2 0.18381356E+03</rscale>
<asrwt>0</asrwt>
<pdfrwt beam="1">  1       21 0.24163568E-01 0.18381356E+03</pdfrwt>
<pdfrwt beam="2">  1       21 0.15396992E+00 0.18381356E+03</pdfrwt>
<totfact> 0.45435043E+03</totfact>
</mgrwt>
</event>
<event>
 4    1  0.1116135E+000  0.1888417E+03  0.7546771E-02  0.1159510E+00
         21   -1    0    0  503  502  0.00000000000E+00  0.00000000000E+00  0.97015920392E+02  0.97015920392E+02  0.00000000000E+00 0.  1.
         21   -1    0    0  501  503 -0.00000000000E+00 -0.00000000000E+00 -0.37190444601E+03  0.37190444601E+03  0.00000000000E+00 0. -1.
          6    1    1    2  501    0  0.27518700413E+02 -0.72937666512E+02 -0.11216395286E+03  0.21964046619E+03  0.17200000000E+03 0. -1.
         -6    1    1    2    0  502 -0.27518700413E+02  0.72937666512E+02 -0.16272457275E+03  0.24927990021E+03  0.17200000000E+03 0. -1.
<mgrwt>
<rscale>  2 0.18884169E+03</rscale>
<asrwt>0</asrwt>
<pdfrwt beam="1">  1       21 0.24253980E-01 0.18884169E+03</pdfrwt>
<pdfrwt beam="2">  1       21 0.92976111E-01 0.18884169E+03</pdfrwt>
<totfact> 0.15670447E+04</totfact>
</mgrwt>
</event>
<event>
 4    1  0.1116135E+000  0.2135604E+03  0.7546771E-02  0.1138777E+00
         21   -1    0    0  503  502  0.00000000000E+00  0.00000000000E+00  0.35471007792E+03  0.35471007792E+03  0.00000000000E+00 0. -1.
         21   -1    0    0  501  503 -0.00000000000E+00 -0.00000000000E+00 -0.15038856871E+03  0.15038856871E+03  0.00000000000E+00 0. -1.
          6    1    1    2  501    0  0.83002351610E+02 -0.95575476199E+02  0.19833706039E+03  0.29145437301E+03  0.17200000000E+03 0. -1.
         -6    1    1    2    0  502 -0.83002351610E+02  0.95575476199E+02  0.59844488133E+01  0.21364427362E+03  0.17200000000E+03 0. -1.
<mgrwt>
<rscale>  2 0.21356044E+03</rscale>
<asrwt>0</asrwt>
<pdfrwt beam="1">  1       21 0.88677518E-01 0.21356044E+03</pdfrwt>
<pdfrwt beam="2">  1       21 0.37597143E-01 0.21356044E+03</pdfrwt>
<totfact> 0.73062058E+03</totfact>
</mgrwt>
</event>
<event>
 4    1  0.1116135E+000  0.1962750E+03  0.7546771E-02  0.1152920E+00
         21   -1    0    0  503  502  0.00000000000E+00  0.00000000000E+00  0.68312146890E+02  0.68312146890E+02  0.00000000000E+00 0. -1.
         21   -1    0    0  501  503 -0.00000000000E+00 -0.00000000000E+00 -0.12143927743E+04  0.12143927743E+04  0.00000000000E+00 0. -1.
          6    1    1    2  501    0  0.89104246962E+02  0.31627405356E+02 -0.10424213240E+04  0.10607384580E+04  0.17200000000E+03 0. -1.
         -6    1    1    2    0  502 -0.89104246962E+02 -0.31627405356E+02 -0.10365930344E+03  0.22196646320E+03  0.17200000000E+03 0. -1.
<mgrwt>
<rscale>  2 0.19627496E+03</rscale>
<asrwt>0</asrwt>
<pdfrwt beam="1">  1       21 0.17078037E-01 0.19627496E+03</pdfrwt>
<pdfrwt beam="2">  1       21 0.30359820E+00 0.19627496E+03</pdfrwt>
<totfact> 0.10018937E+03</totfact>
</mgrwt>
</event>
<event>
 4    1  0.1116135E+000  0.1732106E+03  0.7546771E-02  0.1174540E+00
         21   -1    0    0  501  502  0.00000000000E+00  0.00000000000E+00  0.17425178874E+03  0.17425178874E+03  0.00000000000E+00 0.  1.
         21   -1    0    0  502  503 -0.00000000000E+00 -0.00000000000E+00 -0.23525764933E+03  0.23525764933E+03  0.00000000000E+00 0.  1.
          6    1    1    2  501    0 -0.16056950649E+02  0.12652401261E+02  0.75523682613E+02  0.18895961356E+03  0.17200000000E+03 0.  1.
         -6    1    1    2    0  503  0.16056950649E+02 -0.12652401261E+02 -0.13652954321E+03  0.22054982451E+03  0.17200000000E+03 0.  1.
<mgrwt>
<rscale>  2 0.17321059E+03</rscale>
<asrwt>0</asrwt>
<pdfrwt beam="1">  1       21 0.43562947E-01 0.17321059E+03</pdfrwt>
<pdfrwt beam="2">  1       21 0.58814412E-01 0.17321059E+03</pdfrwt>
<totfact> 0.13873136E+04</totfact>
</mgrwt>
</event>
<event>
 4    1  0.1116135E+000  0.2065182E+03  0.7546771E-02  0.1144353E+00
         21   -1    0    0  503  502  0.00000000000E+00  0.00000000000E+00  0.15074059713E+03  0.15074059713E+03  0.00000000000E+00 0. -1.
         21   -1    0    0  501  503 -0.00000000000E+00 -0.00000000000E+00 -0.28516177008E+03  0.28516177008E+03  0.00000000000E+00 0.  1.
          6    1    1    2  501    0 -0.78134600350E+02  0.83431143901E+02 -0.47950254949E+02  0.21201178857E+03  0.17200000000E+03 0. -1.
         -6    1    1    2    0  502  0.78134600350E+02 -0.83431143901E+02 -0.86470918000E+02  0.22389057864E+03  0.17200000000E+03 0.  1.
<mgrwt>
<rscale>  2 0.20651821E+03</rscale>
<asrwt>0</asrwt>
<pdfrwt beam="1">  1       21 0.37685150E-01 0.20651821E+03</pdfrwt>
<pdfrwt beam="2">  1       21 0.71290442E-01 0.20651821E+03</pdfrwt>
<totfact> 0.11974514E+04</totfact>
</mgrwt>
</event>
<event>
 4    1  0.1116135E+000  0.1847307E+03  0.7546771E-02  0.1163302E+00
         21   -1    0    0  501  502  0.00000000000E+00  0.00000000000E+00  0.37674814141E+03  0.37674814141E+03  0.00000000000E+00 0.  1.
         21   -1    0    0  502  503 -0.00000000000E+00 -0.00000000000E+00 -0.14407767179E+03  0.14407767179E+03  0.00000000000E+00 0.  1.
          6    1    1    2  501    0  0.52807797165E+02 -0.41866256082E+02  0.27502024804E+03  0.33130285793E+03  0.17200000000E+03 0.  1.
         -6    1    1    2    0  503 -0.52807797165E+02  0.41866256082E+02 -0.42349778420E+02  0.18952295526E+03  0.17200000000E+03 0.  1.
<mgrwt>
<rscale>  2 0.18473074E+03</rscale>
<asrwt>0</asrwt>
<pdfrwt beam="1">  1       21 0.94187033E-01 0.18473074E+03</pdfrwt>
<pdfrwt beam="2">  1       21 0.36019419E-01 0.18473074E+03</pdfrwt>
<totfact> 0.70668805E+03</totfact>
</mgrwt>
</event>
<event>
 4    1  0.1116135E+000  0.1816891E+03  0.7546771E-02  0.1166178E+00
         21   -1    0    0  501  502  0.00000000000E+00  0.00000000000E+00  0.12072642937E+04  0.12072642937E+04  0.00000000000E+00 0. -1.
         21   -1    0    0  502  503 -0.00000000000E+00 -0.00000000000E+00 -0.28475844126E+02  0.28475844126E+02  0.00000000000E+00 0. -1.
          6    1    1    2  501    0  0.43377849117E+02 -0.39310344543E+02  0.71259987719E+03  0.73539752920E+03  0.17200000000E+03 0. -1.
         -6    1    1    2    0  503 -0.43377849117E+02  0.39310344543E+02  0.46618857234E+03  0.50034260858E+03  0.17200000000E+03 0. -1.
<mgrwt>
<rscale>  2 0.18168913E+03</rscale>
<asrwt>0</asrwt>
<pdfrwt beam="1">  1       21 0.30181590E+00 0.18168913E+03</pdfrwt>
<pdfrwt beam="2">  1       21 0.71189651E-02 0.18168913E+03</pdfrwt>
<totfact> 0.49609830E+03</totfact>
</mgrwt>
</event>
<event>
 4    1  0.1116135E+000  0.1979259E+03  0.7546771E-02  0.1151501E+00
         21   -1    0    0  501  502  0.00000000000E+00  0.00000000000E+00  0.35344014739E+03  0.35344014739E+03  0.00000000000E+00 0. -1.
         21   -1    0    0  502  503 -0.00000000000E+00 -0.00000000000E+00 -0.12036498191E+03  0.12036498191E+03  0.00000000000E+00 0. -1.
          6    1    1    2  501    0 -0.33493564962E+01  0.97874692842E+02  0.18318641464E+03  0.26968859115E+03  0.17200000000E+03 0. -1.
         -6    1    1    2    0  503  0.33493564962E+01 -0.97874692842E+02  0.49888750833E+02  0.20411653815E+03  0.17200000000E+03 0. -1.
<mgrwt>
<rscale>  2 0.19792593E+03</rscale>
<asrwt>0</asrwt>
<pdfrwt beam="1">  1       21 0.88360035E-01 0.19792593E+03</pdfrwt>
<pdfrwt beam="2">  1       21 0.30091246E-01 0.19792593E+03</pdfrwt>
<totfact> 0.11570513E+04</totfact>
</mgrwt>
</event>
<event>
 4    1  0.1116135E+000  0.1944844E+03  0.7546771E-02  0.1154478E+00
         21   -1    0    0  503  502  0.00000000000E+00  0.00000000000E+00  0.22781763884E+03  0.22781763884E+03  0.00000000000E+00 0.  1.
         21   -1    0    0  501  503 -0.00000000000E+00 -0.00000000000E+00 -0.30067146308E+03  0.30067146308E+03  0.00000000000E+00 0.  1.
          6    1    1    2  501    0 -0.10127436656E+01  0.90769900674E+02  0.14040144384E+03  0.23986822622E+03  0.17200000000E+03 0.  1.
         -6    1    1    2    0  502  0.10127436656E+01 -0.90769900674E+02 -0.21325526809E+03  0.28862087569E+03  0.17200000000E+03 0.  1.
<mgrwt>
<rscale>  2 0.19448445E+03</rscale>
<asrwt>0</asrwt>
<pdfrwt beam="1">  1       21 0.56954410E-01 0.19448445E+03</pdfrwt>
<pdfrwt beam="2">  1       21 0.75167866E-01 0.19448445E+03</pdfrwt>
<totfact> 0.45757742E+03</totfact>
</mgrwt>
</event>
<event>
 4    1  0.1116135E+000  0.1845198E+03  0.7546771E-02  0.1163499E+00
         21   -1    0    0  501  502  0.00000000000E+00  0.00000000000E+00  0.11665012493E+04  0.11665012493E+04  0.00000000000E+00 0.  1.
         21   -1    0    0  502  503 -0.00000000000E+00 -0.00000000000E+00 -0.30435881696E+02  0.30435881696E+02  0.00000000000E+00 0. -1.
          6    1    1    2  501    0  0.65480683564E+02 -0.13259710368E+02  0.68922627383E+03  0.71349870104E+03  0.17200000000E+03 0.  1.
         -6    1    1    2    0  503 -0.65480683564E+02  0.13259710368E+02  0.44683909376E+03  0.48343842995E+03  0.17200000000E+03 0. -1.
<mgrwt>
<rscale>  2 0.18451975E+03</rscale>
<asrwt>0</asrwt>
<pdfrwt beam="1">  1       21 0.29162516E+00 0.18451975E+03</pdfrwt>
<pdfrwt beam="2">  1       21 0.76089743E-02 0.18451975E+03</pdfrwt>
<totfact> 0.50411868E+03</totfact>
</mgrwt>
</event>
<event>
 4    1  0.1116135E+000  0.1745880E+03  0.7546771E-02  0.1173146E+00
         21   -1    0    0  503  502  0.00000000000E+00  0.00000000000E+00  0.98837775060E+03  0.98837775060E+03  0.00000000000E+00 0. -1.
         21   -1    0    0  501  503 -0.00000000000E+00 -0.00000000000E+00 -0.43971957131E+02  0.43971957131E+02  0.00000000000E+00 0. -1.
          6    1    1    2  501    0  0.29945021794E+02 -0.50853514965E+00  0.19011540650E+03  0.25811786208E+03  0.17200000000E+03 0. -1.
         -6    1    1    2    0  502 -0.29945021794E+02  0.50853514965E+00  0.75429038697E+03  0.77423184564E+03  0.17200000000E+03 0. -1.
<mgrwt>
<rscale>  2 0.17458798E+03</rscale>
<asrwt>0</asrwt>
<pdfrwt beam="1">  1       21 0.24709437E+00 0.17458798E+03</pdfrwt>
<pdfrwt beam="2">  1       21 0.10992993E-01 0.17458798E+03</pdfrwt>
<totfact> 0.48389515E+03</totfact>
</mgrwt>
</event>
<event>
 4    1  0.1116135E+000  0.1913656E+03  0.7546771E-02  0.1157235E+00
         21   -1    0    0  503  502  0.00000000000E+00  0.00000000000E+00  0.70759773390E+03  0.70759773390E+03  0.00000000000E+00 0. -1.
         21   -1    0    0  501  503 -0.00000000000E+00 -0.00000000000E+00 -0.71235805252E+02  0.71235805252E+02  0.00000000000E+00 0. -1.
          6    1    1    2  501    0 -0.44632869428E+01  0.83766880908E+02  0.11453150604E+03  0.22302079980E+03  0.17200000000E+03 0. -1.
         -6    1    1    2    0  502  0.44632869428E+01 -0.83766880908E+02  0.52183042261E+03  0.55581273936E+03  0.17200000000E+03 0. -1.
<mgrwt>
<rscale>  2 0.19136565E+03</rscale>
<asrwt>0</asrwt>
<pdfrwt beam="1">  1       21 0.17689941E+00 0.19136565E+03</pdfrwt>
<pdfrwt beam="2">  1       21 0.17808953E-01 0.19136565E+03</pdfrwt>
<totfact> 0.54775431E+03</totfact>
</mgrwt>
</event>
<event>
 4    1  0.1116135E+000  0.2437968E+03  0.7546771E-02  0.1117289E+00
         21   -1    0    0  503  502  0.00000000000E+00  0.00000000000E+00  0.28406152549E+03  0.28406152549E+03  0.00000000000E+00 0.  1.
         21   -1    0    0  501  503 -0.00000000000E+00 -0.00000000000E+00 -0.26844461784E+03  0.26844461784E+03  0.00000000000E+00 0.  1.
          6    1    1    2  501    0  0.93730589304E+02  0.14514624674E+03  0.13754425711E+03  0.27992012964E+03  0.17200000000E+03 0.  1.
         -6    1    1    2    0  502 -0.93730589304E+02 -0.14514624674E+03 -0.12192734946E+03  0.27258601369E+03  0.17200000000E+03 0.  1.
<mgrwt>
<rscale>  2 0.24379675E+03</rscale>
<asrwt>0</asrwt>
<pdfrwt beam="1">  1       21 0.71015381E-01 0.24379675E+03</pdfrwt>
<pdfrwt beam="2">  1       21 0.67111154E-01 0.24379675E+03</pdfrwt>
<totfact> 0.35103982E+03</totfact>
</mgrwt>
</event>
<event>
 4    1  0.1116135E+000  0.1728879E+03  0.7546771E-02  0.1174869E+00
         21   -1    0    0  501  502  0.00000000000E+00  0.00000000000E+00  0.99948821283E+02  0.99948821283E+02  0.00000000000E+00 0. -1.
         21   -1    0    0  502  503 -0.00000000000E+00 -0.00000000000E+00 -0.84915648337E+03  0.84915648337E+03  0.00000000000E+00 0. -1.
          6    1    1    2  501    0 -0.40246694991E+01  0.17029739344E+02  0.73508949401E+01  0.17304405694E+03  0.17200000000E+03 0. -1.
         -6    1    1    2    0  503  0.40246694991E+01 -0.17029739344E+02 -0.75655855702E+03  0.77606124771E+03  0.17200000000E+03 0. -1.
<mgrwt>
<rscale>  2 0.17288785E+03</rscale>
<asrwt>0</asrwt>
<pdfrwt beam="1">  1       21 0.24987205E-01 0.17288785E+03</pdfrwt>
<pdfrwt beam="2">  1       21 0.21228912E+00 0.17288785E+03</pdfrwt>
<totfact> 0.17409294E+03</totfact>
</mgrwt>
</event>
<event>
 4    1  0.1116135E+000  0.2027687E+03  0.7546771E-02  0.1147424E+00
         21   -1    0    0  501  502  0.00000000000E+00  0.00000000000E+00  0.15283985631E+03  0.15283985631E+03  0.00000000000E+00 0.  1.
         21   -1    0    0  502  503 -0.00000000000E+00 -0.00000000000E+00 -0.42902360733E+03  0.42902360733E+03  0.00000000000E+00 0.  1.
          6    1    1    2  501    0  0.75318878697E+02 -0.76539071568E+02  0.39585242575E+02  0.20659659822E+03  0.17200000000E+03 0.  1.
         -6    1    1    2    0  503 -0.75318878697E+02  0.76539071568E+02 -0.31576899360E+03  0.37526686542E+03  0.17200000000E+03 0.  1.
<mgrwt>
<rscale>  2 0.20276874E+03</rscale>
<asrwt>0</asrwt>
<pdfrwt beam="1">  1       21 0.38209964E-01 0.20276874E+03</pdfrwt>
<pdfrwt beam="2">  1       21 0.10725590E+00 0.20276874E+03</pdfrwt>
<totfact> 0.45479866E+03</totfact>
</mgrwt>
</event>
<event>
 4    1  0.1116135E+000  0.2252659E+03  0.7546771E-02  0.1130017E+00
         21   -1    0    0  503  502  0.00000000000E+00  0.00000000000E+00  0.20783010659E+03  0.20783010659E+03  0.00000000000E+00 0.  1.
         21   -1    0    0  501  503 -0.00000000000E+00 -0.00000000000E+00 -0.25811308130E+03  0.25811308130E+03  0.00000000000E+00 0.  1.
          6    1    1    2  501    0  0.14066651239E+03 -0.37062709120E+02  0.29016763101E+02  0.22712702317E+03  0.17200000000E+03 0.  1.
         -6    1    1    2    0  502 -0.14066651239E+03  0.37062709120E+02 -0.79299737811E+02  0.23881616472E+03  0.17200000000E+03 0.  1.
<mgrwt>
<rscale>  2 0.22526587E+03</rscale>
<asrwt>0</asrwt>
<pdfrwt beam="1">  1       21 0.51957527E-01 0.22526587E+03</pdfrwt>
<pdfrwt beam="2">  1       21 0.64528270E-01 0.22526587E+03</pdfrwt>
<totfact> 0.76124916E+03</totfact>
</mgrwt>
</event>
<event>
 4    1  0.1116135E+000  0.2596163E+03  0.7546771E-02  0.1107374E+00
         21   -1    0    0  501  502  0.00000000000E+00  0.00000000000E+00  0.91118598790E+02  0.91118598790E+02  0.00000000000E+00 0. -1.
         21   -1    0    0  502  503 -0.00000000000E+00 -0.00000000000E+00 -0.75889678351E+03  0.75889678351E+03  0.00000000000E+00 0.  1.
          6    1    1    2  501    0  0.18418406154E+03  0.62392876714E+02 -0.26629739710E+03  0.37190717026E+03  0.17200000000E+03 0.  1.
         -6    1    1    2    0  503 -0.18418406154E+03 -0.62392876714E+02 -0.40148078762E+03  0.47810821204E+03  0.17200000000E+03 0.  1.
<mgrwt>
<rscale>  2 0.25961633E+03</rscale>
<asrwt>0</asrwt>
<pdfrwt beam="1">  1       21 0.22779650E-01 0.25961633E+03</pdfrwt>
<pdfrwt beam="2">  1       21 0.18972419E+00 0.25961633E+03</pdfrwt>
<totfact> 0.26725530E+03</totfact>
</mgrwt>
</event>
<event>
 4    1  0.1116135E+000  0.1952597E+03  0.7546771E-02  0.1153801E+00
         21   -1    0    0  501  502  0.00000000000E+00  0.00000000000E+00  0.10316600374E+03  0.10316600374E+03  0.00000000000E+00 0. -1.
         21   -1    0    0  502  503 -0.00000000000E+00 -0.00000000000E+00 -0.49494458234E+03  0.49494458234E+03  0.00000000000E+00 0. -1.
          6    1    1    2  501    0 -0.88108815811E+02  0.27914034107E+02 -0.45370830683E+02  0.20046163972E+03  0.17200000000E+03 0. -1.
         -6    1    1    2    0  503  0.88108815811E+02 -0.27914034107E+02 -0.34640774792E+03  0.39764894636E+03  0.17200000000E+03 0. -1.
<mgrwt>
<rscale>  2 0.19525972E+03</rscale>
<asrwt>0</asrwt>
<pdfrwt beam="1">  1       21 0.25791501E-01 0.19525972E+03</pdfrwt>
<pdfrwt beam="2">  1       21 0.12373614E+00 0.19525972E+03</pdfrwt>
<totfact> 0.69686257E+03</totfact>
</mgrwt>
</event>
<event>
 4    1  0.1116135E+000  0.1994070E+03  0.7546771E-02  0.1150240E+00
         21   -1    0    0  501  502  0.00000000000E+00  0.00000000000E+00  0.54711726500E+03  0.54711726500E+03  0.00000000000E+00 0. -1.
         21   -1    0    0  502  503 -0.00000000000E+00 -0.00000000000E+00 -0.77040354396E+02  0.77040354396E+02  0.00000000000E+00 0.  1.
          6    1    1    2  501    0 -0.19987886663E+02 -0.98892063314E+02  0.30930390161E+03  0.36801095004E+03  0.17200000000E+03 0. -1.
         -6    1    1    2    0  503  0.19987886663E+02  0.98892063314E+02  0.16077300899E+03  0.25614666935E+03  0.17200000000E+03 0. -1.
<mgrwt>
<rscale>  2 0.19940701E+03</rscale>
<asrwt>0</asrwt>
<pdfrwt beam="1">  1       21 0.13677930E+00 0.19940701E+03</pdfrwt>
<pdfrwt beam="2">  1       21 0.19260090E-01 0.19940701E+03</pdfrwt>
<totfact> 0.93614277E+03</totfact>
</mgrwt>
</event>
<event>
 4    1  0.1116135E+000  0.1958953E+03  0.7546771E-02  0.1153249E+00
         21   -1    0    0  501  502  0.00000000000E+00  0.00000000000E+00  0.69512165119E+03  0.69512165119E+03  0.00000000000E+00 0.  1.
         21   -1    0    0  502  503 -0.00000000000E+00 -0.00000000000E+00 -0.12868283088E+03  0.12868283088E+03  0.00000000000E+00 0.  1.
          6    1    1    2  501    0  0.97429217229E+01  0.93252585596E+02  0.59446894100E+03  0.62591396458E+03  0.17200000000E+03 0.  1.
         -6    1    1    2    0  503 -0.97429217229E+01 -0.93252585596E+02 -0.28030120689E+02  0.19789051748E+03  0.17200000000E+03 0.  1.
<mgrwt>
<rscale>  2 0.19589530E+03</rscale>
<asrwt>0</asrwt>
<pdfrwt beam="1">  1       21 0.17378040E+00 0.19589530E+03</pdfrwt>
<pdfrwt beam="2">  1       21 0.32170710E-01 0.19589530E+03</pdfrwt>
<totfact> 0.18603339E+03</totfact>
</mgrwt>
</event>
<event>
 4    1  0.1116135E+000  0.1835985E+03  0.7546771E-02  0.1164365E+00
         21   -1    0    0  503  502  0.00000000000E+00  0.00000000000E+00  0.10623972547E+03  0.10623972547E+03  0.00000000000E+00 0.  1.
         21   -1    0    0  501  503 -0.00000000000E+00 -0.00000000000E+00 -0.36428335162E+03  0.36428335162E+03  0.00000000000E+00 0.  1.
          6    1    1    2  501    0 -0.23340611542E+02  0.59830042959E+02 -0.21352365891E+03  0.28160392594E+03  0.17200000000E+03 0.  1.
         -6    1    1    2    0  502  0.23340611542E+02 -0.59830042959E+02 -0.44519967235E+02  0.18891915115E+03  0.17200000000E+03 0.  1.
<mgrwt>
<rscale>  2 0.18359852E+03</rscale>
<asrwt>0</asrwt>
<pdfrwt beam="1">  1       21 0.26559932E-01 0.18359852E+03</pdfrwt>
<pdfrwt beam="2">  1       21 0.91070837E-01 0.18359852E+03</pdfrwt>
<totfact> 0.13870323E+04</totfact>
</mgrwt>
</event>
<event>
 4    1  0.1116135E+000  0.2752162E+03  0.7546771E-02  0.1098331E+00
         21   -1    0    0  503  502  0.00000000000E+00  0.00000000000E+00  0.74300470627E+03  0.74300470627E+03  0.00000000000E+00 0.  1.
         21   -1    0    0  501  503 -0.00000000000E+00 -0.00000000000E+00 -0.18652449483E+03  0.18652449483E+03  0.00000000000E+00 0.  1.
          6    1    1    2  501    0 -0.11859690242E+03 -0.17915001982E+03 -0.34730380652E+02  0.27739890808E+03  0.17200000000E+03 0.  1.
         -6    1    1    2    0  502  0.11859690242E+03  0.17915001982E+03  0.59121059210E+03  0.65213029302E+03  0.17200000000E+03 0.  1.
<mgrwt>
<rscale>  2 0.27521620E+03</rscale>
<asrwt>0</asrwt>
<pdfrwt beam="1">  1       21 0.18575117E+00 0.27521620E+03</pdfrwt>
<pdfrwt beam="2">  1       21 0.46631126E-01 0.27521620E+03</pdfrwt>
<totfact> 0.67656401E+02</totfact>
</mgrwt>
</event>
<event>
 4    1  0.1116135E+000  0.2042360E+03  0.7546771E-02  0.1146213E+00
         21   -1    0    0  501  502  0.00000000000E+00  0.00000000000E+00  0.20038033770E+03  0.20038033770E+03  0.00000000000E+00 0.  1.
         21   -1    0    0  502  503 -0.00000000000E+00 -0.00000000000E+00 -0.40302572678E+03  0.40302572678E+03  0.00000000000E+00 0.  1.
          6    1    1    2  501    0  0.12102264003E+02 -0.10946184313E+03  0.10846229463E+03  0.23124971190E+03  0.17200000000E+03 0.  1.
         -6    1    1    2    0  503 -0.12102264003E+02  0.10946184313E+03 -0.31110768372E+03  0.37215635258E+03  0.17200000000E+03 0.  1.
<mgrwt>
<rscale>  2 0.20423604E+03</rscale>
<asrwt>0</asrwt>
<pdfrwt beam="1">  1       21 0.50095085E-01 0.20423604E+03</pdfrwt>
<pdfrwt beam="2">  1       21 0.10075643E+00 0.20423604E+03</pdfrwt>
<totfact> 0.30304684E+03</totfact>
</mgrwt>
</event>
<event>
 4    1  0.1116135E+000  0.1783698E+03  0.7546771E-02  0.1169390E+00
         21   -1    0    0  503  502  0.00000000000E+00  0.00000000000E+00  0.21423306516E+03  0.21423306516E+03  0.00000000000E+00 0. -1.
         21   -1    0    0  501  503 -0.00000000000E+00 -0.00000000000E+00 -0.17634508335E+03  0.17634508335E+03  0.00000000000E+00 0.  1.
          6    1    1    2  501    0  0.11974015480E+01  0.47226624827E+02  0.96531399077E+02  0.20281543055E+03  0.17200000000E+03 0. -1.
         -6    1    1    2    0  502 -0.11974015480E+01 -0.47226624827E+02 -0.58643417270E+02  0.18776271795E+03  0.17200000000E+03 0.  1.
<mgrwt>
<rscale>  2 0.17836981E+03</rscale>
<asrwt>0</asrwt>
<pdfrwt beam="1">  1       21 0.53558266E-01 0.17836981E+03</pdfrwt>
<pdfrwt beam="2">  1       21 0.44086271E-01 0.17836981E+03</pdfrwt>
<totfact> 0.16451368E+04</totfact>
</mgrwt>
</event>
<event>
 4    1  0.1116135E+000  0.1851367E+03  0.7546771E-02  0.1162922E+00
         21   -1    0    0  501  502  0.00000000000E+00  0.00000000000E+00  0.40239903169E+03  0.40239903169E+03  0.00000000000E+00 0.  1.
         21   -1    0    0  502  503 -0.00000000000E+00 -0.00000000000E+00 -0.19602291592E+03  0.19602291592E+03  0.00000000000E+00 0. -1.
          6    1    1    2  501    0  0.66650034342E+02 -0.15791635447E+02  0.32818763468E+03  0.37680595323E+03  0.17200000000E+03 0.  1.
         -6    1    1    2    0  503 -0.66650034342E+02  0.15791635447E+02 -0.12181151892E+03  0.22161599439E+03  0.17200000000E+03 0. -1.
<mgrwt>
<rscale>  2 0.18513671E+03</rscale>
<asrwt>0</asrwt>
<pdfrwt beam="1">  1       21 0.10059976E+00 0.18513671E+03</pdfrwt>
<pdfrwt beam="2">  1       21 0.49005730E-01 0.18513671E+03</pdfrwt>
<totfact> 0.32365842E+03</totfact>
</mgrwt>
</event>
<event>
 4    1  0.1116135E+000  0.2487822E+03  0.7546771E-02  0.1114077E+00
         21   -1    0    0  501  502  0.00000000000E+00  0.00000000000E+00  0.10621658467E+04  0.10621658467E+04  0.00000000000E+00 0.  1.
         21   -1    0    0  502  503 -0.00000000000E+00 -0.00000000000E+00 -0.67005293858E+02  0.67005293858E+02  0.00000000000E+00 0.  1.
          6    1    1    2  501    0  0.15594034759E+03  0.89393336273E+02  0.70143008537E+03  0.74424238339E+03  0.17200000000E+03 0.  1.
         -6    1    1    2    0  503 -0.15594034759E+03 -0.89393336273E+02  0.29373046751E+03  0.38492875720E+03  0.17200000000E+03 0.  1.
<mgrwt>
<rscale>  2 0.24878215E+03</rscale>
<asrwt>0</asrwt>
<pdfrwt beam="1">  1       21 0.26554141E+00 0.24878215E+03</pdfrwt>
<pdfrwt beam="2">  1       21 0.16751327E-01 0.24878215E+03</pdfrwt>
<totfact> 0.16284171E+03</totfact>
</mgrwt>
</event>
<event>
 4    1  0.1116135E+000  0.2550036E+03  0.7546771E-02  0.1110183E+00
         21   -1    0    0  503  502  0.00000000000E+00  0.00000000000E+00  0.16762313025E+03  0.16762313025E+03  0.00000000000E+00 0. -1.
         21   -1    0    0  501  503 -0.00000000000E+00 -0.00000000000E+00 -0.80425831800E+03  0.80425831800E+03  0.00000000000E+00 0.  1.
          6    1    1    2  501    0 -0.16759440804E+03 -0.85760951883E+02 -0.66794144115E+03  0.71496335240E+03  0.17200000000E+03 0.  1.
         -6    1    1    2    0  502  0.16759440804E+03  0.85760951883E+02  0.31306253396E+02  0.25691809585E+03  0.17200000000E+03 0. -1.
<mgrwt>
<rscale>  2 0.25500358E+03</rscale>
<asrwt>0</asrwt>
<pdfrwt beam="1">  1       21 0.41905783E-01 0.25500358E+03</pdfrwt>
<pdfrwt beam="2">  1       21 0.20106458E+00 0.25500358E+03</pdfrwt>
<totfact> 0.67929603E+02</totfact>
</mgrwt>
</event>
<event>
 4    1  0.1116135E+000  0.1812854E+03  0.7546771E-02  0.1166565E+00
         21   -1    0    0  503  502  0.00000000000E+00  0.00000000000E+00  0.35134755696E+03  0.35134755696E+03  0.00000000000E+00 0. -1.
         21   -1    0    0  501  503 -0.00000000000E+00 -0.00000000000E+00 -0.99115136418E+02  0.99115136418E+02  0.00000000000E+00 0. -1.
          6    1    1    2  501    0 -0.25003860390E+02 -0.51528488469E+02  0.17954324977E+03  0.25514732352E+03  0.17200000000E+03 0. -1.
         -6    1    1    2    0  502  0.25003860390E+02  0.51528488469E+02  0.72689170773E+02  0.19531536987E+03  0.17200000000E+03 0. -1.
<mgrwt>
<rscale>  2 0.18128535E+03</rscale>
<asrwt>0</asrwt>
<pdfrwt beam="1">  1       21 0.87836886E-01 0.18128535E+03</pdfrwt>
<pdfrwt beam="2">  1       21 0.24778785E-01 0.18128535E+03</pdfrwt>
<totfact> 0.17242952E+04</totfact>
</mgrwt>
</event>
<event>
 4    1  0.1116135E+000  0.2047915E+03  0.7546771E-02  0.1145758E+00
         21   -1    0    0  501  502  0.00000000000E+00  0.00000000000E+00  0.66505623525E+02  0.66505623525E+02  0.00000000000E+00 0.  1.
         21   -1    0    0  502  503 -0.00000000000E+00 -0.00000000000E+00 -0.63978428304E+03  0.63978428304E+03  0.00000000000E+00 0.  1.
          6    1    1    2  501    0  0.73624850972E+02 -0.83276383019E+02 -0.24436689100E+03  0.31883342370E+03  0.17200000000E+03 0.  1.
         -6    1    1    2    0  503 -0.73624850972E+02  0.83276383019E+02 -0.32891176852E+03  0.38745648287E+03  0.17200000000E+03 0.  1.
<mgrwt>
<rscale>  2 0.20479154E+03</rscale>
<asrwt>0</asrwt>
<pdfrwt beam="1">  1       21 0.16626406E-01 0.20479154E+03</pdfrwt>
<pdfrwt beam="2">  1       21 0.15994607E+00 0.20479154E+03</pdfrwt>
<totfact> 0.81086308E+03</totfact>
</mgrwt>
</event>
<event>
 4    1  0.1116135E+000  0.1860024E+03  0.7546771E-02  0.1162117E+00
         21   -1    0    0  501  502  0.00000000000E+00  0.00000000000E+00  0.44482494903E+03  0.44482494903E+03  0.00000000000E+00 0. -1.
         21   -1    0    0  502  503 -0.00000000000E+00 -0.00000000000E+00 -0.26259711132E+03  0.26259711132E+03  0.00000000000E+00 0.  1.
          6    1    1    2  501    0  0.12238539129E+02  0.69735994124E+02  0.38785585753E+03  0.43015004003E+03  0.17200000000E+03 0. -1.
         -6    1    1    2    0  503 -0.12238539129E+02 -0.69735994124E+02 -0.20562801982E+03  0.27727202032E+03  0.17200000000E+03 0.  1.
<mgrwt>
<rscale>  2 0.18600239E+03</rscale>
<asrwt>0</asrwt>
<pdfrwt beam="1">  1       21 0.11120624E+00 0.18600239E+03</pdfrwt>
<pdfrwt beam="2">  1       21 0.65649278E-01 0.18600239E+03</pdfrwt>
<totfact> 0.13655576E+03</totfact>
</mgrwt>
</event>
<event>
 4    1  0.1116135E+000  0.1844906E+03  0.7546771E-02  0.1163526E+00
         21   -1    0    0  503  502  0.00000000000E+00  0.00000000000E+00  0.22808241096E+03  0.22808241096E+03  0.00000000000E+00 0.  1.
         21   -1    0    0  501  503 -0.00000000000E+00 -0.00000000000E+00 -0.16399238497E+03  0.16399238497E+03  0.00000000000E+00 0. -1.
          6    1    1    2  501    0  0.61251669093E+02  0.26476719536E+02 -0.26771926174E+02  0.18642295909E+03  0.17200000000E+03 0. -1.
         -6    1    1    2    0  502 -0.61251669093E+02 -0.26476719536E+02  0.90861952167E+02  0.20565183684E+03  0.17200000000E+03 0.  1.
<mgrwt>
<rscale>  2 0.18449061E+03</rscale>
<asrwt>0</asrwt>
<pdfrwt beam="1">  1       21 0.57020602E-01 0.18449061E+03</pdfrwt>
<pdfrwt beam="2">  1       21 0.40998096E-01 0.18449061E+03</pdfrwt>
<totfact> 0.16640722E+04</totfact>
</mgrwt>
</event>
<event>
 4    1  0.1116135E+000  0.2144309E+03  0.7546771E-02  0.1138104E+00
         21   -1    0    0  501  502  0.00000000000E+00  0.00000000000E+00  0.48097554759E+03  0.48097554759E+03  0.00000000000E+00 0. -1.
         21   -1    0    0  502  503 -0.00000000000E+00 -0.00000000000E+00 -0.11132539078E+03  0.11132539078E+03  0.00000000000E+00 0.  1.
          6    1    1    2  501    0  0.76881067000E+02  0.10240072918E+03  0.29613524309E+03  0.36561822985E+03  0.17200000000E+03 0. -1.
         -6    1    1    2    0  503 -0.76881067000E+02 -0.10240072918E+03  0.73514913718E+02  0.22668270851E+03  0.17200000000E+03 0.  1.
<mgrwt>
<rscale>  2 0.21443089E+03</rscale>
<asrwt>0</asrwt>
<pdfrwt beam="1">  1       21 0.12024388E+00 0.21443089E+03</pdfrwt>
<pdfrwt beam="2">  1       21 0.27831349E-01 0.21443089E+03</pdfrwt>
<totfact> 0.63708099E+03</totfact>
</mgrwt>
</event>
<event>
 4    1  0.1116135E+000  0.1722120E+03  0.7546771E-02  0.1175561E+00
         21   -1    0    0  503  502  0.00000000000E+00  0.00000000000E+00  0.48440170979E+03  0.48440170979E+03  0.00000000000E+00 0. -1.
         21   -1    0    0  501  503 -0.00000000000E+00 -0.00000000000E+00 -0.64136988563E+02  0.64136988563E+02  0.00000000000E+00 0. -1.
          6    1    1    2  501    0  0.73118794281E+00 -0.85103645756E+01  0.15168027979E+03  0.22948609592E+03  0.17200000000E+03 0. -1.
         -6    1    1    2    0  502 -0.73118794281E+00  0.85103645756E+01  0.26858444143E+03  0.31905260244E+03  0.17200000000E+03 0. -1.
<mgrwt>
<rscale>  2 0.17221197E+03</rscale>
<asrwt>0</asrwt>
<pdfrwt beam="1">  1       21 0.12110042E+00 0.17221197E+03</pdfrwt>
<pdfrwt beam="2">  1       21 0.16034249E-01 0.17221197E+03</pdfrwt>
<totfact> 0.18175710E+04</totfact>
</mgrwt>
</event>
<event>
 4    1  0.1116135E+000  0.2426107E+03  0.7546771E-02  0.1118066E+00
         21   -1    0    0  501  502  0.00000000000E+00  0.00000000000E+00  0.92447114931E+03  0.92447114931E+03  0.00000000000E+00 0.  1.
         21   -1    0    0  502  503 -0.00000000000E+00 -0.00000000000E+00 -0.78551844213E+02  0.78551844213E+02  0.00000000000E+00 0.  1.
          6    1    1    2  501    0  0.27422102902E+02  0.16889037252E+03  0.64125737408E+03  0.68561720330E+03  0.17200000000E+03 0.  1.
         -6    1    1    2    0  503 -0.27422102902E+02 -0.16889037252E+03  0.20466193103E+03  0.31740579022E+03  0.17200000000E+03 0.  1.
<mgrwt>
<rscale>  2 0.24261065E+03</rscale>
<asrwt>0</asrwt>
<pdfrwt beam="1">  1       21 0.23111775E+00 0.24261065E+03</pdfrwt>
<pdfrwt beam="2">  1       21 0.19637964E-01 0.24261065E+03</pdfrwt>
<totfact> 0.19562638E+03</totfact>
</mgrwt>
</event>
<event>
 4    1  0.1116135E+000  0.2259772E+03  0.7546771E-02  0.1129504E+00
         21   -1    0    0  501  502  0.00000000000E+00  0.00000000000E+00  0.36259285740E+03  0.36259285740E+03  0.00000000000E+00 0. -1.
         21   -1    0    0  502  503 -0.00000000000E+00 -0.00000000000E+00 -0.19511937272E+03  0.19511937272E+03  0.00000000000E+00 0.  1.
          6    1    1    2  501    0 -0.11617213028E+03  0.89362915347E+02  0.23082166875E+03  0.32302374101E+03  0.17200000000E+03 0. -1.
         -6    1    1    2    0  503  0.11617213028E+03 -0.89362915347E+02 -0.63348184065E+02  0.23468848911E+03  0.17200000000E+03 0.  1.
<mgrwt>
<rscale>  2 0.22597720E+03</rscale>
<asrwt>0</asrwt>
<pdfrwt beam="1">  1       21 0.90648214E-01 0.22597720E+03</pdfrwt>
<pdfrwt beam="2">  1       21 0.48779844E-01 0.22597720E+03</pdfrwt>
<totfact> 0.40393006E+03</totfact>
</mgrwt>
</event>
<event>
 4    1  0.1116135E+000  0.1965501E+03  0.7546771E-02  0.1152683E+00
         21   -1    0    0  501  502  0.00000000000E+00  0.00000000000E+00  0.17861351924E+03  0.17861351924E+03  0.00000000000E+00 0.  1.
         21   -1    0    0  502  503 -0.00000000000E+00 -0.00000000000E+00 -0.23451755694E+03  0.23451755694E+03  0.00000000000E+00 0.  1.
          6    1    1    2  501    0 -0.91542674454E+02  0.25843410240E+02 -0.85543656551E+02  0.21435871868E+03  0.17200000000E+03 0.  1.
         -6    1    1    2    0  503  0.91542674454E+02 -0.25843410240E+02  0.29639618858E+02  0.19877235750E+03  0.17200000000E+03 0.  1.
<mgrwt>
<rscale>  2 0.19655010E+03</rscale>
<asrwt>0</asrwt>
<pdfrwt beam="1">  1       21 0.44653380E-01 0.19655010E+03</pdfrwt>
<pdfrwt beam="2">  1       21 0.58629389E-01 0.19655010E+03</pdfrwt>
<totfact> 0.13075370E+04</totfact>
</mgrwt>
</event>
<event>
 4    1  0.1116135E+000  0.3191682E+03  0.7546771E-02  0.1076033E+00
         21   -1    0    0  501  502  0.00000000000E+00  0.00000000000E+00  0.32952256392E+03  0.32952256392E+03  0.00000000000E+00 0. -1.
         21   -1    0    0  502  503 -0.00000000000E+00 -0.00000000000E+00 -0.45017263545E+03  0.45017263545E+03  0.00000000000E+00 0.  1.
          6    1    1    2  501    0 -0.26701842513E+03  0.31392338909E+02  0.15788085504E+03  0.35608240996E+03  0.17200000000E+03 0. -1.
         -6    1    1    2    0  503  0.26701842513E+03 -0.31392338909E+02 -0.27853092656E+03  0.42361278941E+03  0.17200000000E+03 0.  1.
<mgrwt>
<rscale>  2 0.31916817E+03</rscale>
<asrwt>0</asrwt>
<pdfrwt beam="1">  1       21 0.82380642E-01 0.31916817E+03</pdfrwt>
<pdfrwt beam="2">  1       21 0.11254316E+00 0.31916817E+03</pdfrwt>
<totfact> 0.71702165E+02</totfact>
</mgrwt>
</event>
<event>
 4    1  0.1116135E+000  0.1796676E+03  0.7546771E-02  0.1168125E+00
         21   -1    0    0  503  502  0.00000000000E+00  0.00000000000E+00  0.64761671247E+02  0.64761671247E+02  0.00000000000E+00 0. -1.
         21   -1    0    0  501  503 -0.00000000000E+00 -0.00000000000E+00 -0.90426791413E+03  0.90426791413E+03  0.00000000000E+00 0. -1.
          6    1    1    2  501    0  0.51904642891E+02 -0.15333343408E+01 -0.74433493794E+03  0.76571204960E+03  0.17200000000E+03 0. -1.
         -6    1    1    2    0  502 -0.51904642891E+02  0.15333343408E+01 -0.95171304936E+02  0.20331753577E+03  0.17200000000E+03 0. -1.
<mgrwt>
<rscale>  2 0.17966759E+03</rscale>
<asrwt>0</asrwt>
<pdfrwt beam="1">  1       21 0.16190418E-01 0.17966759E+03</pdfrwt>
<pdfrwt beam="2">  1       21 0.22606698E+00 0.17966759E+03</pdfrwt>
<totfact> 0.31960601E+03</totfact>
</mgrwt>
</event>
<event>
 4    1  0.1116135E+000  0.1865045E+03  0.7546771E-02  0.1161652E+00
         21   -1    0    0  501  502  0.00000000000E+00  0.00000000000E+00  0.17598443094E+03  0.17598443094E+03  0.00000000000E+00 0. -1.
         21   -1    0    0  502  503 -0.00000000000E+00 -0.00000000000E+00 -0.35316680034E+03  0.35316680034E+03  0.00000000000E+00 0. -1.
          6    1    1    2  501    0  0.29320149463E+02  0.65880491450E+02  0.86976213999E+02  0.20578817293E+03  0.17200000000E+03 0. -1.
         -6    1    1    2    0  503 -0.29320149463E+02 -0.65880491450E+02 -0.26415858340E+03  0.32336305834E+03  0.17200000000E+03 0. -1.
<mgrwt>
<rscale>  2 0.18650445E+03</rscale>
<asrwt>0</asrwt>
<pdfrwt beam="1">  1       21 0.43996108E-01 0.18650445E+03</pdfrwt>
<pdfrwt beam="2">  1       21 0.88291700E-01 0.18650445E+03</pdfrwt>
<totfact> 0.54761929E+03</totfact>
</mgrwt>
</event>
<event>
 4    1  0.1116135E+000  0.1752285E+03  0.7546771E-02  0.1172502E+00
         21   -1    0    0  501  502  0.00000000000E+00  0.00000000000E+00  0.10072337989E+03  0.10072337989E+03  0.00000000000E+00 0.  1.
         21   -1    0    0  502  503 -0.00000000000E+00 -0.00000000000E+00 -0.41205890347E+03  0.41205890347E+03  0.00000000000E+00 0.  1.
          6    1    1    2  501    0 -0.15952004891E+02 -0.29437631069E+02 -0.24885609610E+02  0.17698681914E+03  0.17200000000E+03 0.  1.
         -6    1    1    2    0  503  0.15952004891E+02  0.29437631069E+02 -0.28644991397E+03  0.33579546423E+03  0.17200000000E+03 0.  1.
<mgrwt>
<rscale>  2 0.17522854E+03</rscale>
<asrwt>0</asrwt>
<pdfrwt beam="1">  1       21 0.25180845E-01 0.17522854E+03</pdfrwt>
<pdfrwt beam="2">  1       21 0.10301472E+00 0.17522854E+03</pdfrwt>
<totfact> 0.11566789E+04</totfact>
</mgrwt>
</event>
<event>
 4    1  0.1116135E+000  0.2576416E+03  0.7546771E-02  0.1108569E+00
         21   -1    0    0  501  502  0.00000000000E+00  0.00000000000E+00  0.21053885158E+03  0.21053885158E+03  0.00000000000E+00 0. -1.
         21   -1    0    0  502  503 -0.00000000000E+00 -0.00000000000E+00 -0.35850050032E+03  0.35850050032E+03  0.00000000000E+00 0.  1.
          6    1    1    2  501    0 -0.14149297375E+03  0.12951798243E+03 -0.17276806534E+03  0.31020634068E+03  0.17200000000E+03 0.  1.
         -6    1    1    2    0  503  0.14149297375E+03 -0.12951798243E+03  0.24806416613E+02  0.25883301122E+03  0.17200000000E+03 0. -1.
<mgrwt>
<rscale>  2 0.25764155E+03</rscale>
<asrwt>0</asrwt>
<pdfrwt beam="1">  1       21 0.52634713E-01 0.25764155E+03</pdfrwt>
<pdfrwt beam="2">  1       21 0.89625125E-01 0.25764155E+03</pdfrwt>
<totfact> 0.34603983E+03</totfact>
</mgrwt>
</event>
<event>
 4    1  0.1116135E+000  0.2038518E+03  0.7546771E-02  0.1146529E+00
         21   -1    0    0  501  502  0.00000000000E+00  0.00000000000E+00  0.37787185227E+03  0.37787185227E+03  0.00000000000E+00 0. -1.
         21   -1    0    0  502  503 -0.00000000000E+00 -0.00000000000E+00 -0.11013721988E+03  0.11013721988E+03  0.00000000000E+00 0. -1.
          6    1    1    2  501    0 -0.10389095581E+03 -0.34325064894E+02  0.14330150106E+03  0.24918037841E+03  0.17200000000E+03 0. -1.
         -6    1    1    2    0  503  0.10389095581E+03  0.34325064894E+02  0.12443313134E+03  0.23882869374E+03  0.17200000000E+03 0. -1.
<mgrwt>
<rscale>  2 0.20385176E+03</rscale>
<asrwt>0</asrwt>
<pdfrwt beam="1">  1       21 0.94467960E-01 0.20385176E+03</pdfrwt>
<pdfrwt beam="2">  1       21 0.27534306E-01 0.20385176E+03</pdfrwt>
<totfact> 0.11722305E+04</totfact>
</mgrwt>
</event>
<event>
 4    1  0.1116135E+000  0.2010521E+03  0.7546771E-02  0.1148854E+00
         21   -1    0    0  503  502  0.00000000000E+00  0.00000000000E+00  0.16929243039E+03  0.16929243039E+03  0.00000000000E+00 0.  1.
         21   -1    0    0  501  503 -0.00000000000E+00 -0.00000000000E+00 -0.98364897904E+03  0.98364897904E+03  0.00000000000E+00 0.  1.
          6    1    1    2  501    0  0.10341683031E+03  0.11953667809E+02 -0.90882740905E+03  0.93080029566E+03  0.17200000000E+03 0.  1.
         -6    1    1    2    0  502 -0.10341683031E+03 -0.11953667809E+02  0.94470860395E+02  0.22214111377E+03  0.17200000000E+03 0.  1.
<mgrwt>
<rscale>  2 0.20105206E+03</rscale>
<asrwt>0</asrwt>
<pdfrwt beam="1">  1       21 0.42323108E-01 0.20105206E+03</pdfrwt>
<pdfrwt beam="2">  1       21 0.24591224E+00 0.20105206E+03</pdfrwt>
<totfact> 0.37337434E+02</totfact>
</mgrwt>
</event>
<event>
 4    1  0.1116135E+000  0.1878675E+03  0.7546771E-02  0.1160399E+00
         21   -1    0    0  503  502  0.00000000000E+00  0.00000000000E+00  0.31221079022E+03  0.31221079022E+03  0.00000000000E+00 0.  1.
         21   -1    0    0  501  503 -0.00000000000E+00 -0.00000000000E+00 -0.11825583138E+03  0.11825583138E+03  0.00000000000E+00 0.  1.
          6    1    1    2  501    0  0.63885033204E+02 -0.40359532846E+02  0.14215359856E+03  0.23558827420E+03  0.17200000000E+03 0.  1.
         -6    1    1    2    0  502 -0.63885033204E+02  0.40359532846E+02  0.51801360285E+02  0.19487834740E+03  0.17200000000E+03 0.  1.
<mgrwt>
<rscale>  2 0.18786748E+03</rscale>
<asrwt>0</asrwt>
<pdfrwt beam="1">  1       21 0.78052696E-01 0.18786748E+03</pdfrwt>
<pdfrwt beam="2">  1       21 0.29563958E-01 0.18786748E+03</pdfrwt>
<totfact> 0.15989695E+04</totfact>
</mgrwt>
</event>
<event>
 4    1  0.1116135E+000  0.3242339E+03  0.7546771E-02  0.1073717E+00
         21   -1    0    0  503  502  0.00000000000E+00  0.00000000000E+00  0.37886056685E+03  0.37886056685E+03  0.00000000000E+00 0.  1.
         21   -1    0    0  501  503 -0.00000000000E+00 -0.00000000000E+00 -0.65009877252E+03  0.65009877252E+03  0.00000000000E+00 0. -1.
          6    1    1    2  501    0 -0.59707925950E+02 -0.26828826174E+03 -0.52512026712E+03  0.61715388903E+03  0.17200000000E+03 0. -1.
         -6    1    1    2    0  502  0.59707925950E+02  0.26828826174E+03  0.25388206145E+03  0.41180545034E+03  0.17200000000E+03 0.  1.
<mgrwt>
<rscale>  2 0.32423391E+03</rscale>
<asrwt>0</asrwt>
<pdfrwt beam="1">  1       21 0.94715142E-01 0.32423391E+03</pdfrwt>
<pdfrwt beam="2">  1       21 0.16252469E+00 0.32423391E+03</pdfrwt>
<totfact> 0.19790143E+02</totfact>
</mgrwt>
</event>
<event>
 4    1  0.1116135E+000  0.2468696E+03  0.7546771E-02  0.1115299E+00
         21   -1    0    0  503  502  0.00000000000E+00  0.00000000000E+00  0.14058503177E+03  0.14058503177E+03  0.00000000000E+00 0. -1.
         21   -1    0    0  501  503 -0.00000000000E+00 -0.00000000000E+00 -0.63885634446E+03  0.63885634446E+03  0.00000000000E+00 0.  1.
          6    1    1    2  501    0 -0.57085611612E+02 -0.16763600579E+03 -0.47008794227E+03  0.53096823913E+03  0.17200000000E+03 0.  1.
         -6    1    1    2    0  502  0.57085611612E+02  0.16763600579E+03 -0.28183370416E+02  0.24847313710E+03  0.17200000000E+03 0. -1.
<mgrwt>
<rscale>  2 0.24686960E+03</rscale>
<asrwt>0</asrwt>
<pdfrwt beam="1">  1       21 0.35146259E-01 0.24686960E+03</pdfrwt>
<pdfrwt beam="2">  1       21 0.15971408E+00 0.24686960E+03</pdfrwt>
<totfact> 0.18818112E+03</totfact>
</mgrwt>
</event>
<event>
 4    1  0.1116135E+000  0.2135710E+03  0.7546771E-02  0.1138769E+00
         21   -1    0    0  501  502  0.00000000000E+00  0.00000000000E+00  0.27932785279E+03  0.27932785279E+03  0.00000000000E+00 0. -1.
         21   -1    0    0  502  503 -0.00000000000E+00 -0.00000000000E+00 -0.22224243295E+03  0.22224243295E+03  0.00000000000E+00 0. -1.
          6    1    1    2  501    0 -0.12553698776E+03 -0.16401949614E+02  0.15770165423E+03  0.26548516153E+03  0.17200000000E+03 0. -1.
         -6    1    1    2    0  503  0.12553698776E+03  0.16401949614E+02 -0.10061623440E+03  0.23608512420E+03  0.17200000000E+03 0. -1.
<mgrwt>
<rscale>  2 0.21357097E+03</rscale>
<asrwt>0</asrwt>
<pdfrwt beam="1">  1       21 0.69831963E-01 0.21357097E+03</pdfrwt>
<pdfrwt beam="2">  1       21 0.55560608E-01 0.21357097E+03</pdfrwt>
<totfact> 0.55985032E+03</totfact>
</mgrwt>
</event>
<event>
 4    1  0.1116135E+000  0.1992335E+03  0.7546771E-02  0.1150387E+00
         21   -1    0    0  503  502  0.00000000000E+00  0.00000000000E+00  0.41737872725E+03  0.41737872725E+03  0.00000000000E+00 0. -1.
         21   -1    0    0  501  503 -0.00000000000E+00 -0.00000000000E+00 -0.16173859635E+03  0.16173859635E+03  0.00000000000E+00 0. -1.
          6    1    1    2  501    0  0.23722045880E+02 -0.97710054546E+02 -0.58038553369E+02  0.20751497271E+03  0.17200000000E+03 0. -1.
         -6    1    1    2    0  502 -0.23722045880E+02  0.97710054546E+02  0.31367868428E+03  0.37160235089E+03  0.17200000000E+03 0. -1.
<mgrwt>
<rscale>  2 0.19923351E+03</rscale>
<asrwt>0</asrwt>
<pdfrwt beam="1">  1       21 0.10434468E+00 0.19923351E+03</pdfrwt>
<pdfrwt beam="2">  1       21 0.40434650E-01 0.19923351E+03</pdfrwt>
<totfact> 0.43475743E+03</totfact>
</mgrwt>
</event>
<event>
 4    1  0.1116135E+000  0.2081518E+03  0.7546771E-02  0.1143038E+00
         21   -1    0    0  503  502  0.00000000000E+00  0.00000000000E+00  0.14566976694E+03  0.14566976694E+03  0.00000000000E+00 0.  1.
         21   -1    0    0  501  503 -0.00000000000E+00 -0.00000000000E+00 -0.33732813441E+03  0.33732813441E+03  0.00000000000E+00 0.  1.
          6    1    1    2  501    0  0.21093809831E+02  0.11531793857E+03 -0.12778692205E+02  0.20854369025E+03  0.17200000000E+03 0.  1.
         -6    1    1    2    0  502 -0.21093809831E+02 -0.11531793857E+03 -0.17887967526E+03  0.27445421110E+03  0.17200000000E+03 0.  1.
<mgrwt>
<rscale>  2 0.20815181E+03</rscale>
<asrwt>0</asrwt>
<pdfrwt beam="1">  1       21 0.36417442E-01 0.20815181E+03</pdfrwt>
<pdfrwt beam="2">  1       21 0.84332033E-01 0.20815181E+03</pdfrwt>
<totfact> 0.87753861E+03</totfact>
</mgrwt>
</event>
<event>
 4    1  0.1116135E+000  0.2944764E+03  0.7546771E-02  0.1088035E+00
         21   -1    0    0  503  502  0.00000000000E+00  0.00000000000E+00  0.22581660458E+03  0.22581660458E+03  0.00000000000E+00 0.  1.
         21   -1    0    0  501  503 -0.00000000000E+00 -0.00000000000E+00 -0.98255740451E+03  0.98255740451E+03  0.00000000000E+00 0. -1.
          6    1    1    2  501    0  0.26489030074E+02 -0.23755146037E+03 -0.84993461041E+03  0.89950275542E+03  0.17200000000E+03 0. -1.
         -6    1    1    2    0  502 -0.26489030074E+02  0.23755146037E+03  0.93193810482E+02  0.30887125368E+03  0.17200000000E+03 0.  1.
<mgrwt>
<rscale>  2 0.29447643E+03</rscale>
<asrwt>0</asrwt>
<pdfrwt beam="1">  1       21 0.56454152E-01 0.29447643E+03</pdfrwt>
<pdfrwt beam="2">  1       21 0.24563935E+00 0.29447643E+03</pdfrwt>
<totfact> 0.18516479E+02</totfact>
</mgrwt>
</event>
<event>
 4    1  0.1116135E+000  0.2241781E+03  0.7546771E-02  0.1130806E+00
         21   -1    0    0  503  502  0.00000000000E+00  0.00000000000E+00  0.88737809681E+03  0.88737809681E+03  0.00000000000E+00 0.  1.
         21   -1    0    0  501  503 -0.00000000000E+00 -0.00000000000E+00 -0.84403758147E+02  0.84403758147E+02  0.00000000000E+00 0. -1.
          6    1    1    2  501    0 -0.10452187039E+03 -0.98726783180E+02  0.12278284961E+03  0.25560013158E+03  0.17200000000E+03 0. -1.
         -6    1    1    2    0  502  0.10452187039E+03  0.98726783180E+02  0.68019148905E+03  0.71618172337E+03  0.17200000000E+03 0.  1.
<mgrwt>
<rscale>  2 0.22417805E+03</rscale>
<asrwt>0</asrwt>
<pdfrwt beam="1">  1       21 0.22184450E+00 0.22417805E+03</pdfrwt>
<pdfrwt beam="2">  1       21 0.21100942E-01 0.22417805E+03</pdfrwt>
<totfact> 0.19813573E+03</totfact>
</mgrwt>
</event>
<event>
 4    1  0.1116135E+000  0.2008070E+03  0.7546771E-02  0.1149060E+00
         21   -1    0    0  501  502  0.00000000000E+00  0.00000000000E+00  0.45925705950E+03  0.45925705950E+03  0.00000000000E+00 0.  1.
         21   -1    0    0  502  503 -0.00000000000E+00 -0.00000000000E+00 -0.14410876947E+03  0.14410876947E+03  0.00000000000E+00 0.  1.
          6    1    1    2  501    0  0.51616072719E+02  0.89862206390E+02  0.34615080619E+03  0.40017972928E+03  0.17200000000E+03 0.  1.
         -6    1    1    2    0  503 -0.51616072719E+02 -0.89862206390E+02 -0.31002516166E+02  0.20318609969E+03  0.17200000000E+03 0.  1.
<mgrwt>
<rscale>  2 0.20080696E+03</rscale>
<asrwt>0</asrwt>
<pdfrwt beam="1">  1       21 0.11481426E+00 0.20080696E+03</pdfrwt>
<pdfrwt beam="2">  1       21 0.36027193E-01 0.20080696E+03</pdfrwt>
<totfact> 0.43436914E+03</totfact>
</mgrwt>
</event>
<event>
 4    1  0.1116135E+000  0.1919582E+03  0.7546771E-02  0.1156707E+00
         21   -1    0    0  503  502  0.00000000000E+00  0.00000000000E+00  0.72468449613E+03  0.72468449613E+03  0.00000000000E+00 0. -1.
         21   -1    0    0  501  503 -0.00000000000E+00 -0.00000000000E+00 -0.10717772285E+03  0.10717772285E+03  0.00000000000E+00 0. -1.
          6    1    1    2  501    0  0.72742707383E+02  0.44412415629E+02  0.72153047417E+01  0.19209379158E+03  0.17200000000E+03 0. -1.
         -6    1    1    2    0  502 -0.72742707383E+02 -0.44412415629E+02  0.61029146853E+03  0.63976842740E+03  0.17200000000E+03 0. -1.
<mgrwt>
<rscale>  2 0.19195824E+03</rscale>
<asrwt>0</asrwt>
<pdfrwt beam="1">  1       21 0.18117111E+00 0.19195824E+03</pdfrwt>
<pdfrwt beam="2">  1       21 0.26794433E-01 0.19195824E+03</pdfrwt>
<totfact> 0.23712282E+03</totfact>
</mgrwt>
</event>
<event>
 4    1  0.1116135E+000  0.2091318E+03  0.7546771E-02  0.1142255E+00
         21   -1    0    0  503  502  0.00000000000E+00  0.00000000000E+00  0.19025678933E+03  0.19025678933E+03  0.00000000000E+00 0.  1.
         21   -1    0    0  501  503 -0.00000000000E+00 -0.00000000000E+00 -0.37610406697E+03  0.37610406697E+03  0.00000000000E+00 0.  1.
          6    1    1    2  501    0  0.11882160949E+03  0.57908870926E+01  0.83647450706E+02  0.22523988382E+03  0.17200000000E+03 0.  1.
         -6    1    1    2    0  502 -0.11882160949E+03 -0.57908870926E+01 -0.26949472835E+03  0.34112097247E+03  0.17200000000E+03 0.  1.
<mgrwt>
<rscale>  2 0.20913180E+03</rscale>
<asrwt>0</asrwt>
<pdfrwt beam="1">  1       21 0.47564198E-01 0.20913180E+03</pdfrwt>
<pdfrwt beam="2">  1       21 0.94026016E-01 0.20913180E+03</pdfrwt>
<totfact> 0.39582345E+03</totfact>
</mgrwt>
</event>
<event>
 4    1  0.1116135E+000  0.2053219E+03  0.7546771E-02  0.1145325E+00
         21   -1    0    0  503  502  0.00000000000E+00  0.00000000000E+00  0.55030933889E+03  0.55030933889E+03  0.00000000000E+00 0.  1.
         21   -1    0    0  501  503 -0.00000000000E+00 -0.00000000000E+00 -0.77182739173E+02  0.77182739173E+02  0.00000000000E+00 0. -1.
          6    1    1    2  501    0  0.64063060559E+02 -0.92027194684E+02  0.26368088659E+03  0.33419259454E+03  0.17200000000E+03 0.  1.
         -6    1    1    2    0  502 -0.64063060559E+02  0.92027194684E+02  0.20944571313E+03  0.29329948353E+03  0.17200000000E+03 0.  1.
<mgrwt>
<rscale>  2 0.20532189E+03</rscale>
<asrwt>0</asrwt>
<pdfrwt beam="1">  1       21 0.13757732E+00 0.20532189E+03</pdfrwt>
<pdfrwt beam="2">  1       21 0.19295686E-01 0.20532189E+03</pdfrwt>
<totfact> 0.91504334E+03</totfact>
</mgrwt>
</event>
<event>
 4    1  0.1116135E+000  0.1934995E+03  0.7546771E-02  0.1155342E+00
         21   -1    0    0  501  502  0.00000000000E+00  0.00000000000E+00  0.24315836923E+03  0.24315836923E+03  0.00000000000E+00 0. -1.
         21   -1    0    0  502  503 -0.00000000000E+00 -0.00000000000E+00 -0.24039974367E+03  0.24039974367E+03  0.00000000000E+00 0. -1.
          6    1    1    2  501    0  0.83582493901E+02 -0.29530206536E+02  0.14634078059E+03  0.24260603959E+03  0.17200000000E+03 0. -1.
         -6    1    1    2    0  503 -0.83582493901E+02  0.29530206536E+02 -0.14358215503E+03  0.24095207330E+03  0.17200000000E+03 0. -1.
<mgrwt>
<rscale>  2 0.19349953E+03</rscale>
<asrwt>0</asrwt>
<pdfrwt beam="1">  1       21 0.60789592E-01 0.19349953E+03</pdfrwt>
<pdfrwt beam="2">  1       21 0.60099936E-01 0.19349953E+03</pdfrwt>
<totfact> 0.65012710E+03</totfact>
</mgrwt>
</event>
<event>
 4    1  0.1116135E+000  0.1993970E+03  0.7546771E-02  0.1150249E+00
         21   -1    0    0  501  502  0.00000000000E+00  0.00000000000E+00  0.67382996426E+03  0.67382996426E+03  0.00000000000E+00 0.  1.
         21   -1    0    0  502  503 -0.00000000000E+00 -0.00000000000E+00 -0.10919851781E+03  0.10919851781E+03  0.00000000000E+00 0.  1.
          6    1    1    2  501    0  0.99923993260E+02  0.13796572128E+02  0.54775440451E+03  0.58291855134E+03  0.17200000000E+03 0.  1.
         -6    1    1    2    0  503 -0.99923993260E+02 -0.13796572128E+02  0.16877041938E+02  0.20010993073E+03  0.17200000000E+03 0.  1.
<mgrwt>
<rscale>  2 0.19939697E+03</rscale>
<asrwt>0</asrwt>
<pdfrwt beam="1">  1       21 0.16845748E+00 0.19939697E+03</pdfrwt>
<pdfrwt beam="2">  1       21 0.27299631E-01 0.19939697E+03</pdfrwt>
<totfact> 0.27816074E+03</totfact>
</mgrwt>
</event>
<event>
 4    1  0.1116135E+000  0.1926513E+03  0.7546771E-02  0.1156092E+00
         21   -1    0    0  501  502  0.00000000000E+00  0.00000000000E+00  0.14378346295E+03  0.14378346295E+03  0.00000000000E+00 0. -1.
         21   -1    0    0  502  503 -0.00000000000E+00 -0.00000000000E+00 -0.26447451508E+03  0.26447451508E+03  0.00000000000E+00 0. -1.
          6    1    1    2  501    0  0.53986197194E+02 -0.67941273691E+02 -0.28723974148E+02  0.19478088420E+03  0.17200000000E+03 0. -1.
         -6    1    1    2    0  503 -0.53986197194E+02  0.67941273691E+02 -0.91967077982E+02  0.21347709383E+03  0.17200000000E+03 0. -1.
<mgrwt>
<rscale>  2 0.19265131E+03</rscale>
<asrwt>0</asrwt>
<pdfrwt beam="1">  1       21 0.35945866E-01 0.19265131E+03</pdfrwt>
<pdfrwt beam="2">  1       21 0.66118628E-01 0.19265131E+03</pdfrwt>
<totfact> 0.15672868E+04</totfact>
</mgrwt>
</event>
<event>
 4    1  0.1116135E+000  0.1859965E+03  0.7546771E-02  0.1162123E+00
         21   -1    0    0  501  502  0.00000000000E+00  0.00000000000E+00  0.44772242517E+03  0.44772242517E+03  0.00000000000E+00 0.  1.
         21   -1    0    0  502  503 -0.00000000000E+00 -0.00000000000E+00 -0.77619724691E+02  0.77619724691E+02  0.00000000000E+00 0.  1.
          6    1    1    2  501    0 -0.29081105466E+02 -0.64536582116E+02  0.16737314030E+03  0.25021680443E+03  0.17200000000E+03 0. -1.
         -6    1    1    2    0  503  0.29081105466E+02  0.64536582116E+02  0.20272956018E+03  0.27512534543E+03  0.17200000000E+03 0. -1.
<mgrwt>
<rscale>  2 0.18599645E+03</rscale>
<asrwt>0</asrwt>
<pdfrwt beam="1">  1       21 0.11193060E+00 0.18599645E+03</pdfrwt>
<pdfrwt beam="2">  1       21 0.19404932E-01 0.18599645E+03</pdfrwt>
<totfact> 0.15358079E+04</totfact>
</mgrwt>
</event>
<event>
 4    1  0.1116135E+000  0.1871681E+03  0.7546771E-02  0.1161041E+00
         21   -1    0    0  503  502  0.00000000000E+00  0.00000000000E+00  0.76620349564E+03  0.76620349564E+03  0.00000000000E+00 0.  1.
         21   -1    0    0  501  503 -0.00000000000E+00 -0.00000000000E+00 -0.47371276738E+02  0.47371276738E+02  0.00000000000E+00 0.  1.
          6    1    1    2  501    0  0.64585335680E+01  0.73526760951E+02  0.28349971780E+03  0.33971162362E+03  0.17200000000E+03 0.  1.
         -6    1    1    2    0  502 -0.64585335680E+01 -0.73526760951E+02  0.43533250110E+03  0.47386314876E+03  0.17200000000E+03 0.  1.
<mgrwt>
<rscale>  2 0.18716810E+03</rscale>
<asrwt>0</asrwt>
<pdfrwt beam="1">  1       21 0.19155083E+00 0.18716810E+03</pdfrwt>
<pdfrwt beam="2">  1       21 0.11842822E-01 0.18716810E+03</pdfrwt>
<totfact> 0.91960075E+03</totfact>
</mgrwt>
</event>
<event>
 4    1  0.1116135E+000  0.2252854E+03  0.7546771E-02  0.1130003E+00
         21   -1    0    0  503  502  0.00000000000E+00  0.00000000000E+00  0.32819056243E+03  0.32819056243E+03  0.00000000000E+00 0. -1.
         21   -1    0    0  501  503 -0.00000000000E+00 -0.00000000000E+00 -0.15798211497E+03  0.15798211497E+03  0.00000000000E+00 0. -1.
          6    1    1    2  501    0 -0.55161554792E+02 -0.13463545346E+03  0.12042647597E+03  0.25545261511E+03  0.17200000000E+03 0. -1.
         -6    1    1    2    0  502  0.55161554792E+02  0.13463545346E+03  0.49781971497E+02  0.23072006229E+03  0.17200000000E+03 0. -1.
<mgrwt>
<rscale>  2 0.22528538E+03</rscale>
<asrwt>0</asrwt>
<pdfrwt beam="1">  1       21 0.82047640E-01 0.22528538E+03</pdfrwt>
<pdfrwt beam="2">  1       21 0.39495529E-01 0.22528538E+03</pdfrwt>
<totfact> 0.78469548E+03</totfact>
</mgrwt>
</event>
<event>
 4    1  0.1116135E+000  0.2871133E+03  0.7546771E-02  0.1091866E+00
         21   -1    0    0  503  502  0.00000000000E+00  0.00000000000E+00  0.60454158874E+03  0.60454158874E+03  0.00000000000E+00 0. -1.
         21   -1    0    0  501  503 -0.00000000000E+00 -0.00000000000E+00 -0.20041234202E+03  0.20041234202E+03  0.00000000000E+00 0.  1.
          6    1    1    2  501    0  0.10582751584E+03  0.20408479843E+03 -0.25472971591E+02  0.28824111494E+03  0.17200000000E+03 0.  1.
         -6    1    1    2    0  502 -0.10582751584E+03 -0.20408479843E+03  0.42960221831E+03  0.51671281582E+03  0.17200000000E+03 0. -1.
<mgrwt>
<rscale>  2 0.28711334E+03</rscale>
<asrwt>0</asrwt>
<pdfrwt beam="1">  1       21 0.15113539E+00 0.28711334E+03</pdfrwt>
<pdfrwt beam="2">  1       21 0.50103087E-01 0.28711334E+03</pdfrwt>
<totfact> 0.10248989E+03</totfact>
</mgrwt>
</event>
<event>
 4    1  0.1116135E+000  0.2375539E+03  0.7546771E-02  0.1121433E+00
         21   -1    0    0  501  502  0.00000000000E+00  0.00000000000E+00  0.44744731149E+02  0.44744731149E+02  0.00000000000E+00 0.  1.
         21   -1    0    0  502  503 -0.00000000000E+00 -0.00000000000E+00 -0.12632607085E+04  0.12632607085E+04  0.00000000000E+00 0.  1.
          6    1    1    2  501    0 -0.15272620015E+03 -0.59351158669E+02 -0.58281453788E+03  0.62936844361E+03  0.17200000000E+03 0.  1.
         -6    1    1    2    0  503  0.15272620015E+03  0.59351158669E+02 -0.63570143949E+03  0.67863699606E+03  0.17200000000E+03 0.  1.
<mgrwt>
<rscale>  2 0.23755389E+03</rscale>
<asrwt>0</asrwt>
<pdfrwt beam="1">  1       21 0.11186183E-01 0.23755389E+03</pdfrwt>
<pdfrwt beam="2">  1       21 0.31581517E+00 0.23755389E+03</pdfrwt>
<totfact> 0.17441637E+03</totfact>
</mgrwt>
</event>
<event>
 4    1  0.1116135E+000  0.2578691E+03  0.7546771E-02  0.1108430E+00
         21   -1    0    0  503  502  0.00000000000E+00  0.00000000000E+00  0.29242523057E+03  0.29242523057E+03  0.00000000000E+00 0. -1.
         21   -1    0    0  501  503 -0.00000000000E+00 -0.00000000000E+00 -0.22988650114E+03  0.22988650114E+03  0.00000000000E+00 0. -1.
          6    1    1    2  501    0 -0.17524412948E+03  0.78752607813E+02  0.58448871211E+02  0.26441019024E+03  0.17200000000E+03 0. -1.
         -6    1    1    2    0  502  0.17524412948E+03 -0.78752607813E+02  0.40898582234E+01  0.25790154147E+03  0.17200000000E+03 0. -1.
<mgrwt>
<rscale>  2 0.25786911E+03</rscale>
<asrwt>0</asrwt>
<pdfrwt beam="1">  1       21 0.73106307E-01 0.25786911E+03</pdfrwt>
<pdfrwt beam="2">  1       21 0.57471625E-01 0.25786911E+03</pdfrwt>
<totfact> 0.45685471E+03</totfact>
</mgrwt>
</event>
<event>
 4    1  0.1116135E+000  0.1766570E+03  0.7546771E-02  0.1171078E+00
         21   -1    0    0  501  502  0.00000000000E+00  0.00000000000E+00  0.17201767879E+03  0.17201767879E+03  0.00000000000E+00 0.  1.
         21   -1    0    0  502  503 -0.00000000000E+00 -0.00000000000E+00 -0.53662311897E+03  0.53662311897E+03  0.00000000000E+00 0.  1.
          6    1    1    2  501    0 -0.10579411103E+02 -0.38881342511E+02  0.10596699253E+03  0.20600166562E+03  0.17200000000E+03 0.  1.
         -6    1    1    2    0  503  0.10579411103E+02  0.38881342511E+02 -0.47057243271E+03  0.50263913214E+03  0.17200000000E+03 0.  1.
<mgrwt>
<rscale>  2 0.17665696E+03</rscale>
<asrwt>0</asrwt>
<pdfrwt beam="1">  1       21 0.43004420E-01 0.17665696E+03</pdfrwt>
<pdfrwt beam="2">  1       21 0.13415578E+00 0.17665696E+03</pdfrwt>
<totfact> 0.21077332E+03</totfact>
</mgrwt>
</event>
<event>
 4    1  0.1116135E+000  0.2660430E+03  0.7546771E-02  0.1103566E+00
         21   -1    0    0  501  502  0.00000000000E+00  0.00000000000E+00  0.86436639082E+02  0.86436639082E+02  0.00000000000E+00 0.  1.
         21   -1    0    0  502  503 -0.00000000000E+00 -0.00000000000E+00 -0.14612775934E+04  0.14612775934E+04  0.00000000000E+00 0. -1.
          6    1    1    2  501    0 -0.43056483027E+02 -0.19834564910E+03 -0.17431615943E+03  0.31806442851E+03  0.17200000000E+03 0.  1.
         -6    1    1    2    0  503  0.43056483027E+02  0.19834564910E+03 -0.12005247949E+04  0.12296498040E+04  0.17200000000E+03 0. -1.
<mgrwt>
<rscale>  2 0.26604296E+03</rscale>
<asrwt>0</asrwt>
<pdfrwt beam="1">  1       21 0.21609161E-01 0.26604296E+03</pdfrwt>
<pdfrwt beam="2">  1       21 0.36531938E+00 0.26604296E+03</pdfrwt>
<totfact> 0.25555277E+02</totfact>
</mgrwt>
</event>
<event>
 4    1  0.1116135E+000  0.1977439E+03  0.7546771E-02  0.1151657E+00
         21   -1    0    0  501  502  0.00000000000E+00  0.00000000000E+00  0.41030819427E+03  0.41030819427E+03  0.00000000000E+00 0.  1.
         21   -1    0    0  502  503 -0.00000000000E+00 -0.00000000000E+00 -0.96837482407E+02  0.96837482407E+02  0.00000000000E+00 0. -1.
          6    1    1    2  501    0 -0.84515280587E+02 -0.48742286710E+02  0.18867957901E+03  0.27331781263E+03  0.17200000000E+03 0. -1.
         -6    1    1    2    0  503  0.84515280587E+02  0.48742286710E+02  0.12479113286E+03  0.23382786405E+03  0.17200000000E+03 0. -1.
<mgrwt>
<rscale>  2 0.19774388E+03</rscale>
<asrwt>0</asrwt>
<pdfrwt beam="1">  1       21 0.10257704E+00 0.19774388E+03</pdfrwt>
<pdfrwt beam="2">  1       21 0.24209372E-01 0.19774388E+03</pdfrwt>
<totfact> 0.12399157E+04</totfact>
</mgrwt>
</event>
<event>
 4    1  0.1116135E+000  0.1894342E+03  0.7546771E-02  0.1158973E+00
         21   -1    0    0  503  502  0.00000000000E+00  0.00000000000E+00  0.16999205346E+03  0.16999205346E+03  0.00000000000E+00 0. -1.
         21   -1    0    0  501  503 -0.00000000000E+00 -0.00000000000E+00 -0.24437982921E+03  0.24437982921E+03  0.00000000000E+00 0.  1.
          6    1    1    2  501    0  0.28482833216E+02  0.74094844823E+02 -0.11365107709E+03  0.22091148712E+03  0.17200000000E+03 0.  1.
         -6    1    1    2    0  502 -0.28482833216E+02 -0.74094844823E+02  0.39263301331E+02  0.19346039556E+03  0.17200000000E+03 0. -1.
<mgrwt>
<rscale>  2 0.18943420E+03</rscale>
<asrwt>0</asrwt>
<pdfrwt beam="1">  1       21 0.42498014E-01 0.18943420E+03</pdfrwt>
<pdfrwt beam="2">  1       21 0.61094957E-01 0.18943420E+03</pdfrwt>
<totfact> 0.13304401E+04</totfact>
</mgrwt>
</event>
<event>
 4    1  0.1116135E+000  0.1905227E+03  0.7546771E-02  0.1157991E+00
         21   -1    0    0  503  502  0.00000000000E+00  0.00000000000E+00  0.18992258080E+03  0.18992258080E+03  0.00000000000E+00 0. -1.
         21   -1    0    0  501  503 -0.00000000000E+00 -0.00000000000E+00 -0.19236691757E+03  0.19236691757E+03  0.00000000000E+00 0. -1.
          6    1    1    2  501    0 -0.31988885049E+02 -0.75442806779E+02 -0.16582026080E+02  0.19124295922E+03  0.17200000000E+03 0. -1.
         -6    1    1    2    0  502  0.31988885049E+02  0.75442806779E+02  0.14137689308E+02  0.19104653915E+03  0.17200000000E+03 0. -1.
<mgrwt>
<rscale>  2 0.19052272E+03</rscale>
<asrwt>0</asrwt>
<pdfrwt beam="1">  1       21 0.47480645E-01 0.19052272E+03</pdfrwt>
<pdfrwt beam="2">  1       21 0.48091729E-01 0.19052272E+03</pdfrwt>
<totfact> 0.17550949E+04</totfact>
</mgrwt>
</event>
<event>
 4    1  0.1116135E+000  0.1749446E+03  0.7546771E-02  0.1172787E+00
         21   -1    0    0  501  502  0.00000000000E+00  0.00000000000E+00  0.10700578866E+03  0.10700578866E+03  0.00000000000E+00 0. -1.
         21   -1    0    0  502  503 -0.00000000000E+00 -0.00000000000E+00 -0.62364806197E+03  0.62364806197E+03  0.00000000000E+00 0. -1.
          6    1    1    2  501    0 -0.28520583696E+02  0.14428636152E+02  0.10480730889E+02  0.17525825218E+03  0.17200000000E+03 0. -1.
         -6    1    1    2    0  503  0.28520583696E+02 -0.14428636152E+02 -0.52712300419E+03  0.55539559846E+03  0.17200000000E+03 0. -1.
<mgrwt>
<rscale>  2 0.17494459E+03</rscale>
<asrwt>0</asrwt>
<pdfrwt beam="1">  1       21 0.26751448E-01 0.17494459E+03</pdfrwt>
<pdfrwt beam="2">  1       21 0.15591201E+00 0.17494459E+03</pdfrwt>
<totfact> 0.36486609E+03</totfact>
</mgrwt>
</event>
<event>
 4    1  0.1116135E+000  0.2333976E+03  0.7546771E-02  0.1124271E+00
         21   -1    0    0  501  502  0.00000000000E+00  0.00000000000E+00  0.28122886691E+03  0.28122886691E+03  0.00000000000E+00 0.  1.
         21   -1    0    0  502  503 -0.00000000000E+00 -0.00000000000E+00 -0.29955230865E+03  0.29955230865E+03  0.00000000000E+00 0.  1.
          6    1    1    2  501    0 -0.13721097457E+03  0.77869118303E+02  0.16345915134E+03  0.28494446000E+03  0.17200000000E+03 0.  1.
         -6    1    1    2    0  503  0.13721097457E+03 -0.77869118303E+02 -0.18178259309E+03  0.29583671557E+03  0.17200000000E+03 0.  1.
<mgrwt>
<rscale>  2 0.23339762E+03</rscale>
<asrwt>0</asrwt>
<pdfrwt beam="1">  1       21 0.70307217E-01 0.23339762E+03</pdfrwt>
<pdfrwt beam="2">  1       21 0.74888077E-01 0.23339762E+03</pdfrwt>
<totfact> 0.28334421E+03</totfact>
</mgrwt>
</event>
<event>
 4    1  0.1116135E+000  0.2165526E+03  0.7546771E-02  0.1136480E+00
         21   -1    0    0  501  502  0.00000000000E+00  0.00000000000E+00  0.46897051562E+03  0.46897051562E+03  0.00000000000E+00 0.  1.
         21   -1    0    0  502  503 -0.00000000000E+00 -0.00000000000E+00 -0.11699278903E+03  0.11699278903E+03  0.00000000000E+00 0.  1.
          6    1    1    2  501    0 -0.99236901929E+02 -0.86389035752E+02  0.28766190264E+03  0.36006165921E+03  0.17200000000E+03 0.  1.
         -6    1    1    2    0  503  0.99236901929E+02  0.86389035752E+02  0.64315823957E+02  0.22590164544E+03  0.17200000000E+03 0.  1.
<mgrwt>
<rscale>  2 0.21655260E+03</rscale>
<asrwt>0</asrwt>
<pdfrwt beam="1">  1       21 0.11724262E+00 0.21655260E+03</pdfrwt>
<pdfrwt beam="2">  1       21 0.29248198E-01 0.21655260E+03</pdfrwt>
<totfact> 0.61488984E+03</totfact>
</mgrwt>
</event>
<event>
 4    1  0.1116135E+000  0.1831477E+03  0.7546771E-02  0.1164791E+00
         21   -1    0    0  501  502  0.00000000000E+00  0.00000000000E+00  0.50339987067E+02  0.50339987067E+02  0.00000000000E+00 0.  1.
         21   -1    0    0  502  503 -0.00000000000E+00 -0.00000000000E+00 -0.12355741597E+04  0.12355741597E+04  0.00000000000E+00 0.  1.
          6    1    1    2  501    0  0.50033002623E+02  0.38154741965E+02 -0.15620522817E+03  0.24071385293E+03  0.17200000000E+03 0.  1.
         -6    1    1    2    0  503 -0.50033002623E+02 -0.38154741965E+02 -0.10290289445E+04  0.10452002939E+04  0.17200000000E+03 0.  1.
<mgrwt>
<rscale>  2 0.18314772E+03</rscale>
<asrwt>0</asrwt>
<pdfrwt beam="1">  1       21 0.12584997E-01 0.18314772E+03</pdfrwt>
<pdfrwt beam="2">  1       21 0.30889354E+00 0.18314772E+03</pdfrwt>
<totfact> 0.16558405E+03</totfact>
</mgrwt>
</event>
<event>
 4    1  0.1116135E+000  0.2234276E+03  0.7546771E-02  0.1131353E+00
         21   -1    0    0  503  502  0.00000000000E+00  0.00000000000E+00  0.42258624912E+03  0.42258624912E+03  0.00000000000E+00 0.  1.
         21   -1    0    0  501  503 -0.00000000000E+00 -0.00000000000E+00 -0.27484827748E+03  0.27484827748E+03  0.00000000000E+00 0. -1.
          6    1    1    2  501    0 -0.51874384172E+02 -0.13283424684E+03 -0.18945322921E+03  0.29293756148E+03  0.17200000000E+03 0. -1.
         -6    1    1    2    0  502  0.51874384172E+02  0.13283424684E+03  0.33719120084E+03  0.40449696512E+03  0.17200000000E+03 0.  1.
<mgrwt>
<rscale>  2 0.22342759E+03</rscale>
<asrwt>0</asrwt>
<pdfrwt beam="1">  1       21 0.10564656E+00 0.22342759E+03</pdfrwt>
<pdfrwt beam="2">  1       21 0.68712070E-01 0.22342759E+03</pdfrwt>
<totfact> 0.13507941E+03</totfact>
</mgrwt>
</event>
<event>
 4    1  0.1116135E+000  0.3575096E+03  0.7546771E-02  0.1059574E+00
         21   -1    0    0  503  502  0.00000000000E+00  0.00000000000E+00  0.97069320666E+03  0.97069320666E+03  0.00000000000E+00 0.  1.
         21   -1    0    0  501  503 -0.00000000000E+00 -0.00000000000E+00 -0.18799594548E+03  0.18799594548E+03  0.00000000000E+00 0. -1.
          6    1    1    2  501    0  0.31180404857E+03 -0.31738364638E+02  0.74239061477E+02  0.36513631255E+03  0.17200000000E+03 0. -1.
         -6    1    1    2    0  502 -0.31180404857E+03  0.31738364638E+02  0.70845819970E+03  0.79355283959E+03  0.17200000000E+03 0.  1.
<mgrwt>
<rscale>  2 0.35750956E+03</rscale>
<asrwt>0</asrwt>
<pdfrwt beam="1">  1       21 0.24267329E+00 0.35750956E+03</pdfrwt>
<pdfrwt beam="2">  1       21 0.46998989E-01 0.35750956E+03</pdfrwt>
<totfact> 0.27056502E+02</totfact>
</mgrwt>
</event>
<event>
 4    1  0.1116135E+000  0.1750733E+03  0.7546771E-02  0.1172658E+00
         21   -1    0    0  503  502  0.00000000000E+00  0.00000000000E+00  0.18777521071E+03  0.18777521071E+03  0.00000000000E+00 0. -1.
         21   -1    0    0  501  503 -0.00000000000E+00 -0.00000000000E+00 -0.24817993723E+03  0.24817993723E+03  0.00000000000E+00 0. -1.
          6    1    1    2  501    0  0.28058860337E+02 -0.16714390499E+02 -0.15773118240E+03  0.23564761063E+03  0.17200000000E+03 0.  1.
         -6    1    1    2    0  502 -0.28058860337E+02  0.16714390499E+02  0.97326455879E+02  0.20030753732E+03  0.17200000000E+03 0.  1.
<mgrwt>
<rscale>  2 0.17507333E+03</rscale>
<asrwt>0</asrwt>
<pdfrwt beam="1">  1       21 0.46943803E-01 0.17507333E+03</pdfrwt>
<pdfrwt beam="2">  1       21 0.62044984E-01 0.17507333E+03</pdfrwt>
<totfact> 0.10599380E+04</totfact>
</mgrwt>
</event>
<event>
 4    1  0.1116135E+000  0.1810465E+03  0.7546771E-02  0.1166794E+00
         21   -1    0    0  501  502  0.00000000000E+00  0.00000000000E+00  0.28967254795E+03  0.28967254795E+03  0.00000000000E+00 0.  1.
         21   -1    0    0  502  503 -0.00000000000E+00 -0.00000000000E+00 -0.11358198452E+03  0.11358198452E+03  0.00000000000E+00 0.  1.
          6    1    1    2  501    0  0.31581217068E+02 -0.46866368237E+02  0.75679575202E+02  0.19622749004E+03  0.17200000000E+03 0.  1.
         -6    1    1    2    0  503 -0.31581217068E+02  0.46866368237E+02  0.10041098823E+03  0.20702704244E+03  0.17200000000E+03 0.  1.
<mgrwt>
<rscale>  2 0.18104649E+03</rscale>
<asrwt>0</asrwt>
<pdfrwt beam="1">  1       21 0.72418135E-01 0.18104649E+03</pdfrwt>
<pdfrwt beam="2">  1       21 0.28395497E-01 0.18104649E+03</pdfrwt>
<totfact> 0.20522438E+04</totfact>
</mgrwt>
</event>
<event>
 4    1  0.1116135E+000  0.2456496E+03  0.7546771E-02  0.1116085E+00
         21   -1    0    0  501  502  0.00000000000E+00  0.00000000000E+00  0.19380953755E+03  0.19380953755E+03  0.00000000000E+00 0. -1.
         21   -1    0    0  502  503 -0.00000000000E+00 -0.00000000000E+00 -0.33763080345E+03  0.33763080345E+03  0.00000000000E+00 0.  1.
          6    1    1    2  501    0  0.40836497453E+02 -0.17056414873E+03  0.22159237575E+01  0.24565963990E+03  0.17200000000E+03 0.  1.
         -6    1    1    2    0  503 -0.40836497453E+02  0.17056414873E+03 -0.14603718966E+03  0.28578070110E+03  0.17200000000E+03 0. -1.
<mgrwt>
<rscale>  2 0.24564965E+03</rscale>
<asrwt>0</asrwt>
<pdfrwt beam="1">  1       21 0.48452384E-01 0.24564965E+03</pdfrwt>
<pdfrwt beam="2">  1       21 0.84407701E-01 0.24564965E+03</pdfrwt>
<totfact> 0.47680186E+03</totfact>
</mgrwt>
</event>
<event>
 4    1  0.1116135E+000  0.1876534E+03  0.7546771E-02  0.1160595E+00
         21   -1    0    0  503  502  0.00000000000E+00  0.00000000000E+00  0.31093425386E+03  0.31093425386E+03  0.00000000000E+00 0.  1.
         21   -1    0    0  501  503 -0.00000000000E+00 -0.00000000000E+00 -0.12457307756E+03  0.12457307756E+03  0.00000000000E+00 0. -1.
          6    1    1    2  501    0 -0.64725969044E+02 -0.37952136984E+02  0.27535223097E+02  0.18966287007E+03  0.17200000000E+03 0. -1.
         -6    1    1    2    0  502  0.64725969044E+02  0.37952136984E+02  0.15882595320E+03  0.24584446136E+03  0.17200000000E+03 0.  1.
<mgrwt>
<rscale>  2 0.18765345E+03</rscale>
<asrwt>0</asrwt>
<pdfrwt beam="1">  1       21 0.77733562E-01 0.18765345E+03</pdfrwt>
<pdfrwt beam="2">  1       21 0.31143270E-01 0.18765345E+03</pdfrwt>
<totfact> 0.14582019E+04</totfact>
</mgrwt>
</event>
<event>
 4    1  0.1116135E+000  0.2018476E+03  0.7546771E-02  0.1148189E+00
         21   -1    0    0  503  502  0.00000000000E+00  0.00000000000E+00  0.19410357165E+03  0.19410357165E+03  0.00000000000E+00 0. -1.
         21   -1    0    0  501  503 -0.00000000000E+00 -0.00000000000E+00 -0.20995480598E+03  0.20995480598E+03  0.00000000000E+00 0. -1.
          6    1    1    2  501    0  0.95491893452E+02 -0.45163593035E+02 -0.11172477021E+02  0.20215656332E+03  0.17200000000E+03 0. -1.
         -6    1    1    2    0  502 -0.95491893452E+02  0.45163593035E+02 -0.46787573112E+01  0.20190181431E+03  0.17200000000E+03 0. -1.
<mgrwt>
<rscale>  2 0.20184760E+03</rscale>
<asrwt>0</asrwt>
<pdfrwt beam="1">  1       21 0.48525893E-01 0.20184760E+03</pdfrwt>
<pdfrwt beam="2">  1       21 0.52488701E-01 0.20184760E+03</pdfrwt>
<totfact> 0.13875588E+04</totfact>
</mgrwt>
</event>
<event>
 4    1  0.1116135E+000  0.3487504E+03  0.7546771E-02  0.1063129E+00
         21   -1    0    0  501  502  0.00000000000E+00  0.00000000000E+00  0.28787873474E+03  0.28787873474E+03  0.00000000000E+00 0.  1.
         21   -1    0    0  502  503 -0.00000000000E+00 -0.00000000000E+00 -0.45131132823E+03  0.45131132823E+03  0.00000000000E+00 0.  1.
          6    1    1    2  501    0 -0.30161227474E+03 -0.32755041531E+02  0.11677838370E+02  0.34894588253E+03  0.17200000000E+03 0.  1.
         -6    1    1    2    0  503  0.30161227474E+03  0.32755041531E+02 -0.17511043187E+03  0.39024418045E+03  0.17200000000E+03 0.  1.
<mgrwt>
<rscale>  2 0.34875042E+03</rscale>
<asrwt>0</asrwt>
<pdfrwt beam="1">  1       21 0.71969684E-01 0.34875042E+03</pdfrwt>
<pdfrwt beam="2">  1       21 0.11282783E+00 0.34875042E+03</pdfrwt>
<totfact> 0.95230313E+02</totfact>
</mgrwt>
</event>
<event>
 4    1  0.1116135E+000  0.1821544E+03  0.7546771E-02  0.1165734E+00
         21   -1    0    0  503  502  0.00000000000E+00  0.00000000000E+00  0.17114482070E+03  0.17114482070E+03  0.00000000000E+00 0. -1.
         21   -1    0    0  501  503 -0.00000000000E+00 -0.00000000000E+00 -0.31219247786E+03  0.31219247786E+03  0.00000000000E+00 0. -1.
          6    1    1    2  501    0 -0.58894957648E+02  0.11297050990E+02 -0.21930175826E+03  0.28508507603E+03  0.17200000000E+03 0. -1.
         -6    1    1    2    0  502  0.58894957648E+02 -0.11297050990E+02  0.78254101104E+02  0.19825222253E+03  0.17200000000E+03 0. -1.
<mgrwt>
<rscale>  2 0.18215444E+03</rscale>
<asrwt>0</asrwt>
<pdfrwt beam="1">  1       21 0.42786206E-01 0.18215444E+03</pdfrwt>
<pdfrwt beam="2">  1       21 0.78048119E-01 0.18215444E+03</pdfrwt>
<totfact> 0.76988644E+03</totfact>
</mgrwt>
</event>
<event>
 4    1  0.1116135E+000  0.1839693E+03  0.7546771E-02  0.1164016E+00
         21   -1    0    0  501  502  0.00000000000E+00  0.00000000000E+00  0.91593533887E+03  0.91593533887E+03  0.00000000000E+00 0.  1.
         21   -1    0    0  502  503 -0.00000000000E+00 -0.00000000000E+00 -0.80888783261E+02  0.80888783261E+02  0.00000000000E+00 0.  1.
          6    1    1    2  501    0  0.56828386207E+02  0.32112623386E+02  0.78485943830E+03  0.80613213802E+03  0.17200000000E+03 0.  1.
         -6    1    1    2    0  503 -0.56828386207E+02 -0.32112623386E+02  0.50187117306E+02  0.19069198411E+03  0.17200000000E+03 0.  1.
<mgrwt>
<rscale>  2 0.18396925E+03</rscale>
<asrwt>0</asrwt>
<pdfrwt beam="1">  1       21 0.22898380E+00 0.18396925E+03</pdfrwt>
<pdfrwt beam="2">  1       21 0.20222199E-01 0.18396925E+03</pdfrwt>
<totfact> 0.20252927E+03</totfact>
</mgrwt>
</event>
<event>
 4    1  0.1116135E+000  0.2288650E+03  0.7546771E-02  0.1127441E+00
         21   -1    0    0  503  502  0.00000000000E+00  0.00000000000E+00  0.18966192457E+03  0.18966192457E+03  0.00000000000E+00 0. -1.
         21   -1    0    0  501  503 -0.00000000000E+00 -0.00000000000E+00 -0.28686246782E+03  0.28686246782E+03  0.00000000000E+00 0. -1.
          6    1    1    2  501    0  0.12331160188E+03 -0.87117255844E+02 -0.94597559397E+02  0.24764463586E+03  0.17200000000E+03 0. -1.
         -6    1    1    2    0  502 -0.12331160188E+03  0.87117255844E+02 -0.26029838503E+01  0.22887975653E+03  0.17200000000E+03 0. -1.
<mgrwt>
<rscale>  2 0.22886495E+03</rscale>
<asrwt>0</asrwt>
<pdfrwt beam="1">  1       21 0.47415482E-01 0.22886495E+03</pdfrwt>
<pdfrwt beam="2">  1       21 0.71715616E-01 0.22886495E+03</pdfrwt>
<totfact> 0.72871681E+03</totfact>
</mgrwt>
</event>
<event>
 4    1  0.1116135E+000  0.1772760E+03  0.7546771E-02  0.1170466E+00
         21   -1    0    0  503  502  0.00000000000E+00  0.00000000000E+00  0.98780360424E+02  0.98780360424E+02  0.00000000000E+00 0. -1.
         21   -1    0    0  501  503 -0.00000000000E+00 -0.00000000000E+00 -0.73563224991E+03  0.73563224991E+03  0.00000000000E+00 0. -1.
          6    1    1    2  501    0  0.30443833991E+02  0.30264696862E+02 -0.63272314020E+03  0.65708854125E+03  0.17200000000E+03 0. -1.
         -6    1    1    2    0  502 -0.30443833991E+02 -0.30264696862E+02 -0.41287492861E+01  0.17732406908E+03  0.17200000000E+03 0. -1.
<mgrwt>
<rscale>  2 0.17727600E+03</rscale>
<asrwt>0</asrwt>
<pdfrwt beam="1">  1       21 0.24695090E-01 0.17727600E+03</pdfrwt>
<pdfrwt beam="2">  1       21 0.18390806E+00 0.17727600E+03</pdfrwt>
<totfact> 0.26962529E+03</totfact>
</mgrwt>
</event>
<event>
 4    1  0.1116135E+000  0.1904594E+03  0.7546771E-02  0.1158048E+00
         21   -1    0    0  501  502  0.00000000000E+00  0.00000000000E+00  0.67766690418E+02  0.67766690418E+02  0.00000000000E+00 0. -1.
         21   -1    0    0  502  503 -0.00000000000E+00 -0.00000000000E+00 -0.95121068739E+03  0.95121068739E+03  0.00000000000E+00 0.  1.
          6    1    1    2  501    0 -0.77076070767E+02  0.27386996055E+02 -0.10482128071E+03  0.21739887103E+03  0.17200000000E+03 0. -1.
         -6    1    1    2    0  503  0.77076070767E+02 -0.27386996055E+02 -0.77862271627E+03  0.80157850677E+03  0.17200000000E+03 0.  1.
<mgrwt>
<rscale>  2 0.19045936E+03</rscale>
<asrwt>0</asrwt>
<pdfrwt beam="1">  1       21 0.16941673E-01 0.19045936E+03</pdfrwt>
<pdfrwt beam="2">  1       21 0.23780267E+00 0.19045936E+03</pdfrwt>
<totfact> 0.24710658E+03</totfact>
</mgrwt>
</event>
<event>
 4    1  0.1116135E+000  0.2061166E+03  0.7546771E-02  0.1144679E+00
         21   -1    0    0  503  502  0.00000000000E+00  0.00000000000E+00  0.60662754890E+03  0.60662754890E+03  0.00000000000E+00 0.  1.
         21   -1    0    0  501  503 -0.00000000000E+00 -0.00000000000E+00 -0.10426918952E+03  0.10426918952E+03  0.00000000000E+00 0. -1.
          6    1    1    2  501    0  0.10718742329E+03 -0.37561848956E+02  0.47502968917E+02  0.21151966401E+03  0.17200000000E+03 0. -1.
         -6    1    1    2    0  502 -0.10718742329E+03  0.37561848956E+02  0.45485539047E+03  0.49937707441E+03  0.17200000000E+03 0.  1.
<mgrwt>
<rscale>  2 0.20611656E+03</rscale>
<asrwt>0</asrwt>
<pdfrwt beam="1">  1       21 0.15165688E+00 0.20611656E+03</pdfrwt>
<pdfrwt beam="2">  1       21 0.26067299E-01 0.20611656E+03</pdfrwt>
<totfact> 0.40132310E+03</totfact>
</mgrwt>
</event>
<event>
 4    1  0.1116135E+000  0.1874632E+03  0.7546771E-02  0.1160769E+00
         21   -1    0    0  503  502  0.00000000000E+00  0.00000000000E+00  0.84932880087E+02  0.84932880087E+02  0.00000000000E+00 0. -1.
         21   -1    0    0  501  503 -0.00000000000E+00 -0.00000000000E+00 -0.47200315192E+03  0.47200315192E+03  0.00000000000E+00 0. -1.
          6    1    1    2  501    0 -0.32892980789E+02 -0.66906741500E+02 -0.29134835930E+03  0.34644815876E+03  0.17200000000E+03 0. -1.
         -6    1    1    2    0  502  0.32892980789E+02  0.66906741500E+02 -0.95721912528E+02  0.21048787324E+03  0.17200000000E+03 0. -1.
<mgrwt>
<rscale>  2 0.18746322E+03</rscale>
<asrwt>0</asrwt>
<pdfrwt beam="1">  1       21 0.21233221E-01 0.18746322E+03</pdfrwt>
<pdfrwt beam="2">  1       21 0.11800078E+00 0.18746322E+03</pdfrwt>
<totfact> 0.11401286E+04</totfact>
</mgrwt>
</event>
<event>
 4    1  0.1116135E+000  0.2043922E+03  0.7546771E-02  0.1146085E+00
         21   -1    0    0  501  502  0.00000000000E+00  0.00000000000E+00  0.23233312509E+03  0.23233312509E+03  0.00000000000E+00 0.  1.
         21   -1    0    0  502  503 -0.00000000000E+00 -0.00000000000E+00 -0.19707861715E+03  0.19707861715E+03  0.00000000000E+00 0.  1.
          6    1    1    2  501    0  0.10028252181E+03 -0.46212633561E+02  0.81179775746E+02  0.21992350414E+03  0.17200000000E+03 0.  1.
         -6    1    1    2    0  503 -0.10028252181E+03  0.46212633561E+02 -0.45925267802E+02  0.20948823811E+03  0.17200000000E+03 0.  1.
<mgrwt>
<rscale>  2 0.20439225E+03</rscale>
<asrwt>0</asrwt>
<pdfrwt beam="1">  1       21 0.58083281E-01 0.20439225E+03</pdfrwt>
<pdfrwt beam="2">  1       21 0.49269654E-01 0.20439225E+03</pdfrwt>
<totfact> 0.10827500E+04</totfact>
</mgrwt>
</event>
<event>
 4    1  0.1116135E+000  0.2263858E+03  0.7546771E-02  0.1129210E+00
         21   -1    0    0  503  502  0.00000000000E+00  0.00000000000E+00  0.13754750903E+03  0.13754750903E+03  0.00000000000E+00 0. -1.
         21   -1    0    0  501  503 -0.00000000000E+00 -0.00000000000E+00 -0.83423465802E+03  0.83423465802E+03  0.00000000000E+00 0.  1.
          6    1    1    2  501    0  0.16819367057E+02 -0.14623151305E+03 -0.70978908934E+03  0.74501751514E+03  0.17200000000E+03 0.  1.
         -6    1    1    2    0  502 -0.16819367057E+02  0.14623151305E+03  0.13101940347E+02  0.22676465191E+03  0.17200000000E+03 0. -1.
<mgrwt>
<rscale>  2 0.22638584E+03</rscale>
<asrwt>0</asrwt>
<pdfrwt beam="1">  1       21 0.34386878E-01 0.22638584E+03</pdfrwt>
<pdfrwt beam="2">  1       21 0.20855866E+00 0.22638584E+03</pdfrwt>
<totfact> 0.93098674E+02</totfact>
</mgrwt>
</event>
<event>
 4    1  0.1116135E+000  0.1729108E+03  0.7546771E-02  0.1174846E+00
         21   -1    0    0  503  502  0.00000000000E+00  0.00000000000E+00  0.94466835028E+02  0.94466835028E+02  0.00000000000E+00 0.  1.
         21   -1    0    0  501  503 -0.00000000000E+00 -0.00000000000E+00 -0.52464625246E+03  0.52464625246E+03  0.00000000000E+00 0.  1.
          6    1    1    2  501    0  0.84733603645E+01  0.15567039922E+02 -0.41007321528E+03  0.44503727087E+03  0.17200000000E+03 0.  1.
         -6    1    1    2    0  502 -0.84733603645E+01 -0.15567039922E+02 -0.20106202149E+02  0.17407581662E+03  0.17200000000E+03 0.  1.
<mgrwt>
<rscale>  2 0.17291076E+03</rscale>
<asrwt>0</asrwt>
<pdfrwt beam="1">  1       21 0.23616709E-01 0.17291076E+03</pdfrwt>
<pdfrwt beam="2">  1       21 0.13116156E+00 0.17291076E+03</pdfrwt>
<totfact> 0.72477391E+03</totfact>
</mgrwt>
</event>
<event>
 4    1  0.1116135E+000  0.1756075E+03  0.7546771E-02  0.1172123E+00
         21   -1    0    0  501  502  0.00000000000E+00  0.00000000000E+00  0.10448717471E+03  0.10448717471E+03  0.00000000000E+00 0. -1.
         21   -1    0    0  502  503 -0.00000000000E+00 -0.00000000000E+00 -0.32599275425E+03  0.32599275425E+03  0.00000000000E+00 0. -1.
          6    1    1    2  501    0  0.35300101846E+02  0.28122041139E+01 -0.44532855422E+02  0.18116616929E+03  0.17200000000E+03 0. -1.
         -6    1    1    2    0  503 -0.35300101846E+02 -0.28122041139E+01 -0.17697272412E+03  0.24931375968E+03  0.17200000000E+03 0. -1.
<mgrwt>
<rscale>  2 0.17560753E+03</rscale>
<asrwt>0</asrwt>
<pdfrwt beam="1">  1       21 0.26121794E-01 0.17560753E+03</pdfrwt>
<pdfrwt beam="2">  1       21 0.81498188E-01 0.17560753E+03</pdfrwt>
<totfact> 0.18561773E+04</totfact>
</mgrwt>
</event>
<event>
 4    1  0.1116135E+000  0.2738163E+03  0.7546771E-02  0.1099115E+00
         21   -1    0    0  501  502  0.00000000000E+00  0.00000000000E+00  0.18055978865E+03  0.18055978865E+03  0.00000000000E+00 0.  1.
         21   -1    0    0  502  503 -0.00000000000E+00 -0.00000000000E+00 -0.48945875909E+03  0.48945875909E+03  0.00000000000E+00 0. -1.
          6    1    1    2  501    0 -0.86433984317E+02 -0.19473198937E+03 -0.23994728100E+02  0.27486565502E+03  0.17200000000E+03 0.  1.
         -6    1    1    2    0  503  0.86433984317E+02  0.19473198937E+03 -0.28490424234E+03  0.39515289273E+03  0.17200000000E+03 0. -1.
<mgrwt>
<rscale>  2 0.27381633E+03</rscale>
<asrwt>0</asrwt>
<pdfrwt beam="1">  1       21 0.45139948E-01 0.27381633E+03</pdfrwt>
<pdfrwt beam="2">  1       21 0.12236469E+00 0.27381633E+03</pdfrwt>
<totfact> 0.22239823E+03</totfact>
</mgrwt>
</event>
<event>
 4    1  0.1116135E+000  0.1873445E+03  0.7546771E-02  0.1160878E+00
         21   -1    0    0  503  502  0.00000000000E+00  0.00000000000E+00  0.82837254457E+02  0.82837254457E+02  0.00000000000E+00 0. -1.
         21   -1    0    0  501  503 -0.00000000000E+00 -0.00000000000E+00 -0.10239653860E+04  0.10239653860E+04  0.00000000000E+00 0. -1.
          6    1    1    2  501    0  0.41158226600E+02  0.61805990157E+02 -0.89427524474E+03  0.91368823643E+03  0.17200000000E+03 0. -1.
         -6    1    1    2    0  502 -0.41158226600E+02 -0.61805990157E+02 -0.46852886788E+02  0.19311440401E+03  0.17200000000E+03 0. -1.
<mgrwt>
<rscale>  2 0.18734455E+03</rscale>
<asrwt>0</asrwt>
<pdfrwt beam="1">  1       21 0.20709314E-01 0.18734455E+03</pdfrwt>
<pdfrwt beam="2">  1       21 0.25599134E+00 0.18734455E+03</pdfrwt>
<totfact> 0.13349482E+03</totfact>
</mgrwt>
</event>
<event>
 4    1  0.1116135E+000  0.2163966E+03  0.7546771E-02  0.1136598E+00
         21   -1    0    0  501  502  0.00000000000E+00  0.00000000000E+00  0.17804791172E+03  0.17804791172E+03  0.00000000000E+00 0. -1.
         21   -1    0    0  502  503 -0.00000000000E+00 -0.00000000000E+00 -0.56005349860E+03  0.56005349860E+03  0.00000000000E+00 0. -1.
          6    1    1    2  501    0 -0.88656978361E+02 -0.96868052280E+02  0.77769817914E+02  0.22994700247E+03  0.17200000000E+03 0. -1.
         -6    1    1    2    0  503  0.88656978361E+02  0.96868052280E+02 -0.45977540479E+03  0.50815440785E+03  0.17200000000E+03 0. -1.
<mgrwt>
<rscale>  2 0.21639658E+03</rscale>
<asrwt>0</asrwt>
<pdfrwt beam="1">  1       21 0.44511978E-01 0.21639658E+03</pdfrwt>
<pdfrwt beam="2">  1       21 0.14001337E+00 0.21639658E+03</pdfrwt>
<totfact> 0.16955960E+03</totfact>
</mgrwt>
</event>
<event>
 4    1  0.1116135E+000  0.1740387E+03  0.7546771E-02  0.1173700E+00
         21   -1    0    0  503  502  0.00000000000E+00  0.00000000000E+00  0.33604006518E+03  0.33604006518E+03  0.00000000000E+00 0.  1.
         21   -1    0    0  501  503 -0.00000000000E+00 -0.00000000000E+00 -0.90367817112E+02  0.90367817112E+02  0.00000000000E+00 0.  1.
          6    1    1    2  501    0  0.15298125284E+02  0.21712672111E+02  0.11204915613E+03  0.20698909671E+03  0.17200000000E+03 0.  1.
         -6    1    1    2    0  502 -0.15298125284E+02 -0.21712672111E+02  0.13362309194E+03  0.21941878558E+03  0.17200000000E+03 0.  1.
<mgrwt>
<rscale>  2 0.17403871E+03</rscale>
<asrwt>0</asrwt>
<pdfrwt beam="1">  1       21 0.84010013E-01 0.17403871E+03</pdfrwt>
<pdfrwt beam="2">  1       21 0.22591955E-01 0.17403871E+03</pdfrwt>
<totfact> 0.22849323E+04</totfact>
</mgrwt>
</event>
<event>
 4    1  0.1116135E+000  0.1913677E+03  0.7546771E-02  0.1157233E+00
         21   -1    0    0  503  502  0.00000000000E+00  0.00000000000E+00  0.11170513989E+03  0.11170513989E+03  0.00000000000E+00 0.  1.
         21   -1    0    0  501  503 -0.00000000000E+00 -0.00000000000E+00 -0.39436251726E+03  0.39436251726E+03  0.00000000000E+00 0.  1.
          6    1    1    2  501    0  0.64476770624E+02 -0.53668938565E+02 -0.24525114082E+03  0.31107833578E+03  0.17200000000E+03 0.  1.
         -6    1    1    2    0  502 -0.64476770624E+02  0.53668938565E+02 -0.37406236550E+02  0.19498932137E+03  0.17200000000E+03 0.  1.
<mgrwt>
<rscale>  2 0.19136773E+03</rscale>
<asrwt>0</asrwt>
<pdfrwt beam="1">  1       21 0.27926285E-01 0.19136773E+03</pdfrwt>
<pdfrwt beam="2">  1       21 0.98590628E-01 0.19136773E+03</pdfrwt>
<totfact> 0.10406230E+04</totfact>
</mgrwt>
</event>
<event>
 4    1  0.1116135E+000  0.2007120E+03  0.7546771E-02  0.1149140E+00
         21   -1    0    0  503  502  0.00000000000E+00  0.00000000000E+00  0.77688206134E+03  0.77688206134E+03  0.00000000000E+00 0. -1.
         21   -1    0    0  501  503 -0.00000000000E+00 -0.00000000000E+00 -0.57933792593E+02  0.57933792593E+02  0.00000000000E+00 0. -1.
          6    1    1    2  501    0 -0.56118210363E+02  0.86902555203E+02  0.22426709196E+03  0.30096683566E+03  0.17200000000E+03 0. -1.
         -6    1    1    2    0  502  0.56118210363E+02 -0.86902555203E+02  0.49468117679E+03  0.53384901827E+03  0.17200000000E+03 0. -1.
<mgrwt>
<rscale>  2 0.20071200E+03</rscale>
<asrwt>0</asrwt>
<pdfrwt beam="1">  1       21 0.19422048E+00 0.20071200E+03</pdfrwt>
<pdfrwt beam="2">  1       21 0.14483451E-01 0.20071200E+03</pdfrwt>
<totfact> 0.60749223E+03</totfact>
</mgrwt>
</event>
<event>
 4    1  0.1116135E+000  0.2505966E+03  0.7546771E-02  0.1112928E+00
         21   -1    0    0  503  502  0.00000000000E+00  0.00000000000E+00  0.32054639864E+03  0.32054639864E+03  0.00000000000E+00 0. -1.
         21   -1    0    0  501  503 -0.00000000000E+00 -0.00000000000E+00 -0.62565535969E+03  0.62565535969E+03  0.00000000000E+00 0. -1.
          6    1    1    2  501    0  0.17457578104E+03  0.52325473676E+02 -0.54464931105E+03  0.59953442816E+03  0.17200000000E+03 0. -1.
         -6    1    1    2    0  502 -0.17457578104E+03 -0.52325473676E+02  0.23954035000E+03  0.34666733016E+03  0.17200000000E+03 0. -1.
<mgrwt>
<rscale>  2 0.25059661E+03</rscale>
<asrwt>0</asrwt>
<pdfrwt beam="1">  1       21 0.80136600E-01 0.25059661E+03</pdfrwt>
<pdfrwt beam="2">  1       21 0.15641384E+00 0.25059661E+03</pdfrwt>
<totfact> 0.34461396E+02</totfact>
</mgrwt>
</event>
<event>
 4    1  0.1116135E+000  0.1746484E+03  0.7546771E-02  0.1173085E+00
         21   -1    0    0  503  502  0.00000000000E+00  0.00000000000E+00  0.20943504858E+03  0.20943504858E+03  0.00000000000E+00 0.  1.
         21   -1    0    0  501  503 -0.00000000000E+00 -0.00000000000E+00 -0.69747995158E+03  0.69747995158E+03  0.00000000000E+00 0.  1.
          6    1    1    2  501    0 -0.85626633682E+01 -0.29064530694E+02 -0.64736811920E+03  0.67051289913E+03  0.17200000000E+03 0.  1.
         -6    1    1    2    0  502  0.85626633682E+01  0.29064530694E+02  0.15932321620E+03  0.23640210102E+03  0.17200000000E+03 0.  1.
<mgrwt>
<rscale>  2 0.17464841E+03</rscale>
<asrwt>0</asrwt>
<pdfrwt beam="1">  1       21 0.52358763E-01 0.17464841E+03</pdfrwt>
<pdfrwt beam="2">  1       21 0.17436999E+00 0.17464841E+03</pdfrwt>
<totfact> 0.70305910E+02</totfact>
</mgrwt>
</event>
<event>
 4    1  0.1116135E+000  0.2141884E+03  0.7546771E-02  0.1138292E+00
         21   -1    0    0  501  502  0.00000000000E+00  0.00000000000E+00  0.32820037509E+02  0.32820037509E+02  0.00000000000E+00 0. -1.
         21   -1    0    0  502  503 -0.00000000000E+00 -0.00000000000E+00 -0.16861741097E+04  0.16861741097E+04  0.00000000000E+00 0. -1.
          6    1    1    2  501    0  0.49676718426E+02 -0.11757922050E+03 -0.47124796338E+03  0.51764011865E+03  0.17200000000E+03 0. -1.
         -6    1    1    2    0  503 -0.49676718426E+02  0.11757922050E+03 -0.11821061088E+04  0.12013540286E+04  0.17200000000E+03 0. -1.
<mgrwt>
<rscale>  2 0.21418835E+03</rscale>
<asrwt>0</asrwt>
<pdfrwt beam="1">  1       21 0.82050091E-02 0.21418835E+03</pdfrwt>
<pdfrwt beam="2">  1       21 0.42154354E+00 0.21418835E+03</pdfrwt>
<totfact> 0.70809467E+02</totfact>
</mgrwt>
</event>
<event>
 4    1  0.1116135E+000  0.2077910E+03  0.7546771E-02  0.1143327E+00
         21   -1    0    0  501  502  0.00000000000E+00  0.00000000000E+00  0.69698687624E+02  0.69698687624E+02  0.00000000000E+00 0.  1.
         21   -1    0    0  502  503 -0.00000000000E+00 -0.00000000000E+00 -0.98076353550E+03  0.98076353550E+03  0.00000000000E+00 0.  1.
          6    1    1    2  501    0  0.11176991856E+03 -0.33174994149E+02 -0.13675242639E+03  0.24875353476E+03  0.17200000000E+03 0.  1.
         -6    1    1    2    0  503 -0.11176991856E+03  0.33174994149E+02 -0.77431242148E+03  0.80170868836E+03  0.17200000000E+03 0.  1.
<mgrwt>
<rscale>  2 0.20779099E+03</rscale>
<asrwt>0</asrwt>
<pdfrwt beam="1">  1       21 0.17424672E-01 0.20779099E+03</pdfrwt>
<pdfrwt beam="2">  1       21 0.24519088E+00 0.20779099E+03</pdfrwt>
<totfact> 0.20809367E+03</totfact>
</mgrwt>
</event>
<event>
 4    1  0.1116135E+000  0.2016494E+03  0.7546771E-02  0.1148355E+00
         21   -1    0    0  503  502  0.00000000000E+00  0.00000000000E+00  0.10253869484E+03  0.10253869484E+03  0.00000000000E+00 0.  1.
         21   -1    0    0  501  503 -0.00000000000E+00 -0.00000000000E+00 -0.54026326245E+03  0.54026326245E+03  0.00000000000E+00 0.  1.
          6    1    1    2  501    0  0.90819824060E+02  0.53199862909E+02 -0.38462310951E+03  0.43427802411E+03  0.17200000000E+03 0.  1.
         -6    1    1    2    0  502 -0.90819824060E+02 -0.53199862909E+02 -0.53101458095E+02  0.20852393318E+03  0.17200000000E+03 0.  1.
<mgrwt>
<rscale>  2 0.20164936E+03</rscale>
<asrwt>0</asrwt>
<pdfrwt beam="1">  1       21 0.25634674E-01 0.20164936E+03</pdfrwt>
<pdfrwt beam="2">  1       21 0.13506581E+00 0.20164936E+03</pdfrwt>
<totfact> 0.56237498E+03</totfact>
</mgrwt>
</event>
<event>
 4    1  0.1116135E+000  0.2083095E+03  0.7546771E-02  0.1142912E+00
         21   -1    0    0  501  502  0.00000000000E+00  0.00000000000E+00  0.48102804336E+03  0.48102804336E+03  0.00000000000E+00 0.  1.
         21   -1    0    0  502  503 -0.00000000000E+00 -0.00000000000E+00 -0.13863185521E+03  0.13863185521E+03  0.00000000000E+00 0. -1.
          6    1    1    2  501    0  0.97299482317E+02  0.65891218029E+02 -0.11914871885E+02  0.20864996057E+03  0.17200000000E+03 0. -1.
         -6    1    1    2    0  503 -0.97299482317E+02 -0.65891218029E+02  0.35431106003E+03  0.41100993800E+03  0.17200000000E+03 0.  1.
<mgrwt>
<rscale>  2 0.20830949E+03</rscale>
<asrwt>0</asrwt>
<pdfrwt beam="1">  1       21 0.12025701E+00 0.20830949E+03</pdfrwt>
<pdfrwt beam="2">  1       21 0.34657965E-01 0.20830949E+03</pdfrwt>
<totfact> 0.41613881E+03</totfact>
</mgrwt>
</event>
<event>
 4    1  0.1116135E+000  0.1850728E+03  0.7546771E-02  0.1162982E+00
         21   -1    0    0  501  502  0.00000000000E+00  0.00000000000E+00  0.23301925913E+03  0.23301925913E+03  0.00000000000E+00 0. -1.
         21   -1    0    0  502  503 -0.00000000000E+00 -0.00000000000E+00 -0.14958457003E+03  0.14958457003E+03  0.00000000000E+00 0.  1.
          6    1    1    2  501    0 -0.14614855966E+02 -0.66741005738E+02  0.66902529651E+02  0.19679406580E+03  0.17200000000E+03 0.  1.
         -6    1    1    2    0  503  0.14614855966E+02  0.66741005738E+02  0.16532159458E+02  0.18580976336E+03  0.17200000000E+03 0.  1.
<mgrwt>
<rscale>  2 0.18507284E+03</rscale>
<asrwt>0</asrwt>
<pdfrwt beam="1">  1       21 0.58254814E-01 0.18507284E+03</pdfrwt>
<pdfrwt beam="2">  1       21 0.37396143E-01 0.18507284E+03</pdfrwt>
<totfact> 0.19122950E+04</totfact>
</mgrwt>
</event>
<event>
 4    1  0.1116135E+000  0.1785880E+03  0.7546771E-02  0.1169177E+00
         21   -1    0    0  503  502  0.00000000000E+00  0.00000000000E+00  0.66785390161E+02  0.66785390161E+02  0.00000000000E+00 0.  1.
         21   -1    0    0  501  503 -0.00000000000E+00 -0.00000000000E+00 -0.77937235582E+03  0.77937235582E+03  0.00000000000E+00 0.  1.
          6    1    1    2  501    0  0.90798330102E+01  0.47193554689E+02 -0.61957549131E+03  0.64480032910E+03  0.17200000000E+03 0.  1.
         -6    1    1    2    0  502 -0.90798330102E+01 -0.47193554689E+02 -0.93011474341E+02  0.20135741688E+03  0.17200000000E+03 0.  1.
<mgrwt>
<rscale>  2 0.17858800E+03</rscale>
<asrwt>0</asrwt>
<pdfrwt beam="1">  1       21 0.16696348E-01 0.17858800E+03</pdfrwt>
<pdfrwt beam="2">  1       21 0.19484309E+00 0.17858800E+03</pdfrwt>
<totfact> 0.47382118E+03</totfact>
</mgrwt>
</event>
<event>
 4    1  0.1116135E+000  0.2291356E+03  0.7546771E-02  0.1127250E+00
         21   -1    0    0  501  502  0.00000000000E+00  0.00000000000E+00  0.96896798575E+02  0.96896798575E+02  0.00000000000E+00 0.  1.
         21   -1    0    0  502  503 -0.00000000000E+00 -0.00000000000E+00 -0.75873398488E+03  0.75873398488E+03  0.00000000000E+00 0. -1.
          6    1    1    2  501    0  0.14946378941E+02  0.15065094911E+03 -0.10218508181E+03  0.25088820948E+03  0.17200000000E+03 0.  1.
         -6    1    1    2    0  503 -0.14946378941E+02 -0.15065094911E+03 -0.55965210450E+03  0.60474257398E+03  0.17200000000E+03 0. -1.
<mgrwt>
<rscale>  2 0.22913556E+03</rscale>
<asrwt>0</asrwt>
<pdfrwt beam="1">  1       21 0.24224200E-01 0.22913556E+03</pdfrwt>
<pdfrwt beam="2">  1       21 0.18968349E+00 0.22913556E+03</pdfrwt>
<totfact> 0.24363200E+03</totfact>
</mgrwt>
</event>
<event>
 4    1  0.1116135E+000  0.2966442E+03  0.7546771E-02  0.1086930E+00
         21   -1    0    0  501  502  0.00000000000E+00  0.00000000000E+00  0.27356855740E+03  0.27356855740E+03  0.00000000000E+00 0. -1.
         21   -1    0    0  502  503 -0.00000000000E+00 -0.00000000000E+00 -0.64293581450E+03  0.64293581450E+03  0.00000000000E+00 0.  1.
          6    1    1    2  501    0  0.15772096413E+03 -0.18313343972E+03  0.13924964485E+03  0.32770142334E+03  0.17200000000E+03 0.  1.
         -6    1    1    2    0  503 -0.15772096413E+03  0.18313343972E+03 -0.50861690195E+03  0.58880294855E+03  0.17200000000E+03 0. -1.
<mgrwt>
<rscale>  2 0.29664416E+03</rscale>
<asrwt>0</asrwt>
<pdfrwt beam="1">  1       21 0.68392140E-01 0.29664416E+03</pdfrwt>
<pdfrwt beam="2">  1       21 0.16073395E+00 0.29664416E+03</pdfrwt>
<totfact> 0.43961713E+02</totfact>
</mgrwt>
</event>
<event>
 4    1  0.1116135E+000  0.2017805E+03  0.7546771E-02  0.1148245E+00
         21   -1    0    0  501  502  0.00000000000E+00  0.00000000000E+00  0.18643670107E+03  0.18643670107E+03  0.00000000000E+00 0. -1.
         21   -1    0    0  502  503 -0.00000000000E+00 -0.00000000000E+00 -0.41400481514E+03  0.41400481514E+03  0.00000000000E+00 0. -1.
          6    1    1    2  501    0 -0.49215738929E+02  0.93322988553E+02  0.92583831187E+02  0.22200706058E+03  0.17200000000E+03 0. -1.
         -6    1    1    2    0  503  0.49215738929E+02 -0.93322988553E+02 -0.32015194526E+03  0.37843445562E+03  0.17200000000E+03 0. -1.
<mgrwt>
<rscale>  2 0.20178050E+03</rscale>
<asrwt>0</asrwt>
<pdfrwt beam="1">  1       21 0.46609175E-01 0.20178050E+03</pdfrwt>
<pdfrwt beam="2">  1       21 0.10350120E+00 0.20178050E+03</pdfrwt>
<totfact> 0.33078799E+03</totfact>
</mgrwt>
</event>
<event>
 4    1  0.1116135E+000  0.1753980E+03  0.7546771E-02  0.1172333E+00
         21   -1    0    0  501  502  0.00000000000E+00  0.00000000000E+00  0.10116465345E+03  0.10116465345E+03  0.00000000000E+00 0. -1.
         21   -1    0    0  502  503 -0.00000000000E+00 -0.00000000000E+00 -0.52000322098E+03  0.52000322098E+03  0.00000000000E+00 0. -1.
          6    1    1    2  501    0  0.27612548518E+02  0.20444806642E+02 -0.92935983291E+01  0.17564399769E+03  0.17200000000E+03 0. -1.
         -6    1    1    2    0  503 -0.27612548518E+02 -0.20444806642E+02 -0.40954496919E+03  0.44552387674E+03  0.17200000000E+03 0. -1.
<mgrwt>
<rscale>  2 0.17539796E+03</rscale>
<asrwt>0</asrwt>
<pdfrwt beam="1">  1       21 0.25291164E-01 0.17539796E+03</pdfrwt>
<pdfrwt beam="2">  1       21 0.13000080E+00 0.17539796E+03</pdfrwt>
<totfact> 0.64936854E+03</totfact>
</mgrwt>
</event>
<event>
 4    1  0.1116135E+000  0.2801051E+03  0.7546771E-02  0.1095632E+00
         21   -1    0    0  503  502  0.00000000000E+00  0.00000000000E+00  0.17340278668E+03  0.17340278668E+03  0.00000000000E+00 0.  1.
         21   -1    0    0  501  503 -0.00000000000E+00 -0.00000000000E+00 -0.50039566619E+03  0.50039566619E+03  0.00000000000E+00 0. -1.
          6    1    1    2  501    0 -0.13572868121E+03  0.17450666040E+03 -0.26776319539E+03  0.38749964934E+03  0.17200000000E+03 0. -1.
         -6    1    1    2    0  502  0.13572868121E+03 -0.17450666040E+03 -0.59229684113E+02  0.28629880354E+03  0.17200000000E+03 0.  1.
<mgrwt>
<rscale>  2 0.28010507E+03</rscale>
<asrwt>0</asrwt>
<pdfrwt beam="1">  1       21 0.43350697E-01 0.28010507E+03</pdfrwt>
<pdfrwt beam="2">  1       21 0.12509892E+00 0.28010507E+03</pdfrwt>
<totfact> 0.22772142E+03</totfact>
</mgrwt>
</event>
<event>
 4    1  0.1116135E+000  0.2510254E+03  0.7546771E-02  0.1112659E+00
         21   -1    0    0  503  502  0.00000000000E+00  0.00000000000E+00  0.38153557397E+03  0.38153557397E+03  0.00000000000E+00 0.  1.
         21   -1    0    0  501  503 -0.00000000000E+00 -0.00000000000E+00 -0.18920997308E+03  0.18920997308E+03  0.00000000000E+00 0. -1.
          6    1    1    2  501    0 -0.15544809832E+03 -0.96258193852E+02  0.19790790915E+03  0.31965808555E+03  0.17200000000E+03 0.  1.
         -6    1    1    2    0  502  0.15544809832E+03  0.96258193852E+02 -0.55823082506E+01  0.25108746150E+03  0.17200000000E+03 0. -1.
<mgrwt>
<rscale>  2 0.25102540E+03</rscale>
<asrwt>0</asrwt>
<pdfrwt beam="1">  1       21 0.95383892E-01 0.25102540E+03</pdfrwt>
<pdfrwt beam="2">  1       21 0.47302494E-01 0.25102540E+03</pdfrwt>
<totfact> 0.37573559E+03</totfact>
</mgrwt>
</event>
<event>
 4    1  0.1116135E+000  0.2845144E+03  0.7546771E-02  0.1093249E+00
         21   -1    0    0  501  502  0.00000000000E+00  0.00000000000E+00  0.41975110315E+03  0.41975110315E+03  0.00000000000E+00 0. -1.
         21   -1    0    0  502  503 -0.00000000000E+00 -0.00000000000E+00 -0.27041525994E+03  0.27041525994E+03  0.00000000000E+00 0. -1.
          6    1    1    2  501    0 -0.17413596892E+03  0.14505555430E+03  0.25948644442E+03  0.38507358302E+03  0.17200000000E+03 0. -1.
         -6    1    1    2    0  503  0.17413596892E+03 -0.14505555430E+03 -0.11015060120E+03  0.30509278007E+03  0.17200000000E+03 0. -1.
<mgrwt>
<rscale>  2 0.28451441E+03</rscale>
<asrwt>0</asrwt>
<pdfrwt beam="1">  1       21 0.10493778E+00 0.28451441E+03</pdfrwt>
<pdfrwt beam="2">  1       21 0.67603815E-01 0.28451441E+03</pdfrwt>
<totfact> 0.13595502E+03</totfact>
</mgrwt>
</event>
<event>
 4    1  0.1116135E+000  0.1799240E+03  0.7546771E-02  0.1167877E+00
         21   -1    0    0  503  502  0.00000000000E+00  0.00000000000E+00  0.10178411896E+03  0.10178411896E+03  0.00000000000E+00 0.  1.
         21   -1    0    0  501  503 -0.00000000000E+00 -0.00000000000E+00 -0.33828079719E+03  0.33828079719E+03  0.00000000000E+00 0. -1.
          6    1    1    2  501    0  0.31771260681E+02 -0.42180836789E+02 -0.17205472284E+03  0.24894871691E+03  0.17200000000E+03 0.  1.
         -6    1    1    2    0  502 -0.31771260681E+02  0.42180836789E+02 -0.64441955396E+02  0.19111619924E+03  0.17200000000E+03 0.  1.
<mgrwt>
<rscale>  2 0.17992397E+03</rscale>
<asrwt>0</asrwt>
<pdfrwt beam="1">  1       21 0.25446030E-01 0.17992397E+03</pdfrwt>
<pdfrwt beam="2">  1       21 0.84570199E-01 0.17992397E+03</pdfrwt>
<totfact> 0.17892529E+04</totfact>
</mgrwt>
</event>
<event>
 4    1  0.1116135E+000  0.2436980E+03  0.7546771E-02  0.1117354E+00
         21   -1    0    0  501  502  0.00000000000E+00  0.00000000000E+00  0.40804301191E+02  0.40804301191E+02  0.00000000000E+00 0. -1.
         21   -1    0    0  502  503 -0.00000000000E+00 -0.00000000000E+00 -0.14614544161E+04  0.14614544161E+04  0.00000000000E+00 0. -1.
          6    1    1    2  501    0 -0.16102201709E+03  0.62262741524E+02 -0.66219103343E+03  0.70561016413E+03  0.17200000000E+03 0. -1.
         -6    1    1    2    0  503  0.16102201709E+03 -0.62262741524E+02 -0.75845908144E+03  0.79664855312E+03  0.17200000000E+03 0. -1.
<mgrwt>
<rscale>  2 0.24369805E+03</rscale>
<asrwt>0</asrwt>
<pdfrwt beam="1">  1       21 0.10201075E-01 0.24369805E+03</pdfrwt>
<pdfrwt beam="2">  1       21 0.36536361E+00 0.24369805E+03</pdfrwt>
<totfact> 0.10377330E+03</totfact>
</mgrwt>
</event>
<event>
 4    1  0.1116135E+000  0.2275665E+03  0.7546771E-02  0.1128364E+00
         21   -1    0    0  501  502  0.00000000000E+00  0.00000000000E+00  0.26089257633E+03  0.26089257633E+03  0.00000000000E+00 0. -1.
         21   -1    0    0  502  503 -0.00000000000E+00 -0.00000000000E+00 -0.20953842970E+03  0.20953842970E+03  0.00000000000E+00 0. -1.
          6    1    1    2  501    0 -0.14617478886E+03 -0.28904148953E+02  0.79670057674E+02  0.24110959503E+03  0.17200000000E+03 0. -1.
         -6    1    1    2    0  503  0.14617478886E+03  0.28904148953E+02 -0.28315911049E+02  0.22932141100E+03  0.17200000000E+03 0. -1.
<mgrwt>
<rscale>  2 0.22756651E+03</rscale>
<asrwt>0</asrwt>
<pdfrwt beam="1">  1       21 0.65223144E-01 0.22756651E+03</pdfrwt>
<pdfrwt beam="2">  1       21 0.52384608E-01 0.22756651E+03</pdfrwt>
<totfact> 0.72983900E+03</totfact>
</mgrwt>
</event>
<event>
 4    1  0.1116135E+000  0.2570238E+03  0.7546771E-02  0.1108945E+00
         21   -1    0    0  503  502  0.00000000000E+00  0.00000000000E+00  0.44146754805E+03  0.44146754805E+03  0.00000000000E+00 0.  1.
         21   -1    0    0  501  503 -0.00000000000E+00 -0.00000000000E+00 -0.15557389422E+03  0.15557389422E+03  0.00000000000E+00 0.  1.
          6    1    1    2  501    0 -0.57236938413E+02 -0.18221188901E+03  0.20124743162E+03  0.32643800077E+03  0.17200000000E+03 0.  1.
         -6    1    1    2    0  502  0.57236938413E+02  0.18221188901E+03  0.84646222221E+02  0.27060344150E+03  0.17200000000E+03 0.  1.
<mgrwt>
<rscale>  2 0.25702381E+03</rscale>
<asrwt>0</asrwt>
<pdfrwt beam="1">  1       21 0.11036688E+00 0.25702381E+03</pdfrwt>
<pdfrwt beam="2">  1       21 0.38893474E-01 0.25702381E+03</pdfrwt>
<totfact> 0.39387626E+03</totfact>
</mgrwt>
</event>
<event>
 4    1  0.1116135E+000  0.2254428E+03  0.7546771E-02  0.1129889E+00
         21   -1    0    0  501  502  0.00000000000E+00  0.00000000000E+00  0.22065672420E+03  0.22065672420E+03  0.00000000000E+00 0. -1.
         21   -1    0    0  502  503 -0.00000000000E+00 -0.00000000000E+00 -0.32806060674E+03  0.32806060674E+03  0.00000000000E+00 0. -1.
          6    1    1    2  501    0 -0.14350300816E+03  0.25442690523E+02  0.96042631549E+02  0.24504822163E+03  0.17200000000E+03 0. -1.
         -6    1    1    2    0  503  0.14350300816E+03 -0.25442690523E+02 -0.20344651409E+03  0.30366910931E+03  0.17200000000E+03 0. -1.
<mgrwt>
<rscale>  2 0.22544277E+03</rscale>
<asrwt>0</asrwt>
<pdfrwt beam="1">  1       21 0.55164182E-01 0.22544277E+03</pdfrwt>
<pdfrwt beam="2">  1       21 0.82015151E-01 0.22544277E+03</pdfrwt>
<totfact> 0.39282240E+03</totfact>
</mgrwt>
</event>
<event>
 4    1  0.1116135E+000  0.2038388E+03  0.7546771E-02  0.1146540E+00
         21   -1    0    0  503  502  0.00000000000E+00  0.00000000000E+00  0.13624037143E+03  0.13624037143E+03  0.00000000000E+00 0. -1.
         21   -1    0    0  501  503 -0.00000000000E+00 -0.00000000000E+00 -0.55022999283E+03  0.55022999283E+03  0.00000000000E+00 0. -1.
          6    1    1    2  501    0  0.58026679111E+02  0.92731579931E+02 -0.43614827362E+03  0.48143074059E+03  0.17200000000E+03 0. -1.
         -6    1    1    2    0  502 -0.58026679111E+02 -0.92731579931E+02  0.22158652218E+02  0.20503962367E+03  0.17200000000E+03 0. -1.
<mgrwt>
<rscale>  2 0.20383876E+03</rscale>
<asrwt>0</asrwt>
<pdfrwt beam="1">  1       21 0.34060093E-01 0.20383876E+03</pdfrwt>
<pdfrwt beam="2">  1       21 0.13755750E+00 0.20383876E+03</pdfrwt>
<totfact> 0.30794695E+03</totfact>
</mgrwt>
</event>
<event>
 4    1  0.1116135E+000  0.3158699E+03  0.7546771E-02  0.1077566E+00
         21   -1    0    0  503  502  0.00000000000E+00  0.00000000000E+00  0.10032252644E+04  0.10032252644E+04  0.00000000000E+00 0. -1.
         21   -1    0    0  501  503 -0.00000000000E+00 -0.00000000000E+00 -0.11132006234E+03  0.11132006234E+03  0.00000000000E+00 0. -1.
          6    1    1    2  501    0  0.24290570565E+03  0.10576678637E+03  0.26400261178E+03  0.41166876729E+03  0.17200000000E+03 0. -1.
         -6    1    1    2    0  502 -0.24290570565E+03 -0.10576678637E+03  0.62790259030E+03  0.70287655946E+03  0.17200000000E+03 0. -1.
<mgrwt>
<rscale>  2 0.31586990E+03</rscale>
<asrwt>0</asrwt>
<pdfrwt beam="1">  1       21 0.25080629E+00 0.31586990E+03</pdfrwt>
<pdfrwt beam="2">  1       21 0.27830019E-01 0.31586990E+03</pdfrwt>
<totfact> 0.71834372E+02</totfact>
</mgrwt>
</event>
<event>
 4    1  0.1116135E+000  0.1801080E+03  0.7546771E-02  0.1167699E+00
         21   -1    0    0  503  502  0.00000000000E+00  0.00000000000E+00  0.36144864414E+03  0.36144864414E+03  0.00000000000E+00 0. -1.
         21   -1    0    0  501  503 -0.00000000000E+00 -0.00000000000E+00 -0.19675431236E+03  0.19675431236E+03  0.00000000000E+00 0. -1.
          6    1    1    2  501    0 -0.49417943937E+01  0.53202107914E+02 -0.12348203710E+03  0.21837284425E+03  0.17200000000E+03 0. -1.
         -6    1    1    2    0  502  0.49417943937E+01 -0.53202107914E+02  0.28817636888E+03  0.33983011226E+03  0.17200000000E+03 0. -1.
<mgrwt>
<rscale>  2 0.18010798E+03</rscale>
<asrwt>0</asrwt>
<pdfrwt beam="1">  1       21 0.90362160E-01 0.18010798E+03</pdfrwt>
<pdfrwt beam="2">  1       21 0.49188579E-01 0.18010798E+03</pdfrwt>
<totfact> 0.41463414E+03</totfact>
</mgrwt>
</event>
<event>
 4    1  0.1116135E+000  0.2183091E+03  0.7546771E-02  0.1135150E+00
         21   -1    0    0  503  502  0.00000000000E+00  0.00000000000E+00  0.19714105181E+03  0.19714105181E+03  0.00000000000E+00 0.  1.
         21   -1    0    0  501  503 -0.00000000000E+00 -0.00000000000E+00 -0.26162554960E+03  0.26162554960E+03  0.00000000000E+00 0. -1.
          6    1    1    2  501    0  0.24641177894E+02 -0.13216536439E+03 -0.95465973848E+02  0.23827006391E+03  0.17200000000E+03 0. -1.
         -6    1    1    2    0  502 -0.24641177894E+02  0.13216536439E+03  0.30981476057E+02  0.22049653751E+03  0.17200000000E+03 0.  1.
<mgrwt>
<rscale>  2 0.21830912E+03</rscale>
<asrwt>0</asrwt>
<pdfrwt beam="1">  1       21 0.49285263E-01 0.21830912E+03</pdfrwt>
<pdfrwt beam="2">  1       21 0.65406387E-01 0.21830912E+03</pdfrwt>
<totfact> 0.82936290E+03</totfact>
</mgrwt>
</event>
<event>
 4    1  0.1116135E+000  0.1938446E+03  0.7546771E-02  0.1155039E+00
         21   -1    0    0  503  502  0.00000000000E+00  0.00000000000E+00  0.52201585812E+03  0.52201585812E+03  0.00000000000E+00 0.  1.
         21   -1    0    0  501  503 -0.00000000000E+00 -0.00000000000E+00 -0.92918298836E+02  0.92918298836E+02  0.00000000000E+00 0.  1.
          6    1    1    2  501    0 -0.84363794416E+02  0.29571590571E+02  0.68600734355E+02  0.20562536208E+03  0.17200000000E+03 0. -1.
         -6    1    1    2    0  502  0.84363794416E+02 -0.29571590571E+02  0.36049682492E+03  0.40930879487E+03  0.17200000000E+03 0. -1.
<mgrwt>
<rscale>  2 0.19384460E+03</rscale>
<asrwt>0</asrwt>
<pdfrwt beam="1">  1       21 0.13050396E+00 0.19384460E+03</pdfrwt>
<pdfrwt beam="2">  1       21 0.23229576E-01 0.19384460E+03</pdfrwt>
<totfact> 0.74491826E+03</totfact>
</mgrwt>
</event>
<event>
 4    1  0.1116135E+000  0.2316910E+03  0.7546771E-02  0.1125455E+00
         21   -1    0    0  503  502  0.00000000000E+00  0.00000000000E+00  0.53843643619E+02  0.53843643619E+02  0.00000000000E+00 0.  1.
         21   -1    0    0  501  503 -0.00000000000E+00 -0.00000000000E+00 -0.12374720387E+04  0.12374720387E+04  0.00000000000E+00 0.  1.
          6    1    1    2  501    0  0.38209590766E+02 -0.15045516286E+03 -0.87645046249E+03  0.90655730214E+03  0.17200000000E+03 0.  1.
         -6    1    1    2    0  502 -0.38209590766E+02  0.15045516286E+03 -0.30717793263E+03  0.38475838022E+03  0.17200000000E+03 0.  1.
<mgrwt>
<rscale>  2 0.23169102E+03</rscale>
<asrwt>0</asrwt>
<pdfrwt beam="1">  1       21 0.13460911E-01 0.23169102E+03</pdfrwt>
<pdfrwt beam="2">  1       21 0.30936801E+00 0.23169102E+03</pdfrwt>
<totfact> 0.13715162E+03</totfact>
</mgrwt>
</event>
<event>
 4    1  0.1116135E+000  0.2002760E+03  0.7546771E-02  0.1149506E+00
         21   -1    0    0  501  502  0.00000000000E+00  0.00000000000E+00  0.13375032915E+04  0.13375032915E+04  0.00000000000E+00 0. -1.
         21   -1    0    0  502  503 -0.00000000000E+00 -0.00000000000E+00 -0.30385628646E+02  0.30385628646E+02  0.00000000000E+00 0. -1.
          6    1    1    2  501    0 -0.93428393284E+01  0.10217224742E+03  0.57542306628E+03  0.60928003578E+03  0.17200000000E+03 0. -1.
         -6    1    1    2    0  503  0.93428393284E+01 -0.10217224742E+03  0.73169459660E+03  0.75860888440E+03  0.17200000000E+03 0. -1.
<mgrwt>
<rscale>  2 0.20027595E+03</rscale>
<asrwt>0</asrwt>
<pdfrwt beam="1">  1       21 0.33437563E+00 0.20027595E+03</pdfrwt>
<pdfrwt beam="2">  1       21 0.75964117E-02 0.20027595E+03</pdfrwt>
<totfact> 0.28078778E+03</totfact>
</mgrwt>
</event>
<event>
 4    1  0.1116135E+000  0.1788623E+03  0.7546771E-02  0.1168909E+00
         21   -1    0    0  501  502  0.00000000000E+00  0.00000000000E+00  0.58942164111E+03  0.58942164111E+03  0.00000000000E+00 0. -1.
         21   -1    0    0  502  503 -0.00000000000E+00 -0.00000000000E+00 -0.56918116250E+02  0.56918116250E+02  0.00000000000E+00 0. -1.
          6    1    1    2  501    0  0.48591184049E+02 -0.68282977153E+01  0.33587313098E+03  0.38052922218E+03  0.17200000000E+03 0.  1.
         -6    1    1    2    0  503 -0.48591184049E+02  0.68282977153E+01  0.19663039388E+03  0.26581053519E+03  0.17200000000E+03 0.  1.
<mgrwt>
<rscale>  2 0.17886232E+03</rscale>
<asrwt>0</asrwt>
<pdfrwt beam="1">  1       21 0.14735539E+00 0.17886232E+03</pdfrwt>
<pdfrwt beam="2">  1       21 0.14229531E-01 0.17886232E+03</pdfrwt>
<totfact> 0.13657374E+04</totfact>
</mgrwt>
</event>
<event>
 4    1  0.1116135E+000  0.2188977E+03  0.7546771E-02  0.1134708E+00
         21   -1    0    0  503  502  0.00000000000E+00  0.00000000000E+00  0.12343329387E+04  0.12343329387E+04  0.00000000000E+00 0.  1.
         21   -1    0    0  501  503 -0.00000000000E+00 -0.00000000000E+00 -0.41934932439E+02  0.41934932439E+02  0.00000000000E+00 0. -1.
          6    1    1    2  501    0  0.95944156033E+02 -0.95534957362E+02  0.42226607286E+03  0.47563099714E+03  0.17200000000E+03 0. -1.
         -6    1    1    2    0  502 -0.95944156033E+02  0.95534957362E+02  0.77013193335E+03  0.80063687395E+03  0.17200000000E+03 0.  1.
<mgrwt>
<rscale>  2 0.21889771E+03</rscale>
<asrwt>0</asrwt>
<pdfrwt beam="1">  1       21 0.30858311E+00 0.21889771E+03</pdfrwt>
<pdfrwt beam="2">  1       21 0.10483737E-01 0.21889771E+03</pdfrwt>
<totfact> 0.22028012E+03</totfact>
</mgrwt>
</event>
<event>
 4    1  0.1116135E+000  0.1834583E+03  0.7546771E-02  0.1164497E+00
         21   -1    0    0  503  502  0.00000000000E+00  0.00000000000E+00  0.14992190009E+03  0.14992190009E+03  0.00000000000E+00 0.  1.
         21   -1    0    0  501  503 -0.00000000000E+00 -0.00000000000E+00 -0.22723113581E+03  0.22723113581E+03  0.00000000000E+00 0.  1.
          6    1    1    2  501    0  0.16586667036E+02  0.61626685437E+02 -0.17967942031E+02  0.18433614085E+03  0.17200000000E+03 0.  1.
         -6    1    1    2    0  502 -0.16586667036E+02 -0.61626685437E+02 -0.59341293685E+02  0.19281689505E+03  0.17200000000E+03 0.  1.
<mgrwt>
<rscale>  2 0.18345835E+03</rscale>
<asrwt>0</asrwt>
<pdfrwt beam="1">  1       21 0.37480475E-01 0.18345835E+03</pdfrwt>
<pdfrwt beam="2">  1       21 0.56807784E-01 0.18345835E+03</pdfrwt>
<totfact> 0.20103987E+04</totfact>
</mgrwt>
</event>
<event>
 4    1  0.1116135E+000  0.2825114E+03  0.7546771E-02  0.1094325E+00
         21   -1    0    0  503  502  0.00000000000E+00  0.00000000000E+00  0.54050776342E+02  0.54050776342E+02  0.00000000000E+00 0.  1.
         21   -1    0    0  501  503 -0.00000000000E+00 -0.00000000000E+00 -0.16056489651E+04  0.16056489651E+04  0.00000000000E+00 0.  1.
          6    1    1    2  501    0  0.22411141703E+03  0.16631488105E+01 -0.10110387252E+04  0.10497675920E+04  0.17200000000E+03 0.  1.
         -6    1    1    2    0  502 -0.22411141703E+03 -0.16631488105E+01 -0.54055946352E+03  0.60993214943E+03  0.17200000000E+03 0.  1.
<mgrwt>
<rscale>  2 0.28251140E+03</rscale>
<asrwt>0</asrwt>
<pdfrwt beam="1">  1       21 0.13512694E-01 0.28251140E+03</pdfrwt>
<pdfrwt beam="2">  1       21 0.40141225E+00 0.28251140E+03</pdfrwt>
<totfact> 0.35818148E+02</totfact>
</mgrwt>
</event>
<event>
 4    1  0.1116135E+000  0.2232620E+03  0.7546771E-02  0.1131474E+00
         21   -1    0    0  503  502  0.00000000000E+00  0.00000000000E+00  0.32776211288E+03  0.32776211288E+03  0.00000000000E+00 0. -1.
         21   -1    0    0  501  503 -0.00000000000E+00 -0.00000000000E+00 -0.87369820968E+03  0.87369820968E+03  0.00000000000E+00 0.  1.
          6    1    1    2  501    0  0.13911945416E+03  0.30128178476E+02 -0.81891768102E+03  0.84880627822E+03  0.17200000000E+03 0.  1.
         -6    1    1    2    0  502 -0.13911945416E+03 -0.30128178476E+02  0.27298158422E+03  0.35265404434E+03  0.17200000000E+03 0. -1.
<mgrwt>
<rscale>  2 0.22326202E+03</rscale>
<asrwt>0</asrwt>
<pdfrwt beam="1">  1       21 0.81940529E-01 0.22326202E+03</pdfrwt>
<pdfrwt beam="2">  1       21 0.21842455E+00 0.22326202E+03</pdfrwt>
<totfact> 0.12857936E+02</totfact>
</mgrwt>
</event>
<event>
 4    1  0.1116135E+000  0.2860825E+03  0.7546771E-02  0.1092412E+00
         21   -1    0    0  503  502  0.00000000000E+00  0.00000000000E+00  0.13196206057E+04  0.13196206057E+04  0.00000000000E+00 0. -1.
         21   -1    0    0  501  503 -0.00000000000E+00 -0.00000000000E+00 -0.71548539827E+02  0.71548539827E+02  0.00000000000E+00 0. -1.
          6    1    1    2  501    0 -0.39090313728E+02  0.22523578362E+03  0.37019791235E+03  0.46785650060E+03  0.17200000000E+03 0. -1.
         -6    1    1    2    0  502  0.39090313728E+02 -0.22523578362E+03  0.87787415349E+03  0.92331264489E+03  0.17200000000E+03 0. -1.
<mgrwt>
<rscale>  2 0.28608252E+03</rscale>
<asrwt>0</asrwt>
<pdfrwt beam="1">  1       21 0.32990507E+00 0.28608252E+03</pdfrwt>
<pdfrwt beam="2">  1       21 0.17887139E-01 0.28608252E+03</pdfrwt>
<totfact> 0.58196289E+02</totfact>
</mgrwt>
</event>
<event>
 4    1  0.1116135E+000  0.1871851E+03  0.7546771E-02  0.1161025E+00
         21   -1    0    0  501  502  0.00000000000E+00  0.00000000000E+00  0.13127694306E+03  0.13127694306E+03  0.00000000000E+00 0.  1.
         21   -1    0    0  502  503 -0.00000000000E+00 -0.00000000000E+00 -0.27923390281E+03  0.27923390281E+03  0.00000000000E+00 0.  1.
          6    1    1    2  501    0 -0.57497093193E+02  0.46350139237E+02 -0.11711076602E+03  0.22080122882E+03  0.17200000000E+03 0.  1.
         -6    1    1    2    0  503  0.57497093193E+02 -0.46350139237E+02 -0.30846193725E+02  0.18970961705E+03  0.17200000000E+03 0.  1.
<mgrwt>
<rscale>  2 0.18718507E+03</rscale>
<asrwt>0</asrwt>
<pdfrwt beam="1">  1       21 0.32819236E-01 0.18718507E+03</pdfrwt>
<pdfrwt beam="2">  1       21 0.69808475E-01 0.18718507E+03</pdfrwt>
<totfact> 0.16715962E+04</totfact>
</mgrwt>
</event>
<event>
 4    1  0.1116135E+000  0.1951968E+03  0.7546771E-02  0.1153856E+00
         21   -1    0    0  503  502  0.00000000000E+00  0.00000000000E+00  0.17634586866E+03  0.17634586866E+03  0.00000000000E+00 0. -1.
         21   -1    0    0  501  503 -0.00000000000E+00 -0.00000000000E+00 -0.32212835576E+03  0.32212835576E+03  0.00000000000E+00 0.  1.
          6    1    1    2  501    0  0.87627669346E+02 -0.28968866836E+02 -0.21590742190E+03  0.29106325517E+03  0.17200000000E+03 0.  1.
         -6    1    1    2    0  502 -0.87627669346E+02  0.28968866836E+02  0.70124934796E+02  0.20741096924E+03  0.17200000000E+03 0. -1.
<mgrwt>
<rscale>  2 0.19519683E+03</rscale>
<asrwt>0</asrwt>
<pdfrwt beam="1">  1       21 0.44086468E-01 0.19519683E+03</pdfrwt>
<pdfrwt beam="2">  1       21 0.80532088E-01 0.19519683E+03</pdfrwt>
<totfact> 0.66836428E+03</totfact>
</mgrwt>
</event>
<event>
 4    1  0.1116135E+000  0.2124655E+03  0.7546771E-02  0.1139628E+00
         21   -1    0    0  501  502  0.00000000000E+00  0.00000000000E+00  0.67496458958E+03  0.67496458958E+03  0.00000000000E+00 0.  1.
         21   -1    0    0  502  503 -0.00000000000E+00 -0.00000000000E+00 -0.27249375570E+03  0.27249375570E+03  0.00000000000E+00 0. -1.
          6    1    1    2  501    0 -0.12306462751E+03  0.20314665003E+02  0.61274315254E+03  0.64853354512E+03  0.17200000000E+03 0.  1.
         -6    1    1    2    0  503  0.12306462751E+03 -0.20314665003E+02 -0.21027231866E+03  0.29892480016E+03  0.17200000000E+03 0. -1.
<mgrwt>
<rscale>  2 0.21246550E+03</rscale>
<asrwt>0</asrwt>
<pdfrwt beam="1">  1       21 0.16874114E+00 0.21246550E+03</pdfrwt>
<pdfrwt beam="2">  1       21 0.68123440E-01 0.21246550E+03</pdfrwt>
<totfact> 0.41874030E+02</totfact>
</mgrwt>
</event>
<event>
 4    1  0.1116135E+000  0.2207369E+03  0.7546771E-02  0.1133335E+00
         21   -1    0    0  503  502  0.00000000000E+00  0.00000000000E+00  0.43146316917E+03  0.43146316917E+03  0.00000000000E+00 0. -1.
         21   -1    0    0  501  503 -0.00000000000E+00 -0.00000000000E+00 -0.14990713511E+03  0.14990713511E+03  0.00000000000E+00 0.  1.
          6    1    1    2  501    0 -0.13097101099E+03  0.44579814586E+02 -0.35941130896E+01  0.22076612792E+03  0.17200000000E+03 0.  1.
         -6    1    1    2    0  502  0.13097101099E+03 -0.44579814586E+02  0.28515014715E+03  0.36060417636E+03  0.17200000000E+03 0. -1.
<mgrwt>
<rscale>  2 0.22073687E+03</rscale>
<asrwt>0</asrwt>
<pdfrwt beam="1">  1       21 0.10786579E+00 0.22073687E+03</pdfrwt>
<pdfrwt beam="2">  1       21 0.37476785E-01 0.22073687E+03</pdfrwt>
<totfact> 0.46004974E+03</totfact>
</mgrwt>
</event>
<event>
 4    1  0.1116135E+000  0.1856488E+03  0.7546771E-02  0.1162445E+00
         21   -1    0    0  501  502  0.00000000000E+00  0.00000000000E+00  0.89574719945E+03  0.89574719945E+03  0.00000000000E+00 0. -1.
         21   -1    0    0  502  503 -0.00000000000E+00 -0.00000000000E+00 -0.38733251076E+02  0.38733251076E+02  0.00000000000E+00 0. -1.
          6    1    1    2  501    0 -0.12685108825E+02 -0.68706349084E+02  0.39048704199E+03  0.43237206703E+03  0.17200000000E+03 0. -1.
         -6    1    1    2    0  503  0.12685108825E+02  0.68706349084E+02  0.46652690638E+03  0.50210838349E+03  0.17200000000E+03 0. -1.
<mgrwt>
<rscale>  2 0.18564879E+03</rscale>
<asrwt>0</asrwt>
<pdfrwt beam="1">  1       21 0.22393673E+00 0.18564879E+03</pdfrwt>
<pdfrwt beam="2">  1       21 0.96833157E-02 0.18564879E+03</pdfrwt>
<totfact> 0.82275793E+03</totfact>
</mgrwt>
</event>
<event>
 4    1  0.1116135E+000  0.2005764E+03  0.7546771E-02  0.1149254E+00
         21   -1    0    0  503  502  0.00000000000E+00  0.00000000000E+00  0.22196703071E+03  0.22196703071E+03  0.00000000000E+00 0.  1.
         21   -1    0    0  501  503 -0.00000000000E+00 -0.00000000000E+00 -0.21102549745E+03  0.21102549745E+03  0.00000000000E+00 0.  1.
          6    1    1    2  501    0  0.10283167801E+03  0.85174209593E+01 -0.75855895687E+02  0.21444117462E+03  0.17200000000E+03 0.  1.
         -6    1    1    2    0  502 -0.10283167801E+03 -0.85174209593E+01  0.86797428947E+02  0.21855135354E+03  0.17200000000E+03 0.  1.
<mgrwt>
<rscale>  2 0.20057642E+03</rscale>
<asrwt>0</asrwt>
<pdfrwt beam="1">  1       21 0.55491758E-01 0.20057642E+03</pdfrwt>
<pdfrwt beam="2">  1       21 0.52756374E-01 0.20057642E+03</pdfrwt>
<totfact> 0.10367674E+04</totfact>
</mgrwt>
</event>
<event>
 4    1  0.1116135E+000  0.2027652E+03  0.7546771E-02  0.1147427E+00
         21   -1    0    0  501  502  0.00000000000E+00  0.00000000000E+00  0.63159346008E+02  0.63159346008E+02  0.00000000000E+00 0. -1.
         21   -1    0    0  502  503 -0.00000000000E+00 -0.00000000000E+00 -0.69469799255E+03  0.69469799255E+03  0.00000000000E+00 0. -1.
          6    1    1    2  501    0 -0.43014440595E+02  0.98384447513E+02 -0.22068136678E+03  0.29968985177E+03  0.17200000000E+03 0. -1.
         -6    1    1    2    0  503  0.43014440595E+02 -0.98384447513E+02 -0.41085727976E+03  0.45816748678E+03  0.17200000000E+03 0. -1.
<mgrwt>
<rscale>  2 0.20276524E+03</rscale>
<asrwt>0</asrwt>
<pdfrwt beam="1">  1       21 0.15789836E-01 0.20276524E+03</pdfrwt>
<pdfrwt beam="2">  1       21 0.17367450E+00 0.20276524E+03</pdfrwt>
<totfact> 0.71250194E+03</totfact>
</mgrwt>
</event>
<event>
 4    1  0.1116135E+000  0.2269458E+03  0.7546771E-02  0.1128808E+00
         21   -1    0    0  501  502  0.00000000000E+00  0.00000000000E+00  0.67154774632E+03  0.67154774632E+03  0.00000000000E+00 0. -1.
         21   -1    0    0  502  503 -0.00000000000E+00 -0.00000000000E+00 -0.17949302393E+03  0.17949302393E+03  0.00000000000E+00 0. -1.
          6    1    1    2  501    0  0.10503802296E+03  0.10434275990E+03  0.56805179842E+03  0.61170846283E+03  0.17200000000E+03 0. -1.
         -6    1    1    2    0  503 -0.10503802296E+03 -0.10434275990E+03 -0.75997076033E+02  0.23933230742E+03  0.17200000000E+03 0. -1.
<mgrwt>
<rscale>  2 0.22694580E+03</rscale>
<asrwt>0</asrwt>
<pdfrwt beam="1">  1       21 0.16788693E+00 0.22694580E+03</pdfrwt>
<pdfrwt beam="2">  1       21 0.44873258E-01 0.22694580E+03</pdfrwt>
<totfact> 0.10168142E+03</totfact>
</mgrwt>
</event>
<event>
 4    1  0.1116135E+000  0.3569683E+03  0.7546771E-02  0.1059791E+00
         21   -1    0    0  501  502  0.00000000000E+00  0.00000000000E+00  0.90515034112E+03  0.90515034112E+03  0.00000000000E+00 0.  1.
         21   -1    0    0  502  503 -0.00000000000E+00 -0.00000000000E+00 -0.22295488584E+03  0.22295488584E+03  0.00000000000E+00 0. -1.
          6    1    1    2  501    0  0.21580144741E+03  0.22643336078E+03  0.68353640801E+03  0.77113445822E+03  0.17200000000E+03 0.  1.
         -6    1    1    2    0  503 -0.21580144741E+03 -0.22643336078E+03 -0.13409527319E+01  0.35697076874E+03  0.17200000000E+03 0.  1.
<mgrwt>
<rscale>  2 0.35696825E+03</rscale>
<asrwt>0</asrwt>
<pdfrwt beam="1">  1       21 0.22628758E+00 0.35696825E+03</pdfrwt>
<pdfrwt beam="2">  1       21 0.55738724E-01 0.35696825E+03</pdfrwt>
<totfact> 0.23796008E+02</totfact>
</mgrwt>
</event>
<event>
 4    1  0.1116135E+000  0.1737992E+03  0.7546771E-02  0.1173943E+00
         21   -1    0    0  501  502  0.00000000000E+00  0.00000000000E+00  0.30986558991E+03  0.30986558991E+03  0.00000000000E+00 0.  1.
         21   -1    0    0  502  503 -0.00000000000E+00 -0.00000000000E+00 -0.97551734717E+02  0.97551734717E+02  0.00000000000E+00 0.  1.
          6    1    1    2  501    0  0.29613417394E+01  0.24766925205E+02  0.11162194829E+03  0.20655660113E+03  0.17200000000E+03 0.  1.
         -6    1    1    2    0  503 -0.29613417394E+01 -0.24766925205E+02  0.10069190690E+03  0.20086072350E+03  0.17200000000E+03 0.  1.
<mgrwt>
<rscale>  2 0.17379922E+03</rscale>
<asrwt>0</asrwt>
<pdfrwt beam="1">  1       21 0.77466395E-01 0.17379922E+03</pdfrwt>
<pdfrwt beam="2">  1       21 0.24387934E-01 0.17379922E+03</pdfrwt>
<totfact> 0.23745336E+04</totfact>
</mgrwt>
</event>
<event>
 4    1  0.1116135E+000  0.3906976E+03  0.7546771E-02  0.1047049E+00
         21   -1    0    0  501  502  0.00000000000E+00  0.00000000000E+00  0.45676863778E+03  0.45676863778E+03  0.00000000000E+00 0. -1.
         21   -1    0    0  502  503 -0.00000000000E+00 -0.00000000000E+00 -0.41316678106E+03  0.41316678106E+03  0.00000000000E+00 0.  1.
          6    1    1    2  501    0 -0.34756670177E+03 -0.47518590423E+02  0.21197941350E+03  0.44449960671E+03  0.17200000000E+03 0.  1.
         -6    1    1    2    0  503  0.34756670177E+03  0.47518590423E+02 -0.16837755678E+03  0.42543581213E+03  0.17200000000E+03 0. -1.
<mgrwt>
<rscale>  2 0.39069762E+03</rscale>
<asrwt>0</asrwt>
<pdfrwt beam="1">  1       21 0.11419216E+00 0.39069762E+03</pdfrwt>
<pdfrwt beam="2">  1       21 0.10329170E+00 0.39069762E+03</pdfrwt>
<totfact> 0.38808226E+02</totfact>
</mgrwt>
</event>
<event>
 4    1  0.1116135E+000  0.1945737E+03  0.7546771E-02  0.1154400E+00
         21   -1    0    0  501  502  0.00000000000E+00  0.00000000000E+00  0.26813949172E+03  0.26813949172E+03  0.00000000000E+00 0. -1.
         21   -1    0    0  502  503 -0.00000000000E+00 -0.00000000000E+00 -0.24819337900E+03  0.24819337900E+03  0.00000000000E+00 0. -1.
          6    1    1    2  501    0 -0.10474953650E+02 -0.90361536686E+02  0.17948528291E+03  0.26471474977E+03  0.17200000000E+03 0. -1.
         -6    1    1    2    0  503  0.10474953650E+02  0.90361536686E+02 -0.15953917018E+03  0.25161812095E+03  0.17200000000E+03 0. -1.
<mgrwt>
<rscale>  2 0.19457372E+03</rscale>
<asrwt>0</asrwt>
<pdfrwt beam="1">  1       21 0.67034873E-01 0.19457372E+03</pdfrwt>
<pdfrwt beam="2">  1       21 0.62048345E-01 0.19457372E+03</pdfrwt>
<totfact> 0.49047242E+03</totfact>
</mgrwt>
</event>
<event>
 4    1  0.1116135E+000  0.2110405E+03  0.7546771E-02  0.1140745E+00
         21   -1    0    0  501  502  0.00000000000E+00  0.00000000000E+00  0.50604883044E+03  0.50604883044E+03  0.00000000000E+00 0. -1.
         21   -1    0    0  502  503 -0.00000000000E+00 -0.00000000000E+00 -0.11711769135E+03  0.11711769135E+03  0.00000000000E+00 0. -1.
          6    1    1    2  501    0 -0.17696116339E+02  0.12099970516E+03  0.34979583324E+03  0.40852809712E+03  0.17200000000E+03 0. -1.
         -6    1    1    2    0  503  0.17696116339E+02 -0.12099970516E+03  0.39135305860E+02  0.21463842467E+03  0.17200000000E+03 0. -1.
<mgrwt>
<rscale>  2 0.21104047E+03</rscale>
<asrwt>0</asrwt>
<pdfrwt beam="1">  1       21 0.12651220E+00 0.21104047E+03</pdfrwt>
<pdfrwt beam="2">  1       21 0.29279424E-01 0.21104047E+03</pdfrwt>
<totfact> 0.50961756E+03</totfact>
</mgrwt>
</event>
<event>
 4    1  0.1116135E+000  0.1853317E+03  0.7546771E-02  0.1162741E+00
         21   -1    0    0  501  502  0.00000000000E+00  0.00000000000E+00  0.43197289771E+03  0.43197289771E+03  0.00000000000E+00 0. -1.
         21   -1    0    0  502  503 -0.00000000000E+00 -0.00000000000E+00 -0.89366617464E+02  0.89366617464E+02  0.00000000000E+00 0. -1.
          6    1    1    2  501    0  0.46438229532E+02  0.51061952746E+02  0.25785609539E+03  0.31754936327E+03  0.17200000000E+03 0. -1.
         -6    1    1    2    0  503 -0.46438229532E+02 -0.51061952746E+02  0.84750184847E+02  0.20379015190E+03  0.17200000000E+03 0. -1.
<mgrwt>
<rscale>  2 0.18533168E+03</rscale>
<asrwt>0</asrwt>
<pdfrwt beam="1">  1       21 0.10799322E+00 0.18533168E+03</pdfrwt>
<pdfrwt beam="2">  1       21 0.22341656E-01 0.18533168E+03</pdfrwt>
<totfact> 0.12866695E+04</totfact>
</mgrwt>
</event>
<event>
 4    1  0.1116135E+000  0.1988922E+03  0.7546771E-02  0.1150677E+00
         21   -1    0    0  503  502  0.00000000000E+00  0.00000000000E+00  0.25043197934E+03  0.25043197934E+03  0.00000000000E+00 0. -1.
         21   -1    0    0  501  503 -0.00000000000E+00 -0.00000000000E+00 -0.37867100795E+03  0.37867100795E+03  0.00000000000E+00 0. -1.
          6    1    1    2  501    0 -0.15723064530E+02 -0.98624957686E+02 -0.30426435730E+03  0.36350363982E+03  0.17200000000E+03 0. -1.
         -6    1    1    2    0  502  0.15723064530E+02  0.98624957686E+02  0.17602532870E+03  0.26559934748E+03  0.17200000000E+03 0. -1.
<mgrwt>
<rscale>  2 0.19889217E+03</rscale>
<asrwt>0</asrwt>
<pdfrwt beam="1">  1       21 0.62607995E-01 0.19889217E+03</pdfrwt>
<pdfrwt beam="2">  1       21 0.94667752E-01 0.19889217E+03</pdfrwt>
<totfact> 0.21957960E+03</totfact>
</mgrwt>
</event>
<event>
 4    1  0.1116135E+000  0.1986700E+03  0.7546771E-02  0.1150866E+00
         21   -1    0    0  503  502  0.00000000000E+00  0.00000000000E+00  0.58100590373E+02  0.58100590373E+02  0.00000000000E+00 0. -1.
         21   -1    0    0  501  503 -0.00000000000E+00 -0.00000000000E+00 -0.75402483008E+03  0.75402483008E+03  0.00000000000E+00 0.  1.
          6    1    1    2  501    0  0.85917607209E+02  0.50039352007E+02 -0.47576205981E+03  0.51557667667E+03  0.17200000000E+03 0.  1.
         -6    1    1    2    0  502 -0.85917607209E+02 -0.50039352007E+02 -0.22016217990E+03  0.29654874377E+03  0.17200000000E+03 0. -1.
<mgrwt>
<rscale>  2 0.19867001E+03</rscale>
<asrwt>0</asrwt>
<pdfrwt beam="1">  1       21 0.14525148E-01 0.19867001E+03</pdfrwt>
<pdfrwt beam="2">  1       21 0.18850621E+00 0.19867001E+03</pdfrwt>
<totfact> 0.66014346E+03</totfact>
</mgrwt>
</event>
<event>
 4    1  0.1116135E+000  0.2161306E+03  0.7546771E-02  0.1136801E+00
         21   -1    0    0  501  502  0.00000000000E+00  0.00000000000E+00  0.33906750608E+03  0.33906750608E+03  0.00000000000E+00 0. -1.
         21   -1    0    0  502  503 -0.00000000000E+00 -0.00000000000E+00 -0.16507483721E+03  0.16507483721E+03  0.00000000000E+00 0. -1.
          6    1    1    2  501    0  0.67687794941E+02 -0.11201243566E+03  0.18951992534E+03  0.28745473631E+03  0.17200000000E+03 0. -1.
         -6    1    1    2    0  503 -0.67687794941E+02  0.11201243566E+03 -0.15527256480E+02  0.21668760698E+03  0.17200000000E+03 0. -1.
<mgrwt>
<rscale>  2 0.21613057E+03</rscale>
<asrwt>0</asrwt>
<pdfrwt beam="1">  1       21 0.84766875E-01 0.21613057E+03</pdfrwt>
<pdfrwt beam="2">  1       21 0.41268710E-01 0.21613057E+03</pdfrwt>
<totfact> 0.67028119E+03</totfact>
</mgrwt>
</event>
<event>
 4    1  0.1116135E+000  0.1994027E+03  0.7546771E-02  0.1150244E+00
         21   -1    0    0  501  502  0.00000000000E+00  0.00000000000E+00  0.69731379151E+03  0.69731379151E+03  0.00000000000E+00 0. -1.
         21   -1    0    0  502  503 -0.00000000000E+00 -0.00000000000E+00 -0.94059367117E+02  0.94059367117E+02  0.00000000000E+00 0. -1.
          6    1    1    2  501    0 -0.86179431065E+02  0.52445732287E+02  0.54992730811E+03  0.58496281367E+03  0.17200000000E+03 0. -1.
         -6    1    1    2    0  503  0.86179431065E+02 -0.52445732287E+02  0.53327116284E+02  0.20641034496E+03  0.17200000000E+03 0. -1.
<mgrwt>
<rscale>  2 0.19940273E+03</rscale>
<asrwt>0</asrwt>
<pdfrwt beam="1">  1       21 0.17432843E+00 0.19940273E+03</pdfrwt>
<pdfrwt beam="2">  1       21 0.23514844E-01 0.19940273E+03</pdfrwt>
<totfact> 0.33665213E+03</totfact>
</mgrwt>
</event>
<event>
 4    1  0.1116135E+000  0.1894384E+03  0.7546771E-02  0.1158969E+00
         21   -1    0    0  501  502  0.00000000000E+00  0.00000000000E+00  0.65339644065E+03  0.65339644065E+03  0.00000000000E+00 0.  1.
         21   -1    0    0  502  503 -0.00000000000E+00 -0.00000000000E+00 -0.95194997753E+02  0.95194997753E+02  0.00000000000E+00 0.  1.
          6    1    1    2  501    0  0.34848917688E+02 -0.71333502658E+02  0.52254854305E+03  0.55582721731E+03  0.17200000000E+03 0.  1.
         -6    1    1    2    0  503 -0.34848917688E+02  0.71333502658E+02  0.35652899853E+02  0.19276422109E+03  0.17200000000E+03 0.  1.
<mgrwt>
<rscale>  2 0.18943842E+03</rscale>
<asrwt>0</asrwt>
<pdfrwt beam="1">  1       21 0.16334910E+00 0.18943842E+03</pdfrwt>
<pdfrwt beam="2">  1       21 0.23798751E-01 0.18943842E+03</pdfrwt>
<totfact> 0.39703637E+03</totfact>
</mgrwt>
</event>
<event>
 4    1  0.1116135E+000  0.2343627E+03  0.7546771E-02  0.1123606E+00
         21   -1    0    0  501  502  0.00000000000E+00  0.00000000000E+00  0.14270973463E+03  0.14270973463E+03  0.00000000000E+00 0. -1.
         21   -1    0    0  502  503 -0.00000000000E+00 -0.00000000000E+00 -0.62382002724E+03  0.62382002724E+03  0.00000000000E+00 0. -1.
          6    1    1    2  501    0  0.15436282999E+03  0.38909819162E+02 -0.33546935350E+01  0.23438667044E+03  0.17200000000E+03 0. -1.
         -6    1    1    2    0  503 -0.15436282999E+03 -0.38909819162E+02 -0.47775559907E+03  0.53214309143E+03  0.17200000000E+03 0. -1.
<mgrwt>
<rscale>  2 0.23436266E+03</rscale>
<asrwt>0</asrwt>
<pdfrwt beam="1">  1       21 0.35677434E-01 0.23436266E+03</pdfrwt>
<pdfrwt beam="2">  1       21 0.15595501E+00 0.23436266E+03</pdfrwt>
<totfact> 0.19672241E+03</totfact>
</mgrwt>
</event>
<event>
 4    1  0.1116135E+000  0.2033458E+03  0.7546771E-02  0.1146946E+00
         21   -1    0    0  503  502  0.00000000000E+00  0.00000000000E+00  0.19743015722E+03  0.19743015722E+03  0.00000000000E+00 0.  1.
         21   -1    0    0  501  503 -0.00000000000E+00 -0.00000000000E+00 -0.25518122751E+03  0.25518122751E+03  0.00000000000E+00 0. -1.
          6    1    1    2  501    0  0.10067386943E+03 -0.40377031323E+02  0.66938864562E+02  0.21408022850E+03  0.17200000000E+03 0.  1.
         -6    1    1    2    0  502 -0.10067386943E+03  0.40377031323E+02 -0.12468993485E+03  0.23853115624E+03  0.17200000000E+03 0. -1.
<mgrwt>
<rscale>  2 0.20334584E+03</rscale>
<asrwt>0</asrwt>
<pdfrwt beam="1">  1       21 0.49357539E-01 0.20334584E+03</pdfrwt>
<pdfrwt beam="2">  1       21 0.63795307E-01 0.20334584E+03</pdfrwt>
<totfact> 0.88188208E+03</totfact>
</mgrwt>
</event>
<event>
 4    1  0.1116135E+000  0.1968068E+03  0.7546771E-02  0.1152461E+00
         21   -1    0    0  503  502  0.00000000000E+00  0.00000000000E+00  0.10672459432E+03  0.10672459432E+03  0.00000000000E+00 0.  1.
         21   -1    0    0  501  503 -0.00000000000E+00 -0.00000000000E+00 -0.38429232542E+03  0.38429232542E+03  0.00000000000E+00 0.  1.
          6    1    1    2  501    0 -0.74363398690E+02  0.60158048000E+02 -0.19667630967E+03  0.27823457116E+03  0.17200000000E+03 0. -1.
         -6    1    1    2    0  502  0.74363398690E+02 -0.60158048000E+02 -0.80891421433E+02  0.21278234858E+03  0.17200000000E+03 0. -1.
<mgrwt>
<rscale>  2 0.19680677E+03</rscale>
<asrwt>0</asrwt>
<pdfrwt beam="1">  1       21 0.26681149E-01 0.19680677E+03</pdfrwt>
<pdfrwt beam="2">  1       21 0.96073080E-01 0.19680677E+03</pdfrwt>
<totfact> 0.12030689E+04</totfact>
</mgrwt>
</event>
<event>
 4    1  0.1116135E+000  0.1826613E+03  0.7546771E-02  0.1165252E+00
         21   -1    0    0  501  502  0.00000000000E+00  0.00000000000E+00  0.52905182369E+03  0.52905182369E+03  0.00000000000E+00 0.  1.
         21   -1    0    0  502  503 -0.00000000000E+00 -0.00000000000E+00 -0.72410737332E+02  0.72410737332E+02  0.00000000000E+00 0. -1.
          6    1    1    2  501    0  0.61285698116E+02  0.50228227101E+01  0.33635477904E+03  0.38275279611E+03  0.17200000000E+03 0.  1.
         -6    1    1    2    0  503 -0.61285698116E+02 -0.50228227101E+01  0.12028630731E+03  0.21870976491E+03  0.17200000000E+03 0. -1.
<mgrwt>
<rscale>  2 0.18266134E+03</rscale>
<asrwt>0</asrwt>
<pdfrwt beam="1">  1       21 0.13226294E+00 0.18266134E+03</pdfrwt>
<pdfrwt beam="2">  1       21 0.18102686E-01 0.18266134E+03</pdfrwt>
<totfact> 0.11579240E+04</totfact>
</mgrwt>
</event>
<event>
 4    1  0.1116135E+000  0.1949920E+03  0.7546771E-02  0.1154034E+00
         21   -1    0    0  503  502  0.00000000000E+00  0.00000000000E+00  0.11287939043E+03  0.11287939043E+03  0.00000000000E+00 0.  1.
         21   -1    0    0  501  503 -0.00000000000E+00 -0.00000000000E+00 -0.55996394940E+03  0.55996394940E+03  0.00000000000E+00 0.  1.
          6    1    1    2  501    0  0.37014128215E+02  0.84070302119E+02 -0.43590620825E+03  0.47753123853E+03  0.17200000000E+03 0.  1.
         -6    1    1    2    0  502 -0.37014128215E+02 -0.84070302119E+02 -0.11178350722E+02  0.19531210129E+03  0.17200000000E+03 0.  1.
<mgrwt>
<rscale>  2 0.19499195E+03</rscale>
<asrwt>0</asrwt>
<pdfrwt beam="1">  1       21 0.28219848E-01 0.19499195E+03</pdfrwt>
<pdfrwt beam="2">  1       21 0.13999099E+00 0.19499195E+03</pdfrwt>
<totfact> 0.42864604E+03</totfact>
</mgrwt>
</event>
<event>
 4    1  0.1116135E+000  0.2023896E+03  0.7546771E-02  0.1147738E+00
         21   -1    0    0  503  502  0.00000000000E+00  0.00000000000E+00  0.28047887806E+03  0.28047887806E+03  0.00000000000E+00 0.  1.
         21   -1    0    0  501  503 -0.00000000000E+00 -0.00000000000E+00 -0.16850020540E+03  0.16850020540E+03  0.00000000000E+00 0.  1.
          6    1    1    2  501    0  0.99221054111E+02  0.39150101711E+02 -0.25968131507E+02  0.20404874882E+03  0.17200000000E+03 0.  1.
         -6    1    1    2    0  502 -0.99221054111E+02 -0.39150101711E+02  0.13794680417E+03  0.24493033463E+03  0.17200000000E+03 0.  1.
<mgrwt>
<rscale>  2 0.20238959E+03</rscale>
<asrwt>0</asrwt>
<pdfrwt beam="1">  1       21 0.70119719E-01 0.20238959E+03</pdfrwt>
<pdfrwt beam="2">  1       21 0.42125052E-01 0.20238959E+03</pdfrwt>
<totfact> 0.99439428E+03</totfact>
</mgrwt>
</event>
<event>
 4    1  0.1116135E+000  0.2010390E+03  0.7546771E-02  0.1148865E+00
         21   -1    0    0  501  502  0.00000000000E+00  0.00000000000E+00  0.41671447224E+02  0.41671447224E+02  0.00000000000E+00 0. -1.
         21   -1    0    0  502  503 -0.00000000000E+00 -0.00000000000E+00 -0.10783592900E+04  0.10783592900E+04  0.00000000000E+00 0. -1.
          6    1    1    2  501    0 -0.10394381453E+03 -0.53270084993E+01 -0.69595615178E+03  0.72441124978E+03  0.17200000000E+03 0. -1.
         -6    1    1    2    0  503  0.10394381453E+03  0.53270084993E+01 -0.34073169098E+03  0.39561948743E+03  0.17200000000E+03 0. -1.
<mgrwt>
<rscale>  2 0.20103904E+03</rscale>
<asrwt>0</asrwt>
<pdfrwt beam="1">  1       21 0.10417863E-01 0.20103904E+03</pdfrwt>
<pdfrwt beam="2">  1       21 0.26958980E+00 0.20103904E+03</pdfrwt>
<totfact> 0.38224039E+03</totfact>
</mgrwt>
</event>
<event>
 4    1  0.1116135E+000  0.2019131E+03  0.7546771E-02  0.1148135E+00
         21   -1    0    0  503  502  0.00000000000E+00  0.00000000000E+00  0.48198629553E+02  0.48198629553E+02  0.00000000000E+00 0. -1.
         21   -1    0    0  501  503 -0.00000000000E+00 -0.00000000000E+00 -0.86447229978E+03  0.86447229978E+03  0.00000000000E+00 0. -1.
          6    1    1    2  501    0  0.94949021076E+02  0.46578678014E+02 -0.47511083154E+03  0.51623559747E+03  0.17200000000E+03 0. -1.
         -6    1    1    2    0  502 -0.94949021076E+02 -0.46578678014E+02 -0.34116283869E+03  0.39643533186E+03  0.17200000000E+03 0. -1.
<mgrwt>
<rscale>  2 0.20191307E+03</rscale>
<asrwt>0</asrwt>
<pdfrwt beam="1">  1       21 0.12049657E-01 0.20191307E+03</pdfrwt>
<pdfrwt beam="2">  1       21 0.21611808E+00 0.20191307E+03</pdfrwt>
<totfact> 0.61387118E+03</totfact>
</mgrwt>
</event>
<event>
 4    1  0.1116135E+000  0.1928259E+03  0.7546771E-02  0.1155937E+00
         21   -1    0    0  503  502  0.00000000000E+00  0.00000000000E+00  0.62416891995E+02  0.62416891995E+02  0.00000000000E+00 0. -1.
         21   -1    0    0  501  503 -0.00000000000E+00 -0.00000000000E+00 -0.64672818163E+03  0.64672818163E+03  0.00000000000E+00 0. -1.
          6    1    1    2  501    0 -0.86355358269E+02 -0.11856143056E+02 -0.39175218199E+03  0.43663667748E+03  0.17200000000E+03 0. -1.
         -6    1    1    2    0  502  0.86355358269E+02  0.11856143056E+02 -0.19255910764E+03  0.27250839614E+03  0.17200000000E+03 0. -1.
<mgrwt>
<rscale>  2 0.19282587E+03</rscale>
<asrwt>0</asrwt>
<pdfrwt beam="1">  1       21 0.15604223E-01 0.19282587E+03</pdfrwt>
<pdfrwt beam="2">  1       21 0.16168205E+00 0.19282587E+03</pdfrwt>
<totfact> 0.89306846E+03</totfact>
</mgrwt>
</event>
<event>
 4    1  0.1116135E+000  0.1832868E+03  0.7546771E-02  0.1164659E+00
         21   -1    0    0  501  502  0.00000000000E+00  0.00000000000E+00  0.21919774256E+03  0.21919774256E+03  0.00000000000E+00 0.  1.
         21   -1    0    0  502  503 -0.00000000000E+00 -0.00000000000E+00 -0.16954006368E+03  0.16954006368E+03  0.00000000000E+00 0.  1.
          6    1    1    2  501    0 -0.53705204179E+02  0.33553194146E+02  0.85061164686E+02  0.20206302861E+03  0.17200000000E+03 0.  1.
         -6    1    1    2    0  503  0.53705204179E+02 -0.33553194146E+02 -0.35403485806E+02  0.18667477762E+03  0.17200000000E+03 0.  1.
<mgrwt>
<rscale>  2 0.18328684E+03</rscale>
<asrwt>0</asrwt>
<pdfrwt beam="1">  1       21 0.54799435E-01 0.18328684E+03</pdfrwt>
<pdfrwt beam="2">  1       21 0.42385016E-01 0.18328684E+03</pdfrwt>
<totfact> 0.16932794E+04</totfact>
</mgrwt>
</event>
<event>
 4    1  0.1116135E+000  0.1738264E+03  0.7546771E-02  0.1173915E+00
         21   -1    0    0  501  502  0.00000000000E+00  0.00000000000E+00  0.11538783757E+04  0.11538783757E+04  0.00000000000E+00 0.  1.
         21   -1    0    0  502  503 -0.00000000000E+00 -0.00000000000E+00 -0.26479606117E+02  0.26479606117E+02  0.00000000000E+00 0.  1.
          6    1    1    2  501    0  0.21448027280E+02  0.13100091548E+02  0.50156946085E+03  0.53083665504E+03  0.17200000000E+03 0. -1.
         -6    1    1    2    0  503 -0.21448027280E+02 -0.13100091548E+02  0.62582930869E+03  0.64952132674E+03  0.17200000000E+03 0. -1.
<mgrwt>
<rscale>  2 0.17382644E+03</rscale>
<asrwt>0</asrwt>
<pdfrwt beam="1">  1       21 0.28846943E+00 0.17382644E+03</pdfrwt>
<pdfrwt beam="2">  1       21 0.66199054E-02 0.17382644E+03</pdfrwt>
<totfact> 0.67685243E+03</totfact>
</mgrwt>
</event>
<event>
 4    1  0.1116135E+000  0.2204847E+03  0.7546771E-02  0.1133522E+00
         21   -1    0    0  501  502  0.00000000000E+00  0.00000000000E+00  0.22888680036E+03  0.22888680036E+03  0.00000000000E+00 0. -1.
         21   -1    0    0  502  503 -0.00000000000E+00 -0.00000000000E+00 -0.24625829094E+03  0.24625829094E+03  0.00000000000E+00 0.  1.
          6    1    1    2  501    0  0.18520817368E+02 -0.13669858860E+03  0.79417165056E+02  0.23435146875E+03  0.17200000000E+03 0. -1.
         -6    1    1    2    0  503 -0.18520817368E+02  0.13669858860E+03 -0.96788655640E+02  0.24079362255E+03  0.17200000000E+03 0.  1.
<mgrwt>
<rscale>  2 0.22048475E+03</rscale>
<asrwt>0</asrwt>
<pdfrwt beam="1">  1       21 0.57221700E-01 0.22048475E+03</pdfrwt>
<pdfrwt beam="2">  1       21 0.61564573E-01 0.22048475E+03</pdfrwt>
<totfact> 0.68927242E+03</totfact>
</mgrwt>
</event>
<event>
 4    1  0.1116135E+000  0.2816560E+03  0.7546771E-02  0.1094788E+00
         21   -1    0    0  501  502  0.00000000000E+00  0.00000000000E+00  0.25933856401E+03  0.25933856401E+03  0.00000000000E+00 0.  1.
         21   -1    0    0  502  503 -0.00000000000E+00 -0.00000000000E+00 -0.33564489890E+03  0.33564489890E+03  0.00000000000E+00 0. -1.
          6    1    1    2  501    0  0.20621592947E+03  0.84976938561E+02  0.50416601579E+02  0.28613270238E+03  0.17200000000E+03 0.  1.
         -6    1    1    2    0  503 -0.20621592947E+03 -0.84976938561E+02 -0.12672293647E+03  0.30885076054E+03  0.17200000000E+03 0. -1.
<mgrwt>
<rscale>  2 0.28165598E+03</rscale>
<asrwt>0</asrwt>
<pdfrwt beam="1">  1       21 0.64834641E-01 0.28165598E+03</pdfrwt>
<pdfrwt beam="2">  1       21 0.83911224E-01 0.28165598E+03</pdfrwt>
<totfact> 0.25338743E+03</totfact>
</mgrwt>
</event>
<event>
 4    1  0.1116135E+000  0.2744863E+03  0.7546771E-02  0.1098739E+00
         21   -1    0    0  501  502  0.00000000000E+00  0.00000000000E+00  0.25566963527E+03  0.25566963527E+03  0.00000000000E+00 0. -1.
         21   -1    0    0  502  503 -0.00000000000E+00 -0.00000000000E+00 -0.34272547659E+03  0.34272547659E+03  0.00000000000E+00 0.  1.
          6    1    1    2  501    0 -0.16893125558E+03 -0.13122867193E+03  0.68486941222E+02  0.28290138665E+03  0.17200000000E+03 0. -1.
         -6    1    1    2    0  503  0.16893125558E+03  0.13122867193E+03 -0.15554278254E+03  0.31549372521E+03  0.17200000000E+03 0.  1.
<mgrwt>
<rscale>  2 0.27448631E+03</rscale>
<asrwt>0</asrwt>
<pdfrwt beam="1">  1       21 0.63917409E-01 0.27448631E+03</pdfrwt>
<pdfrwt beam="2">  1       21 0.85681369E-01 0.27448631E+03</pdfrwt>
<totfact> 0.25023175E+03</totfact>
</mgrwt>
</event>
<event>
 4    1  0.1116135E+000  0.2089877E+03  0.7546771E-02  0.1142370E+00
         21   -1    0    0  503  502  0.00000000000E+00  0.00000000000E+00  0.21969998590E+03  0.21969998590E+03  0.00000000000E+00 0. -1.
         21   -1    0    0  501  503 -0.00000000000E+00 -0.00000000000E+00 -0.25258853360E+03  0.25258853360E+03  0.00000000000E+00 0. -1.
          6    1    1    2  501    0  0.20419036504E+02  0.11693973608E+03 -0.12541879083E+03  0.24373287021E+03  0.17200000000E+03 0. -1.
         -6    1    1    2    0  502 -0.20419036504E+02 -0.11693973608E+03  0.92530243136E+02  0.22855564929E+03  0.17200000000E+03 0. -1.
<mgrwt>
<rscale>  2 0.20898765E+03</rscale>
<asrwt>0</asrwt>
<pdfrwt beam="1">  1       21 0.54924997E-01 0.20898765E+03</pdfrwt>
<pdfrwt beam="2">  1       21 0.63147133E-01 0.20898765E+03</pdfrwt>
<totfact> 0.71743963E+03</totfact>
</mgrwt>
</event>
<event>
 4    1  0.1116135E+000  0.1765291E+03  0.7546771E-02  0.1171205E+00
         21   -1    0    0  501  502  0.00000000000E+00  0.00000000000E+00  0.16956674572E+03  0.16956674572E+03  0.00000000000E+00 0. -1.
         21   -1    0    0  502  503 -0.00000000000E+00 -0.00000000000E+00 -0.29405918989E+03  0.29405918989E+03  0.00000000000E+00 0. -1.
          6    1    1    2  501    0 -0.42706947972E+01  0.39500551392E+02  0.79715836963E+02  0.19369343576E+03  0.17200000000E+03 0. -1.
         -6    1    1    2    0  503  0.42706947972E+01 -0.39500551392E+02 -0.20420828113E+03  0.26993249985E+03  0.17200000000E+03 0. -1.
<mgrwt>
<rscale>  2 0.17652913E+03</rscale>
<asrwt>0</asrwt>
<pdfrwt beam="1">  1       21 0.42391687E-01 0.17652913E+03</pdfrwt>
<pdfrwt beam="2">  1       21 0.73514797E-01 0.17652913E+03</pdfrwt>
<totfact> 0.90041410E+03</totfact>
</mgrwt>
</event>
<event>
 4    1  0.1116135E+000  0.1801552E+03  0.7546771E-02  0.1167653E+00
         21   -1    0    0  501  502  0.00000000000E+00  0.00000000000E+00  0.45282882622E+03  0.45282882622E+03  0.00000000000E+00 0. -1.
         21   -1    0    0  502  503 -0.00000000000E+00 -0.00000000000E+00 -0.13571204368E+03  0.13571204368E+03  0.00000000000E+00 0. -1.
          6    1    1    2  501    0 -0.36693489547E+02 -0.39057246120E+02  0.36070094906E+03  0.40318861008E+03  0.17200000000E+03 0. -1.
         -6    1    1    2    0  503  0.36693489547E+02  0.39057246120E+02 -0.43584166518E+02  0.18535225982E+03  0.17200000000E+03 0. -1.
<mgrwt>
<rscale>  2 0.18015516E+03</rscale>
<asrwt>0</asrwt>
<pdfrwt beam="1">  1       21 0.11320720E+00 0.18015516E+03</pdfrwt>
<pdfrwt beam="2">  1       21 0.33928012E-01 0.18015516E+03</pdfrwt>
<totfact> 0.51501519E+03</totfact>
</mgrwt>
</event>
<event>
 4    1  0.1116135E+000  0.1955993E+03  0.7546771E-02  0.1153506E+00
         21   -1    0    0  503  502  0.00000000000E+00  0.00000000000E+00  0.41604269567E+03  0.41604269567E+03  0.00000000000E+00 0.  1.
         21   -1    0    0  501  503 -0.00000000000E+00 -0.00000000000E+00 -0.92022192371E+02  0.92022192371E+02  0.00000000000E+00 0. -1.
          6    1    1    2  501    0 -0.27979244403E+02 -0.88838306458E+02  0.16864023517E+03  0.25826074368E+03  0.17200000000E+03 0.  1.
         -6    1    1    2    0  502  0.27979244403E+02  0.88838306458E+02  0.15538026813E+03  0.24980414435E+03  0.17200000000E+03 0. -1.
<mgrwt>
<rscale>  2 0.19559929E+03</rscale>
<asrwt>0</asrwt>
<pdfrwt beam="1">  1       21 0.10401067E+00 0.19559929E+03</pdfrwt>
<pdfrwt beam="2">  1       21 0.23005549E-01 0.19559929E+03</pdfrwt>
<totfact> 0.13233011E+04</totfact>
</mgrwt>
</event>
<event>
 4    1  0.1116135E+000  0.3262346E+03  0.7546771E-02  0.1072815E+00
         21   -1    0    0  503  502  0.00000000000E+00  0.00000000000E+00  0.32030273374E+03  0.32030273374E+03  0.00000000000E+00 0.  1.
         21   -1    0    0  501  503 -0.00000000000E+00 -0.00000000000E+00 -0.33241994716E+03  0.33241994716E+03  0.00000000000E+00 0. -1.
          6    1    1    2  501    0 -0.27615575924E+03  0.24145809287E+02  0.72447613622E+00  0.32623541858E+03  0.17200000000E+03 0. -1.
         -6    1    1    2    0  502  0.27615575924E+03 -0.24145809287E+02 -0.12841689559E+02  0.32648726232E+03  0.17200000000E+03 0.  1.
<mgrwt>
<rscale>  2 0.32623461E+03</rscale>
<asrwt>0</asrwt>
<pdfrwt beam="1">  1       21 0.80075684E-01 0.32623461E+03</pdfrwt>
<pdfrwt beam="2">  1       21 0.83104987E-01 0.32623461E+03</pdfrwt>
<totfact> 0.15727376E+03</totfact>
</mgrwt>
</event>
<event>
 4    1  0.1116135E+000  0.2322341E+03  0.7546771E-02  0.1125077E+00
         21   -1    0    0  503  502  0.00000000000E+00  0.00000000000E+00  0.16239075164E+03  0.16239075164E+03  0.00000000000E+00 0. -1.
         21   -1    0    0  501  503 -0.00000000000E+00 -0.00000000000E+00 -0.33374814019E+03  0.33374814019E+03  0.00000000000E+00 0. -1.
          6    1    1    2  501    0 -0.14494972329E+03  0.57777720289E+02 -0.68334906953E+02  0.24207921586E+03  0.17200000000E+03 0. -1.
         -6    1    1    2    0  502  0.14494972329E+03 -0.57777720289E+02 -0.10302248159E+03  0.25405967598E+03  0.17200000000E+03 0. -1.
<mgrwt>
<rscale>  2 0.23223412E+03</rscale>
<asrwt>0</asrwt>
<pdfrwt beam="1">  1       21 0.40597688E-01 0.23223412E+03</pdfrwt>
<pdfrwt beam="2">  1       21 0.83437034E-01 0.23223412E+03</pdfrwt>
<totfact> 0.71092776E+03</totfact>
</mgrwt>
</event>
<event>
 4    1  0.1116135E+000  0.2316039E+03  0.7546771E-02  0.1125516E+00
         21   -1    0    0  503  502  0.00000000000E+00  0.00000000000E+00  0.20494868384E+03  0.20494868384E+03  0.00000000000E+00 0. -1.
         21   -1    0    0  501  503 -0.00000000000E+00 -0.00000000000E+00 -0.44654210863E+03  0.44654210863E+03  0.00000000000E+00 0.  1.
          6    1    1    2  501    0 -0.14955363365E+03 -0.41110455100E+02 -0.33036097302E+03  0.40345846298E+03  0.17200000000E+03 0.  1.
         -6    1    1    2    0  502  0.14955363365E+03  0.41110455100E+02  0.88767548221E+02  0.24803232949E+03  0.17200000000E+03 0. -1.
<mgrwt>
<rscale>  2 0.23160388E+03</rscale>
<asrwt>0</asrwt>
<pdfrwt beam="1">  1       21 0.51237171E-01 0.23160388E+03</pdfrwt>
<pdfrwt beam="2">  1       21 0.11163553E+00 0.23160388E+03</pdfrwt>
<totfact> 0.22074604E+03</totfact>
</mgrwt>
</event>
<event>
 4    1  0.1116135E+000  0.1886312E+03  0.7546771E-02  0.1159702E+00
         21   -1    0    0  501  502  0.00000000000E+00  0.00000000000E+00  0.11781064080E+03  0.11781064080E+03  0.00000000000E+00 0.  1.
         21   -1    0    0  502  503 -0.00000000000E+00 -0.00000000000E+00 -0.44995273176E+03  0.44995273176E+03  0.00000000000E+00 0.  1.
          6    1    1    2  501    0  0.17467252713E+01  0.77425371847E+02 -0.32993181288E+01  0.18866007727E+03  0.17200000000E+03 0.  1.
         -6    1    1    2    0  503 -0.17467252713E+01 -0.77425371847E+02 -0.32884277283E+03  0.37910329529E+03  0.17200000000E+03 0.  1.
<mgrwt>
<rscale>  2 0.18863123E+03</rscale>
<asrwt>0</asrwt>
<pdfrwt beam="1">  1       21 0.29452660E-01 0.18863123E+03</pdfrwt>
<pdfrwt beam="2">  1       21 0.11248818E+00 0.18863123E+03</pdfrwt>
<totfact> 0.68539409E+03</totfact>
</mgrwt>
</event>
<event>
 4    1  0.1116135E+000  0.2087154E+03  0.7546771E-02  0.1142587E+00
         21   -1    0    0  501  502  0.00000000000E+00  0.00000000000E+00  0.56704230897E+03  0.56704230897E+03  0.00000000000E+00 0.  1.
         21   -1    0    0  502  503 -0.00000000000E+00 -0.00000000000E+00 -0.93285632731E+02  0.93285632731E+02  0.00000000000E+00 0.  1.
          6    1    1    2  501    0  0.51859377120E+02 -0.10624839998E+03  0.37557521486E+03  0.42967296809E+03  0.17200000000E+03 0.  1.
         -6    1    1    2    0  503 -0.51859377120E+02  0.10624839998E+03  0.98181461382E+02  0.23065497361E+03  0.17200000000E+03 0.  1.
<mgrwt>
<rscale>  2 0.20871540E+03</rscale>
<asrwt>0</asrwt>
<pdfrwt beam="1">  1       21 0.14176057E+00 0.20871540E+03</pdfrwt>
<pdfrwt beam="2">  1       21 0.23321410E-01 0.20871540E+03</pdfrwt>
<totfact> 0.59128115E+03</totfact>
</mgrwt>
</event>
<event>
 4    1  0.1116135E+000  0.1891026E+03  0.7546771E-02  0.1159273E+00
         21   -1    0    0  503  502  0.00000000000E+00  0.00000000000E+00  0.40589044431E+02  0.40589044431E+02  0.00000000000E+00 0. -1.
         21   -1    0    0  501  503 -0.00000000000E+00 -0.00000000000E+00 -0.10121826133E+04  0.10121826133E+04  0.00000000000E+00 0. -1.
          6    1    1    2  501    0 -0.46616416799E+02 -0.63266829193E+02 -0.67528355012E+03  0.70126147410E+03  0.17200000000E+03 0. -1.
         -6    1    1    2    0  502  0.46616416799E+02  0.63266829193E+02 -0.29631001879E+03  0.35151018367E+03  0.17200000000E+03 0. -1.
<mgrwt>
<rscale>  2 0.18910257E+03</rscale>
<asrwt>0</asrwt>
<pdfrwt beam="1">  1       21 0.10147261E-01 0.18910257E+03</pdfrwt>
<pdfrwt beam="2">  1       21 0.25304566E+00 0.18910257E+03</pdfrwt>
<totfact> 0.50647270E+03</totfact>
</mgrwt>
</event>
<event>
 4    1  0.1116135E+000  0.2564300E+03  0.7546771E-02  0.1109307E+00
         21   -1    0    0  501  502  0.00000000000E+00  0.00000000000E+00  0.17196469670E+03  0.17196469670E+03  0.00000000000E+00 0.  1.
         21   -1    0    0  502  503 -0.00000000000E+00 -0.00000000000E+00 -0.52042415821E+03  0.52042415821E+03  0.00000000000E+00 0. -1.
          6    1    1    2  501    0  0.38631044912E+02 -0.18622562869E+03  0.40680587294E+01  0.25646226139E+03  0.17200000000E+03 0.  1.
         -6    1    1    2    0  503 -0.38631044912E+02  0.18622562869E+03 -0.35252752024E+03  0.43592659353E+03  0.17200000000E+03 0. -1.
<mgrwt>
<rscale>  2 0.25643000E+03</rscale>
<asrwt>0</asrwt>
<pdfrwt beam="1">  1       21 0.42991175E-01 0.25643000E+03</pdfrwt>
<pdfrwt beam="2">  1       21 0.13010604E+00 0.25643000E+03</pdfrwt>
<totfact> 0.21304166E+03</totfact>
</mgrwt>
</event>
<event>
 4    1  0.1116135E+000  0.2118797E+03  0.7546771E-02  0.1140086E+00
         21   -1    0    0  501  502  0.00000000000E+00  0.00000000000E+00  0.13233711305E+03  0.13233711305E+03  0.00000000000E+00 0. -1.
         21   -1    0    0  502  503 -0.00000000000E+00 -0.00000000000E+00 -0.34021870425E+03  0.34021870425E+03  0.00000000000E+00 0. -1.
          6    1    1    2  501    0  0.11327220824E+03 -0.49783470052E+02 -0.11666503047E+03  0.24187541501E+03  0.17200000000E+03 0. -1.
         -6    1    1    2    0  503 -0.11327220824E+03  0.49783470052E+02 -0.91216560728E+02  0.23068040229E+03  0.17200000000E+03 0. -1.
<mgrwt>
<rscale>  2 0.21187965E+03</rscale>
<asrwt>0</asrwt>
<pdfrwt beam="1">  1       21 0.33084278E-01 0.21187965E+03</pdfrwt>
<pdfrwt beam="2">  1       21 0.85054676E-01 0.21187965E+03</pdfrwt>
<totfact> 0.10387829E+04</totfact>
</mgrwt>
</event>
<event>
 4    1  0.1116135E+000  0.2020064E+03  0.7546771E-02  0.1148057E+00
         21   -1    0    0  503  502  0.00000000000E+00  0.00000000000E+00  0.66407351275E+03  0.66407351275E+03  0.00000000000E+00 0.  1.
         21   -1    0    0  501  503 -0.00000000000E+00 -0.00000000000E+00 -0.90207452719E+02  0.90207452719E+02  0.00000000000E+00 0.  1.
          6    1    1    2  501    0 -0.10592929865E+03 -0.12522177369E+01  0.73988992275E+02  0.21513008934E+03  0.17200000000E+03 0.  1.
         -6    1    1    2    0  502  0.10592929865E+03  0.12522177369E+01  0.49987706775E+03  0.53915087613E+03  0.17200000000E+03 0.  1.
<mgrwt>
<rscale>  2 0.20200640E+03</rscale>
<asrwt>0</asrwt>
<pdfrwt beam="1">  1       21 0.16601836E+00 0.20200640E+03</pdfrwt>
<pdfrwt beam="2">  1       21 0.22551865E-01 0.20200640E+03</pdfrwt>
<totfact> 0.41599991E+03</totfact>
</mgrwt>
</event>
<event>
 4    1  0.1116135E+000  0.2660091E+03  0.7546771E-02  0.1103586E+00
         21   -1    0    0  503  502  0.00000000000E+00  0.00000000000E+00  0.13945087763E+03  0.13945087763E+03  0.00000000000E+00 0.  1.
         21   -1    0    0  501  503 -0.00000000000E+00 -0.00000000000E+00 -0.99829486984E+03  0.99829486984E+03  0.00000000000E+00 0. -1.
          6    1    1    2  501    0  0.17765795863E+03 -0.98053640134E+02 -0.82832653450E+03  0.86999178983E+03  0.17200000000E+03 0. -1.
         -6    1    1    2    0  502 -0.17765795863E+03  0.98053640134E+02 -0.30517457703E+02  0.26775395764E+03  0.17200000000E+03 0.  1.
<mgrwt>
<rscale>  2 0.26600915E+03</rscale>
<asrwt>0</asrwt>
<pdfrwt beam="1">  1       21 0.34862720E-01 0.26600915E+03</pdfrwt>
<pdfrwt beam="2">  1       21 0.24957372E+00 0.26600915E+03</pdfrwt>
<totfact> 0.48834517E+02</totfact>
</mgrwt>
</event>
<event>
 4    1  0.1116135E+000  0.1796812E+03  0.7546771E-02  0.1168112E+00
         21   -1    0    0  501  502  0.00000000000E+00  0.00000000000E+00  0.45636225806E+03  0.45636225806E+03  0.00000000000E+00 0.  1.
         21   -1    0    0  502  503 -0.00000000000E+00 -0.00000000000E+00 -0.84697471969E+02  0.84697471969E+02  0.00000000000E+00 0.  1.
          6    1    1    2  501    0 -0.42603151619E+02 -0.29770984728E+02  0.29563327796E+03  0.34595429625E+03  0.17200000000E+03 0.  1.
         -6    1    1    2    0  503  0.42603151619E+02  0.29770984728E+02  0.76031508133E+02  0.19510543377E+03  0.17200000000E+03 0.  1.
<mgrwt>
<rscale>  2 0.17968122E+03</rscale>
<asrwt>0</asrwt>
<pdfrwt beam="1">  1       21 0.11409056E+00 0.17968122E+03</pdfrwt>
<pdfrwt beam="2">  1       21 0.21174369E-01 0.17968122E+03</pdfrwt>
<totfact> 0.12510846E+04</totfact>
</mgrwt>
</event>
<event>
 4    1  0.1116135E+000  0.1774315E+03  0.7546771E-02  0.1170312E+00
         21   -1    0    0  503  502  0.00000000000E+00  0.00000000000E+00  0.23269431177E+03  0.23269431177E+03  0.00000000000E+00 0. -1.
         21   -1    0    0  501  503 -0.00000000000E+00 -0.00000000000E+00 -0.17335139528E+03  0.17335139528E+03  0.00000000000E+00 0. -1.
          6    1    1    2  501    0  0.37825231037E+02  0.21614530178E+02 -0.65455999917E+02  0.18912013098E+03  0.17200000000E+03 0. -1.
         -6    1    1    2    0  502 -0.37825231037E+02 -0.21614530178E+02  0.12479891641E+03  0.21692557607E+03  0.17200000000E+03 0. -1.
<mgrwt>
<rscale>  2 0.17743150E+03</rscale>
<asrwt>0</asrwt>
<pdfrwt beam="1">  1       21 0.58173578E-01 0.17743150E+03</pdfrwt>
<pdfrwt beam="2">  1       21 0.43337849E-01 0.17743150E+03</pdfrwt>
<totfact> 0.14310873E+04</totfact>
</mgrwt>
</event>
<event>
 4    1  0.1116135E+000  0.1746723E+03  0.7546771E-02  0.1173061E+00
         21   -1    0    0  503  502  0.00000000000E+00  0.00000000000E+00  0.90483026697E+03  0.90483026697E+03  0.00000000000E+00 0.  1.
         21   -1    0    0  501  503 -0.00000000000E+00 -0.00000000000E+00 -0.40429020740E+02  0.40429020740E+02  0.00000000000E+00 0.  1.
          6    1    1    2  501    0 -0.91299951590E+01  0.29035345408E+02  0.23966075412E+03  0.29655974973E+03  0.17200000000E+03 0.  1.
         -6    1    1    2    0  502  0.91299951590E+01 -0.29035345408E+02  0.62474049210E+03  0.64869953797E+03  0.17200000000E+03 0.  1.
<mgrwt>
<rscale>  2 0.17467229E+03</rscale>
<asrwt>0</asrwt>
<pdfrwt beam="1">  1       21 0.22620750E+00 0.17467229E+03</pdfrwt>
<pdfrwt beam="2">  1       21 0.10107258E-01 0.17467229E+03</pdfrwt>
<totfact> 0.74706909E+03</totfact>
</mgrwt>
</event>
<event>
 4    1  0.1116135E+000  0.2223005E+03  0.7546771E-02  0.1132179E+00
         21   -1    0    0  503  502  0.00000000000E+00  0.00000000000E+00  0.10677837065E+03  0.10677837065E+03  0.00000000000E+00 0.  1.
         21   -1    0    0  501  503 -0.00000000000E+00 -0.00000000000E+00 -0.63014793225E+03  0.63014793225E+03  0.00000000000E+00 0.  1.
          6    1    1    2  501    0 -0.89675260518E+02 -0.10859031867E+03 -0.45156387448E+03  0.50331644360E+03  0.17200000000E+03 0.  1.
         -6    1    1    2    0  502  0.89675260518E+02  0.10859031867E+03 -0.71805687123E+02  0.23360985930E+03  0.17200000000E+03 0.  1.
<mgrwt>
<rscale>  2 0.22230049E+03</rscale>
<asrwt>0</asrwt>
<pdfrwt beam="1">  1       21 0.26694593E-01 0.22230049E+03</pdfrwt>
<pdfrwt beam="2">  1       21 0.15753698E+00 0.22230049E+03</pdfrwt>
<totfact> 0.34172725E+03</totfact>
</mgrwt>
</event>
<event>
 4    1  0.1116135E+000  0.1754052E+03  0.7546771E-02  0.1172325E+00
         21   -1    0    0  503  502  0.00000000000E+00  0.00000000000E+00  0.44414796182E+02  0.44414796182E+02  0.00000000000E+00 0. -1.
         21   -1    0    0  501  503 -0.00000000000E+00 -0.00000000000E+00 -0.73367602673E+03  0.73367602673E+03  0.00000000000E+00 0. -1.
          6    1    1    2  501    0  0.30694851788E+02  0.15518206125E+02 -0.25271051285E+03  0.30761923209E+03  0.17200000000E+03 0. -1.
         -6    1    1    2    0  502 -0.30694851788E+02 -0.15518206125E+02 -0.43655071770E+03  0.47047159082E+03  0.17200000000E+03 0. -1.
<mgrwt>
<rscale>  2 0.17540521E+03</rscale>
<asrwt>0</asrwt>
<pdfrwt beam="1">  1       21 0.11103699E-01 0.17540521E+03</pdfrwt>
<pdfrwt beam="2">  1       21 0.18341900E+00 0.17540521E+03</pdfrwt>
<totfact> 0.11791997E+04</totfact>
</mgrwt>
</event>
<event>
 4    1  0.1116135E+000  0.1777055E+03  0.7546771E-02  0.1170042E+00
         21   -1    0    0  503  502  0.00000000000E+00  0.00000000000E+00  0.77791318655E+03  0.77791318655E+03  0.00000000000E+00 0.  1.
         21   -1    0    0  501  503 -0.00000000000E+00 -0.00000000000E+00 -0.46657127517E+02  0.46657127517E+02  0.00000000000E+00 0.  1.
          6    1    1    2  501    0  0.82225589710E+01 -0.43904666042E+02  0.21701448211E+03  0.28048977811E+03  0.17200000000E+03 0. -1.
         -6    1    1    2    0  502 -0.82225589710E+01  0.43904666042E+02  0.51424157692E+03  0.54408053596E+03  0.17200000000E+03 0. -1.
<mgrwt>
<rscale>  2 0.17770546E+03</rscale>
<asrwt>0</asrwt>
<pdfrwt beam="1">  1       21 0.19447825E+00 0.17770546E+03</pdfrwt>
<pdfrwt beam="2">  1       21 0.11664284E-01 0.17770546E+03</pdfrwt>
<totfact> 0.91165935E+03</totfact>
</mgrwt>
</event>
<event>
 4    1  0.1116135E+000  0.2013458E+03  0.7546771E-02  0.1148609E+00
         21   -1    0    0  503  502  0.00000000000E+00  0.00000000000E+00  0.98418636604E+03  0.98418636604E+03  0.00000000000E+00 0. -1.
         21   -1    0    0  501  503 -0.00000000000E+00 -0.00000000000E+00 -0.41221948925E+02  0.41221948925E+02  0.00000000000E+00 0. -1.
          6    1    1    2  501    0  0.86022430121E+02 -0.59634374011E+02  0.48541560631E+03  0.52551729553E+03  0.17200000000E+03 0. -1.
         -6    1    1    2    0  502 -0.86022430121E+02  0.59634374011E+02  0.45754881081E+03  0.49989101944E+03  0.17200000000E+03 0. -1.
<mgrwt>
<rscale>  2 0.20134576E+03</rscale>
<asrwt>0</asrwt>
<pdfrwt beam="1">  1       21 0.24604651E+00 0.20134576E+03</pdfrwt>
<pdfrwt beam="2">  1       21 0.10305490E-01 0.20134576E+03</pdfrwt>
<totfact> 0.53509023E+03</totfact>
</mgrwt>
</event>
<event>
 4    1  0.1116135E+000  0.2365252E+03  0.7546771E-02  0.1122130E+00
         21   -1    0    0  503  502  0.00000000000E+00  0.00000000000E+00  0.52447958562E+02  0.52447958562E+02  0.00000000000E+00 0. -1.
         21   -1    0    0  501  503 -0.00000000000E+00 -0.00000000000E+00 -0.11113649479E+04  0.11113649479E+04  0.00000000000E+00 0.  1.
          6    1    1    2  501    0 -0.16235017428E+03  0.16090855391E+01 -0.64616631507E+03  0.68809525139E+03  0.17200000000E+03 0.  1.
         -6    1    1    2    0  502  0.16235017428E+03 -0.16090855391E+01 -0.41275067426E+03  0.47571765507E+03  0.17200000000E+03 0.  1.
<mgrwt>
<rscale>  2 0.23652520E+03</rscale>
<asrwt>0</asrwt>
<pdfrwt beam="1">  1       21 0.13111990E-01 0.23652520E+03</pdfrwt>
<pdfrwt beam="2">  1       21 0.27784123E+00 0.23652520E+03</pdfrwt>
<totfact> 0.21840900E+03</totfact>
</mgrwt>
</event>
<event>
 4    1  0.1116135E+000  0.2574318E+03  0.7546771E-02  0.1108696E+00
         21   -1    0    0  503  502  0.00000000000E+00  0.00000000000E+00  0.27618480126E+03  0.27618480126E+03  0.00000000000E+00 0.  1.
         21   -1    0    0  501  503 -0.00000000000E+00 -0.00000000000E+00 -0.24450150923E+03  0.24450150923E+03  0.00000000000E+00 0. -1.
          6    1    1    2  501    0 -0.15944321820E+03  0.10613658758E+03 -0.19671101667E+02  0.25818223660E+03  0.17200000000E+03 0. -1.
         -6    1    1    2    0  502  0.15944321820E+03 -0.10613658758E+03  0.51354393696E+02  0.26250407388E+03  0.17200000000E+03 0.  1.
<mgrwt>
<rscale>  2 0.25743177E+03</rscale>
<asrwt>0</asrwt>
<pdfrwt beam="1">  1       21 0.69046200E-01 0.25743177E+03</pdfrwt>
<pdfrwt beam="2">  1       21 0.61125377E-01 0.25743177E+03</pdfrwt>
<totfact> 0.45434463E+03</totfact>
</mgrwt>
</event>
<event>
 4    1  0.1116135E+000  0.2106641E+03  0.7546771E-02  0.1141041E+00
         21   -1    0    0  503  502  0.00000000000E+00  0.00000000000E+00  0.11528498126E+03  0.11528498126E+03  0.00000000000E+00 0.  1.
         21   -1    0    0  501  503 -0.00000000000E+00 -0.00000000000E+00 -0.53125270040E+03  0.53125270040E+03  0.00000000000E+00 0.  1.
          6    1    1    2  501    0  0.25202828000E+02 -0.11899657683E+03 -0.37762614230E+03  0.43241284808E+03  0.17200000000E+03 0.  1.
         -6    1    1    2    0  502 -0.25202828000E+02  0.11899657683E+03 -0.38341576837E+02  0.21412483357E+03  0.17200000000E+03 0.  1.
<mgrwt>
<rscale>  2 0.21066411E+03</rscale>
<asrwt>0</asrwt>
<pdfrwt beam="1">  1       21 0.28821245E-01 0.21066411E+03</pdfrwt>
<pdfrwt beam="2">  1       21 0.13281317E+00 0.21066411E+03</pdfrwt>
<totfact> 0.46484210E+03</totfact>
</mgrwt>
</event>
<event>
 4    1  0.1116135E+000  0.1787171E+03  0.7546771E-02  0.1169050E+00
         21   -1    0    0  501  502  0.00000000000E+00  0.00000000000E+00  0.40163671929E+03  0.40163671929E+03  0.00000000000E+00 0.  1.
         21   -1    0    0  502  503 -0.00000000000E+00 -0.00000000000E+00 -0.15034893346E+03  0.15034893346E+03  0.00000000000E+00 0.  1.
          6    1    1    2  501    0  0.20956135338E+02  0.43779420847E+02  0.31507025088E+03  0.36222791208E+03  0.17200000000E+03 0.  1.
         -6    1    1    2    0  503 -0.20956135338E+02 -0.43779420847E+02 -0.63782465048E+02  0.18975774067E+03  0.17200000000E+03 0.  1.
<mgrwt>
<rscale>  2 0.17871709E+03</rscale>
<asrwt>0</asrwt>
<pdfrwt beam="1">  1       21 0.10040918E+00 0.17871709E+03</pdfrwt>
<pdfrwt beam="2">  1       21 0.37587234E-01 0.17871709E+03</pdfrwt>
<totfact> 0.56117601E+03</totfact>
</mgrwt>
</event>
<event>
 4    1  0.1116135E+000  0.1836018E+03  0.7546771E-02  0.1164362E+00
         21   -1    0    0  503  502  0.00000000000E+00  0.00000000000E+00  0.65074553919E+02  0.65074553919E+02  0.00000000000E+00 0. -1.
         21   -1    0    0  501  503 -0.00000000000E+00 -0.00000000000E+00 -0.68057708628E+03  0.68057708628E+03  0.00000000000E+00 0. -1.
          6    1    1    2  501    0  0.62528670538E+02  0.14689044879E+02 -0.48996319095E+03  0.52323372518E+03  0.17200000000E+03 0. -1.
         -6    1    1    2    0  502 -0.62528670538E+02 -0.14689044879E+02 -0.12553934141E+03  0.22241791501E+03  0.17200000000E+03 0. -1.
<mgrwt>
<rscale>  2 0.18360175E+03</rscale>
<asrwt>0</asrwt>
<pdfrwt beam="1">  1       21 0.16268639E-01 0.18360175E+03</pdfrwt>
<pdfrwt beam="2">  1       21 0.17014427E+00 0.18360175E+03</pdfrwt>
<totfact> 0.72546234E+03</totfact>
</mgrwt>
</event>
<event>
 4    1  0.1116135E+000  0.1727359E+03  0.7546771E-02  0.1175024E+00
         21   -1    0    0  501  502  0.00000000000E+00  0.00000000000E+00  0.38008659096E+03  0.38008659096E+03  0.00000000000E+00 0. -1.
         21   -1    0    0  502  503 -0.00000000000E+00 -0.00000000000E+00 -0.11944084996E+03  0.11944084996E+03  0.00000000000E+00 0. -1.
          6    1    1    2  501    0  0.10596164169E+02 -0.11891857561E+02  0.27654692237E+03  0.32606118328E+03  0.17200000000E+03 0.  1.
         -6    1    1    2    0  503 -0.10596164169E+02  0.11891857561E+02 -0.15901181371E+02  0.17346625764E+03  0.17200000000E+03 0.  1.
<mgrwt>
<rscale>  2 0.17273591E+03</rscale>
<asrwt>0</asrwt>
<pdfrwt beam="1">  1       21 0.95021645E-01 0.17273591E+03</pdfrwt>
<pdfrwt beam="2">  1       21 0.29860213E-01 0.17273591E+03</pdfrwt>
<totfact> 0.10099888E+04</totfact>
</mgrwt>
</event>
<event>
 4    1  0.1116135E+000  0.3359706E+03  0.7546771E-02  0.1068525E+00
         21   -1    0    0  501  502  0.00000000000E+00  0.00000000000E+00  0.80250261339E+03  0.80250261339E+03  0.00000000000E+00 0.  1.
         21   -1    0    0  502  503 -0.00000000000E+00 -0.00000000000E+00 -0.18811308005E+03  0.18811308005E+03  0.00000000000E+00 0. -1.
          6    1    1    2  501    0  0.19533449093E+03 -0.21245390472E+03  0.55597710159E+03  0.64960508193E+03  0.17200000000E+03 0.  1.
         -6    1    1    2    0  503 -0.19533449093E+03  0.21245390472E+03  0.58412431746E+02  0.34101061151E+03  0.17200000000E+03 0. -1.
<mgrwt>
<rscale>  2 0.33597057E+03</rscale>
<asrwt>0</asrwt>
<pdfrwt beam="1">  1       21 0.20062564E+00 0.33597057E+03</pdfrwt>
<pdfrwt beam="2">  1       21 0.47028272E-01 0.33597057E+03</pdfrwt>
<totfact> 0.50558373E+02</totfact>
</mgrwt>
</event>
<event>
 4    1  0.1116135E+000  0.2332117E+03  0.7546771E-02  0.1124399E+00
         21   -1    0    0  503  502  0.00000000000E+00  0.00000000000E+00  0.42441938615E+03  0.42441938615E+03  0.00000000000E+00 0. -1.
         21   -1    0    0  501  503 -0.00000000000E+00 -0.00000000000E+00 -0.13208815010E+03  0.13208815010E+03  0.00000000000E+00 0. -1.
          6    1    1    2  501    0  0.15621076325E+03 -0.20047883759E+02  0.19423473661E+03  0.30350428844E+03  0.17200000000E+03 0. -1.
         -6    1    1    2    0  502 -0.15621076325E+03  0.20047883759E+02  0.98096499440E+02  0.25300324781E+03  0.17200000000E+03 0. -1.
<mgrwt>
<rscale>  2 0.23321175E+03</rscale>
<asrwt>0</asrwt>
<pdfrwt beam="1">  1       21 0.10610484E+00 0.23321175E+03</pdfrwt>
<pdfrwt beam="2">  1       21 0.33022038E-01 0.23321175E+03</pdfrwt>
<totfact> 0.61082448E+03</totfact>
</mgrwt>
</event>
<event>
 4    1  0.1116135E+000  0.2007447E+03  0.7546771E-02  0.1149112E+00
         21   -1    0    0  501  502  0.00000000000E+00  0.00000000000E+00  0.64799312716E+02  0.64799312716E+02  0.00000000000E+00 0. -1.
         21   -1    0    0  502  503 -0.00000000000E+00 -0.00000000000E+00 -0.68436687521E+03  0.68436687521E+03  0.00000000000E+00 0. -1.
          6    1    1    2  501    0 -0.17881149648E+02  0.10195429960E+03 -0.19661061184E+03  0.28098780651E+03  0.17200000000E+03 0. -1.
         -6    1    1    2    0  503  0.17881149648E+02 -0.10195429960E+03 -0.42295695065E+03  0.46817838141E+03  0.17200000000E+03 0. -1.
<mgrwt>
<rscale>  2 0.20074465E+03</rscale>
<asrwt>0</asrwt>
<pdfrwt beam="1">  1       21 0.16199829E-01 0.20074465E+03</pdfrwt>
<pdfrwt beam="2">  1       21 0.17109171E+00 0.20074465E+03</pdfrwt>
<totfact> 0.70980508E+03</totfact>
</mgrwt>
</event>
<event>
 4    1  0.1116135E+000  0.2097286E+03  0.7546771E-02  0.1141781E+00
         21   -1    0    0  503  502  0.00000000000E+00  0.00000000000E+00  0.20327116011E+03  0.20327116011E+03  0.00000000000E+00 0.  1.
         21   -1    0    0  501  503 -0.00000000000E+00 -0.00000000000E+00 -0.36958828268E+03  0.36958828268E+03  0.00000000000E+00 0.  1.
          6    1    1    2  501    0  0.87662224113E+02 -0.81959911154E+02 -0.26756845393E+03  0.33996907228E+03  0.17200000000E+03 0.  1.
         -6    1    1    2    0  502 -0.87662224113E+02  0.81959911154E+02  0.10125133136E+03  0.23289037051E+03  0.17200000000E+03 0.  1.
<mgrwt>
<rscale>  2 0.20972862E+03</rscale>
<asrwt>0</asrwt>
<pdfrwt beam="1">  1       21 0.50817790E-01 0.20972862E+03</pdfrwt>
<pdfrwt beam="2">  1       21 0.92397070E-01 0.20972862E+03</pdfrwt>
<totfact> 0.35904022E+03</totfact>
</mgrwt>
</event>
<event>
 4    1  0.1116135E+000  0.1884849E+03  0.7546771E-02  0.1159835E+00
         21   -1    0    0  503  502  0.00000000000E+00  0.00000000000E+00  0.81388564575E+03  0.81388564575E+03  0.00000000000E+00 0. -1.
         21   -1    0    0  501  503 -0.00000000000E+00 -0.00000000000E+00 -0.19933759066E+03  0.19933759066E+03  0.00000000000E+00 0.  1.
          6    1    1    2  501    0  0.75149144127E+02  0.17180562357E+02 -0.14044624391E+03  0.23505682933E+03  0.17200000000E+03 0.  1.
         -6    1    1    2    0  502 -0.75149144127E+02 -0.17180562357E+02  0.75499429901E+03  0.77816640709E+03  0.17200000000E+03 0. -1.
<mgrwt>
<rscale>  2 0.18848492E+03</rscale>
<asrwt>0</asrwt>
<pdfrwt beam="1">  1       21 0.20347140E+00 0.18848492E+03</pdfrwt>
<pdfrwt beam="2">  1       21 0.49834400E-01 0.18848492E+03</pdfrwt>
<totfact> 0.49207832E+02</totfact>
</mgrwt>
</event>
<event>
 4    1  0.1116135E+000  0.1889570E+03  0.7546771E-02  0.1159405E+00
         21   -1    0    0  503  502  0.00000000000E+00  0.00000000000E+00  0.44149195840E+03  0.44149195840E+03  0.00000000000E+00 0.  1.
         21   -1    0    0  501  503 -0.00000000000E+00 -0.00000000000E+00 -0.10695407360E+03  0.10695407360E+03  0.00000000000E+00 0. -1.
          6    1    1    2  501    0 -0.13252504447E+02 -0.77104642811E+02  0.31853426348E+02  0.19162305599E+03  0.17200000000E+03 0. -1.
         -6    1    1    2    0  502  0.13252504447E+02  0.77104642811E+02  0.30268445846E+03  0.35682297601E+03  0.17200000000E+03 0.  1.
<mgrwt>
<rscale>  2 0.18895702E+03</rscale>
<asrwt>0</asrwt>
<pdfrwt beam="1">  1       21 0.11037299E+00 0.18895702E+03</pdfrwt>
<pdfrwt beam="2">  1       21 0.26738519E-01 0.18895702E+03</pdfrwt>
<totfact> 0.86493770E+03</totfact>
</mgrwt>
</event>
<event>
 4    1  0.1116135E+000  0.2349557E+03  0.7546771E-02  0.1123200E+00
         21   -1    0    0  501  502  0.00000000000E+00  0.00000000000E+00  0.11424616241E+04  0.11424616241E+04  0.00000000000E+00 0.  1.
         21   -1    0    0  502  503 -0.00000000000E+00 -0.00000000000E+00 -0.48322922700E+02  0.48322922700E+02  0.00000000000E+00 0.  1.
          6    1    1    2  501    0 -0.44638583590E+02  0.15371260018E+03  0.55139807127E+03  0.59936966856E+03  0.17200000000E+03 0.  1.
         -6    1    1    2    0  503  0.44638583590E+02 -0.15371260018E+03  0.54274063009E+03  0.59141487819E+03  0.17200000000E+03 0.  1.
<mgrwt>
<rscale>  2 0.23495567E+03</rscale>
<asrwt>0</asrwt>
<pdfrwt beam="1">  1       21 0.28561532E+00 0.23495567E+03</pdfrwt>
<pdfrwt beam="2">  1       21 0.12080734E-01 0.23495567E+03</pdfrwt>
<totfact> 0.22844495E+03</totfact>
</mgrwt>
</event>
<event>
 4    1  0.1116135E+000  0.1740346E+03  0.7546771E-02  0.1173705E+00
         21   -1    0    0  503  502  0.00000000000E+00  0.00000000000E+00  0.84395350669E+02  0.84395350669E+02  0.00000000000E+00 0. -1.
         21   -1    0    0  501  503 -0.00000000000E+00 -0.00000000000E+00 -0.40550521116E+03  0.40550521116E+03  0.00000000000E+00 0. -1.
          6    1    1    2  501    0 -0.22555150070E+02 -0.13974901745E+02 -0.24361216690E+03  0.29939091592E+03  0.17200000000E+03 0. -1.
         -6    1    1    2    0  502  0.22555150070E+02  0.13974901745E+02 -0.77497693597E+02  0.19050964591E+03  0.17200000000E+03 0. -1.
<mgrwt>
<rscale>  2 0.17403457E+03</rscale>
<asrwt>0</asrwt>
<pdfrwt beam="1">  1       21 0.21098838E-01 0.17403457E+03</pdfrwt>
<pdfrwt beam="2">  1       21 0.10137630E+00 0.17403457E+03</pdfrwt>
<totfact> 0.16798118E+04</totfact>
</mgrwt>
</event>
<event>
 4    1  0.1116135E+000  0.2247174E+03  0.7546771E-02  0.1130414E+00
         21   -1    0    0  501  502  0.00000000000E+00  0.00000000000E+00  0.39010204787E+03  0.39010204787E+03  0.00000000000E+00 0. -1.
         21   -1    0    0  502  503 -0.00000000000E+00 -0.00000000000E+00 -0.49171545834E+03  0.49171545834E+03  0.00000000000E+00 0. -1.
          6    1    1    2  501    0 -0.10642960649E+03  0.97911490751E+02  0.32764151341E+03  0.39729948712E+03  0.17200000000E+03 0. -1.
         -6    1    1    2    0  503  0.10642960649E+03 -0.97911490751E+02 -0.42925492387E+03  0.48451801909E+03  0.17200000000E+03 0. -1.
<mgrwt>
<rscale>  2 0.22471743E+03</rscale>
<asrwt>0</asrwt>
<pdfrwt beam="1">  1       21 0.97525513E-01 0.22471743E+03</pdfrwt>
<pdfrwt beam="2">  1       21 0.12292886E+00 0.22471743E+03</pdfrwt>
<totfact> 0.41844910E+02</totfact>
</mgrwt>
</event>
<event>
 4    1  0.1116135E+000  0.2210698E+03  0.7546771E-02  0.1133088E+00
         21   -1    0    0  501  502  0.00000000000E+00  0.00000000000E+00  0.16566991320E+03  0.16566991320E+03  0.00000000000E+00 0.  1.
         21   -1    0    0  502  503 -0.00000000000E+00 -0.00000000000E+00 -0.39741075432E+03  0.39741075432E+03  0.00000000000E+00 0.  1.
          6    1    1    2  501    0 -0.92094951306E+02 -0.10395369594E+03  0.27053030663E+02  0.22271892022E+03  0.17200000000E+03 0.  1.
         -6    1    1    2    0  503  0.92094951306E+02  0.10395369594E+03 -0.25879387178E+03  0.34036174730E+03  0.17200000000E+03 0.  1.
<mgrwt>
<rscale>  2 0.22106979E+03</rscale>
<asrwt>0</asrwt>
<pdfrwt beam="1">  1       21 0.41417479E-01 0.22106979E+03</pdfrwt>
<pdfrwt beam="2">  1       21 0.99352687E-01 0.22106979E+03</pdfrwt>
<totfact> 0.45781524E+03</totfact>
</mgrwt>
</event>
<event>
 4    1  0.1116135E+000  0.2414845E+03  0.7546771E-02  0.1118808E+00
         21   -1    0    0  501  502  0.00000000000E+00  0.00000000000E+00  0.96638279921E+03  0.96638279921E+03  0.00000000000E+00 0.  1.
         21   -1    0    0  502  503 -0.00000000000E+00 -0.00000000000E+00 -0.66685391398E+02  0.66685391398E+02  0.00000000000E+00 0.  1.
          6    1    1    2  501    0 -0.81853355931E+02 -0.14842778368E+03  0.29055520246E+03  0.37780564384E+03  0.17200000000E+03 0.  1.
         -6    1    1    2    0  503  0.81853355931E+02  0.14842778368E+03  0.60914220536E+03  0.65526254676E+03  0.17200000000E+03 0.  1.
<mgrwt>
<rscale>  2 0.24148453E+03</rscale>
<asrwt>0</asrwt>
<pdfrwt beam="1">  1       21 0.24159566E+00 0.24148453E+03</pdfrwt>
<pdfrwt beam="2">  1       21 0.16671351E-01 0.24148453E+03</pdfrwt>
<totfact> 0.22948348E+03</totfact>
</mgrwt>
</event>
<event>
 4    1  0.1116135E+000  0.2167183E+03  0.7546771E-02  0.1136354E+00
         21   -1    0    0  501  502  0.00000000000E+00  0.00000000000E+00  0.13189150741E+03  0.13189150741E+03  0.00000000000E+00 0. -1.
         21   -1    0    0  502  503 -0.00000000000E+00 -0.00000000000E+00 -0.51376532371E+03  0.51376532371E+03  0.00000000000E+00 0.  1.
          6    1    1    2  501    0 -0.11826719570E+03 -0.58272703013E+02 -0.12101044463E+02  0.21705592084E+03  0.17200000000E+03 0. -1.
         -6    1    1    2    0  503  0.11826719570E+03  0.58272703013E+02 -0.36977277185E+03  0.42860091028E+03  0.17200000000E+03 0.  1.
<mgrwt>
<rscale>  2 0.21671834E+03</rscale>
<asrwt>0</asrwt>
<pdfrwt beam="1">  1       21 0.32972877E-01 0.21671834E+03</pdfrwt>
<pdfrwt beam="2">  1       21 0.12844133E+00 0.21671834E+03</pdfrwt>
<totfact> 0.38684149E+03</totfact>
</mgrwt>
</event>
<event>
 4    1  0.1116135E+000  0.2142785E+03  0.7546771E-02  0.1138222E+00
         21   -1    0    0  501  502  0.00000000000E+00  0.00000000000E+00  0.12992070613E+03  0.12992070613E+03  0.00000000000E+00 0. -1.
         21   -1    0    0  502  503 -0.00000000000E+00 -0.00000000000E+00 -0.46773554447E+03  0.46773554447E+03  0.00000000000E+00 0. -1.
          6    1    1    2  501    0 -0.11611614149E+03  0.53369544914E+02 -0.31664570992E+03  0.38233463386E+03  0.17200000000E+03 0. -1.
         -6    1    1    2    0  503  0.11611614149E+03 -0.53369544914E+02 -0.21169128429E+02  0.21532161674E+03  0.17200000000E+03 0. -1.
<mgrwt>
<rscale>  2 0.21427848E+03</rscale>
<asrwt>0</asrwt>
<pdfrwt beam="1">  1       21 0.32480177E-01 0.21427848E+03</pdfrwt>
<pdfrwt beam="2">  1       21 0.11693388E+00 0.21427848E+03</pdfrwt>
<totfact> 0.50477759E+03</totfact>
</mgrwt>
</event>
<event>
 4    1  0.1116135E+000  0.2501627E+03  0.7546771E-02  0.1113202E+00
         21   -1    0    0  503  502  0.00000000000E+00  0.00000000000E+00  0.23755458589E+03  0.23755458589E+03  0.00000000000E+00 0.  1.
         21   -1    0    0  501  503 -0.00000000000E+00 -0.00000000000E+00 -0.29730494596E+03  0.29730494596E+03  0.00000000000E+00 0.  1.
          6    1    1    2  501    0 -0.18097650416E+03 -0.15649215653E+02 -0.12013272624E+03  0.27751263921E+03  0.17200000000E+03 0.  1.
         -6    1    1    2    0  502  0.18097650416E+03  0.15649215653E+02  0.60382366164E+02  0.25734689264E+03  0.17200000000E+03 0.  1.
<mgrwt>
<rscale>  2 0.25016273E+03</rscale>
<asrwt>0</asrwt>
<pdfrwt beam="1">  1       21 0.59388647E-01 0.25016273E+03</pdfrwt>
<pdfrwt beam="2">  1       21 0.74326236E-01 0.25016273E+03</pdfrwt>
<totfact> 0.41215645E+03</totfact>
</mgrwt>
</event>
<event>
 4    1  0.1116135E+000  0.2106815E+03  0.7546771E-02  0.1141027E+00
         21   -1    0    0  501  502  0.00000000000E+00  0.00000000000E+00  0.10553923746E+03  0.10553923746E+03  0.00000000000E+00 0.  1.
         21   -1    0    0  502  503 -0.00000000000E+00 -0.00000000000E+00 -0.42771829616E+03  0.42771829616E+03  0.00000000000E+00 0.  1.
          6    1    1    2  501    0  0.57309707200E+02 -0.10732332372E+03 -0.12662187513E+03  0.24580438892E+03  0.17200000000E+03 0.  1.
         -6    1    1    2    0  503 -0.57309707200E+02  0.10732332372E+03 -0.19555718357E+03  0.28745314470E+03  0.17200000000E+03 0.  1.
<mgrwt>
<rscale>  2 0.21068151E+03</rscale>
<asrwt>0</asrwt>
<pdfrwt beam="1">  1       21 0.26384810E-01 0.21068151E+03</pdfrwt>
<pdfrwt beam="2">  1       21 0.10692957E+00 0.21068151E+03</pdfrwt>
<totfact> 0.94323773E+03</totfact>
</mgrwt>
</event>
<event>
 4    1  0.1116135E+000  0.1882665E+03  0.7546771E-02  0.1160034E+00
         21   -1    0    0  503  502  0.00000000000E+00  0.00000000000E+00  0.18948795809E+03  0.18948795809E+03  0.00000000000E+00 0. -1.
         21   -1    0    0  501  503 -0.00000000000E+00 -0.00000000000E+00 -0.26758602997E+03  0.26758602997E+03  0.00000000000E+00 0. -1.
          6    1    1    2  501    0  0.10832794793E+02 -0.75782011818E+02 -0.16442440214E+03  0.24995929024E+03  0.17200000000E+03 0. -1.
         -6    1    1    2    0  502 -0.10832794793E+02  0.75782011818E+02  0.86326330256E+02  0.20711469782E+03  0.17200000000E+03 0. -1.
<mgrwt>
<rscale>  2 0.18826647E+03</rscale>
<asrwt>0</asrwt>
<pdfrwt beam="1">  1       21 0.47371990E-01 0.18826647E+03</pdfrwt>
<pdfrwt beam="2">  1       21 0.66896507E-01 0.18826647E+03</pdfrwt>
<totfact> 0.87523578E+03</totfact>
</mgrwt>
</event>
<event>
 4    1  0.1116135E+000  0.2088437E+03  0.7546771E-02  0.1142485E+00
         21   -1    0    0  503  502  0.00000000000E+00  0.00000000000E+00  0.95081905169E+03  0.95081905169E+03  0.00000000000E+00 0.  1.
         21   -1    0    0  501  503 -0.00000000000E+00 -0.00000000000E+00 -0.46235263686E+02  0.46235263686E+02  0.00000000000E+00 0. -1.
          6    1    1    2  501    0  0.57755050772E+01  0.11831462016E+03  0.49649778471E+03  0.53863322959E+03  0.17200000000E+03 0.  1.
         -6    1    1    2    0  502 -0.57755050772E+01 -0.11831462016E+03  0.40808600330E+03  0.45842108578E+03  0.17200000000E+03 0. -1.
<mgrwt>
<rscale>  2 0.20884374E+03</rscale>
<asrwt>0</asrwt>
<pdfrwt beam="1">  1       21 0.23770470E+00 0.20884374E+03</pdfrwt>
<pdfrwt beam="2">  1       21 0.11558819E-01 0.20884374E+03</pdfrwt>
<totfact> 0.48550226E+03</totfact>
</mgrwt>
</event>
<event>
 4    1  0.1116135E+000  0.1842724E+03  0.7546771E-02  0.1163731E+00
         21   -1    0    0  503  502  0.00000000000E+00  0.00000000000E+00  0.63638285248E+02  0.63638285248E+02  0.00000000000E+00 0. -1.
         21   -1    0    0  501  503 -0.00000000000E+00 -0.00000000000E+00 -0.10424999231E+04  0.10424999231E+04  0.00000000000E+00 0.  1.
          6    1    1    2  501    0  0.59915426003E+02 -0.27972640595E+02 -0.87585535720E+03  0.89503013001E+03  0.17200000000E+03 0. -1.
         -6    1    1    2    0  502 -0.59915426003E+02  0.27972640595E+02 -0.10300628070E+03  0.21110807838E+03  0.17200000000E+03 0. -1.
<mgrwt>
<rscale>  2 0.18427243E+03</rscale>
<asrwt>0</asrwt>
<pdfrwt beam="1">  1       21 0.15909572E-01 0.18427243E+03</pdfrwt>
<pdfrwt beam="2">  1       21 0.26062498E+00 0.18427243E+03</pdfrwt>
<totfact> 0.20506851E+03</totfact>
</mgrwt>
</event>
<event>
 4    1  0.1116135E+000  0.1992309E+03  0.7546771E-02  0.1150389E+00
         21   -1    0    0  501  502  0.00000000000E+00  0.00000000000E+00  0.27063236018E+03  0.27063236018E+03  0.00000000000E+00 0. -1.
         21   -1    0    0  502  503 -0.00000000000E+00 -0.00000000000E+00 -0.18094349665E+03  0.18094349665E+03  0.00000000000E+00 0. -1.
          6    1    1    2  501    0 -0.72463882382E+02  0.69699018666E+02  0.14311520531E+03  0.24530578763E+03  0.17200000000E+03 0. -1.
         -6    1    1    2    0  503  0.72463882382E+02 -0.69699018666E+02 -0.53426341773E+02  0.20627006920E+03  0.17200000000E+03 0. -1.
<mgrwt>
<rscale>  2 0.19923094E+03</rscale>
<asrwt>0</asrwt>
<pdfrwt beam="1">  1       21 0.67658090E-01 0.19923094E+03</pdfrwt>
<pdfrwt beam="2">  1       21 0.45235874E-01 0.19923094E+03</pdfrwt>
<totfact> 0.93181320E+03</totfact>
</mgrwt>
</event>
<event>
 4    1  0.1116135E+000  0.1742952E+03  0.7546771E-02  0.1173441E+00
         21   -1    0    0  503  502  0.00000000000E+00  0.00000000000E+00  0.77727528670E+02  0.77727528670E+02  0.00000000000E+00 0. -1.
         21   -1    0    0  501  503 -0.00000000000E+00 -0.00000000000E+00 -0.41120001360E+03  0.41120001360E+03  0.00000000000E+00 0. -1.
          6    1    1    2  501    0 -0.62770505437E+01 -0.27484974128E+02 -0.22113697070E+03  0.28156772716E+03  0.17200000000E+03 0. -1.
         -6    1    1    2    0  502  0.62770505437E+01  0.27484974128E+02 -0.11233551423E+03  0.20735981511E+03  0.17200000000E+03 0. -1.
<mgrwt>
<rscale>  2 0.17429522E+03</rscale>
<asrwt>0</asrwt>
<pdfrwt beam="1">  1       21 0.19431883E-01 0.17429522E+03</pdfrwt>
<pdfrwt beam="2">  1       21 0.10280000E+00 0.17429522E+03</pdfrwt>
<totfact> 0.18942700E+04</totfact>
</mgrwt>
</event>
<event>
 4    1  0.1116135E+000  0.1844416E+03  0.7546771E-02  0.1163572E+00
         21   -1    0    0  503  502  0.00000000000E+00  0.00000000000E+00  0.40866199683E+03  0.40866199683E+03  0.00000000000E+00 0. -1.
         21   -1    0    0  501  503 -0.00000000000E+00 -0.00000000000E+00 -0.85606314419E+02  0.85606314419E+02  0.00000000000E+00 0.  1.
          6    1    1    2  501    0 -0.63868905764E+02 -0.18854256552E+02  0.12047577365E+03  0.22030236528E+03  0.17200000000E+03 0.  1.
         -6    1    1    2    0  502  0.63868905764E+02  0.18854256552E+02  0.20257990876E+03  0.27396594596E+03  0.17200000000E+03 0. -1.
<mgrwt>
<rscale>  2 0.18444164E+03</rscale>
<asrwt>0</asrwt>
<pdfrwt beam="1">  1       21 0.10216549E+00 0.18444164E+03</pdfrwt>
<pdfrwt beam="2">  1       21 0.21401580E-01 0.18444164E+03</pdfrwt>
<totfact> 0.15945157E+04</totfact>
</mgrwt>
</event>
<event>
 4    1  0.1116135E+000  0.1750176E+03  0.7546771E-02  0.1172714E+00
         21   -1    0    0  503  502  0.00000000000E+00  0.00000000000E+00  0.17962221001E+03  0.17962221001E+03  0.00000000000E+00 0.  1.
         21   -1    0    0  501  503 -0.00000000000E+00 -0.00000000000E+00 -0.91571142342E+03  0.91571142342E+03  0.00000000000E+00 0.  1.
          6    1    1    2  501    0 -0.29821512347E+02 -0.12563416186E+02 -0.86209109765E+03  0.87967734009E+03  0.17200000000E+03 0.  1.
         -6    1    1    2    0  502  0.29821512347E+02  0.12563416186E+02  0.12600188424E+03  0.21565629334E+03  0.17200000000E+03 0.  1.
<mgrwt>
<rscale>  2 0.17501760E+03</rscale>
<asrwt>0</asrwt>
<pdfrwt beam="1">  1       21 0.44905553E-01 0.17501760E+03</pdfrwt>
<pdfrwt beam="2">  1       21 0.22892785E+00 0.17501760E+03</pdfrwt>
<totfact> 0.43271022E+02</totfact>
</mgrwt>
</event>
<event>
 4    1  0.1116135E+000  0.1802557E+03  0.7546771E-02  0.1167556E+00
         21   -1    0    0  503  502  0.00000000000E+00  0.00000000000E+00  0.25188841410E+03  0.25188841410E+03  0.00000000000E+00 0. -1.
         21   -1    0    0  501  503 -0.00000000000E+00 -0.00000000000E+00 -0.18920109723E+03  0.18920109723E+03  0.00000000000E+00 0. -1.
          6    1    1    2  501    0 -0.32002203650E+02  0.43404830716E+02 -0.93067226163E+02  0.20286357227E+03  0.17200000000E+03 0. -1.
         -6    1    1    2    0  502  0.32002203650E+02 -0.43404830716E+02  0.15575454303E+03  0.23822593906E+03  0.17200000000E+03 0. -1.
<mgrwt>
<rscale>  2 0.18025571E+03</rscale>
<asrwt>0</asrwt>
<pdfrwt beam="1">  1       21 0.62972103E-01 0.18025571E+03</pdfrwt>
<pdfrwt beam="2">  1       21 0.47300274E-01 0.18025571E+03</pdfrwt>
<totfact> 0.10069242E+04</totfact>
</mgrwt>
</event>
<event>
 4    1  0.1116135E+000  0.2130691E+03  0.7546771E-02  0.1139158E+00
         21   -1    0    0  503  502  0.00000000000E+00  0.00000000000E+00  0.78335503620E+02  0.78335503620E+02  0.00000000000E+00 0. -1.
         21   -1    0    0  501  503 -0.00000000000E+00 -0.00000000000E+00 -0.77606873614E+03  0.77606873614E+03  0.00000000000E+00 0. -1.
          6    1    1    2  501    0 -0.79782751086E+02  0.97206704415E+02 -0.56384665020E+03  0.60276154132E+03  0.17200000000E+03 0. -1.
         -6    1    1    2    0  502  0.79782751086E+02 -0.97206704415E+02 -0.13388658233E+03  0.25164269845E+03  0.17200000000E+03 0. -1.
<mgrwt>
<rscale>  2 0.21306908E+03</rscale>
<asrwt>0</asrwt>
<pdfrwt beam="1">  1       21 0.19583876E-01 0.21306908E+03</pdfrwt>
<pdfrwt beam="2">  1       21 0.19401718E+00 0.21306908E+03</pdfrwt>
<totfact> 0.34575680E+03</totfact>
</mgrwt>
</event>
<event>
 4    1  0.1116135E+000  0.2217630E+03  0.7546771E-02  0.1132575E+00
         21   -1    0    0  503  502  0.00000000000E+00  0.00000000000E+00  0.71533471920E+02  0.71533471920E+02  0.00000000000E+00 0.  1.
         21   -1    0    0  501  503 -0.00000000000E+00 -0.00000000000E+00 -0.69293572387E+03  0.69293572387E+03  0.00000000000E+00 0. -1.
          6    1    1    2  501    0 -0.13985751486E+03 -0.58917903831E+01 -0.34457376456E+03  0.40976812575E+03  0.17200000000E+03 0. -1.
         -6    1    1    2    0  502  0.13985751486E+03  0.58917903831E+01 -0.27682848739E+03  0.35470107004E+03  0.17200000000E+03 0.  1.
<mgrwt>
<rscale>  2 0.22176302E+03</rscale>
<asrwt>0</asrwt>
<pdfrwt beam="1">  1       21 0.17883368E-01 0.22176302E+03</pdfrwt>
<pdfrwt beam="2">  1       21 0.17323393E+00 0.22176302E+03</pdfrwt>
<totfact> 0.56190046E+03</totfact>
</mgrwt>
</event>
<event>
 4    1  0.1116135E+000  0.1958768E+03  0.7546771E-02  0.1153265E+00
         21   -1    0    0  503  502  0.00000000000E+00  0.00000000000E+00  0.51538714470E+02  0.51538714470E+02  0.00000000000E+00 0.  1.
         21   -1    0    0  501  503 -0.00000000000E+00 -0.00000000000E+00 -0.11819990684E+04  0.11819990684E+04  0.00000000000E+00 0.  1.
          6    1    1    2  501    0 -0.56904337974E+02  0.74468820250E+02 -0.94048824643E+03  0.96066948038E+03  0.17200000000E+03 0.  1.
         -6    1    1    2    0  502  0.56904337974E+02 -0.74468820250E+02 -0.18997210748E+03  0.27286830247E+03  0.17200000000E+03 0.  1.
<mgrwt>
<rscale>  2 0.19587677E+03</rscale>
<asrwt>0</asrwt>
<pdfrwt beam="1">  1       21 0.12884678E-01 0.19587677E+03</pdfrwt>
<pdfrwt beam="2">  1       21 0.29549978E+00 0.19587677E+03</pdfrwt>
<totfact> 0.18639426E+03</totfact>
</mgrwt>
</event>
<event>
 4    1  0.1116135E+000  0.2396980E+03  0.7546771E-02  0.1119994E+00
         21   -1    0    0  501  502  0.00000000000E+00  0.00000000000E+00  0.29179416403E+03  0.29179416403E+03  0.00000000000E+00 0.  1.
         21   -1    0    0  502  503 -0.00000000000E+00 -0.00000000000E+00 -0.23170952142E+03  0.23170952142E+03  0.00000000000E+00 0.  1.
          6    1    1    2  501    0  0.15994879394E+03 -0.47827994933E+02  0.13149146505E+03  0.27339557268E+03  0.17200000000E+03 0.  1.
         -6    1    1    2    0  503 -0.15994879394E+03  0.47827994933E+02 -0.71406822451E+02  0.25010811277E+03  0.17200000000E+03 0.  1.
<mgrwt>
<rscale>  2 0.23969801E+03</rscale>
<asrwt>0</asrwt>
<pdfrwt beam="1">  1       21 0.72948541E-01 0.23969801E+03</pdfrwt>
<pdfrwt beam="2">  1       21 0.57927381E-01 0.23969801E+03</pdfrwt>
<totfact> 0.45652213E+03</totfact>
</mgrwt>
</event>
<event>
 4    1  0.1116135E+000  0.1863370E+03  0.7546771E-02  0.1161807E+00
         21   -1    0    0  503  502  0.00000000000E+00  0.00000000000E+00  0.93526694658E+02  0.93526694658E+02  0.00000000000E+00 0. -1.
         21   -1    0    0  501  503 -0.00000000000E+00 -0.00000000000E+00 -0.64498314811E+03  0.64498314811E+03  0.00000000000E+00 0. -1.
          6    1    1    2  501    0  0.43946267457E+02  0.56623198232E+02 -0.35170918279E+02  0.18962714598E+03  0.17200000000E+03 0. -1.
         -6    1    1    2    0  502 -0.43946267457E+02 -0.56623198232E+02 -0.51628553517E+03  0.54888269678E+03  0.17200000000E+03 0. -1.
<mgrwt>
<rscale>  2 0.18633696E+03</rscale>
<asrwt>0</asrwt>
<pdfrwt beam="1">  1       21 0.23381674E-01 0.18633696E+03</pdfrwt>
<pdfrwt beam="2">  1       21 0.16124579E+00 0.18633696E+03</pdfrwt>
<totfact> 0.42641511E+03</totfact>
</mgrwt>
</event>
<event>
 4    1  0.1116135E+000  0.1736598E+03  0.7546771E-02  0.1174084E+00
         21   -1    0    0  501  502  0.00000000000E+00  0.00000000000E+00  0.37228938239E+03  0.37228938239E+03  0.00000000000E+00 0.  1.
         21   -1    0    0  502  503 -0.00000000000E+00 -0.00000000000E+00 -0.90577462886E+02  0.90577462886E+02  0.00000000000E+00 0.  1.
          6    1    1    2  501    0  0.23778658387E+02  0.28821452887E+01  0.21608779375E+03  0.27722133028E+03  0.17200000000E+03 0.  1.
         -6    1    1    2    0  503 -0.23778658387E+02 -0.28821452887E+01  0.65624125753E+02  0.18564551499E+03  0.17200000000E+03 0.  1.
<mgrwt>
<rscale>  2 0.17365982E+03</rscale>
<asrwt>0</asrwt>
<pdfrwt beam="1">  1       21 0.93072342E-01 0.17365982E+03</pdfrwt>
<pdfrwt beam="2">  1       21 0.22644367E-01 0.17365982E+03</pdfrwt>
<totfact> 0.17980010E+04</totfact>
</mgrwt>
</event>
<event>
 4    1  0.1116135E+000  0.1899012E+03  0.7546771E-02  0.1158550E+00
         21   -1    0    0  503  502  0.00000000000E+00  0.00000000000E+00  0.14338425907E+03  0.14338425907E+03  0.00000000000E+00 0.  1.
         21   -1    0    0  501  503 -0.00000000000E+00 -0.00000000000E+00 -0.25156008030E+03  0.25156008030E+03  0.00000000000E+00 0. -1.
          6    1    1    2  501    0 -0.49661847804E+02 -0.63341605829E+02 -0.56896727281E+02  0.19824150860E+03  0.17200000000E+03 0. -1.
         -6    1    1    2    0  502  0.49661847804E+02  0.63341605829E+02 -0.51279093943E+02  0.19670283077E+03  0.17200000000E+03 0. -1.
<mgrwt>
<rscale>  2 0.18990118E+03</rscale>
<asrwt>0</asrwt>
<pdfrwt beam="1">  1       21 0.35846065E-01 0.18990118E+03</pdfrwt>
<pdfrwt beam="2">  1       21 0.62890020E-01 0.18990118E+03</pdfrwt>
<totfact> 0.17600271E+04</totfact>
</mgrwt>
</event>
<event>
 4    1  0.1116135E+000  0.2017599E+03  0.7546771E-02  0.1148263E+00
         21   -1    0    0  503  502  0.00000000000E+00  0.00000000000E+00  0.42336847656E+03  0.42336847656E+03  0.00000000000E+00 0. -1.
         21   -1    0    0  501  503 -0.00000000000E+00 -0.00000000000E+00 -0.30748802035E+03  0.30748802035E+03  0.00000000000E+00 0. -1.
          6    1    1    2  501    0 -0.49088018963E+02 -0.93345792743E+02 -0.24501354694E+03  0.31739361811E+03  0.17200000000E+03 0. -1.
         -6    1    1    2    0  502  0.49088018963E+02  0.93345792743E+02  0.36089400316E+03  0.41346287880E+03  0.17200000000E+03 0. -1.
<mgrwt>
<rscale>  2 0.20175993E+03</rscale>
<asrwt>0</asrwt>
<pdfrwt beam="1">  1       21 0.10584212E+00 0.20175993E+03</pdfrwt>
<pdfrwt beam="2">  1       21 0.76872005E-01 0.20175993E+03</pdfrwt>
<totfact> 0.10686592E+03</totfact>
</mgrwt>
</event>
<event>
 4    1  0.1116135E+000  0.1753955E+03  0.7546771E-02  0.1172335E+00
         21   -1    0    0  501  502  0.00000000000E+00  0.00000000000E+00  0.66898650250E+03  0.66898650250E+03  0.00000000000E+00 0. -1.
         21   -1    0    0  502  503 -0.00000000000E+00 -0.00000000000E+00 -0.49609550486E+02  0.49609550486E+02  0.00000000000E+00 0. -1.
          6    1    1    2  501    0  0.18112939967E+02  0.29180764715E+02  0.40680133860E+03  0.44300217235E+03  0.17200000000E+03 0. -1.
         -6    1    1    2    0  503 -0.18112939967E+02 -0.29180764715E+02  0.21257561341E+03  0.27559388063E+03  0.17200000000E+03 0. -1.
<mgrwt>
<rscale>  2 0.17539554E+03</rscale>
<asrwt>0</asrwt>
<pdfrwt beam="1">  1       21 0.16724660E+00 0.17539554E+03</pdfrwt>
<pdfrwt beam="2">  1       21 0.12402390E-01 0.17539554E+03</pdfrwt>
<totfact> 0.12510343E+04</totfact>
</mgrwt>
</event>
<event>
 4    1  0.1116135E+000  0.2387316E+03  0.7546771E-02  0.1120641E+00
         21   -1    0    0  501  502  0.00000000000E+00  0.00000000000E+00  0.11856758433E+03  0.11856758433E+03  0.00000000000E+00 0.  1.
         21   -1    0    0  502  503 -0.00000000000E+00 -0.00000000000E+00 -0.59950157564E+03  0.59950157564E+03  0.00000000000E+00 0. -1.
          6    1    1    2  501    0  0.15936034697E+03  0.44867276410E+02 -0.80624229134E+02  0.25197829074E+03  0.17200000000E+03 0.  1.
         -6    1    1    2    0  503 -0.15936034697E+03 -0.44867276410E+02 -0.40030976218E+03  0.46609086923E+03  0.17200000000E+03 0. -1.
<mgrwt>
<rscale>  2 0.23873163E+03</rscale>
<asrwt>0</asrwt>
<pdfrwt beam="1">  1       21 0.29641896E-01 0.23873163E+03</pdfrwt>
<pdfrwt beam="2">  1       21 0.14987539E+00 0.23873163E+03</pdfrwt>
<totfact> 0.31452166E+03</totfact>
</mgrwt>
</event>
<event>
 4    1  0.1116135E+000  0.1827716E+03  0.7546771E-02  0.1165147E+00
         21   -1    0    0  501  502  0.00000000000E+00  0.00000000000E+00  0.24708753169E+03  0.24708753169E+03  0.00000000000E+00 0. -1.
         21   -1    0    0  502  503 -0.00000000000E+00 -0.00000000000E+00 -0.18634829407E+03  0.18634829407E+03  0.00000000000E+00 0. -1.
          6    1    1    2  501    0 -0.53150543189E+02  0.31566839776E+02  0.14391284396E+03  0.23262921629E+03  0.17200000000E+03 0.  1.
         -6    1    1    2    0  503  0.53150543189E+02 -0.31566839776E+02 -0.83173606346E+02  0.20080660947E+03  0.17200000000E+03 0.  1.
<mgrwt>
<rscale>  2 0.18277157E+03</rscale>
<asrwt>0</asrwt>
<pdfrwt beam="1">  1       21 0.61771883E-01 0.18277157E+03</pdfrwt>
<pdfrwt beam="2">  1       21 0.46587074E-01 0.18277157E+03</pdfrwt>
<totfact> 0.10811259E+04</totfact>
</mgrwt>
</event>
<event>
 4    1  0.1116135E+000  0.1825851E+03  0.7546771E-02  0.1165324E+00
         21   -1    0    0  501  502  0.00000000000E+00  0.00000000000E+00  0.11401596125E+03  0.11401596125E+03  0.00000000000E+00 0.  1.
         21   -1    0    0  502  503 -0.00000000000E+00 -0.00000000000E+00 -0.32428750188E+03  0.32428750188E+03  0.00000000000E+00 0. -1.
          6    1    1    2  501    0  0.20281715048E+02 -0.57809928963E+02 -0.36405878417E+02  0.18617927875E+03  0.17200000000E+03 0.  1.
         -6    1    1    2    0  503 -0.20281715048E+02  0.57809928963E+02 -0.17386566222E+03  0.25212418438E+03  0.17200000000E+03 0. -1.
<mgrwt>
<rscale>  2 0.18258515E+03</rscale>
<asrwt>0</asrwt>
<pdfrwt beam="1">  1       21 0.28503991E-01 0.18258515E+03</pdfrwt>
<pdfrwt beam="2">  1       21 0.81071874E-01 0.18258515E+03</pdfrwt>
<totfact> 0.15808231E+04</totfact>
</mgrwt>
</event>
<event>
 4    1  0.1116135E+000  0.2290400E+03  0.7546771E-02  0.1127317E+00
         21   -1    0    0  501  502  0.00000000000E+00  0.00000000000E+00  0.41508676237E+02  0.41508676237E+02  0.00000000000E+00 0.  1.
         21   -1    0    0  502  503 -0.00000000000E+00 -0.00000000000E+00 -0.13637551087E+04  0.13637551087E+04  0.00000000000E+00 0.  1.
          6    1    1    2  501    0  0.13273023693E+03 -0.72512150595E+02 -0.85133064366E+03  0.88160262739E+03  0.17200000000E+03 0.  1.
         -6    1    1    2    0  503 -0.13273023693E+03  0.72512150595E+02 -0.47091578878E+03  0.52366115753E+03  0.17200000000E+03 0.  1.
<mgrwt>
<rscale>  2 0.22904001E+03</rscale>
<asrwt>0</asrwt>
<pdfrwt beam="1">  1       21 0.10377169E-01 0.22904001E+03</pdfrwt>
<pdfrwt beam="2">  1       21 0.34093877E+00 0.22904001E+03</pdfrwt>
<totfact> 0.14333142E+03</totfact>
</mgrwt>
</event>
<event>
 4    1  0.1116135E+000  0.2359354E+03  0.7546771E-02  0.1122531E+00
         21   -1    0    0  503  502  0.00000000000E+00  0.00000000000E+00  0.44654563629E+03  0.44654563629E+03  0.00000000000E+00 0. -1.
         21   -1    0    0  501  503 -0.00000000000E+00 -0.00000000000E+00 -0.27299395152E+03  0.27299395152E+03  0.00000000000E+00 0. -1.
          6    1    1    2  501    0 -0.96957516637E+02 -0.12915403440E+03 -0.17842278319E+03  0.29580435121E+03  0.17200000000E+03 0. -1.
         -6    1    1    2    0  502  0.96957516637E+02  0.12915403440E+03  0.35197446796E+03  0.42373523659E+03  0.17200000000E+03 0. -1.
<mgrwt>
<rscale>  2 0.23593542E+03</rscale>
<asrwt>0</asrwt>
<pdfrwt beam="1">  1       21 0.11163641E+00 0.23593542E+03</pdfrwt>
<pdfrwt beam="2">  1       21 0.68248488E-01 0.23593542E+03</pdfrwt>
<totfact> 0.11866742E+03</totfact>
</mgrwt>
</event>
<event>
 4    1  0.1116135E+000  0.1801410E+03  0.7546771E-02  0.1167667E+00
         21   -1    0    0  503  502  0.00000000000E+00  0.00000000000E+00  0.88617148032E+02  0.88617148032E+02  0.00000000000E+00 0.  1.
         21   -1    0    0  501  503 -0.00000000000E+00 -0.00000000000E+00 -0.50239427103E+03  0.50239427103E+03  0.00000000000E+00 0. -1.
          6    1    1    2  501    0 -0.41194589125E+02  0.34202201528E+02 -0.36075277355E+03  0.40322865522E+03  0.17200000000E+03 0. -1.
         -6    1    1    2    0  502  0.41194589125E+02 -0.34202201528E+02 -0.53024349445E+02  0.18778276384E+03  0.17200000000E+03 0.  1.
<mgrwt>
<rscale>  2 0.18014101E+03</rscale>
<asrwt>0</asrwt>
<pdfrwt beam="1">  1       21 0.22154287E-01 0.18014101E+03</pdfrwt>
<pdfrwt beam="2">  1       21 0.12559857E+00 0.18014101E+03</pdfrwt>
<totfact> 0.90639883E+03</totfact>
</mgrwt>
</event>
<event>
 4    1  0.1116135E+000  0.3133367E+03  0.7546771E-02  0.1078757E+00
         21   -1    0    0  501  502  0.00000000000E+00  0.00000000000E+00  0.78613135239E+02  0.78613135239E+02  0.00000000000E+00 0. -1.
         21   -1    0    0  502  503 -0.00000000000E+00 -0.00000000000E+00 -0.14231685514E+04  0.14231685514E+04  0.00000000000E+00 0.  1.
          6    1    1    2  501    0 -0.26019187358E+03 -0.29934166304E+02 -0.40951761606E+03  0.51563993567E+03  0.17200000000E+03 0. -1.
         -6    1    1    2    0  503  0.26019187358E+03  0.29934166304E+02 -0.93503780008E+03  0.98614175095E+03  0.17200000000E+03 0.  1.
<mgrwt>
<rscale>  2 0.31333666E+03</rscale>
<asrwt>0</asrwt>
<pdfrwt beam="1">  1       21 0.19653283E-01 0.31333666E+03</pdfrwt>
<pdfrwt beam="2">  1       21 0.35579215E+00 0.31333666E+03</pdfrwt>
<totfact> 0.33238736E+02</totfact>
</mgrwt>
</event>
<event>
 4    1  0.1116135E+000  0.2485447E+03  0.7546771E-02  0.1114228E+00
         21   -1    0    0  503  502  0.00000000000E+00  0.00000000000E+00  0.83754408161E+02  0.83754408161E+02  0.00000000000E+00 0. -1.
         21   -1    0    0  501  503 -0.00000000000E+00 -0.00000000000E+00 -0.11000398385E+04  0.11000398385E+04  0.00000000000E+00 0. -1.
          6    1    1    2  501    0  0.76266735087E+02 -0.16240026430E+03 -0.84790873980E+03  0.88358570142E+03  0.17200000000E+03 0. -1.
         -6    1    1    2    0  502 -0.76266735087E+02  0.16240026430E+03 -0.16837669057E+03  0.30020854527E+03  0.17200000000E+03 0. -1.
<mgrwt>
<rscale>  2 0.24854469E+03</rscale>
<asrwt>0</asrwt>
<pdfrwt beam="1">  1       21 0.20938602E-01 0.24854469E+03</pdfrwt>
<pdfrwt beam="2">  1       21 0.27500997E+00 0.24854469E+03</pdfrwt>
<totfact> 0.94467536E+02</totfact>
</mgrwt>
</event>
<event>
 4    1  0.1116135E+000  0.2592286E+03  0.7546771E-02  0.1107608E+00
         21   -1    0    0  501  502  0.00000000000E+00  0.00000000000E+00  0.56661302754E+03  0.56661302754E+03  0.00000000000E+00 0. -1.
         21   -1    0    0  502  503 -0.00000000000E+00 -0.00000000000E+00 -0.23716652037E+03  0.23716652037E+03  0.00000000000E+00 0.  1.
          6    1    1    2  501    0  0.15825289245E+03  0.11212258039E+03  0.44888398548E+03  0.51835922238E+03  0.17200000000E+03 0. -1.
         -6    1    1    2    0  503 -0.15825289245E+03 -0.11212258039E+03 -0.11943747832E+03  0.28542032553E+03  0.17200000000E+03 0.  1.
<mgrwt>
<rscale>  2 0.25922857E+03</rscale>
<asrwt>0</asrwt>
<pdfrwt beam="1">  1       21 0.14165325E+00 0.25922857E+03</pdfrwt>
<pdfrwt beam="2">  1       21 0.59291631E-01 0.25922857E+03</pdfrwt>
<totfact> 0.86777379E+02</totfact>
</mgrwt>
</event>
<event>
 4    1  0.1116135E+000  0.1751208E+03  0.7546771E-02  0.1172610E+00
         21   -1    0    0  503  502  0.00000000000E+00  0.00000000000E+00  0.11590028450E+03  0.11590028450E+03  0.00000000000E+00 0. -1.
         21   -1    0    0  501  503 -0.00000000000E+00 -0.00000000000E+00 -0.46412026109E+03  0.46412026109E+03  0.00000000000E+00 0. -1.
          6    1    1    2  501    0 -0.42291336425E+01 -0.32640621780E+02 -0.36425759536E+03  0.40416691049E+03  0.17200000000E+03 0. -1.
         -6    1    1    2    0  502  0.42291336425E+01  0.32640621780E+02  0.16037618771E+02  0.17585363510E+03  0.17200000000E+03 0. -1.
<mgrwt>
<rscale>  2 0.17512080E+03</rscale>
<asrwt>0</asrwt>
<pdfrwt beam="1">  1       21 0.28975071E-01 0.17512080E+03</pdfrwt>
<pdfrwt beam="2">  1       21 0.11603006E+00 0.17512080E+03</pdfrwt>
<totfact> 0.66316445E+03</totfact>
</mgrwt>
</event>
<event>
 4    1  0.1116135E+000  0.2126509E+03  0.7546771E-02  0.1139484E+00
         21   -1    0    0  503  502  0.00000000000E+00  0.00000000000E+00  0.17377991301E+03  0.17377991301E+03  0.00000000000E+00 0. -1.
         21   -1    0    0  501  503 -0.00000000000E+00 -0.00000000000E+00 -0.40113342803E+03  0.40113342803E+03  0.00000000000E+00 0.  1.
          6    1    1    2  501    0 -0.30822725254E+02  0.12118731838E+03 -0.28405318034E+03  0.35483322250E+03  0.17200000000E+03 0. -1.
         -6    1    1    2    0  502  0.30822725254E+02 -0.12118731838E+03  0.56699665325E+02  0.22008011854E+03  0.17200000000E+03 0. -1.
<mgrwt>
<rscale>  2 0.21265090E+03</rscale>
<asrwt>0</asrwt>
<pdfrwt beam="1">  1       21 0.43444978E-01 0.21265090E+03</pdfrwt>
<pdfrwt beam="2">  1       21 0.10028336E+00 0.21265090E+03</pdfrwt>
<totfact> 0.40869247E+03</totfact>
</mgrwt>
</event>
<event>
 4    1  0.1116135E+000  0.1887323E+03  0.7546771E-02  0.1159610E+00
         21   -1    0    0  503  502  0.00000000000E+00  0.00000000000E+00  0.43390174658E+03  0.43390174658E+03  0.00000000000E+00 0.  1.
         21   -1    0    0  501  503 -0.00000000000E+00 -0.00000000000E+00 -0.11702295078E+03  0.11702295078E+03  0.00000000000E+00 0.  1.
          6    1    1    2  501    0 -0.77656462882E+02 -0.23166553299E+01  0.79411361698E+01  0.18889932441E+03  0.17200000000E+03 0.  1.
         -6    1    1    2    0  502  0.77656462882E+02  0.23166553299E+01  0.30893765963E+03  0.36202537294E+03  0.17200000000E+03 0.  1.
<mgrwt>
<rscale>  2 0.18873233E+03</rscale>
<asrwt>0</asrwt>
<pdfrwt beam="1">  1       21 0.10847543E+00 0.18873233E+03</pdfrwt>
<pdfrwt beam="2">  1       21 0.29255739E-01 0.18873233E+03</pdfrwt>
<totfact> 0.75813675E+03</totfact>
</mgrwt>
</event>
<event>
 4    1  0.1116135E+000  0.1838005E+03  0.7546771E-02  0.1164175E+00
         21   -1    0    0  501  502  0.00000000000E+00  0.00000000000E+00  0.90934433553E+03  0.90934433553E+03  0.00000000000E+00 0.  1.
         21   -1    0    0  502  503 -0.00000000000E+00 -0.00000000000E+00 -0.47571007708E+02  0.47571007708E+02  0.00000000000E+00 0.  1.
          6    1    1    2  501    0  0.60692006055E+02  0.22696306825E+02  0.65481845332E+03  0.68012487732E+03  0.17200000000E+03 0.  1.
         -6    1    1    2    0  503 -0.60692006055E+02 -0.22696306825E+02  0.20695487450E+03  0.27679046591E+03  0.17200000000E+03 0.  1.
<mgrwt>
<rscale>  2 0.18380055E+03</rscale>
<asrwt>0</asrwt>
<pdfrwt beam="1">  1       21 0.22733603E+00 0.18380055E+03</pdfrwt>
<pdfrwt beam="2">  1       21 0.11892755E-01 0.18380055E+03</pdfrwt>
<totfact> 0.54598082E+03</totfact>
</mgrwt>
</event>
<event>
 4    1  0.1116135E+000  0.3377143E+03  0.7546771E-02  0.1067774E+00
         21   -1    0    0  501  502  0.00000000000E+00  0.00000000000E+00  0.67652701207E+03  0.67652701207E+03  0.00000000000E+00 0. -1.
         21   -1    0    0  502  503 -0.00000000000E+00 -0.00000000000E+00 -0.28111688029E+03  0.28111688029E+03  0.00000000000E+00 0.  1.
          6    1    1    2  501    0  0.25363210239E+03  0.14190731254E+03  0.50065600446E+03  0.60391006244E+03  0.17200000000E+03 0. -1.
         -6    1    1    2    0  503 -0.25363210239E+03 -0.14190731254E+03 -0.10524587268E+03  0.35373382992E+03  0.17200000000E+03 0.  1.
<mgrwt>
<rscale>  2 0.33771427E+03</rscale>
<asrwt>0</asrwt>
<pdfrwt beam="1">  1       21 0.16913175E+00 0.33771427E+03</pdfrwt>
<pdfrwt beam="2">  1       21 0.70279221E-01 0.33771427E+03</pdfrwt>
<totfact> 0.34872503E+02</totfact>
</mgrwt>
</event>
<event>
 4    1  0.1116135E+000  0.2634705E+03  0.7546771E-02  0.1105076E+00
         21   -1    0    0  501  502  0.00000000000E+00  0.00000000000E+00  0.61985548964E+03  0.61985548964E+03  0.00000000000E+00 0. -1.
         21   -1    0    0  502  503 -0.00000000000E+00 -0.00000000000E+00 -0.12769979187E+03  0.12769979187E+03  0.00000000000E+00 0. -1.
          6    1    1    2  501    0  0.15542433728E+03  0.12520367688E+03  0.11497135650E+03  0.28746321180E+03  0.17200000000E+03 0. -1.
         -6    1    1    2    0  503 -0.15542433728E+03 -0.12520367688E+03  0.37718434126E+03  0.46009206972E+03  0.17200000000E+03 0. -1.
<mgrwt>
<rscale>  2 0.26347046E+03</rscale>
<asrwt>0</asrwt>
<pdfrwt beam="1">  1       21 0.15496386E+00 0.26347046E+03</pdfrwt>
<pdfrwt beam="2">  1       21 0.31924950E-01 0.26347046E+03</pdfrwt>
<totfact> 0.24424590E+03</totfact>
</mgrwt>
</event>
<event>
 4    1  0.1116135E+000  0.2340622E+03  0.7546771E-02  0.1123813E+00
         21   -1    0    0  501  502  0.00000000000E+00  0.00000000000E+00  0.10754935007E+03  0.10754935007E+03  0.00000000000E+00 0.  1.
         21   -1    0    0  502  503 -0.00000000000E+00 -0.00000000000E+00 -0.93631584642E+03  0.93631584642E+03  0.00000000000E+00 0. -1.
          6    1    1    2  501    0  0.15509734295E+03  0.33851820068E+02 -0.61950080761E+02  0.24212175453E+03  0.17200000000E+03 0.  1.
         -6    1    1    2    0  503 -0.15509734295E+03 -0.33851820068E+02 -0.76681641558E+03  0.80174344196E+03  0.17200000000E+03 0. -1.
<mgrwt>
<rscale>  2 0.23406224E+03</rscale>
<asrwt>0</asrwt>
<pdfrwt beam="1">  1       21 0.26887338E-01 0.23406224E+03</pdfrwt>
<pdfrwt beam="2">  1       21 0.23407896E+00 0.23406224E+03</pdfrwt>
<totfact> 0.10403749E+03</totfact>
</mgrwt>
</event>
<event>
 4    1  0.1116135E+000  0.1895683E+03  0.7546771E-02  0.1158851E+00
         21   -1    0    0  503  502  0.00000000000E+00  0.00000000000E+00  0.52416329923E+03  0.52416329923E+03  0.00000000000E+00 0. -1.
         21   -1    0    0  501  503 -0.00000000000E+00 -0.00000000000E+00 -0.18927188632E+03  0.18927188632E+03  0.00000000000E+00 0. -1.
          6    1    1    2  501    0  0.75835201081E+02  0.24518971814E+02 -0.11743178240E+03  0.22299412822E+03  0.17200000000E+03 0. -1.
         -6    1    1    2    0  502 -0.75835201081E+02 -0.24518971814E+02  0.45232319531E+03  0.49044105733E+03  0.17200000000E+03 0. -1.
<mgrwt>
<rscale>  2 0.18956835E+03</rscale>
<asrwt>0</asrwt>
<pdfrwt beam="1">  1       21 0.13104082E+00 0.18956835E+03</pdfrwt>
<pdfrwt beam="2">  1       21 0.47317973E-01 0.18956835E+03</pdfrwt>
<totfact> 0.18154348E+03</totfact>
</mgrwt>
</event>
<event>
 4    1  0.1116135E+000  0.2317907E+03  0.7546771E-02  0.1125386E+00
         21   -1    0    0  501  502  0.00000000000E+00  0.00000000000E+00  0.51116367696E+03  0.51116367696E+03  0.00000000000E+00 0. -1.
         21   -1    0    0  502  503 -0.00000000000E+00 -0.00000000000E+00 -0.12371429646E+03  0.12371429646E+03  0.00000000000E+00 0. -1.
          6    1    1    2  501    0 -0.40541779809E+02 -0.14999766432E+03  0.31683394743E+03  0.39256933840E+03  0.17200000000E+03 0. -1.
         -6    1    1    2    0  503  0.40541779809E+02  0.14999766432E+03  0.70615433069E+02  0.24230863501E+03  0.17200000000E+03 0. -1.
<mgrwt>
<rscale>  2 0.23179071E+03</rscale>
<asrwt>0</asrwt>
<pdfrwt beam="1">  1       21 0.12779091E+00 0.23179071E+03</pdfrwt>
<pdfrwt beam="2">  1       21 0.30928575E-01 0.23179071E+03</pdfrwt>
<totfact> 0.43949837E+03</totfact>
</mgrwt>
</event>
<event>
 4    1  0.1116135E+000  0.1942776E+03  0.7546771E-02  0.1154659E+00
         21   -1    0    0  503  502  0.00000000000E+00  0.00000000000E+00  0.53663596351E+03  0.53663596351E+03  0.00000000000E+00 0. -1.
         21   -1    0    0  501  503 -0.00000000000E+00 -0.00000000000E+00 -0.10197830816E+03  0.10197830816E+03  0.00000000000E+00 0. -1.
          6    1    1    2  501    0 -0.13264350623E+02 -0.89352281023E+02  0.39459002140E+02  0.19824425836E+03  0.17200000000E+03 0. -1.
         -6    1    1    2    0  502  0.13264350623E+02  0.89352281023E+02  0.39519865321E+03  0.44037001331E+03  0.17200000000E+03 0. -1.
<mgrwt>
<rscale>  2 0.19427757E+03</rscale>
<asrwt>0</asrwt>
<pdfrwt beam="1">  1       21 0.13415898E+00 0.19427757E+03</pdfrwt>
<pdfrwt beam="2">  1       21 0.25494578E-01 0.19427757E+03</pdfrwt>
<totfact> 0.58159641E+03</totfact>
</mgrwt>
</event>
<event>
 4    1  0.1116135E+000  0.2335917E+03  0.7546771E-02  0.1124137E+00
         21   -1    0    0  501  502  0.00000000000E+00  0.00000000000E+00  0.25756054220E+03  0.25756054220E+03  0.00000000000E+00 0. -1.
         21   -1    0    0  502  503 -0.00000000000E+00 -0.00000000000E+00 -0.22162074577E+03  0.22162074577E+03  0.00000000000E+00 0. -1.
          6    1    1    2  501    0 -0.13704240881E+03 -0.78742865614E+02  0.68268313240E+02  0.24336315105E+03  0.17200000000E+03 0. -1.
         -6    1    1    2    0  503  0.13704240881E+03  0.78742865614E+02 -0.32328516810E+02  0.23581813691E+03  0.17200000000E+03 0. -1.
<mgrwt>
<rscale>  2 0.23359165E+03</rscale>
<asrwt>0</asrwt>
<pdfrwt beam="1">  1       21 0.64390136E-01 0.23359165E+03</pdfrwt>
<pdfrwt beam="2">  1       21 0.55405186E-01 0.23359165E+03</pdfrwt>
<totfact> 0.66400768E+03</totfact>
</mgrwt>
</event>
<event>
 4    1  0.1116135E+000  0.2431200E+03  0.7546771E-02  0.1117732E+00
         21   -1    0    0  501  502  0.00000000000E+00  0.00000000000E+00  0.36201057919E+03  0.36201057919E+03  0.00000000000E+00 0.  1.
         21   -1    0    0  502  503 -0.00000000000E+00 -0.00000000000E+00 -0.22466989975E+03  0.22466989975E+03  0.00000000000E+00 0.  1.
          6    1    1    2  501    0  0.12194325784E+03 -0.12105027356E+03  0.22201365894E+03  0.32923759144E+03  0.17200000000E+03 0.  1.
         -6    1    1    2    0  503 -0.12194325784E+03  0.12105027356E+03 -0.84672979505E+02  0.25744288749E+03  0.17200000000E+03 0.  1.
<mgrwt>
<rscale>  2 0.24311998E+03</rscale>
<asrwt>0</asrwt>
<pdfrwt beam="1">  1       21 0.90502644E-01 0.24311998E+03</pdfrwt>
<pdfrwt beam="2">  1       21 0.56167475E-01 0.24311998E+03</pdfrwt>
<totfact> 0.29748331E+03</totfact>
</mgrwt>
</event>
<event>
 4    1  0.1116135E+000  0.1850560E+03  0.7546771E-02  0.1162998E+00
         21   -1    0    0  503  502  0.00000000000E+00  0.00000000000E+00  0.25055231128E+03  0.25055231128E+03  0.00000000000E+00 0. -1.
         21   -1    0    0  501  503 -0.00000000000E+00 -0.00000000000E+00 -0.58560850015E+03  0.58560850015E+03  0.00000000000E+00 0. -1.
          6    1    1    2  501    0  0.18560669988E+02 -0.65705560024E+02 -0.53358135037E+03  0.56476081357E+03  0.17200000000E+03 0. -1.
         -6    1    1    2    0  502 -0.18560669988E+02  0.65705560024E+02  0.19852516150E+03  0.27139999786E+03  0.17200000000E+03 0. -1.
<mgrwt>
<rscale>  2 0.18505599E+03</rscale>
<asrwt>0</asrwt>
<pdfrwt beam="1">  1       21 0.62638079E-01 0.18505599E+03</pdfrwt>
<pdfrwt beam="2">  1       21 0.14640212E+00 0.18505599E+03</pdfrwt>
<totfact> 0.75868618E+02</totfact>
</mgrwt>
</event>
<event>
 4    1  0.1116135E+000  0.2357158E+03  0.7546771E-02  0.1122680E+00
         21   -1    0    0  503  502  0.00000000000E+00  0.00000000000E+00  0.34310072279E+03  0.34310072279E+03  0.00000000000E+00 0.  1.
         21   -1    0    0  501  503 -0.00000000000E+00 -0.00000000000E+00 -0.16275929801E+03  0.16275929801E+03  0.00000000000E+00 0.  1.
          6    1    1    2  501    0 -0.28178545918E+02 -0.15869441442E+03  0.72232422207E+02  0.24653492742E+03  0.17200000000E+03 0.  1.
         -6    1    1    2    0  502  0.28178545918E+02  0.15869441442E+03  0.10810900257E+03  0.25932509338E+03  0.17200000000E+03 0.  1.
<mgrwt>
<rscale>  2 0.23571582E+03</rscale>
<asrwt>0</asrwt>
<pdfrwt beam="1">  1       21 0.85775179E-01 0.23571582E+03</pdfrwt>
<pdfrwt beam="2">  1       21 0.40689825E-01 0.23571582E+03</pdfrwt>
<totfact> 0.66265634E+03</totfact>
</mgrwt>
</event>
<event>
 4    1  0.1116135E+000  0.2081416E+03  0.7546771E-02  0.1143046E+00
         21   -1    0    0  501  502  0.00000000000E+00  0.00000000000E+00  0.18360596637E+03  0.18360596637E+03  0.00000000000E+00 0.  1.
         21   -1    0    0  502  503 -0.00000000000E+00 -0.00000000000E+00 -0.49779157432E+03  0.49779157432E+03  0.00000000000E+00 0.  1.
          6    1    1    2  501    0  0.24418360979E+01 -0.11718778450E+03  0.90000556629E+02  0.22676648693E+03  0.17200000000E+03 0.  1.
         -6    1    1    2    0  503 -0.24418360979E+01  0.11718778450E+03 -0.40418616458E+03  0.45463105376E+03  0.17200000000E+03 0.  1.
<mgrwt>
<rscale>  2 0.20814163E+03</rscale>
<asrwt>0</asrwt>
<pdfrwt beam="1">  1       21 0.45901492E-01 0.20814163E+03</pdfrwt>
<pdfrwt beam="2">  1       21 0.12444789E+00 0.20814163E+03</pdfrwt>
<totfact> 0.21637686E+03</totfact>
</mgrwt>
</event>
<event>
 4    1  0.1116135E+000  0.1809087E+03  0.7546771E-02  0.1166926E+00
         21   -1    0    0  503  502  0.00000000000E+00  0.00000000000E+00  0.45482534458E+02  0.45482534458E+02  0.00000000000E+00 0. -1.
         21   -1    0    0  501  503 -0.00000000000E+00 -0.00000000000E+00 -0.73564940461E+03  0.73564940461E+03  0.00000000000E+00 0. -1.
          6    1    1    2  501    0 -0.11141640876E+02 -0.54952956584E+02 -0.40282191538E+03  0.44158063715E+03  0.17200000000E+03 0. -1.
         -6    1    1    2    0  502  0.11141640876E+02  0.54952956584E+02 -0.28734495478E+03  0.33955130192E+03  0.17200000000E+03 0. -1.
<mgrwt>
<rscale>  2 0.18090872E+03</rscale>
<asrwt>0</asrwt>
<pdfrwt beam="1">  1       21 0.11370634E-01 0.18090872E+03</pdfrwt>
<pdfrwt beam="2">  1       21 0.18391234E+00 0.18090872E+03</pdfrwt>
<totfact> 0.11167276E+04</totfact>
</mgrwt>
</event>
<event>
 4    1  0.1116135E+000  0.1809535E+03  0.7546771E-02  0.1166883E+00
         21   -1    0    0  503  502  0.00000000000E+00  0.00000000000E+00  0.63703869689E+02  0.63703869689E+02  0.00000000000E+00 0. -1.
         21   -1    0    0  501  503 -0.00000000000E+00 -0.00000000000E+00 -0.78033612809E+03  0.78033612809E+03  0.00000000000E+00 0. -1.
          6    1    1    2  501    0 -0.51584779387E+02  0.22342254335E+02 -0.60486464561E+03  0.63135204546E+03  0.17200000000E+03 0. -1.
         -6    1    1    2    0  502  0.51584779387E+02 -0.22342254335E+02 -0.11176761279E+03  0.21268795232E+03  0.17200000000E+03 0. -1.
<mgrwt>
<rscale>  2 0.18095349E+03</rscale>
<asrwt>0</asrwt>
<pdfrwt beam="1">  1       21 0.15925967E-01 0.18095349E+03</pdfrwt>
<pdfrwt beam="2">  1       21 0.19508403E+00 0.18095349E+03</pdfrwt>
<totfact> 0.51357929E+03</totfact>
</mgrwt>
</event>
<event>
 4    1  0.1116135E+000  0.4474151E+03  0.7546771E-02  0.1028496E+00
         21   -1    0    0  501  502  0.00000000000E+00  0.00000000000E+00  0.18679485023E+03  0.18679485023E+03  0.00000000000E+00 0. -1.
         21   -1    0    0  502  503 -0.00000000000E+00 -0.00000000000E+00 -0.11208771494E+04  0.11208771494E+04  0.00000000000E+00 0.  1.
          6    1    1    2  501    0 -0.40485803894E+03  0.81769516810E+02 -0.33003036660E+03  0.55596792034E+03  0.17200000000E+03 0.  1.
         -6    1    1    2    0  503  0.40485803894E+03 -0.81769516810E+02 -0.60405193252E+03  0.75170407925E+03  0.17200000000E+03 0. -1.
<mgrwt>
<rscale>  2 0.44741512E+03</rscale>
<asrwt>0</asrwt>
<pdfrwt beam="1">  1       21 0.46698714E-01 0.44741512E+03</pdfrwt>
<pdfrwt beam="2">  1       21 0.28021928E+00 0.44741512E+03</pdfrwt>
<totfact> 0.15304597E+02</totfact>
</mgrwt>
</event>
<event>
 4    1  0.1116135E+000  0.1846621E+03  0.7546771E-02  0.1163366E+00
         21   -1    0    0  503  502  0.00000000000E+00  0.00000000000E+00  0.30979161443E+03  0.30979161443E+03  0.00000000000E+00 0. -1.
         21   -1    0    0  501  503 -0.00000000000E+00 -0.00000000000E+00 -0.24723974768E+03  0.24723974768E+03  0.00000000000E+00 0.  1.
          6    1    1    2  501    0  0.63801049145E+02  0.21106964726E+02 -0.17617383631E+03  0.25522009802E+03  0.17200000000E+03 0.  1.
         -6    1    1    2    0  502 -0.63801049145E+02 -0.21106964726E+02  0.23872570306E+03  0.30181126410E+03  0.17200000000E+03 0. -1.
<mgrwt>
<rscale>  2 0.18466206E+03</rscale>
<asrwt>0</asrwt>
<pdfrwt beam="1">  1       21 0.77447903E-01 0.18466206E+03</pdfrwt>
<pdfrwt beam="2">  1       21 0.61809937E-01 0.18466206E+03</pdfrwt>
<totfact> 0.36203407E+03</totfact>
</mgrwt>
</event>
<event>
 4    1  0.1116135E+000  0.2311188E+03  0.7546771E-02  0.1125855E+00
         21   -1    0    0  503  502  0.00000000000E+00  0.00000000000E+00  0.43983317182E+03  0.43983317182E+03  0.00000000000E+00 0.  1.
         21   -1    0    0  501  503 -0.00000000000E+00 -0.00000000000E+00 -0.12666790682E+03  0.12666790682E+03  0.00000000000E+00 0.  1.
          6    1    1    2  501    0  0.15376512995E+03  0.13717623907E+02  0.21409491583E+03  0.31504368170E+03  0.17200000000E+03 0.  1.
         -6    1    1    2    0  502 -0.15376512995E+03 -0.13717623907E+02  0.99070349168E+02  0.25145739695E+03  0.17200000000E+03 0.  1.
<mgrwt>
<rscale>  2 0.23111878E+03</rscale>
<asrwt>0</asrwt>
<pdfrwt beam="1">  1       21 0.10995829E+00 0.23111878E+03</pdfrwt>
<pdfrwt beam="2">  1       21 0.31666978E-01 0.23111878E+03</pdfrwt>
<totfact> 0.60934942E+03</totfact>
</mgrwt>
</event>
<event>
 4    1  0.1116135E+000  0.1854431E+03  0.7546771E-02  0.1162637E+00
         21   -1    0    0  503  502  0.00000000000E+00  0.00000000000E+00  0.23231728406E+03  0.23231728406E+03  0.00000000000E+00 0.  1.
         21   -1    0    0  501  503 -0.00000000000E+00 -0.00000000000E+00 -0.14956143969E+03  0.14956143969E+03  0.00000000000E+00 0.  1.
          6    1    1    2  501    0 -0.37757042399E+02  0.58133846686E+02  0.22035238439E+02  0.18674766428E+03  0.17200000000E+03 0.  1.
         -6    1    1    2    0  502  0.37757042399E+02 -0.58133846686E+02  0.60720605932E+02  0.19513105946E+03  0.17200000000E+03 0.  1.
<mgrwt>
<rscale>  2 0.18544309E+03</rscale>
<asrwt>0</asrwt>
<pdfrwt beam="1">  1       21 0.58079321E-01 0.18544309E+03</pdfrwt>
<pdfrwt beam="2">  1       21 0.37390360E-01 0.18544309E+03</pdfrwt>
<totfact> 0.19248146E+04</totfact>
</mgrwt>
</event>
<event>
 4    1  0.1116135E+000  0.2178928E+03  0.7546771E-02  0.1135464E+00
         21   -1    0    0  501  502  0.00000000000E+00  0.00000000000E+00  0.81761740715E+03  0.81761740715E+03  0.00000000000E+00 0. -1.
         21   -1    0    0  502  503 -0.00000000000E+00 -0.00000000000E+00 -0.10030939164E+03  0.10030939164E+03  0.00000000000E+00 0.  1.
          6    1    1    2  501    0 -0.13842061520E+02 -0.13304755200E+03  0.65649010427E+03  0.69170550870E+03  0.17200000000E+03 0. -1.
         -6    1    1    2    0  503  0.13842061520E+02  0.13304755200E+03  0.60817911241E+02  0.22622129009E+03  0.17200000000E+03 0.  1.
<mgrwt>
<rscale>  2 0.21789276E+03</rscale>
<asrwt>0</asrwt>
<pdfrwt beam="1">  1       21 0.20440433E+00 0.21789276E+03</pdfrwt>
<pdfrwt beam="2">  1       21 0.25077350E-01 0.21789276E+03</pdfrwt>
<totfact> 0.18472056E+03</totfact>
</mgrwt>
</event>
<event>
 4    1  0.1116135E+000  0.2064961E+03  0.7546771E-02  0.1144371E+00
         21   -1    0    0  503  502  0.00000000000E+00  0.00000000000E+00  0.20037115608E+03  0.20037115608E+03  0.00000000000E+00 0. -1.
         21   -1    0    0  501  503 -0.00000000000E+00 -0.00000000000E+00 -0.21773351388E+03  0.21773351388E+03  0.00000000000E+00 0.  1.
          6    1    1    2  501    0  0.11409271543E+03  0.62837740380E+01  0.22760626357E+02  0.20774667180E+03  0.17200000000E+03 0. -1.
         -6    1    1    2    0  502 -0.11409271543E+03 -0.62837740380E+01 -0.40122984152E+02  0.21035799816E+03  0.17200000000E+03 0.  1.
<mgrwt>
<rscale>  2 0.20649609E+03</rscale>
<asrwt>0</asrwt>
<pdfrwt beam="1">  1       21 0.50092789E-01 0.20649609E+03</pdfrwt>
<pdfrwt beam="2">  1       21 0.54433378E-01 0.20649609E+03</pdfrwt>
<totfact> 0.11991196E+04</totfact>
</mgrwt>
</event>
<event>
 4    1  0.1116135E+000  0.2039664E+03  0.7546771E-02  0.1146435E+00
         21   -1    0    0  503  502  0.00000000000E+00  0.00000000000E+00  0.32109375235E+03  0.32109375235E+03  0.00000000000E+00 0.  1.
         21   -1    0    0  501  503 -0.00000000000E+00 -0.00000000000E+00 -0.24650072043E+03  0.24650072043E+03  0.00000000000E+00 0.  1.
          6    1    1    2  501    0  0.68713534504E+02  0.85420969602E+02 -0.15817070415E+03  0.25810901480E+03  0.17200000000E+03 0.  1.
         -6    1    1    2    0  502 -0.68713534504E+02 -0.85420969602E+02  0.23276373607E+03  0.30948545798E+03  0.17200000000E+03 0.  1.
<mgrwt>
<rscale>  2 0.20396640E+03</rscale>
<asrwt>0</asrwt>
<pdfrwt beam="1">  1       21 0.80273438E-01 0.20396640E+03</pdfrwt>
<pdfrwt beam="2">  1       21 0.61625180E-01 0.20396640E+03</pdfrwt>
<totfact> 0.33075083E+03</totfact>
</mgrwt>
</event>
<event>
 4    1  0.1116135E+000  0.1932232E+03  0.7546771E-02  0.1155586E+00
         21   -1    0    0  501  502  0.00000000000E+00  0.00000000000E+00  0.32192054485E+03  0.32192054485E+03  0.00000000000E+00 0. -1.
         21   -1    0    0  502  503 -0.00000000000E+00 -0.00000000000E+00 -0.49208983058E+03  0.49208983058E+03  0.00000000000E+00 0. -1.
          6    1    1    2  501    0 -0.83852859180E+02  0.26831164407E+02  0.27074090062E+03  0.33261967568E+03  0.17200000000E+03 0. -1.
         -6    1    1    2    0  503  0.83852859180E+02 -0.26831164407E+02 -0.44091018636E+03  0.48139069976E+03  0.17200000000E+03 0. -1.
<mgrwt>
<rscale>  2 0.19322322E+03</rscale>
<asrwt>0</asrwt>
<pdfrwt beam="1">  1       21 0.80480137E-01 0.19322322E+03</pdfrwt>
<pdfrwt beam="2">  1       21 0.12302246E+00 0.19322322E+03</pdfrwt>
<totfact> 0.67319278E+02</totfact>
</mgrwt>
</event>
<event>
 4    1  0.1116135E+000  0.2588629E+03  0.7546771E-02  0.1107828E+00
         21   -1    0    0  501  502  0.00000000000E+00  0.00000000000E+00  0.25132537361E+03  0.25132537361E+03  0.00000000000E+00 0. -1.
         21   -1    0    0  502  503 -0.00000000000E+00 -0.00000000000E+00 -0.37868286638E+03  0.37868286638E+03  0.00000000000E+00 0.  1.
          6    1    1    2  501    0  0.89509774556E+02  0.17150514997E+03  0.10767617634E+03  0.28036436143E+03  0.17200000000E+03 0. -1.
         -6    1    1    2    0  503 -0.89509774556E+02 -0.17150514997E+03 -0.23503366911E+03  0.34964387857E+03  0.17200000000E+03 0.  1.
<mgrwt>
<rscale>  2 0.25886293E+03</rscale>
<asrwt>0</asrwt>
<pdfrwt beam="1">  1       21 0.62831344E-01 0.25886293E+03</pdfrwt>
<pdfrwt beam="2">  1       21 0.94670716E-01 0.25886293E+03</pdfrwt>
<totfact> 0.20788453E+03</totfact>
</mgrwt>
</event>
<event>
 4    1  0.1116135E+000  0.2276281E+03  0.7546771E-02  0.1128320E+00
         21   -1    0    0  503  502  0.00000000000E+00  0.00000000000E+00  0.68760246345E+02  0.68760246345E+02  0.00000000000E+00 0.  1.
         21   -1    0    0  501  503 -0.00000000000E+00 -0.00000000000E+00 -0.94301150275E+03  0.94301150275E+03  0.00000000000E+00 0.  1.
          6    1    1    2  501    0 -0.12727954150E+03 -0.77656001895E+02 -0.66387721504E+03  0.70181727890E+03  0.17200000000E+03 0.  1.
         -6    1    1    2    0  502  0.12727954150E+03  0.77656001895E+02 -0.21037404137E+03  0.30995447020E+03  0.17200000000E+03 0.  1.
<mgrwt>
<rscale>  2 0.22762807E+03</rscale>
<asrwt>0</asrwt>
<pdfrwt beam="1">  1       21 0.17190062E-01 0.22762807E+03</pdfrwt>
<pdfrwt beam="2">  1       21 0.23575288E+00 0.22762807E+03</pdfrwt>
<totfact> 0.23815617E+03</totfact>
</mgrwt>
</event>
<event>
 4    1  0.1116135E+000  0.1761762E+03  0.7546771E-02  0.1171556E+00
         21   -1    0    0  503  502  0.00000000000E+00  0.00000000000E+00  0.29909116084E+03  0.29909116084E+03  0.00000000000E+00 0. -1.
         21   -1    0    0  501  503 -0.00000000000E+00 -0.00000000000E+00 -0.23360214530E+03  0.23360214530E+03  0.00000000000E+00 0. -1.
          6    1    1    2  501    0 -0.16095099337E+02 -0.34568747144E+02 -0.16581575440E+03  0.24193576608E+03  0.17200000000E+03 0. -1.
         -6    1    1    2    0  502  0.16095099337E+02  0.34568747144E+02  0.23130476994E+03  0.29075754006E+03  0.17200000000E+03 0. -1.
<mgrwt>
<rscale>  2 0.17617619E+03</rscale>
<asrwt>0</asrwt>
<pdfrwt beam="1">  1       21 0.74772790E-01 0.17617619E+03</pdfrwt>
<pdfrwt beam="2">  1       21 0.58400536E-01 0.17617619E+03</pdfrwt>
<totfact> 0.44546026E+03</totfact>
</mgrwt>
</event>
<event>
 4    1  0.1116135E+000  0.2065417E+03  0.7546771E-02  0.1144334E+00
         21   -1    0    0  501  502  0.00000000000E+00  0.00000000000E+00  0.12209245720E+04  0.12209245720E+04  0.00000000000E+00 0.  1.
         21   -1    0    0  502  503 -0.00000000000E+00 -0.00000000000E+00 -0.81762532070E+02  0.81762532070E+02  0.00000000000E+00 0.  1.
          6    1    1    2  501    0 -0.48004219171E+02  0.10378384723E+03  0.10624811447E+04  0.10823703964E+04  0.17200000000E+03 0.  1.
         -6    1    1    2    0  503  0.48004219171E+02 -0.10378384723E+03  0.76680895185E+02  0.22031670770E+03  0.17200000000E+03 0.  1.
<mgrwt>
<rscale>  2 0.20654174E+03</rscale>
<asrwt>0</asrwt>
<pdfrwt beam="1">  1       21 0.30523108E+00 0.20654174E+03</pdfrwt>
<pdfrwt beam="2">  1       21 0.20440637E-01 0.20654174E+03</pdfrwt>
<totfact> 0.69255548E+02</totfact>
</mgrwt>
</event>
<event>
 4    1  0.1116135E+000  0.1873994E+03  0.7546771E-02  0.1160828E+00
         21   -1    0    0  501  502  0.00000000000E+00  0.00000000000E+00  0.11670240762E+03  0.11670240762E+03  0.00000000000E+00 0.  1.
         21   -1    0    0  502  503 -0.00000000000E+00 -0.00000000000E+00 -0.36435657819E+03  0.36435657819E+03  0.00000000000E+00 0. -1.
          6    1    1    2  501    0 -0.73918534887E+02 -0.84018141108E+01 -0.23466854594E+02  0.18886300205E+03  0.17200000000E+03 0.  1.
         -6    1    1    2    0  503  0.73918534887E+02  0.84018141108E+01 -0.22418731598E+03  0.29219598376E+03  0.17200000000E+03 0. -1.
<mgrwt>
<rscale>  2 0.18739941E+03</rscale>
<asrwt>0</asrwt>
<pdfrwt beam="1">  1       21 0.29175602E-01 0.18739941E+03</pdfrwt>
<pdfrwt beam="2">  1       21 0.91089144E-01 0.18739941E+03</pdfrwt>
<totfact> 0.11535241E+04</totfact>
</mgrwt>
</event>
<event>
 4    1  0.1116135E+000  0.1986538E+03  0.7546771E-02  0.1150880E+00
         21   -1    0    0  501  502  0.00000000000E+00  0.00000000000E+00  0.57224124866E+02  0.57224124866E+02  0.00000000000E+00 0.  1.
         21   -1    0    0  502  503 -0.00000000000E+00 -0.00000000000E+00 -0.77164056390E+03  0.77164056390E+03  0.00000000000E+00 0.  1.
          6    1    1    2  501    0  0.44039839262E+02  0.89105618581E+02 -0.22209801023E+03  0.29797792679E+03  0.17200000000E+03 0. -1.
         -6    1    1    2    0  503 -0.44039839262E+02 -0.89105618581E+02 -0.49231842880E+03  0.53088676197E+03  0.17200000000E+03 0. -1.
<mgrwt>
<rscale>  2 0.19865377E+03</rscale>
<asrwt>0</asrwt>
<pdfrwt beam="1">  1       21 0.14306031E-01 0.19865377E+03</pdfrwt>
<pdfrwt beam="2">  1       21 0.19291014E+00 0.19865377E+03</pdfrwt>
<totfact> 0.63478485E+03</totfact>
</mgrwt>
</event>
<event>
 4    1  0.1116135E+000  0.2019622E+03  0.7546771E-02  0.1148094E+00
         21   -1    0    0  503  502  0.00000000000E+00  0.00000000000E+00  0.33863270636E+03  0.33863270636E+03  0.00000000000E+00 0.  1.
         21   -1    0    0  501  503 -0.00000000000E+00 -0.00000000000E+00 -0.14484843556E+03  0.14484843556E+03  0.00000000000E+00 0.  1.
          6    1    1    2  501    0  0.10584559485E+03  0.11945855037E+01 -0.23195708261E+01  0.20197548711E+03  0.17200000000E+03 0.  1.
         -6    1    1    2    0  502 -0.10584559485E+03 -0.11945855037E+01  0.19610384163E+03  0.28150565480E+03  0.17200000000E+03 0.  1.
<mgrwt>
<rscale>  2 0.20196217E+03</rscale>
<asrwt>0</asrwt>
<pdfrwt beam="1">  1       21 0.84658175E-01 0.20196217E+03</pdfrwt>
<pdfrwt beam="2">  1       21 0.36212110E-01 0.20196217E+03</pdfrwt>
<totfact> 0.88349370E+03</totfact>
</mgrwt>
</event>
<event>
 4    1  0.1116135E+000  0.1926828E+03  0.7546771E-02  0.1156064E+00
         21   -1    0    0  501  502  0.00000000000E+00  0.00000000000E+00  0.15538585122E+03  0.15538585122E+03  0.00000000000E+00 0. -1.
         21   -1    0    0  502  503 -0.00000000000E+00 -0.00000000000E+00 -0.29376455348E+03  0.29376455348E+03  0.00000000000E+00 0.  1.
          6    1    1    2  501    0 -0.11748062822E+02  0.86050353298E+02  0.27834972477E+02  0.19468298841E+03  0.17200000000E+03 0.  1.
         -6    1    1    2    0  503  0.11748062822E+02 -0.86050353298E+02 -0.16621367474E+03  0.25446741629E+03  0.17200000000E+03 0.  1.
<mgrwt>
<rscale>  2 0.19268285E+03</rscale>
<asrwt>0</asrwt>
<pdfrwt beam="1">  1       21 0.38846463E-01 0.19268285E+03</pdfrwt>
<pdfrwt beam="2">  1       21 0.73441138E-01 0.19268285E+03</pdfrwt>
<totfact> 0.10646136E+04</totfact>
</mgrwt>
</event>
<event>
 4    1  0.1116135E+000  0.4483371E+03  0.7546771E-02  0.1028219E+00
         21   -1    0    0  503  502  0.00000000000E+00  0.00000000000E+00  0.18884458624E+03  0.18884458624E+03  0.00000000000E+00 0. -1.
         21   -1    0    0  501  503 -0.00000000000E+00 -0.00000000000E+00 -0.13560261067E+04  0.13560261067E+04  0.00000000000E+00 0.  1.
          6    1    1    2  501    0  0.36434145737E+03  0.19666590930E+03 -0.22537778409E+03  0.50179808988E+03  0.17200000000E+03 0.  1.
         -6    1    1    2    0  502 -0.36434145737E+03 -0.19666590930E+03 -0.94180373633E+03  0.10430726030E+04  0.17200000000E+03 0. -1.
<mgrwt>
<rscale>  2 0.44833712E+03</rscale>
<asrwt>0</asrwt>
<pdfrwt beam="1">  1       21 0.47211147E-01 0.44833712E+03</pdfrwt>
<pdfrwt beam="2">  1       21 0.33900652E+00 0.44833712E+03</pdfrwt>
<totfact> 0.66069616E+01</totfact>
</mgrwt>
</event>
<event>
 4    1  0.1116135E+000  0.1800293E+03  0.7546771E-02  0.1167775E+00
         21   -1    0    0  503  502  0.00000000000E+00  0.00000000000E+00  0.99611078328E+03  0.99611078328E+03  0.00000000000E+00 0. -1.
         21   -1    0    0  501  503 -0.00000000000E+00 -0.00000000000E+00 -0.44538703483E+02  0.44538703483E+02  0.00000000000E+00 0.  1.
          6    1    1    2  501    0  0.28150528311E+01 -0.53090795148E+02  0.20568558576E+03  0.27334431993E+03  0.17200000000E+03 0.  1.
         -6    1    1    2    0  502 -0.28150528311E+01  0.53090795148E+02  0.74588649404E+03  0.76730516683E+03  0.17200000000E+03 0. -1.
<mgrwt>
<rscale>  2 0.18002932E+03</rscale>
<asrwt>0</asrwt>
<pdfrwt beam="1">  1       21 0.24902762E+00 0.18002932E+03</pdfrwt>
<pdfrwt beam="2">  1       21 0.11134679E-01 0.18002932E+03</pdfrwt>
<totfact> 0.45804389E+03</totfact>
</mgrwt>
</event>
<event>
 4    1  0.1116135E+000  0.2295033E+03  0.7546771E-02  0.1126990E+00
         21   -1    0    0  501  502  0.00000000000E+00  0.00000000000E+00  0.11094383244E+03  0.11094383244E+03  0.00000000000E+00 0.  1.
         21   -1    0    0  502  503 -0.00000000000E+00 -0.00000000000E+00 -0.72573836508E+03  0.72573836508E+03  0.00000000000E+00 0. -1.
          6    1    1    2  501    0  0.14255026256E+03 -0.52603922307E+02 -0.61384186970E+02  0.23757055459E+03  0.17200000000E+03 0.  1.
         -6    1    1    2    0  503 -0.14255026256E+03  0.52603922307E+02 -0.55341034567E+03  0.59911164293E+03  0.17200000000E+03 0. -1.
<mgrwt>
<rscale>  2 0.22950327E+03</rscale>
<asrwt>0</asrwt>
<pdfrwt beam="1">  1       21 0.27735959E-01 0.22950327E+03</pdfrwt>
<pdfrwt beam="2">  1       21 0.18143459E+00 0.22950327E+03</pdfrwt>
<totfact> 0.21329831E+03</totfact>
</mgrwt>
</event>
<event>
 4    1  0.1116135E+000  0.1846134E+03  0.7546771E-02  0.1163411E+00
         21   -1    0    0  503  502  0.00000000000E+00  0.00000000000E+00  0.42024263139E+03  0.42024263139E+03  0.00000000000E+00 0.  1.
         21   -1    0    0  501  503 -0.00000000000E+00 -0.00000000000E+00 -0.23817142707E+03  0.23817142707E+03  0.00000000000E+00 0.  1.
          6    1    1    2  501    0 -0.48554371890E+02  0.46266387597E+02 -0.17630902238E+03  0.25527823452E+03  0.17200000000E+03 0.  1.
         -6    1    1    2    0  502  0.48554371890E+02 -0.46266387597E+02  0.35838022670E+03  0.40313582394E+03  0.17200000000E+03 0.  1.
<mgrwt>
<rscale>  2 0.18461340E+03</rscale>
<asrwt>0</asrwt>
<pdfrwt beam="1">  1       21 0.10506066E+00 0.18461340E+03</pdfrwt>
<pdfrwt beam="2">  1       21 0.59542857E-01 0.18461340E+03</pdfrwt>
<totfact> 0.19363108E+03</totfact>
</mgrwt>
</event>
<event>
 4    1  0.1116135E+000  0.2393171E+03  0.7546771E-02  0.1120249E+00
         21   -1    0    0  503  502  0.00000000000E+00  0.00000000000E+00  0.12178874702E+03  0.12178874702E+03  0.00000000000E+00 0.  1.
         21   -1    0    0  501  503 -0.00000000000E+00 -0.00000000000E+00 -0.74977899912E+03  0.74977899912E+03  0.00000000000E+00 0.  1.
          6    1    1    2  501    0  0.81905267820E+02  0.14484547843E+03 -0.58007266286E+03  0.62750058145E+03  0.17200000000E+03 0.  1.
         -6    1    1    2    0  502 -0.81905267820E+02 -0.14484547843E+03 -0.47917589238E+02  0.24406716469E+03  0.17200000000E+03 0.  1.
<mgrwt>
<rscale>  2 0.23931712E+03</rscale>
<asrwt>0</asrwt>
<pdfrwt beam="1">  1       21 0.30447187E-01 0.23931712E+03</pdfrwt>
<pdfrwt beam="2">  1       21 0.18744475E+00 0.23931712E+03</pdfrwt>
<totfact> 0.16057046E+03</totfact>
</mgrwt>
</event>
<event>
 4    1  0.1116135E+000  0.2384705E+03  0.7546771E-02  0.1120816E+00
         21   -1    0    0  501  502  0.00000000000E+00  0.00000000000E+00  0.62697283755E+02  0.62697283755E+02  0.00000000000E+00 0. -1.
         21   -1    0    0  502  503 -0.00000000000E+00 -0.00000000000E+00 -0.98310650148E+03  0.98310650148E+03  0.00000000000E+00 0.  1.
          6    1    1    2  501    0  0.15221615712E+03  0.64143566008E+02 -0.31474160260E+03  0.39488027547E+03  0.17200000000E+03 0. -1.
         -6    1    1    2    0  503 -0.15221615712E+03 -0.64143566008E+02 -0.60566761513E+03  0.65092350977E+03  0.17200000000E+03 0.  1.
<mgrwt>
<rscale>  2 0.23847045E+03</rscale>
<asrwt>0</asrwt>
<pdfrwt beam="1">  1       21 0.15674321E-01 0.23847045E+03</pdfrwt>
<pdfrwt beam="2">  1       21 0.24577663E+00 0.23847045E+03</pdfrwt>
<totfact> 0.24333005E+03</totfact>
</mgrwt>
</event>
<event>
 4    1  0.1116135E+000  0.1844620E+03  0.7546771E-02  0.1163553E+00
         21   -1    0    0  503  502  0.00000000000E+00  0.00000000000E+00  0.25998788286E+03  0.25998788286E+03  0.00000000000E+00 0. -1.
         21   -1    0    0  501  503 -0.00000000000E+00 -0.00000000000E+00 -0.14107483523E+03  0.14107483523E+03  0.00000000000E+00 0. -1.
          6    1    1    2  501    0  0.39059612712E+02  0.54005300000E+02  0.11337387916E+03  0.21651757954E+03  0.17200000000E+03 0. -1.
         -6    1    1    2    0  502 -0.39059612712E+02 -0.54005300000E+02  0.55391684696E+01  0.18454513855E+03  0.17200000000E+03 0. -1.
<mgrwt>
<rscale>  2 0.18446199E+03</rscale>
<asrwt>0</asrwt>
<pdfrwt beam="1">  1       21 0.64996970E-01 0.18446199E+03</pdfrwt>
<pdfrwt beam="2">  1       21 0.35268709E-01 0.18446199E+03</pdfrwt>
<totfact> 0.16980072E+04</totfact>
</mgrwt>
</event>
<event>
 4    1  0.1116135E+000  0.1898910E+03  0.7546771E-02  0.1158560E+00
         21   -1    0    0  501  502  0.00000000000E+00  0.00000000000E+00  0.18893499564E+03  0.18893499564E+03  0.00000000000E+00 0.  1.
         21   -1    0    0  502  503 -0.00000000000E+00 -0.00000000000E+00 -0.32792762064E+03  0.32792762064E+03  0.00000000000E+00 0. -1.
          6    1    1    2  501    0  0.79548137917E+02  0.12111624596E+02  0.97588293709E+02  0.21349958493E+03  0.17200000000E+03 0.  1.
         -6    1    1    2    0  503 -0.79548137917E+02 -0.12111624596E+02 -0.23658091871E+03  0.30336303136E+03  0.17200000000E+03 0. -1.
<mgrwt>
<rscale>  2 0.18989102E+03</rscale>
<asrwt>0</asrwt>
<pdfrwt beam="1">  1       21 0.47233749E-01 0.18989102E+03</pdfrwt>
<pdfrwt beam="2">  1       21 0.81981904E-01 0.18989102E+03</pdfrwt>
<totfact> 0.55920143E+03</totfact>
</mgrwt>
</event>
<event>
 4    1  0.1116135E+000  0.2109926E+03  0.7546771E-02  0.1140782E+00
         21   -1    0    0  501  502  0.00000000000E+00  0.00000000000E+00  0.21185385364E+03  0.21185385364E+03  0.00000000000E+00 0.  1.
         21   -1    0    0  502  503 -0.00000000000E+00 -0.00000000000E+00 -0.26258229716E+03  0.26258229716E+03  0.00000000000E+00 0.  1.
          6    1    1    2  501    0 -0.60558585527E+02 -0.10614402255E+03  0.80653112690E+02  0.22588231535E+03  0.17200000000E+03 0.  1.
         -6    1    1    2    0  503  0.60558585527E+02  0.10614402255E+03 -0.13138155620E+03  0.24855383544E+03  0.17200000000E+03 0.  1.
<mgrwt>
<rscale>  2 0.21099264E+03</rscale>
<asrwt>0</asrwt>
<pdfrwt beam="1">  1       21 0.52963464E-01 0.21099264E+03</pdfrwt>
<pdfrwt beam="2">  1       21 0.65645574E-01 0.21099264E+03</pdfrwt>
<totfact> 0.71098703E+03</totfact>
</mgrwt>
</event>
<event>
 4    1  0.1116135E+000  0.2395673E+03  0.7546771E-02  0.1120081E+00
         21   -1    0    0  501  502  0.00000000000E+00  0.00000000000E+00  0.27341582082E+03  0.27341582082E+03  0.00000000000E+00 0. -1.
         21   -1    0    0  502  503 -0.00000000000E+00 -0.00000000000E+00 -0.21054389428E+03  0.21054389428E+03  0.00000000000E+00 0.  1.
          6    1    1    2  501    0 -0.84771207990E+02 -0.14360473119E+03  0.44722592639E+02  0.24370594333E+03  0.17200000000E+03 0. -1.
         -6    1    1    2    0  503  0.84771207990E+02  0.14360473119E+03  0.18149333902E+02  0.24025377176E+03  0.17200000000E+03 0. -1.
<mgrwt>
<rscale>  2 0.23956727E+03</rscale>
<asrwt>0</asrwt>
<pdfrwt beam="1">  1       21 0.68353955E-01 0.23956727E+03</pdfrwt>
<pdfrwt beam="2">  1       21 0.52635974E-01 0.23956727E+03</pdfrwt>
<totfact> 0.64686457E+03</totfact>
</mgrwt>
</event>
<event>
 4    1  0.1116135E+000  0.1948928E+03  0.7546771E-02  0.1154121E+00
         21   -1    0    0  501  502  0.00000000000E+00  0.00000000000E+00  0.66735037801E+03  0.66735037801E+03  0.00000000000E+00 0.  1.
         21   -1    0    0  502  503 -0.00000000000E+00 -0.00000000000E+00 -0.62595996118E+02  0.62595996118E+02  0.00000000000E+00 0. -1.
          6    1    1    2  501    0 -0.85852063254E+02  0.32072295526E+02  0.41231442691E+03  0.45605525493E+03  0.17200000000E+03 0.  1.
         -6    1    1    2    0  503  0.85852063254E+02 -0.32072295526E+02  0.19243995498E+03  0.27389111920E+03  0.17200000000E+03 0. -1.
<mgrwt>
<rscale>  2 0.19489281E+03</rscale>
<asrwt>0</asrwt>
<pdfrwt beam="1">  1       21 0.16683757E+00 0.19489281E+03</pdfrwt>
<pdfrwt beam="2">  1       21 0.15649001E-01 0.19489281E+03</pdfrwt>
<totfact> 0.81431288E+03</totfact>
</mgrwt>
</event>
<event>
 4    1  0.1116135E+000  0.1916921E+03  0.7546771E-02  0.1156944E+00
         21   -1    0    0  501  502  0.00000000000E+00  0.00000000000E+00  0.32407046293E+03  0.32407046293E+03  0.00000000000E+00 0.  1.
         21   -1    0    0  502  503 -0.00000000000E+00 -0.00000000000E+00 -0.30683537922E+03  0.30683537922E+03  0.00000000000E+00 0. -1.
          6    1    1    2  501    0  0.48974853906E+02  0.69016953849E+02  0.25909154499E+03  0.32229536906E+03  0.17200000000E+03 0.  1.
         -6    1    1    2    0  503 -0.48974853906E+02 -0.69016953849E+02 -0.24185646128E+03  0.30861047309E+03  0.17200000000E+03 0. -1.
<mgrwt>
<rscale>  2 0.19169214E+03</rscale>
<asrwt>0</asrwt>
<pdfrwt beam="1">  1       21 0.81017616E-01 0.19169214E+03</pdfrwt>
<pdfrwt beam="2">  1       21 0.76708845E-01 0.19169214E+03</pdfrwt>
<totfact> 0.20224482E+03</totfact>
</mgrwt>
</event>
<event>
 4    1  0.1116135E+000  0.2614050E+03  0.7546771E-02  0.1106302E+00
         21   -1    0    0  503  502  0.00000000000E+00  0.00000000000E+00  0.19329922629E+03  0.19329922629E+03  0.00000000000E+00 0.  1.
         21   -1    0    0  501  503 -0.00000000000E+00 -0.00000000000E+00 -0.10052540335E+04  0.10052540335E+04  0.00000000000E+00 0. -1.
          6    1    1    2  501    0  0.42678555217E+02  0.19216423283E+03 -0.88851271031E+03  0.92616812073E+03  0.17200000000E+03 0. -1.
         -6    1    1    2    0  502 -0.42678555217E+02 -0.19216423283E+03  0.76557903106E+02  0.27238513907E+03  0.17200000000E+03 0.  1.
<mgrwt>
<rscale>  2 0.26140496E+03</rscale>
<asrwt>0</asrwt>
<pdfrwt beam="1">  1       21 0.48324807E-01 0.26140496E+03</pdfrwt>
<pdfrwt beam="2">  1       21 0.25131351E+00 0.26140496E+03</pdfrwt>
<totfact> 0.24578166E+02</totfact>
</mgrwt>
</event>
<event>
 4    1  0.1116135E+000  0.2412402E+03  0.7546771E-02  0.1118969E+00
         21   -1    0    0  503  502  0.00000000000E+00  0.00000000000E+00  0.78627606455E+03  0.78627606455E+03  0.00000000000E+00 0.  1.
         21   -1    0    0  501  503 -0.00000000000E+00 -0.00000000000E+00 -0.75189775817E+02  0.75189775817E+02  0.00000000000E+00 0.  1.
          6    1    1    2  501    0  0.15544916250E+03 -0.66696337969E+02  0.40936519027E+03  0.47515966014E+03  0.17200000000E+03 0.  1.
         -6    1    1    2    0  502 -0.15544916250E+03  0.66696337969E+02  0.30172109846E+03  0.38630618022E+03  0.17200000000E+03 0.  1.
<mgrwt>
<rscale>  2 0.24124022E+03</rscale>
<asrwt>0</asrwt>
<pdfrwt beam="1">  1       21 0.19656899E+00 0.24124022E+03</pdfrwt>
<pdfrwt beam="2">  1       21 0.18797446E-01 0.24124022E+03</pdfrwt>
<totfact> 0.35076783E+03</totfact>
</mgrwt>
</event>
<event>
 4    1  0.1116135E+000  0.2250722E+03  0.7546771E-02  0.1130157E+00
         21   -1    0    0  501  502  0.00000000000E+00  0.00000000000E+00  0.21892780727E+03  0.21892780727E+03  0.00000000000E+00 0.  1.
         21   -1    0    0  502  503 -0.00000000000E+00 -0.00000000000E+00 -0.23844363782E+03  0.23844363782E+03  0.00000000000E+00 0.  1.
          6    1    1    2  501    0 -0.13280737264E+03 -0.58614935376E+02 -0.49093026475E+02  0.23036413376E+03  0.17200000000E+03 0.  1.
         -6    1    1    2    0  503  0.13280737264E+03  0.58614935376E+02  0.29577195928E+02  0.22700731133E+03  0.17200000000E+03 0.  1.
<mgrwt>
<rscale>  2 0.22507223E+03</rscale>
<asrwt>0</asrwt>
<pdfrwt beam="1">  1       21 0.54731952E-01 0.22507223E+03</pdfrwt>
<pdfrwt beam="2">  1       21 0.59610909E-01 0.22507223E+03</pdfrwt>
<totfact> 0.80994151E+03</totfact>
</mgrwt>
</event>
<event>
 4    1  0.1116135E+000  0.2592173E+03  0.7546771E-02  0.1107614E+00
         21   -1    0    0  503  502  0.00000000000E+00  0.00000000000E+00  0.51115894939E+03  0.51115894939E+03  0.00000000000E+00 0. -1.
         21   -1    0    0  501  503 -0.00000000000E+00 -0.00000000000E+00 -0.21906160135E+03  0.21906160135E+03  0.00000000000E+00 0. -1.
          6    1    1    2  501    0  0.18370417961E+03  0.62148063786E+02 -0.84845611446E+02  0.27274967501E+03  0.17200000000E+03 0. -1.
         -6    1    1    2    0  502 -0.18370417961E+03 -0.62148063786E+02  0.37694295948E+03  0.45747087573E+03  0.17200000000E+03 0. -1.
<mgrwt>
<rscale>  2 0.25921730E+03</rscale>
<asrwt>0</asrwt>
<pdfrwt beam="1">  1       21 0.12778974E+00 0.25921730E+03</pdfrwt>
<pdfrwt beam="2">  1       21 0.54765401E-01 0.25921730E+03</pdfrwt>
<totfact> 0.13414437E+03</totfact>
</mgrwt>
</event>
<event>
 4    1  0.1116135E+000  0.2151257E+03  0.7546771E-02  0.1137570E+00
         21   -1    0    0  501  502  0.00000000000E+00  0.00000000000E+00  0.31584522949E+03  0.31584522949E+03  0.00000000000E+00 0. -1.
         21   -1    0    0  502  503 -0.00000000000E+00 -0.00000000000E+00 -0.15184520077E+03  0.15184520077E+03  0.00000000000E+00 0. -1.
          6    1    1    2  501    0 -0.10026778438E+03  0.81495095137E+02  0.12577343239E+03  0.24919477404E+03  0.17200000000E+03 0. -1.
         -6    1    1    2    0  503  0.10026778438E+03 -0.81495095137E+02  0.38226596330E+02  0.21849565621E+03  0.17200000000E+03 0. -1.
<mgrwt>
<rscale>  2 0.21512573E+03</rscale>
<asrwt>0</asrwt>
<pdfrwt beam="1">  1       21 0.78961306E-01 0.21512573E+03</pdfrwt>
<pdfrwt beam="2">  1       21 0.37961301E-01 0.21512573E+03</pdfrwt>
<totfact> 0.93347315E+03</totfact>
</mgrwt>
</event>
<event>
 4    1  0.1116135E+000  0.1722469E+03  0.7546771E-02  0.1175525E+00
         21   -1    0    0  503  502  0.00000000000E+00  0.00000000000E+00  0.71579660736E+03  0.71579660736E+03  0.00000000000E+00 0.  1.
         21   -1    0    0  501  503 -0.00000000000E+00 -0.00000000000E+00 -0.43675111726E+02  0.43675111726E+02  0.00000000000E+00 0.  1.
          6    1    1    2  501    0 -0.61512036501E+01 -0.68666793981E+01  0.25032796261E+03  0.30386358363E+03  0.17200000000E+03 0.  1.
         -6    1    1    2    0  502  0.61512036501E+01  0.68666793981E+01  0.42179353302E+03  0.45560813545E+03  0.17200000000E+03 0.  1.
<mgrwt>
<rscale>  2 0.17224688E+03</rscale>
<asrwt>0</asrwt>
<pdfrwt beam="1">  1       21 0.17894911E+00 0.17224688E+03</pdfrwt>
<pdfrwt beam="2">  1       21 0.10918780E-01 0.17224688E+03</pdfrwt>
<totfact> 0.13056487E+04</totfact>
</mgrwt>
</event>
<event>
 4    1  0.1116135E+000  0.1729653E+03  0.7546771E-02  0.1174790E+00
         21   -1    0    0  501  502  0.00000000000E+00  0.00000000000E+00  0.54667540531E+02  0.54667540531E+02  0.00000000000E+00 0.  1.
         21   -1    0    0  502  503 -0.00000000000E+00 -0.00000000000E+00 -0.63142118515E+03  0.63142118515E+03  0.00000000000E+00 0.  1.
          6    1    1    2  501    0  0.15316463922E+02  0.99198715673E+01 -0.16313088745E+03  0.23775761683E+03  0.17200000000E+03 0.  1.
         -6    1    1    2    0  503 -0.15316463922E+02 -0.99198715673E+01 -0.41362275716E+03  0.44833110885E+03  0.17200000000E+03 0.  1.
<mgrwt>
<rscale>  2 0.17296531E+03</rscale>
<asrwt>0</asrwt>
<pdfrwt beam="1">  1       21 0.13666885E-01 0.17296531E+03</pdfrwt>
<pdfrwt beam="2">  1       21 0.15785530E+00 0.17296531E+03</pdfrwt>
<totfact> 0.12306228E+04</totfact>
</mgrwt>
</event>
<event>
 4    1  0.1116135E+000  0.1768289E+03  0.7546771E-02  0.1170908E+00
         21   -1    0    0  503  502  0.00000000000E+00  0.00000000000E+00  0.16452930314E+03  0.16452930314E+03  0.00000000000E+00 0. -1.
         21   -1    0    0  501  503 -0.00000000000E+00 -0.00000000000E+00 -0.21399541908E+03  0.21399541908E+03  0.00000000000E+00 0. -1.
          6    1    1    2  501    0 -0.31129788398E+02 -0.26747133484E+02 -0.88045773149E+02  0.19753615123E+03  0.17200000000E+03 0. -1.
         -6    1    1    2    0  502  0.31129788398E+02  0.26747133484E+02  0.38579657213E+02  0.18098857098E+03  0.17200000000E+03 0. -1.
<mgrwt>
<rscale>  2 0.17682894E+03</rscale>
<asrwt>0</asrwt>
<pdfrwt beam="1">  1       21 0.41132326E-01 0.17682894E+03</pdfrwt>
<pdfrwt beam="2">  1       21 0.53498854E-01 0.17682894E+03</pdfrwt>
<totfact> 0.19006215E+04</totfact>
</mgrwt>
</event>
<event>
 4    1  0.1116135E+000  0.2697649E+03  0.7546771E-02  0.1101414E+00
         21   -1    0    0  501  502  0.00000000000E+00  0.00000000000E+00  0.56337843430E+03  0.56337843430E+03  0.00000000000E+00 0. -1.
         21   -1    0    0  502  503 -0.00000000000E+00 -0.00000000000E+00 -0.24175522055E+03  0.24175522055E+03  0.00000000000E+00 0. -1.
          6    1    1    2  501    0  0.20744385345E+03 -0.12495608477E+02  0.43552865408E+03  0.51230684271E+03  0.17200000000E+03 0. -1.
         -6    1    1    2    0  503 -0.20744385345E+03  0.12495608477E+02 -0.11390544033E+03  0.29282681213E+03  0.17200000000E+03 0. -1.
<mgrwt>
<rscale>  2 0.26976488E+03</rscale>
<asrwt>0</asrwt>
<pdfrwt beam="1">  1       21 0.14084461E+00 0.26976488E+03</pdfrwt>
<pdfrwt beam="2">  1       21 0.60438806E-01 0.26976488E+03</pdfrwt>
<totfact> 0.83819266E+02</totfact>
</mgrwt>
</event>
<event>
 4    1  0.1116135E+000  0.2289533E+03  0.7546771E-02  0.1127379E+00
         21   -1    0    0  501  502  0.00000000000E+00  0.00000000000E+00  0.15704003283E+03  0.15704003283E+03  0.00000000000E+00 0. -1.
         21   -1    0    0  502  503 -0.00000000000E+00 -0.00000000000E+00 -0.72808688009E+03  0.72808688009E+03  0.00000000000E+00 0. -1.
          6    1    1    2  501    0 -0.10461670659E+03 -0.10904571662E+03  0.40156734959E+02  0.23244824580E+03  0.17200000000E+03 0. -1.
         -6    1    1    2    0  503  0.10461670659E+03  0.10904571662E+03 -0.61120358222E+03  0.65267866713E+03  0.17200000000E+03 0. -1.
<mgrwt>
<rscale>  2 0.22895332E+03</rscale>
<asrwt>0</asrwt>
<pdfrwt beam="1">  1       21 0.39260009E-01 0.22895332E+03</pdfrwt>
<pdfrwt beam="2">  1       21 0.18202172E+00 0.22895332E+03</pdfrwt>
<totfact> 0.10627487E+03</totfact>
</mgrwt>
</event>
<event>
 4    1  0.1116135E+000  0.1984849E+03  0.7546771E-02  0.1151024E+00
         21   -1    0    0  501  502  0.00000000000E+00  0.00000000000E+00  0.13118014430E+03  0.13118014430E+03  0.00000000000E+00 0.  1.
         21   -1    0    0  502  503 -0.00000000000E+00 -0.00000000000E+00 -0.30133015430E+03  0.30133015430E+03  0.00000000000E+00 0.  1.
          6    1    1    2  501    0 -0.78880232585E+02 -0.59917944150E+02 -0.72564884830E+02  0.21133365476E+03  0.17200000000E+03 0.  1.
         -6    1    1    2    0  503  0.78880232585E+02  0.59917944150E+02 -0.97585125173E+02  0.22117664384E+03  0.17200000000E+03 0.  1.
<mgrwt>
<rscale>  2 0.19848489E+03</rscale>
<asrwt>0</asrwt>
<pdfrwt beam="1">  1       21 0.32795036E-01 0.19848489E+03</pdfrwt>
<pdfrwt beam="2">  1       21 0.75332538E-01 0.19848489E+03</pdfrwt>
<totfact> 0.14036104E+04</totfact>
</mgrwt>
</event>
<event>
 4    1  0.1116135E+000  0.1761211E+03  0.7546771E-02  0.1171611E+00
         21   -1    0    0  501  502  0.00000000000E+00  0.00000000000E+00  0.11866862207E+04  0.11866862207E+04  0.00000000000E+00 0.  1.
         21   -1    0    0  502  503 -0.00000000000E+00 -0.00000000000E+00 -0.57945414484E+02  0.57945414484E+02  0.00000000000E+00 0.  1.
          6    1    1    2  501    0  0.30309080531E+02 -0.22715472130E+02  0.10254326574E+04  0.10404473884E+04  0.17200000000E+03 0.  1.
         -6    1    1    2    0  503 -0.30309080531E+02  0.22715472130E+02  0.10330814876E+03  0.20418424679E+03  0.17200000000E+03 0.  1.
<mgrwt>
<rscale>  2 0.17612107E+03</rscale>
<asrwt>0</asrwt>
<pdfrwt beam="1">  1       21 0.29667148E+00 0.17612107E+03</pdfrwt>
<pdfrwt beam="2">  1       21 0.14486357E-01 0.17612107E+03</pdfrwt>
<totfact> 0.15247409E+03</totfact>
</mgrwt>
</event>
<event>
 4    1  0.1116135E+000  0.1746507E+03  0.7546771E-02  0.1173083E+00
         21   -1    0    0  503  502  0.00000000000E+00  0.00000000000E+00  0.89636546616E+02  0.89636546616E+02  0.00000000000E+00 0.  1.
         21   -1    0    0  501  503 -0.00000000000E+00 -0.00000000000E+00 -0.53221240064E+03  0.53221240064E+03  0.00000000000E+00 0.  1.
          6    1    1    2  501    0  0.21888315195E+02 -0.20970585309E+02 -0.40799881763E+03  0.44380840346E+03  0.17200000000E+03 0.  1.
         -6    1    1    2    0  502 -0.21888315195E+02  0.20970585309E+02 -0.34577036391E+02  0.17804054380E+03  0.17200000000E+03 0.  1.
<mgrwt>
<rscale>  2 0.17465069E+03</rscale>
<asrwt>0</asrwt>
<pdfrwt beam="1">  1       21 0.22409137E-01 0.17465069E+03</pdfrwt>
<pdfrwt beam="2">  1       21 0.13305310E+00 0.17465069E+03</pdfrwt>
<totfact> 0.77078663E+03</totfact>
</mgrwt>
</event>
<event>
 4    1  0.1116135E+000  0.2061743E+03  0.7546771E-02  0.1144632E+00
         21   -1    0    0  501  502  0.00000000000E+00  0.00000000000E+00  0.62213048212E+03  0.62213048212E+03  0.00000000000E+00 0.  1.
         21   -1    0    0  502  503 -0.00000000000E+00 -0.00000000000E+00 -0.71758861973E+02  0.71758861973E+02  0.00000000000E+00 0. -1.
          6    1    1    2  501    0  0.11348322476E+03  0.67367925411E+01  0.35106740540E+03  0.40713161239E+03  0.17200000000E+03 0.  1.
         -6    1    1    2    0  503 -0.11348322476E+03 -0.67367925411E+01  0.19930421475E+03  0.28675773171E+03  0.17200000000E+03 0.  1.
<mgrwt>
<rscale>  2 0.20617426E+03</rscale>
<asrwt>0</asrwt>
<pdfrwt beam="1">  1       21 0.15553260E+00 0.20617426E+03</pdfrwt>
<pdfrwt beam="2">  1       21 0.17939717E-01 0.20617426E+03</pdfrwt>
<totfact> 0.75905647E+03</totfact>
</mgrwt>
</event>
<event>
 4    1  0.1116135E+000  0.1776839E+03  0.7546771E-02  0.1170064E+00
         21   -1    0    0  503  502  0.00000000000E+00  0.00000000000E+00  0.24457553463E+03  0.24457553463E+03  0.00000000000E+00 0.  1.
         21   -1    0    0  501  503 -0.00000000000E+00 -0.00000000000E+00 -0.20314643557E+03  0.20314643557E+03  0.00000000000E+00 0.  1.
          6    1    1    2  501    0 -0.55413693095E+01  0.44236615074E+02 -0.11445014048E+03  0.21135377816E+03  0.17200000000E+03 0.  1.
         -6    1    1    2    0  502  0.55413693095E+01 -0.44236615074E+02  0.15587923954E+03  0.23636819204E+03  0.17200000000E+03 0.  1.
<mgrwt>
<rscale>  2 0.17768395E+03</rscale>
<asrwt>0</asrwt>
<pdfrwt beam="1">  1       21 0.61143883E-01 0.17768395E+03</pdfrwt>
<pdfrwt beam="2">  1       21 0.50786609E-01 0.17768395E+03</pdfrwt>
<totfact> 0.92744041E+03</totfact>
</mgrwt>
</event>
<event>
 4    1  0.1116135E+000  0.1832341E+03  0.7546771E-02  0.1164709E+00
         21   -1    0    0  503  502  0.00000000000E+00  0.00000000000E+00  0.79115935910E+02  0.79115935910E+02  0.00000000000E+00 0. -1.
         21   -1    0    0  501  503 -0.00000000000E+00 -0.00000000000E+00 -0.55315355888E+03  0.55315355888E+03  0.00000000000E+00 0. -1.
          6    1    1    2  501    0 -0.26926679172E+02  0.57146072904E+02 -0.38955518211E+03  0.43049733984E+03  0.17200000000E+03 0. -1.
         -6    1    1    2    0  502  0.26926679172E+02 -0.57146072904E+02 -0.84482440858E+02  0.20177215495E+03  0.17200000000E+03 0. -1.
<mgrwt>
<rscale>  2 0.18323406E+03</rscale>
<asrwt>0</asrwt>
<pdfrwt beam="1">  1       21 0.19778984E-01 0.18323406E+03</pdfrwt>
<pdfrwt beam="2">  1       21 0.13828839E+00 0.18323406E+03</pdfrwt>
<totfact> 0.87677696E+03</totfact>
</mgrwt>
</event>
<event>
 4    1  0.1116135E+000  0.1962566E+03  0.7546771E-02  0.1152936E+00
         21   -1    0    0  503  502  0.00000000000E+00  0.00000000000E+00  0.87659840811E+02  0.87659840811E+02  0.00000000000E+00 0.  1.
         21   -1    0    0  501  503 -0.00000000000E+00 -0.00000000000E+00 -0.10032974188E+04  0.10032974188E+04  0.00000000000E+00 0.  1.
          6    1    1    2  501    0 -0.90070465038E+02 -0.28634713487E+02 -0.86676649150E+03  0.88870736819E+03  0.17200000000E+03 0.  1.
         -6    1    1    2    0  502  0.90070465038E+02  0.28634713487E+02 -0.48871086500E+02  0.20224989143E+03  0.17200000000E+03 0.  1.
<mgrwt>
<rscale>  2 0.19625656E+03</rscale>
<asrwt>0</asrwt>
<pdfrwt beam="1">  1       21 0.21914960E-01 0.19625656E+03</pdfrwt>
<pdfrwt beam="2">  1       21 0.25082435E+00 0.19625656E+03</pdfrwt>
<totfact> 0.12730676E+03</totfact>
</mgrwt>
</event>
<event>
 4    1  0.1116135E+000  0.2644345E+03  0.7546771E-02  0.1104508E+00
         21   -1    0    0  501  502  0.00000000000E+00  0.00000000000E+00  0.39996750283E+03  0.39996750283E+03  0.00000000000E+00 0.  1.
         21   -1    0    0  502  503 -0.00000000000E+00 -0.00000000000E+00 -0.31673105776E+03  0.31673105776E+03  0.00000000000E+00 0.  1.
          6    1    1    2  501    0 -0.11003305944E+03  0.16803078417E+03  0.28147760171E+03  0.38620623877E+03  0.17200000000E+03 0.  1.
         -6    1    1    2    0  503  0.11003305944E+03 -0.16803078417E+03 -0.19824115664E+03  0.33049232183E+03  0.17200000000E+03 0.  1.
<mgrwt>
<rscale>  2 0.26443453E+03</rscale>
<asrwt>0</asrwt>
<pdfrwt beam="1">  1       21 0.99991875E-01 0.26443453E+03</pdfrwt>
<pdfrwt beam="2">  1       21 0.79182765E-01 0.26443453E+03</pdfrwt>
<totfact> 0.10866251E+03</totfact>
</mgrwt>
</event>
<event>
 4    1  0.1116135E+000  0.1943577E+03  0.7546771E-02  0.1154589E+00
         21   -1    0    0  503  502  0.00000000000E+00  0.00000000000E+00  0.22188579474E+03  0.22188579474E+03  0.00000000000E+00 0. -1.
         21   -1    0    0  501  503 -0.00000000000E+00 -0.00000000000E+00 -0.27138982778E+03  0.27138982778E+03  0.00000000000E+00 0. -1.
          6    1    1    2  501    0 -0.81968680157E+02  0.38367152482E+02 -0.17532086962E+03  0.26174856302E+03  0.17200000000E+03 0. -1.
         -6    1    1    2    0  502  0.81968680157E+02 -0.38367152482E+02  0.12581683658E+03  0.23152705950E+03  0.17200000000E+03 0. -1.
<mgrwt>
<rscale>  2 0.19435767E+03</rscale>
<asrwt>0</asrwt>
<pdfrwt beam="1">  1       21 0.55471449E-01 0.19435767E+03</pdfrwt>
<pdfrwt beam="2">  1       21 0.67847457E-01 0.19435767E+03</pdfrwt>
<totfact> 0.60720178E+03</totfact>
</mgrwt>
</event>
<event>
 4    1  0.1116135E+000  0.1898413E+03  0.7546771E-02  0.1158605E+00
         21   -1    0    0  501  502  0.00000000000E+00  0.00000000000E+00  0.30968307729E+03  0.30968307729E+03  0.00000000000E+00 0.  1.
         21   -1    0    0  502  503 -0.00000000000E+00 -0.00000000000E+00 -0.39710097539E+03  0.39710097539E+03  0.00000000000E+00 0. -1.
          6    1    1    2  501    0  0.12297605680E+02 -0.79400900598E+02  0.25342115486E+03  0.31664177844E+03  0.17200000000E+03 0.  1.
         -6    1    1    2    0  503 -0.12297605680E+02  0.79400900598E+02 -0.34083905296E+03  0.39014227424E+03  0.17200000000E+03 0. -1.
<mgrwt>
<rscale>  2 0.18984134E+03</rscale>
<asrwt>0</asrwt>
<pdfrwt beam="1">  1       21 0.77420770E-01 0.18984134E+03</pdfrwt>
<pdfrwt beam="2">  1       21 0.99275243E-01 0.18984134E+03</pdfrwt>
<totfact> 0.12402245E+03</totfact>
</mgrwt>
</event>
<event>
 4    1  0.1116135E+000  0.1788584E+03  0.7546771E-02  0.1168913E+00
         21   -1    0    0  503  502  0.00000000000E+00  0.00000000000E+00  0.12504190875E+03  0.12504190875E+03  0.00000000000E+00 0. -1.
         21   -1    0    0  501  503 -0.00000000000E+00 -0.00000000000E+00 -0.25948561598E+03  0.25948561598E+03  0.00000000000E+00 0. -1.
          6    1    1    2  501    0 -0.43456791022E+02  0.22755670744E+02 -0.44422588524E+02  0.18429237534E+03  0.17200000000E+03 0. -1.
         -6    1    1    2    0  502  0.43456791022E+02 -0.22755670744E+02 -0.90021118704E+02  0.20023514939E+03  0.17200000000E+03 0. -1.
<mgrwt>
<rscale>  2 0.17885836E+03</rscale>
<asrwt>0</asrwt>
<pdfrwt beam="1">  1       21 0.31260477E-01 0.17885836E+03</pdfrwt>
<pdfrwt beam="2">  1       21 0.64871403E-01 0.17885836E+03</pdfrwt>
<totfact> 0.21699119E+04</totfact>
</mgrwt>
</event>
<event>
 4    1  0.1116135E+000  0.2253353E+03  0.7546771E-02  0.1129967E+00
         21   -1    0    0  503  502  0.00000000000E+00  0.00000000000E+00  0.39099067850E+03  0.39099067850E+03  0.00000000000E+00 0.  1.
         21   -1    0    0  501  503 -0.00000000000E+00 -0.00000000000E+00 -0.13090593785E+03  0.13090593785E+03  0.00000000000E+00 0.  1.
          6    1    1    2  501    0 -0.58276496051E+02  0.13340103450E+03  0.10677233390E+03  0.24935179423E+03  0.17200000000E+03 0.  1.
         -6    1    1    2    0  502  0.58276496051E+02 -0.13340103450E+03  0.15331240676E+03  0.27254482212E+03  0.17200000000E+03 0.  1.
<mgrwt>
<rscale>  2 0.22533527E+03</rscale>
<asrwt>0</asrwt>
<pdfrwt beam="1">  1       21 0.97747667E-01 0.22533527E+03</pdfrwt>
<pdfrwt beam="2">  1       21 0.32726485E-01 0.22533527E+03</pdfrwt>
<totfact> 0.76083127E+03</totfact>
</mgrwt>
</event>
<event>
 4    1  0.1116135E+000  0.2129629E+03  0.7546771E-02  0.1139241E+00
         21   -1    0    0  503  502  0.00000000000E+00  0.00000000000E+00  0.41627120747E+02  0.41627120747E+02  0.00000000000E+00 0. -1.
         21   -1    0    0  501  503 -0.00000000000E+00 -0.00000000000E+00 -0.10967185605E+04  0.10967185605E+04  0.00000000000E+00 0.  1.
          6    1    1    2  501    0 -0.10692922513E+03  0.65843208258E+02 -0.57368855232E+03  0.61194096310E+03  0.17200000000E+03 0. -1.
         -6    1    1    2    0  502  0.10692922513E+03 -0.65843208258E+02 -0.48140288747E+03  0.52640471819E+03  0.17200000000E+03 0.  1.
<mgrwt>
<rscale>  2 0.21296288E+03</rscale>
<asrwt>0</asrwt>
<pdfrwt beam="1">  1       21 0.10406781E-01 0.21296288E+03</pdfrwt>
<pdfrwt beam="2">  1       21 0.27417963E+00 0.21296288E+03</pdfrwt>
<totfact> 0.35560442E+03</totfact>
</mgrwt>
</event>
<event>
 4    1  0.1116135E+000  0.1998526E+03  0.7546771E-02  0.1149863E+00
         21   -1    0    0  501  502  0.00000000000E+00  0.00000000000E+00  0.59006175638E+03  0.59006175638E+03  0.00000000000E+00 0. -1.
         21   -1    0    0  502  503 -0.00000000000E+00 -0.00000000000E+00 -0.18421087181E+03  0.18421087181E+03  0.00000000000E+00 0.  1.
          6    1    1    2  501    0  0.67303497662E+02  0.76336680892E+02  0.51082486383E+03  0.54852811337E+03  0.17200000000E+03 0. -1.
         -6    1    1    2    0  503 -0.67303497662E+02 -0.76336680892E+02 -0.10497397926E+03  0.22574451482E+03  0.17200000000E+03 0.  1.
<mgrwt>
<rscale>  2 0.19985257E+03</rscale>
<asrwt>0</asrwt>
<pdfrwt beam="1">  1       21 0.14751543E+00 0.19985257E+03</pdfrwt>
<pdfrwt beam="2">  1       21 0.46052719E-01 0.19985257E+03</pdfrwt>
<totfact> 0.14010777E+03</totfact>
</mgrwt>
</event>
<event>
 4    1  0.1116135E+000  0.1857838E+03  0.7546771E-02  0.1162320E+00
         21   -1    0    0  501  502  0.00000000000E+00  0.00000000000E+00  0.99367986510E+02  0.99367986510E+02  0.00000000000E+00 0.  1.
         21   -1    0    0  502  503 -0.00000000000E+00 -0.00000000000E+00 -0.36675595951E+03  0.36675595951E+03  0.00000000000E+00 0.  1.
          6    1    1    2  501    0  0.43761963019E+02  0.54922713272E+02 -0.80085418810E+02  0.20230988148E+03  0.17200000000E+03 0.  1.
         -6    1    1    2    0  503 -0.43761963019E+02 -0.54922713272E+02 -0.18730255419E+03  0.26381406453E+03  0.17200000000E+03 0.  1.
<mgrwt>
<rscale>  2 0.18578378E+03</rscale>
<asrwt>0</asrwt>
<pdfrwt beam="1">  1       21 0.24841997E-01 0.18578378E+03</pdfrwt>
<pdfrwt beam="2">  1       21 0.91688989E-01 0.18578378E+03</pdfrwt>
<totfact> 0.15495085E+04</totfact>
</mgrwt>
</event>
<event>
 4    1  0.1116135E+000  0.2145105E+03  0.7546771E-02  0.1138043E+00
         21   -1    0    0  503  502  0.00000000000E+00  0.00000000000E+00  0.52769566268E+02  0.52769566268E+02  0.00000000000E+00 0. -1.
         21   -1    0    0  501  503 -0.00000000000E+00 -0.00000000000E+00 -0.90496170694E+03  0.90496170694E+03  0.00000000000E+00 0.  1.
          6    1    1    2  501    0  0.11231551431E+03  0.61773513074E+02 -0.51749547745E+03  0.56019310140E+03  0.17200000000E+03 0.  1.
         -6    1    1    2    0  502 -0.11231551431E+03 -0.61773513074E+02 -0.33469666322E+03  0.39753817180E+03  0.17200000000E+03 0. -1.
<mgrwt>
<rscale>  2 0.21451047E+03</rscale>
<asrwt>0</asrwt>
<pdfrwt beam="1">  1       21 0.13192391E-01 0.21451047E+03</pdfrwt>
<pdfrwt beam="2">  1       21 0.22624043E+00 0.21451047E+03</pdfrwt>
<totfact> 0.44672214E+03</totfact>
</mgrwt>
</event>
<event>
 4    1  0.1116135E+000  0.2983109E+03  0.7546771E-02  0.1086088E+00
         21   -1    0    0  501  502  0.00000000000E+00  0.00000000000E+00  0.24196390808E+03  0.24196390808E+03  0.00000000000E+00 0.  1.
         21   -1    0    0  502  503 -0.00000000000E+00 -0.00000000000E+00 -0.36778971362E+03  0.36778971362E+03  0.00000000000E+00 0. -1.
          6    1    1    2  501    0  0.15193684888E+03 -0.19057959764E+03 -0.61314082216E+02  0.30454688598E+03  0.17200000000E+03 0.  1.
         -6    1    1    2    0  503 -0.15193684888E+03  0.19057959764E+03 -0.64511723330E+02  0.30520673572E+03  0.17200000000E+03 0.  1.
<mgrwt>
<rscale>  2 0.29831089E+03</rscale>
<asrwt>0</asrwt>
<pdfrwt beam="1">  1       21 0.60490977E-01 0.29831089E+03</pdfrwt>
<pdfrwt beam="2">  1       21 0.91947428E-01 0.29831089E+03</pdfrwt>
<totfact> 0.23596646E+03</totfact>
</mgrwt>
</event>
<event>
 4    1  0.1116135E+000  0.1882417E+03  0.7546771E-02  0.1160057E+00
         21   -1    0    0  503  502  0.00000000000E+00  0.00000000000E+00  0.45541805677E+02  0.45541805677E+02  0.00000000000E+00 0. -1.
         21   -1    0    0  501  503 -0.00000000000E+00 -0.00000000000E+00 -0.78095559861E+03  0.78095559861E+03  0.00000000000E+00 0. -1.
          6    1    1    2  501    0 -0.76240737345E+02  0.61882920898E+01 -0.34260929670E+03  0.39091696711E+03  0.17200000000E+03 0. -1.
         -6    1    1    2    0  502  0.76240737345E+02 -0.61882920898E+01 -0.39280449623E+03  0.43558043717E+03  0.17200000000E+03 0. -1.
<mgrwt>
<rscale>  2 0.18824172E+03</rscale>
<asrwt>0</asrwt>
<pdfrwt beam="1">  1       21 0.11385452E-01 0.18824172E+03</pdfrwt>
<pdfrwt beam="2">  1       21 0.19523889E+00 0.18824172E+03</pdfrwt>
<totfact> 0.93247193E+03</totfact>
</mgrwt>
</event>
<event>
 4    1  0.1116135E+000  0.1721468E+03  0.7546771E-02  0.1175627E+00
         21   -1    0    0  503  502  0.00000000000E+00  0.00000000000E+00  0.25415213766E+03  0.25415213766E+03  0.00000000000E+00 0. -1.
         21   -1    0    0  501  503 -0.00000000000E+00 -0.00000000000E+00 -0.13085578592E+03  0.13085578592E+03  0.00000000000E+00 0. -1.
          6    1    1    2  501    0 -0.26710235405E+01 -0.65859854402E+01 -0.18873448414E+01  0.17215711325E+03  0.17200000000E+03 0. -1.
         -6    1    1    2    0  502  0.26710235405E+01  0.65859854402E+01  0.12518369658E+03  0.21285081033E+03  0.17200000000E+03 0. -1.
<mgrwt>
<rscale>  2 0.17214677E+03</rscale>
<asrwt>0</asrwt>
<pdfrwt beam="1">  1       21 0.63538034E-01 0.17214677E+03</pdfrwt>
<pdfrwt beam="2">  1       21 0.32713947E-01 0.17214677E+03</pdfrwt>
<totfact> 0.20850924E+04</totfact>
</mgrwt>
</event>
<event>
 4    1  0.1116135E+000  0.1754653E+03  0.7546771E-02  0.1172265E+00
         21   -1    0    0  503  502  0.00000000000E+00  0.00000000000E+00  0.15172061760E+03  0.15172061760E+03  0.00000000000E+00 0. -1.
         21   -1    0    0  501  503 -0.00000000000E+00 -0.00000000000E+00 -0.24504379118E+03  0.24504379118E+03  0.00000000000E+00 0. -1.
          6    1    1    2  501    0 -0.66717285024E+01 -0.34052292775E+02  0.35584118095E+02  0.17903714717E+03  0.17200000000E+03 0. -1.
         -6    1    1    2    0  502  0.66717285024E+01  0.34052292775E+02 -0.12890729168E+03  0.21772726162E+03  0.17200000000E+03 0. -1.
<mgrwt>
<rscale>  2 0.17546530E+03</rscale>
<asrwt>0</asrwt>
<pdfrwt beam="1">  1       21 0.37930155E-01 0.17546530E+03</pdfrwt>
<pdfrwt beam="2">  1       21 0.61260947E-01 0.17546530E+03</pdfrwt>
<totfact> 0.16790006E+04</totfact>
</mgrwt>
</event>
<event>
 4    1  0.1116135E+000  0.3154368E+03  0.7546771E-02  0.1077769E+00
         21   -1    0    0  503  502  0.00000000000E+00  0.00000000000E+00  0.42168481888E+03  0.42168481888E+03  0.00000000000E+00 0.  1.
         21   -1    0    0  501  503 -0.00000000000E+00 -0.00000000000E+00 -0.28709758994E+03  0.28709758994E+03  0.00000000000E+00 0. -1.
          6    1    1    2  501    0  0.22675844872E+03 -0.13600353225E+03 -0.82275618713E+02  0.32599023342E+03  0.17200000000E+03 0. -1.
         -6    1    1    2    0  502 -0.22675844872E+03  0.13600353225E+03  0.21686284766E+03  0.38279217540E+03  0.17200000000E+03 0.  1.
<mgrwt>
<rscale>  2 0.31543677E+03</rscale>
<asrwt>0</asrwt>
<pdfrwt beam="1">  1       21 0.10542120E+00 0.31543677E+03</pdfrwt>
<pdfrwt beam="2">  1       21 0.71774398E-01 0.31543677E+03</pdfrwt>
<totfact> 0.11540481E+03</totfact>
</mgrwt>
</event>
<event>
 4    1  0.1116135E+000  0.1797377E+03  0.7546771E-02  0.1168057E+00
         21   -1    0    0  501  502  0.00000000000E+00  0.00000000000E+00  0.21067681121E+03  0.21067681121E+03  0.00000000000E+00 0. -1.
         21   -1    0    0  502  503 -0.00000000000E+00 -0.00000000000E+00 -0.15812394995E+03  0.15812394995E+03  0.00000000000E+00 0. -1.
          6    1    1    2  501    0  0.45822249557E+02 -0.24939100819E+02  0.58343423157E+02  0.18896981857E+03  0.17200000000E+03 0. -1.
         -6    1    1    2    0  503 -0.45822249557E+02  0.24939100819E+02 -0.57905619009E+01  0.17983094259E+03  0.17200000000E+03 0. -1.
<mgrwt>
<rscale>  2 0.17973769E+03</rscale>
<asrwt>0</asrwt>
<pdfrwt beam="1">  1       21 0.52669203E-01 0.17973769E+03</pdfrwt>
<pdfrwt beam="2">  1       21 0.39530988E-01 0.17973769E+03</pdfrwt>
<totfact> 0.21241564E+04</totfact>
</mgrwt>
</event>
<event>
 4    1  0.1116135E+000  0.2403779E+03  0.7546771E-02  0.1119541E+00
         21   -1    0    0  501  502  0.00000000000E+00  0.00000000000E+00  0.11905181006E+04  0.11905181006E+04  0.00000000000E+00 0. -1.
         21   -1    0    0  502  503 -0.00000000000E+00 -0.00000000000E+00 -0.48932491299E+02  0.48932491299E+02  0.00000000000E+00 0.  1.
          6    1    1    2  501    0 -0.11175783331E+03 -0.12533039728E+03  0.62666428392E+03  0.67118525500E+03  0.17200000000E+03 0. -1.
         -6    1    1    2    0  503  0.11175783331E+03  0.12533039728E+03  0.51492132537E+03  0.56826533688E+03  0.17200000000E+03 0.  1.
<mgrwt>
<rscale>  2 0.24037787E+03</rscale>
<asrwt>0</asrwt>
<pdfrwt beam="1">  1       21 0.29762943E+00 0.24037787E+03</pdfrwt>
<pdfrwt beam="2">  1       21 0.12233127E-01 0.24037787E+03</pdfrwt>
<totfact> 0.18909076E+03</totfact>
</mgrwt>
</event>
<event>
 4    1  0.1116135E+000  0.1837092E+03  0.7546771E-02  0.1164261E+00
         21   -1    0    0  501  502  0.00000000000E+00  0.00000000000E+00  0.19626939046E+03  0.19626939046E+03  0.00000000000E+00 0.  1.
         21   -1    0    0  502  503 -0.00000000000E+00 -0.00000000000E+00 -0.17362018829E+03  0.17362018829E+03  0.00000000000E+00 0.  1.
          6    1    1    2  501    0  0.15994107209E+02 -0.62523939026E+02  0.29449330307E+02  0.18605460884E+03  0.17200000000E+03 0. -1.
         -6    1    1    2    0  503 -0.15994107209E+02  0.62523939026E+02 -0.68001281335E+01  0.18383496990E+03  0.17200000000E+03 0. -1.
<mgrwt>
<rscale>  2 0.18370916E+03</rscale>
<asrwt>0</asrwt>
<pdfrwt beam="1">  1       21 0.49067348E-01 0.18370916E+03</pdfrwt>
<pdfrwt beam="2">  1       21 0.43405047E-01 0.18370916E+03</pdfrwt>
<totfact> 0.20325971E+04</totfact>
</mgrwt>
</event>
<event>
 4    1  0.1116135E+000  0.1949970E+03  0.7546771E-02  0.1154030E+00
         21   -1    0    0  501  502  0.00000000000E+00  0.00000000000E+00  0.33128778953E+02  0.33128778953E+02  0.00000000000E+00 0.  1.
         21   -1    0    0  502  503 -0.00000000000E+00 -0.00000000000E+00 -0.11591166608E+04  0.11591166608E+04  0.00000000000E+00 0.  1.
          6    1    1    2  501    0 -0.27613562427E+02  0.87620426356E+02 -0.50398468223E+03  0.54039282736E+03  0.17200000000E+03 0.  1.
         -6    1    1    2    0  503  0.27613562427E+02 -0.87620426356E+02 -0.62200319964E+03  0.65185261241E+03  0.17200000000E+03 0.  1.
<mgrwt>
<rscale>  2 0.19499705E+03</rscale>
<asrwt>0</asrwt>
<pdfrwt beam="1">  1       21 0.82821949E-02 0.19499705E+03</pdfrwt>
<pdfrwt beam="2">  1       21 0.28977916E+00 0.19499705E+03</pdfrwt>
<totfact> 0.44036566E+03</totfact>
</mgrwt>
</event>
<event>
 4    1  0.1116135E+000  0.1733621E+03  0.7546771E-02  0.1174386E+00
         21   -1    0    0  501  502  0.00000000000E+00  0.00000000000E+00  0.63859171255E+03  0.63859171255E+03  0.00000000000E+00 0. -1.
         21   -1    0    0  502  503 -0.00000000000E+00 -0.00000000000E+00 -0.57082365568E+02  0.57082365568E+02  0.00000000000E+00 0. -1.
          6    1    1    2  501    0  0.21631697545E+02 -0.15806891913E+01  0.43647891918E+03  0.46964696933E+03  0.17200000000E+03 0. -1.
         -6    1    1    2    0  503 -0.21631697545E+02  0.15806891913E+01  0.14503042781E+03  0.22602710879E+03  0.17200000000E+03 0. -1.
<mgrwt>
<rscale>  2 0.17336213E+03</rscale>
<asrwt>0</asrwt>
<pdfrwt beam="1">  1       21 0.15964791E+00 0.17336213E+03</pdfrwt>
<pdfrwt beam="2">  1       21 0.14270593E-01 0.17336213E+03</pdfrwt>
<totfact> 0.11039485E+04</totfact>
</mgrwt>
</event>
<event>
 4    1  0.1116135E+000  0.2266848E+03  0.7546771E-02  0.1128995E+00
         21   -1    0    0  503  502  0.00000000000E+00  0.00000000000E+00  0.10555360351E+03  0.10555360351E+03  0.00000000000E+00 0.  1.
         21   -1    0    0  501  503 -0.00000000000E+00 -0.00000000000E+00 -0.91061877595E+03  0.91061877595E+03  0.00000000000E+00 0. -1.
          6    1    1    2  501    0 -0.13304381223E+03  0.64041551236E+02 -0.55917757763E+02  0.23347970338E+03  0.17200000000E+03 0.  1.
         -6    1    1    2    0  502  0.13304381223E+03 -0.64041551236E+02 -0.74914741468E+03  0.78269267608E+03  0.17200000000E+03 0. -1.
<mgrwt>
<rscale>  2 0.22668475E+03</rscale>
<asrwt>0</asrwt>
<pdfrwt beam="1">  1       21 0.26388401E-01 0.22668475E+03</pdfrwt>
<pdfrwt beam="2">  1       21 0.22765469E+00 0.22668475E+03</pdfrwt>
<totfact> 0.11891287E+03</totfact>
</mgrwt>
</event>
<event>
 4    1  0.1116135E+000  0.1892609E+03  0.7546771E-02  0.1159130E+00
         21   -1    0    0  503  502  0.00000000000E+00  0.00000000000E+00  0.90901610404E+02  0.90901610404E+02  0.00000000000E+00 0. -1.
         21   -1    0    0  501  503 -0.00000000000E+00 -0.00000000000E+00 -0.46397976408E+03  0.46397976408E+03  0.00000000000E+00 0. -1.
          6    1    1    2  501    0 -0.76990340051E+02  0.17555108793E+02 -0.29424871729E+03  0.34985997475E+03  0.17200000000E+03 0. -1.
         -6    1    1    2    0  502  0.76990340051E+02 -0.17555108793E+02 -0.78829436379E+02  0.20502139973E+03  0.17200000000E+03 0. -1.
<mgrwt>
<rscale>  2 0.18926092E+03</rscale>
<asrwt>0</asrwt>
<pdfrwt beam="1">  1       21 0.22725403E-01 0.18926092E+03</pdfrwt>
<pdfrwt beam="2">  1       21 0.11599494E+00 0.18926092E+03</pdfrwt>
<totfact> 0.10448303E+04</totfact>
</mgrwt>
</event>
<event>
 4    1  0.1116135E+000  0.1881290E+03  0.7546771E-02  0.1160160E+00
         21   -1    0    0  501  502  0.00000000000E+00  0.00000000000E+00  0.23307365659E+03  0.23307365659E+03  0.00000000000E+00 0.  1.
         21   -1    0    0  502  503 -0.00000000000E+00 -0.00000000000E+00 -0.23249975497E+03  0.23249975497E+03  0.00000000000E+00 0.  1.
          6    1    1    2  501    0 -0.59775701659E+02 -0.47279788633E+02  0.13738940771E+03  0.23295570882E+03  0.17200000000E+03 0.  1.
         -6    1    1    2    0  503  0.59775701659E+02  0.47279788633E+02 -0.13681550609E+03  0.23261770274E+03  0.17200000000E+03 0.  1.
<mgrwt>
<rscale>  2 0.18812898E+03</rscale>
<asrwt>0</asrwt>
<pdfrwt beam="1">  1       21 0.58268414E-01 0.18812898E+03</pdfrwt>
<pdfrwt beam="2">  1       21 0.58124939E-01 0.18812898E+03</pdfrwt>
<totfact> 0.76771355E+03</totfact>
</mgrwt>
</event>
<event>
 4    1  0.1116135E+000  0.2391094E+03  0.7546771E-02  0.1120388E+00
         21   -1    0    0  501  502  0.00000000000E+00  0.00000000000E+00  0.82946728689E+03  0.82946728689E+03  0.00000000000E+00 0.  1.
         21   -1    0    0  502  503 -0.00000000000E+00 -0.00000000000E+00 -0.73896198089E+02  0.73896198089E+02  0.00000000000E+00 0. -1.
          6    1    1    2  501    0 -0.97787552999E+02  0.13426427668E+03  0.26066515338E+03  0.35372252360E+03  0.17200000000E+03 0.  1.
         -6    1    1    2    0  503  0.97787552999E+02 -0.13426427668E+03  0.49490593542E+03  0.54964096138E+03  0.17200000000E+03 0.  1.
<mgrwt>
<rscale>  2 0.23910939E+03</rscale>
<asrwt>0</asrwt>
<pdfrwt beam="1">  1       21 0.20736679E+00 0.23910939E+03</pdfrwt>
<pdfrwt beam="2">  1       21 0.18474052E-01 0.23910939E+03</pdfrwt>
<totfact> 0.30910096E+03</totfact>
</mgrwt>
</event>
<event>
 4    1  0.1116135E+000  0.1786764E+03  0.7546771E-02  0.1169090E+00
         21   -1    0    0  501  502  0.00000000000E+00  0.00000000000E+00  0.10273303074E+04  0.10273303074E+04  0.00000000000E+00 0.  1.
         21   -1    0    0  502  503 -0.00000000000E+00 -0.00000000000E+00 -0.32941493881E+02  0.32941493881E+02  0.00000000000E+00 0. -1.
          6    1    1    2  501    0 -0.41766774177E+02 -0.24429279489E+02  0.62335382596E+03  0.64845604744E+03  0.17200000000E+03 0.  1.
         -6    1    1    2    0  503  0.41766774177E+02  0.24429279489E+02  0.37103498758E+03  0.41181575386E+03  0.17200000000E+03 0. -1.
<mgrwt>
<rscale>  2 0.17867639E+03</rscale>
<asrwt>0</asrwt>
<pdfrwt beam="1">  1       21 0.25683247E+00 0.17867639E+03</pdfrwt>
<pdfrwt beam="2">  1       21 0.82353769E-02 0.17867639E+03</pdfrwt>
<totfact> 0.70196995E+03</totfact>
</mgrwt>
</event>
<event>
 4    1  0.1116135E+000  0.1828864E+03  0.7546771E-02  0.1165038E+00
         21   -1    0    0  501  502  0.00000000000E+00  0.00000000000E+00  0.95756325545E+02  0.95756325545E+02  0.00000000000E+00 0.  1.
         21   -1    0    0  502  503 -0.00000000000E+00 -0.00000000000E+00 -0.10742329297E+04  0.10742329297E+04  0.00000000000E+00 0.  1.
          6    1    1    2  501    0  0.51750926866E+02 -0.34427910316E+02 -0.86730917340E+01  0.18309194947E+03  0.17200000000E+03 0.  1.
         -6    1    1    2    0  503 -0.51750926866E+02  0.34427910316E+02 -0.96980351238E+03  0.98689730574E+03  0.17200000000E+03 0.  1.
<mgrwt>
<rscale>  2 0.18288641E+03</rscale>
<asrwt>0</asrwt>
<pdfrwt beam="1">  1       21 0.23939081E-01 0.18288641E+03</pdfrwt>
<pdfrwt beam="2">  1       21 0.26855823E+00 0.18288641E+03</pdfrwt>
<totfact> 0.86372299E+02</totfact>
</mgrwt>
</event>
<event>
 4    1  0.1116135E+000  0.3412010E+03  0.7546771E-02  0.1066286E+00
         21   -1    0    0  501  502  0.00000000000E+00  0.00000000000E+00  0.48933931930E+03  0.48933931930E+03  0.00000000000E+00 0. -1.
         21   -1    0    0  502  503 -0.00000000000E+00 -0.00000000000E+00 -0.29148824367E+03  0.29148824367E+03  0.00000000000E+00 0.  1.
          6    1    1    2  501    0 -0.28687989673E+03 -0.67335486928E+02  0.26630941089E+03  0.43282657645E+03  0.17200000000E+03 0. -1.
         -6    1    1    2    0  503  0.28687989673E+03  0.67335486928E+02 -0.68458335260E+02  0.34800098652E+03  0.17200000000E+03 0.  1.
<mgrwt>
<rscale>  2 0.34120103E+03</rscale>
<asrwt>0</asrwt>
<pdfrwt beam="1">  1       21 0.12233483E+00 0.34120103E+03</pdfrwt>
<pdfrwt beam="2">  1       21 0.72872062E-01 0.34120103E+03</pdfrwt>
<totfact> 0.75946279E+02</totfact>
</mgrwt>
</event>
<event>
 4    1  0.1116135E+000  0.2205200E+03  0.7546771E-02  0.1133496E+00
         21   -1    0    0  503  502  0.00000000000E+00  0.00000000000E+00  0.15774509682E+03  0.15774509682E+03  0.00000000000E+00 0.  1.
         21   -1    0    0  501  503 -0.00000000000E+00 -0.00000000000E+00 -0.89863589440E+03  0.89863589440E+03  0.00000000000E+00 0. -1.
          6    1    1    2  501    0  0.63451629337E+02  0.12255181793E+03 -0.79855705724E+03  0.82844579244E+03  0.17200000000E+03 0. -1.
         -6    1    1    2    0  502 -0.63451629337E+02 -0.12255181793E+03  0.57666259650E+02  0.22793519878E+03  0.17200000000E+03 0.  1.
<mgrwt>
<rscale>  2 0.22051997E+03</rscale>
<asrwt>0</asrwt>
<pdfrwt beam="1">  1       21 0.39436275E-01 0.22051997E+03</pdfrwt>
<pdfrwt beam="2">  1       21 0.22465897E+00 0.22051997E+03</pdfrwt>
<totfact> 0.56504382E+02</totfact>
</mgrwt>
</event>
<event>
 4    1  0.1116135E+000  0.1869425E+03  0.7546771E-02  0.1161248E+00
         21   -1    0    0  501  502  0.00000000000E+00  0.00000000000E+00  0.74418787926E+02  0.74418787926E+02  0.00000000000E+00 0.  1.
         21   -1    0    0  502  503 -0.00000000000E+00 -0.00000000000E+00 -0.46977230663E+03  0.46977230663E+03  0.00000000000E+00 0. -1.
          6    1    1    2  501    0 -0.20722842305E+02 -0.70242999072E+02 -0.20279512032E+03  0.27581402418E+03  0.17200000000E+03 0.  1.
         -6    1    1    2    0  503  0.20722842305E+02  0.70242999072E+02 -0.19255839838E+03  0.26837707037E+03  0.17200000000E+03 0.  1.
<mgrwt>
<rscale>  2 0.18694254E+03</rscale>
<asrwt>0</asrwt>
<pdfrwt beam="1">  1       21 0.18604697E-01 0.18694254E+03</pdfrwt>
<pdfrwt beam="2">  1       21 0.11744307E+00 0.18694254E+03</pdfrwt>
<totfact> 0.14764132E+04</totfact>
</mgrwt>
</event>
<event>
 4    1  0.1116135E+000  0.2164367E+03  0.7546771E-02  0.1136568E+00
         21   -1    0    0  501  502  0.00000000000E+00  0.00000000000E+00  0.99152073046E+02  0.99152073046E+02  0.00000000000E+00 0. -1.
         21   -1    0    0  502  503 -0.00000000000E+00 -0.00000000000E+00 -0.47262602332E+03  0.47262602332E+03  0.00000000000E+00 0. -1.
          6    1    1    2  501    0 -0.33197721053E+02  0.12711705180E+03 -0.18128916160E+03  0.28233064597E+03  0.17200000000E+03 0. -1.
         -6    1    1    2    0  503  0.33197721053E+02 -0.12711705180E+03 -0.19218478867E+03  0.28944745039E+03  0.17200000000E+03 0. -1.
<mgrwt>
<rscale>  2 0.21643667E+03</rscale>
<asrwt>0</asrwt>
<pdfrwt beam="1">  1       21 0.24788018E-01 0.21643667E+03</pdfrwt>
<pdfrwt beam="2">  1       21 0.11815651E+00 0.21643667E+03</pdfrwt>
<totfact> 0.83034073E+03</totfact>
</mgrwt>
</event>
<event>
 4    1  0.1116135E+000  0.2028610E+03  0.7546771E-02  0.1147347E+00
         21   -1    0    0  501  502  0.00000000000E+00  0.00000000000E+00  0.11151256749E+03  0.11151256749E+03  0.00000000000E+00 0. -1.
         21   -1    0    0  502  503 -0.00000000000E+00 -0.00000000000E+00 -0.42157532910E+03  0.42157532910E+03  0.00000000000E+00 0. -1.
          6    1    1    2  501    0  0.92389310424E+02  0.55070990108E+02 -0.60938463380E+02  0.21181618199E+03  0.17200000000E+03 0. -1.
         -6    1    1    2    0  503 -0.92389310424E+02 -0.55070990108E+02 -0.24912429824E+03  0.32127171460E+03  0.17200000000E+03 0. -1.
<mgrwt>
<rscale>  2 0.20286103E+03</rscale>
<asrwt>0</asrwt>
<pdfrwt beam="1">  1       21 0.27878142E-01 0.20286103E+03</pdfrwt>
<pdfrwt beam="2">  1       21 0.10539383E+00 0.20286103E+03</pdfrwt>
<totfact> 0.88309269E+03</totfact>
</mgrwt>
</event>
<event>
 4    1  0.1116135E+000  0.2344599E+03  0.7546771E-02  0.1123540E+00
         21   -1    0    0  503  502  0.00000000000E+00  0.00000000000E+00  0.47632424836E+03  0.47632424836E+03  0.00000000000E+00 0. -1.
         21   -1    0    0  501  503 -0.00000000000E+00 -0.00000000000E+00 -0.15322797171E+03  0.15322797171E+03  0.00000000000E+00 0.  1.
          6    1    1    2  501    0  0.10115357642E+03  0.12310719882E+03  0.51629009957E+01  0.23451670297E+03  0.17200000000E+03 0.  1.
         -6    1    1    2    0  502 -0.10115357642E+03 -0.12310719882E+03  0.31793337565E+03  0.39503551710E+03  0.17200000000E+03 0. -1.
<mgrwt>
<rscale>  2 0.23445987E+03</rscale>
<asrwt>0</asrwt>
<pdfrwt beam="1">  1       21 0.11908106E+00 0.23445987E+03</pdfrwt>
<pdfrwt beam="2">  1       21 0.38306994E-01 0.23445987E+03</pdfrwt>
<totfact> 0.34212758E+03</totfact>
</mgrwt>
</event>
<event>
 4    1  0.1116135E+000  0.2541224E+03  0.7546771E-02  0.1110727E+00
         21   -1    0    0  503  502  0.00000000000E+00  0.00000000000E+00  0.79872367474E+03  0.79872367474E+03  0.00000000000E+00 0. -1.
         21   -1    0    0  501  503 -0.00000000000E+00 -0.00000000000E+00 -0.22132956831E+03  0.22132956831E+03  0.00000000000E+00 0.  1.
          6    1    1    2  501    0 -0.16400629408E+03  0.89978490823E+02 -0.11763120821E+03  0.28002731019E+03  0.17200000000E+03 0.  1.
         -6    1    1    2    0  502  0.16400629408E+03 -0.89978490823E+02  0.69502531464E+03  0.74002593286E+03  0.17200000000E+03 0. -1.
<mgrwt>
<rscale>  2 0.25412240E+03</rscale>
<asrwt>0</asrwt>
<pdfrwt beam="1">  1       21 0.19968091E+00 0.25412240E+03</pdfrwt>
<pdfrwt beam="2">  1       21 0.55332394E-01 0.25412240E+03</pdfrwt>
<totfact> 0.38842049E+02</totfact>
</mgrwt>
</event>
<event>
 4    1  0.1116135E+000  0.1894844E+03  0.7546771E-02  0.1158927E+00
         21   -1    0    0  503  502  0.00000000000E+00  0.00000000000E+00  0.11566273989E+03  0.11566273989E+03  0.00000000000E+00 0. -1.
         21   -1    0    0  501  503 -0.00000000000E+00 -0.00000000000E+00 -0.39708518457E+03  0.39708518457E+03  0.00000000000E+00 0. -1.
          6    1    1    2  501    0 -0.39305055944E+02  0.69104705037E+02 -0.26048106396E+03  0.32210981414E+03  0.17200000000E+03 0. -1.
         -6    1    1    2    0  502  0.39305055944E+02 -0.69104705037E+02 -0.20941380727E+02  0.19063811032E+03  0.17200000000E+03 0. -1.
<mgrwt>
<rscale>  2 0.18948443E+03</rscale>
<asrwt>0</asrwt>
<pdfrwt beam="1">  1       21 0.28915685E-01 0.18948443E+03</pdfrwt>
<pdfrwt beam="2">  1       21 0.99271295E-01 0.18948443E+03</pdfrwt>
<totfact> 0.95834714E+03</totfact>
</mgrwt>
</event>
<event>
 4    1  0.1116135E+000  0.2195369E+03  0.7546771E-02  0.1134229E+00
         21   -1    0    0  501  502  0.00000000000E+00  0.00000000000E+00  0.23322542631E+03  0.23322542631E+03  0.00000000000E+00 0.  1.
         21   -1    0    0  502  503 -0.00000000000E+00 -0.00000000000E+00 -0.20779574591E+03  0.20779574591E+03  0.00000000000E+00 0. -1.
          6    1    1    2  501    0 -0.13308659380E+03  0.30006947771E+02  0.29075862374E+02  0.22145397747E+03  0.17200000000E+03 0.  1.
         -6    1    1    2    0  503  0.13308659380E+03 -0.30006947771E+02 -0.36461819701E+01  0.21956719474E+03  0.17200000000E+03 0.  1.
<mgrwt>
<rscale>  2 0.21953692E+03</rscale>
<asrwt>0</asrwt>
<pdfrwt beam="1">  1       21 0.58306357E-01 0.21953692E+03</pdfrwt>
<pdfrwt beam="2">  1       21 0.51948937E-01 0.21953692E+03</pdfrwt>
<totfact> 0.95176600E+03</totfact>
</mgrwt>
</event>
<event>
 4    1  0.1116135E+000  0.1852941E+03  0.7546771E-02  0.1162776E+00
         21   -1    0    0  501  502  0.00000000000E+00  0.00000000000E+00  0.15192375626E+03  0.15192375626E+03  0.00000000000E+00 0.  1.
         21   -1    0    0  502  503 -0.00000000000E+00 -0.00000000000E+00 -0.22881025888E+03  0.22881025888E+03  0.00000000000E+00 0. -1.
          6    1    1    2  501    0 -0.49155788928E+02  0.48307308030E+02 -0.17324176696E+02  0.18610216198E+03  0.17200000000E+03 0.  1.
         -6    1    1    2    0  503  0.49155788928E+02 -0.48307308030E+02 -0.59562325922E+02  0.19463185316E+03  0.17200000000E+03 0.  1.
<mgrwt>
<rscale>  2 0.18529406E+03</rscale>
<asrwt>0</asrwt>
<pdfrwt beam="1">  1       21 0.37980939E-01 0.18529406E+03</pdfrwt>
<pdfrwt beam="2">  1       21 0.57202565E-01 0.18529406E+03</pdfrwt>
<totfact> 0.19270062E+04</totfact>
</mgrwt>
</event>
<event>
 4    1  0.1116135E+000  0.2326769E+03  0.7546771E-02  0.1124770E+00
         21   -1    0    0  503  502  0.00000000000E+00  0.00000000000E+00  0.11084052337E+04  0.11084052337E+04  0.00000000000E+00 0. -1.
         21   -1    0    0  501  503 -0.00000000000E+00 -0.00000000000E+00 -0.10245321809E+03  0.10245321809E+03  0.00000000000E+00 0.  1.
          6    1    1    2  501    0  0.34220257201E+01 -0.15666155526E+03  0.65028812918E+02  0.24159325253E+03  0.17200000000E+03 0.  1.
         -6    1    1    2    0  502 -0.34220257201E+01  0.15666155526E+03  0.94092320272E+03  0.96926519930E+03  0.17200000000E+03 0. -1.
<mgrwt>
<rscale>  2 0.23267693E+03</rscale>
<asrwt>0</asrwt>
<pdfrwt beam="1">  1       21 0.27710127E+00 0.23267693E+03</pdfrwt>
<pdfrwt beam="2">  1       21 0.25613308E-01 0.23267693E+03</pdfrwt>
<totfact> 0.63619709E+02</totfact>
</mgrwt>
</event>
<event>
 4    1  0.1116135E+000  0.1911660E+03  0.7546771E-02  0.1157414E+00
         21   -1    0    0  501  502  0.00000000000E+00  0.00000000000E+00  0.19360825942E+03  0.19360825942E+03  0.00000000000E+00 0.  1.
         21   -1    0    0  502  503 -0.00000000000E+00 -0.00000000000E+00 -0.33590324048E+03  0.33590324048E+03  0.00000000000E+00 0.  1.
          6    1    1    2  501    0 -0.83236428936E+02 -0.56699906367E+01  0.10408571813E+03  0.21766554301E+03  0.17200000000E+03 0.  1.
         -6    1    1    2    0  503  0.83236428936E+02  0.56699906367E+01 -0.24638069919E+03  0.31184595689E+03  0.17200000000E+03 0.  1.
<mgrwt>
<rscale>  2 0.19116603E+03</rscale>
<asrwt>0</asrwt>
<pdfrwt beam="1">  1       21 0.48402065E-01 0.19116603E+03</pdfrwt>
<pdfrwt beam="2">  1       21 0.83975809E-01 0.19116603E+03</pdfrwt>
<totfact> 0.50282636E+03</totfact>
</mgrwt>
</event>
<event>
 4    1  0.1116135E+000  0.1972768E+03  0.7546771E-02  0.1152057E+00
         21   -1    0    0  501  502  0.00000000000E+00  0.00000000000E+00  0.12922765565E+03  0.12922765565E+03  0.00000000000E+00 0.  1.
         21   -1    0    0  502  503 -0.00000000000E+00 -0.00000000000E+00 -0.33955629098E+03  0.33955629098E+03  0.00000000000E+00 0.  1.
          6    1    1    2  501    0  0.91027129612E+02 -0.32375696928E+02 -0.26344606608E+02  0.19902804419E+03  0.17200000000E+03 0.  1.
         -6    1    1    2    0  503 -0.91027129612E+02  0.32375696928E+02 -0.18398402873E+03  0.26975590244E+03  0.17200000000E+03 0.  1.
<mgrwt>
<rscale>  2 0.19727677E+03</rscale>
<asrwt>0</asrwt>
<pdfrwt beam="1">  1       21 0.32306914E-01 0.19727677E+03</pdfrwt>
<pdfrwt beam="2">  1       21 0.84889072E-01 0.19727677E+03</pdfrwt>
<totfact> 0.11043318E+04</totfact>
</mgrwt>
</event>
<event>
 4    1  0.1116135E+000  0.2422305E+03  0.7546771E-02  0.1118316E+00
         21   -1    0    0  501  502  0.00000000000E+00  0.00000000000E+00  0.70394344338E+02  0.70394344338E+02  0.00000000000E+00 0.  1.
         21   -1    0    0  502  503 -0.00000000000E+00 -0.00000000000E+00 -0.84630844678E+03  0.84630844678E+03  0.00000000000E+00 0.  1.
          6    1    1    2  501    0 -0.11970841109E+03 -0.12149702470E+03 -0.33163044325E+03  0.41067551861E+03  0.17200000000E+03 0.  1.
         -6    1    1    2    0  503  0.11970841109E+03  0.12149702470E+03 -0.44428365919E+03  0.50602727251E+03  0.17200000000E+03 0.  1.
<mgrwt>
<rscale>  2 0.24223053E+03</rscale>
<asrwt>0</asrwt>
<pdfrwt beam="1">  1       21 0.17598586E-01 0.24223053E+03</pdfrwt>
<pdfrwt beam="2">  1       21 0.21157711E+00 0.24223053E+03</pdfrwt>
<totfact> 0.31732462E+03</totfact>
</mgrwt>
</event>
<event>
 4    1  0.1116135E+000  0.2066337E+03  0.7546771E-02  0.1144260E+00
         21   -1    0    0  503  502  0.00000000000E+00  0.00000000000E+00  0.69621523875E+02  0.69621523875E+02  0.00000000000E+00 0.  1.
         21   -1    0    0  501  503 -0.00000000000E+00 -0.00000000000E+00 -0.63753323892E+03  0.63753323892E+03  0.00000000000E+00 0.  1.
          6    1    1    2  501    0  0.11276670570E+03  0.19928590093E+02 -0.35291933599E+03  0.40896153405E+03  0.17200000000E+03 0. -1.
         -6    1    1    2    0  502 -0.11276670570E+03 -0.19928590093E+02 -0.21499237906E+03  0.29819322875E+03  0.17200000000E+03 0. -1.
<mgrwt>
<rscale>  2 0.20663368E+03</rscale>
<asrwt>0</asrwt>
<pdfrwt beam="1">  1       21 0.17405381E-01 0.20663368E+03</pdfrwt>
<pdfrwt beam="2">  1       21 0.15938331E+00 0.20663368E+03</pdfrwt>
<totfact> 0.75131172E+03</totfact>
</mgrwt>
</event>
<event>
 4    1  0.1116135E+000  0.1985889E+03  0.7546771E-02  0.1150935E+00
         21   -1    0    0  501  502  0.00000000000E+00  0.00000000000E+00  0.29242322755E+03  0.29242322755E+03  0.00000000000E+00 0.  1.
         21   -1    0    0  502  503 -0.00000000000E+00 -0.00000000000E+00 -0.16874776757E+03  0.16874776757E+03  0.00000000000E+00 0.  1.
          6    1    1    2  501    0 -0.98781533420E+02 -0.97866213815E+01  0.16516248073E+03  0.25829482059E+03  0.17200000000E+03 0.  1.
         -6    1    1    2    0  503  0.98781533420E+02  0.97866213815E+01 -0.41487020742E+02  0.20287617453E+03  0.17200000000E+03 0.  1.
<mgrwt>
<rscale>  2 0.19858895E+03</rscale>
<asrwt>0</asrwt>
<pdfrwt beam="1">  1       21 0.73105806E-01 0.19858895E+03</pdfrwt>
<pdfrwt beam="2">  1       21 0.42186942E-01 0.19858895E+03</pdfrwt>
<totfact> 0.90629988E+03</totfact>
</mgrwt>
</event>
<event>
 4    1  0.1116135E+000  0.1850483E+03  0.7546771E-02  0.1163005E+00
         21   -1    0    0  503  502  0.00000000000E+00  0.00000000000E+00  0.14348823044E+04  0.14348823044E+04  0.00000000000E+00 0. -1.
         21   -1    0    0  501  503 -0.00000000000E+00 -0.00000000000E+00 -0.28835370810E+02  0.28835370810E+02  0.00000000000E+00 0. -1.
          6    1    1    2  501    0  0.44849730034E+02  0.51452671552E+02  0.10068858396E+04  0.10237489778E+04  0.17200000000E+03 0. -1.
         -6    1    1    2    0  502 -0.44849730034E+02 -0.51452671552E+02  0.39916109407E+03  0.43996869743E+03  0.17200000000E+03 0. -1.
<mgrwt>
<rscale>  2 0.18504831E+03</rscale>
<asrwt>0</asrwt>
<pdfrwt beam="1">  1       21 0.35872034E+00 0.18504831E+03</pdfrwt>
<pdfrwt beam="2">  1       21 0.72088475E-02 0.18504831E+03</pdfrwt>
<totfact> 0.22564237E+03</totfact>
</mgrwt>
</event>
<event>
 4    1  0.1116135E+000  0.1906349E+03  0.7546771E-02  0.1157890E+00
         21   -1    0    0  501  502  0.00000000000E+00  0.00000000000E+00  0.92371443073E+02  0.92371443073E+02  0.00000000000E+00 0. -1.
         21   -1    0    0  502  503 -0.00000000000E+00 -0.00000000000E+00 -0.50360282372E+03  0.50360282372E+03  0.00000000000E+00 0. -1.
          6    1    1    2  501    0 -0.79404000108E+02  0.21275776393E+02 -0.66238536768E+02  0.20181476073E+03  0.17200000000E+03 0. -1.
         -6    1    1    2    0  503  0.79404000108E+02 -0.21275776393E+02 -0.34499284388E+03  0.39415950607E+03  0.17200000000E+03 0. -1.
<mgrwt>
<rscale>  2 0.19063487E+03</rscale>
<asrwt>0</asrwt>
<pdfrwt beam="1">  1       21 0.23092861E-01 0.19063487E+03</pdfrwt>
<pdfrwt beam="2">  1       21 0.12590071E+00 0.19063487E+03</pdfrwt>
<totfact> 0.82651121E+03</totfact>
</mgrwt>
</event>
<event>
 4    1  0.1116135E+000  0.2191111E+03  0.7546771E-02  0.1134548E+00
         21   -1    0    0  503  502  0.00000000000E+00  0.00000000000E+00  0.10609498749E+04  0.10609498749E+04  0.00000000000E+00 0.  1.
         21   -1    0    0  501  503 -0.00000000000E+00 -0.00000000000E+00 -0.10861017668E+03  0.10861017668E+03  0.00000000000E+00 0.  1.
          6    1    1    2  501    0  0.80870551094E+01 -0.13550004712E+03  0.29527366989E+02  0.22109167472E+03  0.17200000000E+03 0.  1.
         -6    1    1    2    0  502 -0.80870551094E+01  0.13550004712E+03  0.92281233126E+03  0.94846837689E+03  0.17200000000E+03 0.  1.
<mgrwt>
<rscale>  2 0.21911108E+03</rscale>
<asrwt>0</asrwt>
<pdfrwt beam="1">  1       21 0.26523744E+00 0.21911108E+03</pdfrwt>
<pdfrwt beam="2">  1       21 0.27152547E-01 0.21911108E+03</pdfrwt>
<totfact> 0.67759821E+02</totfact>
</mgrwt>
</event>
<event>
 4    1  0.1116135E+000  0.2446710E+03  0.7546771E-02  0.1116720E+00
         21   -1    0    0  501  502  0.00000000000E+00  0.00000000000E+00  0.11226658344E+03  0.11226658344E+03  0.00000000000E+00 0. -1.
         21   -1    0    0  502  503 -0.00000000000E+00 -0.00000000000E+00 -0.82746115222E+03  0.82746115222E+03  0.00000000000E+00 0. -1.
          6    1    1    2  501    0  0.12825835180E+03  0.11759970312E+03 -0.77413711268E+02  0.25662575411E+03  0.17200000000E+03 0. -1.
         -6    1    1    2    0  503 -0.12825835180E+03 -0.11759970312E+03 -0.63778085751E+03  0.68310198154E+03  0.17200000000E+03 0. -1.
<mgrwt>
<rscale>  2 0.24467099E+03</rscale>
<asrwt>0</asrwt>
<pdfrwt beam="1">  1       21 0.28066647E-01 0.24467099E+03</pdfrwt>
<pdfrwt beam="2">  1       21 0.20686528E+00 0.24467099E+03</pdfrwt>
<totfact> 0.13988072E+03</totfact>
</mgrwt>
</event>
<event>
 4    1  0.1116135E+000  0.1750186E+03  0.7546771E-02  0.1172713E+00
         21   -1    0    0  501  502  0.00000000000E+00  0.00000000000E+00  0.32169692329E+03  0.32169692329E+03  0.00000000000E+00 0. -1.
         21   -1    0    0  502  503 -0.00000000000E+00 -0.00000000000E+00 -0.24296147850E+03  0.24296147850E+03  0.00000000000E+00 0. -1.
          6    1    1    2  501    0  0.29861187859E+02  0.12482486222E+02  0.25952877477E+03  0.31302825421E+03  0.17200000000E+03 0. -1.
         -6    1    1    2    0  503 -0.29861187859E+02 -0.12482486222E+02 -0.18079332998E+03  0.25163014757E+03  0.17200000000E+03 0. -1.
<mgrwt>
<rscale>  2 0.17501858E+03</rscale>
<asrwt>0</asrwt>
<pdfrwt beam="1">  1       21 0.80424230E-01 0.17501858E+03</pdfrwt>
<pdfrwt beam="2">  1       21 0.60740370E-01 0.17501858E+03</pdfrwt>
<totfact> 0.34820603E+03</totfact>
</mgrwt>
</event>
<event>
 4    1  0.1116135E+000  0.2333658E+03  0.7546771E-02  0.1124293E+00
         21   -1    0    0  503  502  0.00000000000E+00  0.00000000000E+00  0.89656304426E+02  0.89656304426E+02  0.00000000000E+00 0.  1.
         21   -1    0    0  501  503 -0.00000000000E+00 -0.00000000000E+00 -0.96786419533E+03  0.96786419533E+03  0.00000000000E+00 0.  1.
          6    1    1    2  501    0  0.14743346948E+03 -0.56026602973E+02 -0.76177999880E+03  0.79672352465E+03  0.17200000000E+03 0.  1.
         -6    1    1    2    0  502 -0.14743346948E+03  0.56026602973E+02 -0.11642789211E+03  0.26079697511E+03  0.17200000000E+03 0.  1.
<mgrwt>
<rscale>  2 0.23336582E+03</rscale>
<asrwt>0</asrwt>
<pdfrwt beam="1">  1       21 0.22414076E-01 0.23336582E+03</pdfrwt>
<pdfrwt beam="2">  1       21 0.24196605E+00 0.23336582E+03</pdfrwt>
<totfact> 0.13220684E+03</totfact>
</mgrwt>
</event>
<event>
 4    1  0.1116135E+000  0.1808057E+03  0.7546771E-02  0.1167026E+00
         21   -1    0    0  503  502  0.00000000000E+00  0.00000000000E+00  0.79105891513E+03  0.79105891513E+03  0.00000000000E+00 0. -1.
         21   -1    0    0  501  503 -0.00000000000E+00 -0.00000000000E+00 -0.90935015430E+02  0.90935015430E+02  0.00000000000E+00 0. -1.
          6    1    1    2  501    0  0.92521711809E+01  0.54964447870E+02  0.24334998888E+02  0.18243597609E+03  0.17200000000E+03 0. -1.
         -6    1    1    2    0  502 -0.92521711809E+01 -0.54964447870E+02  0.67578890081E+03  0.69955795447E+03  0.17200000000E+03 0. -1.
<mgrwt>
<rscale>  2 0.18080568E+03</rscale>
<asrwt>0</asrwt>
<pdfrwt beam="1">  1       21 0.19776471E+00 0.18080568E+03</pdfrwt>
<pdfrwt beam="2">  1       21 0.22733756E-01 0.18080568E+03</pdfrwt>
<totfact> 0.25492208E+03</totfact>
</mgrwt>
</event>
<event>
 4    1  0.1116135E+000  0.1987406E+03  0.7546771E-02  0.1150806E+00
         21   -1    0    0  501  502  0.00000000000E+00  0.00000000000E+00  0.23348666370E+03  0.23348666370E+03  0.00000000000E+00 0. -1.
         21   -1    0    0  502  503 -0.00000000000E+00 -0.00000000000E+00 -0.27462763366E+03  0.27462763366E+03  0.00000000000E+00 0.  1.
          6    1    1    2  501    0  0.97905111017E+02  0.18122753592E+02  0.13686693364E+03  0.24130976459E+03  0.17200000000E+03 0. -1.
         -6    1    1    2    0  503 -0.97905111017E+02 -0.18122753592E+02 -0.17800790360E+03  0.26680453277E+03  0.17200000000E+03 0.  1.
<mgrwt>
<rscale>  2 0.19874065E+03</rscale>
<asrwt>0</asrwt>
<pdfrwt beam="1">  1       21 0.58371666E-01 0.19874065E+03</pdfrwt>
<pdfrwt beam="2">  1       21 0.68656908E-01 0.19874065E+03</pdfrwt>
<totfact> 0.52896962E+03</totfact>
</mgrwt>
</event>
<event>
 4    1  0.1116135E+000  0.2640375E+03  0.7546771E-02  0.1104741E+00
         21   -1    0    0  501  502  0.00000000000E+00  0.00000000000E+00  0.56743965884E+03  0.56743965884E+03  0.00000000000E+00 0. -1.
         21   -1    0    0  502  503 -0.00000000000E+00 -0.00000000000E+00 -0.13178656224E+03  0.13178656224E+03  0.00000000000E+00 0.  1.
          6    1    1    2  501    0 -0.18943469177E+03 -0.65163520899E+02  0.30881532290E+03  0.40630369253E+03  0.17200000000E+03 0.  1.
         -6    1    1    2    0  503  0.18943469177E+03  0.65163520899E+02  0.12683777370E+03  0.29292252856E+03  0.17200000000E+03 0. -1.
<mgrwt>
<rscale>  2 0.26403747E+03</rscale>
<asrwt>0</asrwt>
<pdfrwt beam="1">  1       21 0.14185991E+00 0.26403747E+03</pdfrwt>
<pdfrwt beam="2">  1       21 0.32946642E-01 0.26403747E+03</pdfrwt>
<totfact> 0.29003550E+03</totfact>
</mgrwt>
</event>
<event>
 4    1  0.1116135E+000  0.1818954E+03  0.7546771E-02  0.1165981E+00
         21   -1    0    0  501  502  0.00000000000E+00  0.00000000000E+00  0.26497999855E+03  0.26497999855E+03  0.00000000000E+00 0. -1.
         21   -1    0    0  502  503 -0.00000000000E+00 -0.00000000000E+00 -0.19293655423E+03  0.19293655423E+03  0.00000000000E+00 0.  1.
          6    1    1    2  501    0 -0.56668522354E+02  0.17047517235E+02  0.17202250574E+03  0.25035511129E+03  0.17200000000E+03 0. -1.
         -6    1    1    2    0  503  0.56668522354E+02 -0.17047517235E+02 -0.99979061423E+02  0.20756144149E+03  0.17200000000E+03 0.  1.
<mgrwt>
<rscale>  2 0.18189541E+03</rscale>
<asrwt>0</asrwt>
<pdfrwt beam="1">  1       21 0.66244999E-01 0.18189541E+03</pdfrwt>
<pdfrwt beam="2">  1       21 0.48234139E-01 0.18189541E+03</pdfrwt>
<totfact> 0.86530210E+03</totfact>
</mgrwt>
</event>
<event>
 4    1  0.1116135E+000  0.1917211E+03  0.7546771E-02  0.1156918E+00
         21   -1    0    0  501  502  0.00000000000E+00  0.00000000000E+00  0.26274072198E+03  0.26274072198E+03  0.00000000000E+00 0. -1.
         21   -1    0    0  502  503 -0.00000000000E+00 -0.00000000000E+00 -0.14083197466E+03  0.14083197466E+03  0.00000000000E+00 0.  1.
          6    1    1    2  501    0 -0.45155617564E+02  0.71651481380E+02  0.44523793965E+02  0.19682310030E+03  0.17200000000E+03 0.  1.
         -6    1    1    2    0  503  0.45155617564E+02 -0.71651481380E+02  0.77384953362E+02  0.20674959634E+03  0.17200000000E+03 0.  1.
<mgrwt>
<rscale>  2 0.19172106E+03</rscale>
<asrwt>0</asrwt>
<pdfrwt beam="1">  1       21 0.65685180E-01 0.19172106E+03</pdfrwt>
<pdfrwt beam="2">  1       21 0.35207994E-01 0.19172106E+03</pdfrwt>
<totfact> 0.16578223E+04</totfact>
</mgrwt>
</event>
<event>
 4    1  0.1116135E+000  0.2105577E+03  0.7546771E-02  0.1141125E+00
         21   -1    0    0  501  502  0.00000000000E+00  0.00000000000E+00  0.12400871580E+03  0.12400871580E+03  0.00000000000E+00 0.  1.
         21   -1    0    0  502  503 -0.00000000000E+00 -0.00000000000E+00 -0.35833308105E+03  0.35833308105E+03  0.00000000000E+00 0.  1.
          6    1    1    2  501    0  0.11859629451E+03  0.26181593414E+02 -0.10561503048E+03  0.23556122679E+03  0.17200000000E+03 0.  1.
         -6    1    1    2    0  503 -0.11859629451E+03 -0.26181593414E+02 -0.12870933477E+03  0.24678057006E+03  0.17200000000E+03 0.  1.
<mgrwt>
<rscale>  2 0.21055773E+03</rscale>
<asrwt>0</asrwt>
<pdfrwt beam="1">  1       21 0.31002179E-01 0.21055773E+03</pdfrwt>
<pdfrwt beam="2">  1       21 0.89583270E-01 0.21055773E+03</pdfrwt>
<totfact> 0.10483658E+04</totfact>
</mgrwt>
</event>
<event>
 4    1  0.1116135E+000  0.2047651E+03  0.7546771E-02  0.1145780E+00
         21   -1    0    0  501  502  0.00000000000E+00  0.00000000000E+00  0.38692206340E+03  0.38692206340E+03  0.00000000000E+00 0. -1.
         21   -1    0    0  502  503 -0.00000000000E+00 -0.00000000000E+00 -0.10870213536E+03  0.10870213536E+03  0.00000000000E+00 0. -1.
          6    1    1    2  501    0 -0.91876662901E+02 -0.62477533668E+02  0.12530668758E+03  0.24006359439E+03  0.17200000000E+03 0.  1.
         -6    1    1    2    0  503  0.91876662901E+02  0.62477533668E+02  0.15291324046E+03  0.25556060437E+03  0.17200000000E+03 0.  1.
<mgrwt>
<rscale>  2 0.20476514E+03</rscale>
<asrwt>0</asrwt>
<pdfrwt beam="1">  1       21 0.96730513E-01 0.20476514E+03</pdfrwt>
<pdfrwt beam="2">  1       21 0.27175535E-01 0.20476514E+03</pdfrwt>
<totfact> 0.11366078E+04</totfact>
</mgrwt>
</event>
<event>
 4    1  0.1116135E+000  0.3336095E+03  0.7546771E-02  0.1069551E+00
         21   -1    0    0  503  502  0.00000000000E+00  0.00000000000E+00  0.61330224454E+03  0.61330224454E+03  0.00000000000E+00 0.  1.
         21   -1    0    0  501  503 -0.00000000000E+00 -0.00000000000E+00 -0.27011474967E+03  0.27011474967E+03  0.00000000000E+00 0. -1.
          6    1    1    2  501    0 -0.28346146858E+03 -0.36890268160E+02  0.42463466759E+03  0.54000916378E+03  0.17200000000E+03 0. -1.
         -6    1    1    2    0  502  0.28346146858E+03  0.36890268160E+02 -0.81447172717E+02  0.34340783042E+03  0.17200000000E+03 0. -1.
<mgrwt>
<rscale>  2 0.33360950E+03</rscale>
<asrwt>0</asrwt>
<pdfrwt beam="1">  1       21 0.15332556E+00 0.33360950E+03</pdfrwt>
<pdfrwt beam="2">  1       21 0.67528688E-01 0.33360950E+03</pdfrwt>
<totfact> 0.50121776E+02</totfact>
</mgrwt>
</event>
<event>
 4    1  0.1116135E+000  0.2071842E+03  0.7546771E-02  0.1143815E+00
         21   -1    0    0  501  502  0.00000000000E+00  0.00000000000E+00  0.64009343623E+03  0.64009343623E+03  0.00000000000E+00 0. -1.
         21   -1    0    0  502  503 -0.00000000000E+00 -0.00000000000E+00 -0.16782324065E+03  0.16782324065E+03  0.00000000000E+00 0.  1.
          6    1    1    2  501    0 -0.11395862886E+03  0.18834295188E+02  0.54914599298E+03  0.58692982662E+03  0.17200000000E+03 0. -1.
         -6    1    1    2    0  503  0.11395862886E+03 -0.18834295188E+02 -0.76875797403E+02  0.22098685027E+03  0.17200000000E+03 0.  1.
<mgrwt>
<rscale>  2 0.20718422E+03</rscale>
<asrwt>0</asrwt>
<pdfrwt beam="1">  1       21 0.16002335E+00 0.20718422E+03</pdfrwt>
<pdfrwt beam="2">  1       21 0.41955812E-01 0.20718422E+03</pdfrwt>
<totfact> 0.13558086E+03</totfact>
</mgrwt>
</event>
<event>
 4    1  0.1116135E+000  0.1837884E+03  0.7546771E-02  0.1164186E+00
         21   -1    0    0  501  502  0.00000000000E+00  0.00000000000E+00  0.20888535851E+03  0.20888535851E+03  0.00000000000E+00 0. -1.
         21   -1    0    0  502  503 -0.00000000000E+00 -0.00000000000E+00 -0.16227727221E+03  0.16227727221E+03  0.00000000000E+00 0. -1.
          6    1    1    2  501    0 -0.90473979910E+01 -0.64127346185E+02  0.12300245355E+02  0.18419953305E+03  0.17200000000E+03 0. -1.
         -6    1    1    2    0  503  0.90473979910E+01  0.64127346185E+02  0.34307840941E+02  0.18696309767E+03  0.17200000000E+03 0. -1.
<mgrwt>
<rscale>  2 0.18378839E+03</rscale>
<asrwt>0</asrwt>
<pdfrwt beam="1">  1       21 0.52221339E-01 0.18378839E+03</pdfrwt>
<pdfrwt beam="2">  1       21 0.40569318E-01 0.18378839E+03</pdfrwt>
<totfact> 0.20473278E+04</totfact>
</mgrwt>
</event>
<event>
 4    1  0.1116135E+000  0.1881740E+03  0.7546771E-02  0.1160119E+00
         21   -1    0    0  503  502  0.00000000000E+00  0.00000000000E+00  0.31083214405E+03  0.31083214405E+03  0.00000000000E+00 0. -1.
         21   -1    0    0  501  503 -0.00000000000E+00 -0.00000000000E+00 -0.12042236023E+03  0.12042236023E+03  0.00000000000E+00 0.  1.
          6    1    1    2  501    0 -0.35929319273E+02  0.67339093045E+02  0.14531696370E+03  0.23775300077E+03  0.17200000000E+03 0. -1.
         -6    1    1    2    0  502  0.35929319273E+02 -0.67339093045E+02  0.45092820126E+02  0.19350150351E+03  0.17200000000E+03 0.  1.
<mgrwt>
<rscale>  2 0.18817404E+03</rscale>
<asrwt>0</asrwt>
<pdfrwt beam="1">  1       21 0.77708034E-01 0.18817404E+03</pdfrwt>
<pdfrwt beam="2">  1       21 0.30105591E-01 0.18817404E+03</pdfrwt>
<totfact> 0.15585760E+04</totfact>
</mgrwt>
</event>
<event>
 4    1  0.1116135E+000  0.1944965E+03  0.7546771E-02  0.1154467E+00
         21   -1    0    0  503  502  0.00000000000E+00  0.00000000000E+00  0.46359255817E+03  0.46359255817E+03  0.00000000000E+00 0.  1.
         21   -1    0    0  501  503 -0.00000000000E+00 -0.00000000000E+00 -0.85775090334E+02  0.85775090334E+02  0.00000000000E+00 0. -1.
          6    1    1    2  501    0  0.79204426731E+02  0.44401915623E+02  0.24951492653E+03  0.31636461541E+03  0.17200000000E+03 0.  1.
         -6    1    1    2    0  502 -0.79204426731E+02 -0.44401915623E+02  0.12830254131E+03  0.23300303310E+03  0.17200000000E+03 0. -1.
<mgrwt>
<rscale>  2 0.19449646E+03</rscale>
<asrwt>0</asrwt>
<pdfrwt beam="1">  1       21 0.11589813E+00 0.19449646E+03</pdfrwt>
<pdfrwt beam="2">  1       21 0.21443774E-01 0.19449646E+03</pdfrwt>
<totfact> 0.11637711E+04</totfact>
</mgrwt>
</event>
<event>
 4    1  0.1116135E+000  0.1884070E+03  0.7546771E-02  0.1159906E+00
         21   -1    0    0  503  502  0.00000000000E+00  0.00000000000E+00  0.11205365744E+03  0.11205365744E+03  0.00000000000E+00 0. -1.
         21   -1    0    0  501  503 -0.00000000000E+00 -0.00000000000E+00 -0.68253034203E+03  0.68253034203E+03  0.00000000000E+00 0. -1.
          6    1    1    2  501    0  0.68474892414E+02  0.34991195027E+02 -0.57606671545E+03  0.60609409771E+03  0.17200000000E+03 0. -1.
         -6    1    1    2    0  502 -0.68474892414E+02 -0.34991195027E+02  0.55900308674E+01  0.18848990176E+03  0.17200000000E+03 0. -1.
<mgrwt>
<rscale>  2 0.18840699E+03</rscale>
<asrwt>0</asrwt>
<pdfrwt beam="1">  1       21 0.28013415E-01 0.18840699E+03</pdfrwt>
<pdfrwt beam="2">  1       21 0.17063258E+00 0.18840699E+03</pdfrwt>
<totfact> 0.25814835E+03</totfact>
</mgrwt>
</event>
<event>
 4    1  0.1116135E+000  0.2281389E+03  0.7546771E-02  0.1127957E+00
         21   -1    0    0  503  502  0.00000000000E+00  0.00000000000E+00  0.12846016874E+03  0.12846016874E+03  0.00000000000E+00 0. -1.
         21   -1    0    0  501  503 -0.00000000000E+00 -0.00000000000E+00 -0.69264375868E+03  0.69264375868E+03  0.00000000000E+00 0. -1.
          6    1    1    2  501    0  0.14971274108E+03 -0.70314508667E+01 -0.54658671435E+03  0.59228741540E+03  0.17200000000E+03 0. -1.
         -6    1    1    2    0  502 -0.14971274108E+03  0.70314508667E+01 -0.17596875588E+02  0.22881651202E+03  0.17200000000E+03 0. -1.
<mgrwt>
<rscale>  2 0.22813887E+03</rscale>
<asrwt>0</asrwt>
<pdfrwt beam="1">  1       21 0.32115043E-01 0.22813887E+03</pdfrwt>
<pdfrwt beam="2">  1       21 0.17316094E+00 0.22813887E+03</pdfrwt>
<totfact> 0.18290939E+03</totfact>
</mgrwt>
</event>
<event>
 4    1  0.1116135E+000  0.2500186E+03  0.7546771E-02  0.1113293E+00
         21   -1    0    0  503  502  0.00000000000E+00  0.00000000000E+00  0.22015979494E+03  0.22015979494E+03  0.00000000000E+00 0.  1.
         21   -1    0    0  501  503 -0.00000000000E+00 -0.00000000000E+00 -0.37086288959E+03  0.37086288959E+03  0.00000000000E+00 0.  1.
          6    1    1    2  501    0  0.90745927154E+02  0.15713201867E+03  0.67724585396E+02  0.25902879001E+03  0.17200000000E+03 0.  1.
         -6    1    1    2    0  502 -0.90745927154E+02 -0.15713201867E+03 -0.21842768005E+03  0.33199389452E+03  0.17200000000E+03 0.  1.
<mgrwt>
<rscale>  2 0.25001859E+03</rscale>
<asrwt>0</asrwt>
<pdfrwt beam="1">  1       21 0.55039949E-01 0.25001859E+03</pdfrwt>
<pdfrwt beam="2">  1       21 0.92715721E-01 0.25001859E+03</pdfrwt>
<totfact> 0.29218405E+03</totfact>
</mgrwt>
</event>
<event>
 4    1  0.1116135E+000  0.1904514E+03  0.7546771E-02  0.1158055E+00
         21   -1    0    0  501  502  0.00000000000E+00  0.00000000000E+00  0.13517141528E+03  0.13517141528E+03  0.00000000000E+00 0. -1.
         21   -1    0    0  502  503 -0.00000000000E+00 -0.00000000000E+00 -0.47045862858E+03  0.47045862858E+03  0.00000000000E+00 0. -1.
          6    1    1    2  501    0 -0.56625126199E+02  0.59002859405E+02  0.30838381633E+02  0.19293197795E+03  0.17200000000E+03 0. -1.
         -6    1    1    2    0  503  0.56625126199E+02 -0.59002859405E+02 -0.36612559493E+03  0.41269806590E+03  0.17200000000E+03 0. -1.
<mgrwt>
<rscale>  2 0.19045142E+03</rscale>
<asrwt>0</asrwt>
<pdfrwt beam="1">  1       21 0.33792854E-01 0.19045142E+03</pdfrwt>
<pdfrwt beam="2">  1       21 0.11761466E+00 0.19045142E+03</pdfrwt>
<totfact> 0.46898812E+03</totfact>
</mgrwt>
</event>
<event>
 4    1  0.1116135E+000  0.1999454E+03  0.7546771E-02  0.1149785E+00
         21   -1    0    0  503  502  0.00000000000E+00  0.00000000000E+00  0.12938615516E+03  0.12938615516E+03  0.00000000000E+00 0.  1.
         21   -1    0    0  501  503 -0.00000000000E+00 -0.00000000000E+00 -0.70157169352E+03  0.70157169352E+03  0.00000000000E+00 0. -1.
          6    1    1    2  501    0 -0.10184622638E+03 -0.46397674164E+01 -0.59689319969E+03  0.62949159891E+03  0.17200000000E+03 0. -1.
         -6    1    1    2    0  502  0.10184622638E+03  0.46397674164E+01  0.24707661322E+02  0.20146624977E+03  0.17200000000E+03 0.  1.
<mgrwt>
<rscale>  2 0.19994545E+03</rscale>
<asrwt>0</asrwt>
<pdfrwt beam="1">  1       21 0.32346539E-01 0.19994545E+03</pdfrwt>
<pdfrwt beam="2">  1       21 0.17539292E+00 0.19994545E+03</pdfrwt>
<totfact> 0.17864029E+03</totfact>
</mgrwt>
</event>
<event>
 4    1  0.1116135E+000  0.1978922E+03  0.7546771E-02  0.1151530E+00
         21   -1    0    0  501  502  0.00000000000E+00  0.00000000000E+00  0.48196481076E+02  0.48196481076E+02  0.00000000000E+00 0.  1.
         21   -1    0    0  502  503 -0.00000000000E+00 -0.00000000000E+00 -0.84234967077E+03  0.84234967077E+03  0.00000000000E+00 0. -1.
          6    1    1    2  501    0  0.91741098597E+02 -0.34071797515E+02 -0.48084821811E+03  0.51997723548E+03  0.17200000000E+03 0. -1.
         -6    1    1    2    0  503 -0.91741098597E+02  0.34071797515E+02 -0.31330497158E+03  0.37056891637E+03  0.17200000000E+03 0.  1.
<mgrwt>
<rscale>  2 0.19789218E+03</rscale>
<asrwt>0</asrwt>
<pdfrwt beam="1">  1       21 0.12049120E-01 0.19789218E+03</pdfrwt>
<pdfrwt beam="2">  1       21 0.21058741E+00 0.19789218E+03</pdfrwt>
<totfact> 0.66710112E+03</totfact>
</mgrwt>
</event>
<event>
 4    1  0.1116135E+000  0.1895386E+03  0.7546771E-02  0.1158878E+00
         21   -1    0    0  501  502  0.00000000000E+00  0.00000000000E+00  0.10279095697E+04  0.10279095697E+04  0.00000000000E+00 0. -1.
         21   -1    0    0  502  503 -0.00000000000E+00 -0.00000000000E+00 -0.35964419369E+02  0.35964419369E+02  0.00000000000E+00 0.  1.
          6    1    1    2  501    0  0.27365552879E+02  0.74779702194E+02  0.40661127822E+03  0.44861744161E+03  0.17200000000E+03 0.  1.
         -6    1    1    2    0  503 -0.27365552879E+02 -0.74779702194E+02  0.58533387210E+03  0.61525654745E+03  0.17200000000E+03 0.  1.
<mgrwt>
<rscale>  2 0.18953859E+03</rscale>
<asrwt>0</asrwt>
<pdfrwt beam="1">  1       21 0.25697730E+00 0.18953859E+03</pdfrwt>
<pdfrwt beam="2">  1       21 0.89911082E-02 0.18953859E+03</pdfrwt>
<totfact> 0.59409757E+03</totfact>
</mgrwt>
</event>
<event>
 4    1  0.1116135E+000  0.2011573E+03  0.7546771E-02  0.1148766E+00
         21   -1    0    0  503  502  0.00000000000E+00  0.00000000000E+00  0.11926190107E+03  0.11926190107E+03  0.00000000000E+00 0.  1.
         21   -1    0    0  501  503 -0.00000000000E+00 -0.00000000000E+00 -0.41120899274E+03  0.41120899274E+03  0.00000000000E+00 0.  1.
          6    1    1    2  501    0 -0.87090302205E+02  0.57406674942E+02 -0.25689745924E+03  0.32628293187E+03  0.17200000000E+03 0.  1.
         -6    1    1    2    0  502  0.87090302205E+02 -0.57406674942E+02 -0.35049632433E+02  0.20418796194E+03  0.17200000000E+03 0.  1.
<mgrwt>
<rscale>  2 0.20115727E+03</rscale>
<asrwt>0</asrwt>
<pdfrwt beam="1">  1       21 0.29815476E-01 0.20115727E+03</pdfrwt>
<pdfrwt beam="2">  1       21 0.10280225E+00 0.20115727E+03</pdfrwt>
<totfact> 0.82379707E+03</totfact>
</mgrwt>
</event>
<event>
 4    1  0.1116135E+000  0.3127928E+03  0.7546771E-02  0.1079015E+00
         21   -1    0    0  501  502  0.00000000000E+00  0.00000000000E+00  0.65531123695E+03  0.65531123695E+03  0.00000000000E+00 0.  1.
         21   -1    0    0  502  503 -0.00000000000E+00 -0.00000000000E+00 -0.16931064189E+03  0.16931064189E+03  0.00000000000E+00 0. -1.
          6    1    1    2  501    0  0.11291675523E+03 -0.23559527926E+03  0.38473973078E+03  0.49584674009E+03  0.17200000000E+03 0. -1.
         -6    1    1    2    0  503 -0.11291675523E+03  0.23559527926E+03  0.10126086428E+03  0.32877513874E+03  0.17200000000E+03 0.  1.
<mgrwt>
<rscale>  2 0.31279279E+03</rscale>
<asrwt>0</asrwt>
<pdfrwt beam="1">  1       21 0.16382780E+00 0.31279279E+03</pdfrwt>
<pdfrwt beam="2">  1       21 0.42327662E-01 0.31279279E+03</pdfrwt>
<totfact> 0.11490190E+03</totfact>
</mgrwt>
</event>
<event>
 4    1  0.1116135E+000  0.5147390E+03  0.7546771E-02  0.1010002E+00
         21   -1    0    0  501  502  0.00000000000E+00  0.00000000000E+00  0.53889307048E+03  0.53889307048E+03  0.00000000000E+00 0. -1.
         21   -1    0    0  502  503 -0.00000000000E+00 -0.00000000000E+00 -0.49934927440E+03  0.49934927440E+03  0.00000000000E+00 0.  1.
          6    1    1    2  501    0 -0.28591366642E+03 -0.39195106063E+03  0.84158379054E+02  0.52157347646E+03  0.17200000000E+03 0. -1.
         -6    1    1    2    0  503  0.28591366642E+03  0.39195106063E+03 -0.44614582972E+02  0.51666886842E+03  0.17200000000E+03 0.  1.
<mgrwt>
<rscale>  2 0.51473902E+03</rscale>
<asrwt>0</asrwt>
<pdfrwt beam="1">  1       21 0.13472327E+00 0.51473902E+03</pdfrwt>
<pdfrwt beam="2">  1       21 0.12483732E+00 0.51473902E+03</pdfrwt>
<totfact> 0.14862226E+02</totfact>
</mgrwt>
</event>
<event>
 4    1  0.1116135E+000  0.2199750E+03  0.7546771E-02  0.1133902E+00
         21   -1    0    0  501  502  0.00000000000E+00  0.00000000000E+00  0.90441025849E+03  0.90441025849E+03  0.00000000000E+00 0. -1.
         21   -1    0    0  502  503 -0.00000000000E+00 -0.00000000000E+00 -0.13963308396E+03  0.13963308396E+03  0.00000000000E+00 0. -1.
          6    1    1    2  501    0 -0.13179731437E+02  0.13649642581E+03  0.79237637237E+03  0.82234378156E+03  0.17200000000E+03 0. -1.
         -6    1    1    2    0  503  0.13179731437E+02 -0.13649642581E+03 -0.27599197836E+02  0.22169956089E+03  0.17200000000E+03 0. -1.
<mgrwt>
<rscale>  2 0.21997495E+03</rscale>
<asrwt>0</asrwt>
<pdfrwt beam="1">  1       21 0.22610255E+00 0.21997495E+03</pdfrwt>
<pdfrwt beam="2">  1       21 0.34908274E-01 0.21997495E+03</pdfrwt>
<totfact> 0.70756996E+02</totfact>
</mgrwt>
</event>
<event>
 4    1  0.1116135E+000  0.1910147E+03  0.7546771E-02  0.1157549E+00
         21   -1    0    0  503  502  0.00000000000E+00  0.00000000000E+00  0.32736195038E+03  0.32736195038E+03  0.00000000000E+00 0.  1.
         21   -1    0    0  501  503 -0.00000000000E+00 -0.00000000000E+00 -0.16535685773E+03  0.16535685773E+03  0.00000000000E+00 0. -1.
          6    1    1    2  501    0 -0.50538727569E+02 -0.65942745733E+02 -0.59652062777E+02  0.20011241164E+03  0.17200000000E+03 0. -1.
         -6    1    1    2    0  502  0.50538727569E+02  0.65942745733E+02  0.22165715543E+03  0.29260639647E+03  0.17200000000E+03 0. -1.
<mgrwt>
<rscale>  2 0.19101468E+03</rscale>
<asrwt>0</asrwt>
<pdfrwt beam="1">  1       21 0.81840487E-01 0.19101468E+03</pdfrwt>
<pdfrwt beam="2">  1       21 0.41339215E-01 0.19101468E+03</pdfrwt>
<totfact> 0.73699165E+03</totfact>
</mgrwt>
</event>
<event>
 4    1  0.1116135E+000  0.3082251E+03  0.7546771E-02  0.1081200E+00
         21   -1    0    0  501  502  0.00000000000E+00  0.00000000000E+00  0.21245239360E+03  0.21245239360E+03  0.00000000000E+00 0.  1.
         21   -1    0    0  502  503 -0.00000000000E+00 -0.00000000000E+00 -0.57571578921E+03  0.57571578921E+03  0.00000000000E+00 0. -1.
          6    1    1    2  501    0 -0.10612970495E+02  0.25555047815E+03  0.45817392074E+01  0.30825910264E+03  0.17200000000E+03 0.  1.
         -6    1    1    2    0  503  0.10612970495E+02 -0.25555047815E+03 -0.36784513481E+03  0.47990908017E+03  0.17200000000E+03 0. -1.
<mgrwt>
<rscale>  2 0.30822505E+03</rscale>
<asrwt>0</asrwt>
<pdfrwt beam="1">  1       21 0.53113099E-01 0.30822505E+03</pdfrwt>
<pdfrwt beam="2">  1       21 0.14392895E+00 0.30822505E+03</pdfrwt>
<totfact> 0.10172373E+03</totfact>
</mgrwt>
</event>
<event>
 4    1  0.1116135E+000  0.1886880E+03  0.7546771E-02  0.1159650E+00
         21   -1    0    0  501  502  0.00000000000E+00  0.00000000000E+00  0.10552745271E+03  0.10552745271E+03  0.00000000000E+00 0.  1.
         21   -1    0    0  502  503 -0.00000000000E+00 -0.00000000000E+00 -0.12847701810E+04  0.12847701810E+04  0.00000000000E+00 0.  1.
          6    1    1    2  501    0 -0.45679839176E+02 -0.62709626408E+02  0.73161423560E+01  0.18882974048E+03  0.17200000000E+03 0.  1.
         -6    1    1    2    0  503  0.45679839176E+02  0.62709626408E+02 -0.11865588706E+04  0.12014678932E+04  0.17200000000E+03 0.  1.
<mgrwt>
<rscale>  2 0.18868796E+03</rscale>
<asrwt>0</asrwt>
<pdfrwt beam="1">  1       21 0.26381864E-01 0.18868796E+03</pdfrwt>
<pdfrwt beam="2">  1       21 0.32119254E+00 0.18868796E+03</pdfrwt>
<totfact> 0.35417844E+02</totfact>
</mgrwt>
</event>
<event>
 4    1  0.1116135E+000  0.1990959E+03  0.7546771E-02  0.1150504E+00
         21   -1    0    0  501  502  0.00000000000E+00  0.00000000000E+00  0.87180498901E+03  0.87180498901E+03  0.00000000000E+00 0.  1.
         21   -1    0    0  502  503 -0.00000000000E+00 -0.00000000000E+00 -0.60163568118E+02  0.60163568118E+02  0.00000000000E+00 0.  1.
          6    1    1    2  501    0  0.67229806878E+02  0.74399736765E+02  0.63612323793E+03  0.66655227972E+03  0.17200000000E+03 0.  1.
         -6    1    1    2    0  503 -0.67229806878E+02 -0.74399736765E+02  0.17551818296E+03  0.26541627741E+03  0.17200000000E+03 0.  1.
<mgrwt>
<rscale>  2 0.19909588E+03</rscale>
<asrwt>0</asrwt>
<pdfrwt beam="1">  1       21 0.21795121E+00 0.19909588E+03</pdfrwt>
<pdfrwt beam="2">  1       21 0.15040895E-01 0.19909588E+03</pdfrwt>
<totfact> 0.40167829E+03</totfact>
</mgrwt>
</event>
<event>
 4    1  0.1116135E+000  0.2144477E+03  0.7546771E-02  0.1138092E+00
         21   -1    0    0  501  502  0.00000000000E+00  0.00000000000E+00  0.21117710381E+03  0.21117710381E+03  0.00000000000E+00 0. -1.
         21   -1    0    0  502  503 -0.00000000000E+00 -0.00000000000E+00 -0.24341461176E+03  0.24341461176E+03  0.00000000000E+00 0.  1.
          6    1    1    2  501    0 -0.11135589288E+03 -0.63274706549E+02  0.57658904055E+02  0.22206389302E+03  0.17200000000E+03 0. -1.
         -6    1    1    2    0  503  0.11135589288E+03  0.63274706549E+02 -0.89896411998E+02  0.23252782255E+03  0.17200000000E+03 0.  1.
<mgrwt>
<rscale>  2 0.21444772E+03</rscale>
<asrwt>0</asrwt>
<pdfrwt beam="1">  1       21 0.52794276E-01 0.21444772E+03</pdfrwt>
<pdfrwt beam="2">  1       21 0.60853653E-01 0.21444772E+03</pdfrwt>
<totfact> 0.84189188E+03</totfact>
</mgrwt>
</event>
<event>
 4    1  0.1116135E+000  0.1822887E+03  0.7546771E-02  0.1165606E+00
         21   -1    0    0  501  502  0.00000000000E+00  0.00000000000E+00  0.24797638716E+03  0.24797638716E+03  0.00000000000E+00 0.  1.
         21   -1    0    0  502  503 -0.00000000000E+00 -0.00000000000E+00 -0.18613579844E+03  0.18613579844E+03  0.00000000000E+00 0.  1.
          6    1    1    2  501    0 -0.60267308787E+02  0.36077689618E+01  0.14579370684E+03  0.23342015650E+03  0.17200000000E+03 0.  1.
         -6    1    1    2    0  503  0.60267308787E+02 -0.36077689618E+01 -0.83953118117E+02  0.20069202911E+03  0.17200000000E+03 0.  1.
<mgrwt>
<rscale>  2 0.18228868E+03</rscale>
<asrwt>0</asrwt>
<pdfrwt beam="1">  1       21 0.61994097E-01 0.18228868E+03</pdfrwt>
<pdfrwt beam="2">  1       21 0.46533950E-01 0.18228868E+03</pdfrwt>
<totfact> 0.10756755E+04</totfact>
</mgrwt>
</event>
<event>
 4    1  0.1116135E+000  0.1957148E+03  0.7546771E-02  0.1153406E+00
         21   -1    0    0  503  502  0.00000000000E+00  0.00000000000E+00  0.10923156997E+03  0.10923156997E+03  0.00000000000E+00 0.  1.
         21   -1    0    0  501  503 -0.00000000000E+00 -0.00000000000E+00 -0.39550842147E+03  0.39550842147E+03  0.00000000000E+00 0.  1.
          6    1    1    2  501    0 -0.80304787226E+02  0.47659537398E+02 -0.22811173658E+03  0.30056489269E+03  0.17200000000E+03 0.  1.
         -6    1    1    2    0  502  0.80304787226E+02 -0.47659537398E+02 -0.58165114922E+02  0.20417509875E+03  0.17200000000E+03 0.  1.
<mgrwt>
<rscale>  2 0.19571482E+03</rscale>
<asrwt>0</asrwt>
<pdfrwt beam="1">  1       21 0.27307893E-01 0.19571482E+03</pdfrwt>
<pdfrwt beam="2">  1       21 0.98877105E-01 0.19571482E+03</pdfrwt>
<totfact> 0.10759044E+04</totfact>
</mgrwt>
</event>
<event>
 4    1  0.1116135E+000  0.2093439E+03  0.7546771E-02  0.1142087E+00
         21   -1    0    0  501  502  0.00000000000E+00  0.00000000000E+00  0.44082736811E+03  0.44082736811E+03  0.00000000000E+00 0. -1.
         21   -1    0    0  502  503 -0.00000000000E+00 -0.00000000000E+00 -0.10309688034E+03  0.10309688034E+03  0.00000000000E+00 0. -1.
          6    1    1    2  501    0  0.43765539673E+02 -0.11102009612E+03  0.22025970255E+03  0.30387369214E+03  0.17200000000E+03 0. -1.
         -6    1    1    2    0  503 -0.43765539673E+02  0.11102009612E+03  0.11747078522E+03  0.24005055631E+03  0.17200000000E+03 0. -1.
<mgrwt>
<rscale>  2 0.20934394E+03</rscale>
<asrwt>0</asrwt>
<pdfrwt beam="1">  1       21 0.11020684E+00 0.20934394E+03</pdfrwt>
<pdfrwt beam="2">  1       21 0.25774221E-01 0.20934394E+03</pdfrwt>
<totfact> 0.91794323E+03</totfact>
</mgrwt>
</event>
<event>
 4    1  0.1116135E+000  0.1769246E+03  0.7546771E-02  0.1170813E+00
         21   -1    0    0  503  502  0.00000000000E+00  0.00000000000E+00  0.13695812596E+03  0.13695812596E+03  0.00000000000E+00 0.  1.
         21   -1    0    0  501  503 -0.00000000000E+00 -0.00000000000E+00 -0.23304846810E+03  0.23304846810E+03  0.00000000000E+00 0.  1.
          6    1    1    2  501    0  0.20101758216E+02  0.36252266087E+02 -0.73737446118E+02  0.19167555514E+03  0.17200000000E+03 0.  1.
         -6    1    1    2    0  502 -0.20101758216E+02 -0.36252266087E+02 -0.22352896028E+02  0.17833103892E+03  0.17200000000E+03 0.  1.
<mgrwt>
<rscale>  2 0.17692458E+03</rscale>
<asrwt>0</asrwt>
<pdfrwt beam="1">  1       21 0.34239532E-01 0.17692458E+03</pdfrwt>
<pdfrwt beam="2">  1       21 0.58262117E-01 0.17692458E+03</pdfrwt>
<totfact> 0.22891660E+04</totfact>
</mgrwt>
</event>
<event>
 4    1  0.1116135E+000  0.1827910E+03  0.7546771E-02  0.1165129E+00
         21   -1    0    0  501  502  0.00000000000E+00  0.00000000000E+00  0.18244050119E+03  0.18244050119E+03  0.00000000000E+00 0.  1.
         21   -1    0    0  502  503 -0.00000000000E+00 -0.00000000000E+00 -0.25918061397E+03  0.25918061397E+03  0.00000000000E+00 0.  1.
          6    1    1    2  501    0 -0.61070417859E+02  0.99484108110E+01  0.81230971823E+02  0.20002759209E+03  0.17200000000E+03 0.  1.
         -6    1    1    2    0  503  0.61070417859E+02 -0.99484108110E+01 -0.15797108461E+03  0.24159352306E+03  0.17200000000E+03 0.  1.
<mgrwt>
<rscale>  2 0.18279105E+03</rscale>
<asrwt>0</asrwt>
<pdfrwt beam="1">  1       21 0.45610126E-01 0.18279105E+03</pdfrwt>
<pdfrwt beam="2">  1       21 0.64795153E-01 0.18279105E+03</pdfrwt>
<totfact> 0.10183990E+04</totfact>
</mgrwt>
</event>
<event>
 4    1  0.1116135E+000  0.3030494E+03  0.7546771E-02  0.1083726E+00
         21   -1    0    0  503  502  0.00000000000E+00  0.00000000000E+00  0.59765781857E+03  0.59765781857E+03  0.00000000000E+00 0.  1.
         21   -1    0    0  501  503 -0.00000000000E+00 -0.00000000000E+00 -0.15520682814E+03  0.15520682814E+03  0.00000000000E+00 0.  1.
          6    1    1    2  501    0 -0.84245040484E+02  0.23485674502E+03  0.18370316414E+03  0.35438082629E+03  0.17200000000E+03 0.  1.
         -6    1    1    2    0  502  0.84245040484E+02 -0.23485674502E+03  0.25874782629E+03  0.39848382042E+03  0.17200000000E+03 0.  1.
<mgrwt>
<rscale>  2 0.30304936E+03</rscale>
<asrwt>0</asrwt>
<pdfrwt beam="1">  1       21 0.14941445E+00 0.30304936E+03</pdfrwt>
<pdfrwt beam="2">  1       21 0.38801709E-01 0.30304936E+03</pdfrwt>
<totfact> 0.17750062E+03</totfact>
</mgrwt>
</event>
<event>
 4    1  0.1116135E+000  0.2286879E+03  0.7546771E-02  0.1127567E+00
         21   -1    0    0  501  502  0.00000000000E+00  0.00000000000E+00  0.35467031021E+03  0.35467031021E+03  0.00000000000E+00 0.  1.
         21   -1    0    0  502  503 -0.00000000000E+00 -0.00000000000E+00 -0.14772997642E+03  0.14772997642E+03  0.00000000000E+00 0. -1.
          6    1    1    2  501    0 -0.14977631286E+03 -0.16769761045E+02  0.92646917560E+02  0.24674201124E+03  0.17200000000E+03 0.  1.
         -6    1    1    2    0  503  0.14977631286E+03  0.16769761045E+02  0.11429341623E+03  0.25565827538E+03  0.17200000000E+03 0.  1.
<mgrwt>
<rscale>  2 0.22868793E+03</rscale>
<asrwt>0</asrwt>
<pdfrwt beam="1">  1       21 0.88667576E-01 0.22868793E+03</pdfrwt>
<pdfrwt beam="2">  1       21 0.36932495E-01 0.22868793E+03</pdfrwt>
<totfact> 0.74981713E+03</totfact>
</mgrwt>
</event>
<event>
 4    1  0.1116135E+000  0.1995110E+03  0.7546771E-02  0.1150152E+00
         21   -1    0    0  501  502  0.00000000000E+00  0.00000000000E+00  0.13305767219E+03  0.13305767219E+03  0.00000000000E+00 0.  1.
         21   -1    0    0  502  503 -0.00000000000E+00 -0.00000000000E+00 -0.30110703882E+03  0.30110703882E+03  0.00000000000E+00 0. -1.
          6    1    1    2  501    0  0.99095914772E+02 -0.20015636732E+02 -0.10151148670E+03  0.22385086100E+03  0.17200000000E+03 0.  1.
         -6    1    1    2    0  503 -0.99095914772E+02  0.20015636732E+02 -0.66537879931E+02  0.21031385000E+03  0.17200000000E+03 0.  1.
<mgrwt>
<rscale>  2 0.19951097E+03</rscale>
<asrwt>0</asrwt>
<pdfrwt beam="1">  1       21 0.33264418E-01 0.19951097E+03</pdfrwt>
<pdfrwt beam="2">  1       21 0.75276759E-01 0.19951097E+03</pdfrwt>
<totfact> 0.13661521E+04</totfact>
</mgrwt>
</event>
<event>
 4    1  0.1116135E+000  0.1919581E+03  0.7546771E-02  0.1156707E+00
         21   -1    0    0  503  502  0.00000000000E+00  0.00000000000E+00  0.30003782953E+03  0.30003782953E+03  0.00000000000E+00 0.  1.
         21   -1    0    0  501  503 -0.00000000000E+00 -0.00000000000E+00 -0.15785061383E+03  0.15785061383E+03  0.00000000000E+00 0.  1.
          6    1    1    2  501    0 -0.53144466336E+02  0.66630244389E+02 -0.36772910647E+02  0.19544863961E+03  0.17200000000E+03 0.  1.
         -6    1    1    2    0  502  0.53144466336E+02 -0.66630244389E+02  0.17896012635E+03  0.26243980375E+03  0.17200000000E+03 0.  1.
<mgrwt>
<rscale>  2 0.19195813E+03</rscale>
<asrwt>0</asrwt>
<pdfrwt beam="1">  1       21 0.75009457E-01 0.19195813E+03</pdfrwt>
<pdfrwt beam="2">  1       21 0.39462654E-01 0.19195813E+03</pdfrwt>
<totfact> 0.98444941E+03</totfact>
</mgrwt>
</event>
<event>
 4    1  0.1116135E+000  0.2011566E+03  0.7546771E-02  0.1148767E+00
         21   -1    0    0  503  502  0.00000000000E+00  0.00000000000E+00  0.93042169896E+02  0.93042169896E+02  0.00000000000E+00 0.  1.
         21   -1    0    0  501  503 -0.00000000000E+00 -0.00000000000E+00 -0.46747307652E+03  0.46747307652E+03  0.00000000000E+00 0. -1.
          6    1    1    2  501    0  0.25651350991E+02  0.10110374209E+03 -0.26119545581E+03  0.32967715209E+03  0.17200000000E+03 0. -1.
         -6    1    1    2    0  502 -0.25651350991E+02 -0.10110374209E+03 -0.11323545082E+03  0.23083809433E+03  0.17200000000E+03 0.  1.
<mgrwt>
<rscale>  2 0.20115655E+03</rscale>
<asrwt>0</asrwt>
<pdfrwt beam="1">  1       21 0.23260543E-01 0.20115655E+03</pdfrwt>
<pdfrwt beam="2">  1       21 0.11686827E+00 0.20115655E+03</pdfrwt>
<totfact> 0.97325375E+03</totfact>
</mgrwt>
</event>
<event>
 4    1  0.1116135E+000  0.1942277E+03  0.7546771E-02  0.1154703E+00
         21   -1    0    0  503  502  0.00000000000E+00  0.00000000000E+00  0.43620388494E+03  0.43620388494E+03  0.00000000000E+00 0. -1.
         21   -1    0    0  501  503 -0.00000000000E+00 -0.00000000000E+00 -0.99071975220E+02  0.99071975220E+02  0.00000000000E+00 0.  1.
          6    1    1    2  501    0  0.54832465896E+02  0.71650528668E+02  0.73163304078E+02  0.20755063632E+03  0.17200000000E+03 0.  1.
         -6    1    1    2    0  502 -0.54832465896E+02 -0.71650528668E+02  0.26396860564E+03  0.32772522384E+03  0.17200000000E+03 0. -1.
<mgrwt>
<rscale>  2 0.19422770E+03</rscale>
<asrwt>0</asrwt>
<pdfrwt beam="1">  1       21 0.10905097E+00 0.19422770E+03</pdfrwt>
<pdfrwt beam="2">  1       21 0.24767995E-01 0.19422770E+03</pdfrwt>
<totfact> 0.10272196E+04</totfact>
</mgrwt>
</event>
<event>
 4    1  0.1116135E+000  0.1721819E+03  0.7546771E-02  0.1175591E+00
         21   -1    0    0  503  502  0.00000000000E+00  0.00000000000E+00  0.51917756923E+03  0.51917756923E+03  0.00000000000E+00 0.  1.
         21   -1    0    0  501  503 -0.00000000000E+00 -0.00000000000E+00 -0.57891628313E+02  0.57891628313E+02  0.00000000000E+00 0.  1.
          6    1    1    2  501    0 -0.75375964434E+01  0.24063794880E+01  0.26431903029E+03  0.31545388854E+03  0.17200000000E+03 0. -1.
         -6    1    1    2    0  502  0.75375964434E+01 -0.24063794880E+01  0.19696691063E+03  0.26161530900E+03  0.17200000000E+03 0. -1.
<mgrwt>
<rscale>  2 0.17218190E+03</rscale>
<asrwt>0</asrwt>
<pdfrwt beam="1">  1       21 0.12979438E+00 0.17218190E+03</pdfrwt>
<pdfrwt beam="2">  1       21 0.14472909E-01 0.17218190E+03</pdfrwt>
<totfact> 0.18420236E+04</totfact>
</mgrwt>
</event>
<event>
 4    1  0.1116135E+000  0.1758272E+03  0.7546771E-02  0.1171904E+00
         21   -1    0    0  503  502  0.00000000000E+00  0.00000000000E+00  0.68434309116E+02  0.68434309116E+02  0.00000000000E+00 0.  1.
         21   -1    0    0  501  503 -0.00000000000E+00 -0.00000000000E+00 -0.12142409283E+04  0.12142409283E+04  0.00000000000E+00 0.  1.
          6    1    1    2  501    0 -0.26848862445E+02 -0.24705177919E+02 -0.10811231179E+04  0.10953275324E+04  0.17200000000E+03 0.  1.
         -6    1    1    2    0  502  0.26848862445E+02  0.24705177919E+02 -0.64683501300E+02  0.18734770501E+03  0.17200000000E+03 0.  1.
<mgrwt>
<rscale>  2 0.17582721E+03</rscale>
<asrwt>0</asrwt>
<pdfrwt beam="1">  1       21 0.17108578E-01 0.17582721E+03</pdfrwt>
<pdfrwt beam="2">  1       21 0.30356022E+00 0.17582721E+03</pdfrwt>
<totfact> 0.10283625E+03</totfact>
</mgrwt>
</event>
<event>
 4    1  0.1116135E+000  0.1746304E+03  0.7546771E-02  0.1173103E+00
         21   -1    0    0  501  502  0.00000000000E+00  0.00000000000E+00  0.81611042461E+03  0.81611042461E+03  0.00000000000E+00 0.  1.
         21   -1    0    0  502  503 -0.00000000000E+00 -0.00000000000E+00 -0.37855753919E+02  0.37855753919E+02  0.00000000000E+00 0.  1.
          6    1    1    2  501    0 -0.27981131404E+02 -0.11349931067E+02  0.34062091367E+03  0.38277718255E+03  0.17200000000E+03 0. -1.
         -6    1    1    2    0  503  0.27981131404E+02  0.11349931067E+02  0.43763375702E+03  0.47118899598E+03  0.17200000000E+03 0. -1.
<mgrwt>
<rscale>  2 0.17463037E+03</rscale>
<asrwt>0</asrwt>
<pdfrwt beam="1">  1       21 0.20402755E+00 0.17463037E+03</pdfrwt>
<pdfrwt beam="2">  1       21 0.94639412E-02 0.17463037E+03</pdfrwt>
<totfact> 0.11493625E+04</totfact>
</mgrwt>
</event>
<event>
 4    1  0.1116135E+000  0.1747340E+03  0.7546771E-02  0.1172999E+00
         21   -1    0    0  501  502  0.00000000000E+00  0.00000000000E+00  0.56765899764E+03  0.56765899764E+03  0.00000000000E+00 0.  1.
         21   -1    0    0  502  503 -0.00000000000E+00 -0.00000000000E+00 -0.66155176004E+02  0.66155176004E+02  0.00000000000E+00 0.  1.
          6    1    1    2  501    0  0.62837216841E+01  0.30141134099E+02  0.38778471870E+03  0.42533394078E+03  0.17200000000E+03 0.  1.
         -6    1    1    2    0  503 -0.62837216841E+01 -0.30141134099E+02  0.11371910294E+03  0.20848023287E+03  0.17200000000E+03 0.  1.
<mgrwt>
<rscale>  2 0.17473401E+03</rscale>
<asrwt>0</asrwt>
<pdfrwt beam="1">  1       21 0.14191473E+00 0.17473401E+03</pdfrwt>
<pdfrwt beam="2">  1       21 0.16538796E-01 0.17473401E+03</pdfrwt>
<totfact> 0.11488866E+04</totfact>
</mgrwt>
</event>
<event>
 4    1  0.1116135E+000  0.2362316E+03  0.7546771E-02  0.1122329E+00
         21   -1    0    0  503  502  0.00000000000E+00  0.00000000000E+00  0.20613285823E+03  0.20613285823E+03  0.00000000000E+00 0.  1.
         21   -1    0    0  501  503 -0.00000000000E+00 -0.00000000000E+00 -0.27377061046E+03  0.27377061046E+03  0.00000000000E+00 0. -1.
          6    1    1    2  501    0  0.79305574764E+02 -0.14118077026E+03 -0.59126118065E+02  0.24351854532E+03  0.17200000000E+03 0. -1.
         -6    1    1    2    0  502 -0.79305574764E+02  0.14118077026E+03 -0.85116341697E+01  0.23638492337E+03  0.17200000000E+03 0.  1.
<mgrwt>
<rscale>  2 0.23623163E+03</rscale>
<asrwt>0</asrwt>
<pdfrwt beam="1">  1       21 0.51533215E-01 0.23623163E+03</pdfrwt>
<pdfrwt beam="2">  1       21 0.68442652E-01 0.23623163E+03</pdfrwt>
<totfact> 0.67585818E+03</totfact>
</mgrwt>
</event>
<event>
 4    1  0.1116135E+000  0.2420089E+03  0.7546771E-02  0.1118462E+00
         21   -1    0    0  501  502  0.00000000000E+00  0.00000000000E+00  0.32201365682E+03  0.32201365682E+03  0.00000000000E+00 0.  1.
         21   -1    0    0  502  503 -0.00000000000E+00 -0.00000000000E+00 -0.22377725075E+03  0.22377725075E+03  0.00000000000E+00 0. -1.
          6    1    1    2  501    0  0.11578192922E+03 -0.12481528841E+03  0.16719744948E+03  0.29414842932E+03  0.17200000000E+03 0.  1.
         -6    1    1    2    0  503 -0.11578192922E+03  0.12481528841E+03 -0.68961043408E+02  0.25164247826E+03  0.17200000000E+03 0. -1.
<mgrwt>
<rscale>  2 0.24200891E+03</rscale>
<asrwt>0</asrwt>
<pdfrwt beam="1">  1       21 0.80503414E-01 0.24200891E+03</pdfrwt>
<pdfrwt beam="2">  1       21 0.55944313E-01 0.24200891E+03</pdfrwt>
<totfact> 0.39323636E+03</totfact>
</mgrwt>
</event>
<event>
 4    1  0.1116135E+000  0.2436773E+03  0.7546771E-02  0.1117367E+00
         21   -1    0    0  501  502  0.00000000000E+00  0.00000000000E+00  0.13343365314E+04  0.13343365314E+04  0.00000000000E+00 0. -1.
         21   -1    0    0  502  503 -0.00000000000E+00 -0.00000000000E+00 -0.97976292061E+02  0.97976292061E+02  0.00000000000E+00 0. -1.
          6    1    1    2  501    0 -0.26013906341E+02 -0.17063969166E+03  0.11472658441E+04  0.11728587062E+04  0.17200000000E+03 0. -1.
         -6    1    1    2    0  503  0.26013906341E+02  0.17063969166E+03  0.89094395233E+02  0.25945411725E+03  0.17200000000E+03 0. -1.
<mgrwt>
<rscale>  2 0.24367730E+03</rscale>
<asrwt>0</asrwt>
<pdfrwt beam="1">  1       21 0.33358408E+00 0.24367730E+03</pdfrwt>
<pdfrwt beam="2">  1       21 0.24494077E-01 0.24367730E+03</pdfrwt>
<totfact> 0.32014018E+02</totfact>
</mgrwt>
</event>
<event>
 4    1  0.1116135E+000  0.2228278E+03  0.7546771E-02  0.1131792E+00
         21   -1    0    0  503  502  0.00000000000E+00  0.00000000000E+00  0.79876979387E+03  0.79876979387E+03  0.00000000000E+00 0.  1.
         21   -1    0    0  501  503 -0.00000000000E+00 -0.00000000000E+00 -0.86162203188E+02  0.86162203188E+02  0.00000000000E+00 0.  1.
          6    1    1    2  501    0 -0.24371453458E+02 -0.13955014650E+03  0.58983200438E+03  0.63051883756E+03  0.17200000000E+03 0.  1.
         -6    1    1    2    0  502  0.24371453458E+02  0.13955014650E+03  0.12277558631E+03  0.25441315950E+03  0.17200000000E+03 0.  1.
<mgrwt>
<rscale>  2 0.22282776E+03</rscale>
<asrwt>0</asrwt>
<pdfrwt beam="1">  1       21 0.19969243E+00 0.22282776E+03</pdfrwt>
<pdfrwt beam="2">  1       21 0.21540553E-01 0.22282776E+03</pdfrwt>
<totfact> 0.26322495E+03</totfact>
</mgrwt>
</event>
<event>
 4    1  0.1116135E+000  0.3218943E+03  0.7546771E-02  0.1074781E+00
         21   -1    0    0  503  502  0.00000000000E+00  0.00000000000E+00  0.12034290002E+04  0.12034290002E+04  0.00000000000E+00 0. -1.
         21   -1    0    0  501  503 -0.00000000000E+00 -0.00000000000E+00 -0.12728853384E+03  0.12728853384E+03  0.00000000000E+00 0. -1.
          6    1    1    2  501    0  0.26773064196E+03 -0.48499806609E+02  0.15958723003E+03  0.35928263509E+03  0.17200000000E+03 0. -1.
         -6    1    1    2    0  502 -0.26773064196E+03  0.48499806609E+02  0.91655323628E+03  0.97143489891E+03  0.17200000000E+03 0. -1.
<mgrwt>
<rscale>  2 0.32189428E+03</rscale>
<asrwt>0</asrwt>
<pdfrwt beam="1">  1       21 0.30085721E+00 0.32189428E+03</pdfrwt>
<pdfrwt beam="2">  1       21 0.31822137E-01 0.32189428E+03</pdfrwt>
<totfact> 0.27650898E+02</totfact>
</mgrwt>
</event>
<event>
 4    1  0.1116135E+000  0.1761777E+03  0.7546771E-02  0.1171554E+00
         21   -1    0    0  501  502  0.00000000000E+00  0.00000000000E+00  0.37936731716E+03  0.37936731716E+03  0.00000000000E+00 0.  1.
         21   -1    0    0  502  503 -0.00000000000E+00 -0.00000000000E+00 -0.97729299217E+02  0.97729299217E+02  0.00000000000E+00 0.  1.
          6    1    1    2  501    0  0.38091940945E+02  0.18914702897E+01  0.23707656067E+03  0.29537073187E+03  0.17200000000E+03 0.  1.
         -6    1    1    2    0  503 -0.38091940945E+02 -0.18914702897E+01  0.44561457267E+02  0.18172588450E+03  0.17200000000E+03 0.  1.
<mgrwt>
<rscale>  2 0.17617768E+03</rscale>
<asrwt>0</asrwt>
<pdfrwt beam="1">  1       21 0.94841826E-01 0.17617768E+03</pdfrwt>
<pdfrwt beam="2">  1       21 0.24432326E-01 0.17617768E+03</pdfrwt>
<totfact> 0.14877605E+04</totfact>
</mgrwt>
</event>
<event>
 4    1  0.1116135E+000  0.1821081E+03  0.7546771E-02  0.1165778E+00
         21   -1    0    0  501  502  0.00000000000E+00  0.00000000000E+00  0.16341534239E+03  0.16341534239E+03  0.00000000000E+00 0. -1.
         21   -1    0    0  502  503 -0.00000000000E+00 -0.00000000000E+00 -0.43519650420E+03  0.43519650420E+03  0.00000000000E+00 0.  1.
          6    1    1    2  501    0  0.58157261657E+02  0.14038476689E+02  0.82763451758E+02  0.20003283445E+03  0.17200000000E+03 0. -1.
         -6    1    1    2    0  503 -0.58157261657E+02 -0.14038476689E+02 -0.35454461356E+03  0.39857901214E+03  0.17200000000E+03 0.  1.
<mgrwt>
<rscale>  2 0.18210806E+03</rscale>
<asrwt>0</asrwt>
<pdfrwt beam="1">  1       21 0.40853836E-01 0.18210806E+03</pdfrwt>
<pdfrwt beam="2">  1       21 0.10879912E+00 0.18210806E+03</pdfrwt>
<totfact> 0.39053529E+03</totfact>
</mgrwt>
</event>
<event>
 4    1  0.1116135E+000  0.2201558E+03  0.7546771E-02  0.1133767E+00
         21   -1    0    0  503  502  0.00000000000E+00  0.00000000000E+00  0.13227577276E+03  0.13227577276E+03  0.00000000000E+00 0. -1.
         21   -1    0    0  501  503 -0.00000000000E+00 -0.00000000000E+00 -0.45464830609E+03  0.45464830609E+03  0.00000000000E+00 0. -1.
          6    1    1    2  501    0  0.12878717059E+03  0.47942139217E+02 -0.29046180021E+03  0.36446761366E+03  0.17200000000E+03 0. -1.
         -6    1    1    2    0  502 -0.12878717059E+03 -0.47942139217E+02 -0.31910733119E+02  0.22245646520E+03  0.17200000000E+03 0. -1.
<mgrwt>
<rscale>  2 0.22015582E+03</rscale>
<asrwt>0</asrwt>
<pdfrwt beam="1">  1       21 0.33068944E-01 0.22015582E+03</pdfrwt>
<pdfrwt beam="2">  1       21 0.11366208E+00 0.22015582E+03</pdfrwt>
<totfact> 0.51997627E+03</totfact>
</mgrwt>
</event>
<event>
 4    1  0.1116135E+000  0.2263401E+03  0.7546771E-02  0.1129243E+00
         21   -1    0    0  501  502  0.00000000000E+00  0.00000000000E+00  0.38604521746E+03  0.38604521746E+03  0.00000000000E+00 0. -1.
         21   -1    0    0  502  503 -0.00000000000E+00 -0.00000000000E+00 -0.35896128058E+03  0.35896128058E+03  0.00000000000E+00 0.  1.
          6    1    1    2  501    0 -0.11403703942E+03 -0.92958982727E+02  0.30928012330E+03  0.38325450225E+03  0.17200000000E+03 0. -1.
         -6    1    1    2    0  503  0.11403703942E+03  0.92958982727E+02 -0.28219618642E+03  0.36175199579E+03  0.17200000000E+03 0.  1.
<mgrwt>
<rscale>  2 0.22634005E+03</rscale>
<asrwt>0</asrwt>
<pdfrwt beam="1">  1       21 0.96511304E-01 0.22634005E+03</pdfrwt>
<pdfrwt beam="2">  1       21 0.89740320E-01 0.22634005E+03</pdfrwt>
<totfact> 0.91401047E+02</totfact>
</mgrwt>
</event>
<event>
 4    1  0.1116135E+000  0.2744395E+03  0.7546771E-02  0.1098765E+00
         21   -1    0    0  503  502  0.00000000000E+00  0.00000000000E+00  0.40818510456E+03  0.40818510456E+03  0.00000000000E+00 0.  1.
         21   -1    0    0  501  503 -0.00000000000E+00 -0.00000000000E+00 -0.19190041294E+03  0.19190041294E+03  0.00000000000E+00 0.  1.
          6    1    1    2  501    0 -0.16315959131E+03 -0.13824611266E+03  0.49288147060E+02  0.27883034509E+03  0.17200000000E+03 0.  1.
         -6    1    1    2    0  502  0.16315959131E+03  0.13824611266E+03  0.16699654456E+03  0.32125517241E+03  0.17200000000E+03 0.  1.
<mgrwt>
<rscale>  2 0.27443950E+03</rscale>
<asrwt>0</asrwt>
<pdfrwt beam="1">  1       21 0.10204627E+00 0.27443950E+03</pdfrwt>
<pdfrwt beam="2">  1       21 0.47975104E-01 0.27443950E+03</pdfrwt>
<totfact> 0.30600268E+03</totfact>
</mgrwt>
</event>
<event>
 4    1  0.1116135E+000  0.2019600E+03  0.7546771E-02  0.1148096E+00
         21   -1    0    0  503  502  0.00000000000E+00  0.00000000000E+00  0.25417094906E+03  0.25417094906E+03  0.00000000000E+00 0.  1.
         21   -1    0    0  501  503 -0.00000000000E+00 -0.00000000000E+00 -0.20745439323E+03  0.20745439323E+03  0.00000000000E+00 0.  1.
          6    1    1    2  501    0 -0.52042551641E+02 -0.92170515312E+02  0.13319728865E+03  0.24192839597E+03  0.17200000000E+03 0.  1.
         -6    1    1    2    0  502  0.52042551641E+02  0.92170515312E+02 -0.86480732820E+02  0.21969694632E+03  0.17200000000E+03 0.  1.
<mgrwt>
<rscale>  2 0.20195997E+03</rscale>
<asrwt>0</asrwt>
<pdfrwt beam="1">  1       21 0.63542737E-01 0.20195997E+03</pdfrwt>
<pdfrwt beam="2">  1       21 0.51863598E-01 0.20195997E+03</pdfrwt>
<totfact> 0.80276669E+03</totfact>
</mgrwt>
</event>
<event>
 4    1  0.1116135E+000  0.1909037E+03  0.7546771E-02  0.1157649E+00
         21   -1    0    0  501  502  0.00000000000E+00  0.00000000000E+00  0.53971316595E+03  0.53971316595E+03  0.00000000000E+00 0.  1.
         21   -1    0    0  502  503 -0.00000000000E+00 -0.00000000000E+00 -0.73204015154E+02  0.73204015154E+02  0.00000000000E+00 0.  1.
          6    1    1    2  501    0 -0.12039823640E+02 -0.81946720560E+02  0.31861064860E+03  0.37142558846E+03  0.17200000000E+03 0. -1.
         -6    1    1    2    0  503  0.12039823640E+02  0.81946720560E+02  0.14789850219E+03  0.24149159264E+03  0.17200000000E+03 0. -1.
<mgrwt>
<rscale>  2 0.19090370E+03</rscale>
<asrwt>0</asrwt>
<pdfrwt beam="1">  1       21 0.13492828E+00 0.19090370E+03</pdfrwt>
<pdfrwt beam="2">  1       21 0.18301005E-01 0.19090370E+03</pdfrwt>
<totfact> 0.10724290E+04</totfact>
</mgrwt>
</event>
<event>
 4    1  0.1116135E+000  0.1821123E+03  0.7546771E-02  0.1165774E+00
         21   -1    0    0  503  502  0.00000000000E+00  0.00000000000E+00  0.40442340535E+03  0.40442340535E+03  0.00000000000E+00 0.  1.
         21   -1    0    0  501  503 -0.00000000000E+00 -0.00000000000E+00 -0.98875431295E+02  0.98875431295E+02  0.00000000000E+00 0.  1.
          6    1    1    2  501    0  0.24205041247E+02  0.54726785385E+02  0.48827547525E+02  0.18854451585E+03  0.17200000000E+03 0. -1.
         -6    1    1    2    0  502 -0.24205041247E+02 -0.54726785385E+02  0.25672042653E+03  0.31475432080E+03  0.17200000000E+03 0. -1.
<mgrwt>
<rscale>  2 0.18211234E+03</rscale>
<asrwt>0</asrwt>
<pdfrwt beam="1">  1       21 0.10110585E+00 0.18211234E+03</pdfrwt>
<pdfrwt beam="2">  1       21 0.24718859E-01 0.18211234E+03</pdfrwt>
<totfact> 0.12466991E+04</totfact>
</mgrwt>
</event>
<event>
 4    1  0.1116135E+000  0.2380023E+03  0.7546771E-02  0.1121131E+00
         21   -1    0    0  501  502  0.00000000000E+00  0.00000000000E+00  0.99832764152E+02  0.99832764152E+02  0.00000000000E+00 0.  1.
         21   -1    0    0  502  503 -0.00000000000E+00 -0.00000000000E+00 -0.93609357802E+03  0.93609357802E+03  0.00000000000E+00 0.  1.
          6    1    1    2  501    0 -0.14524744344E+03  0.77228863133E+02 -0.93064071869E+02  0.25555046194E+03  0.17200000000E+03 0.  1.
         -6    1    1    2    0  503  0.14524744344E+03 -0.77228863133E+02 -0.74319674200E+03  0.78037588023E+03  0.17200000000E+03 0.  1.
<mgrwt>
<rscale>  2 0.23800235E+03</rscale>
<asrwt>0</asrwt>
<pdfrwt beam="1">  1       21 0.24958191E-01 0.23800235E+03</pdfrwt>
<pdfrwt beam="2">  1       21 0.23402339E+00 0.23800235E+03</pdfrwt>
<totfact> 0.11971536E+03</totfact>
</mgrwt>
</event>
<event>
 4    1  0.1116135E+000  0.2180551E+03  0.7546771E-02  0.1135341E+00
         21   -1    0    0  503  502  0.00000000000E+00  0.00000000000E+00  0.80465777901E+03  0.80465777901E+03  0.00000000000E+00 0.  1.
         21   -1    0    0  501  503 -0.00000000000E+00 -0.00000000000E+00 -0.97842210848E+02  0.97842210848E+02  0.00000000000E+00 0.  1.
          6    1    1    2  501    0  0.89678190387E+02 -0.99608517230E+02  0.69421929661E+02  0.22883932978E+03  0.17200000000E+03 0.  1.
         -6    1    1    2    0  502 -0.89678190387E+02  0.99608517230E+02  0.63739363850E+03  0.67366066008E+03  0.17200000000E+03 0.  1.
<mgrwt>
<rscale>  2 0.21805512E+03</rscale>
<asrwt>0</asrwt>
<pdfrwt beam="1">  1       21 0.20116442E+00 0.21805512E+03</pdfrwt>
<pdfrwt beam="2">  1       21 0.24460555E-01 0.21805512E+03</pdfrwt>
<totfact> 0.20319127E+03</totfact>
</mgrwt>
</event>
<event>
 4    1  0.1116135E+000  0.1987935E+03  0.7546771E-02  0.1150761E+00
         21   -1    0    0  503  502  0.00000000000E+00  0.00000000000E+00  0.21981066889E+03  0.21981066889E+03  0.00000000000E+00 0.  1.
         21   -1    0    0  501  503 -0.00000000000E+00 -0.00000000000E+00 -0.56760795197E+03  0.56760795197E+03  0.00000000000E+00 0.  1.
          6    1    1    2  501    0 -0.10717481495E+02 -0.99095890322E+02 -0.49933621800E+03  0.53745280583E+03  0.17200000000E+03 0.  1.
         -6    1    1    2    0  502  0.10717481495E+02  0.99095890322E+02  0.15153893492E+03  0.24996581503E+03  0.17200000000E+03 0.  1.
<mgrwt>
<rscale>  2 0.19879351E+03</rscale>
<asrwt>0</asrwt>
<pdfrwt beam="1">  1       21 0.54952668E-01 0.19879351E+03</pdfrwt>
<pdfrwt beam="2">  1       21 0.14190199E+00 0.19879351E+03</pdfrwt>
<totfact> 0.10730105E+03</totfact>
</mgrwt>
</event>
<event>
 4    1  0.1116135E+000  0.2138207E+03  0.7546771E-02  0.1138576E+00
         21   -1    0    0  501  502  0.00000000000E+00  0.00000000000E+00  0.16201314874E+03  0.16201314874E+03  0.00000000000E+00 0. -1.
         21   -1    0    0  502  503 -0.00000000000E+00 -0.00000000000E+00 -0.48950343841E+03  0.48950343841E+03  0.00000000000E+00 0. -1.
          6    1    1    2  501    0  0.40743235772E+02  0.12031321888E+03  0.48250148245E+02  0.21919707732E+03  0.17200000000E+03 0. -1.
         -6    1    1    2    0  503 -0.40743235772E+02 -0.12031321888E+03 -0.37574043791E+03  0.43231950983E+03  0.17200000000E+03 0. -1.
<mgrwt>
<rscale>  2 0.21382068E+03</rscale>
<asrwt>0</asrwt>
<pdfrwt beam="1">  1       21 0.40503287E-01 0.21382068E+03</pdfrwt>
<pdfrwt beam="2">  1       21 0.12237586E+00 0.21382068E+03</pdfrwt>
<totfact> 0.29010221E+03</totfact>
</mgrwt>
</event>
<event>
 4    1  0.1116135E+000  0.2355832E+03  0.7546771E-02  0.1122771E+00
         21   -1    0    0  503  502  0.00000000000E+00  0.00000000000E+00  0.18622055129E+03  0.18622055129E+03  0.00000000000E+00 0.  1.
         21   -1    0    0  501  503 -0.00000000000E+00 -0.00000000000E+00 -0.29813692646E+03  0.29813692646E+03  0.00000000000E+00 0. -1.
          6    1    1    2  501    0  0.14389791444E+03  0.72172269161E+02 -0.51387410672E+02  0.24112260821E+03  0.17200000000E+03 0.  1.
         -6    1    1    2    0  502 -0.14389791444E+03 -0.72172269161E+02 -0.60528964498E+02  0.24323486954E+03  0.17200000000E+03 0. -1.
<mgrwt>
<rscale>  2 0.23558320E+03</rscale>
<asrwt>0</asrwt>
<pdfrwt beam="1">  1       21 0.46555138E-01 0.23558320E+03</pdfrwt>
<pdfrwt beam="2">  1       21 0.74534231E-01 0.23558320E+03</pdfrwt>
<totfact> 0.69156293E+03</totfact>
</mgrwt>
</event>
<event>
 4    1  0.1116135E+000  0.1821135E+03  0.7546771E-02  0.1165773E+00
         21   -1    0    0  501  502  0.00000000000E+00  0.00000000000E+00  0.39988520654E+03  0.39988520654E+03  0.00000000000E+00 0. -1.
         21   -1    0    0  502  503 -0.00000000000E+00 -0.00000000000E+00 -0.22478375182E+03  0.22478375182E+03  0.00000000000E+00 0. -1.
          6    1    1    2  501    0  0.59797487857E+02  0.23634235671E+01  0.33566228390E+03  0.38188282779E+03  0.17200000000E+03 0. -1.
         -6    1    1    2    0  503 -0.59797487857E+02 -0.23634235671E+01 -0.16056082919E+03  0.24278613056E+03  0.17200000000E+03 0. -1.
<mgrwt>
<rscale>  2 0.18211350E+03</rscale>
<asrwt>0</asrwt>
<pdfrwt beam="1">  1       21 0.99971301E-01 0.18211350E+03</pdfrwt>
<pdfrwt beam="2">  1       21 0.56195938E-01 0.18211350E+03</pdfrwt>
<totfact> 0.24716557E+03</totfact>
</mgrwt>
</event>
<event>
 4    1  0.1116135E+000  0.2111968E+03  0.7546771E-02  0.1140622E+00
         21   -1    0    0  501  502  0.00000000000E+00  0.00000000000E+00  0.45573850574E+03  0.45573850574E+03  0.00000000000E+00 0.  1.
         21   -1    0    0  502  503 -0.00000000000E+00 -0.00000000000E+00 -0.17855927391E+03  0.17855927391E+03  0.00000000000E+00 0.  1.
          6    1    1    2  501    0 -0.89607013572E+02  0.83610268727E+02  0.35178322766E+03  0.41031150750E+03  0.17200000000E+03 0.  1.
         -6    1    1    2    0  503  0.89607013572E+02 -0.83610268727E+02 -0.74603995840E+02  0.22398627215E+03  0.17200000000E+03 0.  1.
<mgrwt>
<rscale>  2 0.21119681E+03</rscale>
<asrwt>0</asrwt>
<pdfrwt beam="1">  1       21 0.11393462E+00 0.21119681E+03</pdfrwt>
<pdfrwt beam="2">  1       21 0.44639819E-01 0.21119681E+03</pdfrwt>
<totfact> 0.28435442E+03</totfact>
</mgrwt>
</event>
<event>
 4    1  0.1116135E+000  0.1752408E+03  0.7546771E-02  0.1172490E+00
         21   -1    0    0  501  502  0.00000000000E+00  0.00000000000E+00  0.33214072550E+03  0.33214072550E+03  0.00000000000E+00 0.  1.
         21   -1    0    0  502  503 -0.00000000000E+00 -0.00000000000E+00 -0.19771785525E+03  0.19771785525E+03  0.00000000000E+00 0.  1.
          6    1    1    2  501    0 -0.32893493359E+01 -0.33384521607E+02  0.26051358434E+03  0.31396922417E+03  0.17200000000E+03 0.  1.
         -6    1    1    2    0  503  0.32893493359E+01  0.33384521607E+02 -0.12609071410E+03  0.21588935658E+03  0.17200000000E+03 0.  1.
<mgrwt>
<rscale>  2 0.17524082E+03</rscale>
<asrwt>0</asrwt>
<pdfrwt beam="1">  1       21 0.83035181E-01 0.17524082E+03</pdfrwt>
<pdfrwt beam="2">  1       21 0.49429464E-01 0.17524082E+03</pdfrwt>
<totfact> 0.50023916E+03</totfact>
</mgrwt>
</event>
<event>
 4    1  0.1116135E+000  0.1835990E+03  0.7546771E-02  0.1164365E+00
         21   -1    0    0  501  502  0.00000000000E+00  0.00000000000E+00  0.32844881099E+03  0.32844881099E+03  0.00000000000E+00 0. -1.
         21   -1    0    0  502  503 -0.00000000000E+00 -0.00000000000E+00 -0.14942926202E+03  0.14942926202E+03  0.00000000000E+00 0.  1.
          6    1    1    2  501    0 -0.62140355024E+02  0.16222125815E+02 -0.44208414267E+02  0.18884640579E+03  0.17200000000E+03 0.  1.
         -6    1    1    2    0  503  0.62140355024E+02 -0.16222125815E+02  0.22322796323E+03  0.28903166722E+03  0.17200000000E+03 0. -1.
<mgrwt>
<rscale>  2 0.18359897E+03</rscale>
<asrwt>0</asrwt>
<pdfrwt beam="1">  1       21 0.82112201E-01 0.18359897E+03</pdfrwt>
<pdfrwt beam="2">  1       21 0.37357316E-01 0.18359897E+03</pdfrwt>
<totfact> 0.90175073E+03</totfact>
</mgrwt>
</event>
<event>
 4    1  0.1116135E+000  0.2323238E+03  0.7546771E-02  0.1125015E+00
         21   -1    0    0  501  502  0.00000000000E+00  0.00000000000E+00  0.79602236104E+02  0.79602236104E+02  0.00000000000E+00 0.  1.
         21   -1    0    0  502  503 -0.00000000000E+00 -0.00000000000E+00 -0.77703658775E+03  0.77703658775E+03  0.00000000000E+00 0.  1.
          6    1    1    2  501    0 -0.12401440283E+03  0.94925056550E+02 -0.19584303300E+03  0.30385659783E+03  0.17200000000E+03 0.  1.
         -6    1    1    2    0  503  0.12401440283E+03 -0.94925056550E+02 -0.50159131865E+03  0.55278222603E+03  0.17200000000E+03 0.  1.
<mgrwt>
<rscale>  2 0.23232378E+03</rscale>
<asrwt>0</asrwt>
<pdfrwt beam="1">  1       21 0.19900559E-01 0.23232378E+03</pdfrwt>
<pdfrwt beam="2">  1       21 0.19425914E+00 0.23232378E+03</pdfrwt>
<totfact> 0.32878022E+03</totfact>
</mgrwt>
</event>
<event>
 4    1  0.1116135E+000  0.1915476E+03  0.7546771E-02  0.1157073E+00
         21   -1    0    0  503  502  0.00000000000E+00  0.00000000000E+00  0.96145793038E+02  0.96145793038E+02  0.00000000000E+00 0.  1.
         21   -1    0    0  501  503 -0.00000000000E+00 -0.00000000000E+00 -0.62752806338E+03  0.62752806338E+03  0.00000000000E+00 0. -1.
          6    1    1    2  501    0  0.24696813178E+02  0.80601241653E+02 -0.49220187686E+03  0.52816018434E+03  0.17200000000E+03 0. -1.
         -6    1    1    2    0  502 -0.24696813178E+02 -0.80601241653E+02 -0.39180393486E+02  0.19551367208E+03  0.17200000000E+03 0.  1.
<mgrwt>
<rscale>  2 0.19154763E+03</rscale>
<asrwt>0</asrwt>
<pdfrwt beam="1">  1       21 0.24036449E-01 0.19154763E+03</pdfrwt>
<pdfrwt beam="2">  1       21 0.15688201E+00 0.19154763E+03</pdfrwt>
<totfact> 0.43364173E+03</totfact>
</mgrwt>
</event>
<event>
 4    1  0.1116135E+000  0.1816520E+03  0.7546771E-02  0.1166214E+00
         21   -1    0    0  501  502  0.00000000000E+00  0.00000000000E+00  0.50072943279E+02  0.50072943279E+02  0.00000000000E+00 0. -1.
         21   -1    0    0  502  503 -0.00000000000E+00 -0.00000000000E+00 -0.77818946878E+03  0.77818946878E+03  0.00000000000E+00 0. -1.
          6    1    1    2  501    0  0.43432977950E+02 -0.39077097678E+02 -0.20197543028E+03  0.27164594157E+03  0.17200000000E+03 0. -1.
         -6    1    1    2    0  503 -0.43432977950E+02  0.39077097678E+02 -0.52614109522E+03  0.55661647049E+03  0.17200000000E+03 0. -1.
<mgrwt>
<rscale>  2 0.18165198E+03</rscale>
<asrwt>0</asrwt>
<pdfrwt beam="1">  1       21 0.12518236E-01 0.18165198E+03</pdfrwt>
<pdfrwt beam="2">  1       21 0.19454736E+00 0.18165198E+03</pdfrwt>
<totfact> 0.79987371E+03</totfact>
</mgrwt>
</event>
<event>
 4    1  0.1116135E+000  0.1746978E+03  0.7546771E-02  0.1173035E+00
         21   -1    0    0  501  502  0.00000000000E+00  0.00000000000E+00  0.91858855868E+03  0.91858855868E+03  0.00000000000E+00 0.  1.
         21   -1    0    0  502  503 -0.00000000000E+00 -0.00000000000E+00 -0.59716890126E+02  0.59716890126E+02  0.00000000000E+00 0.  1.
          6    1    1    2  501    0  0.27344065384E+02  0.13697770606E+02  0.75524200105E+03  0.77518372466E+03  0.17200000000E+03 0.  1.
         -6    1    1    2    0  503 -0.27344065384E+02 -0.13697770606E+02  0.10362966750E+03  0.20312172414E+03  0.17200000000E+03 0.  1.
<mgrwt>
<rscale>  2 0.17469782E+03</rscale>
<asrwt>0</asrwt>
<pdfrwt beam="1">  1       21 0.22964709E+00 0.17469782E+03</pdfrwt>
<pdfrwt beam="2">  1       21 0.14929225E-01 0.17469782E+03</pdfrwt>
<totfact> 0.35451454E+03</totfact>
</mgrwt>
</event>
<event>
 4    1  0.1116135E+000  0.1754616E+03  0.7546771E-02  0.1172269E+00
         21   -1    0    0  503  502  0.00000000000E+00  0.00000000000E+00  0.13517539401E+03  0.13517539401E+03  0.00000000000E+00 0.  1.
         21   -1    0    0  501  503 -0.00000000000E+00 -0.00000000000E+00 -0.42318258842E+03  0.42318258842E+03  0.00000000000E+00 0.  1.
          6    1    1    2  501    0  0.33884891886E+02 -0.73893599079E+01 -0.33372331050E+03  0.37703850800E+03  0.17200000000E+03 0.  1.
         -6    1    1    2    0  502 -0.33884891886E+02  0.73893599079E+01  0.45716116091E+02  0.18131947443E+03  0.17200000000E+03 0.  1.
<mgrwt>
<rscale>  2 0.17546164E+03</rscale>
<asrwt>0</asrwt>
<pdfrwt beam="1">  1       21 0.33793849E-01 0.17546164E+03</pdfrwt>
<pdfrwt beam="2">  1       21 0.10579565E+00 0.17546164E+03</pdfrwt>
<totfact> 0.61351092E+03</totfact>
</mgrwt>
</event>
<event>
 4    1  0.1116135E+000  0.1884690E+03  0.7546771E-02  0.1159850E+00
         21   -1    0    0  503  502  0.00000000000E+00  0.00000000000E+00  0.77375422690E+03  0.77375422690E+03  0.00000000000E+00 0.  1.
         21   -1    0    0  501  503 -0.00000000000E+00 -0.00000000000E+00 -0.75368690563E+02  0.75368690563E+02  0.00000000000E+00 0.  1.
          6    1    1    2  501    0  0.86778861899E+01 -0.76558786267E+02  0.83747097991E+02  0.20623804180E+03  0.17200000000E+03 0.  1.
         -6    1    1    2    0  502 -0.86778861899E+01  0.76558786267E+02  0.61463843835E+03  0.64288487567E+03  0.17200000000E+03 0.  1.
<mgrwt>
<rscale>  2 0.18846897E+03</rscale>
<asrwt>0</asrwt>
<pdfrwt beam="1">  1       21 0.19343853E+00 0.18846897E+03</pdfrwt>
<pdfrwt beam="2">  1       21 0.18842175E-01 0.18846897E+03</pdfrwt>
<totfact> 0.38349122E+03</totfact>
</mgrwt>
</event>
<event>
 4    1  0.1116135E+000  0.1961948E+03  0.7546771E-02  0.1152990E+00
         21   -1    0    0  501  502  0.00000000000E+00  0.00000000000E+00  0.12269170471E+04  0.12269170471E+04  0.00000000000E+00 0.  1.
         21   -1    0    0  502  503 -0.00000000000E+00 -0.00000000000E+00 -0.31515005693E+02  0.31515005693E+02  0.00000000000E+00 0.  1.
          6    1    1    2  501    0 -0.92971380353E+02 -0.16270431143E+02  0.63989736403E+03  0.66929891751E+03  0.17200000000E+03 0.  1.
         -6    1    1    2    0  503  0.92971380353E+02  0.16270431143E+02  0.55550467736E+03  0.58913313526E+03  0.17200000000E+03 0.  1.
<mgrwt>
<rscale>  2 0.19619481E+03</rscale>
<asrwt>0</asrwt>
<pdfrwt beam="1">  1       21 0.30672910E+00 0.19619481E+03</pdfrwt>
<pdfrwt beam="2">  1       21 0.78787555E-02 0.19619481E+03</pdfrwt>
<totfact> 0.38312254E+03</totfact>
</mgrwt>
</event>
<event>
 4    1  0.1116135E+000  0.2423032E+03  0.7546771E-02  0.1118268E+00
         21   -1    0    0  503  502  0.00000000000E+00  0.00000000000E+00  0.23634980200E+03  0.23634980200E+03  0.00000000000E+00 0.  1.
         21   -1    0    0  501  503 -0.00000000000E+00 -0.00000000000E+00 -0.32569885921E+03  0.32569885921E+03  0.00000000000E+00 0.  1.
          6    1    1    2  501    0  0.91246043426E+02  0.14422559273E+03 -0.18157459844E+03  0.30278737893E+03  0.17200000000E+03 0.  1.
         -6    1    1    2    0  502 -0.91246043426E+02 -0.14422559273E+03  0.92225541235E+02  0.25926128229E+03  0.17200000000E+03 0.  1.
<mgrwt>
<rscale>  2 0.24230324E+03</rscale>
<asrwt>0</asrwt>
<pdfrwt beam="1">  1       21 0.59087451E-01 0.24230324E+03</pdfrwt>
<pdfrwt beam="2">  1       21 0.81424714E-01 0.24230324E+03</pdfrwt>
<totfact> 0.34072679E+03</totfact>
</mgrwt>
</event>
<event>
 4    1  0.1116135E+000  0.1724843E+03  0.7546771E-02  0.1175282E+00
         21   -1    0    0  503  502  0.00000000000E+00  0.00000000000E+00  0.36004818243E+02  0.36004818243E+02  0.00000000000E+00 0. -1.
         21   -1    0    0  501  503 -0.00000000000E+00 -0.00000000000E+00 -0.82784210364E+03  0.82784210364E+03  0.00000000000E+00 0. -1.
          6    1    1    2  501    0  0.38636864051E+01  0.12324792796E+02 -0.37728469600E+03  0.41484282617E+03  0.17200000000E+03 0. -1.
         -6    1    1    2    0  502 -0.38636864051E+01 -0.12324792796E+02 -0.41455258940E+03  0.44900409571E+03  0.17200000000E+03 0. -1.
<mgrwt>
<rscale>  2 0.17248429E+03</rscale>
<asrwt>0</asrwt>
<pdfrwt beam="1">  1       21 0.90012045E-02 0.17248429E+03</pdfrwt>
<pdfrwt beam="2">  1       21 0.20696053E+00 0.17248429E+03</pdfrwt>
<totfact> 0.12050408E+04</totfact>
</mgrwt>
</event>
<event>
 4    1  0.1116135E+000  0.2036320E+03  0.7546771E-02  0.1146710E+00
         21   -1    0    0  501  502  0.00000000000E+00  0.00000000000E+00  0.99370080648E+02  0.99370080648E+02  0.00000000000E+00 0.  1.
         21   -1    0    0  502  503 -0.00000000000E+00 -0.00000000000E+00 -0.50118855647E+03  0.50118855647E+03  0.00000000000E+00 0.  1.
          6    1    1    2  501    0  0.86042873151E+01  0.10866440772E+03 -0.78050486957E+02  0.21807765997E+03  0.17200000000E+03 0.  1.
         -6    1    1    2    0  503 -0.86042873151E+01 -0.10866440772E+03 -0.32376798887E+03  0.38248097715E+03  0.17200000000E+03 0.  1.
<mgrwt>
<rscale>  2 0.20363199E+03</rscale>
<asrwt>0</asrwt>
<pdfrwt beam="1">  1       21 0.24842520E-01 0.20363199E+03</pdfrwt>
<pdfrwt beam="2">  1       21 0.12529714E+00 0.20363199E+03</pdfrwt>
<totfact> 0.72089215E+03</totfact>
</mgrwt>
</event>
<event>
 4    1  0.1116135E+000  0.1757313E+03  0.7546771E-02  0.1171999E+00
         21   -1    0    0  501  502  0.00000000000E+00  0.00000000000E+00  0.29451570116E+03  0.29451570116E+03  0.00000000000E+00 0. -1.
         21   -1    0    0  502  503 -0.00000000000E+00 -0.00000000000E+00 -0.41766154945E+03  0.41766154945E+03  0.00000000000E+00 0. -1.
          6    1    1    2  501    0  0.35996739874E+02  0.13131428539E+01  0.24659232585E+03  0.30280235269E+03  0.17200000000E+03 0. -1.
         -6    1    1    2    0  503 -0.35996739874E+02 -0.13131428539E+01 -0.36973817415E+03  0.40937489792E+03  0.17200000000E+03 0. -1.
<mgrwt>
<rscale>  2 0.17573130E+03</rscale>
<asrwt>0</asrwt>
<pdfrwt beam="1">  1       21 0.73628926E-01 0.17573130E+03</pdfrwt>
<pdfrwt beam="2">  1       21 0.10441539E+00 0.17573130E+03</pdfrwt>
<totfact> 0.12479973E+03</totfact>
</mgrwt>
</event>
<event>
 4    1  0.1116135E+000  0.2932473E+03  0.7546771E-02  0.1088666E+00
         21   -1    0    0  501  502  0.00000000000E+00  0.00000000000E+00  0.17813546889E+04  0.17813546889E+04  0.00000000000E+00 0.  1.
         21   -1    0    0  502  503 -0.00000000000E+00 -0.00000000000E+00 -0.59599474545E+02  0.59599474545E+02  0.00000000000E+00 0.  1.
          6    1    1    2  501    0 -0.49231369282E+02 -0.23234943319E+03  0.12621234982E+04  0.12957429188E+04  0.17200000000E+03 0.  1.
         -6    1    1    2    0  503  0.49231369282E+02  0.23234943319E+03  0.45963171612E+03  0.54521124465E+03  0.17200000000E+03 0.  1.
<mgrwt>
<rscale>  2 0.29324731E+03</rscale>
<asrwt>0</asrwt>
<pdfrwt beam="1">  1       21 0.44533850E+00 0.29324731E+03</pdfrwt>
<pdfrwt beam="2">  1       21 0.14899875E-01 0.29324731E+03</pdfrwt>
<totfact> 0.15352966E+02</totfact>
</mgrwt>
</event>
<event>
 4    1  0.1116135E+000  0.2505100E+03  0.7546771E-02  0.1112983E+00
         21   -1    0    0  503  502  0.00000000000E+00  0.00000000000E+00  0.41471271064E+03  0.41471271064E+03  0.00000000000E+00 0.  1.
         21   -1    0    0  501  503 -0.00000000000E+00 -0.00000000000E+00 -0.44090115664E+03  0.44090115664E+03  0.00000000000E+00 0.  1.
          6    1    1    2  501    0 -0.64979829899E+01  0.18201386393E+03 -0.35979965339E+03  0.43841881920E+03  0.17200000000E+03 0.  1.
         -6    1    1    2    0  502  0.64979829899E+01 -0.18201386393E+03  0.33361120739E+03  0.41719504808E+03  0.17200000000E+03 0.  1.
<mgrwt>
<rscale>  2 0.25051002E+03</rscale>
<asrwt>0</asrwt>
<pdfrwt beam="1">  1       21 0.10367818E+00 0.25051002E+03</pdfrwt>
<pdfrwt beam="2">  1       21 0.11022529E+00 0.25051002E+03</pdfrwt>
<totfact> 0.46195545E+02</totfact>
</mgrwt>
</event>
<event>
 4    1  0.1116135E+000  0.1816206E+03  0.7546771E-02  0.1166244E+00
         21   -1    0    0  503  502  0.00000000000E+00  0.00000000000E+00  0.34491022736E+03  0.34491022736E+03  0.00000000000E+00 0. -1.
         21   -1    0    0  501  503 -0.00000000000E+00 -0.00000000000E+00 -0.19217403855E+03  0.19217403855E+03  0.00000000000E+00 0. -1.
          6    1    1    2  501    0 -0.43414873292E+02 -0.38951053765E+02 -0.11396442575E+03  0.21441531230E+03  0.17200000000E+03 0. -1.
         -6    1    1    2    0  502  0.43414873292E+02  0.38951053765E+02  0.26670061456E+03  0.32266895360E+03  0.17200000000E+03 0. -1.
<mgrwt>
<rscale>  2 0.18162058E+03</rscale>
<asrwt>0</asrwt>
<pdfrwt beam="1">  1       21 0.86227556E-01 0.18162058E+03</pdfrwt>
<pdfrwt beam="2">  1       21 0.48043510E-01 0.18162058E+03</pdfrwt>
<totfact> 0.48431559E+03</totfact>
</mgrwt>
</event>
<event>
 4    1  0.1116135E+000  0.1763092E+03  0.7546771E-02  0.1171424E+00
         21   -1    0    0  501  502  0.00000000000E+00  0.00000000000E+00  0.87634312557E+02  0.87634312557E+02  0.00000000000E+00 0. -1.
         21   -1    0    0  502  503 -0.00000000000E+00 -0.00000000000E+00 -0.45913526121E+03  0.45913526121E+03  0.00000000000E+00 0. -1.
          6    1    1    2  501    0 -0.37184177935E+02  0.10874810406E+02 -0.55372849269E+02  0.18480010018E+03  0.17200000000E+03 0. -1.
         -6    1    1    2    0  503  0.37184177935E+02 -0.10874810406E+02 -0.31612809939E+03  0.36196947359E+03  0.17200000000E+03 0. -1.
<mgrwt>
<rscale>  2 0.17630917E+03</rscale>
<asrwt>0</asrwt>
<pdfrwt beam="1">  1       21 0.21908579E-01 0.17630917E+03</pdfrwt>
<pdfrwt beam="2">  1       21 0.11478381E+00 0.17630917E+03</pdfrwt>
<totfact> 0.11592122E+04</totfact>
</mgrwt>
</event>
<event>
 4    1  0.1116135E+000  0.2803025E+03  0.7546771E-02  0.1095524E+00
         21   -1    0    0  501  502  0.00000000000E+00  0.00000000000E+00  0.17264873741E+03  0.17264873741E+03  0.00000000000E+00 0.  1.
         21   -1    0    0  502  503 -0.00000000000E+00 -0.00000000000E+00 -0.13860551140E+04  0.13860551140E+04  0.00000000000E+00 0. -1.
          6    1    1    2  501    0  0.78776235078E+02  0.20683277717E+03  0.32018577784E+02  0.28212529530E+03  0.17200000000E+03 0.  1.
         -6    1    1    2    0  503 -0.78776235078E+02 -0.20683277717E+03 -0.12454249544E+04  0.12765785561E+04  0.17200000000E+03 0. -1.
<mgrwt>
<rscale>  2 0.28030250E+03</rscale>
<asrwt>0</asrwt>
<pdfrwt beam="1">  1       21 0.43162185E-01 0.28030250E+03</pdfrwt>
<pdfrwt beam="2">  1       21 0.34651378E+00 0.28030250E+03</pdfrwt>
<totfact> 0.83378804E+01</totfact>
</mgrwt>
</event>
<event>
 4    1  0.1116135E+000  0.2216927E+03  0.7546771E-02  0.1132627E+00
         21   -1    0    0  503  502  0.00000000000E+00  0.00000000000E+00  0.31517761023E+03  0.31517761023E+03  0.00000000000E+00 0. -1.
         21   -1    0    0  501  503 -0.00000000000E+00 -0.00000000000E+00 -0.33575397793E+03  0.33575397793E+03  0.00000000000E+00 0.  1.
          6    1    1    2  501    0  0.13981315667E+03  0.39933547773E+01 -0.24847121929E+03  0.33299491359E+03  0.17200000000E+03 0.  1.
         -6    1    1    2    0  502 -0.13981315667E+03 -0.39933547773E+01  0.22789485158E+03  0.31793667458E+03  0.17200000000E+03 0. -1.
<mgrwt>
<rscale>  2 0.22169273E+03</rscale>
<asrwt>0</asrwt>
<pdfrwt beam="1">  1       21 0.78794403E-01 0.22169273E+03</pdfrwt>
<pdfrwt beam="2">  1       21 0.83938494E-01 0.22169273E+03</pdfrwt>
<totfact> 0.17105483E+03</totfact>
</mgrwt>
</event>
<event>
 4    1  0.1116135E+000  0.2636468E+03  0.7546771E-02  0.1104972E+00
         21   -1    0    0  501  502  0.00000000000E+00  0.00000000000E+00  0.13590775382E+03  0.13590775382E+03  0.00000000000E+00 0. -1.
         21   -1    0    0  502  503 -0.00000000000E+00 -0.00000000000E+00 -0.65793288092E+03  0.65793288092E+03  0.00000000000E+00 0. -1.
          6    1    1    2  501    0  0.19827574970E+03  0.24745851004E+02 -0.44830068407E+03  0.52007992982E+03  0.17200000000E+03 0. -1.
         -6    1    1    2    0  503 -0.19827574970E+03 -0.24745851004E+02 -0.73724443032E+02  0.27376070493E+03  0.17200000000E+03 0. -1.
<mgrwt>
<rscale>  2 0.26364679E+03</rscale>
<asrwt>0</asrwt>
<pdfrwt beam="1">  1       21 0.33976939E-01 0.26364679E+03</pdfrwt>
<pdfrwt beam="2">  1       21 0.16448322E+00 0.26364679E+03</pdfrwt>
<totfact> 0.18339991E+03</totfact>
</mgrwt>
</event>
<event>
 4    1  0.1116135E+000  0.1921830E+03  0.7546771E-02  0.1156507E+00
         21   -1    0    0  503  502  0.00000000000E+00  0.00000000000E+00  0.63828848378E+03  0.63828848378E+03  0.00000000000E+00 0. -1.
         21   -1    0    0  501  503 -0.00000000000E+00 -0.00000000000E+00 -0.60845657829E+02  0.60845657829E+02  0.00000000000E+00 0.  1.
          6    1    1    2  501    0 -0.85520486020E+02  0.60462152248E+01  0.21134641673E+03  0.28565996939E+03  0.17200000000E+03 0.  1.
         -6    1    1    2    0  502  0.85520486020E+02 -0.60462152248E+01  0.36609640922E+03  0.41347417221E+03  0.17200000000E+03 0. -1.
<mgrwt>
<rscale>  2 0.19218301E+03</rscale>
<asrwt>0</asrwt>
<pdfrwt beam="1">  1       21 0.15957210E+00 0.19218301E+03</pdfrwt>
<pdfrwt beam="2">  1       21 0.15211416E-01 0.19218301E+03</pdfrwt>
<totfact> 0.96986312E+03</totfact>
</mgrwt>
</event>
<event>
 4    1  0.1116135E+000  0.1906482E+03  0.7546771E-02  0.1157878E+00
         21   -1    0    0  501  502  0.00000000000E+00  0.00000000000E+00  0.67863494765E+03  0.67863494765E+03  0.00000000000E+00 0. -1.
         21   -1    0    0  502  503 -0.00000000000E+00 -0.00000000000E+00 -0.13252919445E+03  0.13252919445E+03  0.00000000000E+00 0. -1.
          6    1    1    2  501    0 -0.61825378480E+02 -0.54225089192E+02  0.58613312734E+03  0.61635929512E+03  0.17200000000E+03 0. -1.
         -6    1    1    2    0  503  0.61825378480E+02  0.54225089192E+02 -0.40027374140E+02  0.19480484697E+03  0.17200000000E+03 0. -1.
<mgrwt>
<rscale>  2 0.19064820E+03</rscale>
<asrwt>0</asrwt>
<pdfrwt beam="1">  1       21 0.16965873E+00 0.19064820E+03</pdfrwt>
<pdfrwt beam="2">  1       21 0.33132300E-01 0.19064820E+03</pdfrwt>
<totfact> 0.18857966E+03</totfact>
</mgrwt>
</event>
<event>
 4    1  0.1116135E+000  0.1788938E+03  0.7546771E-02  0.1168878E+00
         21   -1    0    0  503  502  0.00000000000E+00  0.00000000000E+00  0.16692401590E+03  0.16692401590E+03  0.00000000000E+00 0. -1.
         21   -1    0    0  501  503 -0.00000000000E+00 -0.00000000000E+00 -0.23956338704E+03  0.23956338704E+03  0.00000000000E+00 0. -1.
          6    1    1    2  501    0 -0.32454212206E+02  0.36955435058E+02  0.54506163069E+02  0.18701310618E+03  0.17200000000E+03 0. -1.
         -6    1    1    2    0  502  0.32454212206E+02 -0.36955435058E+02 -0.12714553420E+03  0.21947429676E+03  0.17200000000E+03 0. -1.
<mgrwt>
<rscale>  2 0.17889377E+03</rscale>
<asrwt>0</asrwt>
<pdfrwt beam="1">  1       21 0.41731004E-01 0.17889377E+03</pdfrwt>
<pdfrwt beam="2">  1       21 0.59890847E-01 0.17889377E+03</pdfrwt>
<totfact> 0.14508060E+04</totfact>
</mgrwt>
</event>
<event>
 4    1  0.1116135E+000  0.2069367E+03  0.7546771E-02  0.1144015E+00
         21   -1    0    0  503  502  0.00000000000E+00  0.00000000000E+00  0.10409193175E+03  0.10409193175E+03  0.00000000000E+00 0.  1.
         21   -1    0    0  501  503 -0.00000000000E+00 -0.00000000000E+00 -0.42940994225E+03  0.42940994225E+03  0.00000000000E+00 0.  1.
          6    1    1    2  501    0 -0.19290400186E+02 -0.11343144516E+03 -0.10802078688E+03  0.23343372226E+03  0.17200000000E+03 0.  1.
         -6    1    1    2    0  502  0.19290400186E+02  0.11343144516E+03 -0.21729722362E+03  0.30006815173E+03  0.17200000000E+03 0.  1.
<mgrwt>
<rscale>  2 0.20693673E+03</rscale>
<asrwt>0</asrwt>
<pdfrwt beam="1">  1       21 0.26022983E-01 0.20693673E+03</pdfrwt>
<pdfrwt beam="2">  1       21 0.10735248E+00 0.20693673E+03</pdfrwt>
<totfact> 0.96189511E+03</totfact>
</mgrwt>
</event>
<event>
 4    1  0.1116135E+000  0.1813134E+03  0.7546771E-02  0.1166538E+00
         21   -1    0    0  503  502  0.00000000000E+00  0.00000000000E+00  0.13797261158E+04  0.13797261158E+04  0.00000000000E+00 0.  1.
         21   -1    0    0  501  503 -0.00000000000E+00 -0.00000000000E+00 -0.43383568331E+02  0.43383568331E+02  0.00000000000E+00 0.  1.
          6    1    1    2  501    0  0.36110916036E+02  0.44570758282E+02  0.19042914086E+03  0.26294069377E+03  0.17200000000E+03 0.  1.
         -6    1    1    2    0  502 -0.36110916036E+02 -0.44570758282E+02  0.11459134066E+04  0.11601689904E+04  0.17200000000E+03 0.  1.
<mgrwt>
<rscale>  2 0.18131340E+03</rscale>
<asrwt>0</asrwt>
<pdfrwt beam="1">  1       21 0.34493138E+00 0.18131340E+03</pdfrwt>
<pdfrwt beam="2">  1       21 0.10845897E-01 0.18131340E+03</pdfrwt>
<totfact> 0.13384500E+03</totfact>
</mgrwt>
</event>
<event>
 4    1  0.1116135E+000  0.2028934E+03  0.7546771E-02  0.1147321E+00
         21   -1    0    0  501  502  0.00000000000E+00  0.00000000000E+00  0.55677583411E+03  0.55677583411E+03  0.00000000000E+00 0. -1.
         21   -1    0    0  502  503 -0.00000000000E+00 -0.00000000000E+00 -0.86567771331E+02  0.86567771331E+02  0.00000000000E+00 0. -1.
          6    1    1    2  501    0  0.69213402562E+02  0.82408962712E+02  0.35798041398E+03  0.41147990111E+03  0.17200000000E+03 0. -1.
         -6    1    1    2    0  503 -0.69213402562E+02 -0.82408962712E+02  0.11222764881E+03  0.23186370433E+03  0.17200000000E+03 0. -1.
<mgrwt>
<rscale>  2 0.20289340E+03</rscale>
<asrwt>0</asrwt>
<pdfrwt beam="1">  1       21 0.13919395E+00 0.20289340E+03</pdfrwt>
<pdfrwt beam="2">  1       21 0.21641944E-01 0.20289340E+03</pdfrwt>
<totfact> 0.71734451E+03</totfact>
</mgrwt>
</event>
<event>
 4    1  0.1116135E+000  0.2095478E+03  0.7546771E-02  0.1141925E+00
         21   -1    0    0  503  502  0.00000000000E+00  0.00000000000E+00  0.23685563124E+03  0.23685563124E+03  0.00000000000E+00 0. -1.
         21   -1    0    0  501  503 -0.00000000000E+00 -0.00000000000E+00 -0.18595030832E+03  0.18595030832E+03  0.00000000000E+00 0. -1.
          6    1    1    2  501    0  0.28858149634E+02 -0.11616148267E+03  0.37073870693E+02  0.21280214929E+03  0.17200000000E+03 0. -1.
         -6    1    1    2    0  502 -0.28858149634E+02  0.11616148267E+03  0.13831452225E+02  0.21000379027E+03  0.17200000000E+03 0. -1.
<mgrwt>
<rscale>  2 0.20954781E+03</rscale>
<asrwt>0</asrwt>
<pdfrwt beam="1">  1       21 0.59213908E-01 0.20954781E+03</pdfrwt>
<pdfrwt beam="2">  1       21 0.46487577E-01 0.20954781E+03</pdfrwt>
<totfact> 0.11681877E+04</totfact>
</mgrwt>
</event>
<event>
 4    1  0.1116135E+000  0.1742576E+03  0.7546771E-02  0.1173479E+00
         21   -1    0    0  503  502  0.00000000000E+00  0.00000000000E+00  0.17502615380E+03  0.17502615380E+03  0.00000000000E+00 0.  1.
         21   -1    0    0  501  503 -0.00000000000E+00 -0.00000000000E+00 -0.25747362556E+03  0.25747362556E+03  0.00000000000E+00 0.  1.
          6    1    1    2  501    0  0.25959720821E+02  0.10382820253E+02 -0.16472761153E+03  0.23979344458E+03  0.17200000000E+03 0.  1.
         -6    1    1    2    0  502 -0.25959720821E+02 -0.10382820253E+02  0.82280139773E+02  0.19270633478E+03  0.17200000000E+03 0.  1.
<mgrwt>
<rscale>  2 0.17425760E+03</rscale>
<asrwt>0</asrwt>
<pdfrwt beam="1">  1       21 0.43756539E-01 0.17425760E+03</pdfrwt>
<pdfrwt beam="2">  1       21 0.64368406E-01 0.17425760E+03</pdfrwt>
<totfact> 0.11315064E+04</totfact>
</mgrwt>
</event>
<event>
 4    1  0.1116135E+000  0.2447970E+03  0.7546771E-02  0.1116638E+00
         21   -1    0    0  503  502  0.00000000000E+00  0.00000000000E+00  0.34609471835E+03  0.34609471835E+03  0.00000000000E+00 0.  1.
         21   -1    0    0  501  503 -0.00000000000E+00 -0.00000000000E+00 -0.23931804200E+03  0.23931804200E+03  0.00000000000E+00 0.  1.
          6    1    1    2  501    0  0.11598635787E+03 -0.12995673982E+03 -0.10052467922E+03  0.26463333231E+03  0.17200000000E+03 0.  1.
         -6    1    1    2    0  502 -0.11598635787E+03  0.12995673982E+03  0.20730135556E+03  0.32077942804E+03  0.17200000000E+03 0.  1.
<mgrwt>
<rscale>  2 0.24479704E+03</rscale>
<asrwt>0</asrwt>
<pdfrwt beam="1">  1       21 0.86523679E-01 0.24479704E+03</pdfrwt>
<pdfrwt beam="2">  1       21 0.59829511E-01 0.24479704E+03</pdfrwt>
<totfact> 0.28800119E+03</totfact>
</mgrwt>
</event>
<event>
 4    1  0.1116135E+000  0.1742752E+03  0.7546771E-02  0.1173461E+00
         21   -1    0    0  503  502  0.00000000000E+00  0.00000000000E+00  0.76455523424E+02  0.76455523424E+02  0.00000000000E+00 0.  1.
         21   -1    0    0  501  503 -0.00000000000E+00 -0.00000000000E+00 -0.49688866517E+03  0.49688866517E+03  0.00000000000E+00 0.  1.
          6    1    1    2  501    0 -0.27786170918E+02  0.39718824406E+01 -0.33858935106E+03  0.38080782003E+03  0.17200000000E+03 0.  1.
         -6    1    1    2    0  502  0.27786170918E+02 -0.39718824406E+01 -0.81843790678E+02  0.19253636856E+03  0.17200000000E+03 0.  1.
<mgrwt>
<rscale>  2 0.17427521E+03</rscale>
<asrwt>0</asrwt>
<pdfrwt beam="1">  1       21 0.19113881E-01 0.17427521E+03</pdfrwt>
<pdfrwt beam="2">  1       21 0.12422216E+00 0.17427521E+03</pdfrwt>
<totfact> 0.12331379E+04</totfact>
</mgrwt>
</event>
<event>
 4    1  0.1116135E+000  0.2146886E+03  0.7546771E-02  0.1137906E+00
         21   -1    0    0  501  502  0.00000000000E+00  0.00000000000E+00  0.44943074390E+02  0.44943074390E+02  0.00000000000E+00 0. -1.
         21   -1    0    0  502  503 -0.00000000000E+00 -0.00000000000E+00 -0.11044505819E+04  0.11044505819E+04  0.00000000000E+00 0. -1.
          6    1    1    2  501    0  0.86114287595E+02 -0.95349588124E+02 -0.37614524302E+03  0.43310097937E+03  0.17200000000E+03 0. -1.
         -6    1    1    2    0  503 -0.86114287595E+02  0.95349588124E+02 -0.68336226449E+03  0.71629267692E+03  0.17200000000E+03 0. -1.
<mgrwt>
<rscale>  2 0.21468865E+03</rscale>
<asrwt>0</asrwt>
<pdfrwt beam="1">  1       21 0.11235769E-01 0.21468865E+03</pdfrwt>
<pdfrwt beam="2">  1       21 0.27611264E+00 0.21468865E+03</pdfrwt>
<totfact> 0.30177398E+03</totfact>
</mgrwt>
</event>
<event>
 4    1  0.1116135E+000  0.1768241E+03  0.7546771E-02  0.1170913E+00
         21   -1    0    0  501  502  0.00000000000E+00  0.00000000000E+00  0.91196273176E+02  0.91196273176E+02  0.00000000000E+00 0.  1.
         21   -1    0    0  502  503 -0.00000000000E+00 -0.00000000000E+00 -0.51012114537E+03  0.51012114537E+03  0.00000000000E+00 0.  1.
          6    1    1    2  501    0  0.31306703634E+02 -0.26507833716E+02 -0.37297085125E+02  0.18071482369E+03  0.17200000000E+03 0.  1.
         -6    1    1    2    0  503 -0.31306703634E+02  0.26507833716E+02 -0.38162778707E+03  0.42060259486E+03  0.17200000000E+03 0.  1.
<mgrwt>
<rscale>  2 0.17682414E+03</rscale>
<asrwt>0</asrwt>
<pdfrwt beam="1">  1       21 0.22799069E-01 0.17682414E+03</pdfrwt>
<pdfrwt beam="2">  1       21 0.12753028E+00 0.17682414E+03</pdfrwt>
<totfact> 0.82864493E+03</totfact>
</mgrwt>
</event>
<event>
 4    1  0.1116135E+000  0.2093843E+03  0.7546771E-02  0.1142055E+00
         21   -1    0    0  501  502  0.00000000000E+00  0.00000000000E+00  0.62928032282E+03  0.62928032282E+03  0.00000000000E+00 0.  1.
         21   -1    0    0  502  503 -0.00000000000E+00 -0.00000000000E+00 -0.70114944567E+02  0.70114944567E+02  0.00000000000E+00 0. -1.
          6    1    1    2  501    0  0.58196112290E+02  0.10426397688E+03  0.25171556869E+03  0.32741791625E+03  0.17200000000E+03 0. -1.
         -6    1    1    2    0  503 -0.58196112290E+02 -0.10426397688E+03  0.30744980956E+03  0.37197735114E+03  0.17200000000E+03 0.  1.
<mgrwt>
<rscale>  2 0.20938425E+03</rscale>
<asrwt>0</asrwt>
<pdfrwt beam="1">  1       21 0.15732006E+00 0.20938425E+03</pdfrwt>
<pdfrwt beam="2">  1       21 0.17528738E-01 0.20938425E+03</pdfrwt>
<totfact> 0.76646579E+03</totfact>
</mgrwt>
</event>
<event>
 4    1  0.1116135E+000  0.2277483E+03  0.7546771E-02  0.1128235E+00
         21   -1    0    0  501  502  0.00000000000E+00  0.00000000000E+00  0.24718311560E+04  0.24718311560E+04  0.00000000000E+00 0.  1.
         21   -1    0    0  502  503 -0.00000000000E+00 -0.00000000000E+00 -0.21105376910E+02  0.21105376910E+02  0.00000000000E+00 0.  1.
          6    1    1    2  501    0 -0.11400538454E+03  0.96374535747E+02  0.11308954930E+04  0.11536004053E+04  0.17200000000E+03 0.  1.
         -6    1    1    2    0  503  0.11400538454E+03 -0.96374535747E+02  0.13198302860E+04  0.13393361276E+04  0.17200000000E+03 0.  1.
<mgrwt>
<rscale>  2 0.22774828E+03</rscale>
<asrwt>0</asrwt>
<pdfrwt beam="1">  1       21 0.61795680E+00 0.22774828E+03</pdfrwt>
<pdfrwt beam="2">  1       21 0.52763526E-02 0.22774828E+03</pdfrwt>
<totfact> 0.57001641E+01</totfact>
</mgrwt>
</event>
<event>
 4    1  0.1116135E+000  0.2609655E+03  0.7546771E-02  0.1106565E+00
         21   -1    0    0  501  502  0.00000000000E+00  0.00000000000E+00  0.71868888859E+03  0.71868888859E+03  0.00000000000E+00 0. -1.
         21   -1    0    0  502  503 -0.00000000000E+00 -0.00000000000E+00 -0.26683423181E+03  0.26683423181E+03  0.00000000000E+00 0. -1.
          6    1    1    2  501    0  0.16629816246E+03 -0.10423015584E+03  0.62163447162E+03  0.67419019611E+03  0.17200000000E+03 0. -1.
         -6    1    1    2    0  503 -0.16629816246E+03  0.10423015584E+03 -0.16977981484E+03  0.31133292429E+03  0.17200000000E+03 0. -1.
<mgrwt>
<rscale>  2 0.26096552E+03</rscale>
<asrwt>0</asrwt>
<pdfrwt beam="1">  1       21 0.17967222E+00 0.26096552E+03</pdfrwt>
<pdfrwt beam="2">  1       21 0.66708560E-01 0.26096552E+03</pdfrwt>
<totfact> 0.35032634E+02</totfact>
</mgrwt>
</event>
<event>
 4    1  0.1116135E+000  0.1859758E+03  0.7546771E-02  0.1162142E+00
         21   -1    0    0  503  502  0.00000000000E+00  0.00000000000E+00  0.18099511429E+03  0.18099511429E+03  0.00000000000E+00 0.  1.
         21   -1    0    0  501  503 -0.00000000000E+00 -0.00000000000E+00 -0.26053289642E+03  0.26053289642E+03  0.00000000000E+00 0. -1.
          6    1    1    2  501    0  0.68188146065E+02 -0.18798612212E+02 -0.15374126208E+03  0.24129522737E+03  0.17200000000E+03 0. -1.
         -6    1    1    2    0  502 -0.68188146065E+02  0.18798612212E+02  0.74203479950E+02  0.20023278333E+03  0.17200000000E+03 0.  1.
<mgrwt>
<rscale>  2 0.18597583E+03</rscale>
<asrwt>0</asrwt>
<pdfrwt beam="1">  1       21 0.45248779E-01 0.18597583E+03</pdfrwt>
<pdfrwt beam="2">  1       21 0.65133224E-01 0.18597583E+03</pdfrwt>
<totfact> 0.10212753E+04</totfact>
</mgrwt>
</event>
<event>
 4    1  0.1116135E+000  0.1784100E+03  0.7546771E-02  0.1169351E+00
         21   -1    0    0  501  502  0.00000000000E+00  0.00000000000E+00  0.41080434956E+02  0.41080434956E+02  0.00000000000E+00 0. -1.
         21   -1    0    0  502  503 -0.00000000000E+00 -0.00000000000E+00 -0.82503395037E+03  0.82503395037E+03  0.00000000000E+00 0. -1.
          6    1    1    2  501    0 -0.34834015714E+02  0.32136194996E+02 -0.28514500006E+03  0.33635965088E+03  0.17200000000E+03 0.  1.
         -6    1    1    2    0  503  0.34834015714E+02 -0.32136194996E+02 -0.49880851535E+03  0.52975473445E+03  0.17200000000E+03 0.  1.
<mgrwt>
<rscale>  2 0.17841004E+03</rscale>
<asrwt>0</asrwt>
<pdfrwt beam="1">  1       21 0.10270109E-01 0.17841004E+03</pdfrwt>
<pdfrwt beam="2">  1       21 0.20625849E+00 0.17841004E+03</pdfrwt>
<totfact> 0.96024635E+03</totfact>
</mgrwt>
</event>
<event>
 4    1  0.1116135E+000  0.1752836E+03  0.7546771E-02  0.1172447E+00
         21   -1    0    0  501  502  0.00000000000E+00  0.00000000000E+00  0.50945835771E+02  0.50945835771E+02  0.00000000000E+00 0.  1.
         21   -1    0    0  502  503 -0.00000000000E+00 -0.00000000000E+00 -0.77775498312E+03  0.77775498312E+03  0.00000000000E+00 0.  1.
          6    1    1    2  501    0 -0.32056014340E+02 -0.10618492842E+02 -0.16703982028E+03  0.24212939104E+03  0.17200000000E+03 0.  1.
         -6    1    1    2    0  503  0.32056014340E+02  0.10618492842E+02 -0.55976932707E+03  0.58657142786E+03  0.17200000000E+03 0.  1.
<mgrwt>
<rscale>  2 0.17528360E+03</rscale>
<asrwt>0</asrwt>
<pdfrwt beam="1">  1       21 0.12736459E-01 0.17528360E+03</pdfrwt>
<pdfrwt beam="2">  1       21 0.19443874E+00 0.17528360E+03</pdfrwt>
<totfact> 0.78123879E+03</totfact>
</mgrwt>
</event>
<event>
 4    1  0.1116135E+000  0.2366802E+03  0.7546771E-02  0.1122024E+00
         21   -1    0    0  503  502  0.00000000000E+00  0.00000000000E+00  0.11332272879E+03  0.11332272879E+03  0.00000000000E+00 0.  1.
         21   -1    0    0  501  503 -0.00000000000E+00 -0.00000000000E+00 -0.52264694653E+03  0.52264694653E+03  0.00000000000E+00 0.  1.
          6    1    1    2  501    0  0.11907734366E+02 -0.16214728054E+03 -0.27869294867E+03  0.36563273153E+03  0.17200000000E+03 0.  1.
         -6    1    1    2    0  502 -0.11907734366E+02  0.16214728054E+03 -0.13063126907E+03  0.27033694380E+03  0.17200000000E+03 0.  1.
<mgrwt>
<rscale>  2 0.23668024E+03</rscale>
<asrwt>0</asrwt>
<pdfrwt beam="1">  1       21 0.28330682E-01 0.23668024E+03</pdfrwt>
<pdfrwt beam="2">  1       21 0.13066174E+00 0.23668024E+03</pdfrwt>
<totfact> 0.49147586E+03</totfact>
</mgrwt>
</event>
<event>
 4    1  0.1116135E+000  0.2335082E+03  0.7546771E-02  0.1124195E+00
         21   -1    0    0  503  502  0.00000000000E+00  0.00000000000E+00  0.38325436739E+03  0.38325436739E+03  0.00000000000E+00 0.  1.
         21   -1    0    0  501  503 -0.00000000000E+00 -0.00000000000E+00 -0.14934920034E+03  0.14934920034E+03  0.00000000000E+00 0. -1.
          6    1    1    2  501    0 -0.14992749089E+03 -0.49636794762E+02  0.58979353113E+02  0.24084149977E+03  0.17200000000E+03 0. -1.
         -6    1    1    2    0  502  0.14992749089E+03  0.49636794762E+02  0.17492581393E+03  0.29176206796E+03  0.17200000000E+03 0.  1.
<mgrwt>
<rscale>  2 0.23350817E+03</rscale>
<asrwt>0</asrwt>
<pdfrwt beam="1">  1       21 0.95813590E-01 0.23350817E+03</pdfrwt>
<pdfrwt beam="2">  1       21 0.37337301E-01 0.23350817E+03</pdfrwt>
<totfact> 0.61004812E+03</totfact>
</mgrwt>
</event>
<event>
 4    1  0.1116135E+000  0.3551660E+03  0.7546771E-02  0.1060514E+00
         21   -1    0    0  503  502  0.00000000000E+00  0.00000000000E+00  0.26559836546E+03  0.26559836546E+03  0.00000000000E+00 0. -1.
         21   -1    0    0  501  503 -0.00000000000E+00 -0.00000000000E+00 -0.61229859490E+03  0.61229859490E+03  0.00000000000E+00 0. -1.
          6    1    1    2  501    0  0.28908547182E+03 -0.11396690809E+03  0.34553646870E+02  0.35684285151E+03  0.17200000000E+03 0. -1.
         -6    1    1    2    0  502 -0.28908547182E+03  0.11396690809E+03 -0.38125387631E+03  0.52105410886E+03  0.17200000000E+03 0. -1.
<mgrwt>
<rscale>  2 0.35516597E+03</rscale>
<asrwt>0</asrwt>
<pdfrwt beam="1">  1       21 0.66399592E-01 0.35516597E+03</pdfrwt>
<pdfrwt beam="2">  1       21 0.15307465E+00 0.35516597E+03</pdfrwt>
<totfact> 0.51570042E+02</totfact>
</mgrwt>
</event>
<event>
 4    1  0.1116135E+000  0.1877753E+03  0.7546771E-02  0.1160483E+00
         21   -1    0    0  501  502  0.00000000000E+00  0.00000000000E+00  0.11345482013E+03  0.11345482013E+03  0.00000000000E+00 0. -1.
         21   -1    0    0  502  503 -0.00000000000E+00 -0.00000000000E+00 -0.66381241941E+03  0.66381241941E+03  0.00000000000E+00 0. -1.
          6    1    1    2  501    0 -0.68193811663E+02  0.32018173317E+02  0.82373502013E+01  0.18795588129E+03  0.17200000000E+03 0. -1.
         -6    1    1    2    0  503  0.68193811663E+02 -0.32018173317E+02 -0.55859494949E+03  0.58931135825E+03  0.17200000000E+03 0. -1.
<mgrwt>
<rscale>  2 0.18777529E+03</rscale>
<asrwt>0</asrwt>
<pdfrwt beam="1">  1       21 0.28363705E-01 0.18777529E+03</pdfrwt>
<pdfrwt beam="2">  1       21 0.16595310E+00 0.18777529E+03</pdfrwt>
<totfact> 0.27212880E+03</totfact>
</mgrwt>
</event>
<event>
 4    1  0.1116135E+000  0.1923732E+03  0.7546771E-02  0.1156338E+00
         21   -1    0    0  501  502  0.00000000000E+00  0.00000000000E+00  0.81791968620E+02  0.81791968620E+02  0.00000000000E+00 0. -1.
         21   -1    0    0  502  503 -0.00000000000E+00 -0.00000000000E+00 -0.48628290935E+03  0.48628290935E+03  0.00000000000E+00 0. -1.
          6    1    1    2  501    0  0.85415549090E+02  0.11297612296E+02 -0.27715683623E+03  0.33737718349E+03  0.17200000000E+03 0. -1.
         -6    1    1    2    0  503 -0.85415549090E+02 -0.11297612296E+02 -0.12733410450E+03  0.23069769448E+03  0.17200000000E+03 0. -1.
<mgrwt>
<rscale>  2 0.19237321E+03</rscale>
<asrwt>0</asrwt>
<pdfrwt beam="1">  1       21 0.20447992E-01 0.19237321E+03</pdfrwt>
<pdfrwt beam="2">  1       21 0.12157073E+00 0.19237321E+03</pdfrwt>
<totfact> 0.11326575E+04</totfact>
</mgrwt>
</event>
<event>
 4    1  0.1116135E+000  0.1838484E+03  0.7546771E-02  0.1164130E+00
         21   -1    0    0  503  502  0.00000000000E+00  0.00000000000E+00  0.22655302504E+03  0.22655302504E+03  0.00000000000E+00 0.  1.
         21   -1    0    0  501  503 -0.00000000000E+00 -0.00000000000E+00 -0.38542774915E+03  0.38542774915E+03  0.00000000000E+00 0. -1.
          6    1    1    2  501    0  0.54277884124E+02 -0.35639306706E+02 -0.31899370983E+03  0.36818098240E+03  0.17200000000E+03 0. -1.
         -6    1    1    2    0  502 -0.54277884124E+02  0.35639306706E+02  0.16011898572E+03  0.24379979179E+03  0.17200000000E+03 0.  1.
<mgrwt>
<rscale>  2 0.18384844E+03</rscale>
<asrwt>0</asrwt>
<pdfrwt beam="1">  1       21 0.56638257E-01 0.18384844E+03</pdfrwt>
<pdfrwt beam="2">  1       21 0.96356936E-01 0.18384844E+03</pdfrwt>
<totfact> 0.26468502E+03</totfact>
</mgrwt>
</event>
<event>
 4    1  0.1116135E+000  0.1900350E+03  0.7546771E-02  0.1158430E+00
         21   -1    0    0  503  502  0.00000000000E+00  0.00000000000E+00  0.34751726908E+03  0.34751726908E+03  0.00000000000E+00 0. -1.
         21   -1    0    0  501  503 -0.00000000000E+00 -0.00000000000E+00 -0.10396796439E+03  0.10396796439E+03  0.00000000000E+00 0. -1.
          6    1    1    2  501    0  0.68379883165E+02  0.43052399183E+02  0.11682847448E+03  0.22307444933E+03  0.17200000000E+03 0. -1.
         -6    1    1    2    0  502 -0.68379883165E+02 -0.43052399183E+02  0.12672083022E+03  0.22841078414E+03  0.17200000000E+03 0. -1.
<mgrwt>
<rscale>  2 0.19003504E+03</rscale>
<asrwt>0</asrwt>
<pdfrwt beam="1">  1       21 0.86879315E-01 0.19003504E+03</pdfrwt>
<pdfrwt beam="2">  1       21 0.25991992E-01 0.19003504E+03</pdfrwt>
<totfact> 0.16050716E+04</totfact>
</mgrwt>
</event>
<event>
 4    1  0.1116135E+000  0.2198732E+03  0.7546771E-02  0.1133978E+00
         21   -1    0    0  503  502  0.00000000000E+00  0.00000000000E+00  0.14737592232E+04  0.14737592232E+04  0.00000000000E+00 0.  1.
         21   -1    0    0  501  503 -0.00000000000E+00 -0.00000000000E+00 -0.88883014408E+02  0.88883014408E+02  0.00000000000E+00 0.  1.
          6    1    1    2  501    0  0.63901137657E+02  0.12114815284E+03  0.71822196801E+02  0.23130641644E+03  0.17200000000E+03 0.  1.
         -6    1    1    2    0  502 -0.63901137657E+02 -0.12114815284E+03  0.13130540120E+04  0.13313358212E+04  0.17200000000E+03 0.  1.
<mgrwt>
<rscale>  2 0.21987321E+03</rscale>
<asrwt>0</asrwt>
<pdfrwt beam="1">  1       21 0.36843973E+00 0.21987321E+03</pdfrwt>
<pdfrwt beam="2">  1       21 0.22220758E-01 0.21987321E+03</pdfrwt>
<totfact> 0.24655337E+02</totfact>
</mgrwt>
</event>
<event>
 4    1  0.1116135E+000  0.4127906E+03  0.7546771E-02  0.1039439E+00
         21   -1    0    0  503  502  0.00000000000E+00  0.00000000000E+00  0.13566361561E+04  0.13566361561E+04  0.00000000000E+00 0. -1.
         21   -1    0    0  501  503 -0.00000000000E+00 -0.00000000000E+00 -0.12560405063E+03  0.12560405063E+03  0.00000000000E+00 0.  1.
          6    1    1    2  501    0 -0.35293730015E+03  0.12746518498E+03  0.61856566468E+03  0.74365287112E+03  0.17200000000E+03 0.  1.
         -6    1    1    2    0  502  0.35293730015E+03 -0.12746518498E+03  0.61246644075E+03  0.73858733557E+03  0.17200000000E+03 0. -1.
<mgrwt>
<rscale>  2 0.41279064E+03</rscale>
<asrwt>0</asrwt>
<pdfrwt beam="1">  1       21 0.33915899E+00 0.41279064E+03</pdfrwt>
<pdfrwt beam="2">  1       21 0.31401017E-01 0.41279064E+03</pdfrwt>
<totfact> 0.15583721E+02</totfact>
</mgrwt>
</event>
<event>
 4    1  0.1116135E+000  0.1858715E+03  0.7546771E-02  0.1162239E+00
         21   -1    0    0  503  502  0.00000000000E+00  0.00000000000E+00  0.94247525054E+02  0.94247525054E+02  0.00000000000E+00 0.  1.
         21   -1    0    0  501  503 -0.00000000000E+00 -0.00000000000E+00 -0.65800262867E+03  0.65800262867E+03  0.00000000000E+00 0.  1.
          6    1    1    2  501    0 -0.69921466661E+02  0.86720651471E+01 -0.53219339893E+03  0.56371804129E+03  0.17200000000E+03 0.  1.
         -6    1    1    2    0  502  0.69921466661E+02 -0.86720651471E+01 -0.31561704682E+02  0.18853211243E+03  0.17200000000E+03 0.  1.
<mgrwt>
<rscale>  2 0.18587150E+03</rscale>
<asrwt>0</asrwt>
<pdfrwt beam="1">  1       21 0.23561882E-01 0.18587150E+03</pdfrwt>
<pdfrwt beam="2">  1       21 0.16450065E+00 0.18587150E+03</pdfrwt>
<totfact> 0.39827747E+03</totfact>
</mgrwt>
</event>
<event>
 4    1  0.1116135E+000  0.2479866E+03  0.7546771E-02  0.1114584E+00
         21   -1    0    0  503  502  0.00000000000E+00  0.00000000000E+00  0.80639359352E+03  0.80639359352E+03  0.00000000000E+00 0. -1.
         21   -1    0    0  501  503 -0.00000000000E+00 -0.00000000000E+00 -0.91301135143E+02  0.91301135143E+02  0.00000000000E+00 0. -1.
          6    1    1    2  501    0  0.16281578646E+03  0.73514554825E+02  0.17537962384E+03  0.30373571168E+03  0.17200000000E+03 0. -1.
         -6    1    1    2    0  502 -0.16281578646E+03 -0.73514554825E+02  0.53971283454E+03  0.59395901699E+03  0.17200000000E+03 0. -1.
<mgrwt>
<rscale>  2 0.24798663E+03</rscale>
<asrwt>0</asrwt>
<pdfrwt beam="1">  1       21 0.20159838E+00 0.24798663E+03</pdfrwt>
<pdfrwt beam="2">  1       21 0.22825286E-01 0.24798663E+03</pdfrwt>
<totfact> 0.22441288E+03</totfact>
</mgrwt>
</event>
<event>
 4    1  0.1116135E+000  0.1859301E+03  0.7546771E-02  0.1162184E+00
         21   -1    0    0  503  502  0.00000000000E+00  0.00000000000E+00  0.13390980107E+03  0.13390980107E+03  0.00000000000E+00 0.  1.
         21   -1    0    0  501  503 -0.00000000000E+00 -0.00000000000E+00 -0.27845579018E+03  0.27845579018E+03  0.00000000000E+00 0.  1.
          6    1    1    2  501    0 -0.38457887990E+02 -0.59219720381E+02 -0.12793910116E+03  0.22569536556E+03  0.17200000000E+03 0.  1.
         -6    1    1    2    0  502  0.38457887990E+02  0.59219720381E+02 -0.16606887941E+02  0.18667022569E+03  0.17200000000E+03 0.  1.
<mgrwt>
<rscale>  2 0.18593005E+03</rscale>
<asrwt>0</asrwt>
<pdfrwt beam="1">  1       21 0.33477451E-01 0.18593005E+03</pdfrwt>
<pdfrwt beam="2">  1       21 0.69613947E-01 0.18593005E+03</pdfrwt>
<totfact> 0.16186258E+04</totfact>
</mgrwt>
</event>
<event>
 4    1  0.1116135E+000  0.4286493E+03  0.7546771E-02  0.1034288E+00
         21   -1    0    0  501  502  0.00000000000E+00  0.00000000000E+00  0.87362558756E+03  0.87362558756E+03  0.00000000000E+00 0.  1.
         21   -1    0    0  502  503 -0.00000000000E+00 -0.00000000000E+00 -0.10694880948E+04  0.10694880948E+04  0.00000000000E+00 0. -1.
          6    1    1    2  501    0  0.39175522257E+03 -0.26154084469E+02  0.77287095618E+03  0.88378148060E+03  0.17200000000E+03 0.  1.
         -6    1    1    2    0  503 -0.39175522257E+03  0.26154084469E+02 -0.96873346343E+03  0.10593322018E+04  0.17200000000E+03 0. -1.
<mgrwt>
<rscale>  2 0.42864926E+03</rscale>
<asrwt>0</asrwt>
<pdfrwt beam="1">  1       21 0.21840640E+00 0.42864926E+03</pdfrwt>
<pdfrwt beam="2">  1       21 0.26737202E+00 0.42864926E+03</pdfrwt>
<totfact> 0.39344976E+00</totfact>
</mgrwt>
</event>
<event>
 4    1  0.1116135E+000  0.2090031E+03  0.7546771E-02  0.1142358E+00
         21   -1    0    0  501  502  0.00000000000E+00  0.00000000000E+00  0.20615210140E+03  0.20615210140E+03  0.00000000000E+00 0.  1.
         21   -1    0    0  502  503 -0.00000000000E+00 -0.00000000000E+00 -0.49375841458E+03  0.49375841458E+03  0.00000000000E+00 0.  1.
          6    1    1    2  501    0  0.29898247929E+02 -0.11491044001E+03  0.12060551110E+03  0.24130479432E+03  0.17200000000E+03 0.  1.
         -6    1    1    2    0  503 -0.29898247929E+02  0.11491044001E+03 -0.40821182429E+03  0.45860572166E+03  0.17200000000E+03 0.  1.
<mgrwt>
<rscale>  2 0.20900314E+03</rscale>
<asrwt>0</asrwt>
<pdfrwt beam="1">  1       21 0.51538026E-01 0.20900314E+03</pdfrwt>
<pdfrwt beam="2">  1       21 0.12343960E+00 0.20900314E+03</pdfrwt>
<totfact> 0.17340337E+03</totfact>
</mgrwt>
</event>
<event>
 4    1  0.1116135E+000  0.1752584E+03  0.7546771E-02  0.1172472E+00
         21   -1    0    0  503  502  0.00000000000E+00  0.00000000000E+00  0.71160947347E+02  0.71160947347E+02  0.00000000000E+00 0.  1.
         21   -1    0    0  501  503 -0.00000000000E+00 -0.00000000000E+00 -0.44601398120E+03  0.44601398120E+03  0.00000000000E+00 0. -1.
          6    1    1    2  501    0  0.30546736567E+02 -0.14085946576E+02 -0.23385724137E+03  0.29224087043E+03  0.17200000000E+03 0. -1.
         -6    1    1    2    0  502 -0.30546736567E+02  0.14085946576E+02 -0.14099579249E+03  0.22493405813E+03  0.17200000000E+03 0.  1.
<mgrwt>
<rscale>  2 0.17525843E+03</rscale>
<asrwt>0</asrwt>
<pdfrwt beam="1">  1       21 0.17790237E-01 0.17525843E+03</pdfrwt>
<pdfrwt beam="2">  1       21 0.11150349E+00 0.17525843E+03</pdfrwt>
<totfact> 0.18337085E+04</totfact>
</mgrwt>
</event>
<event>
 4    1  0.1116135E+000  0.3326276E+03  0.7546771E-02  0.1069980E+00
         21   -1    0    0  503  502  0.00000000000E+00  0.00000000000E+00  0.42606315038E+03  0.42606315038E+03  0.00000000000E+00 0. -1.
         21   -1    0    0  501  503 -0.00000000000E+00 -0.00000000000E+00 -0.26140077426E+03  0.26140077426E+03  0.00000000000E+00 0. -1.
          6    1    1    2  501    0  0.20201634373E+02  0.28398775200E+03  0.11019953204E+03  0.35040702929E+03  0.17200000000E+03 0. -1.
         -6    1    1    2    0  502 -0.20201634373E+02 -0.28398775200E+03  0.54462844073E+02  0.33705689535E+03  0.17200000000E+03 0. -1.
<mgrwt>
<rscale>  2 0.33262764E+03</rscale>
<asrwt>0</asrwt>
<pdfrwt beam="1">  1       21 0.10651579E+00 0.33262764E+03</pdfrwt>
<pdfrwt beam="2">  1       21 0.65350194E-01 0.33262764E+03</pdfrwt>
<totfact> 0.13726701E+03</totfact>
</mgrwt>
</event>
<event>
 4    1  0.1116135E+000  0.1889993E+03  0.7546771E-02  0.1159367E+00
         21   -1    0    0  503  502  0.00000000000E+00  0.00000000000E+00  0.60545431877E+03  0.60545431877E+03  0.00000000000E+00 0.  1.
         21   -1    0    0  501  503 -0.00000000000E+00 -0.00000000000E+00 -0.59273561461E+02  0.59273561461E+02  0.00000000000E+00 0. -1.
          6    1    1    2  501    0  0.72423824613E+02 -0.29858672756E+02  0.25043932357E+03  0.31375245895E+03  0.17200000000E+03 0. -1.
         -6    1    1    2    0  502 -0.72423824613E+02  0.29858672756E+02  0.29574143375E+03  0.35097542128E+03  0.17200000000E+03 0. -1.
<mgrwt>
<rscale>  2 0.18899934E+03</rscale>
<asrwt>0</asrwt>
<pdfrwt beam="1">  1       21 0.15136356E+00 0.18899934E+03</pdfrwt>
<pdfrwt beam="2">  1       21 0.14818392E-01 0.18899934E+03</pdfrwt>
<totfact> 0.11737518E+04</totfact>
</mgrwt>
</event>
<event>
 4    1  0.1116135E+000  0.2792132E+03  0.7546771E-02  0.1096119E+00
         21   -1    0    0  501  502  0.00000000000E+00  0.00000000000E+00  0.34605728511E+03  0.34605728511E+03  0.00000000000E+00 0. -1.
         21   -1    0    0  502  503 -0.00000000000E+00 -0.00000000000E+00 -0.28968145264E+03  0.28968145264E+03  0.00000000000E+00 0. -1.
          6    1    1    2  501    0  0.12021996426E+03  0.18418249040E+03  0.17806449998E+03  0.33116007569E+03  0.17200000000E+03 0. -1.
         -6    1    1    2    0  503 -0.12021996426E+03 -0.18418249040E+03 -0.12168866752E+03  0.30457866206E+03  0.17200000000E+03 0. -1.
<mgrwt>
<rscale>  2 0.27921323E+03</rscale>
<asrwt>0</asrwt>
<pdfrwt beam="1">  1       21 0.86514321E-01 0.27921323E+03</pdfrwt>
<pdfrwt beam="2">  1       21 0.72420363E-01 0.27921323E+03</pdfrwt>
<totfact> 0.18500233E+03</totfact>
</mgrwt>
</event>
<event>
 4    1  0.1116135E+000  0.1936530E+03  0.7546771E-02  0.1155207E+00
         21   -1    0    0  503  502  0.00000000000E+00  0.00000000000E+00  0.13954206475E+03  0.13954206475E+03  0.00000000000E+00 0. -1.
         21   -1    0    0  501  503 -0.00000000000E+00 -0.00000000000E+00 -0.27796582187E+03  0.27796582187E+03  0.00000000000E+00 0. -1.
          6    1    1    2  501    0  0.11253762268E+02 -0.88265694230E+02 -0.10722924149E+03  0.22135851051E+03  0.17200000000E+03 0. -1.
         -6    1    1    2    0  502 -0.11253762268E+02  0.88265694230E+02 -0.31194515629E+02  0.19614937611E+03  0.17200000000E+03 0. -1.
<mgrwt>
<rscale>  2 0.19365299E+03</rscale>
<asrwt>0</asrwt>
<pdfrwt beam="1">  1       21 0.34885517E-01 0.19365299E+03</pdfrwt>
<pdfrwt beam="2">  1       21 0.69491455E-01 0.19365299E+03</pdfrwt>
<totfact> 0.14905451E+04</totfact>
</mgrwt>
</event>
<event>
 4    1  0.1116135E+000  0.1828431E+03  0.7546771E-02  0.1165080E+00
         21   -1    0    0  503  502  0.00000000000E+00  0.00000000000E+00  0.18297537165E+03  0.18297537165E+03  0.00000000000E+00 0.  1.
         21   -1    0    0  501  503 -0.00000000000E+00 -0.00000000000E+00 -0.20737255006E+03  0.20737255006E+03  0.00000000000E+00 0.  1.
          6    1    1    2  501    0  0.59780106392E+02 -0.16550579162E+02 -0.79505225451E+02  0.19938070033E+03  0.17200000000E+03 0.  1.
         -6    1    1    2    0  502 -0.59780106392E+02  0.16550579162E+02  0.55108047037E+02  0.19096722137E+03  0.17200000000E+03 0.  1.
<mgrwt>
<rscale>  2 0.18284306E+03</rscale>
<asrwt>0</asrwt>
<pdfrwt beam="1">  1       21 0.45743843E-01 0.18284306E+03</pdfrwt>
<pdfrwt beam="2">  1       21 0.51843138E-01 0.18284306E+03</pdfrwt>
<totfact> 0.16284243E+04</totfact>
</mgrwt>
</event>
<event>
 4    1  0.1116135E+000  0.1745051E+03  0.7546771E-02  0.1173230E+00
         21   -1    0    0  501  502  0.00000000000E+00  0.00000000000E+00  0.59381954484E+02  0.59381954484E+02  0.00000000000E+00 0.  1.
         21   -1    0    0  502  503 -0.00000000000E+00 -0.00000000000E+00 -0.11843534911E+04  0.11843534911E+04  0.00000000000E+00 0.  1.
          6    1    1    2  501    0 -0.29418600757E+02 -0.16050562557E+01 -0.94220011675E+02  0.19831651690E+03  0.17200000000E+03 0.  1.
         -6    1    1    2    0  503  0.29418600757E+02  0.16050562557E+01 -0.10307515249E+04  0.10454189287E+04  0.17200000000E+03 0.  1.
<mgrwt>
<rscale>  2 0.17450510E+03</rscale>
<asrwt>0</asrwt>
<pdfrwt beam="1">  1       21 0.14845489E-01 0.17450510E+03</pdfrwt>
<pdfrwt beam="2">  1       21 0.29608836E+00 0.17450510E+03</pdfrwt>
<totfact> 0.14731068E+03</totfact>
</mgrwt>
</event>
<event>
 4    1  0.1116135E+000  0.2639073E+03  0.7546771E-02  0.1104818E+00
         21   -1    0    0  503  502  0.00000000000E+00  0.00000000000E+00  0.71948121715E+03  0.71948121715E+03  0.00000000000E+00 0. -1.
         21   -1    0    0  501  503 -0.00000000000E+00 -0.00000000000E+00 -0.20234696561E+03  0.20234696561E+03  0.00000000000E+00 0. -1.
          6    1    1    2  501    0 -0.90681000725E+02 -0.17843765668E+03 -0.74315334560E+02  0.27417113299E+03  0.17200000000E+03 0. -1.
         -6    1    1    2    0  502  0.90681000725E+02  0.17843765668E+03  0.59144958611E+03  0.64765704977E+03  0.17200000000E+03 0. -1.
<mgrwt>
<rscale>  2 0.26390726E+03</rscale>
<asrwt>0</asrwt>
<pdfrwt beam="1">  1       21 0.17987030E+00 0.26390726E+03</pdfrwt>
<pdfrwt beam="2">  1       21 0.50586743E-01 0.26390726E+03</pdfrwt>
<totfact> 0.63184256E+02</totfact>
</mgrwt>
</event>
<event>
 4    1  0.1116135E+000  0.1854644E+03  0.7546771E-02  0.1162617E+00
         21   -1    0    0  503  502  0.00000000000E+00  0.00000000000E+00  0.13752998401E+03  0.13752998401E+03  0.00000000000E+00 0.  1.
         21   -1    0    0  501  503 -0.00000000000E+00 -0.00000000000E+00 -0.25181495166E+03  0.25181495166E+03  0.00000000000E+00 0.  1.
          6    1    1    2  501    0 -0.65994570773E+02  0.21395225925E+02 -0.73180886374E+02  0.19938024274E+03  0.17200000000E+03 0.  1.
         -6    1    1    2    0  502  0.65994570773E+02 -0.21395225925E+02 -0.41104081278E+02  0.18996469293E+03  0.17200000000E+03 0.  1.
<mgrwt>
<rscale>  2 0.18546439E+03</rscale>
<asrwt>0</asrwt>
<pdfrwt beam="1">  1       21 0.34382496E-01 0.18546439E+03</pdfrwt>
<pdfrwt beam="2">  1       21 0.62953737E-01 0.18546439E+03</pdfrwt>
<totfact> 0.19127091E+04</totfact>
</mgrwt>
</event>
<event>
 4    1  0.1116135E+000  0.1752237E+03  0.7546771E-02  0.1172507E+00
         21   -1    0    0  503  502  0.00000000000E+00  0.00000000000E+00  0.36807464748E+02  0.36807464748E+02  0.00000000000E+00 0.  1.
         21   -1    0    0  501  503 -0.00000000000E+00 -0.00000000000E+00 -0.85536171174E+03  0.85536171174E+03  0.00000000000E+00 0. -1.
          6    1    1    2  501    0  0.28426469995E+01 -0.33335394964E+02 -0.47950730170E+03  0.51051991301E+03  0.17200000000E+03 0.  1.
         -6    1    1    2    0  502 -0.28426469995E+01  0.33335394964E+02 -0.33904694530E+03  0.38164926348E+03  0.17200000000E+03 0.  1.
<mgrwt>
<rscale>  2 0.17522365E+03</rscale>
<asrwt>0</asrwt>
<pdfrwt beam="1">  1       21 0.92018663E-02 0.17522365E+03</pdfrwt>
<pdfrwt beam="2">  1       21 0.21384043E+00 0.17522365E+03</pdfrwt>
<totfact> 0.10478676E+04</totfact>
</mgrwt>
</event>
<event>
 4    1  0.1116135E+000  0.1742012E+03  0.7546771E-02  0.1173536E+00
         21   -1    0    0  503  502  0.00000000000E+00  0.00000000000E+00  0.52563522942E+03  0.52563522942E+03  0.00000000000E+00 0.  1.
         21   -1    0    0  501  503 -0.00000000000E+00 -0.00000000000E+00 -0.25682439160E+03  0.25682439160E+03  0.00000000000E+00 0.  1.
          6    1    1    2  501    0 -0.21321165313E+02 -0.17534700505E+02 -0.21005629746E+03  0.27289138116E+03  0.17200000000E+03 0.  1.
         -6    1    1    2    0  502  0.21321165313E+02  0.17534700505E+02  0.47886713529E+03  0.50956823986E+03  0.17200000000E+03 0.  1.
<mgrwt>
<rscale>  2 0.17420120E+03</rscale>
<asrwt>0</asrwt>
<pdfrwt beam="1">  1       21 0.13140881E+00 0.17420120E+03</pdfrwt>
<pdfrwt beam="2">  1       21 0.64206099E-01 0.17420120E+03</pdfrwt>
<totfact> 0.96055284E+02</totfact>
</mgrwt>
</event>
<event>
 4    1  0.1116135E+000  0.1812135E+03  0.7546771E-02  0.1166634E+00
         21   -1    0    0  503  502  0.00000000000E+00  0.00000000000E+00  0.12809509440E+03  0.12809509440E+03  0.00000000000E+00 0. -1.
         21   -1    0    0  501  503 -0.00000000000E+00 -0.00000000000E+00 -0.83302939657E+03  0.83302939657E+03  0.00000000000E+00 0. -1.
          6    1    1    2  501    0 -0.56768194354E+02 -0.56321176146E+01 -0.75230440804E+03  0.77382185999E+03  0.17200000000E+03 0. -1.
         -6    1    1    2    0  502  0.56768194354E+02  0.56321176146E+01  0.47370105881E+02  0.18730263098E+03  0.17200000000E+03 0. -1.
<mgrwt>
<rscale>  2 0.18121354E+03</rscale>
<asrwt>0</asrwt>
<pdfrwt beam="1">  1       21 0.32023774E-01 0.18121354E+03</pdfrwt>
<pdfrwt beam="2">  1       21 0.20825735E+00 0.18121354E+03</pdfrwt>
<totfact> 0.11309729E+03</totfact>
</mgrwt>
</event>
<event>
 4    1  0.1116135E+000  0.2192001E+03  0.7546771E-02  0.1134481E+00
         21   -1    0    0  501  502  0.00000000000E+00  0.00000000000E+00  0.29460964133E+03  0.29460964133E+03  0.00000000000E+00 0. -1.
         21   -1    0    0  502  503 -0.00000000000E+00 -0.00000000000E+00 -0.21495152400E+03  0.21495152400E+03  0.00000000000E+00 0.  1.
          6    1    1    2  501    0  0.95360556325E+02 -0.96804181718E+02 -0.85314167024E+02  0.23521733013E+03  0.17200000000E+03 0.  1.
         -6    1    1    2    0  503 -0.95360556325E+02  0.96804181718E+02  0.16497228436E+03  0.27434383519E+03  0.17200000000E+03 0. -1.
<mgrwt>
<rscale>  2 0.21920010E+03</rscale>
<asrwt>0</asrwt>
<pdfrwt beam="1">  1       21 0.73652410E-01 0.21920010E+03</pdfrwt>
<pdfrwt beam="2">  1       21 0.53737881E-01 0.21920010E+03</pdfrwt>
<totfact> 0.53168176E+03</totfact>
</mgrwt>
</event>
<event>
 4    1  0.1116135E+000  0.1949550E+03  0.7546771E-02  0.1154067E+00
         21   -1    0    0  503  502  0.00000000000E+00  0.00000000000E+00  0.13418394104E+04  0.13418394104E+04  0.00000000000E+00 0.  1.
         21   -1    0    0  501  503 -0.00000000000E+00 -0.00000000000E+00 -0.47275959183E+02  0.47275959183E+02  0.00000000000E+00 0. -1.
          6    1    1    2  501    0 -0.59469643469E+02 -0.69905703636E+02  0.20753251201E+03  0.28474056514E+03  0.17200000000E+03 0. -1.
         -6    1    1    2    0  502  0.59469643469E+02  0.69905703636E+02  0.10870309392E+04  0.11043748045E+04  0.17200000000E+03 0.  1.
<mgrwt>
<rscale>  2 0.19495498E+03</rscale>
<asrwt>0</asrwt>
<pdfrwt beam="1">  1       21 0.33545973E+00 0.19495498E+03</pdfrwt>
<pdfrwt beam="2">  1       21 0.11818994E-01 0.19495498E+03</pdfrwt>
<totfact> 0.12791789E+03</totfact>
</mgrwt>
</event>
<event>
 4    1  0.1116135E+000  0.2562885E+03  0.7546771E-02  0.1109394E+00
         21   -1    0    0  501  502  0.00000000000E+00  0.00000000000E+00  0.71714601716E+02  0.71714601716E+02  0.00000000000E+00 0.  1.
         21   -1    0    0  502  503 -0.00000000000E+00 -0.00000000000E+00 -0.10060692218E+04  0.10060692218E+04  0.00000000000E+00 0. -1.
          6    1    1    2  501    0  0.75075415197E+02  0.17453791769E+03 -0.62850298715E+03  0.67874870721E+03  0.17200000000E+03 0. -1.
         -6    1    1    2    0  503 -0.75075415197E+02 -0.17453791769E+03 -0.30585163292E+03  0.39903511629E+03  0.17200000000E+03 0.  1.
<mgrwt>
<rscale>  2 0.25628851E+03</rscale>
<asrwt>0</asrwt>
<pdfrwt beam="1">  1       21 0.17928651E-01 0.25628851E+03</pdfrwt>
<pdfrwt beam="2">  1       21 0.25151730E+00 0.25628851E+03</pdfrwt>
<totfact> 0.17265395E+03</totfact>
</mgrwt>
</event>
<event>
 4    1  0.1116135E+000  0.2351969E+03  0.7546771E-02  0.1123034E+00
         21   -1    0    0  501  502  0.00000000000E+00  0.00000000000E+00  0.26381807144E+03  0.26381807144E+03  0.00000000000E+00 0. -1.
         21   -1    0    0  502  503 -0.00000000000E+00 -0.00000000000E+00 -0.24559157568E+03  0.24559157568E+03  0.00000000000E+00 0.  1.
          6    1    1    2  501    0 -0.62552753772E+02  0.14771845406E+03  0.10650960850E+03  0.25818963066E+03  0.17200000000E+03 0. -1.
         -6    1    1    2    0  503  0.62552753772E+02 -0.14771845406E+03 -0.88283112737E+02  0.25122001646E+03  0.17200000000E+03 0.  1.
<mgrwt>
<rscale>  2 0.23519691E+03</rscale>
<asrwt>0</asrwt>
<pdfrwt beam="1">  1       21 0.65954518E-01 0.23519691E+03</pdfrwt>
<pdfrwt beam="2">  1       21 0.61397894E-01 0.23519691E+03</pdfrwt>
<totfact> 0.50480598E+03</totfact>
</mgrwt>
</event>
<event>
 4    1  0.1116135E+000  0.1791862E+03  0.7546771E-02  0.1168593E+00
         21   -1    0    0  503  502  0.00000000000E+00  0.00000000000E+00  0.37243863470E+03  0.37243863470E+03  0.00000000000E+00 0.  1.
         21   -1    0    0  501  503 -0.00000000000E+00 -0.00000000000E+00 -0.87050773329E+02  0.87050773329E+02  0.00000000000E+00 0.  1.
          6    1    1    2  501    0  0.24175985814E+02  0.44036522563E+02  0.12010655497E+03  0.21571573460E+03  0.17200000000E+03 0.  1.
         -6    1    1    2    0  502 -0.24175985814E+02 -0.44036522563E+02  0.16528130641E+03  0.24377367343E+03  0.17200000000E+03 0.  1.
<mgrwt>
<rscale>  2 0.17918620E+03</rscale>
<asrwt>0</asrwt>
<pdfrwt beam="1">  1       21 0.93109655E-01 0.17918620E+03</pdfrwt>
<pdfrwt beam="2">  1       21 0.21762694E-01 0.17918620E+03</pdfrwt>
<totfact> 0.19288173E+04</totfact>
</mgrwt>
</event>
<event>
 4    1  0.1116135E+000  0.2045697E+03  0.7546771E-02  0.1145940E+00
         21   -1    0    0  503  502  0.00000000000E+00  0.00000000000E+00  0.56845941549E+03  0.56845941549E+03  0.00000000000E+00 0.  1.
         21   -1    0    0  501  503 -0.00000000000E+00 -0.00000000000E+00 -0.75470331142E+02  0.75470331142E+02  0.00000000000E+00 0. -1.
          6    1    1    2  501    0 -0.93391672660E+02 -0.59521086461E+02  0.19605206795E+03  0.28334639155E+03  0.17200000000E+03 0. -1.
         -6    1    1    2    0  502  0.93391672660E+02  0.59521086461E+02  0.29693701640E+03  0.36058335508E+03  0.17200000000E+03 0.  1.
<mgrwt>
<rscale>  2 0.20456971E+03</rscale>
<asrwt>0</asrwt>
<pdfrwt beam="1">  1       21 0.14211484E+00 0.20456971E+03</pdfrwt>
<pdfrwt beam="2">  1       21 0.18867584E-01 0.20456971E+03</pdfrwt>
<totfact> 0.87768353E+03</totfact>
</mgrwt>
</event>
<event>
 4    1  0.1116135E+000  0.1743414E+03  0.7546771E-02  0.1173395E+00
         21   -1    0    0  503  502  0.00000000000E+00  0.00000000000E+00  0.45308438335E+02  0.45308438335E+02  0.00000000000E+00 0. -1.
         21   -1    0    0  501  503 -0.00000000000E+00 -0.00000000000E+00 -0.67677397820E+03  0.67677397820E+03  0.00000000000E+00 0. -1.
          6    1    1    2  501    0 -0.90006188024E+01 -0.27017118132E+02 -0.28193969535E+03  0.33148895551E+03  0.17200000000E+03 0. -1.
         -6    1    1    2    0  502  0.90006188024E+01  0.27017118132E+02 -0.34952584451E+03  0.39059346102E+03  0.17200000000E+03 0. -1.
<mgrwt>
<rscale>  2 0.17434143E+03</rscale>
<asrwt>0</asrwt>
<pdfrwt beam="1">  1       21 0.11327110E-01 0.17434143E+03</pdfrwt>
<pdfrwt beam="2">  1       21 0.16919349E+00 0.17434143E+03</pdfrwt>
<totfact> 0.14261071E+04</totfact>
</mgrwt>
</event>
<event>
 4    1  0.1116135E+000  0.1798780E+03  0.7546771E-02  0.1167921E+00
         21   -1    0    0  503  502  0.00000000000E+00  0.00000000000E+00  0.22905419854E+03  0.22905419854E+03  0.00000000000E+00 0.  1.
         21   -1    0    0  501  503 -0.00000000000E+00 -0.00000000000E+00 -0.14653632472E+03  0.14653632472E+03  0.00000000000E+00 0.  1.
          6    1    1    2  501    0 -0.45992133954E+02 -0.25628187978E+02  0.76895722509E+02  0.19562472376E+03  0.17200000000E+03 0.  1.
         -6    1    1    2    0  502  0.45992133954E+02  0.25628187978E+02  0.56221513160E+01  0.17996579950E+03  0.17200000000E+03 0.  1.
<mgrwt>
<rscale>  2 0.17987796E+03</rscale>
<asrwt>0</asrwt>
<pdfrwt beam="1">  1       21 0.57263549E-01 0.17987796E+03</pdfrwt>
<pdfrwt beam="2">  1       21 0.36634081E-01 0.17987796E+03</pdfrwt>
<totfact> 0.20732279E+04</totfact>
</mgrwt>
</event>
<event>
 4    1  0.1116135E+000  0.2704101E+03  0.7546771E-02  0.1101045E+00
         21   -1    0    0  503  502  0.00000000000E+00  0.00000000000E+00  0.15035248514E+03  0.15035248514E+03  0.00000000000E+00 0.  1.
         21   -1    0    0  501  503 -0.00000000000E+00 -0.00000000000E+00 -0.59680029280E+03  0.59680029280E+03  0.00000000000E+00 0.  1.
          6    1    1    2  501    0  0.17504997279E+03 -0.11355665276E+03 -0.38394716606E+03  0.46961370581E+03  0.17200000000E+03 0.  1.
         -6    1    1    2    0  502 -0.17504997279E+03  0.11355665276E+03 -0.62500641600E+02  0.27753907213E+03  0.17200000000E+03 0.  1.
<mgrwt>
<rscale>  2 0.27041007E+03</rscale>
<asrwt>0</asrwt>
<pdfrwt beam="1">  1       21 0.37588122E-01 0.27041007E+03</pdfrwt>
<pdfrwt beam="2">  1       21 0.14920007E+00 0.27041007E+03</pdfrwt>
<totfact> 0.19411613E+03</totfact>
</mgrwt>
</event>
<event>
 4    1  0.1116135E+000  0.1739850E+03  0.7546771E-02  0.1173755E+00
         21   -1    0    0  501  502  0.00000000000E+00  0.00000000000E+00  0.23373041964E+02  0.23373041964E+02  0.00000000000E+00 0. -1.
         21   -1    0    0  502  503 -0.00000000000E+00 -0.00000000000E+00 -0.12955074512E+04  0.12955074512E+04  0.00000000000E+00 0. -1.
          6    1    1    2  501    0 -0.11182831652E+02 -0.23700588530E+02 -0.62458741141E+03  0.64836734041E+03  0.17200000000E+03 0.  1.
         -6    1    1    2    0  503  0.11182831652E+02  0.23700588530E+02 -0.64754699781E+03  0.67051315273E+03  0.17200000000E+03 0.  1.
<mgrwt>
<rscale>  2 0.17398498E+03</rscale>
<asrwt>0</asrwt>
<pdfrwt beam="1">  1       21 0.58432604E-02 0.17398498E+03</pdfrwt>
<pdfrwt beam="2">  1       21 0.32387687E+00 0.17398498E+03</pdfrwt>
<totfact> 0.52506578E+03</totfact>
</mgrwt>
</event>
<event>
 4    1  0.1116135E+000  0.2368423E+03  0.7546771E-02  0.1121914E+00
         21   -1    0    0  503  502  0.00000000000E+00  0.00000000000E+00  0.15751970369E+03  0.15751970369E+03  0.00000000000E+00 0. -1.
         21   -1    0    0  501  503 -0.00000000000E+00 -0.00000000000E+00 -0.48215615306E+03  0.48215615306E+03  0.00000000000E+00 0.  1.
          6    1    1    2  501    0 -0.43108428287E+02 -0.15700938132E+03 -0.32584977466E+03  0.40283043338E+03  0.17200000000E+03 0. -1.
         -6    1    1    2    0  502  0.43108428287E+02  0.15700938132E+03  0.12133252893E+01  0.23684542336E+03  0.17200000000E+03 0.  1.
<mgrwt>
<rscale>  2 0.23684232E+03</rscale>
<asrwt>0</asrwt>
<pdfrwt beam="1">  1       21 0.39379926E-01 0.23684232E+03</pdfrwt>
<pdfrwt beam="2">  1       21 0.12053904E+00 0.23684232E+03</pdfrwt>
<totfact> 0.31333602E+03</totfact>
</mgrwt>
</event>
<event>
 4    1  0.1116135E+000  0.2047784E+03  0.7546771E-02  0.1145769E+00
         21   -1    0    0  503  502  0.00000000000E+00  0.00000000000E+00  0.30874714342E+03  0.30874714342E+03  0.00000000000E+00 0.  1.
         21   -1    0    0  501  503 -0.00000000000E+00 -0.00000000000E+00 -0.28090903787E+03  0.28090903787E+03  0.00000000000E+00 0.  1.
          6    1    1    2  501    0  0.95299651846E+02  0.57167727192E+02 -0.19796713464E+03  0.28482478662E+03  0.17200000000E+03 0.  1.
         -6    1    1    2    0  502 -0.95299651846E+02 -0.57167727192E+02  0.22580524019E+03  0.30483139466E+03  0.17200000000E+03 0.  1.
<mgrwt>
<rscale>  2 0.20477835E+03</rscale>
<asrwt>0</asrwt>
<pdfrwt beam="1">  1       21 0.77186786E-01 0.20477835E+03</pdfrwt>
<pdfrwt beam="2">  1       21 0.70227259E-01 0.20477835E+03</pdfrwt>
<totfact> 0.27144160E+03</totfact>
</mgrwt>
</event>
<event>
 4    1  0.1116135E+000  0.2587011E+03  0.7546771E-02  0.1107926E+00
         21   -1    0    0  503  502  0.00000000000E+00  0.00000000000E+00  0.36327474963E+03  0.36327474963E+03  0.00000000000E+00 0.  1.
         21   -1    0    0  501  503 -0.00000000000E+00 -0.00000000000E+00 -0.19079309884E+03  0.19079309884E+03  0.00000000000E+00 0.  1.
          6    1    1    2  501    0 -0.18945188113E+03 -0.38082163606E+02  0.34861123075E+02  0.26103939234E+03  0.17200000000E+03 0.  1.
         -6    1    1    2    0  502  0.18945188113E+03  0.38082163606E+02  0.13762052772E+03  0.29302845613E+03  0.17200000000E+03 0.  1.
<mgrwt>
<rscale>  2 0.25870111E+03</rscale>
<asrwt>0</asrwt>
<pdfrwt beam="1">  1       21 0.90818686E-01 0.25870111E+03</pdfrwt>
<pdfrwt beam="2">  1       21 0.47698275E-01 0.25870111E+03</pdfrwt>
<totfact> 0.41236390E+03</totfact>
</mgrwt>
</event>
<event>
 4    1  0.1116135E+000  0.2120426E+03  0.7546771E-02  0.1139959E+00
         21   -1    0    0  501  502  0.00000000000E+00  0.00000000000E+00  0.37406933082E+03  0.37406933082E+03  0.00000000000E+00 0. -1.
         21   -1    0    0  502  503 -0.00000000000E+00 -0.00000000000E+00 -0.16305641304E+03  0.16305641304E+03  0.00000000000E+00 0. -1.
          6    1    1    2  501    0  0.43163581818E+02  0.11625392359E+03  0.24319549247E+03  0.32265479557E+03  0.17200000000E+03 0. -1.
         -6    1    1    2    0  503 -0.43163581818E+02 -0.11625392359E+03 -0.32182574689E+02  0.21447094829E+03  0.17200000000E+03 0. -1.
<mgrwt>
<rscale>  2 0.21204261E+03</rscale>
<asrwt>0</asrwt>
<pdfrwt beam="1">  1       21 0.93517331E-01 0.21204261E+03</pdfrwt>
<pdfrwt beam="2">  1       21 0.40764104E-01 0.21204261E+03</pdfrwt>
<totfact> 0.54897310E+03</totfact>
</mgrwt>
</event>
<event>
 4    1  0.1116135E+000  0.2729313E+03  0.7546771E-02  0.1099614E+00
         21   -1    0    0  501  502  0.00000000000E+00  0.00000000000E+00  0.60164309727E+02  0.60164309727E+02  0.00000000000E+00 0. -1.
         21   -1    0    0  502  503 -0.00000000000E+00 -0.00000000000E+00 -0.17045920901E+04  0.17045920901E+04  0.00000000000E+00 0. -1.
          6    1    1    2  501    0 -0.19765432181E+03 -0.76421449430E+02 -0.36062970900E+03  0.45226679723E+03  0.17200000000E+03 0. -1.
         -6    1    1    2    0  503  0.19765432181E+03  0.76421449430E+02 -0.12837980713E+04  0.13124896026E+04  0.17200000000E+03 0. -1.
<mgrwt>
<rscale>  2 0.27293125E+03</rscale>
<asrwt>0</asrwt>
<pdfrwt beam="1">  1       21 0.15041078E-01 0.27293125E+03</pdfrwt>
<pdfrwt beam="2">  1       21 0.42614800E+00 0.27293125E+03</pdfrwt>
<totfact> 0.20669431E+02</totfact>
</mgrwt>
</event>
<event>
 4    1  0.1116135E+000  0.1796755E+03  0.7546771E-02  0.1168117E+00
         21   -1    0    0  501  502  0.00000000000E+00  0.00000000000E+00  0.60573193703E+02  0.60573193703E+02  0.00000000000E+00 0. -1.
         21   -1    0    0  502  503 -0.00000000000E+00 -0.00000000000E+00 -0.65108364643E+03  0.65108364643E+03  0.00000000000E+00 0. -1.
          6    1    1    2  501    0  0.44014008892E+02  0.27605527636E+02 -0.14369532156E+03  0.23006878009E+03  0.17200000000E+03 0. -1.
         -6    1    1    2    0  503 -0.44014008892E+02 -0.27605527636E+02 -0.44681513116E+03  0.48158806004E+03  0.17200000000E+03 0. -1.
<mgrwt>
<rscale>  2 0.17967554E+03</rscale>
<asrwt>0</asrwt>
<pdfrwt beam="1">  1       21 0.15143299E-01 0.17967554E+03</pdfrwt>
<pdfrwt beam="2">  1       21 0.16277091E+00 0.17967554E+03</pdfrwt>
<totfact> 0.93600847E+03</totfact>
</mgrwt>
</event>
<event>
 4    1  0.1116135E+000  0.2638381E+03  0.7546771E-02  0.1104859E+00
         21   -1    0    0  503  502  0.00000000000E+00  0.00000000000E+00  0.51600579195E+03  0.51600579195E+03  0.00000000000E+00 0.  1.
         21   -1    0    0  501  503 -0.00000000000E+00 -0.00000000000E+00 -0.16924163865E+03  0.16924163865E+03  0.00000000000E+00 0. -1.
          6    1    1    2  501    0 -0.17268676157E+03  0.10102381612E+03  0.19049431088E+02  0.26452487571E+03  0.17200000000E+03 0. -1.
         -6    1    1    2    0  502  0.17268676157E+03 -0.10102381612E+03  0.32771472221E+03  0.42072255489E+03  0.17200000000E+03 0.  1.
<mgrwt>
<rscale>  2 0.26383807E+03</rscale>
<asrwt>0</asrwt>
<pdfrwt beam="1">  1       21 0.12900144E+00 0.26383807E+03</pdfrwt>
<pdfrwt beam="2">  1       21 0.42310411E-01 0.26383807E+03</pdfrwt>
<totfact> 0.22381686E+03</totfact>
</mgrwt>
</event>
<event>
 4    1  0.1116135E+000  0.2646060E+03  0.7546771E-02  0.1104407E+00
         21   -1    0    0  503  502  0.00000000000E+00  0.00000000000E+00  0.62278409757E+03  0.62278409757E+03  0.00000000000E+00 0. -1.
         21   -1    0    0  501  503 -0.00000000000E+00 -0.00000000000E+00 -0.17797021684E+03  0.17797021684E+03  0.00000000000E+00 0. -1.
          6    1    1    2  501    0  0.18339483905E+03  0.82454118298E+02 -0.20571055700E+02  0.26540444033E+03  0.17200000000E+03 0. -1.
         -6    1    1    2    0  502 -0.18339483905E+03 -0.82454118298E+02  0.46538493643E+03  0.53534987407E+03  0.17200000000E+03 0. -1.
<mgrwt>
<rscale>  2 0.26460603E+03</rscale>
<asrwt>0</asrwt>
<pdfrwt beam="1">  1       21 0.15569602E+00 0.26460603E+03</pdfrwt>
<pdfrwt beam="2">  1       21 0.44492556E-01 0.26460603E+03</pdfrwt>
<totfact> 0.12323031E+03</totfact>
</mgrwt>
</event>
<event>
 4    1  0.1116135E+000  0.1833951E+03  0.7546771E-02  0.1164557E+00
         21   -1    0    0  503  502  0.00000000000E+00  0.00000000000E+00  0.12638607633E+03  0.12638607633E+03  0.00000000000E+00 0.  1.
         21   -1    0    0  501  503 -0.00000000000E+00 -0.00000000000E+00 -0.29786724189E+03  0.29786724189E+03  0.00000000000E+00 0.  1.
          6    1    1    2  501    0  0.43990801679E+02 -0.45984456077E+02 -0.15499418846E+03  0.24011863587E+03  0.17200000000E+03 0. -1.
         -6    1    1    2    0  502 -0.43990801679E+02  0.45984456077E+02 -0.16486977098E+02  0.18413468236E+03  0.17200000000E+03 0. -1.
<mgrwt>
<rscale>  2 0.18339509E+03</rscale>
<asrwt>0</asrwt>
<pdfrwt beam="1">  1       21 0.31596519E-01 0.18339509E+03</pdfrwt>
<pdfrwt beam="2">  1       21 0.74466810E-01 0.18339509E+03</pdfrwt>
<totfact> 0.15646437E+04</totfact>
</mgrwt>
</event>
<event>
 4    1  0.1116135E+000  0.1739053E+03  0.7546771E-02  0.1173835E+00
         21   -1    0    0  501  502  0.00000000000E+00  0.00000000000E+00  0.57031832795E+02  0.57031832795E+02  0.00000000000E+00 0.  1.
         21   -1    0    0  502  503 -0.00000000000E+00 -0.00000000000E+00 -0.98787820197E+03  0.98787820197E+03  0.00000000000E+00 0. -1.
          6    1    1    2  501    0  0.24130195507E+02  0.87635101603E+01 -0.10984305470E+03  0.20569045217E+03  0.17200000000E+03 0.  1.
         -6    1    1    2    0  503 -0.24130195507E+02 -0.87635101603E+01 -0.82100331448E+03  0.83921958261E+03  0.17200000000E+03 0. -1.
<mgrwt>
<rscale>  2 0.17390533E+03</rscale>
<asrwt>0</asrwt>
<pdfrwt beam="1">  1       21 0.14257958E-01 0.17390533E+03</pdfrwt>
<pdfrwt beam="2">  1       21 0.24696955E+00 0.17390533E+03</pdfrwt>
<totfact> 0.30448162E+03</totfact>
</mgrwt>
</event>
<event>
 4    1  0.1116135E+000  0.1772948E+03  0.7546771E-02  0.1170447E+00
         21   -1    0    0  503  502  0.00000000000E+00  0.00000000000E+00  0.85803099726E+02  0.85803099726E+02  0.00000000000E+00 0.  1.
         21   -1    0    0  501  503 -0.00000000000E+00 -0.00000000000E+00 -0.44751260595E+03  0.44751260595E+03  0.00000000000E+00 0.  1.
          6    1    1    2  501    0  0.34304143888E+02 -0.25936099406E+02 -0.29442004874E+03  0.34368098673E+03  0.17200000000E+03 0.  1.
         -6    1    1    2    0  502 -0.34304143888E+02  0.25936099406E+02 -0.67289457481E+02  0.18963471894E+03  0.17200000000E+03 0.  1.
<mgrwt>
<rscale>  2 0.17729483E+03</rscale>
<asrwt>0</asrwt>
<pdfrwt beam="1">  1       21 0.21450775E-01 0.17729483E+03</pdfrwt>
<pdfrwt beam="2">  1       21 0.11187815E+00 0.17729483E+03</pdfrwt>
<totfact> 0.12825764E+04</totfact>
</mgrwt>
</event>
<event>
 4    1  0.1116135E+000  0.1900181E+03  0.7546771E-02  0.1158445E+00
         21   -1    0    0  503  502  0.00000000000E+00  0.00000000000E+00  0.43686592921E+03  0.43686592921E+03  0.00000000000E+00 0.  1.
         21   -1    0    0  501  503 -0.00000000000E+00 -0.00000000000E+00 -0.11418836016E+03  0.11418836016E+03  0.00000000000E+00 0. -1.
          6    1    1    2  501    0  0.57191101229E+02  0.57026756445E+02  0.30614077818E+03  0.36031798328E+03  0.17200000000E+03 0.  1.
         -6    1    1    2    0  502 -0.57191101229E+02 -0.57026756445E+02  0.16536790867E+02  0.19073630609E+03  0.17200000000E+03 0. -1.
<mgrwt>
<rscale>  2 0.19001809E+03</rscale>
<asrwt>0</asrwt>
<pdfrwt beam="1">  1       21 0.10921648E+00 0.19001809E+03</pdfrwt>
<pdfrwt beam="2">  1       21 0.28547091E-01 0.19001809E+03</pdfrwt>
<totfact> 0.78136636E+03</totfact>
</mgrwt>
</event>
<event>
 4    1  0.1116135E+000  0.1902417E+03  0.7546771E-02  0.1158243E+00
         21   -1    0    0  501  502  0.00000000000E+00  0.00000000000E+00  0.95256652796E+02  0.95256652796E+02  0.00000000000E+00 0.  1.
         21   -1    0    0  502  503 -0.00000000000E+00 -0.00000000000E+00 -0.45518734541E+03  0.45518734541E+03  0.00000000000E+00 0.  1.
          6    1    1    2  501    0 -0.63830340759E+02  0.50334919891E+02 -0.68065239961E+02  0.20205146239E+03  0.17200000000E+03 0.  1.
         -6    1    1    2    0  503  0.63830340759E+02 -0.50334919891E+02 -0.29186545266E+03  0.34839253582E+03  0.17200000000E+03 0.  1.
<mgrwt>
<rscale>  2 0.19024173E+03</rscale>
<asrwt>0</asrwt>
<pdfrwt beam="1">  1       21 0.23814164E-01 0.19024173E+03</pdfrwt>
<pdfrwt beam="2">  1       21 0.11379683E+00 0.19024173E+03</pdfrwt>
<totfact> 0.10011209E+04</totfact>
</mgrwt>
</event>
<event>
 4    1  0.1116135E+000  0.2201829E+03  0.7546771E-02  0.1133747E+00
         21   -1    0    0  503  502  0.00000000000E+00  0.00000000000E+00  0.44648014721E+02  0.44648014721E+02  0.00000000000E+00 0.  1.
         21   -1    0    0  501  503 -0.00000000000E+00 -0.00000000000E+00 -0.13480725093E+04  0.13480725093E+04  0.00000000000E+00 0.  1.
          6    1    1    2  501    0 -0.10289259208E+03  0.91157216251E+02 -0.34458238701E+03  0.40892241931E+03  0.17200000000E+03 0.  1.
         -6    1    1    2    0  502  0.10289259208E+03 -0.91157216251E+02 -0.95884210752E+03  0.98379810466E+03  0.17200000000E+03 0.  1.
<mgrwt>
<rscale>  2 0.22018293E+03</rscale>
<asrwt>0</asrwt>
<pdfrwt beam="1">  1       21 0.11162004E-01 0.22018293E+03</pdfrwt>
<pdfrwt beam="2">  1       21 0.33701813E+00 0.22018293E+03</pdfrwt>
<totfact> 0.13421552E+03</totfact>
</mgrwt>
</event>
<event>
 4    1  0.1116135E+000  0.2506123E+03  0.7546771E-02  0.1112918E+00
         21   -1    0    0  503  502  0.00000000000E+00  0.00000000000E+00  0.20317610245E+03  0.20317610245E+03  0.00000000000E+00 0. -1.
         21   -1    0    0  501  503 -0.00000000000E+00 -0.00000000000E+00 -0.30915687239E+03  0.30915687239E+03  0.00000000000E+00 0.  1.
          6    1    1    2  501    0 -0.48612690248E+02 -0.17566823226E+03 -0.50331550197E+02  0.25561648308E+03  0.17200000000E+03 0.  1.
         -6    1    1    2    0  502  0.48612690248E+02  0.17566823226E+03 -0.55649219746E+02  0.25671649175E+03  0.17200000000E+03 0.  1.
<mgrwt>
<rscale>  2 0.25061229E+03</rscale>
<asrwt>0</asrwt>
<pdfrwt beam="1">  1       21 0.50794026E-01 0.25061229E+03</pdfrwt>
<pdfrwt beam="2">  1       21 0.77289218E-01 0.25061229E+03</pdfrwt>
<totfact> 0.52636371E+03</totfact>
</mgrwt>
</event>
<event>
 4    1  0.1116135E+000  0.2561394E+03  0.7546771E-02  0.1109485E+00
         21   -1    0    0  503  502  0.00000000000E+00  0.00000000000E+00  0.23841384279E+03  0.23841384279E+03  0.00000000000E+00 0.  1.
         21   -1    0    0  501  503 -0.00000000000E+00 -0.00000000000E+00 -0.27928165346E+03  0.27928165346E+03  0.00000000000E+00 0.  1.
          6    1    1    2  501    0  0.18454024190E+03 -0.44365363538E+02 -0.51792379930E+02  0.26132324233E+03  0.17200000000E+03 0.  1.
         -6    1    1    2    0  502 -0.18454024190E+03  0.44365363538E+02  0.10924569261E+02  0.25637225391E+03  0.17200000000E+03 0.  1.
<mgrwt>
<rscale>  2 0.25613939E+03</rscale>
<asrwt>0</asrwt>
<pdfrwt beam="1">  1       21 0.59603461E-01 0.25613939E+03</pdfrwt>
<pdfrwt beam="2">  1       21 0.69820413E-01 0.25613939E+03</pdfrwt>
<totfact> 0.46848180E+03</totfact>
</mgrwt>
</event>
<event>
 4    1  0.1116135E+000  0.1986202E+03  0.7546771E-02  0.1150908E+00
         21   -1    0    0  503  502  0.00000000000E+00  0.00000000000E+00  0.23395036737E+03  0.23395036737E+03  0.00000000000E+00 0.  1.
         21   -1    0    0  501  503 -0.00000000000E+00 -0.00000000000E+00 -0.17162955472E+03  0.17162955472E+03  0.00000000000E+00 0. -1.
          6    1    1    2  501    0 -0.97360396391E+02 -0.19670477646E+02  0.43309729866E+01  0.19866738988E+03  0.17200000000E+03 0. -1.
         -6    1    1    2    0  502  0.97360396391E+02  0.19670477646E+02  0.57989839665E+02  0.20691253220E+03  0.17200000000E+03 0.  1.
<mgrwt>
<rscale>  2 0.19862018E+03</rscale>
<asrwt>0</asrwt>
<pdfrwt beam="1">  1       21 0.58487592E-01 0.19862018E+03</pdfrwt>
<pdfrwt beam="2">  1       21 0.42907389E-01 0.19862018E+03</pdfrwt>
<totfact> 0.14241976E+04</totfact>
</mgrwt>
</event>
<event>
 4    1  0.1116135E+000  0.1924253E+03  0.7546771E-02  0.1156292E+00
         21   -1    0    0  503  502  0.00000000000E+00  0.00000000000E+00  0.29247255831E+03  0.29247255831E+03  0.00000000000E+00 0.  1.
         21   -1    0    0  501  503 -0.00000000000E+00 -0.00000000000E+00 -0.17757609306E+03  0.17757609306E+03  0.00000000000E+00 0.  1.
          6    1    1    2  501    0 -0.73489662803E+02  0.45197013799E+02 -0.68472408515E+02  0.20424488078E+03  0.17200000000E+03 0.  1.
         -6    1    1    2    0  502  0.73489662803E+02 -0.45197013799E+02  0.18336887376E+03  0.26580377059E+03  0.17200000000E+03 0.  1.
<mgrwt>
<rscale>  2 0.19242531E+03</rscale>
<asrwt>0</asrwt>
<pdfrwt beam="1">  1       21 0.73118139E-01 0.19242531E+03</pdfrwt>
<pdfrwt beam="2">  1       21 0.44394024E-01 0.19242531E+03</pdfrwt>
<totfact> 0.81995597E+03</totfact>
</mgrwt>
</event>
<event>
 4    1  0.1116135E+000  0.1891351E+03  0.7546771E-02  0.1159244E+00
         21   -1    0    0  501  502  0.00000000000E+00  0.00000000000E+00  0.48287836546E+02  0.48287836546E+02  0.00000000000E+00 0. -1.
         21   -1    0    0  502  503 -0.00000000000E+00 -0.00000000000E+00 -0.81296740347E+03  0.81296740347E+03  0.00000000000E+00 0. -1.
          6    1    1    2  501    0  0.55764314564E+02 -0.55483725296E+02 -0.51063378897E+03  0.54453555347E+03  0.17200000000E+03 0. -1.
         -6    1    1    2    0  503 -0.55764314564E+02  0.55483725296E+02 -0.25404577795E+03  0.31671968655E+03  0.17200000000E+03 0. -1.
<mgrwt>
<rscale>  2 0.18913514E+03</rscale>
<asrwt>0</asrwt>
<pdfrwt beam="1">  1       21 0.12071960E-01 0.18913514E+03</pdfrwt>
<pdfrwt beam="2">  1       21 0.20324184E+00 0.18913514E+03</pdfrwt>
<totfact> 0.74555034E+03</totfact>
</mgrwt>
</event>
<event>
 4    1  0.1116135E+000  0.1816811E+03  0.7546771E-02  0.1166186E+00
         21   -1    0    0  501  502  0.00000000000E+00  0.00000000000E+00  0.12945932050E+03  0.12945932050E+03  0.00000000000E+00 0.  1.
         21   -1    0    0  502  503 -0.00000000000E+00 -0.00000000000E+00 -0.26009803089E+03  0.26009803089E+03  0.00000000000E+00 0.  1.
          6    1    1    2  501    0  0.32273717530E+02  0.48810100289E+02 -0.92673397809E+02  0.20395189971E+03  0.17200000000E+03 0. -1.
         -6    1    1    2    0  503 -0.32273717530E+02 -0.48810100289E+02 -0.37965312585E+02  0.18560545168E+03  0.17200000000E+03 0. -1.
<mgrwt>
<rscale>  2 0.18168109E+03</rscale>
<asrwt>0</asrwt>
<pdfrwt beam="1">  1       21 0.32364830E-01 0.18168109E+03</pdfrwt>
<pdfrwt beam="2">  1       21 0.65024508E-01 0.18168109E+03</pdfrwt>
<totfact> 0.20134384E+04</totfact>
</mgrwt>
</event>
<event>
 4    1  0.1116135E+000  0.1960154E+03  0.7546771E-02  0.1153145E+00
         21   -1    0    0  503  502  0.00000000000E+00  0.00000000000E+00  0.43797568495E+02  0.43797568495E+02  0.00000000000E+00 0. -1.
         21   -1    0    0  501  503 -0.00000000000E+00 -0.00000000000E+00 -0.94348013457E+03  0.94348013457E+03  0.00000000000E+00 0. -1.
          6    1    1    2  501    0 -0.17301480947E+02 -0.92405131707E+02 -0.58061588501E+03  0.61281061963E+03  0.17200000000E+03 0. -1.
         -6    1    1    2    0  502  0.17301480947E+02  0.92405131707E+02 -0.31906668107E+03  0.37446708343E+03  0.17200000000E+03 0. -1.
<mgrwt>
<rscale>  2 0.19601543E+03</rscale>
<asrwt>0</asrwt>
<pdfrwt beam="1">  1       21 0.10949392E-01 0.19601543E+03</pdfrwt>
<pdfrwt beam="2">  1       21 0.23587003E+00 0.19601543E+03</pdfrwt>
<totfact> 0.55530392E+03</totfact>
</mgrwt>
</event>
<event>
 4    1  0.1116135E+000  0.2309286E+03  0.7546771E-02  0.1125988E+00
         21   -1    0    0  503  502  0.00000000000E+00  0.00000000000E+00  0.32834994608E+03  0.32834994608E+03  0.00000000000E+00 0.  1.
         21   -1    0    0  501  503 -0.00000000000E+00 -0.00000000000E+00 -0.34790517496E+03  0.34790517496E+03  0.00000000000E+00 0. -1.
          6    1    1    2  501    0  0.14001857576E+03  0.64333608011E+02 -0.25667354974E+03  0.34526703551E+03  0.17200000000E+03 0. -1.
         -6    1    1    2    0  502 -0.14001857576E+03 -0.64333608011E+02  0.23711832086E+03  0.33098808553E+03  0.17200000000E+03 0.  1.
<mgrwt>
<rscale>  2 0.23092859E+03</rscale>
<asrwt>0</asrwt>
<pdfrwt beam="1">  1       21 0.82087487E-01 0.23092859E+03</pdfrwt>
<pdfrwt beam="2">  1       21 0.86976294E-01 0.23092859E+03</pdfrwt>
<totfact> 0.14252072E+03</totfact>
</mgrwt>
</event>
<event>
 4    1  0.1116135E+000  0.1782095E+03  0.7546771E-02  0.1169547E+00
         21   -1    0    0  501  502  0.00000000000E+00  0.00000000000E+00  0.33993780808E+03  0.33993780808E+03  0.00000000000E+00 0. -1.
         21   -1    0    0  502  503 -0.00000000000E+00 -0.00000000000E+00 -0.93529485786E+02  0.93529485786E+02  0.00000000000E+00 0. -1.
          6    1    1    2  501    0  0.11165826744E+02  0.45276500962E+02  0.11595477291E+03  0.21261266799E+03  0.17200000000E+03 0. -1.
         -6    1    1    2    0  503 -0.11165826744E+02 -0.45276500962E+02  0.13045354938E+03  0.22085462588E+03  0.17200000000E+03 0. -1.
<mgrwt>
<rscale>  2 0.17820953E+03</rscale>
<asrwt>0</asrwt>
<pdfrwt beam="1">  1       21 0.84984449E-01 0.17820953E+03</pdfrwt>
<pdfrwt beam="2">  1       21 0.23382372E-01 0.17820953E+03</pdfrwt>
<totfact> 0.20802806E+04</totfact>
</mgrwt>
</event>
<event>
 4    1  0.1116135E+000  0.1751628E+03  0.7546771E-02  0.1172568E+00
         21   -1    0    0  503  502  0.00000000000E+00  0.00000000000E+00  0.10030558918E+03  0.10030558918E+03  0.00000000000E+00 0. -1.
         21   -1    0    0  501  503 -0.00000000000E+00 -0.00000000000E+00 -0.43679322846E+03  0.43679322846E+03  0.00000000000E+00 0.  1.
          6    1    1    2  501    0 -0.26030560800E+02 -0.20503847242E+02 -0.31526142669E+03  0.36065463398E+03  0.17200000000E+03 0.  1.
         -6    1    1    2    0  502  0.26030560800E+02  0.20503847242E+02 -0.21226212587E+02  0.17644418366E+03  0.17200000000E+03 0. -1.
<mgrwt>
<rscale>  2 0.17516278E+03</rscale>
<asrwt>0</asrwt>
<pdfrwt beam="1">  1       21 0.25076397E-01 0.17516278E+03</pdfrwt>
<pdfrwt beam="2">  1       21 0.10919831E+00 0.17516278E+03</pdfrwt>
<totfact> 0.10138368E+04</totfact>
</mgrwt>
</event>
<event>
 4    1  0.1116135E+000  0.1746635E+03  0.7546771E-02  0.1173070E+00
         21   -1    0    0  503  502  0.00000000000E+00  0.00000000000E+00  0.35688254299E+03  0.35688254299E+03  0.00000000000E+00 0.  1.
         21   -1    0    0  501  503 -0.00000000000E+00 -0.00000000000E+00 -0.85609807267E+02  0.85609807267E+02  0.00000000000E+00 0.  1.
          6    1    1    2  501    0 -0.16032145706E+02  0.25813015768E+02  0.14415599917E+03  0.22646918902E+03  0.17200000000E+03 0. -1.
         -6    1    1    2    0  502  0.16032145706E+02 -0.25813015768E+02  0.12711673656E+03  0.21602316124E+03  0.17200000000E+03 0. -1.
<mgrwt>
<rscale>  2 0.17466351E+03</rscale>
<asrwt>0</asrwt>
<pdfrwt beam="1">  1       21 0.89220632E-01 0.17466351E+03</pdfrwt>
<pdfrwt beam="2">  1       21 0.21402453E-01 0.17466351E+03</pdfrwt>
<totfact> 0.22031026E+04</totfact>
</mgrwt>
</event>
<event>
 4    1  0.1116135E+000  0.2253232E+03  0.7546771E-02  0.1129975E+00
         21   -1    0    0  503  502  0.00000000000E+00  0.00000000000E+00  0.42081202936E+03  0.42081202936E+03  0.00000000000E+00 0. -1.
         21   -1    0    0  501  503 -0.00000000000E+00 -0.00000000000E+00 -0.12201434542E+03  0.12201434542E+03  0.00000000000E+00 0.  1.
          6    1    1    2  501    0  0.13093355963E+03 -0.63584178351E+02  0.12068780070E+03  0.25560925259E+03  0.17200000000E+03 0. -1.
         -6    1    1    2    0  502 -0.13093355963E+03  0.63584178351E+02  0.17810988323E+03  0.28721712219E+03  0.17200000000E+03 0. -1.
<mgrwt>
<rscale>  2 0.22532320E+03</rscale>
<asrwt>0</asrwt>
<pdfrwt beam="1">  1       21 0.10520300E+00 0.22532320E+03</pdfrwt>
<pdfrwt beam="2">  1       21 0.30503587E-01 0.22532320E+03</pdfrwt>
<totfact> 0.73288233E+03</totfact>
</mgrwt>
</event>
<event>
 4    1  0.1116135E+000  0.1933172E+03  0.7546771E-02  0.1155503E+00
         21   -1    0    0  503  502  0.00000000000E+00  0.00000000000E+00  0.70047483224E+02  0.70047483224E+02  0.00000000000E+00 0.  1.
         21   -1    0    0  501  503 -0.00000000000E+00 -0.00000000000E+00 -0.55380149007E+03  0.55380149007E+03  0.00000000000E+00 0.  1.
          6    1    1    2  501    0 -0.87724759877E+02 -0.95864200712E+01 -0.18217994212E+03  0.26563332670E+03  0.17200000000E+03 0.  1.
         -6    1    1    2    0  502  0.87724759877E+02  0.95864200712E+01 -0.30157406473E+03  0.35821564659E+03  0.17200000000E+03 0.  1.
<mgrwt>
<rscale>  2 0.19331718E+03</rscale>
<asrwt>0</asrwt>
<pdfrwt beam="1">  1       21 0.17511871E-01 0.19331718E+03</pdfrwt>
<pdfrwt beam="2">  1       21 0.13845037E+00 0.19331718E+03</pdfrwt>
<totfact> 0.10872850E+04</totfact>
</mgrwt>
</event>
<event>
 4    1  0.1116135E+000  0.1821511E+03  0.7546771E-02  0.1165737E+00
         21   -1    0    0  501  502  0.00000000000E+00  0.00000000000E+00  0.29698100829E+03  0.29698100829E+03  0.00000000000E+00 0. -1.
         21   -1    0    0  502  503 -0.00000000000E+00 -0.00000000000E+00 -0.15161705414E+03  0.15161705414E+03  0.00000000000E+00 0. -1.
          6    1    1    2  501    0 -0.59288308737E+02  0.89390444560E+01  0.18774040545E+03  0.26158262539E+03  0.17200000000E+03 0. -1.
         -6    1    1    2    0  503  0.59288308737E+02 -0.89390444560E+01 -0.42376451291E+02  0.18701543704E+03  0.17200000000E+03 0. -1.
<mgrwt>
<rscale>  2 0.18215106E+03</rscale>
<asrwt>0</asrwt>
<pdfrwt beam="1">  1       21 0.74245251E-01 0.18215106E+03</pdfrwt>
<pdfrwt beam="2">  1       21 0.37904264E-01 0.18215106E+03</pdfrwt>
<totfact> 0.10994187E+04</totfact>
</mgrwt>
</event>
<event>
 4    1  0.1116135E+000  0.1988375E+03  0.7546771E-02  0.1150723E+00
         21   -1    0    0  503  502  0.00000000000E+00  0.00000000000E+00  0.18155415746E+03  0.18155415746E+03  0.00000000000E+00 0. -1.
         21   -1    0    0  501  503 -0.00000000000E+00 -0.00000000000E+00 -0.22938726482E+03  0.22938726482E+03  0.00000000000E+00 0. -1.
          6    1    1    2  501    0 -0.78165879190E+02  0.61987623129E+02 -0.70163928888E+02  0.21085385225E+03  0.17200000000E+03 0. -1.
         -6    1    1    2    0  502  0.78165879190E+02 -0.61987623129E+02  0.22330821531E+02  0.20008757003E+03  0.17200000000E+03 0. -1.
<mgrwt>
<rscale>  2 0.19883755E+03</rscale>
<asrwt>0</asrwt>
<pdfrwt beam="1">  1       21 0.45388540E-01 0.19883755E+03</pdfrwt>
<pdfrwt beam="2">  1       21 0.57346816E-01 0.19883755E+03</pdfrwt>
<totfact> 0.13235661E+04</totfact>
</mgrwt>
</event>
<event>
 4    1  0.1116135E+000  0.1985266E+03  0.7546771E-02  0.1150988E+00
         21   -1    0    0  503  502  0.00000000000E+00  0.00000000000E+00  0.50764322026E+03  0.50764322026E+03  0.00000000000E+00 0.  1.
         21   -1    0    0  501  503 -0.00000000000E+00 -0.00000000000E+00 -0.17453578516E+03  0.17453578516E+03  0.00000000000E+00 0.  1.
          6    1    1    2  501    0  0.98215344479E+02  0.13511105739E+02 -0.87591108846E+02  0.21699079754E+03  0.17200000000E+03 0.  1.
         -6    1    1    2    0  502 -0.98215344479E+02 -0.13511105739E+02  0.42069854394E+03  0.46518820787E+03  0.17200000000E+03 0.  1.
<mgrwt>
<rscale>  2 0.19852658E+03</rscale>
<asrwt>0</asrwt>
<pdfrwt beam="1">  1       21 0.12691080E+00 0.19852658E+03</pdfrwt>
<pdfrwt beam="2">  1       21 0.43633947E-01 0.19852658E+03</pdfrwt>
<totfact> 0.23056364E+03</totfact>
</mgrwt>
</event>
<event>
 4    1  0.1116135E+000  0.1781891E+03  0.7546771E-02  0.1169567E+00
         21   -1    0    0  501  502  0.00000000000E+00  0.00000000000E+00  0.42100799004E+03  0.42100799004E+03  0.00000000000E+00 0. -1.
         21   -1    0    0  502  503 -0.00000000000E+00 -0.00000000000E+00 -0.96863946882E+02  0.96863946882E+02  0.00000000000E+00 0.  1.
          6    1    1    2  501    0 -0.41311019331E+02  0.21465056542E+02  0.28391190782E+03  0.33519743491E+03  0.17200000000E+03 0. -1.
         -6    1    1    2    0  503  0.41311019331E+02 -0.21465056542E+02  0.40232135341E+02  0.18267450201E+03  0.17200000000E+03 0.  1.
<mgrwt>
<rscale>  2 0.17818908E+03</rscale>
<asrwt>0</asrwt>
<pdfrwt beam="1">  1       21 0.10525199E+00 0.17818908E+03</pdfrwt>
<pdfrwt beam="2">  1       21 0.24215988E-01 0.17818908E+03</pdfrwt>
<totfact> 0.11810207E+04</totfact>
</mgrwt>
</event>
<event>
 4    1  0.1116135E+000  0.3018555E+03  0.7546771E-02  0.1084317E+00
         21   -1    0    0  501  502  0.00000000000E+00  0.00000000000E+00  0.13770194036E+04  0.13770194036E+04  0.00000000000E+00 0. -1.
         21   -1    0    0  502  503 -0.00000000000E+00 -0.00000000000E+00 -0.82394852522E+02  0.82394852522E+02  0.00000000000E+00 0.  1.
          6    1    1    2  501    0 -0.24746558475E+03  0.17133431324E+02  0.97112566008E+03  0.10169571366E+04  0.17200000000E+03 0. -1.
         -6    1    1    2    0  503  0.24746558475E+03 -0.17133431324E+02  0.32349889102E+03  0.44245711950E+03  0.17200000000E+03 0.  1.
<mgrwt>
<rscale>  2 0.30185555E+03</rscale>
<asrwt>0</asrwt>
<pdfrwt beam="1">  1       21 0.34425478E+00 0.30185555E+03</pdfrwt>
<pdfrwt beam="2">  1       21 0.20598718E-01 0.30185555E+03</pdfrwt>
<totfact> 0.36100722E+02</totfact>
</mgrwt>
</event>
<event>
 4    1  0.1116135E+000  0.2336446E+03  0.7546771E-02  0.1124100E+00
         21   -1    0    0  503  502  0.00000000000E+00  0.00000000000E+00  0.71898314444E+03  0.71898314444E+03  0.00000000000E+00 0. -1.
         21   -1    0    0  501  503 -0.00000000000E+00 -0.00000000000E+00 -0.76489746005E+02  0.76489746005E+02  0.00000000000E+00 0.  1.
          6    1    1    2  501    0 -0.15749770622E+03  0.14152555076E+02  0.35537938147E+03  0.42530498122E+03  0.17200000000E+03 0. -1.
         -6    1    1    2    0  502  0.15749770622E+03 -0.14152555076E+02  0.28711401697E+03  0.37016790922E+03  0.17200000000E+03 0.  1.
<mgrwt>
<rscale>  2 0.23364465E+03</rscale>
<asrwt>0</asrwt>
<pdfrwt beam="1">  1       21 0.17974577E+00 0.23364465E+03</pdfrwt>
<pdfrwt beam="2">  1       21 0.19122439E-01 0.23364465E+03</pdfrwt>
<totfact> 0.44290839E+03</totfact>
</mgrwt>
</event>
<event>
 4    1  0.1116135E+000  0.2116181E+03  0.7546771E-02  0.1140291E+00
         21   -1    0    0  503  502  0.00000000000E+00  0.00000000000E+00  0.23232570250E+03  0.23232570250E+03  0.00000000000E+00 0.  1.
         21   -1    0    0  501  503 -0.00000000000E+00 -0.00000000000E+00 -0.56222558456E+03  0.56222558456E+03  0.00000000000E+00 0. -1.
          6    1    1    2  501    0 -0.32387256765E+02  0.11895072376E+03 -0.48700186099E+03  0.53099248742E+03  0.17200000000E+03 0. -1.
         -6    1    1    2    0  502  0.32387256765E+02 -0.11895072376E+03  0.15710197893E+03  0.26355879964E+03  0.17200000000E+03 0.  1.
<mgrwt>
<rscale>  2 0.21161807E+03</rscale>
<asrwt>0</asrwt>
<pdfrwt beam="1">  1       21 0.58081426E-01 0.21161807E+03</pdfrwt>
<pdfrwt beam="2">  1       21 0.14055640E+00 0.21161807E+03</pdfrwt>
<totfact> 0.96518313E+02</totfact>
</mgrwt>
</event>
<event>
 4    1  0.1116135E+000  0.2140833E+03  0.7546771E-02  0.1138373E+00
         21   -1    0    0  501  502  0.00000000000E+00  0.00000000000E+00  0.10043421708E+04  0.10043421708E+04  0.00000000000E+00 0. -1.
         21   -1    0    0  502  503 -0.00000000000E+00 -0.00000000000E+00 -0.45634318603E+02  0.45634318603E+02  0.00000000000E+00 0. -1.
          6    1    1    2  501    0  0.11549236139E+03 -0.53936766182E+02  0.48156138453E+03  0.52700382100E+03  0.17200000000E+03 0. -1.
         -6    1    1    2    0  503 -0.11549236139E+03  0.53936766182E+02  0.47714646771E+03  0.52297266844E+03  0.17200000000E+03 0. -1.
<mgrwt>
<rscale>  2 0.21408330E+03</rscale>
<asrwt>0</asrwt>
<pdfrwt beam="1">  1       21 0.25108547E+00 0.21408330E+03</pdfrwt>
<pdfrwt beam="2">  1       21 0.11408583E-01 0.21408330E+03</pdfrwt>
<totfact> 0.41169797E+03</totfact>
</mgrwt>
</event>
<event>
 4    1  0.1116135E+000  0.2299174E+03  0.7546771E-02  0.1126698E+00
         21   -1    0    0  503  502  0.00000000000E+00  0.00000000000E+00  0.28127590557E+03  0.28127590557E+03  0.00000000000E+00 0.  1.
         21   -1    0    0  501  503 -0.00000000000E+00 -0.00000000000E+00 -0.24643095844E+03  0.24643095844E+03  0.00000000000E+00 0. -1.
          6    1    1    2  501    0  0.10159510103E+03 -0.11382647290E+03  0.14597250766E+03  0.27234170352E+03  0.17200000000E+03 0.  1.
         -6    1    1    2    0  502 -0.10159510103E+03  0.11382647290E+03 -0.11112756052E+03  0.25536516049E+03  0.17200000000E+03 0. -1.
<mgrwt>
<rscale>  2 0.22991744E+03</rscale>
<asrwt>0</asrwt>
<pdfrwt beam="1">  1       21 0.70318976E-01 0.22991744E+03</pdfrwt>
<pdfrwt beam="2">  1       21 0.61607740E-01 0.22991744E+03</pdfrwt>
<totfact> 0.43661578E+03</totfact>
</mgrwt>
</event>
<event>
 4    1  0.1116135E+000  0.2281713E+03  0.7546771E-02  0.1127934E+00
         21   -1    0    0  503  502  0.00000000000E+00  0.00000000000E+00  0.14865054913E+03  0.14865054913E+03  0.00000000000E+00 0. -1.
         21   -1    0    0  501  503 -0.00000000000E+00 -0.00000000000E+00 -0.56274940637E+03  0.56274940637E+03  0.00000000000E+00 0. -1.
          6    1    1    2  501    0 -0.14542693128E+03 -0.36457565481E+02 -0.42563615878E+03  0.48293714507E+03  0.17200000000E+03 0. -1.
         -6    1    1    2    0  502  0.14542693128E+03  0.36457565481E+02  0.11537301546E+02  0.22846281043E+03  0.17200000000E+03 0. -1.
<mgrwt>
<rscale>  2 0.22817131E+03</rscale>
<asrwt>0</asrwt>
<pdfrwt beam="1">  1       21 0.37162638E-01 0.22817131E+03</pdfrwt>
<pdfrwt beam="2">  1       21 0.14068735E+00 0.22817131E+03</pdfrwt>
<totfact> 0.23922691E+03</totfact>
</mgrwt>
</event>
<event>
 4    1  0.1116135E+000  0.2439565E+03  0.7546771E-02  0.1117185E+00
         21   -1    0    0  501  502  0.00000000000E+00  0.00000000000E+00  0.58209807030E+03  0.58209807030E+03  0.00000000000E+00 0.  1.
         21   -1    0    0  502  503 -0.00000000000E+00 -0.00000000000E+00 -0.18354712030E+03  0.18354712030E+03  0.00000000000E+00 0.  1.
          6    1    1    2  501    0  0.77555110689E+02  0.15464795304E+03  0.45406590988E+03  0.51545187466E+03  0.17200000000E+03 0.  1.
         -6    1    1    2    0  503 -0.77555110689E+02 -0.15464795304E+03 -0.55514959875E+02  0.25019331594E+03  0.17200000000E+03 0.  1.
<mgrwt>
<rscale>  2 0.24395652E+03</rscale>
<asrwt>0</asrwt>
<pdfrwt beam="1">  1       21 0.14552451E+00 0.24395652E+03</pdfrwt>
<pdfrwt beam="2">  1       21 0.45886781E-01 0.24395652E+03</pdfrwt>
<totfact> 0.14064346E+03</totfact>
</mgrwt>
</event>
<event>
 4    1  0.1116135E+000  0.3310134E+03  0.7546771E-02  0.1070689E+00
         21   -1    0    0  503  502  0.00000000000E+00  0.00000000000E+00  0.24728682669E+03  0.24728682669E+03  0.00000000000E+00 0.  1.
         21   -1    0    0  501  503 -0.00000000000E+00 -0.00000000000E+00 -0.49052186901E+03  0.49052186901E+03  0.00000000000E+00 0. -1.
          6    1    1    2  501    0 -0.67689358111E+02 -0.27459788458E+03 -0.23633469922E+03  0.40672341643E+03  0.17200000000E+03 0. -1.
         -6    1    1    2    0  502  0.67689358111E+02  0.27459788458E+03 -0.69003431038E+01  0.33108527927E+03  0.17200000000E+03 0.  1.
<mgrwt>
<rscale>  2 0.33101336E+03</rscale>
<asrwt>0</asrwt>
<pdfrwt beam="1">  1       21 0.61821707E-01 0.33101336E+03</pdfrwt>
<pdfrwt beam="2">  1       21 0.12263047E+00 0.33101336E+03</pdfrwt>
<totfact> 0.10939438E+03</totfact>
</mgrwt>
</event>
<event>
 4    1  0.1116135E+000  0.1814064E+03  0.7546771E-02  0.1166449E+00
         21   -1    0    0  503  502  0.00000000000E+00  0.00000000000E+00  0.70589179736E+03  0.70589179736E+03  0.00000000000E+00 0. -1.
         21   -1    0    0  501  503 -0.00000000000E+00 -0.00000000000E+00 -0.50717990547E+02  0.50717990547E+02  0.00000000000E+00 0. -1.
          6    1    1    2  501    0  0.31159001441E+02 -0.48511663074E+02  0.43512869051E+03  0.47142893645E+03  0.17200000000E+03 0. -1.
         -6    1    1    2    0  502 -0.31159001441E+02  0.48511663074E+02  0.22004511631E+03  0.28518085146E+03  0.17200000000E+03 0. -1.
<mgrwt>
<rscale>  2 0.18140635E+03</rscale>
<asrwt>0</asrwt>
<pdfrwt beam="1">  1       21 0.17647292E+00 0.18140635E+03</pdfrwt>
<pdfrwt beam="2">  1       21 0.12679500E-01 0.18140635E+03</pdfrwt>
<totfact> 0.10320185E+04</totfact>
</mgrwt>
</event>
<event>
 4    1  0.1116135E+000  0.3098457E+03  0.7546771E-02  0.1080420E+00
         21   -1    0    0  503  502  0.00000000000E+00  0.00000000000E+00  0.40733315998E+03  0.40733315998E+03  0.00000000000E+00 0. -1.
         21   -1    0    0  501  503 -0.00000000000E+00 -0.00000000000E+00 -0.24817725472E+03  0.24817725472E+03  0.00000000000E+00 0.  1.
          6    1    1    2  501    0 -0.46820619515E+01  0.25767893570E+03  0.60585509265E+01  0.30990492356E+03  0.17200000000E+03 0.  1.
         -6    1    1    2    0  502  0.46820619515E+01 -0.25767893570E+03  0.15309735433E+03  0.34560549115E+03  0.17200000000E+03 0. -1.
<mgrwt>
<rscale>  2 0.30984570E+03</rscale>
<asrwt>0</asrwt>
<pdfrwt beam="1">  1       21 0.10183329E+00 0.30984570E+03</pdfrwt>
<pdfrwt beam="2">  1       21 0.62044314E-01 0.30984570E+03</pdfrwt>
<totfact> 0.17388059E+03</totfact>
</mgrwt>
</event>
<event>
 4    1  0.1116135E+000  0.1928455E+03  0.7546771E-02  0.1155920E+00
         21   -1    0    0  501  502  0.00000000000E+00  0.00000000000E+00  0.38081468886E+03  0.38081468886E+03  0.00000000000E+00 0.  1.
         21   -1    0    0  502  503 -0.00000000000E+00 -0.00000000000E+00 -0.97657517018E+02  0.97657517018E+02  0.00000000000E+00 0.  1.
          6    1    1    2  501    0 -0.85580844978E+02  0.16772344480E+02  0.14177233183E+03  0.23935076068E+03  0.17200000000E+03 0.  1.
         -6    1    1    2    0  503  0.85580844978E+02 -0.16772344480E+02  0.14138484001E+03  0.23912144519E+03  0.17200000000E+03 0.  1.
<mgrwt>
<rscale>  2 0.19284551E+03</rscale>
<asrwt>0</asrwt>
<pdfrwt beam="1">  1       21 0.95203669E-01 0.19284551E+03</pdfrwt>
<pdfrwt beam="2">  1       21 0.24414380E-01 0.19284551E+03</pdfrwt>
<totfact> 0.14605567E+04</totfact>
</mgrwt>
</event>
<event>
 4    1  0.1116135E+000  0.2021211E+03  0.7546771E-02  0.1147962E+00
         21   -1    0    0  503  502  0.00000000000E+00  0.00000000000E+00  0.38684264213E+02  0.38684264213E+02  0.00000000000E+00 0. -1.
         21   -1    0    0  501  503 -0.00000000000E+00 -0.00000000000E+00 -0.13548624054E+04  0.13548624054E+04  0.00000000000E+00 0. -1.
          6    1    1    2  501    0 -0.17746023929E+02 -0.10466152123E+03 -0.98530542851E+03  0.10058229182E+04  0.17200000000E+03 0. -1.
         -6    1    1    2    0  502  0.17746023929E+02  0.10466152123E+03 -0.33087271270E+03  0.38772375140E+03  0.17200000000E+03 0. -1.
<mgrwt>
<rscale>  2 0.20212114E+03</rscale>
<asrwt>0</asrwt>
<pdfrwt beam="1">  1       21 0.96710659E-02 0.20212114E+03</pdfrwt>
<pdfrwt beam="2">  1       21 0.33871561E+00 0.20212114E+03</pdfrwt>
<totfact> 0.17314164E+03</totfact>
</mgrwt>
</event>
<event>
 4    1  0.1116135E+000  0.2024424E+03  0.7546771E-02  0.1147695E+00
         21   -1    0    0  503  502  0.00000000000E+00  0.00000000000E+00  0.95515502615E+02  0.95515502615E+02  0.00000000000E+00 0. -1.
         21   -1    0    0  501  503 -0.00000000000E+00 -0.00000000000E+00 -0.76726991583E+03  0.76726991583E+03  0.00000000000E+00 0. -1.
          6    1    1    2  501    0  0.20031064487E+02 -0.10486976598E+03 -0.62228508599E+03  0.65438646044E+03  0.17200000000E+03 0. -1.
         -6    1    1    2    0  502 -0.20031064487E+02  0.10486976598E+03 -0.49469327227E+02  0.20839895801E+03  0.17200000000E+03 0. -1.
<mgrwt>
<rscale>  2 0.20244237E+03</rscale>
<asrwt>0</asrwt>
<pdfrwt beam="1">  1       21 0.23878876E-01 0.20244237E+03</pdfrwt>
<pdfrwt beam="2">  1       21 0.19181747E+00 0.20244237E+03</pdfrwt>
<totfact> 0.24841409E+03</totfact>
</mgrwt>
</event>
<event>
 4    1  0.1116135E+000  0.1755186E+03  0.7546771E-02  0.1172212E+00
         21   -1    0    0  503  502  0.00000000000E+00  0.00000000000E+00  0.33448541701E+03  0.33448541701E+03  0.00000000000E+00 0. -1.
         21   -1    0    0  501  503 -0.00000000000E+00 -0.00000000000E+00 -0.14635823894E+03  0.14635823894E+03  0.00000000000E+00 0. -1.
          6    1    1    2  501    0 -0.19239661137E+02 -0.29199799930E+02 -0.52319176022E+02  0.18315045470E+03  0.17200000000E+03 0. -1.
         -6    1    1    2    0  502  0.19239661137E+02  0.29199799930E+02  0.24044635409E+03  0.29769320125E+03  0.17200000000E+03 0. -1.
<mgrwt>
<rscale>  2 0.17551864E+03</rscale>
<asrwt>0</asrwt>
<pdfrwt beam="1">  1       21 0.83621353E-01 0.17551864E+03</pdfrwt>
<pdfrwt beam="2">  1       21 0.36589560E-01 0.17551864E+03</pdfrwt>
<totfact> 0.90717095E+03</totfact>
</mgrwt>
</event>
<event>
 4    1  0.1116135E+000  0.1849632E+03  0.7546771E-02  0.1163084E+00
         21   -1    0    0  501  502  0.00000000000E+00  0.00000000000E+00  0.30866725222E+03  0.30866725222E+03  0.00000000000E+00 0.  1.
         21   -1    0    0  502  503 -0.00000000000E+00 -0.00000000000E+00 -0.19587540574E+03  0.19587540574E+03  0.00000000000E+00 0.  1.
          6    1    1    2  501    0  0.27153676472E+02  0.62370394428E+02  0.22261792441E+03  0.28943069726E+03  0.17200000000E+03 0.  1.
         -6    1    1    2    0  503 -0.27153676472E+02 -0.62370394428E+02 -0.10982607793E+03  0.21511196071E+03  0.17200000000E+03 0.  1.
<mgrwt>
<rscale>  2 0.18496321E+03</rscale>
<asrwt>0</asrwt>
<pdfrwt beam="1">  1       21 0.77166812E-01 0.18496321E+03</pdfrwt>
<pdfrwt beam="2">  1       21 0.48968852E-01 0.18496321E+03</pdfrwt>
<totfact> 0.59710118E+03</totfact>
</mgrwt>
</event>
<event>
 4    1  0.1116135E+000  0.1895913E+03  0.7546771E-02  0.1158830E+00
         21   -1    0    0  503  502  0.00000000000E+00  0.00000000000E+00  0.94031511175E+03  0.94031511175E+03  0.00000000000E+00 0. -1.
         21   -1    0    0  501  503 -0.00000000000E+00 -0.00000000000E+00 -0.38227483495E+02  0.38227483495E+02  0.00000000000E+00 0. -1.
          6    1    1    2  501    0  0.59463300787E+02 -0.53150424044E+02  0.45366120765E+03  0.49168419035E+03  0.17200000000E+03 0. -1.
         -6    1    1    2    0  502 -0.59463300787E+02  0.53150424044E+02  0.44842642060E+03  0.48685840489E+03  0.17200000000E+03 0. -1.
<mgrwt>
<rscale>  2 0.18959128E+03</rscale>
<asrwt>0</asrwt>
<pdfrwt beam="1">  1       21 0.23507870E+00 0.18959128E+03</pdfrwt>
<pdfrwt beam="2">  1       21 0.95568740E-02 0.18959128E+03</pdfrwt>
<totfact> 0.71865064E+03</totfact>
</mgrwt>
</event>
<event>
 4    1  0.1116135E+000  0.1785820E+03  0.7546771E-02  0.1169183E+00
         21   -1    0    0  503  502  0.00000000000E+00  0.00000000000E+00  0.51295300134E+03  0.51295300134E+03  0.00000000000E+00 0.  1.
         21   -1    0    0  501  503 -0.00000000000E+00 -0.00000000000E+00 -0.19454268364E+03  0.19454268364E+03  0.00000000000E+00 0.  1.
          6    1    1    2  501    0 -0.45067097519E+02  0.16627717438E+02 -0.13259235141E+03  0.22242359569E+03  0.17200000000E+03 0.  1.
         -6    1    1    2    0  502  0.45067097519E+02 -0.16627717438E+02  0.45100266911E+03  0.48507208930E+03  0.17200000000E+03 0.  1.
<mgrwt>
<rscale>  2 0.17858198E+03</rscale>
<asrwt>0</asrwt>
<pdfrwt beam="1">  1       21 0.12823825E+00 0.17858198E+03</pdfrwt>
<pdfrwt beam="2">  1       21 0.48635672E-01 0.17858198E+03</pdfrwt>
<totfact> 0.18305759E+03</totfact>
</mgrwt>
</event>
<event>
 4    1  0.1116135E+000  0.4570643E+03  0.7546771E-02  0.1025636E+00
         21   -1    0    0  501  502  0.00000000000E+00  0.00000000000E+00  0.49856756772E+03  0.49856756772E+03  0.00000000000E+00 0.  1.
         21   -1    0    0  502  503 -0.00000000000E+00 -0.00000000000E+00 -0.41902357636E+03  0.41902357636E+03  0.00000000000E+00 0. -1.
          6    1    1    2  501    0 -0.23969509203E+03 -0.34909883543E+03  0.41736747252E+02  0.45896589211E+03  0.17200000000E+03 0. -1.
         -6    1    1    2    0  503  0.23969509203E+03  0.34909883543E+03  0.37807244107E+02  0.45862525198E+03  0.17200000000E+03 0.  1.
<mgrwt>
<rscale>  2 0.45706426E+03</rscale>
<asrwt>0</asrwt>
<pdfrwt beam="1">  1       21 0.12464189E+00 0.45706426E+03</pdfrwt>
<pdfrwt beam="2">  1       21 0.10475589E+00 0.45706426E+03</pdfrwt>
<totfact> 0.29040049E+02</totfact>
</mgrwt>
</event>
<event>
 4    1  0.1116135E+000  0.2164822E+03  0.7546771E-02  0.1136533E+00
         21   -1    0    0  501  502  0.00000000000E+00  0.00000000000E+00  0.13532113618E+03  0.13532113618E+03  0.00000000000E+00 0.  1.
         21   -1    0    0  502  503 -0.00000000000E+00 -0.00000000000E+00 -0.82915231912E+03  0.82915231912E+03  0.00000000000E+00 0.  1.
          6    1    1    2  501    0  0.59372915129E+02 -0.11728333512E+03  0.21078572744E+02  0.21750593090E+03  0.17200000000E+03 0.  1.
         -6    1    1    2    0  503 -0.59372915129E+02  0.11728333512E+03 -0.71490975568E+03  0.74696752440E+03  0.17200000000E+03 0.  1.
<mgrwt>
<rscale>  2 0.21648216E+03</rscale>
<asrwt>0</asrwt>
<pdfrwt beam="1">  1       21 0.33830284E-01 0.21648216E+03</pdfrwt>
<pdfrwt beam="2">  1       21 0.20728808E+00 0.21648216E+03</pdfrwt>
<totfact> 0.98965848E+02</totfact>
</mgrwt>
</event>
<event>
 4    1  0.1116135E+000  0.3274597E+03  0.7546771E-02  0.1072266E+00
         21   -1    0    0  503  502  0.00000000000E+00  0.00000000000E+00  0.26538993142E+03  0.26538993142E+03  0.00000000000E+00 0. -1.
         21   -1    0    0  501  503 -0.00000000000E+00 -0.00000000000E+00 -0.40762861841E+03  0.40762861841E+03  0.00000000000E+00 0.  1.
          6    1    1    2  501    0 -0.51592386234E+02 -0.27383227249E+03 -0.10266439798E+03  0.34317614484E+03  0.17200000000E+03 0.  1.
         -6    1    1    2    0  502  0.51592386234E+02  0.27383227249E+03 -0.39574289009E+02  0.32984240499E+03  0.17200000000E+03 0.  1.
<mgrwt>
<rscale>  2 0.32745975E+03</rscale>
<asrwt>0</asrwt>
<pdfrwt beam="1">  1       21 0.66347483E-01 0.32745975E+03</pdfrwt>
<pdfrwt beam="2">  1       21 0.10190715E+00 0.32745975E+03</pdfrwt>
<totfact> 0.14827903E+03</totfact>
</mgrwt>
</event>
<event>
 4    1  0.1116135E+000  0.1888528E+03  0.7546771E-02  0.1159500E+00
         21   -1    0    0  501  502  0.00000000000E+00  0.00000000000E+00  0.16367631741E+03  0.16367631741E+03  0.00000000000E+00 0.  1.
         21   -1    0    0  502  503 -0.00000000000E+00 -0.00000000000E+00 -0.24993832464E+03  0.24993832464E+03  0.00000000000E+00 0. -1.
          6    1    1    2  501    0 -0.10002047173E+01  0.77976679992E+02 -0.11717199546E+03  0.22224904848E+03  0.17200000000E+03 0. -1.
         -6    1    1    2    0  503  0.10002047173E+01 -0.77976679992E+02  0.30909988222E+02  0.19136559357E+03  0.17200000000E+03 0. -1.
<mgrwt>
<rscale>  2 0.18885275E+03</rscale>
<asrwt>0</asrwt>
<pdfrwt beam="1">  1       21 0.40919080E-01 0.18885275E+03</pdfrwt>
<pdfrwt beam="2">  1       21 0.62484581E-01 0.18885275E+03</pdfrwt>
<totfact> 0.13692660E+04</totfact>
</mgrwt>
</event>
<event>
 4    1  0.1116135E+000  0.1770200E+03  0.7546771E-02  0.1170719E+00
         21   -1    0    0  501  502  0.00000000000E+00  0.00000000000E+00  0.48729671591E+03  0.48729671591E+03  0.00000000000E+00 0. -1.
         21   -1    0    0  502  503 -0.00000000000E+00 -0.00000000000E+00 -0.78147783115E+02  0.78147783115E+02  0.00000000000E+00 0. -1.
          6    1    1    2  501    0  0.35201510559E+02  0.22648313587E+02  0.32356105233E+03  0.36881953180E+03  0.17200000000E+03 0. -1.
         -6    1    1    2    0  503 -0.35201510559E+02 -0.22648313587E+02  0.85587880471E+02  0.19662496723E+03  0.17200000000E+03 0. -1.
<mgrwt>
<rscale>  2 0.17702003E+03</rscale>
<asrwt>0</asrwt>
<pdfrwt beam="1">  1       21 0.12182417E+00 0.17702003E+03</pdfrwt>
<pdfrwt beam="2">  1       21 0.19536947E-01 0.17702003E+03</pdfrwt>
<totfact> 0.12402667E+04</totfact>
</mgrwt>
</event>
<event>
 4    1  0.1116135E+000  0.1722190E+03  0.7546771E-02  0.1175553E+00
         21   -1    0    0  503  502  0.00000000000E+00  0.00000000000E+00  0.93407048294E+02  0.93407048294E+02  0.00000000000E+00 0. -1.
         21   -1    0    0  501  503 -0.00000000000E+00 -0.00000000000E+00 -0.33443802694E+03  0.33443802694E+03  0.00000000000E+00 0. -1.
          6    1    1    2  501    0 -0.66349807581E+01  0.56016127660E+01 -0.16861761769E+03  0.24102137256E+03  0.17200000000E+03 0. -1.
         -6    1    1    2    0  502  0.66349807581E+01 -0.56016127660E+01 -0.72413360951E+02  0.18682370267E+03  0.17200000000E+03 0. -1.
<mgrwt>
<rscale>  2 0.17221905E+03</rscale>
<asrwt>0</asrwt>
<pdfrwt beam="1">  1       21 0.23351762E-01 0.17221905E+03</pdfrwt>
<pdfrwt beam="2">  1       21 0.83609506E-01 0.17221905E+03</pdfrwt>
<totfact> 0.21725540E+04</totfact>
</mgrwt>
</event>
<event>
 4    1  0.1116135E+000  0.1981291E+03  0.7546771E-02  0.1151327E+00
         21   -1    0    0  503  502  0.00000000000E+00  0.00000000000E+00  0.25261283575E+03  0.25261283575E+03  0.00000000000E+00 0.  1.
         21   -1    0    0  501  503 -0.00000000000E+00 -0.00000000000E+00 -0.24129241542E+03  0.24129241542E+03  0.00000000000E+00 0.  1.
          6    1    1    2  501    0  0.40915913410E+02  0.89426179333E+02 -0.14168229133E+03  0.24357550205E+03  0.17200000000E+03 0.  1.
         -6    1    1    2    0  502 -0.40915913410E+02 -0.89426179333E+02  0.15300271166E+03  0.25032974912E+03  0.17200000000E+03 0.  1.
<mgrwt>
<rscale>  2 0.19812913E+03</rscale>
<asrwt>0</asrwt>
<pdfrwt beam="1">  1       21 0.63153209E-01 0.19812913E+03</pdfrwt>
<pdfrwt beam="2">  1       21 0.60323104E-01 0.19812913E+03</pdfrwt>
<totfact> 0.59186345E+03</totfact>
</mgrwt>
</event>
<event>
 4    1  0.1116135E+000  0.1760213E+03  0.7546771E-02  0.1171710E+00
         21   -1    0    0  503  502  0.00000000000E+00  0.00000000000E+00  0.32791464169E+03  0.32791464169E+03  0.00000000000E+00 0. -1.
         21   -1    0    0  501  503 -0.00000000000E+00 -0.00000000000E+00 -0.14695300218E+03  0.14695300218E+03  0.00000000000E+00 0. -1.
          6    1    1    2  501    0  0.65264716032E+01  0.36836209085E+02 -0.51390457677E+02  0.18336979106E+03  0.17200000000E+03 0. -1.
         -6    1    1    2    0  502 -0.65264716032E+01 -0.36836209085E+02  0.23235209719E+03  0.29149785282E+03  0.17200000000E+03 0. -1.
<mgrwt>
<rscale>  2 0.17602131E+03</rscale>
<asrwt>0</asrwt>
<pdfrwt beam="1">  1       21 0.81978659E-01 0.17602131E+03</pdfrwt>
<pdfrwt beam="2">  1       21 0.36738251E-01 0.17602131E+03</pdfrwt>
<totfact> 0.94096456E+03</totfact>
</mgrwt>
</event>
<event>
 4    1  0.1116135E+000  0.1747371E+03  0.7546771E-02  0.1172996E+00
         21   -1    0    0  501  502  0.00000000000E+00  0.00000000000E+00  0.40323914862E+03  0.40323914862E+03  0.00000000000E+00 0.  1.
         21   -1    0    0  502  503 -0.00000000000E+00 -0.00000000000E+00 -0.80856123374E+02  0.80856123374E+02  0.00000000000E+00 0.  1.
          6    1    1    2  501    0 -0.30700653620E+02 -0.25518825705E+01  0.22219937603E+03  0.28267579477E+03  0.17200000000E+03 0.  1.
         -6    1    1    2    0  503  0.30700653620E+02  0.25518825705E+01  0.10018364921E+03  0.20141947723E+03  0.17200000000E+03 0.  1.
<mgrwt>
<rscale>  2 0.17473707E+03</rscale>
<asrwt>0</asrwt>
<pdfrwt beam="1">  1       21 0.10080978E+00 0.17473707E+03</pdfrwt>
<pdfrwt beam="2">  1       21 0.20214032E-01 0.17473707E+03</pdfrwt>
<totfact> 0.18433638E+04</totfact>
</mgrwt>
</event>
<event>
 4    1  0.1116135E+000  0.2156022E+03  0.7546771E-02  0.1137205E+00
         21   -1    0    0  503  502  0.00000000000E+00  0.00000000000E+00  0.24636523998E+03  0.24636523998E+03  0.00000000000E+00 0.  1.
         21   -1    0    0  501  503 -0.00000000000E+00 -0.00000000000E+00 -0.18869246252E+03  0.18869246252E+03  0.00000000000E+00 0.  1.
          6    1    1    2  501    0  0.86666331286E+02 -0.96898066903E+02  0.27096076274E+02  0.21729814932E+03  0.17200000000E+03 0. -1.
         -6    1    1    2    0  502 -0.86666331286E+02  0.96898066903E+02  0.30576701188E+02  0.21775955319E+03  0.17200000000E+03 0. -1.
<mgrwt>
<rscale>  2 0.21560215E+03</rscale>
<asrwt>0</asrwt>
<pdfrwt beam="1">  1       21 0.61591310E-01 0.21560215E+03</pdfrwt>
<pdfrwt beam="2">  1       21 0.47173116E-01 0.21560215E+03</pdfrwt>
<totfact> 0.10371145E+04</totfact>
</mgrwt>
</event>
<event>
 4    1  0.1116135E+000  0.2262092E+03  0.7546771E-02  0.1129337E+00
         21   -1    0    0  503  502  0.00000000000E+00  0.00000000000E+00  0.17553479000E+03  0.17553479000E+03  0.00000000000E+00 0.  1.
         21   -1    0    0  501  503 -0.00000000000E+00 -0.00000000000E+00 -0.34397392724E+03  0.34397392724E+03  0.00000000000E+00 0.  1.
          6    1    1    2  501    0  0.11851717705E+03  0.86834673787E+02 -0.18566213269E+03  0.29264485189E+03  0.17200000000E+03 0.  1.
         -6    1    1    2    0  502 -0.11851717705E+03 -0.86834673787E+02  0.17222995448E+02  0.22686386534E+03  0.17200000000E+03 0.  1.
<mgrwt>
<rscale>  2 0.22620916E+03</rscale>
<asrwt>0</asrwt>
<pdfrwt beam="1">  1       21 0.43883698E-01 0.22620916E+03</pdfrwt>
<pdfrwt beam="2">  1       21 0.85993481E-01 0.22620916E+03</pdfrwt>
<totfact> 0.56799838E+03</totfact>
</mgrwt>
</event>
<event>
 4    1  0.1116135E+000  0.2200036E+03  0.7546771E-02  0.1133880E+00
         21   -1    0    0  503  502  0.00000000000E+00  0.00000000000E+00  0.99012073356E+02  0.99012073356E+02  0.00000000000E+00 0. -1.
         21   -1    0    0  501  503 -0.00000000000E+00 -0.00000000000E+00 -0.48918573252E+03  0.48918573252E+03  0.00000000000E+00 0.  1.
          6    1    1    2  501    0 -0.12843027006E+03 -0.48200253527E+02 -0.18732981364E+03  0.28895338341E+03  0.17200000000E+03 0. -1.
         -6    1    1    2    0  502  0.12843027006E+03  0.48200253527E+02 -0.20284384553E+03  0.29924442247E+03  0.17200000000E+03 0.  1.
<mgrwt>
<rscale>  2 0.22000363E+03</rscale>
<asrwt>0</asrwt>
<pdfrwt beam="1">  1       21 0.24753019E-01 0.22000363E+03</pdfrwt>
<pdfrwt beam="2">  1       21 0.12229643E+00 0.22000363E+03</pdfrwt>
<totfact> 0.76227436E+03</totfact>
</mgrwt>
</event>
<event>
 4    1  0.1116135E+000  0.1952889E+03  0.7546771E-02  0.1153776E+00
         21   -1    0    0  501  502  0.00000000000E+00  0.00000000000E+00  0.59309428064E+03  0.59309428064E+03  0.00000000000E+00 0. -1.
         21   -1    0    0  502  503 -0.00000000000E+00 -0.00000000000E+00 -0.66949029257E+02  0.66949029257E+02  0.00000000000E+00 0. -1.
          6    1    1    2  501    0  0.89503069283E+02 -0.23301773927E+02  0.32868162128E+03  0.38232104343E+03  0.17200000000E+03 0. -1.
         -6    1    1    2    0  503 -0.89503069283E+02  0.23301773927E+02  0.19746363010E+03  0.27772226647E+03  0.17200000000E+03 0. -1.
<mgrwt>
<rscale>  2 0.19528895E+03</rscale>
<asrwt>0</asrwt>
<pdfrwt beam="1">  1       21 0.14827355E+00 0.19528895E+03</pdfrwt>
<pdfrwt beam="2">  1       21 0.16737259E-01 0.19528895E+03</pdfrwt>
<totfact> 0.98726132E+03</totfact>
</mgrwt>
</event>
<event>
 4    1  0.1116135E+000  0.1765137E+03  0.7546771E-02  0.1171220E+00
         21   -1    0    0  501  502  0.00000000000E+00  0.00000000000E+00  0.44423455248E+02  0.44423455248E+02  0.00000000000E+00 0.  1.
         21   -1    0    0  502  503 -0.00000000000E+00 -0.00000000000E+00 -0.73479594363E+03  0.73479594363E+03  0.00000000000E+00 0.  1.
          6    1    1    2  501    0  0.59533302082E+01 -0.39212677474E+02 -0.26208302493E+03  0.31598194279E+03  0.17200000000E+03 0.  1.
         -6    1    1    2    0  503 -0.59533302082E+01  0.39212677474E+02 -0.42828946345E+03  0.46323745608E+03  0.17200000000E+03 0.  1.
<mgrwt>
<rscale>  2 0.17651367E+03</rscale>
<asrwt>0</asrwt>
<pdfrwt beam="1">  1       21 0.11105864E-01 0.17651367E+03</pdfrwt>
<pdfrwt beam="2">  1       21 0.18369898E+00 0.17651367E+03</pdfrwt>
<totfact> 0.11726202E+04</totfact>
</mgrwt>
</event>
<event>
 4    1  0.1116135E+000  0.2139525E+03  0.7546771E-02  0.1138474E+00
         21   -1    0    0  501  502  0.00000000000E+00  0.00000000000E+00  0.21496877942E+03  0.21496877942E+03  0.00000000000E+00 0.  1.
         21   -1    0    0  502  503 -0.00000000000E+00 -0.00000000000E+00 -0.21690110456E+03  0.21690110456E+03  0.00000000000E+00 0. -1.
          6    1    1    2  501    0  0.12232650145E+03 -0.35041490556E+02 -0.30143272207E+02  0.21606548979E+03  0.17200000000E+03 0. -1.
         -6    1    1    2    0  503 -0.12232650145E+03  0.35041490556E+02  0.28210947065E+02  0.21580439419E+03  0.17200000000E+03 0.  1.
<mgrwt>
<rscale>  2 0.21395252E+03</rscale>
<asrwt>0</asrwt>
<pdfrwt beam="1">  1       21 0.53742195E-01 0.21395252E+03</pdfrwt>
<pdfrwt beam="2">  1       21 0.54225276E-01 0.21395252E+03</pdfrwt>
<totfact> 0.10378154E+04</totfact>
</mgrwt>
</event>
<event>
 4    1  0.1116135E+000  0.2013815E+03  0.7546771E-02  0.1148579E+00
         21   -1    0    0  503  502  0.00000000000E+00  0.00000000000E+00  0.14418337532E+03  0.14418337532E+03  0.00000000000E+00 0. -1.
         21   -1    0    0  501  503 -0.00000000000E+00 -0.00000000000E+00 -0.41300026873E+03  0.41300026873E+03  0.00000000000E+00 0. -1.
          6    1    1    2  501    0  0.10381078976E+03  0.13922199784E+02 -0.29174709572E+03  0.35450088234E+03  0.17200000000E+03 0. -1.
         -6    1    1    2    0  502 -0.10381078976E+03 -0.13922199784E+02  0.22930202317E+02  0.20268276171E+03  0.17200000000E+03 0. -1.
<mgrwt>
<rscale>  2 0.20138150E+03</rscale>
<asrwt>0</asrwt>
<pdfrwt beam="1">  1       21 0.36045844E-01 0.20138150E+03</pdfrwt>
<pdfrwt beam="2">  1       21 0.10325007E+00 0.20138150E+03</pdfrwt>
<totfact> 0.56071698E+03</totfact>
</mgrwt>
</event>
<event>
 4    1  0.1116135E+000  0.2018447E+03  0.7546771E-02  0.1148192E+00
         21   -1    0    0  501  502  0.00000000000E+00  0.00000000000E+00  0.89359497003E+02  0.89359497003E+02  0.00000000000E+00 0. -1.
         21   -1    0    0  502  503 -0.00000000000E+00 -0.00000000000E+00 -0.98806047224E+03  0.98806047224E+03  0.00000000000E+00 0.  1.
          6    1    1    2  501    0  0.10394146528E+03  0.18800586955E+02 -0.54007458130E+02  0.20894519810E+03  0.17200000000E+03 0. -1.
         -6    1    1    2    0  503 -0.10394146528E+03 -0.18800586955E+02 -0.84469351710E+03  0.86847477114E+03  0.17200000000E+03 0.  1.
<mgrwt>
<rscale>  2 0.20184472E+03</rscale>
<asrwt>0</asrwt>
<pdfrwt beam="1">  1       21 0.22339874E-01 0.20184472E+03</pdfrwt>
<pdfrwt beam="2">  1       21 0.24701512E+00 0.20184472E+03</pdfrwt>
<totfact> 0.12845030E+03</totfact>
</mgrwt>
</event>
<event>
 4    1  0.1116135E+000  0.1986271E+03  0.7546771E-02  0.1150903E+00
         21   -1    0    0  501  502  0.00000000000E+00  0.00000000000E+00  0.20257121084E+03  0.20257121084E+03  0.00000000000E+00 0.  1.
         21   -1    0    0  502  503 -0.00000000000E+00 -0.00000000000E+00 -0.20782969718E+03  0.20782969718E+03  0.00000000000E+00 0.  1.
          6    1    1    2  501    0  0.97864412439E+02 -0.17067184649E+02  0.48829634851E+02  0.20454110896E+03  0.17200000000E+03 0.  1.
         -6    1    1    2    0  503 -0.97864412439E+02  0.17067184649E+02 -0.54088121190E+02  0.20585979906E+03  0.17200000000E+03 0.  1.
<mgrwt>
<rscale>  2 0.19862712E+03</rscale>
<asrwt>0</asrwt>
<pdfrwt beam="1">  1       21 0.50642803E-01 0.19862712E+03</pdfrwt>
<pdfrwt beam="2">  1       21 0.51957424E-01 0.19862712E+03</pdfrwt>
<totfact> 0.12995409E+04</totfact>
</mgrwt>
</event>
<event>
 4    1  0.1116135E+000  0.1922647E+03  0.7546771E-02  0.1156434E+00
         21   -1    0    0  501  502  0.00000000000E+00  0.00000000000E+00  0.16385120714E+03  0.16385120714E+03  0.00000000000E+00 0.  1.
         21   -1    0    0  502  503 -0.00000000000E+00 -0.00000000000E+00 -0.37747636990E+03  0.37747636990E+03  0.00000000000E+00 0. -1.
          6    1    1    2  501    0  0.26246073442E+02  0.81809991918E+02  0.64868536450E+02  0.20291293249E+03  0.17200000000E+03 0.  1.
         -6    1    1    2    0  503 -0.26246073442E+02 -0.81809991918E+02 -0.27849369921E+03  0.33841464455E+03  0.17200000000E+03 0. -1.
<mgrwt>
<rscale>  2 0.19226474E+03</rscale>
<asrwt>0</asrwt>
<pdfrwt beam="1">  1       21 0.40962802E-01 0.19226474E+03</pdfrwt>
<pdfrwt beam="2">  1       21 0.94369092E-01 0.19226474E+03</pdfrwt>
<totfact> 0.54031090E+03</totfact>
</mgrwt>
</event>
<event>
 4    1  0.1116135E+000  0.1861360E+03  0.7546771E-02  0.1161993E+00
         21   -1    0    0  503  502  0.00000000000E+00  0.00000000000E+00  0.95325660463E+03  0.95325660463E+03  0.00000000000E+00 0.  1.
         21   -1    0    0  501  503 -0.00000000000E+00 -0.00000000000E+00 -0.79494388611E+02  0.79494388611E+02  0.00000000000E+00 0.  1.
          6    1    1    2  501    0  0.11800368210E+02 -0.70166711655E+02  0.56444722276E+02  0.19450609961E+03  0.17200000000E+03 0.  1.
         -6    1    1    2    0  502 -0.11800368210E+02  0.70166711655E+02  0.81731749374E+03  0.83824489362E+03  0.17200000000E+03 0.  1.
<mgrwt>
<rscale>  2 0.18613602E+03</rscale>
<asrwt>0</asrwt>
<pdfrwt beam="1">  1       21 0.23831412E+00 0.18613602E+03</pdfrwt>
<pdfrwt beam="2">  1       21 0.19873600E-01 0.18613602E+03</pdfrwt>
<totfact> 0.18349452E+03</totfact>
</mgrwt>
</event>
<event>
 4    1  0.1116135E+000  0.1733215E+03  0.7546771E-02  0.1174428E+00
         21   -1    0    0  503  502  0.00000000000E+00  0.00000000000E+00  0.36515143234E+03  0.36515143234E+03  0.00000000000E+00 0.  1.
         21   -1    0    0  501  503 -0.00000000000E+00 -0.00000000000E+00 -0.28679573233E+03  0.28679573233E+03  0.00000000000E+00 0. -1.
          6    1    1    2  501    0 -0.70653421172E+01  0.20159603893E+02 -0.23610047516E+03  0.29288865301E+03  0.17200000000E+03 0. -1.
         -6    1    1    2    0  502  0.70653421172E+01 -0.20159603893E+02  0.31445617517E+03  0.35905851166E+03  0.17200000000E+03 0.  1.
<mgrwt>
<rscale>  2 0.17332146E+03</rscale>
<asrwt>0</asrwt>
<pdfrwt beam="1">  1       21 0.91287858E-01 0.17332146E+03</pdfrwt>
<pdfrwt beam="2">  1       21 0.71698933E-01 0.17332146E+03</pdfrwt>
<totfact> 0.18198372E+03</totfact>
</mgrwt>
</event>
<event>
 4    1  0.1116135E+000  0.2520963E+03  0.7546771E-02  0.1111987E+00
         21   -1    0    0  501  502  0.00000000000E+00  0.00000000000E+00  0.10318747077E+03  0.10318747077E+03  0.00000000000E+00 0. -1.
         21   -1    0    0  502  503 -0.00000000000E+00 -0.00000000000E+00 -0.63654200160E+03  0.63654200160E+03  0.00000000000E+00 0. -1.
          6    1    1    2  501    0 -0.11604026385E+03 -0.14318944872E+03 -0.33329144448E+03  0.41789442210E+03  0.17200000000E+03 0. -1.
         -6    1    1    2    0  503  0.11604026385E+03  0.14318944872E+03 -0.20006308635E+03  0.32183505027E+03  0.17200000000E+03 0. -1.
<mgrwt>
<rscale>  2 0.25209633E+03</rscale>
<asrwt>0</asrwt>
<pdfrwt beam="1">  1       21 0.25796868E-01 0.25209633E+03</pdfrwt>
<pdfrwt beam="2">  1       21 0.15913550E+00 0.25209633E+03</pdfrwt>
<totfact> 0.34732643E+03</totfact>
</mgrwt>
</event>
<event>
 4    1  0.1116135E+000  0.1777130E+03  0.7546771E-02  0.1170035E+00
         21   -1    0    0  501  502  0.00000000000E+00  0.00000000000E+00  0.80110268841E+03  0.80110268841E+03  0.00000000000E+00 0. -1.
         21   -1    0    0  502  503 -0.00000000000E+00 -0.00000000000E+00 -0.83593309733E+02  0.83593309733E+02  0.00000000000E+00 0. -1.
          6    1    1    2  501    0  0.30851552150E+02 -0.32343464750E+02  0.68030078643E+03  0.70312948879E+03  0.17200000000E+03 0. -1.
         -6    1    1    2    0  503 -0.30851552150E+02  0.32343464750E+02  0.37208592243E+02  0.18156650935E+03  0.17200000000E+03 0. -1.
<mgrwt>
<rscale>  2 0.17771302E+03</rscale>
<asrwt>0</asrwt>
<pdfrwt beam="1">  1       21 0.20027565E+00 0.17771302E+03</pdfrwt>
<pdfrwt beam="2">  1       21 0.20898330E-01 0.17771302E+03</pdfrwt>
<totfact> 0.28870560E+03</totfact>
</mgrwt>
</event>
<event>
 4    1  0.1116135E+000  0.2121704E+03  0.7546771E-02  0.1139859E+00
         21   -1    0    0  501  502  0.00000000000E+00  0.00000000000E+00  0.14019119231E+03  0.14019119231E+03  0.00000000000E+00 0.  1.
         21   -1    0    0  502  503 -0.00000000000E+00 -0.00000000000E+00 -0.77921155918E+03  0.77921155918E+03  0.00000000000E+00 0. -1.
          6    1    1    2  501    0  0.32261936897E+02 -0.11996442900E+03  0.32966728985E+02  0.21471632918E+03  0.17200000000E+03 0.  1.
         -6    1    1    2    0  503 -0.32261936897E+02  0.11996442900E+03 -0.67198709586E+03  0.70468642232E+03  0.17200000000E+03 0. -1.
<mgrwt>
<rscale>  2 0.21217044E+03</rscale>
<asrwt>0</asrwt>
<pdfrwt beam="1">  1       21 0.35047799E-01 0.21217044E+03</pdfrwt>
<pdfrwt beam="2">  1       21 0.19480289E+00 0.21217044E+03</pdfrwt>
<totfact> 0.11150161E+03</totfact>
</mgrwt>
</event>
<event>
 4    1  0.1116135E+000  0.1989068E+03  0.7546771E-02  0.1150665E+00
         21   -1    0    0  503  502  0.00000000000E+00  0.00000000000E+00  0.43440771451E+03  0.43440771451E+03  0.00000000000E+00 0.  1.
         21   -1    0    0  501  503 -0.00000000000E+00 -0.00000000000E+00 -0.19502986377E+03  0.19502986377E+03  0.00000000000E+00 0.  1.
          6    1    1    2  501    0  0.41306152649E+02  0.90959877378E+02 -0.11008116033E+03  0.22733622544E+03  0.17200000000E+03 0.  1.
         -6    1    1    2    0  502 -0.41306152649E+02 -0.90959877378E+02  0.34945901107E+03  0.40210135284E+03  0.17200000000E+03 0.  1.
<mgrwt>
<rscale>  2 0.19890676E+03</rscale>
<asrwt>0</asrwt>
<pdfrwt beam="1">  1       21 0.10860193E+00 0.19890676E+03</pdfrwt>
<pdfrwt beam="2">  1       21 0.48757467E-01 0.19890676E+03</pdfrwt>
<totfact> 0.26899866E+03</totfact>
</mgrwt>
</event>
<event>
 4    1  0.1116135E+000  0.1871631E+03  0.7546771E-02  0.1161045E+00
         21   -1    0    0  503  502  0.00000000000E+00  0.00000000000E+00  0.81041820039E+02  0.81041820039E+02  0.00000000000E+00 0.  1.
         21   -1    0    0  501  503 -0.00000000000E+00 -0.00000000000E+00 -0.45184008681E+03  0.45184008681E+03  0.00000000000E+00 0.  1.
          6    1    1    2  501    0 -0.58088547856E+02 -0.45516325744E+02 -0.12991492818E+03  0.22783306140E+03  0.17200000000E+03 0. -1.
         -6    1    1    2    0  502  0.58088547856E+02  0.45516325744E+02 -0.24088333859E+03  0.30504884545E+03  0.17200000000E+03 0. -1.
<mgrwt>
<rscale>  2 0.18716307E+03</rscale>
<asrwt>0</asrwt>
<pdfrwt beam="1">  1       21 0.20260455E-01 0.18716307E+03</pdfrwt>
<pdfrwt beam="2">  1       21 0.11296002E+00 0.18716307E+03</pdfrwt>
<totfact> 0.13848713E+04</totfact>
</mgrwt>
</event>
<event>
 4    1  0.1116135E+000  0.1897507E+03  0.7546771E-02  0.1158686E+00
         21   -1    0    0  503  502  0.00000000000E+00  0.00000000000E+00  0.63311903790E+03  0.63311903790E+03  0.00000000000E+00 0.  1.
         21   -1    0    0  501  503 -0.00000000000E+00 -0.00000000000E+00 -0.69570764509E+02  0.69570764509E+02  0.00000000000E+00 0. -1.
          6    1    1    2  501    0  0.73283769403E+02  0.32416574156E+02  0.43189423240E+03  0.47173930631E+03  0.17200000000E+03 0.  1.
         -6    1    1    2    0  502 -0.73283769403E+02 -0.32416574156E+02  0.13165404099E+03  0.23095049609E+03  0.17200000000E+03 0. -1.
<mgrwt>
<rscale>  2 0.18975074E+03</rscale>
<asrwt>0</asrwt>
<pdfrwt beam="1">  1       21 0.15827974E+00 0.18975074E+03</pdfrwt>
<pdfrwt beam="2">  1       21 0.17392693E-01 0.18975074E+03</pdfrwt>
<totfact> 0.77692890E+03</totfact>
</mgrwt>
</event>
<event>
 4    1  0.1116135E+000  0.2084417E+03  0.7546771E-02  0.1142806E+00
         21   -1    0    0  503  502  0.00000000000E+00  0.00000000000E+00  0.50470794326E+03  0.50470794326E+03  0.00000000000E+00 0. -1.
         21   -1    0    0  501  503 -0.00000000000E+00 -0.00000000000E+00 -0.12851000019E+03  0.12851000019E+03  0.00000000000E+00 0.  1.
          6    1    1    2  501    0 -0.83027916924E+02  0.83488244184E+02  0.37001219767E+03  0.42468452801E+03  0.17200000000E+03 0. -1.
         -6    1    1    2    0  502  0.83027916924E+02 -0.83488244184E+02  0.61857453962E+01  0.20853341543E+03  0.17200000000E+03 0.  1.
<mgrwt>
<rscale>  2 0.20844165E+03</rscale>
<asrwt>0</asrwt>
<pdfrwt beam="1">  1       21 0.12617698E+00 0.20844165E+03</pdfrwt>
<pdfrwt beam="2">  1       21 0.32127501E-01 0.20844165E+03</pdfrwt>
<totfact> 0.42863866E+03</totfact>
</mgrwt>
</event>
<event>
 4    1  0.1116135E+000  0.1784682E+03  0.7546771E-02  0.1169294E+00
         21   -1    0    0  501  502  0.00000000000E+00  0.00000000000E+00  0.29964900859E+03  0.29964900859E+03  0.00000000000E+00 0.  1.
         21   -1    0    0  502  503 -0.00000000000E+00 -0.00000000000E+00 -0.14102251091E+03  0.14102251091E+03  0.00000000000E+00 0.  1.
          6    1    1    2  501    0  0.41310259542E+02  0.23671986509E+02  0.18865440554E+03  0.25969479244E+03  0.17200000000E+03 0.  1.
         -6    1    1    2    0  503 -0.41310259542E+02 -0.23671986509E+02 -0.30027907860E+02  0.18097672707E+03  0.17200000000E+03 0.  1.
<mgrwt>
<rscale>  2 0.17846821E+03</rscale>
<asrwt>0</asrwt>
<pdfrwt beam="1">  1       21 0.74912251E-01 0.17846821E+03</pdfrwt>
<pdfrwt beam="2">  1       21 0.35255628E-01 0.17846821E+03</pdfrwt>
<totfact> 0.12482419E+04</totfact>
</mgrwt>
</event>
<event>
 4    1  0.1116135E+000  0.2169068E+03  0.7546771E-02  0.1136210E+00
         21   -1    0    0  503  502  0.00000000000E+00  0.00000000000E+00  0.15366713003E+03  0.15366713003E+03  0.00000000000E+00 0.  1.
         21   -1    0    0  501  503 -0.00000000000E+00 -0.00000000000E+00 -0.33469151454E+03  0.33469151454E+03  0.00000000000E+00 0. -1.
          6    1    1    2  501    0  0.39801781865E+02 -0.12601735349E+03 -0.19233708052E+02  0.21775787183E+03  0.17200000000E+03 0.  1.
         -6    1    1    2    0  502 -0.39801781865E+02  0.12601735349E+03 -0.16179067646E+03  0.27060077274E+03  0.17200000000E+03 0. -1.
<mgrwt>
<rscale>  2 0.21690679E+03</rscale>
<asrwt>0</asrwt>
<pdfrwt beam="1">  1       21 0.38416783E-01 0.21690679E+03</pdfrwt>
<pdfrwt beam="2">  1       21 0.83672878E-01 0.21690679E+03</pdfrwt>
<totfact> 0.79784472E+03</totfact>
</mgrwt>
</event>
<event>
 4    1  0.1116135E+000  0.1756195E+03  0.7546771E-02  0.1172111E+00
         21   -1    0    0  503  502  0.00000000000E+00  0.00000000000E+00  0.65337733371E+03  0.65337733371E+03  0.00000000000E+00 0.  1.
         21   -1    0    0  501  503 -0.00000000000E+00 -0.00000000000E+00 -0.10050333687E+03  0.10050333687E+03  0.00000000000E+00 0.  1.
          6    1    1    2  501    0 -0.22787628302E+02  0.27183087982E+02  0.19370934677E+01  0.17563014720E+03  0.17200000000E+03 0.  1.
         -6    1    1    2    0  502  0.22787628302E+02 -0.27183087982E+02  0.55093690338E+03  0.57825052337E+03  0.17200000000E+03 0.  1.
<mgrwt>
<rscale>  2 0.17561946E+03</rscale>
<asrwt>0</asrwt>
<pdfrwt beam="1">  1       21 0.16334432E+00 0.17561946E+03</pdfrwt>
<pdfrwt beam="2">  1       21 0.25125836E-01 0.17561946E+03</pdfrwt>
<totfact> 0.36275973E+03</totfact>
</mgrwt>
</event>
<event>
 4    1  0.1116135E+000  0.2143826E+03  0.7546771E-02  0.1138142E+00
         21   -1    0    0  501  502  0.00000000000E+00  0.00000000000E+00  0.19321730690E+03  0.19321730690E+03  0.00000000000E+00 0. -1.
         21   -1    0    0  502  503 -0.00000000000E+00 -0.00000000000E+00 -0.24305134012E+03  0.24305134012E+03  0.00000000000E+00 0.  1.
          6    1    1    2  501    0  0.10526732402E+03 -0.72764495762E+02  0.69434433536E+01  0.21449497140E+03  0.17200000000E+03 0. -1.
         -6    1    1    2    0  503 -0.10526732402E+03  0.72764495762E+02 -0.56777476580E+02  0.22177367562E+03  0.17200000000E+03 0. -1.
<mgrwt>
<rscale>  2 0.21438256E+03</rscale>
<asrwt>0</asrwt>
<pdfrwt beam="1">  1       21 0.48304327E-01 0.21438256E+03</pdfrwt>
<pdfrwt beam="2">  1       21 0.60762835E-01 0.21438256E+03</pdfrwt>
<totfact> 0.10174184E+04</totfact>
</mgrwt>
</event>
<event>
 4    1  0.1116135E+000  0.2367424E+03  0.7546771E-02  0.1121982E+00
         21   -1    0    0  503  502  0.00000000000E+00  0.00000000000E+00  0.55737132594E+02  0.55737132594E+02  0.00000000000E+00 0.  1.
         21   -1    0    0  501  503 -0.00000000000E+00 -0.00000000000E+00 -0.10066885678E+04  0.10066885678E+04  0.00000000000E+00 0. -1.
          6    1    1    2  501    0  0.58829259190E+01  0.16256800769E+03 -0.49327118777E+03  0.54714114324E+03  0.17200000000E+03 0. -1.
         -6    1    1    2    0  502 -0.58829259190E+01 -0.16256800769E+03 -0.45768024739E+03  0.51528455711E+03  0.17200000000E+03 0. -1.
<mgrwt>
<rscale>  2 0.23674240E+03</rscale>
<asrwt>0</asrwt>
<pdfrwt beam="1">  1       21 0.13934284E-01 0.23674240E+03</pdfrwt>
<pdfrwt beam="2">  1       21 0.25167213E+00 0.23674240E+03</pdfrwt>
<totfact> 0.27870359E+03</totfact>
</mgrwt>
</event>
<event>
 4    1  0.1116135E+000  0.2483969E+03  0.7546771E-02  0.1114322E+00
         21   -1    0    0  503  502  0.00000000000E+00  0.00000000000E+00  0.89280567884E+02  0.89280567884E+02  0.00000000000E+00 0.  1.
         21   -1    0    0  501  503 -0.00000000000E+00 -0.00000000000E+00 -0.73297373912E+03  0.73297373912E+03  0.00000000000E+00 0.  1.
          6    1    1    2  501    0 -0.17322573775E+03  0.45933371491E+02 -0.42012259739E+03  0.48806149989E+03  0.17200000000E+03 0.  1.
         -6    1    1    2    0  502  0.17322573775E+03 -0.45933371491E+02 -0.22357057384E+03  0.33419280711E+03  0.17200000000E+03 0.  1.
<mgrwt>
<rscale>  2 0.24839692E+03</rscale>
<asrwt>0</asrwt>
<pdfrwt beam="1">  1       21 0.22320142E-01 0.24839692E+03</pdfrwt>
<pdfrwt beam="2">  1       21 0.18324343E+00 0.24839692E+03</pdfrwt>
<totfact> 0.30981124E+03</totfact>
</mgrwt>
</event>
<event>
 4    1  0.1116135E+000  0.1727126E+03  0.7546771E-02  0.1175048E+00
         21   -1    0    0  503  502  0.00000000000E+00  0.00000000000E+00  0.84385688699E+02  0.84385688699E+02  0.00000000000E+00 0. -1.
         21   -1    0    0  501  503 -0.00000000000E+00 -0.00000000000E+00 -0.58266752379E+03  0.58266752379E+03  0.00000000000E+00 0. -1.
          6    1    1    2  501    0  0.65293718848E+01 -0.14248315819E+02 -0.45831332942E+03  0.48977622965E+03  0.17200000000E+03 0. -1.
         -6    1    1    2    0  502 -0.65293718848E+01  0.14248315819E+02 -0.39968505671E+02  0.17727698284E+03  0.17200000000E+03 0. -1.
<mgrwt>
<rscale>  2 0.17271261E+03</rscale>
<asrwt>0</asrwt>
<pdfrwt beam="1">  1       21 0.21096422E-01 0.17271261E+03</pdfrwt>
<pdfrwt beam="2">  1       21 0.14566688E+00 0.17271261E+03</pdfrwt>
<totfact> 0.68539826E+03</totfact>
</mgrwt>
</event>
<event>
 4    1  0.1116135E+000  0.1749279E+03  0.7546771E-02  0.1172804E+00
         21   -1    0    0  501  502  0.00000000000E+00  0.00000000000E+00  0.14033678522E+03  0.14033678522E+03  0.00000000000E+00 0.  1.
         21   -1    0    0  502  503 -0.00000000000E+00 -0.00000000000E+00 -0.31004491694E+03  0.31004491694E+03  0.00000000000E+00 0.  1.
          6    1    1    2  501    0  0.31869503597E+02 -0.32285083595E+00  0.37814012155E+02  0.17896834638E+03  0.17200000000E+03 0.  1.
         -6    1    1    2    0  503 -0.31869503597E+02  0.32285083595E+00 -0.20752214388E+03  0.27141335577E+03  0.17200000000E+03 0.  1.
<mgrwt>
<rscale>  2 0.17492790E+03</rscale>
<asrwt>0</asrwt>
<pdfrwt beam="1">  1       21 0.35084196E-01 0.17492790E+03</pdfrwt>
<pdfrwt beam="2">  1       21 0.77511229E-01 0.17492790E+03</pdfrwt>
<totfact> 0.11707997E+04</totfact>
</mgrwt>
</event>
<event>
 4    1  0.1116135E+000  0.1777641E+03  0.7546771E-02  0.1169985E+00
         21   -1    0    0  501  502  0.00000000000E+00  0.00000000000E+00  0.19082601530E+03  0.19082601530E+03  0.00000000000E+00 0.  1.
         21   -1    0    0  502  503 -0.00000000000E+00 -0.00000000000E+00 -0.17752169275E+03  0.17752169275E+03  0.00000000000E+00 0.  1.
          6    1    1    2  501    0 -0.27240456787E+02 -0.35693655866E+02  0.54387372334E+02  0.18589799844E+03  0.17200000000E+03 0. -1.
         -6    1    1    2    0  503  0.27240456787E+02  0.35693655866E+02 -0.41083049787E+02  0.18244970960E+03  0.17200000000E+03 0. -1.
<mgrwt>
<rscale>  2 0.17776411E+03</rscale>
<asrwt>0</asrwt>
<pdfrwt beam="1">  1       21 0.47706504E-01 0.17776411E+03</pdfrwt>
<pdfrwt beam="2">  1       21 0.44380423E-01 0.17776411E+03</pdfrwt>
<totfact> 0.20663258E+04</totfact>
</mgrwt>
</event>
<event>
 4    1  0.1116135E+000  0.2708738E+03  0.7546771E-02  0.1100781E+00
         21   -1    0    0  501  502  0.00000000000E+00  0.00000000000E+00  0.13154275617E+03  0.13154275617E+03  0.00000000000E+00 0. -1.
         21   -1    0    0  502  503 -0.00000000000E+00 -0.00000000000E+00 -0.64118837685E+03  0.64118837685E+03  0.00000000000E+00 0.  1.
          6    1    1    2  501    0 -0.23791640761E+02  0.20790039236E+03 -0.11547612641E+03  0.29446111982E+03  0.17200000000E+03 0. -1.
         -6    1    1    2    0  503  0.23791640761E+02 -0.20790039236E+03 -0.39416949427E+03  0.47827001320E+03  0.17200000000E+03 0.  1.
<mgrwt>
<rscale>  2 0.27087380E+03</rscale>
<asrwt>0</asrwt>
<pdfrwt beam="1">  1       21 0.32885690E-01 0.27087380E+03</pdfrwt>
<pdfrwt beam="2">  1       21 0.16029709E+00 0.27087380E+03</pdfrwt>
<totfact> 0.20897650E+03</totfact>
</mgrwt>
</event>
<event>
 4    1  0.1116135E+000  0.1822242E+03  0.7546771E-02  0.1165668E+00
         21   -1    0    0  501  502  0.00000000000E+00  0.00000000000E+00  0.49006061182E+02  0.49006061182E+02  0.00000000000E+00 0. -1.
         21   -1    0    0  502  503 -0.00000000000E+00 -0.00000000000E+00 -0.67928459878E+03  0.67928459878E+03  0.00000000000E+00 0.  1.
          6    1    1    2  501    0  0.55700129396E+02 -0.22784577839E+02 -0.29691029615E+03  0.34836958157E+03  0.17200000000E+03 0.  1.
         -6    1    1    2    0  503 -0.55700129396E+02  0.22784577839E+02 -0.33336824145E+03  0.37992107839E+03  0.17200000000E+03 0.  1.
<mgrwt>
<rscale>  2 0.18222415E+03</rscale>
<asrwt>0</asrwt>
<pdfrwt beam="1">  1       21 0.12251516E-01 0.18222415E+03</pdfrwt>
<pdfrwt beam="2">  1       21 0.16982115E+00 0.18222415E+03</pdfrwt>
<totfact> 0.12197825E+04</totfact>
</mgrwt>
</event>
<event>
 4    1  0.1116135E+000  0.1813072E+03  0.7546771E-02  0.1166544E+00
         21   -1    0    0  503  502  0.00000000000E+00  0.00000000000E+00  0.11753583405E+03  0.11753583405E+03  0.00000000000E+00 0.  1.
         21   -1    0    0  501  503 -0.00000000000E+00 -0.00000000000E+00 -0.35089835028E+03  0.35089835028E+03  0.00000000000E+00 0.  1.
          6    1    1    2  501    0  0.56927561352E+02 -0.68962477558E+01 -0.22219934312E+03  0.28678363545E+03  0.17200000000E+03 0.  1.
         -6    1    1    2    0  502 -0.56927561352E+02  0.68962477558E+01 -0.11163173107E+02  0.18165054888E+03  0.17200000000E+03 0.  1.
<mgrwt>
<rscale>  2 0.18130721E+03</rscale>
<asrwt>0</asrwt>
<pdfrwt beam="1">  1       21 0.29383959E-01 0.18130721E+03</pdfrwt>
<pdfrwt beam="2">  1       21 0.87724587E-01 0.18130721E+03</pdfrwt>
<totfact> 0.12461127E+04</totfact>
</mgrwt>
</event>
<event>
 4    1  0.1116135E+000  0.2050793E+03  0.7546771E-02  0.1145523E+00
         21   -1    0    0  503  502  0.00000000000E+00  0.00000000000E+00  0.11108615673E+03  0.11108615673E+03  0.00000000000E+00 0.  1.
         21   -1    0    0  501  503 -0.00000000000E+00 -0.00000000000E+00 -0.41573892207E+03  0.41573892207E+03  0.00000000000E+00 0. -1.
          6    1    1    2  501    0 -0.92043439287E+02  0.63257632962E+02 -0.73599192184E+02  0.21788612607E+03  0.17200000000E+03 0. -1.
         -6    1    1    2    0  502  0.92043439287E+02 -0.63257632962E+02 -0.23105357315E+03  0.30893895273E+03  0.17200000000E+03 0.  1.
<mgrwt>
<rscale>  2 0.20507931E+03</rscale>
<asrwt>0</asrwt>
<pdfrwt beam="1">  1       21 0.27771540E-01 0.20507931E+03</pdfrwt>
<pdfrwt beam="2">  1       21 0.10393473E+00 0.20507931E+03</pdfrwt>
<totfact> 0.91853865E+03</totfact>
</mgrwt>
</event>
<event>
 4    1  0.1116135E+000  0.1761814E+03  0.7546771E-02  0.1171551E+00
         21   -1    0    0  503  502  0.00000000000E+00  0.00000000000E+00  0.17991893575E+03  0.17991893575E+03  0.00000000000E+00 0. -1.
         21   -1    0    0  501  503 -0.00000000000E+00 -0.00000000000E+00 -0.22746156288E+03  0.22746156288E+03  0.00000000000E+00 0. -1.
          6    1    1    2  501    0  0.37936371701E+02  0.40866745414E+01 -0.12387755279E+03  0.21537297252E+03  0.17200000000E+03 0. -1.
         -6    1    1    2    0  502 -0.37936371701E+02 -0.40866745414E+01  0.76334925666E+02  0.19200752611E+03  0.17200000000E+03 0. -1.
<mgrwt>
<rscale>  2 0.17618135E+03</rscale>
<asrwt>0</asrwt>
<pdfrwt beam="1">  1       21 0.44979734E-01 0.17618135E+03</pdfrwt>
<pdfrwt beam="2">  1       21 0.56865390E-01 0.17618135E+03</pdfrwt>
<totfact> 0.13932809E+04</totfact>
</mgrwt>
</event>
<event>
 4    1  0.1116135E+000  0.2046271E+03  0.7546771E-02  0.1145893E+00
         21   -1    0    0  503  502  0.00000000000E+00  0.00000000000E+00  0.15206694504E+03  0.15206694504E+03  0.00000000000E+00 0. -1.
         21   -1    0    0  501  503 -0.00000000000E+00 -0.00000000000E+00 -0.28922494575E+03  0.28922494575E+03  0.00000000000E+00 0. -1.
          6    1    1    2  501    0  0.27467964555E+01  0.11081843473E+03 -0.11689913663E+03  0.23566433441E+03  0.17200000000E+03 0. -1.
         -6    1    1    2    0  502 -0.27467964555E+01 -0.11081843473E+03 -0.20258864081E+02  0.20562755638E+03  0.17200000000E+03 0. -1.
<mgrwt>
<rscale>  2 0.20462715E+03</rscale>
<asrwt>0</asrwt>
<pdfrwt beam="1">  1       21 0.38016737E-01 0.20462715E+03</pdfrwt>
<pdfrwt beam="2">  1       21 0.72306236E-01 0.20462715E+03</pdfrwt>
<totfact> 0.11416301E+04</totfact>
</mgrwt>
</event>
<event>
 4    1  0.1116135E+000  0.2740332E+03  0.7546771E-02  0.1098993E+00
         21   -1    0    0  503  502  0.00000000000E+00  0.00000000000E+00  0.51943177745E+02  0.51943177745E+02  0.00000000000E+00 0. -1.
         21   -1    0    0  501  503 -0.00000000000E+00 -0.00000000000E+00 -0.17347719697E+04  0.17347719697E+04  0.00000000000E+00 0.  1.
          6    1    1    2  501    0  0.18013709231E+03 -0.11428384510E+03 -0.47673744620E+03  0.54988431682E+03  0.17200000000E+03 0. -1.
         -6    1    1    2    0  502 -0.18013709231E+03  0.11428384510E+03 -0.12060913458E+04  0.12368308306E+04  0.17200000000E+03 0.  1.
<mgrwt>
<rscale>  2 0.27403315E+03</rscale>
<asrwt>0</asrwt>
<pdfrwt beam="1">  1       21 0.12985793E-01 0.27403315E+03</pdfrwt>
<pdfrwt beam="2">  1       21 0.43369303E+00 0.27403315E+03</pdfrwt>
<totfact> 0.24095746E+02</totfact>
</mgrwt>
</event>
<event>
 4    1  0.1116135E+000  0.1942347E+03  0.7546771E-02  0.1154696E+00
         21   -1    0    0  503  502  0.00000000000E+00  0.00000000000E+00  0.62191507064E+02  0.62191507064E+02  0.00000000000E+00 0. -1.
         21   -1    0    0  501  503 -0.00000000000E+00 -0.00000000000E+00 -0.60990874399E+03  0.60990874399E+03  0.00000000000E+00 0.  1.
          6    1    1    2  501    0  0.25012009961E+02  0.86703695688E+02 -0.29850393783E+03  0.35613443022E+03  0.17200000000E+03 0.  1.
         -6    1    1    2    0  502 -0.25012009961E+02 -0.86703695688E+02 -0.24921329909E+03  0.31596582083E+03  0.17200000000E+03 0. -1.
<mgrwt>
<rscale>  2 0.19423473E+03</rscale>
<asrwt>0</asrwt>
<pdfrwt beam="1">  1       21 0.15547877E-01 0.19423473E+03</pdfrwt>
<pdfrwt beam="2">  1       21 0.15247718E+00 0.19423473E+03</pdfrwt>
<totfact> 0.10506230E+04</totfact>
</mgrwt>
</event>
<event>
 4    1  0.1116135E+000  0.1919021E+03  0.7546771E-02  0.1156757E+00
         21   -1    0    0  503  502  0.00000000000E+00  0.00000000000E+00  0.21969567028E+02  0.21969567028E+02  0.00000000000E+00 0. -1.
         21   -1    0    0  501  503 -0.00000000000E+00 -0.00000000000E+00 -0.17936246807E+04  0.17936246807E+04  0.00000000000E+00 0.  1.
          6    1    1    2  501    0  0.40631063736E+02  0.74776464522E+02 -0.11180569999E+04  0.11344063902E+04  0.17200000000E+03 0.  1.
         -6    1    1    2    0  502 -0.40631063736E+02 -0.74776464522E+02 -0.65359811377E+03  0.68118785758E+03  0.17200000000E+03 0. -1.
<mgrwt>
<rscale>  2 0.19190207E+03</rscale>
<asrwt>0</asrwt>
<pdfrwt beam="1">  1       21 0.54923930E-02 0.19190207E+03</pdfrwt>
<pdfrwt beam="2">  1       21 0.44840607E+00 0.19190207E+03</pdfrwt>
<totfact> 0.97862400E+02</totfact>
</mgrwt>
</event>
<event>
 4    1  0.1116135E+000  0.1829009E+03  0.7546771E-02  0.1165025E+00
         21   -1    0    0  503  502  0.00000000000E+00  0.00000000000E+00  0.47242714616E+02  0.47242714616E+02  0.00000000000E+00 0.  1.
         21   -1    0    0  501  503 -0.00000000000E+00 -0.00000000000E+00 -0.81163649770E+03  0.81163649770E+03  0.00000000000E+00 0.  1.
          6    1    1    2  501    0  0.42191536972E+02  0.45701333437E+02 -0.53557396092E+03  0.56594364144E+03  0.17200000000E+03 0.  1.
         -6    1    1    2    0  502 -0.42191536972E+02 -0.45701333437E+02 -0.22881982216E+03  0.29293557088E+03  0.17200000000E+03 0.  1.
<mgrwt>
<rscale>  2 0.18290090E+03</rscale>
<asrwt>0</asrwt>
<pdfrwt beam="1">  1       21 0.11810679E-01 0.18290090E+03</pdfrwt>
<pdfrwt beam="2">  1       21 0.20290912E+00 0.18290090E+03</pdfrwt>
<totfact> 0.78344188E+03</totfact>
</mgrwt>
</event>
<event>
 4    1  0.1116135E+000  0.1724737E+03  0.7546771E-02  0.1175292E+00
         21   -1    0    0  501  502  0.00000000000E+00  0.00000000000E+00  0.13990224735E+03  0.13990224735E+03  0.00000000000E+00 0.  1.
         21   -1    0    0  502  503 -0.00000000000E+00 -0.00000000000E+00 -0.29982674162E+03  0.29982674162E+03  0.00000000000E+00 0.  1.
          6    1    1    2  501    0  0.68771913999E+00  0.12755161021E+02  0.38607653937E+02  0.17674195323E+03  0.17200000000E+03 0.  1.
         -6    1    1    2    0  503 -0.68771913999E+00 -0.12755161021E+02 -0.19853214821E+03  0.26298703573E+03  0.17200000000E+03 0.  1.
<mgrwt>
<rscale>  2 0.17247367E+03</rscale>
<asrwt>0</asrwt>
<pdfrwt beam="1">  1       21 0.34975562E-01 0.17247367E+03</pdfrwt>
<pdfrwt beam="2">  1       21 0.74956685E-01 0.17247367E+03</pdfrwt>
<totfact> 0.12717642E+04</totfact>
</mgrwt>
</event>
<event>
 4    1  0.1116135E+000  0.1980335E+03  0.7546771E-02  0.1151409E+00
         21   -1    0    0  501  502  0.00000000000E+00  0.00000000000E+00  0.22624018377E+03  0.22624018377E+03  0.00000000000E+00 0. -1.
         21   -1    0    0  502  503 -0.00000000000E+00 -0.00000000000E+00 -0.17359058170E+03  0.17359058170E+03  0.00000000000E+00 0.  1.
          6    1    1    2  501    0  0.81435255527E+02 -0.54786548394E+02  0.33866997775E+02  0.20090853707E+03  0.17200000000E+03 0.  1.
         -6    1    1    2    0  503 -0.81435255527E+02  0.54786548394E+02  0.18782604302E+02  0.19892222840E+03  0.17200000000E+03 0. -1.
<mgrwt>
<rscale>  2 0.19803350E+03</rscale>
<asrwt>0</asrwt>
<pdfrwt beam="1">  1       21 0.56560046E-01 0.19803350E+03</pdfrwt>
<pdfrwt beam="2">  1       21 0.43397646E-01 0.19803350E+03</pdfrwt>
<totfact> 0.14952165E+04</totfact>
</mgrwt>
</event>
<event>
 4    1  0.1116135E+000  0.1895235E+03  0.7546771E-02  0.1158892E+00
         21   -1    0    0  503  502  0.00000000000E+00  0.00000000000E+00  0.50908564965E+02  0.50908564965E+02  0.00000000000E+00 0.  1.
         21   -1    0    0  501  503 -0.00000000000E+00 -0.00000000000E+00 -0.87134394916E+03  0.87134394916E+03  0.00000000000E+00 0. -1.
          6    1    1    2  501    0 -0.39399176032E+02  0.69158240697E+02 -0.61135537675E+03  0.64005824267E+03  0.17200000000E+03 0. -1.
         -6    1    1    2    0  502  0.39399176032E+02 -0.69158240697E+02 -0.20908000744E+03  0.28219427145E+03  0.17200000000E+03 0.  1.
<mgrwt>
<rscale>  2 0.18952350E+03</rscale>
<asrwt>0</asrwt>
<pdfrwt beam="1">  1       21 0.12727142E-01 0.18952350E+03</pdfrwt>
<pdfrwt beam="2">  1       21 0.21783598E+00 0.18952350E+03</pdfrwt>
<totfact> 0.54941621E+03</totfact>
</mgrwt>
</event>
<event>
 4    1  0.1116135E+000  0.1770575E+03  0.7546771E-02  0.1170682E+00
         21   -1    0    0  501  502  0.00000000000E+00  0.00000000000E+00  0.55642266200E+03  0.55642266200E+03  0.00000000000E+00 0.  1.
         21   -1    0    0  502  503 -0.00000000000E+00 -0.00000000000E+00 -0.12455656502E+03  0.12455656502E+03  0.00000000000E+00 0.  1.
          6    1    1    2  501    0 -0.32433998653E+02 -0.26709475588E+02  0.46791102081E+03  0.50028999965E+03  0.17200000000E+03 0.  1.
         -6    1    1    2    0  503  0.32433998653E+02  0.26709475588E+02 -0.36044923821E+02  0.18068922737E+03  0.17200000000E+03 0.  1.
<mgrwt>
<rscale>  2 0.17705751E+03</rscale>
<asrwt>0</asrwt>
<pdfrwt beam="1">  1       21 0.13910566E+00 0.17705751E+03</pdfrwt>
<pdfrwt beam="2">  1       21 0.31139143E-01 0.17705751E+03</pdfrwt>
<totfact> 0.36551198E+03</totfact>
</mgrwt>
</event>
<event>
 4    1  0.1116135E+000  0.1806119E+03  0.7546771E-02  0.1167212E+00
         21   -1    0    0  501  502  0.00000000000E+00  0.00000000000E+00  0.37217769215E+03  0.37217769215E+03  0.00000000000E+00 0.  1.
         21   -1    0    0  502  503 -0.00000000000E+00 -0.00000000000E+00 -0.94383827692E+02  0.94383827692E+02  0.00000000000E+00 0.  1.
          6    1    1    2  501    0 -0.55066799939E+02 -0.20756142198E+01  0.20121629315E+03  0.27038612623E+03  0.17200000000E+03 0.  1.
         -6    1    1    2    0  503  0.55066799939E+02  0.20756142198E+01  0.76577571307E+02  0.19617539361E+03  0.17200000000E+03 0.  1.
<mgrwt>
<rscale>  2 0.18061191E+03</rscale>
<asrwt>0</asrwt>
<pdfrwt beam="1">  1       21 0.93044419E-01 0.18061191E+03</pdfrwt>
<pdfrwt beam="2">  1       21 0.23595958E-01 0.18061191E+03</pdfrwt>
<totfact> 0.16569679E+04</totfact>
</mgrwt>
</event>
<event>
 4    1  0.1116135E+000  0.2308917E+03  0.7546771E-02  0.1126014E+00
         21   -1    0    0  501  502  0.00000000000E+00  0.00000000000E+00  0.56310794258E+03  0.56310794258E+03  0.00000000000E+00 0.  1.
         21   -1    0    0  502  503 -0.00000000000E+00 -0.00000000000E+00 -0.17463650823E+03  0.17463650823E+03  0.00000000000E+00 0. -1.
          6    1    1    2  501    0  0.15148646128E+03  0.27907291676E+02  0.44384176026E+03  0.50030637916E+03  0.17200000000E+03 0.  1.
         -6    1    1    2    0  503 -0.15148646128E+03 -0.27907291676E+02 -0.55370325907E+02  0.23743807165E+03  0.17200000000E+03 0. -1.
<mgrwt>
<rscale>  2 0.23089167E+03</rscale>
<asrwt>0</asrwt>
<pdfrwt beam="1">  1       21 0.14077698E+00 0.23089167E+03</pdfrwt>
<pdfrwt beam="2">  1       21 0.43659128E-01 0.23089167E+03</pdfrwt>
<totfact> 0.17179765E+03</totfact>
</mgrwt>
</event>
<event>
 4    1  0.1116135E+000  0.1726199E+03  0.7546771E-02  0.1175143E+00
         21   -1    0    0  503  502  0.00000000000E+00  0.00000000000E+00  0.41468769576E+03  0.41468769576E+03  0.00000000000E+00 0. -1.
         21   -1    0    0  501  503 -0.00000000000E+00 -0.00000000000E+00 -0.79739297812E+02  0.79739297812E+02  0.00000000000E+00 0. -1.
          6    1    1    2  501    0 -0.11267322348E+02 -0.93092645551E+01  0.89741782348E+02  0.19455385491E+03  0.17200000000E+03 0. -1.
         -6    1    1    2    0  502  0.11267322348E+02  0.93092645551E+01  0.24520661560E+03  0.29987313866E+03  0.17200000000E+03 0. -1.
<mgrwt>
<rscale>  2 0.17261986E+03</rscale>
<asrwt>0</asrwt>
<pdfrwt beam="1">  1       21 0.10367192E+00 0.17261986E+03</pdfrwt>
<pdfrwt beam="2">  1       21 0.19934826E-01 0.17261986E+03</pdfrwt>
<totfact> 0.17722928E+04</totfact>
</mgrwt>
</event>
<event>
 4    1  0.1116135E+000  0.1790310E+03  0.7546771E-02  0.1168744E+00
         21   -1    0    0  503  502  0.00000000000E+00  0.00000000000E+00  0.38853555173E+03  0.38853555173E+03  0.00000000000E+00 0.  1.
         21   -1    0    0  501  503 -0.00000000000E+00 -0.00000000000E+00 -0.92833423139E+02  0.92833423139E+02  0.00000000000E+00 0.  1.
          6    1    1    2  501    0 -0.32394518352E+02  0.37665484293E+02  0.67529713094E+02  0.19134355405E+03  0.17200000000E+03 0.  1.
         -6    1    1    2    0  502  0.32394518352E+02 -0.37665484293E+02  0.22817241549E+03  0.29002542082E+03  0.17200000000E+03 0.  1.
<mgrwt>
<rscale>  2 0.17903098E+03</rscale>
<asrwt>0</asrwt>
<pdfrwt beam="1">  1       21 0.97133884E-01 0.17903098E+03</pdfrwt>
<pdfrwt beam="2">  1       21 0.23208357E-01 0.17903098E+03</pdfrwt>
<totfact> 0.15478781E+04</totfact>
</mgrwt>
</event>
<event>
 4    1  0.1116135E+000  0.2045743E+03  0.7546771E-02  0.1145936E+00
         21   -1    0    0  503  502  0.00000000000E+00  0.00000000000E+00  0.31274486027E+03  0.31274486027E+03  0.00000000000E+00 0. -1.
         21   -1    0    0  501  503 -0.00000000000E+00 -0.00000000000E+00 -0.20937355308E+03  0.20937355308E+03  0.00000000000E+00 0.  1.
          6    1    1    2  501    0  0.22233262889E+02  0.10850038613E+03 -0.10513869845E+03  0.23001042951E+03  0.17200000000E+03 0.  1.
         -6    1    1    2    0  502 -0.22233262889E+02 -0.10850038613E+03  0.20851000564E+03  0.29210798384E+03  0.17200000000E+03 0. -1.
<mgrwt>
<rscale>  2 0.20457432E+03</rscale>
<asrwt>0</asrwt>
<pdfrwt beam="1">  1       21 0.78186215E-01 0.20457432E+03</pdfrwt>
<pdfrwt beam="2">  1       21 0.52343389E-01 0.20457432E+03</pdfrwt>
<totfact> 0.49682016E+03</totfact>
</mgrwt>
</event>
<event>
 4    1  0.1116135E+000  0.1811228E+03  0.7546771E-02  0.1166721E+00
         21   -1    0    0  503  502  0.00000000000E+00  0.00000000000E+00  0.26464292815E+03  0.26464292815E+03  0.00000000000E+00 0.  1.
         21   -1    0    0  501  503 -0.00000000000E+00 -0.00000000000E+00 -0.23179414283E+03  0.23179414283E+03  0.00000000000E+00 0.  1.
          6    1    1    2  501    0 -0.54929143676E+02  0.14291598872E+02 -0.15287627299E+03  0.23701606584E+03  0.17200000000E+03 0.  1.
         -6    1    1    2    0  502  0.54929143676E+02 -0.14291598872E+02  0.18572505831E+03  0.25942100514E+03  0.17200000000E+03 0.  1.
<mgrwt>
<rscale>  2 0.18112278E+03</rscale>
<asrwt>0</asrwt>
<pdfrwt beam="1">  1       21 0.66160732E-01 0.18112278E+03</pdfrwt>
<pdfrwt beam="2">  1       21 0.57948536E-01 0.18112278E+03</pdfrwt>
<totfact> 0.59059644E+03</totfact>
</mgrwt>
</event>
<event>
 4    1  0.1116135E+000  0.2307038E+03  0.7546771E-02  0.1126145E+00
         21   -1    0    0  503  502  0.00000000000E+00  0.00000000000E+00  0.57388554425E+03  0.57388554425E+03  0.00000000000E+00 0. -1.
         21   -1    0    0  501  503 -0.00000000000E+00 -0.00000000000E+00 -0.27963131965E+03  0.27963131965E+03  0.00000000000E+00 0. -1.
          6    1    1    2  501    0  0.14550539639E+03  0.49683087258E+02 -0.20175568055E+03  0.30647933727E+03  0.17200000000E+03 0. -1.
         -6    1    1    2    0  502 -0.14550539639E+03 -0.49683087258E+02  0.49600990515E+03  0.54703752663E+03  0.17200000000E+03 0. -1.
<mgrwt>
<rscale>  2 0.23070377E+03</rscale>
<asrwt>0</asrwt>
<pdfrwt beam="1">  1       21 0.14347138E+00 0.23070377E+03</pdfrwt>
<pdfrwt beam="2">  1       21 0.69907831E-01 0.23070377E+03</pdfrwt>
<totfact> 0.59996337E+02</totfact>
</mgrwt>
</event>
<event>
 4    1  0.1116135E+000  0.1838310E+03  0.7546771E-02  0.1164146E+00
         21   -1    0    0  501  502  0.00000000000E+00  0.00000000000E+00  0.45832500840E+02  0.45832500840E+02  0.00000000000E+00 0.  1.
         21   -1    0    0  502  503 -0.00000000000E+00 -0.00000000000E+00 -0.95657527632E+03  0.95657527632E+03  0.00000000000E+00 0.  1.
          6    1    1    2  501    0 -0.28244920883E+02  0.58412808528E+02 -0.21542365402E+03  0.28319813288E+03  0.17200000000E+03 0.  1.
         -6    1    1    2    0  503  0.28244920883E+02 -0.58412808528E+02 -0.69531912146E+03  0.71920964428E+03  0.17200000000E+03 0.  1.
<mgrwt>
<rscale>  2 0.18383099E+03</rscale>
<asrwt>0</asrwt>
<pdfrwt beam="1">  1       21 0.11458126E-01 0.18383099E+03</pdfrwt>
<pdfrwt beam="2">  1       21 0.23914380E+00 0.18383099E+03</pdfrwt>
<totfact> 0.49577572E+03</totfact>
</mgrwt>
</event>
<event>
 4    1  0.1116135E+000  0.1728831E+03  0.7546771E-02  0.1174874E+00
         21   -1    0    0  503  502  0.00000000000E+00  0.00000000000E+00  0.11179282381E+04  0.11179282381E+04  0.00000000000E+00 0.  1.
         21   -1    0    0  501  503 -0.00000000000E+00 -0.00000000000E+00 -0.29229910401E+02  0.29229910401E+02  0.00000000000E+00 0.  1.
          6    1    1    2  501    0  0.16380140991E+02  0.60224982552E+01  0.37679808516E+03  0.41456649224E+03  0.17200000000E+03 0.  1.
         -6    1    1    2    0  502 -0.16380140991E+02 -0.60224982552E+01  0.71190024255E+03  0.73259165627E+03  0.17200000000E+03 0.  1.
<mgrwt>
<rscale>  2 0.17288314E+03</rscale>
<asrwt>0</asrwt>
<pdfrwt beam="1">  1       21 0.27948192E+00 0.17288314E+03</pdfrwt>
<pdfrwt beam="2">  1       21 0.73074813E-02 0.17288314E+03</pdfrwt>
<totfact> 0.64346334E+03</totfact>
</mgrwt>
</event>
<event>
 4    1  0.1116135E+000  0.2110152E+03  0.7546771E-02  0.1140765E+00
         21   -1    0    0  501  502  0.00000000000E+00  0.00000000000E+00  0.31647156461E+03  0.31647156461E+03  0.00000000000E+00 0.  1.
         21   -1    0    0  502  503 -0.00000000000E+00 -0.00000000000E+00 -0.14402009329E+03  0.14402009329E+03  0.00000000000E+00 0. -1.
          6    1    1    2  501    0 -0.29862345036E+02  0.11853967904E+03  0.12118667227E+03  0.24333849818E+03  0.17200000000E+03 0. -1.
         -6    1    1    2    0  503  0.29862345036E+02 -0.11853967904E+03  0.51264799045E+02  0.21715315973E+03  0.17200000000E+03 0. -1.
<mgrwt>
<rscale>  2 0.21101520E+03</rscale>
<asrwt>0</asrwt>
<pdfrwt beam="1">  1       21 0.79117890E-01 0.21101520E+03</pdfrwt>
<pdfrwt beam="2">  1       21 0.36005024E-01 0.21101520E+03</pdfrwt>
<totfact> 0.10360044E+04</totfact>
</mgrwt>
</event>
<event>
 4    1  0.1116135E+000  0.1913301E+03  0.7546771E-02  0.1157267E+00
         21   -1    0    0  501  502  0.00000000000E+00  0.00000000000E+00  0.36127136392E+03  0.36127136392E+03  0.00000000000E+00 0.  1.
         21   -1    0    0  502  503 -0.00000000000E+00 -0.00000000000E+00 -0.11163467305E+03  0.11163467305E+03  0.00000000000E+00 0.  1.
          6    1    1    2  501    0 -0.17228079200E+02 -0.82014550256E+02  0.19666188818E+03  0.27437764382E+03  0.17200000000E+03 0. -1.
         -6    1    1    2    0  503  0.17228079200E+02  0.82014550256E+02  0.52974802693E+02  0.19852839315E+03  0.17200000000E+03 0. -1.
<mgrwt>
<rscale>  2 0.19133006E+03</rscale>
<asrwt>0</asrwt>
<pdfrwt beam="1">  1       21 0.90317838E-01 0.19133006E+03</pdfrwt>
<pdfrwt beam="2">  1       21 0.27908669E-01 0.19133006E+03</pdfrwt>
<totfact> 0.12787957E+04</totfact>
</mgrwt>
</event>
<event>
 4    1  0.1116135E+000  0.1836922E+03  0.7546771E-02  0.1164277E+00
         21   -1    0    0  503  502  0.00000000000E+00  0.00000000000E+00  0.77794142504E+03  0.77794142504E+03  0.00000000000E+00 0. -1.
         21   -1    0    0  501  503 -0.00000000000E+00 -0.00000000000E+00 -0.47557290819E+02  0.47557290819E+02  0.00000000000E+00 0. -1.
          6    1    1    2  501    0  0.89484855784E+00 -0.64482791622E+02  0.48760018026E+03  0.52105351641E+03  0.17200000000E+03 0. -1.
         -6    1    1    2    0  502 -0.89484855784E+00  0.64482791622E+02  0.24278395396E+03  0.30444519945E+03  0.17200000000E+03 0. -1.
<mgrwt>
<rscale>  2 0.18369222E+03</rscale>
<asrwt>0</asrwt>
<pdfrwt beam="1">  1       21 0.19448532E+00 0.18369222E+03</pdfrwt>
<pdfrwt beam="2">  1       21 0.11889325E-01 0.18369222E+03</pdfrwt>
<totfact> 0.87637384E+03</totfact>
</mgrwt>
</event>
<event>
 4    1  0.1116135E+000  0.2476095E+03  0.7546771E-02  0.1114825E+00
         21   -1    0    0  503  502  0.00000000000E+00  0.00000000000E+00  0.19425507546E+03  0.19425507546E+03  0.00000000000E+00 0. -1.
         21   -1    0    0  501  503 -0.00000000000E+00 -0.00000000000E+00 -0.41866926015E+03  0.41866926015E+03  0.00000000000E+00 0. -1.
          6    1    1    2  501    0  0.11701428606E+03 -0.13429118047E+03 -0.26425038654E+03  0.36213082040E+03  0.17200000000E+03 0. -1.
         -6    1    1    2    0  502 -0.11701428606E+03  0.13429118047E+03  0.39836201853E+02  0.25079351522E+03  0.17200000000E+03 0. -1.
<mgrwt>
<rscale>  2 0.24760950E+03</rscale>
<asrwt>0</asrwt>
<pdfrwt beam="1">  1       21 0.48563769E-01 0.24760950E+03</pdfrwt>
<pdfrwt beam="2">  1       21 0.10466731E+00 0.24760950E+03</pdfrwt>
<totfact> 0.28551281E+03</totfact>
</mgrwt>
</event>
<event>
 4    1  0.1116135E+000  0.2612716E+03  0.7546771E-02  0.1106382E+00
         21   -1    0    0  501  502  0.00000000000E+00  0.00000000000E+00  0.32268800285E+03  0.32268800285E+03  0.00000000000E+00 0. -1.
         21   -1    0    0  502  503 -0.00000000000E+00 -0.00000000000E+00 -0.21208662524E+03  0.21208662524E+03  0.00000000000E+00 0. -1.
          6    1    1    2  501    0  0.17529234012E+03 -0.89170976812E+02  0.41781840591E+02  0.26459136383E+03  0.17200000000E+03 0. -1.
         -6    1    1    2    0  503 -0.17529234012E+03  0.89170976812E+02  0.68819537014E+02  0.27018326426E+03  0.17200000000E+03 0. -1.
<mgrwt>
<rscale>  2 0.26127164E+03</rscale>
<asrwt>0</asrwt>
<pdfrwt beam="1">  1       21 0.80672000E-01 0.26127164E+03</pdfrwt>
<pdfrwt beam="2">  1       21 0.53021657E-01 0.26127164E+03</pdfrwt>
<totfact> 0.43335943E+03</totfact>
</mgrwt>
</event>
<event>
 4    1  0.1116135E+000  0.1987895E+03  0.7546771E-02  0.1150764E+00
         21   -1    0    0  501  502  0.00000000000E+00  0.00000000000E+00  0.53209959081E+02  0.53209959081E+02  0.00000000000E+00 0.  1.
         21   -1    0    0  502  503 -0.00000000000E+00 -0.00000000000E+00 -0.74451899218E+03  0.74451899218E+03  0.00000000000E+00 0.  1.
          6    1    1    2  501    0  0.80377328747E+02 -0.58930187866E+02 -0.32576134196E+03  0.38162512225E+03  0.17200000000E+03 0.  1.
         -6    1    1    2    0  503 -0.80377328747E+02  0.58930187866E+02 -0.36554769115E+03  0.41610382901E+03  0.17200000000E+03 0.  1.
<mgrwt>
<rscale>  2 0.19878954E+03</rscale>
<asrwt>0</asrwt>
<pdfrwt beam="1">  1       21 0.13302490E-01 0.19878954E+03</pdfrwt>
<pdfrwt beam="2">  1       21 0.18612975E+00 0.19878954E+03</pdfrwt>
<totfact> 0.80273324E+03</totfact>
</mgrwt>
</event>
<event>
 4    1  0.1116135E+000  0.1821863E+03  0.7546771E-02  0.1165704E+00
         21   -1    0    0  501  502  0.00000000000E+00  0.00000000000E+00  0.17331225868E+03  0.17331225868E+03  0.00000000000E+00 0.  1.
         21   -1    0    0  502  503 -0.00000000000E+00 -0.00000000000E+00 -0.20550999671E+03  0.20550999671E+03  0.00000000000E+00 0.  1.
          6    1    1    2  501    0 -0.40883794898E+02 -0.44004103047E+02  0.33329925637E+02  0.18520996116E+03  0.17200000000E+03 0.  1.
         -6    1    1    2    0  503  0.40883794898E+02  0.44004103047E+02 -0.65527663672E+02  0.19361229423E+03  0.17200000000E+03 0.  1.
<mgrwt>
<rscale>  2 0.18218629E+03</rscale>
<asrwt>0</asrwt>
<pdfrwt beam="1">  1       21 0.43328065E-01 0.18218629E+03</pdfrwt>
<pdfrwt beam="2">  1       21 0.51377499E-01 0.18218629E+03</pdfrwt>
<totfact> 0.18552086E+04</totfact>
</mgrwt>
</event>
<event>
 4    1  0.1116135E+000  0.2025569E+03  0.7546771E-02  0.1147600E+00
         21   -1    0    0  503  502  0.00000000000E+00  0.00000000000E+00  0.52831422486E+03  0.52831422486E+03  0.00000000000E+00 0.  1.
         21   -1    0    0  501  503 -0.00000000000E+00 -0.00000000000E+00 -0.10277425339E+03  0.10277425339E+03  0.00000000000E+00 0.  1.
          6    1    1    2  501    0  0.94873686165E+02 -0.49439679714E+02  0.56789084511E+02  0.21036705630E+03  0.17200000000E+03 0.  1.
         -6    1    1    2    0  502 -0.94873686165E+02  0.49439679714E+02  0.36875088696E+03  0.42072142195E+03  0.17200000000E+03 0.  1.
<mgrwt>
<rscale>  2 0.20255690E+03</rscale>
<asrwt>0</asrwt>
<pdfrwt beam="1">  1       21 0.13207855E+00 0.20255690E+03</pdfrwt>
<pdfrwt beam="2">  1       21 0.25693565E-01 0.20255690E+03</pdfrwt>
<totfact> 0.59224010E+03</totfact>
</mgrwt>
</event>
<event>
 4    1  0.1116135E+000  0.3370285E+03  0.7546771E-02  0.1068069E+00
         21   -1    0    0  501  502  0.00000000000E+00  0.00000000000E+00  0.25908594065E+03  0.25908594065E+03  0.00000000000E+00 0. -1.
         21   -1    0    0  502  503 -0.00000000000E+00 -0.00000000000E+00 -0.12721912318E+04  0.12721912318E+04  0.00000000000E+00 0.  1.
          6    1    1    2  501    0  0.15867687759E+03  0.24254043919E+03  0.11327552418E+03  0.35555528473E+03  0.17200000000E+03 0. -1.
         -6    1    1    2    0  503 -0.15867687759E+03 -0.24254043919E+03 -0.11263808153E+04  0.11757218877E+04  0.17200000000E+03 0.  1.
<mgrwt>
<rscale>  2 0.33702851E+03</rscale>
<asrwt>0</asrwt>
<pdfrwt beam="1">  1       21 0.64771487E-01 0.33702851E+03</pdfrwt>
<pdfrwt beam="2">  1       21 0.31804780E+00 0.33702851E+03</pdfrwt>
<totfact> 0.48914452E+01</totfact>
</mgrwt>
</event>
<event>
 4    1  0.1116135E+000  0.2008821E+03  0.7546771E-02  0.1148997E+00
         21   -1    0    0  503  502  0.00000000000E+00  0.00000000000E+00  0.84684487103E+02  0.84684487103E+02  0.00000000000E+00 0. -1.
         21   -1    0    0  501  503 -0.00000000000E+00 -0.00000000000E+00 -0.54274702904E+03  0.54274702904E+03  0.00000000000E+00 0. -1.
          6    1    1    2  501    0 -0.65634419762E+02 -0.80384908484E+02 -0.33861967007E+03  0.39372184538E+03  0.17200000000E+03 0. -1.
         -6    1    1    2    0  502  0.65634419762E+02  0.80384908484E+02 -0.11944287187E+03  0.23370967076E+03  0.17200000000E+03 0. -1.
<mgrwt>
<rscale>  2 0.20088208E+03</rscale>
<asrwt>0</asrwt>
<pdfrwt beam="1">  1       21 0.21171122E-01 0.20088208E+03</pdfrwt>
<pdfrwt beam="2">  1       21 0.13568676E+00 0.20088208E+03</pdfrwt>
<totfact> 0.79959690E+03</totfact>
</mgrwt>
</event>
<event>
 4    1  0.1116135E+000  0.1768716E+03  0.7546771E-02  0.1170866E+00
         21   -1    0    0  503  502  0.00000000000E+00  0.00000000000E+00  0.42381719398E+02  0.42381719398E+02  0.00000000000E+00 0. -1.
         21   -1    0    0  501  503 -0.00000000000E+00 -0.00000000000E+00 -0.81188095846E+03  0.81188095846E+03  0.00000000000E+00 0. -1.
          6    1    1    2  501    0  0.38158737836E+02  0.15603227535E+02 -0.51347852197E+03  0.54308723287E+03  0.17200000000E+03 0. -1.
         -6    1    1    2    0  502 -0.38158737836E+02 -0.15603227535E+02 -0.25602071709E+03  0.31117544499E+03  0.17200000000E+03 0. -1.
<mgrwt>
<rscale>  2 0.17687156E+03</rscale>
<asrwt>0</asrwt>
<pdfrwt beam="1">  1       21 0.10595430E-01 0.17687156E+03</pdfrwt>
<pdfrwt beam="2">  1       21 0.20297023E+00 0.17687156E+03</pdfrwt>
<totfact> 0.95456682E+03</totfact>
</mgrwt>
</event>
<event>
 4    1  0.1116135E+000  0.2809308E+03  0.7546771E-02  0.1095182E+00
         21   -1    0    0  501  502  0.00000000000E+00  0.00000000000E+00  0.10951714243E+03  0.10951714243E+03  0.00000000000E+00 0. -1.
         21   -1    0    0  502  503 -0.00000000000E+00 -0.00000000000E+00 -0.13438128867E+04  0.13438128867E+04  0.00000000000E+00 0.  1.
          6    1    1    2  501    0  0.14607276368E+03 -0.16733452048E+03 -0.12230171077E+03  0.30639811111E+03  0.17200000000E+03 0. -1.
         -6    1    1    2    0  503 -0.14607276368E+03  0.16733452048E+03 -0.11119940335E+04  0.11469319180E+04  0.17200000000E+03 0.  1.
<mgrwt>
<rscale>  2 0.28093076E+03</rscale>
<asrwt>0</asrwt>
<pdfrwt beam="1">  1       21 0.27379286E-01 0.28093076E+03</pdfrwt>
<pdfrwt beam="2">  1       21 0.33595322E+00 0.28093076E+03</pdfrwt>
<totfact> 0.23945061E+02</totfact>
</mgrwt>
</event>
<event>
 4    1  0.1116135E+000  0.1873640E+03  0.7546771E-02  0.1160861E+00
         21   -1    0    0  501  502  0.00000000000E+00  0.00000000000E+00  0.20405298971E+03  0.20405298971E+03  0.00000000000E+00 0.  1.
         21   -1    0    0  502  503 -0.00000000000E+00 -0.00000000000E+00 -0.18576129385E+03  0.18576129385E+03  0.00000000000E+00 0.  1.
          6    1    1    2  501    0 -0.61639253728E+02  0.41495267762E+02  0.62118210066E+02  0.19739282375E+03  0.17200000000E+03 0.  1.
         -6    1    1    2    0  503  0.61639253728E+02 -0.41495267762E+02 -0.43826514209E+02  0.19242145981E+03  0.17200000000E+03 0.  1.
<mgrwt>
<rscale>  2 0.18736396E+03</rscale>
<asrwt>0</asrwt>
<pdfrwt beam="1">  1       21 0.51013247E-01 0.18736396E+03</pdfrwt>
<pdfrwt beam="2">  1       21 0.46440323E-01 0.18736396E+03</pdfrwt>
<totfact> 0.16281527E+04</totfact>
</mgrwt>
</event>
<event>
 4    1  0.1116135E+000  0.1996097E+03  0.7546771E-02  0.1150069E+00
         21   -1    0    0  501  502  0.00000000000E+00  0.00000000000E+00  0.71859561262E+03  0.71859561262E+03  0.00000000000E+00 0. -1.
         21   -1    0    0  502  503 -0.00000000000E+00 -0.00000000000E+00 -0.66158028890E+02  0.66158028890E+02  0.00000000000E+00 0.  1.
          6    1    1    2  501    0 -0.39023852462E+02 -0.93472824042E+02  0.48409838451E+03  0.52363658751E+03  0.17200000000E+03 0. -1.
         -6    1    1    2    0  503  0.39023852462E+02  0.93472824042E+02  0.16833919922E+03  0.26111705400E+03  0.17200000000E+03 0.  1.
<mgrwt>
<rscale>  2 0.19960969E+03</rscale>
<asrwt>0</asrwt>
<pdfrwt beam="1">  1       21 0.17964888E+00 0.19960969E+03</pdfrwt>
<pdfrwt beam="2">  1       21 0.16539509E-01 0.19960969E+03</pdfrwt>
<totfact> 0.59673696E+03</totfact>
</mgrwt>
</event>
<event>
 4    1  0.1116135E+000  0.1754496E+03  0.7546771E-02  0.1172281E+00
         21   -1    0    0  503  502  0.00000000000E+00  0.00000000000E+00  0.76390467347E+02  0.76390467347E+02  0.00000000000E+00 0.  1.
         21   -1    0    0  501  503 -0.00000000000E+00 -0.00000000000E+00 -0.40709010459E+03  0.40709010459E+03  0.00000000000E+00 0.  1.
          6    1    1    2  501    0 -0.34476569154E+02 -0.31504918885E+01 -0.14101054930E+03  0.22509227982E+03  0.17200000000E+03 0. -1.
         -6    1    1    2    0  502  0.34476569154E+02  0.31504918885E+01 -0.18968908794E+03  0.25838829212E+03  0.17200000000E+03 0. -1.
<mgrwt>
<rscale>  2 0.17544959E+03</rscale>
<asrwt>0</asrwt>
<pdfrwt beam="1">  1       21 0.19097617E-01 0.17544959E+03</pdfrwt>
<pdfrwt beam="2">  1       21 0.10177253E+00 0.17544959E+03</pdfrwt>
<totfact> 0.20021549E+04</totfact>
</mgrwt>
</event>
<event>
 4    1  0.1116135E+000  0.2097816E+03  0.7546771E-02  0.1141739E+00
         21   -1    0    0  501  502  0.00000000000E+00  0.00000000000E+00  0.51166857929E+03  0.51166857929E+03  0.00000000000E+00 0.  1.
         21   -1    0    0  502  503 -0.00000000000E+00 -0.00000000000E+00 -0.53919531895E+03  0.53919531895E+03  0.00000000000E+00 0.  1.
          6    1    1    2  501    0  0.10644858248E+02  0.11962869760E+03  0.46794211901E+03  0.51281396728E+03  0.17200000000E+03 0.  1.
         -6    1    1    2    0  503 -0.10644858248E+02 -0.11962869760E+03 -0.49546885867E+03  0.53804993096E+03  0.17200000000E+03 0.  1.
<mgrwt>
<rscale>  2 0.20978164E+03</rscale>
<asrwt>0</asrwt>
<pdfrwt beam="1">  1       21 0.12791715E+00 0.20978164E+03</pdfrwt>
<pdfrwt beam="2">  1       21 0.13479883E+00 0.20978164E+03</pdfrwt>
<totfact> 0.17374845E+02</totfact>
</mgrwt>
</event>
<event>
 4    1  0.1116135E+000  0.1943472E+03  0.7546771E-02  0.1154598E+00
         21   -1    0    0  503  502  0.00000000000E+00  0.00000000000E+00  0.39910544042E+02  0.39910544042E+02  0.00000000000E+00 0. -1.
         21   -1    0    0  501  503 -0.00000000000E+00 -0.00000000000E+00 -0.94643644740E+03  0.94643644740E+03  0.00000000000E+00 0. -1.
          6    1    1    2  501    0  0.31847584549E+02 -0.84691114497E+02 -0.45679731463E+03  0.49642183692E+03  0.17200000000E+03 0. -1.
         -6    1    1    2    0  502 -0.31847584549E+02  0.84691114497E+02 -0.44972858873E+03  0.48992515452E+03  0.17200000000E+03 0. -1.
<mgrwt>
<rscale>  2 0.19434725E+03</rscale>
<asrwt>0</asrwt>
<pdfrwt beam="1">  1       21 0.99776357E-02 0.19434725E+03</pdfrwt>
<pdfrwt beam="2">  1       21 0.23660912E+00 0.19434725E+03</pdfrwt>
<totfact> 0.64917237E+03</totfact>
</mgrwt>
</event>
<event>
 4    1  0.1116135E+000  0.1869520E+03  0.7546771E-02  0.1161240E+00
         21   -1    0    0  501  502  0.00000000000E+00  0.00000000000E+00  0.58885597876E+02  0.58885597876E+02  0.00000000000E+00 0.  1.
         21   -1    0    0  502  503 -0.00000000000E+00 -0.00000000000E+00 -0.77103624773E+03  0.77103624773E+03  0.00000000000E+00 0.  1.
          6    1    1    2  501    0  0.28013325188E+02  0.67692687002E+02 -0.15697931672E+03  0.24411790623E+03  0.17200000000E+03 0.  1.
         -6    1    1    2    0  503 -0.28013325188E+02 -0.67692687002E+02 -0.55517133314E+03  0.58580393938E+03  0.17200000000E+03 0.  1.
<mgrwt>
<rscale>  2 0.18695199E+03</rscale>
<asrwt>0</asrwt>
<pdfrwt beam="1">  1       21 0.14721400E-01 0.18695199E+03</pdfrwt>
<pdfrwt beam="2">  1       21 0.19275906E+00 0.18695199E+03</pdfrwt>
<totfact> 0.61032480E+03</totfact>
</mgrwt>
</event>
<event>
 4    1  0.1116135E+000  0.1903247E+03  0.7546771E-02  0.1158169E+00
         21   -1    0    0  503  502  0.00000000000E+00  0.00000000000E+00  0.36798197119E+02  0.36798197119E+02  0.00000000000E+00 0.  1.
         21   -1    0    0  501  503 -0.00000000000E+00 -0.00000000000E+00 -0.15217245516E+04  0.15217245516E+04  0.00000000000E+00 0.  1.
          6    1    1    2  501    0  0.38925560417E+02 -0.71584285583E+02 -0.12055265748E+04  0.12204580418E+04  0.17200000000E+03 0.  1.
         -6    1    1    2    0  502 -0.38925560417E+02  0.71584285583E+02 -0.27939977972E+03  0.33806470698E+03  0.17200000000E+03 0.  1.
<mgrwt>
<rscale>  2 0.19032475E+03</rscale>
<asrwt>0</asrwt>
<pdfrwt beam="1">  1       21 0.91995495E-02 0.19032475E+03</pdfrwt>
<pdfrwt beam="2">  1       21 0.38043113E+00 0.19032475E+03</pdfrwt>
<totfact> 0.10842177E+03</totfact>
</mgrwt>
</event>
<event>
 4    1  0.1116135E+000  0.1853156E+03  0.7546771E-02  0.1162756E+00
         21   -1    0    0  501  502  0.00000000000E+00  0.00000000000E+00  0.60802854081E+02  0.60802854081E+02  0.00000000000E+00 0.  1.
         21   -1    0    0  502  503 -0.00000000000E+00 -0.00000000000E+00 -0.56619782543E+03  0.56619782543E+03  0.00000000000E+00 0.  1.
          6    1    1    2  501    0 -0.62126631773E+02  0.29969063686E+02 -0.26823663835E+03  0.32602570038E+03  0.17200000000E+03 0.  1.
         -6    1    1    2    0  503  0.62126631773E+02 -0.29969063686E+02 -0.23715833301E+03  0.30097497914E+03  0.17200000000E+03 0.  1.
<mgrwt>
<rscale>  2 0.18531558E+03</rscale>
<asrwt>0</asrwt>
<pdfrwt beam="1">  1       21 0.15200714E-01 0.18531558E+03</pdfrwt>
<pdfrwt beam="2">  1       21 0.14154946E+00 0.18531558E+03</pdfrwt>
<totfact> 0.13386036E+04</totfact>
</mgrwt>
</event>
<event>
 4    1  0.1116135E+000  0.1933105E+03  0.7546771E-02  0.1155509E+00
         21   -1    0    0  501  502  0.00000000000E+00  0.00000000000E+00  0.35206086447E+03  0.35206086447E+03  0.00000000000E+00 0.  1.
         21   -1    0    0  502  503 -0.00000000000E+00 -0.00000000000E+00 -0.11159556833E+03  0.11159556833E+03  0.00000000000E+00 0.  1.
          6    1    1    2  501    0 -0.63573717319E+02 -0.61182813981E+02  0.17147458213E+03  0.25840372787E+03  0.17200000000E+03 0.  1.
         -6    1    1    2    0  503  0.63573717319E+02  0.61182813981E+02  0.68990714003E+02  0.20525270493E+03  0.17200000000E+03 0.  1.
<mgrwt>
<rscale>  2 0.19331051E+03</rscale>
<asrwt>0</asrwt>
<pdfrwt beam="1">  1       21 0.88015213E-01 0.19331051E+03</pdfrwt>
<pdfrwt beam="2">  1       21 0.27898893E-01 0.19331051E+03</pdfrwt>
<totfact> 0.13565797E+04</totfact>
</mgrwt>
</event>
<event>
 4    1  0.1116135E+000  0.1902377E+03  0.7546771E-02  0.1158247E+00
         21   -1    0    0  503  502  0.00000000000E+00  0.00000000000E+00  0.27412086580E+03  0.27412086580E+03  0.00000000000E+00 0. -1.
         21   -1    0    0  501  503 -0.00000000000E+00 -0.00000000000E+00 -0.21826188577E+03  0.21826188577E+03  0.00000000000E+00 0. -1.
          6    1    1    2  501    0  0.47913905310E+02  0.65655447022E+02 -0.12682182236E+03  0.22863541867E+03  0.17200000000E+03 0. -1.
         -6    1    1    2    0  502 -0.47913905310E+02 -0.65655447022E+02  0.18268080240E+03  0.26374733290E+03  0.17200000000E+03 0. -1.
<mgrwt>
<rscale>  2 0.19023769E+03</rscale>
<asrwt>0</asrwt>
<pdfrwt beam="1">  1       21 0.68530216E-01 0.19023769E+03</pdfrwt>
<pdfrwt beam="2">  1       21 0.54565472E-01 0.19023769E+03</pdfrwt>
<totfact> 0.61696603E+03</totfact>
</mgrwt>
</event>
<event>
 4    1  0.1116135E+000  0.1868781E+03  0.7546771E-02  0.1161308E+00
         21   -1    0    0  503  502  0.00000000000E+00  0.00000000000E+00  0.23335896146E+03  0.23335896146E+03  0.00000000000E+00 0. -1.
         21   -1    0    0  501  503 -0.00000000000E+00 -0.00000000000E+00 -0.17536194481E+03  0.17536194481E+03  0.00000000000E+00 0. -1.
          6    1    1    2  501    0 -0.25146499721E+02 -0.68608084802E+02 -0.49245574432E+02  0.19325770968E+03  0.17200000000E+03 0. -1.
         -6    1    1    2    0  502  0.25146499721E+02  0.68608084802E+02  0.10724259108E+03  0.21546319660E+03  0.17200000000E+03 0. -1.
<mgrwt>
<rscale>  2 0.18687808E+03</rscale>
<asrwt>0</asrwt>
<pdfrwt beam="1">  1       21 0.58339740E-01 0.18687808E+03</pdfrwt>
<pdfrwt beam="2">  1       21 0.43840486E-01 0.18687808E+03</pdfrwt>
<totfact> 0.13807505E+04</totfact>
</mgrwt>
</event>
<event>
 4    1  0.1116135E+000  0.1725025E+03  0.7546771E-02  0.1175263E+00
         21   -1    0    0  503  502  0.00000000000E+00  0.00000000000E+00  0.73568076610E+02  0.73568076610E+02  0.00000000000E+00 0. -1.
         21   -1    0    0  501  503 -0.00000000000E+00 -0.00000000000E+00 -0.45872479130E+03  0.45872479130E+03  0.00000000000E+00 0. -1.
          6    1    1    2  501    0  0.79345253894E+01 -0.10494901216E+02 -0.28409669269E+03  0.33236731254E+03  0.17200000000E+03 0. -1.
         -6    1    1    2    0  502 -0.79345253894E+01  0.10494901216E+02 -0.10106002200E+03  0.19992555537E+03  0.17200000000E+03 0. -1.
<mgrwt>
<rscale>  2 0.17250246E+03</rscale>
<asrwt>0</asrwt>
<pdfrwt beam="1">  1       21 0.18392019E-01 0.17250246E+03</pdfrwt>
<pdfrwt beam="2">  1       21 0.11468120E+00 0.17250246E+03</pdfrwt>
<totfact> 0.16140873E+04</totfact>
</mgrwt>
</event>
<event>
 4    1  0.1116135E+000  0.2531448E+03  0.7546771E-02  0.1111333E+00
         21   -1    0    0  503  502  0.00000000000E+00  0.00000000000E+00  0.47951116783E+03  0.47951116783E+03  0.00000000000E+00 0. -1.
         21   -1    0    0  501  503 -0.00000000000E+00 -0.00000000000E+00 -0.13537632463E+03  0.13537632463E+03  0.00000000000E+00 0.  1.
          6    1    1    2  501    0 -0.18432435984E+03 -0.22864717176E+02  0.20687769117E+03  0.32692605284E+03  0.17200000000E+03 0. -1.
         -6    1    1    2    0  502  0.18432435984E+03  0.22864717176E+02  0.13725715203E+03  0.28796143962E+03  0.17200000000E+03 0.  1.
<mgrwt>
<rscale>  2 0.25314475E+03</rscale>
<asrwt>0</asrwt>
<pdfrwt beam="1">  1       21 0.11987779E+00 0.25314475E+03</pdfrwt>
<pdfrwt beam="2">  1       21 0.33844082E-01 0.25314475E+03</pdfrwt>
<totfact> 0.42582137E+03</totfact>
</mgrwt>
</event>
<event>
 4    1  0.1116135E+000  0.1939864E+03  0.7546771E-02  0.1154914E+00
         21   -1    0    0  501  502  0.00000000000E+00  0.00000000000E+00  0.53066273920E+03  0.53066273920E+03  0.00000000000E+00 0.  1.
         21   -1    0    0  502  503 -0.00000000000E+00 -0.00000000000E+00 -0.20144433312E+03  0.20144433312E+03  0.00000000000E+00 0.  1.
          6    1    1    2  501    0  0.89702785338E+02  0.37801192442E+00  0.45927175753E+03  0.49855920396E+03  0.17200000000E+03 0.  1.
         -6    1    1    2    0  503 -0.89702785338E+02 -0.37801192442E+00 -0.13005335145E+03  0.23354786835E+03  0.17200000000E+03 0.  1.
<mgrwt>
<rscale>  2 0.19398642E+03</rscale>
<asrwt>0</asrwt>
<pdfrwt beam="1">  1       21 0.13266568E+00 0.19398642E+03</pdfrwt>
<pdfrwt beam="2">  1       21 0.50361084E-01 0.19398642E+03</pdfrwt>
<totfact> 0.15394170E+03</totfact>
</mgrwt>
</event>
<event>
 4    1  0.1116135E+000  0.1993972E+03  0.7546771E-02  0.1150249E+00
         21   -1    0    0  503  502  0.00000000000E+00  0.00000000000E+00  0.16937992168E+04  0.16937992168E+04  0.00000000000E+00 0. -1.
         21   -1    0    0  501  503 -0.00000000000E+00 -0.00000000000E+00 -0.24013150246E+02  0.24013150246E+02  0.00000000000E+00 0. -1.
          6    1    1    2  501    0  0.41655474811E+02  0.91869901176E+02  0.70612434493E+03  0.73373758785E+03  0.17200000000E+03 0. -1.
         -6    1    1    2    0  502 -0.41655474811E+02 -0.91869901176E+02  0.96366172168E+03  0.98407477925E+03  0.17200000000E+03 0. -1.
<mgrwt>
<rscale>  2 0.19939723E+03</rscale>
<asrwt>0</asrwt>
<pdfrwt beam="1">  1       21 0.42344940E+00 0.19939723E+03</pdfrwt>
<pdfrwt beam="2">  1       21 0.60032933E-02 0.19939723E+03</pdfrwt>
<totfact> 0.12081796E+03</totfact>
</mgrwt>
</event>
<event>
 4    1  0.1116135E+000  0.2071341E+03  0.7546771E-02  0.1143856E+00
         21   -1    0    0  501  502  0.00000000000E+00  0.00000000000E+00  0.27518594783E+03  0.27518594783E+03  0.00000000000E+00 0.  1.
         21   -1    0    0  502  503 -0.00000000000E+00 -0.00000000000E+00 -0.10690785557E+04  0.10690785557E+04  0.00000000000E+00 0.  1.
          6    1    1    2  501    0  0.11411050964E+03 -0.17300957262E+02  0.22424468811E+03  0.30527071867E+03  0.17200000000E+03 0.  1.
         -6    1    1    2    0  503 -0.11411050964E+03  0.17300957262E+02 -0.10181372959E+04  0.10389937848E+04  0.17200000000E+03 0.  1.
<mgrwt>
<rscale>  2 0.20713409E+03</rscale>
<asrwt>0</asrwt>
<pdfrwt beam="1">  1       21 0.68796487E-01 0.20713409E+03</pdfrwt>
<pdfrwt beam="2">  1       21 0.26726964E+00 0.20713409E+03</pdfrwt>
<totfact> 0.99276577E+01</totfact>
</mgrwt>
</event>
<event>
 4    1  0.1116135E+000  0.2230868E+03  0.7546771E-02  0.1131602E+00
         21   -1    0    0  503  502  0.00000000000E+00  0.00000000000E+00  0.17189105439E+03  0.17189105439E+03  0.00000000000E+00 0.  1.
         21   -1    0    0  501  503 -0.00000000000E+00 -0.00000000000E+00 -0.34293704769E+03  0.34293704769E+03  0.00000000000E+00 0. -1.
          6    1    1    2  501    0 -0.14163032472E+03 -0.11161528888E+02  0.16060157143E+02  0.22366416176E+03  0.17200000000E+03 0.  1.
         -6    1    1    2    0  502  0.14163032472E+03  0.11161528888E+02 -0.18710615045E+03  0.29116394032E+03  0.17200000000E+03 0.  1.
<mgrwt>
<rscale>  2 0.22308682E+03</rscale>
<asrwt>0</asrwt>
<pdfrwt beam="1">  1       21 0.42972764E-01 0.22308682E+03</pdfrwt>
<pdfrwt beam="2">  1       21 0.85734261E-01 0.22308682E+03</pdfrwt>
<totfact> 0.59838385E+03</totfact>
</mgrwt>
</event>
<event>
 4    1  0.1116135E+000  0.1770579E+03  0.7546771E-02  0.1170681E+00
         21   -1    0    0  503  502  0.00000000000E+00  0.00000000000E+00  0.48392280435E+03  0.48392280435E+03  0.00000000000E+00 0. -1.
         21   -1    0    0  501  503 -0.00000000000E+00 -0.00000000000E+00 -0.26156195474E+03  0.26156195474E+03  0.00000000000E+00 0. -1.
          6    1    1    2  501    0 -0.41720337880E+02 -0.49915247455E+01 -0.21212417281E+03  0.27630810086E+03  0.17200000000E+03 0. -1.
         -6    1    1    2    0  502  0.41720337880E+02  0.49915247455E+01  0.43448502242E+03  0.46917665822E+03  0.17200000000E+03 0. -1.
<mgrwt>
<rscale>  2 0.17705791E+03</rscale>
<asrwt>0</asrwt>
<pdfrwt beam="1">  1       21 0.12098070E+00 0.17705791E+03</pdfrwt>
<pdfrwt beam="2">  1       21 0.65390489E-01 0.17705791E+03</pdfrwt>
<totfact> 0.11315233E+03</totfact>
</mgrwt>
</event>
<event>
 4    1  0.1116135E+000  0.2184197E+03  0.7546771E-02  0.1135067E+00
         21   -1    0    0  501  502  0.00000000000E+00  0.00000000000E+00  0.10371890665E+03  0.10371890665E+03  0.00000000000E+00 0. -1.
         21   -1    0    0  502  503 -0.00000000000E+00 -0.00000000000E+00 -0.48021871684E+03  0.48021871684E+03  0.00000000000E+00 0.  1.
          6    1    1    2  501    0 -0.13404151268E+03 -0.12491412509E+02 -0.12829021158E+03  0.25330918044E+03  0.17200000000E+03 0. -1.
         -6    1    1    2    0  503  0.13404151268E+03  0.12491412509E+02 -0.24820959861E+03  0.33062844304E+03  0.17200000000E+03 0. -1.
<mgrwt>
<rscale>  2 0.21841969E+03</rscale>
<asrwt>0</asrwt>
<pdfrwt beam="1">  1       21 0.25929727E-01 0.21841969E+03</pdfrwt>
<pdfrwt beam="2">  1       21 0.12005468E+00 0.21841969E+03</pdfrwt>
<totfact> 0.73108887E+03</totfact>
</mgrwt>
</event>
<event>
 4    1  0.1116135E+000  0.1850401E+03  0.7546771E-02  0.1163012E+00
         21   -1    0    0  503  502  0.00000000000E+00  0.00000000000E+00  0.54331117329E+02  0.54331117329E+02  0.00000000000E+00 0.  1.
         21   -1    0    0  501  503 -0.00000000000E+00 -0.00000000000E+00 -0.63071140231E+03  0.63071140231E+03  0.00000000000E+00 0.  1.
          6    1    1    2  501    0 -0.28977203194E+02 -0.61775131028E+02 -0.29787744887E+03  0.35067195449E+03  0.17200000000E+03 0.  1.
         -6    1    1    2    0  502  0.28977203194E+02  0.61775131028E+02 -0.27850283611E+03  0.33437056515E+03  0.17200000000E+03 0.  1.
<mgrwt>
<rscale>  2 0.18504012E+03</rscale>
<asrwt>0</asrwt>
<pdfrwt beam="1">  1       21 0.13582780E-01 0.18504012E+03</pdfrwt>
<pdfrwt beam="2">  1       21 0.15767785E+00 0.18504012E+03</pdfrwt>
<totfact> 0.12365223E+04</totfact>
</mgrwt>
</event>
<event>
 4    1  0.1116135E+000  0.2422975E+03  0.7546771E-02  0.1118272E+00
         21   -1    0    0  503  502  0.00000000000E+00  0.00000000000E+00  0.97117833250E+02  0.97117833250E+02  0.00000000000E+00 0. -1.
         21   -1    0    0  501  503 -0.00000000000E+00 -0.00000000000E+00 -0.60530321152E+03  0.60530321152E+03  0.00000000000E+00 0.  1.
          6    1    1    2  501    0 -0.77064522374E+02  0.15226665350E+03 -0.26685812896E+03  0.36044602282E+03  0.17200000000E+03 0. -1.
         -6    1    1    2    0  502  0.77064522374E+02 -0.15226665350E+03 -0.24132724931E+03  0.34197502194E+03  0.17200000000E+03 0.  1.
<mgrwt>
<rscale>  2 0.24229749E+03</rscale>
<asrwt>0</asrwt>
<pdfrwt beam="1">  1       21 0.24279458E-01 0.24229749E+03</pdfrwt>
<pdfrwt beam="2">  1       21 0.15132580E+00 0.24229749E+03</pdfrwt>
<totfact> 0.44986902E+03</totfact>
</mgrwt>
</event>
<event>
 4    1  0.1116135E+000  0.2900173E+03  0.7546771E-02  0.1090340E+00
         21   -1    0    0  501  502  0.00000000000E+00  0.00000000000E+00  0.16321369413E+04  0.16321369413E+04  0.00000000000E+00 0. -1.
         21   -1    0    0  502  503 -0.00000000000E+00 -0.00000000000E+00 -0.10582052838E+03  0.10582052838E+03  0.00000000000E+00 0.  1.
          6    1    1    2  501    0 -0.23154160061E+03 -0.30241080614E+02  0.13855609079E+04  0.14155878868E+04  0.17200000000E+03 0. -1.
         -6    1    1    2    0  503  0.23154160061E+03  0.30241080614E+02  0.14075550504E+03  0.32236958289E+03  0.17200000000E+03 0.  1.
<mgrwt>
<rscale>  2 0.29001730E+03</rscale>
<asrwt>0</asrwt>
<pdfrwt beam="1">  1       21 0.40803415E+00 0.29001730E+03</pdfrwt>
<pdfrwt beam="2">  1       21 0.26455137E-01 0.29001730E+03</pdfrwt>
<totfact> 0.91386904E+01</totfact>
</mgrwt>
</event>
<event>
 4    1  0.1116135E+000  0.1729541E+03  0.7546771E-02  0.1174802E+00
         21   -1    0    0  501  502  0.00000000000E+00  0.00000000000E+00  0.89473448718E+02  0.89473448718E+02  0.00000000000E+00 0. -1.
         21   -1    0    0  502  503 -0.00000000000E+00 -0.00000000000E+00 -0.33829578242E+03  0.33829578242E+03  0.00000000000E+00 0. -1.
          6    1    1    2  501    0  0.16011752121E+02 -0.85295671323E+01 -0.10123621633E+03  0.20040434431E+03  0.17200000000E+03 0. -1.
         -6    1    1    2    0  503 -0.16011752121E+02  0.85295671323E+01 -0.14758611737E+03  0.22736488683E+03  0.17200000000E+03 0. -1.
<mgrwt>
<rscale>  2 0.17295413E+03</rscale>
<asrwt>0</asrwt>
<pdfrwt beam="1">  1       21 0.22368363E-01 0.17295413E+03</pdfrwt>
<pdfrwt beam="2">  1       21 0.84573944E-01 0.17295413E+03</pdfrwt>
<totfact> 0.22945113E+04</totfact>
</mgrwt>
</event>
<event>
 4    1  0.1116135E+000  0.2646215E+03  0.7546771E-02  0.1104398E+00
         21   -1    0    0  503  502  0.00000000000E+00  0.00000000000E+00  0.25375622263E+03  0.25375622263E+03  0.00000000000E+00 0.  1.
         21   -1    0    0  501  503 -0.00000000000E+00 -0.00000000000E+00 -0.27810261624E+03  0.27810261624E+03  0.00000000000E+00 0. -1.
          6    1    1    2  501    0 -0.44547055807E+02 -0.19610222789E+03 -0.35558906461E+02  0.26699992471E+03  0.17200000000E+03 0. -1.
         -6    1    1    2    0  502  0.44547055807E+02  0.19610222789E+03  0.11212512845E+02  0.26485891416E+03  0.17200000000E+03 0.  1.
<mgrwt>
<rscale>  2 0.26462147E+03</rscale>
<asrwt>0</asrwt>
<pdfrwt beam="1">  1       21 0.63439056E-01 0.26462147E+03</pdfrwt>
<pdfrwt beam="2">  1       21 0.69525654E-01 0.26462147E+03</pdfrwt>
<totfact> 0.41086526E+03</totfact>
</mgrwt>
</event>
<event>
 4    1  0.1116135E+000  0.1816147E+03  0.7546771E-02  0.1166249E+00
         21   -1    0    0  501  502  0.00000000000E+00  0.00000000000E+00  0.12808622766E+03  0.12808622766E+03  0.00000000000E+00 0.  1.
         21   -1    0    0  502  503 -0.00000000000E+00 -0.00000000000E+00 -0.37081649298E+03  0.37081649298E+03  0.00000000000E+00 0.  1.
          6    1    1    2  501    0 -0.25179770271E+02  0.52591628380E+02  0.16523204422E+02  0.18236478961E+03  0.17200000000E+03 0.  1.
         -6    1    1    2    0  503  0.25179770271E+02 -0.52591628380E+02 -0.25925346974E+03  0.31653793103E+03  0.17200000000E+03 0.  1.
<mgrwt>
<rscale>  2 0.18161470E+03</rscale>
<asrwt>0</asrwt>
<pdfrwt beam="1">  1       21 0.32021557E-01 0.18161470E+03</pdfrwt>
<pdfrwt beam="2">  1       21 0.92704123E-01 0.18161470E+03</pdfrwt>
<totfact> 0.92726651E+03</totfact>
</mgrwt>
</event>
<event>
 4    1  0.1116135E+000  0.1799931E+03  0.7546771E-02  0.1167810E+00
         21   -1    0    0  501  502  0.00000000000E+00  0.00000000000E+00  0.38040138718E+03  0.38040138718E+03  0.00000000000E+00 0.  1.
         21   -1    0    0  502  503 -0.00000000000E+00 -0.00000000000E+00 -0.11190211238E+03  0.11190211238E+03  0.00000000000E+00 0.  1.
          6    1    1    2  501    0 -0.26113035176E+02  0.46169343139E+02  0.13932383490E+02  0.18053146585E+03  0.17200000000E+03 0.  1.
         -6    1    1    2    0  503  0.26113035176E+02 -0.46169343139E+02  0.25456689131E+03  0.31177203371E+03  0.17200000000E+03 0.  1.
<mgrwt>
<rscale>  2 0.17999305E+03</rscale>
<asrwt>0</asrwt>
<pdfrwt beam="1">  1       21 0.95100344E-01 0.17999305E+03</pdfrwt>
<pdfrwt beam="2">  1       21 0.27975529E-01 0.17999305E+03</pdfrwt>
<totfact> 0.11376427E+04</totfact>
</mgrwt>
</event>
<event>
 4    1  0.1116135E+000  0.2427576E+03  0.7546771E-02  0.1117969E+00
         21   -1    0    0  503  502  0.00000000000E+00  0.00000000000E+00  0.13790533182E+03  0.13790533182E+03  0.00000000000E+00 0. -1.
         21   -1    0    0  501  503 -0.00000000000E+00 -0.00000000000E+00 -0.53514258560E+03  0.53514258560E+03  0.00000000000E+00 0. -1.
          6    1    1    2  501    0  0.11209765087E+03  0.12954284807E+03 -0.34966622065E+03  0.42567322994E+03  0.17200000000E+03 0. -1.
         -6    1    1    2    0  502 -0.11209765087E+03 -0.12954284807E+03 -0.47571033125E+02  0.24737468749E+03  0.17200000000E+03 0. -1.
<mgrwt>
<rscale>  2 0.24275756E+03</rscale>
<asrwt>0</asrwt>
<pdfrwt beam="1">  1       21 0.34476333E-01 0.24275756E+03</pdfrwt>
<pdfrwt beam="2">  1       21 0.13378565E+00 0.24275756E+03</pdfrwt>
<totfact> 0.31305510E+03</totfact>
</mgrwt>
</event>
<event>
 4    1  0.1116135E+000  0.2061953E+03  0.7546771E-02  0.1144615E+00
         21   -1    0    0  501  502  0.00000000000E+00  0.00000000000E+00  0.22535570474E+03  0.22535570474E+03  0.00000000000E+00 0. -1.
         21   -1    0    0  502  503 -0.00000000000E+00 -0.00000000000E+00 -0.20608585321E+03  0.20608585321E+03  0.00000000000E+00 0.  1.
          6    1    1    2  501    0 -0.71328670100E+02 -0.88570367822E+02  0.72356383028E+02  0.21852216226E+03  0.17200000000E+03 0. -1.
         -6    1    1    2    0  503  0.71328670100E+02  0.88570367822E+02 -0.53086531503E+02  0.21291939569E+03  0.17200000000E+03 0. -1.
<mgrwt>
<rscale>  2 0.20619527E+03</rscale>
<asrwt>0</asrwt>
<pdfrwt beam="1">  1       21 0.56338926E-01 0.20619527E+03</pdfrwt>
<pdfrwt beam="2">  1       21 0.51521463E-01 0.20619527E+03</pdfrwt>
<totfact> 0.10511757E+04</totfact>
</mgrwt>
</event>
<event>
 4    1  0.1116135E+000  0.2282783E+03  0.7546771E-02  0.1127857E+00
         21   -1    0    0  503  502  0.00000000000E+00  0.00000000000E+00  0.27382433688E+03  0.27382433688E+03  0.00000000000E+00 0. -1.
         21   -1    0    0  501  503 -0.00000000000E+00 -0.00000000000E+00 -0.19352266170E+03  0.19352266170E+03  0.00000000000E+00 0. -1.
          6    1    1    2  501    0  0.63876006770E+02  0.13581912589E+03  0.10034169728E+02  0.22849871720E+03  0.17200000000E+03 0. -1.
         -6    1    1    2    0  502 -0.63876006770E+02 -0.13581912589E+03  0.70267505445E+02  0.23884828138E+03  0.17200000000E+03 0. -1.
<mgrwt>
<rscale>  2 0.22827829E+03</rscale>
<asrwt>0</asrwt>
<pdfrwt beam="1">  1       21 0.68456084E-01 0.22827829E+03</pdfrwt>
<pdfrwt beam="2">  1       21 0.48380666E-01 0.22827829E+03</pdfrwt>
<totfact> 0.77492905E+03</totfact>
</mgrwt>
</event>
<event>
 4    1  0.1116135E+000  0.1852076E+03  0.7546771E-02  0.1162856E+00
         21   -1    0    0  501  502  0.00000000000E+00  0.00000000000E+00  0.31580197967E+03  0.31580197967E+03  0.00000000000E+00 0.  1.
         21   -1    0    0  502  503 -0.00000000000E+00 -0.00000000000E+00 -0.15964299764E+03  0.15964299764E+03  0.00000000000E+00 0.  1.
          6    1    1    2  501    0 -0.55462528775E+02  0.40518661528E+02  0.21247532990E+03  0.28186454166E+03  0.17200000000E+03 0.  1.
         -6    1    1    2    0  503  0.55462528775E+02 -0.40518661528E+02 -0.56316347871E+02  0.19358043565E+03  0.17200000000E+03 0.  1.
<mgrwt>
<rscale>  2 0.18520760E+03</rscale>
<asrwt>0</asrwt>
<pdfrwt beam="1">  1       21 0.78950494E-01 0.18520760E+03</pdfrwt>
<pdfrwt beam="2">  1       21 0.39910750E-01 0.18520760E+03</pdfrwt>
<totfact> 0.86193895E+03</totfact>
</mgrwt>
</event>
<event>
 4    1  0.1116135E+000  0.2094852E+03  0.7546771E-02  0.1141974E+00
         21   -1    0    0  501  502  0.00000000000E+00  0.00000000000E+00  0.69602522903E+02  0.69602522903E+02  0.00000000000E+00 0. -1.
         21   -1    0    0  502  503 -0.00000000000E+00 -0.00000000000E+00 -0.69480580741E+03  0.69480580741E+03  0.00000000000E+00 0.  1.
          6    1    1    2  501    0  0.50396196535E+02  0.10844478854E+03 -0.19632154660E+03  0.28709963157E+03  0.17200000000E+03 0. -1.
         -6    1    1    2    0  503 -0.50396196535E+02 -0.10844478854E+03 -0.42888173790E+03  0.47730869874E+03  0.17200000000E+03 0. -1.
<mgrwt>
<rscale>  2 0.20948520E+03</rscale>
<asrwt>0</asrwt>
<pdfrwt beam="1">  1       21 0.17400631E-01 0.20948520E+03</pdfrwt>
<pdfrwt beam="2">  1       21 0.17370145E+00 0.20948520E+03</pdfrwt>
<totfact> 0.59243446E+03</totfact>
</mgrwt>
</event>
<event>
 4    1  0.1116135E+000  0.2224212E+03  0.7546771E-02  0.1132091E+00
         21   -1    0    0  503  502  0.00000000000E+00  0.00000000000E+00  0.13696902874E+03  0.13696902874E+03  0.00000000000E+00 0.  1.
         21   -1    0    0  501  503 -0.00000000000E+00 -0.00000000000E+00 -0.36571485005E+03  0.36571485005E+03  0.00000000000E+00 0. -1.
          6    1    1    2  501    0 -0.13091856391E+03 -0.52416583072E+02 -0.86400357447E+02  0.23861305564E+03  0.17200000000E+03 0. -1.
         -6    1    1    2    0  502  0.13091856391E+03  0.52416583072E+02 -0.14234546386E+03  0.26407082315E+03  0.17200000000E+03 0. -1.
<mgrwt>
<rscale>  2 0.22242115E+03</rscale>
<asrwt>0</asrwt>
<pdfrwt beam="1">  1       21 0.34242257E-01 0.22242115E+03</pdfrwt>
<pdfrwt beam="2">  1       21 0.91428712E-01 0.22242115E+03</pdfrwt>
<totfact> 0.81533889E+03</totfact>
</mgrwt>
</event>
<event>
 4    1  0.1116135E+000  0.2267542E+03  0.7546771E-02  0.1128945E+00
         21   -1    0    0  501  502  0.00000000000E+00  0.00000000000E+00  0.12235269025E+03  0.12235269025E+03  0.00000000000E+00 0.  1.
         21   -1    0    0  502  503 -0.00000000000E+00 -0.00000000000E+00 -0.42024024268E+03  0.42024024268E+03  0.00000000000E+00 0.  1.
          6    1    1    2  501    0  0.68907986936E+02 -0.13071015985E+03 -0.14925505192E+03  0.27146735913E+03  0.17200000000E+03 0.  1.
         -6    1    1    2    0  503 -0.68907986936E+02  0.13071015985E+03 -0.14863250052E+03  0.27112557379E+03  0.17200000000E+03 0.  1.
<mgrwt>
<rscale>  2 0.22675418E+03</rscale>
<asrwt>0</asrwt>
<pdfrwt beam="1">  1       21 0.30588173E-01 0.22675418E+03</pdfrwt>
<pdfrwt beam="2">  1       21 0.10506006E+00 0.22675418E+03</pdfrwt>
<totfact> 0.73061293E+03</totfact>
</mgrwt>
</event>
<event>
 4    1  0.1116135E+000  0.1783357E+03  0.7546771E-02  0.1169424E+00
         21   -1    0    0  501  502  0.00000000000E+00  0.00000000000E+00  0.66228472365E+03  0.66228472365E+03  0.00000000000E+00 0. -1.
         21   -1    0    0  502  503 -0.00000000000E+00 -0.00000000000E+00 -0.54264204332E+02  0.54264204332E+02  0.00000000000E+00 0.  1.
          6    1    1    2  501    0 -0.39283578110E+02  0.26007918983E+02  0.42553396004E+03  0.46139220031E+03  0.17200000000E+03 0. -1.
         -6    1    1    2    0  503  0.39283578110E+02 -0.26007918983E+02  0.18248655928E+03  0.25515672767E+03  0.17200000000E+03 0.  1.
<mgrwt>
<rscale>  2 0.17833567E+03</rscale>
<asrwt>0</asrwt>
<pdfrwt beam="1">  1       21 0.16557116E+00 0.17833567E+03</pdfrwt>
<pdfrwt beam="2">  1       21 0.13566053E-01 0.17833567E+03</pdfrwt>
<totfact> 0.10918953E+04</totfact>
</mgrwt>
</event>
<event>
 4    1  0.1116135E+000  0.2090635E+03  0.7546771E-02  0.1142310E+00
         21   -1    0    0  501  502  0.00000000000E+00  0.00000000000E+00  0.56973725775E+03  0.56973725775E+03  0.00000000000E+00 0.  1.
         21   -1    0    0  502  503 -0.00000000000E+00 -0.00000000000E+00 -0.79590686467E+02  0.79590686467E+02  0.00000000000E+00 0. -1.
          6    1    1    2  501    0  0.11707407885E+03 -0.20425833539E+02  0.30678284066E+03  0.37124556016E+03  0.17200000000E+03 0.  1.
         -6    1    1    2    0  503 -0.11707407885E+03  0.20425833539E+02  0.18336373062E+03  0.27808238406E+03  0.17200000000E+03 0.  1.
<mgrwt>
<rscale>  2 0.20906352E+03</rscale>
<asrwt>0</asrwt>
<pdfrwt beam="1">  1       21 0.14243430E+00 0.20906352E+03</pdfrwt>
<pdfrwt beam="2">  1       21 0.19897673E-01 0.20906352E+03</pdfrwt>
<totfact> 0.78755486E+03</totfact>
</mgrwt>
</event>
<event>
 4    1  0.1116135E+000  0.1914641E+03  0.7546771E-02  0.1157147E+00
         21   -1    0    0  501  502  0.00000000000E+00  0.00000000000E+00  0.18340410404E+03  0.18340410404E+03  0.00000000000E+00 0. -1.
         21   -1    0    0  502  503 -0.00000000000E+00 -0.00000000000E+00 -0.66244843921E+03  0.66244843921E+03  0.00000000000E+00 0. -1.
          6    1    1    2  501    0 -0.84106643305E+02 -0.76911498930E+00  0.11388664340E+03  0.22277496837E+03  0.17200000000E+03 0. -1.
         -6    1    1    2    0  503  0.84106643305E+02  0.76911498930E+00 -0.59293097856E+03  0.62307757489E+03  0.17200000000E+03 0. -1.
<mgrwt>
<rscale>  2 0.19146415E+03</rscale>
<asrwt>0</asrwt>
<pdfrwt beam="1">  1       21 0.45851026E-01 0.19146415E+03</pdfrwt>
<pdfrwt beam="2">  1       21 0.16561211E+00 0.19146415E+03</pdfrwt>
<totfact> 0.10465437E+03</totfact>
</mgrwt>
</event>
<event>
 4    1  0.1116135E+000  0.2302790E+03  0.7546771E-02  0.1126444E+00
         21   -1    0    0  501  502  0.00000000000E+00  0.00000000000E+00  0.44657246636E+03  0.44657246636E+03  0.00000000000E+00 0. -1.
         21   -1    0    0  502  503 -0.00000000000E+00 -0.00000000000E+00 -0.17473522921E+03  0.17473522921E+03  0.00000000000E+00 0. -1.
          6    1    1    2  501    0  0.89996253283E+02 -0.12387528115E+03  0.31176814542E+03  0.38759229531E+03  0.17200000000E+03 0. -1.
         -6    1    1    2    0  503 -0.89996253283E+02  0.12387528115E+03 -0.39930908264E+02  0.23371540026E+03  0.17200000000E+03 0. -1.
<mgrwt>
<rscale>  2 0.23027898E+03</rscale>
<asrwt>0</asrwt>
<pdfrwt beam="1">  1       21 0.11164311E+00 0.23027898E+03</pdfrwt>
<pdfrwt beam="2">  1       21 0.43683808E-01 0.23027898E+03</pdfrwt>
<totfact> 0.30774285E+03</totfact>
</mgrwt>
</event>
<event>
 4    1  0.1116135E+000  0.1882374E+03  0.7546771E-02  0.1160061E+00
         21   -1    0    0  503  502  0.00000000000E+00  0.00000000000E+00  0.66697987691E+02  0.66697987691E+02  0.00000000000E+00 0.  1.
         21   -1    0    0  501  503 -0.00000000000E+00 -0.00000000000E+00 -0.97513849083E+03  0.97513849083E+03  0.00000000000E+00 0.  1.
          6    1    1    2  501    0 -0.68497095946E+02  0.34021602152E+02 -0.80567809691E+03  0.82737568094E+03  0.17200000000E+03 0.  1.
         -6    1    1    2    0  502  0.68497095946E+02 -0.34021602152E+02 -0.10276240623E+03  0.21446079758E+03  0.17200000000E+03 0.  1.
<mgrwt>
<rscale>  2 0.18823741E+03</rscale>
<asrwt>0</asrwt>
<pdfrwt beam="1">  1       21 0.16674497E-01 0.18823741E+03</pdfrwt>
<pdfrwt beam="2">  1       21 0.24378462E+00 0.18823741E+03</pdfrwt>
<totfact> 0.23504839E+03</totfact>
</mgrwt>
</event>
<event>
 4    1  0.1116135E+000  0.1871157E+03  0.7546771E-02  0.1161089E+00
         21   -1    0    0  503  502  0.00000000000E+00  0.00000000000E+00  0.28180901217E+03  0.28180901217E+03  0.00000000000E+00 0. -1.
         21   -1    0    0  501  503 -0.00000000000E+00 -0.00000000000E+00 -0.21471521724E+03  0.21471521724E+03  0.00000000000E+00 0.  1.
          6    1    1    2  501    0  0.73673245877E+02 -0.73453139953E+00 -0.12760707004E+03  0.22648587378E+03  0.17200000000E+03 0.  1.
         -6    1    1    2    0  502 -0.73673245877E+02  0.73453139953E+00  0.19470086498E+03  0.27003835564E+03  0.17200000000E+03 0. -1.
<mgrwt>
<rscale>  2 0.18711570E+03</rscale>
<asrwt>0</asrwt>
<pdfrwt beam="1">  1       21 0.70452253E-01 0.18711570E+03</pdfrwt>
<pdfrwt beam="2">  1       21 0.53678804E-01 0.18711570E+03</pdfrwt>
<totfact> 0.60234869E+03</totfact>
</mgrwt>
</event>
<event>
 4    1  0.1116135E+000  0.1951354E+03  0.7546771E-02  0.1153909E+00
         21   -1    0    0  503  502  0.00000000000E+00  0.00000000000E+00  0.29865321602E+02  0.29865321602E+02  0.00000000000E+00 0.  1.
         21   -1    0    0  501  503 -0.00000000000E+00 -0.00000000000E+00 -0.13010699009E+04  0.13010699009E+04  0.00000000000E+00 0.  1.
          6    1    1    2  501    0 -0.90856300633E+02 -0.15458772560E+02 -0.72982814791E+03  0.75546473544E+03  0.17200000000E+03 0.  1.
         -6    1    1    2    0  502  0.90856300633E+02  0.15458772560E+02 -0.54137643137E+03  0.57547048704E+03  0.17200000000E+03 0.  1.
<mgrwt>
<rscale>  2 0.19513544E+03</rscale>
<asrwt>0</asrwt>
<pdfrwt beam="1">  1       21 0.74663314E-02 0.19513544E+03</pdfrwt>
<pdfrwt beam="2">  1       21 0.32526743E+00 0.19513544E+03</pdfrwt>
<totfact> 0.32902755E+03</totfact>
</mgrwt>
</event>
<event>
 4    1  0.1116135E+000  0.1809847E+03  0.7546771E-02  0.1166853E+00
         21   -1    0    0  503  502  0.00000000000E+00  0.00000000000E+00  0.10409276010E+04  0.10409276010E+04  0.00000000000E+00 0.  1.
         21   -1    0    0  501  503 -0.00000000000E+00 -0.00000000000E+00 -0.31495112352E+02  0.31495112352E+02  0.00000000000E+00 0.  1.
          6    1    1    2  501    0  0.13410889530E+02 -0.54695702351E+02  0.48886213905E+03  0.52128846411E+03  0.17200000000E+03 0.  1.
         -6    1    1    2    0  502 -0.13410889530E+02  0.54695702351E+02  0.52057034962E+03  0.55113424927E+03  0.17200000000E+03 0.  1.
<mgrwt>
<rscale>  2 0.18098473E+03</rscale>
<asrwt>0</asrwt>
<pdfrwt beam="1">  1       21 0.26023179E+00 0.18098473E+03</pdfrwt>
<pdfrwt beam="2">  1       21 0.78737816E-02 0.18098473E+03</pdfrwt>
<totfact> 0.72342787E+03</totfact>
</mgrwt>
</event>
<event>
 4    1  0.1116135E+000  0.2302648E+03  0.7546771E-02  0.1126454E+00
         21   -1    0    0  503  502  0.00000000000E+00  0.00000000000E+00  0.17839424600E+03  0.17839424600E+03  0.00000000000E+00 0.  1.
         21   -1    0    0  501  503 -0.00000000000E+00 -0.00000000000E+00 -0.45925311352E+03  0.45925311352E+03  0.00000000000E+00 0.  1.
          6    1    1    2  501    0 -0.11946612522E+03  0.95737734708E+02  0.48948740875E+02  0.23540995764E+03  0.17200000000E+03 0.  1.
         -6    1    1    2    0  502  0.11946612522E+03 -0.95737734708E+02 -0.32980760839E+03  0.40223740188E+03  0.17200000000E+03 0.  1.
<mgrwt>
<rscale>  2 0.23026478E+03</rscale>
<asrwt>0</asrwt>
<pdfrwt beam="1">  1       21 0.44598562E-01 0.23026478E+03</pdfrwt>
<pdfrwt beam="2">  1       21 0.11481328E+00 0.23026478E+03</pdfrwt>
<totfact> 0.27538602E+03</totfact>
</mgrwt>
</event>
<event>
 4    1  0.1116135E+000  0.1952159E+03  0.7546771E-02  0.1153839E+00
         21   -1    0    0  503  502  0.00000000000E+00  0.00000000000E+00  0.68545631884E+02  0.68545631884E+02  0.00000000000E+00 0.  1.
         21   -1    0    0  501  503 -0.00000000000E+00 -0.00000000000E+00 -0.62425290017E+03  0.62425290017E+03  0.00000000000E+00 0. -1.
          6    1    1    2  501    0 -0.85966336929E+02 -0.33690324752E+02 -0.39241962485E+03  0.43829489050E+03  0.17200000000E+03 0. -1.
         -6    1    1    2    0  502  0.85966336929E+02  0.33690324752E+02 -0.16328764343E+03  0.25450364155E+03  0.17200000000E+03 0. -1.
<mgrwt>
<rscale>  2 0.19521590E+03</rscale>
<asrwt>0</asrwt>
<pdfrwt beam="1">  1       21 0.17136408E-01 0.19521590E+03</pdfrwt>
<pdfrwt beam="2">  1       21 0.15606322E+00 0.19521590E+03</pdfrwt>
<totfact> 0.82564752E+03</totfact>
</mgrwt>
</event>
<event>
 4    1  0.1116135E+000  0.2046972E+03  0.7546771E-02  0.1145835E+00
         21   -1    0    0  503  502  0.00000000000E+00  0.00000000000E+00  0.62192961454E+03  0.62192961454E+03  0.00000000000E+00 0.  1.
         21   -1    0    0  501  503 -0.00000000000E+00 -0.00000000000E+00 -0.76935876524E+02  0.76935876524E+02  0.00000000000E+00 0.  1.
          6    1    1    2  501    0 -0.41901076181E+02 -0.10276790823E+03  0.39569528758E+03  0.44550612090E+03  0.17200000000E+03 0.  1.
         -6    1    1    2    0  502  0.41901076181E+02  0.10276790823E+03  0.14929845043E+03  0.25335937016E+03  0.17200000000E+03 0.  1.
<mgrwt>
<rscale>  2 0.20469720E+03</rscale>
<asrwt>0</asrwt>
<pdfrwt beam="1">  1       21 0.15548239E+00 0.20469720E+03</pdfrwt>
<pdfrwt beam="2">  1       21 0.19233971E-01 0.20469720E+03</pdfrwt>
<totfact> 0.66828352E+03</totfact>
</mgrwt>
</event>
<event>
 4    1  0.1116135E+000  0.2231774E+03  0.7546771E-02  0.1131536E+00
         21   -1    0    0  501  502  0.00000000000E+00  0.00000000000E+00  0.15188269276E+03  0.15188269276E+03  0.00000000000E+00 0.  1.
         21   -1    0    0  502  503 -0.00000000000E+00 -0.00000000000E+00 -0.43825626341E+03  0.43825626341E+03  0.00000000000E+00 0.  1.
          6    1    1    2  501    0 -0.13392552885E+03 -0.47834172244E+02  0.48546538654E+01  0.22323020176E+03  0.17200000000E+03 0.  1.
         -6    1    1    2    0  503  0.13392552885E+03  0.47834172244E+02 -0.29122822451E+03  0.36690875441E+03  0.17200000000E+03 0.  1.
<mgrwt>
<rscale>  2 0.22317741E+03</rscale>
<asrwt>0</asrwt>
<pdfrwt beam="1">  1       21 0.37970673E-01 0.22317741E+03</pdfrwt>
<pdfrwt beam="2">  1       21 0.10956407E+00 0.22317741E+03</pdfrwt>
<totfact> 0.43066039E+03</totfact>
</mgrwt>
</event>
<event>
 4    1  0.1116135E+000  0.2031234E+03  0.7546771E-02  0.1147130E+00
         21   -1    0    0  503  502  0.00000000000E+00  0.00000000000E+00  0.14999375736E+03  0.14999375736E+03  0.00000000000E+00 0.  1.
         21   -1    0    0  501  503 -0.00000000000E+00 -0.00000000000E+00 -0.31960743728E+03  0.31960743728E+03  0.00000000000E+00 0.  1.
          6    1    1    2  501    0  0.25717390792E+02 -0.10494636424E+03 -0.17245489743E+03  0.26645790512E+03  0.17200000000E+03 0. -1.
         -6    1    1    2    0  502 -0.25717390792E+02  0.10494636424E+03  0.28412175107E+01  0.20314328951E+03  0.17200000000E+03 0. -1.
<mgrwt>
<rscale>  2 0.20312342E+03</rscale>
<asrwt>0</asrwt>
<pdfrwt beam="1">  1       21 0.37498440E-01 0.20312342E+03</pdfrwt>
<pdfrwt beam="2">  1       21 0.79901859E-01 0.20312342E+03</pdfrwt>
<totfact> 0.93902681E+03</totfact>
</mgrwt>
</event>
<event>
 4    1  0.1116135E+000  0.2803619E+03  0.7546771E-02  0.1095491E+00
         21   -1    0    0  501  502  0.00000000000E+00  0.00000000000E+00  0.11065259258E+04  0.11065259258E+04  0.00000000000E+00 0. -1.
         21   -1    0    0  502  503 -0.00000000000E+00 -0.00000000000E+00 -0.80237611372E+02  0.80237611372E+02  0.00000000000E+00 0.  1.
          6    1    1    2  501    0 -0.98103435268E+02  0.19848055881E+03  0.71409267718E+03  0.76715785066E+03  0.17200000000E+03 0. -1.
         -6    1    1    2    0  503  0.98103435268E+02 -0.19848055881E+03  0.31219563726E+03  0.41960568652E+03  0.17200000000E+03 0.  1.
<mgrwt>
<rscale>  2 0.28036194E+03</rscale>
<asrwt>0</asrwt>
<pdfrwt beam="1">  1       21 0.27663143E+00 0.28036194E+03</pdfrwt>
<pdfrwt beam="2">  1       21 0.20059406E-01 0.28036194E+03</pdfrwt>
<totfact> 0.97219225E+02</totfact>
</mgrwt>
</event>
<event>
 4    1  0.1116135E+000  0.2444829E+03  0.7546771E-02  0.1116842E+00
         21   -1    0    0  503  502  0.00000000000E+00  0.00000000000E+00  0.46598635436E+03  0.46598635436E+03  0.00000000000E+00 0. -1.
         21   -1    0    0  501  503 -0.00000000000E+00 -0.00000000000E+00 -0.24699053900E+03  0.24699053900E+03  0.00000000000E+00 0.  1.
          6    1    1    2  501    0  0.16725821379E+03 -0.47038230667E+02 -0.13765679361E+03  0.28057315989E+03  0.17200000000E+03 0.  1.
         -6    1    1    2    0  502 -0.16725821379E+03  0.47038230667E+02  0.35665260898E+03  0.43240373347E+03  0.17200000000E+03 0. -1.
<mgrwt>
<rscale>  2 0.24448293E+03</rscale>
<asrwt>0</asrwt>
<pdfrwt beam="1">  1       21 0.11649659E+00 0.24448293E+03</pdfrwt>
<pdfrwt beam="2">  1       21 0.61747635E-01 0.24448293E+03</pdfrwt>
<totfact> 0.13217464E+03</totfact>
</mgrwt>
</event>
<event>
 4    1  0.1116135E+000  0.1834840E+03  0.7546771E-02  0.1164473E+00
         21   -1    0    0  501  502  0.00000000000E+00  0.00000000000E+00  0.49070274235E+03  0.49070274235E+03  0.00000000000E+00 0.  1.
         21   -1    0    0  502  503 -0.00000000000E+00 -0.00000000000E+00 -0.12393035931E+03  0.12393035931E+03  0.00000000000E+00 0. -1.
          6    1    1    2  501    0  0.54516489414E+02  0.33321722174E+02  0.38871289483E+03  0.42984194699E+03  0.17200000000E+03 0.  1.
         -6    1    1    2    0  503 -0.54516489414E+02 -0.33321722174E+02 -0.21940511793E+02  0.18479115467E+03  0.17200000000E+03 0. -1.
<mgrwt>
<rscale>  2 0.18348402E+03</rscale>
<asrwt>0</asrwt>
<pdfrwt beam="1">  1       21 0.12267568E+00 0.18348402E+03</pdfrwt>
<pdfrwt beam="2">  1       21 0.30982591E-01 0.18348402E+03</pdfrwt>
<totfact> 0.50400484E+03</totfact>
</mgrwt>
</event>
<event>
 4    1  0.1116135E+000  0.1856107E+03  0.7546771E-02  0.1162481E+00
         21   -1    0    0  503  502  0.00000000000E+00  0.00000000000E+00  0.63383773233E+03  0.63383773233E+03  0.00000000000E+00 0.  1.
         21   -1    0    0  501  503 -0.00000000000E+00 -0.00000000000E+00 -0.64537007296E+02  0.64537007296E+02  0.00000000000E+00 0.  1.
          6    1    1    2  501    0 -0.50055722699E+02 -0.48597951738E+02  0.42335837752E+03  0.46225929098E+03  0.17200000000E+03 0.  1.
         -6    1    1    2    0  502  0.50055722699E+02  0.48597951738E+02  0.14594234751E+03  0.23611544864E+03  0.17200000000E+03 0.  1.
<mgrwt>
<rscale>  2 0.18561071E+03</rscale>
<asrwt>0</asrwt>
<pdfrwt beam="1">  1       21 0.15845941E+00 0.18561071E+03</pdfrwt>
<pdfrwt beam="2">  1       21 0.16134254E-01 0.18561071E+03</pdfrwt>
<totfact> 0.89204333E+03</totfact>
</mgrwt>
</event>
<event>
 4    1  0.1116135E+000  0.1961138E+03  0.7546771E-02  0.1153060E+00
         21   -1    0    0  503  502  0.00000000000E+00  0.00000000000E+00  0.15928029304E+03  0.15928029304E+03  0.00000000000E+00 0. -1.
         21   -1    0    0  501  503 -0.00000000000E+00 -0.00000000000E+00 -0.43150005709E+03  0.43150005709E+03  0.00000000000E+00 0. -1.
          6    1    1    2  501    0 -0.16791352615E+02  0.92707480962E+02 -0.33213982082E+03  0.38571684838E+03  0.17200000000E+03 0. -1.
         -6    1    1    2    0  502  0.16791352615E+02 -0.92707480962E+02  0.59920056770E+02  0.20506350176E+03  0.17200000000E+03 0. -1.
<mgrwt>
<rscale>  2 0.19611381E+03</rscale>
<asrwt>0</asrwt>
<pdfrwt beam="1">  1       21 0.39820074E-01 0.19611381E+03</pdfrwt>
<pdfrwt beam="2">  1       21 0.10787501E+00 0.19611381E+03</pdfrwt>
<totfact> 0.41498240E+03</totfact>
</mgrwt>
</event>
<event>
 4    1  0.1116135E+000  0.1720619E+03  0.7546771E-02  0.1175715E+00
         21   -1    0    0  501  502  0.00000000000E+00  0.00000000000E+00  0.23221059173E+03  0.23221059173E+03  0.00000000000E+00 0.  1.
         21   -1    0    0  502  503 -0.00000000000E+00 -0.00000000000E+00 -0.23658276130E+03  0.23658276130E+03  0.00000000000E+00 0.  1.
          6    1    1    2  501    0  0.46145439097E+01 -0.68083011580E-01  0.15698026828E+03  0.23291222226E+03  0.17200000000E+03 0.  1.
         -6    1    1    2    0  503 -0.46145439097E+01  0.68083011580E-01 -0.16135243785E+03  0.23588113076E+03  0.17200000000E+03 0.  1.
<mgrwt>
<rscale>  2 0.17206190E+03</rscale>
<asrwt>0</asrwt>
<pdfrwt beam="1">  1       21 0.58052648E-01 0.17206190E+03</pdfrwt>
<pdfrwt beam="2">  1       21 0.59145690E-01 0.17206190E+03</pdfrwt>
<totfact> 0.75462003E+03</totfact>
</mgrwt>
</event>
<event>
 4    1  0.1116135E+000  0.1734806E+03  0.7546771E-02  0.1174266E+00
         21   -1    0    0  501  502  0.00000000000E+00  0.00000000000E+00  0.14103691961E+03  0.14103691961E+03  0.00000000000E+00 0.  1.
         21   -1    0    0  502  503 -0.00000000000E+00 -0.00000000000E+00 -0.21403920013E+03  0.21403920013E+03  0.00000000000E+00 0.  1.
          6    1    1    2  501    0  0.11473853013E+02  0.19489950346E+02 -0.26704252666E+02  0.17552385757E+03  0.17200000000E+03 0.  1.
         -6    1    1    2    0  503 -0.11473853013E+02 -0.19489950346E+02 -0.46298027848E+02  0.17955226217E+03  0.17200000000E+03 0.  1.
<mgrwt>
<rscale>  2 0.17348057E+03</rscale>
<asrwt>0</asrwt>
<pdfrwt beam="1">  1       21 0.35259230E-01 0.17348057E+03</pdfrwt>
<pdfrwt beam="2">  1       21 0.53509800E-01 0.17348057E+03</pdfrwt>
<totfact> 0.25914530E+04</totfact>
</mgrwt>
</event>
<event>
 4    1  0.1116135E+000  0.1829193E+03  0.7546771E-02  0.1165007E+00
         21   -1    0    0  503  502  0.00000000000E+00  0.00000000000E+00  0.85676581732E+02  0.85676581732E+02  0.00000000000E+00 0.  1.
         21   -1    0    0  501  503 -0.00000000000E+00 -0.00000000000E+00 -0.57803976923E+03  0.57803976923E+03  0.00000000000E+00 0.  1.
          6    1    1    2  501    0 -0.13195986789E+01  0.62239351431E+02 -0.57172425527E+02  0.19164593512E+03  0.17200000000E+03 0.  1.
         -6    1    1    2    0  502  0.13195986789E+01 -0.62239351431E+02 -0.43519076197E+03  0.47207041584E+03  0.17200000000E+03 0.  1.
<mgrwt>
<rscale>  2 0.18291932E+03</rscale>
<asrwt>0</asrwt>
<pdfrwt beam="1">  1       21 0.21419146E-01 0.18291932E+03</pdfrwt>
<pdfrwt beam="2">  1       21 0.14450994E+00 0.18291932E+03</pdfrwt>
<totfact> 0.67430287E+03</totfact>
</mgrwt>
</event>
<event>
 4    1  0.1116135E+000  0.1806668E+03  0.7546771E-02  0.1167159E+00
         21   -1    0    0  503  502  0.00000000000E+00  0.00000000000E+00  0.54583227362E+03  0.54583227362E+03  0.00000000000E+00 0. -1.
         21   -1    0    0  501  503 -0.00000000000E+00 -0.00000000000E+00 -0.11227757181E+03  0.11227757181E+03  0.00000000000E+00 0. -1.
          6    1    1    2  501    0 -0.52451265618E+02 -0.17474339468E+02 -0.81855435912E+01  0.18085212448E+03  0.17200000000E+03 0. -1.
         -6    1    1    2    0  502  0.52451265618E+02  0.17474339468E+02  0.44174024540E+03  0.47725772095E+03  0.17200000000E+03 0. -1.
<mgrwt>
<rscale>  2 0.18066679E+03</rscale>
<asrwt>0</asrwt>
<pdfrwt beam="1">  1       21 0.13645806E+00 0.18066679E+03</pdfrwt>
<pdfrwt beam="2">  1       21 0.28069394E-01 0.18066679E+03</pdfrwt>
<totfact> 0.46820786E+03</totfact>
</mgrwt>
</event>
<event>
 4    1  0.1116135E+000  0.2101049E+03  0.7546771E-02  0.1141483E+00
         21   -1    0    0  501  502  0.00000000000E+00  0.00000000000E+00  0.22216208531E+03  0.22216208531E+03  0.00000000000E+00 0. -1.
         21   -1    0    0  502  503 -0.00000000000E+00 -0.00000000000E+00 -0.20549191263E+03  0.20549191263E+03  0.00000000000E+00 0.  1.
          6    1    1    2  501    0  0.33808462203E+02 -0.11583195530E+03 -0.30533324969E+02  0.21231188831E+03  0.17200000000E+03 0.  1.
         -6    1    1    2    0  503 -0.33808462203E+02  0.11583195530E+03  0.47203497653E+02  0.21534210962E+03  0.17200000000E+03 0.  1.
<mgrwt>
<rscale>  2 0.21010486E+03</rscale>
<asrwt>0</asrwt>
<pdfrwt beam="1">  1       21 0.55540521E-01 0.21010486E+03</pdfrwt>
<pdfrwt beam="2">  1       21 0.51372978E-01 0.21010486E+03</pdfrwt>
<totfact> 0.10873415E+04</totfact>
</mgrwt>
</event>
<event>
 4    1  0.1116135E+000  0.1786933E+03  0.7546771E-02  0.1169074E+00
         21   -1    0    0  501  502  0.00000000000E+00  0.00000000000E+00  0.10413271409E+03  0.10413271409E+03  0.00000000000E+00 0. -1.
         21   -1    0    0  502  503 -0.00000000000E+00 -0.00000000000E+00 -0.39518493512E+03  0.39518493512E+03  0.00000000000E+00 0. -1.
          6    1    1    2  501    0 -0.44848520568E+02  0.18327466335E+02 -0.27350493633E+02  0.18077426620E+03  0.17200000000E+03 0. -1.
         -6    1    1    2    0  503  0.44848520568E+02 -0.18327466335E+02 -0.26370172740E+03  0.31854338300E+03  0.17200000000E+03 0. -1.
<mgrwt>
<rscale>  2 0.17869327E+03</rscale>
<asrwt>0</asrwt>
<pdfrwt beam="1">  1       21 0.26033179E-01 0.17869327E+03</pdfrwt>
<pdfrwt beam="2">  1       21 0.98796233E-01 0.17869327E+03</pdfrwt>
<totfact> 0.11956761E+04</totfact>
</mgrwt>
</event>
<event>
 4    1  0.1116135E+000  0.1794474E+03  0.7546771E-02  0.1168339E+00
         21   -1    0    0  503  502  0.00000000000E+00  0.00000000000E+00  0.11922912856E+03  0.11922912856E+03  0.00000000000E+00 0.  1.
         21   -1    0    0  501  503 -0.00000000000E+00 -0.00000000000E+00 -0.57525446248E+03  0.57525446248E+03  0.00000000000E+00 0.  1.
          6    1    1    2  501    0 -0.49170019114E+02 -0.14130847756E+02 -0.48092865065E+03  0.51331641183E+03  0.17200000000E+03 0.  1.
         -6    1    1    2    0  502  0.49170019114E+02  0.14130847756E+02  0.24903316731E+02  0.18116717921E+03  0.17200000000E+03 0.  1.
<mgrwt>
<rscale>  2 0.17944741E+03</rscale>
<asrwt>0</asrwt>
<pdfrwt beam="1">  1       21 0.29807282E-01 0.17944741E+03</pdfrwt>
<pdfrwt beam="2">  1       21 0.14381361E+00 0.17944741E+03</pdfrwt>
<totfact> 0.36440952E+03</totfact>
</mgrwt>
</event>
<event>
 4    1  0.1116135E+000  0.2695100E+03  0.7546771E-02  0.1101560E+00
         21   -1    0    0  501  502  0.00000000000E+00  0.00000000000E+00  0.63732181304E+03  0.63732181304E+03  0.00000000000E+00 0.  1.
         21   -1    0    0  502  503 -0.00000000000E+00 -0.00000000000E+00 -0.12664810784E+03  0.12664810784E+03  0.00000000000E+00 0. -1.
          6    1    1    2  501    0  0.16550385965E+03 -0.12514035460E+03  0.37619398379E+03  0.46277159522E+03  0.17200000000E+03 0.  1.
         -6    1    1    2    0  503 -0.16550385965E+03  0.12514035460E+03  0.13447972142E+03  0.30119832566E+03  0.17200000000E+03 0. -1.
<mgrwt>
<rscale>  2 0.26950999E+03</rscale>
<asrwt>0</asrwt>
<pdfrwt beam="1">  1       21 0.15933044E+00 0.26950999E+03</pdfrwt>
<pdfrwt beam="2">  1       21 0.31662029E-01 0.26950999E+03</pdfrwt>
<totfact> 0.22925697E+03</totfact>
</mgrwt>
</event>
<event>
 4    1  0.1116135E+000  0.2481273E+03  0.7546771E-02  0.1114494E+00
         21   -1    0    0  501  502  0.00000000000E+00  0.00000000000E+00  0.95258191885E+03  0.95258191885E+03  0.00000000000E+00 0. -1.
         21   -1    0    0  502  503 -0.00000000000E+00 -0.00000000000E+00 -0.77956878056E+02  0.77956878056E+02  0.00000000000E+00 0.  1.
          6    1    1    2  501    0  0.14606876019E+03  0.10318459743E+03  0.65034262936E+03  0.69606945014E+03  0.17200000000E+03 0. -1.
         -6    1    1    2    0  503 -0.14606876019E+03 -0.10318459743E+03  0.22428241144E+03  0.33446934677E+03  0.17200000000E+03 0.  1.
<mgrwt>
<rscale>  2 0.24812727E+03</rscale>
<asrwt>0</asrwt>
<pdfrwt beam="1">  1       21 0.23814544E+00 0.24812727E+03</pdfrwt>
<pdfrwt beam="2">  1       21 0.19489223E-01 0.24812727E+03</pdfrwt>
<totfact> 0.17899668E+03</totfact>
</mgrwt>
</event>
<event>
 4    1  0.1116135E+000  0.1741935E+03  0.7546771E-02  0.1173544E+00
         21   -1    0    0  501  502  0.00000000000E+00  0.00000000000E+00  0.10476087697E+03  0.10476087697E+03  0.00000000000E+00 0. -1.
         21   -1    0    0  502  503 -0.00000000000E+00 -0.00000000000E+00 -0.37320274091E+03  0.37320274091E+03  0.00000000000E+00 0. -1.
          6    1    1    2  501    0  0.25934313370E+02  0.93167346124E+01 -0.21140459671E+02  0.17547167632E+03  0.17200000000E+03 0. -1.
         -6    1    1    2    0  503 -0.25934313370E+02 -0.93167346124E+01 -0.24730140427E+03  0.30249194156E+03  0.17200000000E+03 0. -1.
<mgrwt>
<rscale>  2 0.17419354E+03</rscale>
<asrwt>0</asrwt>
<pdfrwt beam="1">  1       21 0.26190219E-01 0.17419354E+03</pdfrwt>
<pdfrwt beam="2">  1       21 0.93300684E-01 0.17419354E+03</pdfrwt>
<totfact> 0.13557009E+04</totfact>
</mgrwt>
</event>
<event>
 4    1  0.1116135E+000  0.1960532E+03  0.7546771E-02  0.1153112E+00
         21   -1    0    0  503  502  0.00000000000E+00  0.00000000000E+00  0.67700157466E+03  0.67700157466E+03  0.00000000000E+00 0. -1.
         21   -1    0    0  501  503 -0.00000000000E+00 -0.00000000000E+00 -0.63620823935E+02  0.63620823935E+02  0.00000000000E+00 0. -1.
          6    1    1    2  501    0  0.94045099873E+02 -0.28921028262E+01  0.18521834653E+03  0.26970851110E+03  0.17200000000E+03 0.  1.
         -6    1    1    2    0  502 -0.94045099873E+02  0.28921028262E+01  0.42816240419E+03  0.47091388749E+03  0.17200000000E+03 0.  1.
<mgrwt>
<rscale>  2 0.19605317E+03</rscale>
<asrwt>0</asrwt>
<pdfrwt beam="1">  1       21 0.16925037E+00 0.19605317E+03</pdfrwt>
<pdfrwt beam="2">  1       21 0.15905208E-01 0.19605317E+03</pdfrwt>
<totfact> 0.75923379E+03</totfact>
</mgrwt>
</event>
<event>
 4    1  0.1116135E+000  0.1979678E+03  0.7546771E-02  0.1151465E+00
         21   -1    0    0  501  502  0.00000000000E+00  0.00000000000E+00  0.12072703977E+03  0.12072703977E+03  0.00000000000E+00 0.  1.
         21   -1    0    0  502  503 -0.00000000000E+00 -0.00000000000E+00 -0.52788143933E+03  0.52788143933E+03  0.00000000000E+00 0.  1.
          6    1    1    2  501    0  0.39270086817E+02 -0.89805853327E+02 -0.40481273711E+03  0.45062687795E+03  0.17200000000E+03 0.  1.
         -6    1    1    2    0  503 -0.39270086817E+02  0.89805853327E+02 -0.23416624628E+01  0.19798160115E+03  0.17200000000E+03 0.  1.
<mgrwt>
<rscale>  2 0.19796775E+03</rscale>
<asrwt>0</asrwt>
<pdfrwt beam="1">  1       21 0.30181760E-01 0.19796775E+03</pdfrwt>
<pdfrwt beam="2">  1       21 0.13197036E+00 0.19796775E+03</pdfrwt>
<totfact> 0.43629819E+03</totfact>
</mgrwt>
</event>
<event>
 4    1  0.1116135E+000  0.1770164E+03  0.7546771E-02  0.1170722E+00
         21   -1    0    0  503  502  0.00000000000E+00  0.00000000000E+00  0.14515672676E+03  0.14515672676E+03  0.00000000000E+00 0. -1.
         21   -1    0    0  501  503 -0.00000000000E+00 -0.00000000000E+00 -0.36173444071E+03  0.36173444071E+03  0.00000000000E+00 0. -1.
          6    1    1    2  501    0  0.29859329019E+02  0.29312529202E+02 -0.26922972765E+03  0.32221025767E+03  0.17200000000E+03 0. -1.
         -6    1    1    2    0  502 -0.29859329019E+02 -0.29312529202E+02  0.52652013698E+02  0.18468090980E+03  0.17200000000E+03 0. -1.
<mgrwt>
<rscale>  2 0.17701639E+03</rscale>
<asrwt>0</asrwt>
<pdfrwt beam="1">  1       21 0.36289182E-01 0.17701639E+03</pdfrwt>
<pdfrwt beam="2">  1       21 0.90433609E-01 0.17701639E+03</pdfrwt>
<totfact> 0.76975475E+03</totfact>
</mgrwt>
</event>
<event>
 4    1  0.1116135E+000  0.2446407E+03  0.7546771E-02  0.1116739E+00
         21   -1    0    0  503  502  0.00000000000E+00  0.00000000000E+00  0.23778826856E+03  0.23778826856E+03  0.00000000000E+00 0.  1.
         21   -1    0    0  501  503 -0.00000000000E+00 -0.00000000000E+00 -0.34752625988E+03  0.34752625988E+03  0.00000000000E+00 0. -1.
          6    1    1    2  501    0  0.16850440168E+02 -0.17315063064E+03 -0.20855311916E+03  0.32147081009E+03  0.17200000000E+03 0. -1.
         -6    1    1    2    0  502 -0.16850440168E+02  0.17315063064E+03  0.98815127843E+02  0.26384371836E+03  0.17200000000E+03 0.  1.
<mgrwt>
<rscale>  2 0.24464071E+03</rscale>
<asrwt>0</asrwt>
<pdfrwt beam="1">  1       21 0.59447068E-01 0.24464071E+03</pdfrwt>
<pdfrwt beam="2">  1       21 0.86881564E-01 0.24464071E+03</pdfrwt>
<totfact> 0.28927193E+03</totfact>
</mgrwt>
</event>
<event>
 4    1  0.1116135E+000  0.1815361E+03  0.7546771E-02  0.1166325E+00
         21   -1    0    0  501  502  0.00000000000E+00  0.00000000000E+00  0.29113590222E+03  0.29113590222E+03  0.00000000000E+00 0. -1.
         21   -1    0    0  502  503 -0.00000000000E+00 -0.00000000000E+00 -0.35844621671E+03  0.35844621671E+03  0.00000000000E+00 0. -1.
          6    1    1    2  501    0 -0.49645281867E+02 -0.30111398038E+02  0.23500110985E+03  0.29695264258E+03  0.17200000000E+03 0. -1.
         -6    1    1    2    0  503  0.49645281867E+02  0.30111398038E+02 -0.30231142434E+03  0.35262947635E+03  0.17200000000E+03 0. -1.
<mgrwt>
<rscale>  2 0.18153609E+03</rscale>
<asrwt>0</asrwt>
<pdfrwt beam="1">  1       21 0.72783976E-01 0.18153609E+03</pdfrwt>
<pdfrwt beam="2">  1       21 0.89611554E-01 0.18153609E+03</pdfrwt>
<totfact> 0.18226265E+03</totfact>
</mgrwt>
</event>
<event>
 4    1  0.1116135E+000  0.1743197E+03  0.7546771E-02  0.1173416E+00
         21   -1    0    0  503  502  0.00000000000E+00  0.00000000000E+00  0.66172016041E+03  0.66172016041E+03  0.00000000000E+00 0. -1.
         21   -1    0    0  501  503 -0.00000000000E+00 -0.00000000000E+00 -0.32303966883E+03  0.32303966883E+03  0.00000000000E+00 0. -1.
          6    1    1    2  501    0 -0.66953696729E+01 -0.27541629632E+02 -0.28670158381E+03  0.33553713281E+03  0.17200000000E+03 0. -1.
         -6    1    1    2    0  502  0.66953696729E+01  0.27541629632E+02  0.62538207539E+03  0.64922269643E+03  0.17200000000E+03 0. -1.
<mgrwt>
<rscale>  2 0.17431973E+03</rscale>
<asrwt>0</asrwt>
<pdfrwt beam="1">  1       21 0.16543004E+00 0.17431973E+03</pdfrwt>
<pdfrwt beam="2">  1       21 0.80759918E-01 0.17431973E+03</pdfrwt>
<totfact> 0.31691353E+02</totfact>
</mgrwt>
</event>
<event>
 4    1  0.1116135E+000  0.1902720E+03  0.7546771E-02  0.1158216E+00
         21   -1    0    0  503  502  0.00000000000E+00  0.00000000000E+00  0.82981559480E+02  0.82981559480E+02  0.00000000000E+00 0.  1.
         21   -1    0    0  501  503 -0.00000000000E+00 -0.00000000000E+00 -0.53223272451E+03  0.53223272451E+03  0.00000000000E+00 0. -1.
          6    1    1    2  501    0 -0.78682469779E+02 -0.20700292873E+02 -0.94018183354E+02  0.21223301340E+03  0.17200000000E+03 0.  1.
         -6    1    1    2    0  502  0.78682469779E+02  0.20700292873E+02 -0.35523298167E+03  0.40298127059E+03  0.17200000000E+03 0. -1.
<mgrwt>
<rscale>  2 0.19027200E+03</rscale>
<asrwt>0</asrwt>
<pdfrwt beam="1">  1       21 0.20745390E-01 0.19027200E+03</pdfrwt>
<pdfrwt beam="2">  1       21 0.13305818E+00 0.19027200E+03</pdfrwt>
<totfact> 0.88011546E+03</totfact>
</mgrwt>
</event>
<event>
 4    1  0.1116135E+000  0.2328625E+03  0.7546771E-02  0.1124641E+00
         21   -1    0    0  501  502  0.00000000000E+00  0.00000000000E+00  0.66714404378E+02  0.66714404378E+02  0.00000000000E+00 0.  1.
         21   -1    0    0  502  503 -0.00000000000E+00 -0.00000000000E+00 -0.91790847488E+03  0.91790847488E+03  0.00000000000E+00 0.  1.
          6    1    1    2  501    0  0.11992008801E+03  0.10129217412E+03 -0.25899676664E+03  0.34828760698E+03  0.17200000000E+03 0.  1.
         -6    1    1    2    0  503 -0.11992008801E+03 -0.10129217412E+03 -0.59219730386E+03  0.63633527228E+03  0.17200000000E+03 0.  1.
<mgrwt>
<rscale>  2 0.23286247E+03</rscale>
<asrwt>0</asrwt>
<pdfrwt beam="1">  1       21 0.16678602E-01 0.23286247E+03</pdfrwt>
<pdfrwt beam="2">  1       21 0.22947711E+00 0.23286247E+03</pdfrwt>
<totfact> 0.27355792E+03</totfact>
</mgrwt>
</event>
<event>
 4    1  0.1116135E+000  0.2208017E+03  0.7546771E-02  0.1133287E+00
         21   -1    0    0  501  502  0.00000000000E+00  0.00000000000E+00  0.41744488918E+03  0.41744488918E+03  0.00000000000E+00 0. -1.
         21   -1    0    0  502  503 -0.00000000000E+00 -0.00000000000E+00 -0.23144330959E+03  0.23144330959E+03  0.00000000000E+00 0.  1.
          6    1    1    2  501    0  0.49433807486E+02 -0.12932791671E+03  0.32135591281E+03  0.38990131323E+03  0.17200000000E+03 0. -1.
         -6    1    1    2    0  503 -0.49433807486E+02  0.12932791671E+03 -0.13535433321E+03  0.25898688554E+03  0.17200000000E+03 0.  1.
<mgrwt>
<rscale>  2 0.22080175E+03</rscale>
<asrwt>0</asrwt>
<pdfrwt beam="1">  1       21 0.10436122E+00 0.22080175E+03</pdfrwt>
<pdfrwt beam="2">  1       21 0.57860828E-01 0.22080175E+03</pdfrwt>
<totfact> 0.20258887E+03</totfact>
</mgrwt>
</event>
<event>
 4    1  0.1116135E+000  0.1740539E+03  0.7546771E-02  0.1173685E+00
         21   -1    0    0  503  502  0.00000000000E+00  0.00000000000E+00  0.55667803540E+03  0.55667803540E+03  0.00000000000E+00 0.  1.
         21   -1    0    0  501  503 -0.00000000000E+00 -0.00000000000E+00 -0.61384324831E+02  0.61384324831E+02  0.00000000000E+00 0.  1.
          6    1    1    2  501    0  0.18017076220E+02  0.19650237442E+02  0.14356028802E+03  0.22561981997E+03  0.17200000000E+03 0.  1.
         -6    1    1    2    0  502 -0.18017076220E+02 -0.19650237442E+02  0.35173342255E+03  0.39244254026E+03  0.17200000000E+03 0.  1.
<mgrwt>
<rscale>  2 0.17405386E+03</rscale>
<asrwt>0</asrwt>
<pdfrwt beam="1">  1       21 0.13916949E+00 0.17405386E+03</pdfrwt>
<pdfrwt beam="2">  1       21 0.15346083E-01 0.17405386E+03</pdfrwt>
<totfact> 0.13858092E+04</totfact>
</mgrwt>
</event>
<event>
 4    1  0.1116135E+000  0.2083033E+03  0.7546771E-02  0.1142917E+00
         21   -1    0    0  503  502  0.00000000000E+00  0.00000000000E+00  0.13099262556E+03  0.13099262556E+03  0.00000000000E+00 0.  1.
         21   -1    0    0  501  503 -0.00000000000E+00 -0.00000000000E+00 -0.46452696291E+03  0.46452696291E+03  0.00000000000E+00 0. -1.
          6    1    1    2  501    0 -0.94872369750E+02  0.69321642609E+02 -0.32626368514E+03  0.38708945855E+03  0.17200000000E+03 0. -1.
         -6    1    1    2    0  502  0.94872369750E+02 -0.69321642609E+02 -0.72706522087E+01  0.20843012992E+03  0.17200000000E+03 0.  1.
<mgrwt>
<rscale>  2 0.20830328E+03</rscale>
<asrwt>0</asrwt>
<pdfrwt beam="1">  1       21 0.32748157E-01 0.20830328E+03</pdfrwt>
<pdfrwt beam="2">  1       21 0.11613174E+00 0.20830328E+03</pdfrwt>
<totfact> 0.50741332E+03</totfact>
</mgrwt>
</event>
<event>
 4    1  0.1116135E+000  0.2474775E+03  0.7546771E-02  0.1114909E+00
         21   -1    0    0  501  502  0.00000000000E+00  0.00000000000E+00  0.10501642250E+04  0.10501642250E+04  0.00000000000E+00 0. -1.
         21   -1    0    0  502  503 -0.00000000000E+00 -0.00000000000E+00 -0.58330178846E+02  0.58330178846E+02  0.00000000000E+00 0.  1.
          6    1    1    2  501    0 -0.17390974004E+03 -0.37636491677E+02  0.48843471128E+03  0.54755234486E+03  0.17200000000E+03 0.  1.
         -6    1    1    2    0  503  0.17390974004E+03  0.37636491677E+02  0.50339933492E+03  0.56094205902E+03  0.17200000000E+03 0. -1.
<mgrwt>
<rscale>  2 0.24747748E+03</rscale>
<asrwt>0</asrwt>
<pdfrwt beam="1">  1       21 0.26254099E+00 0.24747748E+03</pdfrwt>
<pdfrwt beam="2">  1       21 0.14582548E-01 0.24747748E+03</pdfrwt>
<totfact> 0.21909160E+03</totfact>
</mgrwt>
</event>
<event>
 4    1  0.1116135E+000  0.2482552E+03  0.7546771E-02  0.1114413E+00
         21   -1    0    0  503  502  0.00000000000E+00  0.00000000000E+00  0.16101682587E+03  0.16101682587E+03  0.00000000000E+00 0.  1.
         21   -1    0    0  501  503 -0.00000000000E+00 -0.00000000000E+00 -0.11710828972E+04  0.11710828972E+04  0.00000000000E+00 0.  1.
          6    1    1    2  501    0 -0.17901500859E+03 -0.50077594203E+00 -0.10515017395E+04  0.10804103536E+04  0.17200000000E+03 0.  1.
         -6    1    1    2    0  502  0.17901500859E+03  0.50077594203E+00  0.41435668187E+02  0.25168936941E+03  0.17200000000E+03 0.  1.
<mgrwt>
<rscale>  2 0.24825516E+03</rscale>
<asrwt>0</asrwt>
<pdfrwt beam="1">  1       21 0.40254207E-01 0.24825516E+03</pdfrwt>
<pdfrwt beam="2">  1       21 0.29277072E+00 0.24825516E+03</pdfrwt>
<totfact> 0.20725947E+02</totfact>
</mgrwt>
</event>
<event>
 4    1  0.1116135E+000  0.2075484E+03  0.7546771E-02  0.1143522E+00
         21   -1    0    0  501  502  0.00000000000E+00  0.00000000000E+00  0.28399850782E+03  0.28399850782E+03  0.00000000000E+00 0.  1.
         21   -1    0    0  502  503 -0.00000000000E+00 -0.00000000000E+00 -0.15600424920E+03  0.15600424920E+03  0.00000000000E+00 0.  1.
          6    1    1    2  501    0 -0.11007365731E+03 -0.37096295484E+02  0.10063325221E+03  0.23065861489E+03  0.17200000000E+03 0.  1.
         -6    1    1    2    0  503  0.11007365731E+03  0.37096295484E+02  0.27361006416E+02  0.20934414213E+03  0.17200000000E+03 0.  1.
<mgrwt>
<rscale>  2 0.20754842E+03</rscale>
<asrwt>0</asrwt>
<pdfrwt beam="1">  1       21 0.70999626E-01 0.20754842E+03</pdfrwt>
<pdfrwt beam="2">  1       21 0.39001063E-01 0.20754842E+03</pdfrwt>
<totfact> 0.11269850E+04</totfact>
</mgrwt>
</event>
<event>
 4    1  0.1116135E+000  0.2551030E+03  0.7546771E-02  0.1110122E+00
         21   -1    0    0  503  502  0.00000000000E+00  0.00000000000E+00  0.29476801265E+03  0.29476801265E+03  0.00000000000E+00 0.  1.
         21   -1    0    0  501  503 -0.00000000000E+00 -0.00000000000E+00 -0.24102962403E+03  0.24102962403E+03  0.00000000000E+00 0. -1.
          6    1    1    2  501    0 -0.12022838768E+03 -0.14504721271E+03  0.10452826383E+03  0.27568771656E+03  0.17200000000E+03 0.  1.
         -6    1    1    2    0  502  0.12022838768E+03  0.14504721271E+03 -0.50789875213E+02  0.26010992012E+03  0.17200000000E+03 0. -1.
<mgrwt>
<rscale>  2 0.25510304E+03</rscale>
<asrwt>0</asrwt>
<pdfrwt beam="1">  1       21 0.73692003E-01 0.25510304E+03</pdfrwt>
<pdfrwt beam="2">  1       21 0.60257406E-01 0.25510304E+03</pdfrwt>
<totfact> 0.40591185E+03</totfact>
</mgrwt>
</event>
<event>
 4    1  0.1116135E+000  0.1821114E+03  0.7546771E-02  0.1165775E+00
         21   -1    0    0  501  502  0.00000000000E+00  0.00000000000E+00  0.43291124079E+03  0.43291124079E+03  0.00000000000E+00 0.  1.
         21   -1    0    0  502  503 -0.00000000000E+00 -0.00000000000E+00 -0.77295586462E+02  0.77295586462E+02  0.00000000000E+00 0.  1.
          6    1    1    2  501    0 -0.30921457769E+02 -0.51229189352E+02  0.15375156676E+03  0.23833612960E+03  0.17200000000E+03 0. -1.
         -6    1    1    2    0  503  0.30921457769E+02  0.51229189352E+02  0.20186408757E+03  0.27187069765E+03  0.17200000000E+03 0. -1.
<mgrwt>
<rscale>  2 0.18211141E+03</rscale>
<asrwt>0</asrwt>
<pdfrwt beam="1">  1       21 0.10822780E+00 0.18211141E+03</pdfrwt>
<pdfrwt beam="2">  1       21 0.19323898E-01 0.18211141E+03</pdfrwt>
<totfact> 0.16832107E+04</totfact>
</mgrwt>
</event>
<event>
 4    1  0.1116135E+000  0.1827457E+03  0.7546771E-02  0.1165172E+00
         21   -1    0    0  503  502  0.00000000000E+00  0.00000000000E+00  0.23950271195E+02  0.23950271195E+02  0.00000000000E+00 0.  1.
         21   -1    0    0  501  503 -0.00000000000E+00 -0.00000000000E+00 -0.14166455844E+04  0.14166455844E+04  0.00000000000E+00 0.  1.
          6    1    1    2  501    0 -0.33426209563E+02 -0.51910173952E+02 -0.60606220705E+03  0.63301451521E+03  0.17200000000E+03 0.  1.
         -6    1    1    2    0  502  0.33426209563E+02  0.51910173952E+02 -0.78663310610E+03  0.80758134034E+03  0.17200000000E+03 0.  1.
<mgrwt>
<rscale>  2 0.18274566E+03</rscale>
<asrwt>0</asrwt>
<pdfrwt beam="1">  1       21 0.59875682E-02 0.18274566E+03</pdfrwt>
<pdfrwt beam="2">  1       21 0.35416137E+00 0.18274566E+03</pdfrwt>
<totfact> 0.33145401E+03</totfact>
</mgrwt>
</event>
<event>
 4    1  0.1116135E+000  0.3091515E+03  0.7546771E-02  0.1080753E+00
         21   -1    0    0  503  502  0.00000000000E+00  0.00000000000E+00  0.82411672768E+02  0.82411672768E+02  0.00000000000E+00 0. -1.
         21   -1    0    0  501  503 -0.00000000000E+00 -0.00000000000E+00 -0.13788079998E+04  0.13788079998E+04  0.00000000000E+00 0. -1.
          6    1    1    2  501    0 -0.18987928412E+03  0.17302174676E+03 -0.35696523289E+03  0.47222753508E+03  0.17200000000E+03 0. -1.
         -6    1    1    2    0  502  0.18987928412E+03 -0.17302174676E+03 -0.93943109418E+03  0.98899213753E+03  0.17200000000E+03 0. -1.
<mgrwt>
<rscale>  2 0.30915153E+03</rscale>
<asrwt>0</asrwt>
<pdfrwt beam="1">  1       21 0.20602919E-01 0.30915153E+03</pdfrwt>
<pdfrwt beam="2">  1       21 0.34470199E+00 0.30915153E+03</pdfrwt>
<totfact> 0.35615550E+02</totfact>
</mgrwt>
</event>
<event>
 4    1  0.1116135E+000  0.1862440E+03  0.7546771E-02  0.1161893E+00
         21   -1    0    0  503  502  0.00000000000E+00  0.00000000000E+00  0.14455533604E+03  0.14455533604E+03  0.00000000000E+00 0. -1.
         21   -1    0    0  501  503 -0.00000000000E+00 -0.00000000000E+00 -0.24274804097E+03  0.24274804097E+03  0.00000000000E+00 0. -1.
          6    1    1    2  501    0  0.58618497331E+02 -0.40825275114E+02 -0.28325604416E+02  0.18838569793E+03  0.17200000000E+03 0.  1.
         -6    1    1    2    0  502 -0.58618497331E+02  0.40825275114E+02 -0.69867100510E+02  0.19891767908E+03  0.17200000000E+03 0.  1.
<mgrwt>
<rscale>  2 0.18624401E+03</rscale>
<asrwt>0</asrwt>
<pdfrwt beam="1">  1       21 0.36138834E-01 0.18624401E+03</pdfrwt>
<pdfrwt beam="2">  1       21 0.60687010E-01 0.18624401E+03</pdfrwt>
<totfact> 0.18742768E+04</totfact>
</mgrwt>
</event>
<event>
 4    1  0.1116135E+000  0.2287170E+03  0.7546771E-02  0.1127546E+00
         21   -1    0    0  501  502  0.00000000000E+00  0.00000000000E+00  0.25235072300E+03  0.25235072300E+03  0.00000000000E+00 0. -1.
         21   -1    0    0  502  503 -0.00000000000E+00 -0.00000000000E+00 -0.62213261452E+03  0.62213261452E+03  0.00000000000E+00 0. -1.
          6    1    1    2  501    0  0.15075636704E+03 -0.12566463962E-02  0.17215015424E+03  0.28626413993E+03  0.17200000000E+03 0. -1.
         -6    1    1    2    0  503 -0.15075636704E+03  0.12566463962E-02 -0.54193204575E+03  0.58821919759E+03  0.17200000000E+03 0. -1.
<mgrwt>
<rscale>  2 0.22871704E+03</rscale>
<asrwt>0</asrwt>
<pdfrwt beam="1">  1       21 0.63087681E-01 0.22871704E+03</pdfrwt>
<pdfrwt beam="2">  1       21 0.15553315E+00 0.22871704E+03</pdfrwt>
<totfact> 0.60808903E+02</totfact>
</mgrwt>
</event>
<event>
 4    1  0.1116135E+000  0.2625701E+03  0.7546771E-02  0.1105609E+00
         21   -1    0    0  501  502  0.00000000000E+00  0.00000000000E+00  0.69713080113E+03  0.69713080113E+03  0.00000000000E+00 0. -1.
         21   -1    0    0  502  503 -0.00000000000E+00 -0.00000000000E+00 -0.10418537864E+03  0.10418537864E+03  0.00000000000E+00 0. -1.
          6    1    1    2  501    0  0.13073226340E+03  0.14922505297E+03  0.38675380237E+03  0.46746288064E+03  0.17200000000E+03 0. -1.
         -6    1    1    2    0  503 -0.13073226340E+03 -0.14922505297E+03  0.20619162012E+03  0.33385329913E+03  0.17200000000E+03 0. -1.
<mgrwt>
<rscale>  2 0.26257007E+03</rscale>
<asrwt>0</asrwt>
<pdfrwt beam="1">  1       21 0.17428269E+00 0.26257007E+03</pdfrwt>
<pdfrwt beam="2">  1       21 0.26046347E-01 0.26257007E+03</pdfrwt>
<totfact> 0.26315050E+03</totfact>
</mgrwt>
</event>
<event>
 4    1  0.1116135E+000  0.1749450E+03  0.7546771E-02  0.1172787E+00
         21   -1    0    0  501  502  0.00000000000E+00  0.00000000000E+00  0.47077065311E+02  0.47077065311E+02  0.00000000000E+00 0. -1.
         21   -1    0    0  502  503 -0.00000000000E+00 -0.00000000000E+00 -0.98326498239E+03  0.98326498239E+03  0.00000000000E+00 0. -1.
          6    1    1    2  501    0  0.99106432020E+01 -0.30389641538E+02 -0.16822421459E+03  0.24270380618E+03  0.17200000000E+03 0. -1.
         -6    1    1    2    0  503 -0.99106432020E+01  0.30389641538E+02 -0.76796370249E+03  0.78763824152E+03  0.17200000000E+03 0. -1.
<mgrwt>
<rscale>  2 0.17494499E+03</rscale>
<asrwt>0</asrwt>
<pdfrwt beam="1">  1       21 0.11769266E-01 0.17494499E+03</pdfrwt>
<pdfrwt beam="2">  1       21 0.24581625E+00 0.17494499E+03</pdfrwt>
<totfact> 0.43589369E+03</totfact>
</mgrwt>
</event>
<event>
 4    1  0.1116135E+000  0.2292125E+03  0.7546771E-02  0.1127195E+00
         21   -1    0    0  503  502  0.00000000000E+00  0.00000000000E+00  0.14633585394E+03  0.14633585394E+03  0.00000000000E+00 0. -1.
         21   -1    0    0  501  503 -0.00000000000E+00 -0.00000000000E+00 -0.39234030488E+03  0.39234030488E+03  0.00000000000E+00 0. -1.
          6    1    1    2  501    0  0.65350419331E+02 -0.13668835895E+03 -0.20148625573E+03  0.30518043192E+03  0.17200000000E+03 0. -1.
         -6    1    1    2    0  502 -0.65350419331E+02  0.13668835895E+03 -0.44518195219E+02  0.23349572691E+03  0.17200000000E+03 0. -1.
<mgrwt>
<rscale>  2 0.22921253E+03</rscale>
<asrwt>0</asrwt>
<pdfrwt beam="1">  1       21 0.36583964E-01 0.22921253E+03</pdfrwt>
<pdfrwt beam="2">  1       21 0.98085076E-01 0.22921253E+03</pdfrwt>
<totfact> 0.60299802E+03</totfact>
</mgrwt>
</event>
<event>
 4    1  0.1116135E+000  0.1734900E+03  0.7546771E-02  0.1174256E+00
         21   -1    0    0  501  502  0.00000000000E+00  0.00000000000E+00  0.71718990642E+03  0.71718990642E+03  0.00000000000E+00 0. -1.
         21   -1    0    0  502  503 -0.00000000000E+00 -0.00000000000E+00 -0.20537040612E+03  0.20537040612E+03  0.00000000000E+00 0. -1.
          6    1    1    2  501    0  0.22544732699E+02  0.25518612441E+01  0.66736776486E+03  0.68954949825E+03  0.17200000000E+03 0. -1.
         -6    1    1    2    0  503 -0.22544732699E+02 -0.25518612441E+01 -0.15554826456E+03  0.23301081429E+03  0.17200000000E+03 0. -1.
<mgrwt>
<rscale>  2 0.17348999E+03</rscale>
<asrwt>0</asrwt>
<pdfrwt beam="1">  1       21 0.17929747E+00 0.17348999E+03</pdfrwt>
<pdfrwt beam="2">  1       21 0.51342603E-01 0.17348999E+03</pdfrwt>
<totfact> 0.67868561E+02</totfact>
</mgrwt>
</event>
<event>
 4    1  0.1116135E+000  0.1785934E+03  0.7546771E-02  0.1169171E+00
         21   -1    0    0  501  502  0.00000000000E+00  0.00000000000E+00  0.18734023611E+03  0.18734023611E+03  0.00000000000E+00 0. -1.
         21   -1    0    0  502  503 -0.00000000000E+00 -0.00000000000E+00 -0.28901954330E+03  0.28901954330E+03  0.00000000000E+00 0. -1.
          6    1    1    2  501    0 -0.25867435037E+02  0.40527511717E+02  0.10184133702E+03  0.20559003217E+03  0.17200000000E+03 0. -1.
         -6    1    1    2    0  503  0.25867435037E+02 -0.40527511717E+02 -0.20352064421E+03  0.27076974724E+03  0.17200000000E+03 0. -1.
<mgrwt>
<rscale>  2 0.17859340E+03</rscale>
<asrwt>0</asrwt>
<pdfrwt beam="1">  1       21 0.46835060E-01 0.17859340E+03</pdfrwt>
<pdfrwt beam="2">  1       21 0.72254885E-01 0.17859340E+03</pdfrwt>
<totfact> 0.76174747E+03</totfact>
</mgrwt>
</event>
<event>
 4    1  0.1116135E+000  0.1903255E+03  0.7546771E-02  0.1158168E+00
         21   -1    0    0  503  502  0.00000000000E+00  0.00000000000E+00  0.32652931276E+03  0.32652931276E+03  0.00000000000E+00 0.  1.
         21   -1    0    0  501  503 -0.00000000000E+00 -0.00000000000E+00 -0.16825909286E+03  0.16825909286E+03  0.00000000000E+00 0.  1.
          6    1    1    2  501    0  0.63677065818E+02 -0.50843110852E+02 -0.65264430401E+02  0.20120446443E+03  0.17200000000E+03 0.  1.
         -6    1    1    2    0  502 -0.63677065818E+02  0.50843110852E+02  0.22353465030E+03  0.29358394118E+03  0.17200000000E+03 0.  1.
<mgrwt>
<rscale>  2 0.19032549E+03</rscale>
<asrwt>0</asrwt>
<pdfrwt beam="1">  1       21 0.81632327E-01 0.19032549E+03</pdfrwt>
<pdfrwt beam="2">  1       21 0.42064774E-01 0.19032549E+03</pdfrwt>
<totfact> 0.71587519E+03</totfact>
</mgrwt>
</event>
<event>
 4    1  0.1116135E+000  0.1934075E+03  0.7546771E-02  0.1155423E+00
         21   -1    0    0  501  502  0.00000000000E+00  0.00000000000E+00  0.20121467687E+02  0.20121467687E+02  0.00000000000E+00 0.  1.
         21   -1    0    0  502  503 -0.00000000000E+00 -0.00000000000E+00 -0.19537122883E+04  0.19537122883E+04  0.00000000000E+00 0. -1.
          6    1    1    2  501    0  0.43597783315E+02  0.76952663246E+02 -0.11840540251E+04  0.11997459787E+04  0.17200000000E+03 0. -1.
         -6    1    1    2    0  503 -0.43597783315E+02 -0.76952663246E+02 -0.74953679549E+03  0.77408777724E+03  0.17200000000E+03 0. -1.
<mgrwt>
<rscale>  2 0.19340755E+03</rscale>
<asrwt>0</asrwt>
<pdfrwt beam="1">  1       21 0.50303664E-02 0.19340755E+03</pdfrwt>
<pdfrwt beam="2">  1       21 0.48842812E+00 0.19340755E+03</pdfrwt>
<totfact> 0.60656717E+02</totfact>
</mgrwt>
</event>
<event>
 4    1  0.1116135E+000  0.1836445E+03  0.7546771E-02  0.1164322E+00
         21   -1    0    0  501  502  0.00000000000E+00  0.00000000000E+00  0.42129366035E+03  0.42129366035E+03  0.00000000000E+00 0. -1.
         21   -1    0    0  502  503 -0.00000000000E+00 -0.00000000000E+00 -0.12075549104E+03  0.12075549104E+03  0.00000000000E+00 0. -1.
          6    1    1    2  501    0  0.93051486092E+01 -0.63676580217E+02  0.30762113967E+03  0.35826813734E+03  0.17200000000E+03 0. -1.
         -6    1    1    2    0  503 -0.93051486092E+01  0.63676580217E+02 -0.70829703574E+01  0.18378101406E+03  0.17200000000E+03 0. -1.
<mgrwt>
<rscale>  2 0.18364447E+03</rscale>
<asrwt>0</asrwt>
<pdfrwt beam="1">  1       21 0.10532341E+00 0.18364447E+03</pdfrwt>
<pdfrwt beam="2">  1       21 0.30188874E-01 0.18364447E+03</pdfrwt>
<totfact> 0.76857887E+03</totfact>
</mgrwt>
</event>
<event>
 4    1  0.1116135E+000  0.2018137E+03  0.7546771E-02  0.1148218E+00
         21   -1    0    0  503  502  0.00000000000E+00  0.00000000000E+00  0.41932205837E+03  0.41932205837E+03  0.00000000000E+00 0.  1.
         21   -1    0    0  501  503 -0.00000000000E+00 -0.00000000000E+00 -0.19935958168E+03  0.19935958168E+03  0.00000000000E+00 0.  1.
          6    1    1    2  501    0 -0.42511215251E+02  0.96631101568E+02 -0.11153565784E+03  0.23058398943E+03  0.17200000000E+03 0.  1.
         -6    1    1    2    0  502  0.42511215251E+02 -0.96631101568E+02  0.33149813453E+03  0.38809765061E+03  0.17200000000E+03 0.  1.
<mgrwt>
<rscale>  2 0.20181371E+03</rscale>
<asrwt>0</asrwt>
<pdfrwt beam="1">  1       21 0.10483051E+00 0.20181371E+03</pdfrwt>
<pdfrwt beam="2">  1       21 0.49839896E-01 0.20181371E+03</pdfrwt>
<totfact> 0.27912424E+03</totfact>
</mgrwt>
</event>
<event>
 4    1  0.1116135E+000  0.1981072E+03  0.7546771E-02  0.1151346E+00
         21   -1    0    0  501  502  0.00000000000E+00  0.00000000000E+00  0.37907519953E+03  0.37907519953E+03  0.00000000000E+00 0.  1.
         21   -1    0    0  502  503 -0.00000000000E+00 -0.00000000000E+00 -0.27130955939E+03  0.27130955939E+03  0.00000000000E+00 0.  1.
          6    1    1    2  501    0  0.90807249719E+02 -0.37636517074E+02  0.30960863765E+03  0.36756492287E+03  0.17200000000E+03 0.  1.
         -6    1    1    2    0  503 -0.90807249719E+02  0.37636517074E+02 -0.20184299751E+03  0.28281983605E+03  0.17200000000E+03 0.  1.
<mgrwt>
<rscale>  2 0.19810720E+03</rscale>
<asrwt>0</asrwt>
<pdfrwt beam="1">  1       21 0.94768799E-01 0.19810720E+03</pdfrwt>
<pdfrwt beam="2">  1       21 0.67827390E-01 0.19810720E+03</pdfrwt>
<totfact> 0.18409266E+03</totfact>
</mgrwt>
</event>
<event>
 4    1  0.1116135E+000  0.2090818E+03  0.7546771E-02  0.1142295E+00
         21   -1    0    0  503  502  0.00000000000E+00  0.00000000000E+00  0.23806401770E+03  0.23806401770E+03  0.00000000000E+00 0.  1.
         21   -1    0    0  501  503 -0.00000000000E+00 -0.00000000000E+00 -0.19972898603E+03  0.19972898603E+03  0.00000000000E+00 0. -1.
          6    1    1    2  501    0 -0.11166184842E+03  0.40777666744E+02 -0.42983234409E+02  0.21345431581E+03  0.17200000000E+03 0. -1.
         -6    1    1    2    0  502  0.11166184842E+03 -0.40777666744E+02  0.81318266085E+02  0.22433868792E+03  0.17200000000E+03 0.  1.
<mgrwt>
<rscale>  2 0.20908177E+03</rscale>
<asrwt>0</asrwt>
<pdfrwt beam="1">  1       21 0.59516004E-01 0.20908177E+03</pdfrwt>
<pdfrwt beam="2">  1       21 0.49932247E-01 0.20908177E+03</pdfrwt>
<totfact> 0.99628540E+03</totfact>
</mgrwt>
</event>
<event>
 4    1  0.1116135E+000  0.1729496E+03  0.7546771E-02  0.1174806E+00
         21   -1    0    0  503  502  0.00000000000E+00  0.00000000000E+00  0.11900709741E+04  0.11900709741E+04  0.00000000000E+00 0.  1.
         21   -1    0    0  501  503 -0.00000000000E+00 -0.00000000000E+00 -0.29265799597E+02  0.29265799597E+02  0.00000000000E+00 0.  1.
          6    1    1    2  501    0 -0.17831607561E+02 -0.30971390044E+01  0.35133206380E+03  0.39159389366E+03  0.17200000000E+03 0.  1.
         -6    1    1    2    0  502  0.17831607561E+02  0.30971390044E+01  0.80947311067E+03  0.82774288001E+03  0.17200000000E+03 0.  1.
<mgrwt>
<rscale>  2 0.17294958E+03</rscale>
<asrwt>0</asrwt>
<pdfrwt beam="1">  1       21 0.29751758E+00 0.17294958E+03</pdfrwt>
<pdfrwt beam="2">  1       21 0.73164539E-02 0.17294958E+03</pdfrwt>
<totfact> 0.50625980E+03</totfact>
</mgrwt>
</event>
<event>
 4    1  0.1116135E+000  0.1845597E+03  0.7546771E-02  0.1163462E+00
         21   -1    0    0  501  502  0.00000000000E+00  0.00000000000E+00  0.96701379242E+03  0.96701379242E+03  0.00000000000E+00 0. -1.
         21   -1    0    0  502  503 -0.00000000000E+00 -0.00000000000E+00 -0.38269461658E+02  0.38269461658E+02  0.00000000000E+00 0. -1.
          6    1    1    2  501    0  0.16844121813E+01 -0.66898899359E+02  0.32258280518E+03  0.37164763712E+03  0.17200000000E+03 0. -1.
         -6    1    1    2    0  503 -0.16844121813E+01  0.66898899359E+02  0.60616152558E+03  0.63363561696E+03  0.17200000000E+03 0. -1.
<mgrwt>
<rscale>  2 0.18455975E+03</rscale>
<asrwt>0</asrwt>
<pdfrwt beam="1">  1       21 0.24175337E+00 0.18455975E+03</pdfrwt>
<pdfrwt beam="2">  1       21 0.95673686E-02 0.18455975E+03</pdfrwt>
<totfact> 0.65787103E+03</totfact>
</mgrwt>
</event>
<event>
 4    1  0.1116135E+000  0.2030416E+03  0.7546771E-02  0.1147198E+00
         21   -1    0    0  501  502  0.00000000000E+00  0.00000000000E+00  0.32229175169E+02  0.32229175169E+02  0.00000000000E+00 0. -1.
         21   -1    0    0  502  503 -0.00000000000E+00 -0.00000000000E+00 -0.12964438984E+04  0.12964438984E+04  0.00000000000E+00 0. -1.
          6    1    1    2  501    0 -0.10708010077E+03 -0.13257477262E+02 -0.55537587799E+03  0.59132755266E+03  0.17200000000E+03 0. -1.
         -6    1    1    2    0  503  0.10708010077E+03  0.13257477262E+02 -0.70883884529E+03  0.73734552095E+03  0.17200000000E+03 0. -1.
<mgrwt>
<rscale>  2 0.20304164E+03</rscale>
<asrwt>0</asrwt>
<pdfrwt beam="1">  1       21 0.80572937E-02 0.20304164E+03</pdfrwt>
<pdfrwt beam="2">  1       21 0.32411098E+00 0.20304164E+03</pdfrwt>
<totfact> 0.28986913E+03</totfact>
</mgrwt>
</event>
<event>
 4    1  0.1116135E+000  0.2457268E+03  0.7546771E-02  0.1116036E+00
         21   -1    0    0  501  502  0.00000000000E+00  0.00000000000E+00  0.18254265236E+03  0.18254265236E+03  0.00000000000E+00 0. -1.
         21   -1    0    0  502  503 -0.00000000000E+00 -0.00000000000E+00 -0.35203240872E+03  0.35203240872E+03  0.00000000000E+00 0. -1.
          6    1    1    2  501    0  0.12285579319E+03  0.12531613981E+03 -0.15041669227E+03  0.28810911497E+03  0.17200000000E+03 0. -1.
         -6    1    1    2    0  503 -0.12285579319E+03 -0.12531613981E+03 -0.19073064082E+02  0.24646594611E+03  0.17200000000E+03 0. -1.
<mgrwt>
<rscale>  2 0.24572684E+03</rscale>
<asrwt>0</asrwt>
<pdfrwt beam="1">  1       21 0.45635663E-01 0.24572684E+03</pdfrwt>
<pdfrwt beam="2">  1       21 0.88008101E-01 0.24572684E+03</pdfrwt>
<totfact> 0.49033429E+03</totfact>
</mgrwt>
</event>
<event>
 4    1  0.1116135E+000  0.1872130E+03  0.7546771E-02  0.1160999E+00
         21   -1    0    0  503  502  0.00000000000E+00  0.00000000000E+00  0.36328438901E+03  0.36328438901E+03  0.00000000000E+00 0. -1.
         21   -1    0    0  501  503 -0.00000000000E+00 -0.00000000000E+00 -0.11577716406E+03  0.11577716406E+03  0.00000000000E+00 0.  1.
          6    1    1    2  501    0 -0.51286742121E+02  0.53238970000E+02  0.25956428948E+02  0.18900384665E+03  0.17200000000E+03 0.  1.
         -6    1    1    2    0  502  0.51286742121E+02 -0.53238970000E+02  0.22155079601E+03  0.29005770642E+03  0.17200000000E+03 0. -1.
<mgrwt>
<rscale>  2 0.18721303E+03</rscale>
<asrwt>0</asrwt>
<pdfrwt beam="1">  1       21 0.90821095E-01 0.18721303E+03</pdfrwt>
<pdfrwt beam="2">  1       21 0.28944292E-01 0.18721303E+03</pdfrwt>
<totfact> 0.11796577E+04</totfact>
</mgrwt>
</event>
<event>
 4    1  0.1116135E+000  0.1854368E+03  0.7546771E-02  0.1162643E+00
         21   -1    0    0  503  502  0.00000000000E+00  0.00000000000E+00  0.45764835127E+03  0.45764835127E+03  0.00000000000E+00 0. -1.
         21   -1    0    0  501  503 -0.00000000000E+00 -0.00000000000E+00 -0.10135388959E+03  0.10135388959E+03  0.00000000000E+00 0. -1.
          6    1    1    2  501    0 -0.76167769137E+01  0.68882380513E+02  0.35997724259E+02  0.18889847482E+03  0.17200000000E+03 0. -1.
         -6    1    1    2    0  502  0.76167769137E+01 -0.68882380513E+02  0.32029673743E+03  0.37010376605E+03  0.17200000000E+03 0. -1.
<mgrwt>
<rscale>  2 0.18543678E+03</rscale>
<asrwt>0</asrwt>
<pdfrwt beam="1">  1       21 0.11441208E+00 0.18543678E+03</pdfrwt>
<pdfrwt beam="2">  1       21 0.25338474E-01 0.18543678E+03</pdfrwt>
<totfact> 0.88100531E+03</totfact>
</mgrwt>
</event>
<event>
 4    1  0.1116135E+000  0.2412916E+03  0.7546771E-02  0.1118935E+00
         21   -1    0    0  503  502  0.00000000000E+00  0.00000000000E+00  0.70730632633E+02  0.70730632633E+02  0.00000000000E+00 0. -1.
         21   -1    0    0  501  503 -0.00000000000E+00 -0.00000000000E+00 -0.12504488912E+04  0.12504488912E+04  0.00000000000E+00 0.  1.
          6    1    1    2  501    0  0.20468587970E+02 -0.16798411626E+03 -0.97601875047E+03  0.10054025202E+04  0.17200000000E+03 0.  1.
         -6    1    1    2    0  502 -0.20468587970E+02  0.16798411626E+03 -0.20369950810E+03  0.31577700361E+03  0.17200000000E+03 0. -1.
<mgrwt>
<rscale>  2 0.24129158E+03</rscale>
<asrwt>0</asrwt>
<pdfrwt beam="1">  1       21 0.17682658E-01 0.24129158E+03</pdfrwt>
<pdfrwt beam="2">  1       21 0.31261222E+00 0.24129158E+03</pdfrwt>
<totfact> 0.78778047E+02</totfact>
</mgrwt>
</event>
<event>
 4    1  0.1116135E+000  0.2197197E+03  0.7546771E-02  0.1134092E+00
         21   -1    0    0  503  502  0.00000000000E+00  0.00000000000E+00  0.14296649343E+03  0.14296649343E+03  0.00000000000E+00 0.  1.
         21   -1    0    0  501  503 -0.00000000000E+00 -0.00000000000E+00 -0.71182481475E+03  0.71182481475E+03  0.00000000000E+00 0.  1.
          6    1    1    2  501    0 -0.11318001957E+03 -0.76700786359E+02 -0.59428822793E+03  0.63360494420E+03  0.17200000000E+03 0.  1.
         -6    1    1    2    0  502  0.11318001957E+03  0.76700786359E+02  0.25429906619E+02  0.22118636397E+03  0.17200000000E+03 0.  1.
<mgrwt>
<rscale>  2 0.21971966E+03</rscale>
<asrwt>0</asrwt>
<pdfrwt beam="1">  1       21 0.35741623E-01 0.21971966E+03</pdfrwt>
<pdfrwt beam="2">  1       21 0.17795620E+00 0.21971966E+03</pdfrwt>
<totfact> 0.13804434E+03</totfact>
</mgrwt>
</event>
<event>
 4    1  0.1116135E+000  0.1858608E+03  0.7546771E-02  0.1162248E+00
         21   -1    0    0  503  502  0.00000000000E+00  0.00000000000E+00  0.86118762372E+02  0.86118762372E+02  0.00000000000E+00 0. -1.
         21   -1    0    0  501  503 -0.00000000000E+00 -0.00000000000E+00 -0.43859060031E+03  0.43859060031E+03  0.00000000000E+00 0.  1.
          6    1    1    2  501    0 -0.55836763300E+02 -0.42924394555E+02 -0.25291642671E+03  0.31386456742E+03  0.17200000000E+03 0. -1.
         -6    1    1    2    0  502  0.55836763300E+02  0.42924394555E+02 -0.99555411230E+02  0.21084479526E+03  0.17200000000E+03 0.  1.
<mgrwt>
<rscale>  2 0.18586083E+03</rscale>
<asrwt>0</asrwt>
<pdfrwt beam="1">  1       21 0.21529691E-01 0.18586083E+03</pdfrwt>
<pdfrwt beam="2">  1       21 0.10964765E+00 0.18586083E+03</pdfrwt>
<totfact> 0.13293705E+04</totfact>
</mgrwt>
</event>
<event>
 4    1  0.1116135E+000  0.4069489E+03  0.7546771E-02  0.1041400E+00
         21   -1    0    0  503  502  0.00000000000E+00  0.00000000000E+00  0.20845904842E+03  0.20845904842E+03  0.00000000000E+00 0.  1.
         21   -1    0    0  501  503 -0.00000000000E+00 -0.00000000000E+00 -0.16725532536E+04  0.16725532536E+04  0.00000000000E+00 0. -1.
          6    1    1    2  501    0  0.29704012688E+03  0.21861057035E+03 -0.14135188630E+04  0.14709326955E+04  0.17200000000E+03 0. -1.
         -6    1    1    2    0  502 -0.29704012688E+03 -0.21861057035E+03 -0.50575342107E+02  0.41007960651E+03  0.17200000000E+03 0. -1.
<mgrwt>
<rscale>  2 0.40694891E+03</rscale>
<asrwt>0</asrwt>
<pdfrwt beam="1">  1       21 0.52114763E-01 0.40694891E+03</pdfrwt>
<pdfrwt beam="2">  1       21 0.41813831E+00 0.40694891E+03</pdfrwt>
<totfact> 0.17609850E+01</totfact>
</mgrwt>
</event>
<event>
 4    1  0.1116135E+000  0.1784032E+03  0.7546771E-02  0.1169357E+00
         21   -1    0    0  501  502  0.00000000000E+00  0.00000000000E+00  0.57447557456E+02  0.57447557456E+02  0.00000000000E+00 0.  1.
         21   -1    0    0  502  503 -0.00000000000E+00 -0.00000000000E+00 -0.78240188051E+03  0.78240188051E+03  0.00000000000E+00 0.  1.
          6    1    1    2  501    0 -0.16915337762E+00  0.47367507760E+02 -0.13560711321E+03  0.22409149595E+03  0.17200000000E+03 0.  1.
         -6    1    1    2    0  503  0.16915337762E+00 -0.47367507760E+02 -0.58934720985E+03  0.61575794202E+03  0.17200000000E+03 0.  1.
<mgrwt>
<rscale>  2 0.17840322E+03</rscale>
<asrwt>0</asrwt>
<pdfrwt beam="1">  1       21 0.14361889E-01 0.17840322E+03</pdfrwt>
<pdfrwt beam="2">  1       21 0.19560047E+00 0.17840322E+03</pdfrwt>
<totfact> 0.61656250E+03</totfact>
</mgrwt>
</event>
<event>
 4    1  0.1116135E+000  0.1824477E+03  0.7546771E-02  0.1165455E+00
         21   -1    0    0  501  502  0.00000000000E+00  0.00000000000E+00  0.26070049626E+03  0.26070049626E+03  0.00000000000E+00 0. -1.
         21   -1    0    0  502  503 -0.00000000000E+00 -0.00000000000E+00 -0.17023895013E+03  0.17023895013E+03  0.00000000000E+00 0.  1.
          6    1    1    2  501    0 -0.25423718336E+01 -0.60800365448E+02  0.15296022607E+03  0.23808397437E+03  0.17200000000E+03 0. -1.
         -6    1    1    2    0  503  0.25423718336E+01  0.60800365448E+02 -0.62498679946E+02  0.19285547202E+03  0.17200000000E+03 0. -1.
<mgrwt>
<rscale>  2 0.18244766E+03</rscale>
<asrwt>0</asrwt>
<pdfrwt beam="1">  1       21 0.65175124E-01 0.18244766E+03</pdfrwt>
<pdfrwt beam="2">  1       21 0.42559738E-01 0.18244766E+03</pdfrwt>
<totfact> 0.11587035E+04</totfact>
</mgrwt>
</event>
<event>
 4    1  0.1116135E+000  0.2138089E+03  0.7546771E-02  0.1138585E+00
         21   -1    0    0  501  502  0.00000000000E+00  0.00000000000E+00  0.17335945978E+03  0.17335945978E+03  0.00000000000E+00 0. -1.
         21   -1    0    0  502  503 -0.00000000000E+00 -0.00000000000E+00 -0.54199615435E+03  0.54199615435E+03  0.00000000000E+00 0. -1.
          6    1    1    2  501    0  0.51156876616E+02  0.11624637396E+03 -0.44061940179E+03  0.48975473731E+03  0.17200000000E+03 0. -1.
         -6    1    1    2    0  503 -0.51156876616E+02 -0.11624637396E+03  0.71982707224E+02  0.22560087682E+03  0.17200000000E+03 0. -1.
<mgrwt>
<rscale>  2 0.21380890E+03</rscale>
<asrwt>0</asrwt>
<pdfrwt beam="1">  1       21 0.43339865E-01 0.21380890E+03</pdfrwt>
<pdfrwt beam="2">  1       21 0.13549904E+00 0.21380890E+03</pdfrwt>
<totfact> 0.19534819E+03</totfact>
</mgrwt>
</event>
<event>
 4    1  0.1116135E+000  0.1866867E+03  0.7546771E-02  0.1161484E+00
         21   -1    0    0  501  502  0.00000000000E+00  0.00000000000E+00  0.89919400452E+02  0.89919400452E+02  0.00000000000E+00 0.  1.
         21   -1    0    0  502  503 -0.00000000000E+00 -0.00000000000E+00 -0.77768679713E+03  0.77768679713E+03  0.00000000000E+00 0.  1.
          6    1    1    2  501    0  0.20784480162E+02  0.69540978425E+02 -0.36644960411E+02  0.19024929808E+03  0.17200000000E+03 0.  1.
         -6    1    1    2    0  503 -0.20784480162E+02 -0.69540978425E+02 -0.65112243627E+03  0.67735689951E+03  0.17200000000E+03 0.  1.
<mgrwt>
<rscale>  2 0.18668675E+03</rscale>
<asrwt>0</asrwt>
<pdfrwt beam="1">  1       21 0.22479850E-01 0.18668675E+03</pdfrwt>
<pdfrwt beam="2">  1       21 0.19442170E+00 0.18668675E+03</pdfrwt>
<totfact> 0.27202713E+03</totfact>
</mgrwt>
</event>
<event>
 4    1  0.1116135E+000  0.2599681E+03  0.7546771E-02  0.1107162E+00
         21   -1    0    0  501  502  0.00000000000E+00  0.00000000000E+00  0.24768373211E+03  0.24768373211E+03  0.00000000000E+00 0.  1.
         21   -1    0    0  502  503 -0.00000000000E+00 -0.00000000000E+00 -0.37387987848E+03  0.37387987848E+03  0.00000000000E+00 0. -1.
          6    1    1    2  501    0 -0.19490987578E+03 -0.30908527158E+01 -0.22464147666E+03  0.34357998499E+03  0.17200000000E+03 0. -1.
         -6    1    1    2    0  503  0.19490987578E+03  0.30908527158E+01  0.98445330295E+02  0.27798362561E+03  0.17200000000E+03 0.  1.
<mgrwt>
<rscale>  2 0.25996810E+03</rscale>
<asrwt>0</asrwt>
<pdfrwt beam="1">  1       21 0.61920934E-01 0.25996810E+03</pdfrwt>
<pdfrwt beam="2">  1       21 0.93469969E-01 0.25996810E+03</pdfrwt>
<totfact> 0.22098452E+03</totfact>
</mgrwt>
</event>
<event>
 4    1  0.1116135E+000  0.1725788E+03  0.7546771E-02  0.1175185E+00
         21   -1    0    0  503  502  0.00000000000E+00  0.00000000000E+00  0.40010364115E+03  0.40010364115E+03  0.00000000000E+00 0.  1.
         21   -1    0    0  501  503 -0.00000000000E+00 -0.00000000000E+00 -0.10093635485E+03  0.10093635485E+03  0.00000000000E+00 0.  1.
          6    1    1    2  501    0  0.10604077873E+02 -0.93264407873E+01  0.21227246507E+02  0.17387934023E+03  0.17200000000E+03 0.  1.
         -6    1    1    2    0  502 -0.10604077873E+02  0.93264407873E+01  0.27794003979E+03  0.32716065577E+03  0.17200000000E+03 0.  1.
<mgrwt>
<rscale>  2 0.17257876E+03</rscale>
<asrwt>0</asrwt>
<pdfrwt beam="1">  1       21 0.10002591E+00 0.17257876E+03</pdfrwt>
<pdfrwt beam="2">  1       21 0.25234090E-01 0.17257876E+03</pdfrwt>
<totfact> 0.12379683E+04</totfact>
</mgrwt>
</event>
<event>
 4    1  0.1116135E+000  0.2061498E+03  0.7546771E-02  0.1144652E+00
         21   -1    0    0  503  502  0.00000000000E+00  0.00000000000E+00  0.54710157708E+03  0.54710157708E+03  0.00000000000E+00 0. -1.
         21   -1    0    0  501  503 -0.00000000000E+00 -0.00000000000E+00 -0.81829133895E+02  0.81829133895E+02  0.00000000000E+00 0. -1.
          6    1    1    2  501    0 -0.78793640901E+02  0.81885823048E+02  0.16180820005E+03  0.26206796727E+03  0.17200000000E+03 0. -1.
         -6    1    1    2    0  502  0.78793640901E+02 -0.81885823048E+02  0.30346424313E+03  0.36686274371E+03  0.17200000000E+03 0. -1.
<mgrwt>
<rscale>  2 0.20614977E+03</rscale>
<asrwt>0</asrwt>
<pdfrwt beam="1">  1       21 0.13677538E+00 0.20614977E+03</pdfrwt>
<pdfrwt beam="2">  1       21 0.20457285E-01 0.20614977E+03</pdfrwt>
<totfact> 0.83224638E+03</totfact>
</mgrwt>
</event>
<event>
 4    1  0.1116135E+000  0.1991820E+03  0.7546771E-02  0.1150431E+00
         21   -1    0    0  503  502  0.00000000000E+00  0.00000000000E+00  0.50915916389E+03  0.50915916389E+03  0.00000000000E+00 0.  1.
         21   -1    0    0  501  503 -0.00000000000E+00 -0.00000000000E+00 -0.10605445797E+03  0.10605445797E+03  0.00000000000E+00 0.  1.
          6    1    1    2  501    0 -0.90660769994E+02 -0.43244512601E+02  0.43116276685E+02  0.20379518248E+03  0.17200000000E+03 0.  1.
         -6    1    1    2    0  502  0.90660769994E+02  0.43244512601E+02  0.35998842923E+03  0.41141843938E+03  0.17200000000E+03 0.  1.
<mgrwt>
<rscale>  2 0.19918198E+03</rscale>
<asrwt>0</asrwt>
<pdfrwt beam="1">  1       21 0.12728978E+00 0.19918198E+03</pdfrwt>
<pdfrwt beam="2">  1       21 0.26513616E-01 0.19918198E+03</pdfrwt>
<totfact> 0.61371288E+03</totfact>
</mgrwt>
</event>
<event>
 4    1  0.1116135E+000  0.1735972E+03  0.7546771E-02  0.1174148E+00
         21   -1    0    0  503  502  0.00000000000E+00  0.00000000000E+00  0.90926901824E+03  0.90926901824E+03  0.00000000000E+00 0. -1.
         21   -1    0    0  501  503 -0.00000000000E+00 -0.00000000000E+00 -0.35111239530E+02  0.35111239530E+02  0.00000000000E+00 0. -1.
          6    1    1    2  501    0  0.22936794137E+02  0.50868167305E+01  0.32528336772E+03  0.36870752847E+03  0.17200000000E+03 0. -1.
         -6    1    1    2    0  502 -0.22936794137E+02 -0.50868167305E+01  0.54887441099E+03  0.57567272931E+03  0.17200000000E+03 0. -1.
<mgrwt>
<rscale>  2 0.17359716E+03</rscale>
<asrwt>0</asrwt>
<pdfrwt beam="1">  1       21 0.22731718E+00 0.17359716E+03</pdfrwt>
<pdfrwt beam="2">  1       21 0.87778129E-02 0.17359716E+03</pdfrwt>
<totfact> 0.94330364E+03</totfact>
</mgrwt>
</event>
<event>
 4    1  0.1116135E+000  0.2073554E+03  0.7546771E-02  0.1143677E+00
         21   -1    0    0  501  502  0.00000000000E+00  0.00000000000E+00  0.22378947658E+03  0.22378947658E+03  0.00000000000E+00 0. -1.
         21   -1    0    0  502  503 -0.00000000000E+00 -0.00000000000E+00 -0.28042568042E+03  0.28042568042E+03  0.00000000000E+00 0. -1.
          6    1    1    2  501    0  0.13137320823E+02  0.11506379980E+03  0.11314760965E+03  0.23621737614E+03  0.17200000000E+03 0. -1.
         -6    1    1    2    0  503 -0.13137320823E+02 -0.11506379980E+03 -0.16978381348E+03  0.26799778085E+03  0.17200000000E+03 0. -1.
<mgrwt>
<rscale>  2 0.20735541E+03</rscale>
<asrwt>0</asrwt>
<pdfrwt beam="1">  1       21 0.55947370E-01 0.20735541E+03</pdfrwt>
<pdfrwt beam="2">  1       21 0.70106420E-01 0.20735541E+03</pdfrwt>
<totfact> 0.54938102E+03</totfact>
</mgrwt>
</event>
<event>
 4    1  0.1116135E+000  0.2159588E+03  0.7546771E-02  0.1136932E+00
         21   -1    0    0  503  502  0.00000000000E+00  0.00000000000E+00  0.62356128553E+03  0.62356128553E+03  0.00000000000E+00 0.  1.
         21   -1    0    0  501  503 -0.00000000000E+00 -0.00000000000E+00 -0.17420516143E+03  0.17420516143E+03  0.00000000000E+00 0.  1.
          6    1    1    2  501    0  0.72132384978E+02 -0.10886292163E+03 -0.76646357205E+02  0.22915689111E+03  0.17200000000E+03 0.  1.
         -6    1    1    2    0  502 -0.72132384978E+02  0.10886292163E+03  0.52600248131E+03  0.56860955585E+03  0.17200000000E+03 0.  1.
<mgrwt>
<rscale>  2 0.21595883E+03</rscale>
<asrwt>0</asrwt>
<pdfrwt beam="1">  1       21 0.15589032E+00 0.21595883E+03</pdfrwt>
<pdfrwt beam="2">  1       21 0.43551292E-01 0.21595883E+03</pdfrwt>
<totfact> 0.13368146E+03</totfact>
</mgrwt>
</event>
<event>
 4    1  0.1116135E+000  0.2323426E+03  0.7546771E-02  0.1125002E+00
         21   -1    0    0  501  502  0.00000000000E+00  0.00000000000E+00  0.15006770533E+03  0.15006770533E+03  0.00000000000E+00 0.  1.
         21   -1    0    0  502  503 -0.00000000000E+00 -0.00000000000E+00 -0.42944129228E+03  0.42944129228E+03  0.00000000000E+00 0.  1.
          6    1    1    2  501    0  0.15049994211E+03 -0.41819508894E+02 -0.22939866666E+02  0.23347235678E+03  0.17200000000E+03 0.  1.
         -6    1    1    2    0  503 -0.15049994211E+03  0.41819508894E+02 -0.25643372028E+03  0.34603664083E+03  0.17200000000E+03 0.  1.
<mgrwt>
<rscale>  2 0.23234264E+03</rscale>
<asrwt>0</asrwt>
<pdfrwt beam="1">  1       21 0.37516927E-01 0.23234264E+03</pdfrwt>
<pdfrwt beam="2">  1       21 0.10736032E+00 0.23234264E+03</pdfrwt>
<totfact> 0.46046947E+03</totfact>
</mgrwt>
</event>
<event>
 4    1  0.1116135E+000  0.1876827E+03  0.7546771E-02  0.1160568E+00
         21   -1    0    0  503  502  0.00000000000E+00  0.00000000000E+00  0.13822881388E+03  0.13822881388E+03  0.00000000000E+00 0. -1.
         21   -1    0    0  501  503 -0.00000000000E+00 -0.00000000000E+00 -0.35296849157E+03  0.35296849157E+03  0.00000000000E+00 0. -1.
          6    1    1    2  501    0 -0.74698248589E+02 -0.78078196786E+01 -0.23687248192E+03  0.30221410140E+03  0.17200000000E+03 0. -1.
         -6    1    1    2    0  502  0.74698248589E+02  0.78078196786E+01  0.22132804233E+02  0.18898320405E+03  0.17200000000E+03 0. -1.
<mgrwt>
<rscale>  2 0.18768269E+03</rscale>
<asrwt>0</asrwt>
<pdfrwt beam="1">  1       21 0.34557204E-01 0.18768269E+03</pdfrwt>
<pdfrwt beam="2">  1       21 0.88242122E-01 0.18768269E+03</pdfrwt>
<totfact> 0.89056236E+03</totfact>
</mgrwt>
</event>
<event>
 4    1  0.1116135E+000  0.2095994E+03  0.7546771E-02  0.1141884E+00
         21   -1    0    0  501  502  0.00000000000E+00  0.00000000000E+00  0.40436316973E+02  0.40436316973E+02  0.00000000000E+00 0. -1.
         21   -1    0    0  502  503 -0.00000000000E+00 -0.00000000000E+00 -0.17653141546E+04  0.17653141546E+04  0.00000000000E+00 0. -1.
          6    1    1    2  501    0 -0.41983692778E+02 -0.11218405489E+03 -0.30254040201E+03  0.36805242491E+03  0.17200000000E+03 0. -1.
         -6    1    1    2    0  503  0.41983692778E+02  0.11218405489E+03 -0.14223374356E+04  0.14376980467E+04  0.17200000000E+03 0. -1.
<mgrwt>
<rscale>  2 0.20959936E+03</rscale>
<asrwt>0</asrwt>
<pdfrwt beam="1">  1       21 0.10109080E-01 0.20959936E+03</pdfrwt>
<pdfrwt beam="2">  1       21 0.44132849E+00 0.20959936E+03</pdfrwt>
<totfact> 0.36749818E+02</totfact>
</mgrwt>
</event>
<event>
 4    1  0.1116135E+000  0.1957058E+03  0.7546771E-02  0.1153413E+00
         21   -1    0    0  501  502  0.00000000000E+00  0.00000000000E+00  0.22806497278E+03  0.22806497278E+03  0.00000000000E+00 0. -1.
         21   -1    0    0  502  503 -0.00000000000E+00 -0.00000000000E+00 -0.17093450631E+03  0.17093450631E+03  0.00000000000E+00 0.  1.
          6    1    1    2  501    0  0.86914082365E+02 -0.34098201046E+02  0.54979874071E+02  0.20328190175E+03  0.17200000000E+03 0. -1.
         -6    1    1    2    0  503 -0.86914082365E+02  0.34098201046E+02  0.21505923994E+01  0.19571757733E+03  0.17200000000E+03 0. -1.
<mgrwt>
<rscale>  2 0.19570576E+03</rscale>
<asrwt>0</asrwt>
<pdfrwt beam="1">  1       21 0.57016243E-01 0.19570576E+03</pdfrwt>
<pdfrwt beam="2">  1       21 0.42733627E-01 0.19570576E+03</pdfrwt>
<totfact> 0.15191913E+04</totfact>
</mgrwt>
</event>
<event>
 4    1  0.1116135E+000  0.2023869E+03  0.7546771E-02  0.1147741E+00
         21   -1    0    0  501  502  0.00000000000E+00  0.00000000000E+00  0.25032905271E+02  0.25032905271E+02  0.00000000000E+00 0.  1.
         21   -1    0    0  502  503 -0.00000000000E+00 -0.00000000000E+00 -0.16364753150E+04  0.16364753150E+04  0.00000000000E+00 0. -1.
          6    1    1    2  501    0  0.30656164100E+02 -0.10215991184E+03 -0.79628656592E+03  0.82160376280E+03  0.17200000000E+03 0. -1.
         -6    1    1    2    0  503 -0.30656164100E+02  0.10215991184E+03 -0.81515584384E+03  0.83990445750E+03  0.17200000000E+03 0.  1.
<mgrwt>
<rscale>  2 0.20238688E+03</rscale>
<asrwt>0</asrwt>
<pdfrwt beam="1">  1       21 0.62582268E-02 0.20238688E+03</pdfrwt>
<pdfrwt beam="2">  1       21 0.40911880E+00 0.20238688E+03</pdfrwt>
<totfact> 0.13814670E+03</totfact>
</mgrwt>
</event>
<event>
 4    1  0.1116135E+000  0.2937108E+03  0.7546771E-02  0.1088427E+00
         21   -1    0    0  501  502  0.00000000000E+00  0.00000000000E+00  0.70626654039E+03  0.70626654039E+03  0.00000000000E+00 0.  1.
         21   -1    0    0  502  503 -0.00000000000E+00 -0.00000000000E+00 -0.19661770706E+03  0.19661770706E+03  0.00000000000E+00 0.  1.
          6    1    1    2  501    0  0.14606070574E+03  0.18801140663E+03  0.53266333839E+03  0.60827317124E+03  0.17200000000E+03 0.  1.
         -6    1    1    2    0  503 -0.14606070574E+03 -0.18801140663E+03 -0.23014505058E+02  0.29461107621E+03  0.17200000000E+03 0.  1.
<mgrwt>
<rscale>  2 0.29371077E+03</rscale>
<asrwt>0</asrwt>
<pdfrwt beam="1">  1       21 0.17656663E+00 0.29371077E+03</pdfrwt>
<pdfrwt beam="2">  1       21 0.49154428E-01 0.29371077E+03</pdfrwt>
<totfact> 0.69120870E+02</totfact>
</mgrwt>
</event>
<event>
 4    1  0.1116135E+000  0.2640560E+03  0.7546771E-02  0.1104731E+00
         21   -1    0    0  501  502  0.00000000000E+00  0.00000000000E+00  0.13860933761E+03  0.13860933761E+03  0.00000000000E+00 0.  1.
         21   -1    0    0  502  503 -0.00000000000E+00 -0.00000000000E+00 -0.68680326455E+03  0.68680326455E+03  0.00000000000E+00 0. -1.
          6    1    1    2  501    0 -0.15184569042E+03  0.13070747170E+03 -0.60616369750E+02  0.27092416123E+03  0.17200000000E+03 0.  1.
         -6    1    1    2    0  503  0.15184569042E+03 -0.13070747170E+03 -0.48757755719E+03  0.55448844093E+03  0.17200000000E+03 0. -1.
<mgrwt>
<rscale>  2 0.26405597E+03</rscale>
<asrwt>0</asrwt>
<pdfrwt beam="1">  1       21 0.34652335E-01 0.26405597E+03</pdfrwt>
<pdfrwt beam="2">  1       21 0.17170081E+00 0.26405597E+03</pdfrwt>
<totfact> 0.15646539E+03</totfact>
</mgrwt>
</event>
<event>
 4    1  0.1116135E+000  0.1864055E+03  0.7546771E-02  0.1161744E+00
         21   -1    0    0  501  502  0.00000000000E+00  0.00000000000E+00  0.11490241821E+03  0.11490241821E+03  0.00000000000E+00 0.  1.
         21   -1    0    0  502  503 -0.00000000000E+00 -0.00000000000E+00 -0.47478845437E+03  0.47478845437E+03  0.00000000000E+00 0.  1.
          6    1    1    2  501    0 -0.58337529287E+02 -0.41949498124E+02 -0.22818381314E+01  0.18641951213E+03  0.17200000000E+03 0.  1.
         -6    1    1    2    0  503  0.58337529287E+02  0.41949498124E+02 -0.35760419802E+03  0.40327136045E+03  0.17200000000E+03 0.  1.
<mgrwt>
<rscale>  2 0.18640555E+03</rscale>
<asrwt>0</asrwt>
<pdfrwt beam="1">  1       21 0.28725605E-01 0.18640555E+03</pdfrwt>
<pdfrwt beam="2">  1       21 0.11869711E+00 0.18640555E+03</pdfrwt>
<totfact> 0.63217320E+03</totfact>
</mgrwt>
</event>
<event>
 4    1  0.1116135E+000  0.1843878E+03  0.7546771E-02  0.1163623E+00
         21   -1    0    0  503  502  0.00000000000E+00  0.00000000000E+00  0.11805963567E+03  0.11805963567E+03  0.00000000000E+00 0.  1.
         21   -1    0    0  501  503 -0.00000000000E+00 -0.00000000000E+00 -0.28815891428E+03  0.28815891428E+03  0.00000000000E+00 0. -1.
          6    1    1    2  501    0  0.66241140834E+02  0.51922203251E+01 -0.79992716780E+02  0.20099174766E+03  0.17200000000E+03 0.  1.
         -6    1    1    2    0  502 -0.66241140834E+02 -0.51922203251E+01 -0.90106561828E+02  0.20522680228E+03  0.17200000000E+03 0.  1.
<mgrwt>
<rscale>  2 0.18438777E+03</rscale>
<asrwt>0</asrwt>
<pdfrwt beam="1">  1       21 0.29514909E-01 0.18438777E+03</pdfrwt>
<pdfrwt beam="2">  1       21 0.72039728E-01 0.18438777E+03</pdfrwt>
<totfact> 0.19223475E+04</totfact>
</mgrwt>
</event>
<event>
 4    1  0.1116135E+000  0.2280009E+03  0.7546771E-02  0.1128055E+00
         21   -1    0    0  503  502  0.00000000000E+00  0.00000000000E+00  0.26058607822E+03  0.26058607822E+03  0.00000000000E+00 0. -1.
         21   -1    0    0  501  503 -0.00000000000E+00 -0.00000000000E+00 -0.20968936476E+03  0.20968936476E+03  0.00000000000E+00 0. -1.
          6    1    1    2  501    0  0.12156519358E+03  0.87305945197E+02 -0.26409178725E+02  0.22952531250E+03  0.17200000000E+03 0. -1.
         -6    1    1    2    0  502 -0.12156519358E+03 -0.87305945197E+02  0.77305892184E+02  0.24075013047E+03  0.17200000000E+03 0. -1.
<mgrwt>
<rscale>  2 0.22800093E+03</rscale>
<asrwt>0</asrwt>
<pdfrwt beam="1">  1       21 0.65146519E-01 0.22800093E+03</pdfrwt>
<pdfrwt beam="2">  1       21 0.52422341E-01 0.22800093E+03</pdfrwt>
<totfact> 0.73040282E+03</totfact>
</mgrwt>
</event>
<event>
 4    1  0.1116135E+000  0.1732115E+03  0.7546771E-02  0.1174540E+00
         21   -1    0    0  503  502  0.00000000000E+00  0.00000000000E+00  0.55451462064E+03  0.55451462064E+03  0.00000000000E+00 0.  1.
         21   -1    0    0  501  503 -0.00000000000E+00 -0.00000000000E+00 -0.10623931519E+03  0.10623931519E+03  0.00000000000E+00 0.  1.
          6    1    1    2  501    0  0.18708428906E+02  0.82599455786E+01 -0.72964356596E+01  0.17336513486E+03  0.17200000000E+03 0.  1.
         -6    1    1    2    0  502 -0.18708428906E+02 -0.82599455786E+01  0.45557174110E+03  0.48738880096E+03  0.17200000000E+03 0.  1.
<mgrwt>
<rscale>  2 0.17321152E+03</rscale>
<asrwt>0</asrwt>
<pdfrwt beam="1">  1       21 0.13862865E+00 0.17321152E+03</pdfrwt>
<pdfrwt beam="2">  1       21 0.26559830E-01 0.17321152E+03</pdfrwt>
<totfact> 0.50341138E+03</totfact>
</mgrwt>
</event>
<event>
 4    1  0.1116135E+000  0.1880229E+03  0.7546771E-02  0.1160257E+00
         21   -1    0    0  501  502  0.00000000000E+00  0.00000000000E+00  0.29431564212E+03  0.29431564212E+03  0.00000000000E+00 0.  1.
         21   -1    0    0  502  503 -0.00000000000E+00 -0.00000000000E+00 -0.12757937717E+03  0.12757937717E+03  0.00000000000E+00 0. -1.
          6    1    1    2  501    0  0.14842162924E+02 -0.74487161840E+02  0.32353870726E+02  0.19078626793E+03  0.17200000000E+03 0. -1.
         -6    1    1    2    0  503 -0.14842162924E+02  0.74487161840E+02  0.13438239422E+03  0.23110875136E+03  0.17200000000E+03 0.  1.
<mgrwt>
<rscale>  2 0.18802294E+03</rscale>
<asrwt>0</asrwt>
<pdfrwt beam="1">  1       21 0.73578909E-01 0.18802294E+03</pdfrwt>
<pdfrwt beam="2">  1       21 0.31894845E-01 0.18802294E+03</pdfrwt>
<totfact> 0.15730325E+04</totfact>
</mgrwt>
</event>
<event>
 4    1  0.1116135E+000  0.1955122E+03  0.7546771E-02  0.1153582E+00
         21   -1    0    0  501  502  0.00000000000E+00  0.00000000000E+00  0.16951509459E+03  0.16951509459E+03  0.00000000000E+00 0. -1.
         21   -1    0    0  502  503 -0.00000000000E+00 -0.00000000000E+00 -0.43206051500E+03  0.43206051500E+03  0.00000000000E+00 0. -1.
          6    1    1    2  501    0  0.65263146700E+01 -0.92727808241E+02  0.76704333247E+02  0.21002046077E+03  0.17200000000E+03 0. -1.
         -6    1    1    2    0  503 -0.65263146700E+01  0.92727808241E+02 -0.33924975366E+03  0.39155514881E+03  0.17200000000E+03 0. -1.
<mgrwt>
<rscale>  2 0.19551225E+03</rscale>
<asrwt>0</asrwt>
<pdfrwt beam="1">  1       21 0.42378774E-01 0.19551225E+03</pdfrwt>
<pdfrwt beam="2">  1       21 0.10801513E+00 0.19551225E+03</pdfrwt>
<totfact> 0.36476922E+03</totfact>
</mgrwt>
</event>
<event>
 4    1  0.1116135E+000  0.3227396E+03  0.7546771E-02  0.1074395E+00
         21   -1    0    0  501  502  0.00000000000E+00  0.00000000000E+00  0.49452073877E+03  0.49452073877E+03  0.00000000000E+00 0. -1.
         21   -1    0    0  502  503 -0.00000000000E+00 -0.00000000000E+00 -0.28154673657E+03  0.28154673657E+03  0.00000000000E+00 0. -1.
          6    1    1    2  501    0 -0.20586643372E+03 -0.17943199821E+03  0.30123323120E+03  0.44147739477E+03  0.17200000000E+03 0. -1.
         -6    1    1    2    0  503  0.20586643372E+03  0.17943199821E+03 -0.88259228992E+02  0.33459008057E+03  0.17200000000E+03 0. -1.
<mgrwt>
<rscale>  2 0.32273957E+03</rscale>
<asrwt>0</asrwt>
<pdfrwt beam="1">  1       21 0.12363018E+00 0.32273957E+03</pdfrwt>
<pdfrwt beam="2">  1       21 0.70386685E-01 0.32273957E+03</pdfrwt>
<totfact> 0.80834972E+02</totfact>
</mgrwt>
</event>
<event>
 4    1  0.1116135E+000  0.2233129E+03  0.7546771E-02  0.1131437E+00
         21   -1    0    0  503  502  0.00000000000E+00  0.00000000000E+00  0.38126415188E+03  0.38126415188E+03  0.00000000000E+00 0. -1.
         21   -1    0    0  501  503 -0.00000000000E+00 -0.00000000000E+00 -0.16609747251E+03  0.16609747251E+03  0.00000000000E+00 0. -1.
          6    1    1    2  501    0 -0.22055654134E+02 -0.14070600074E+03 -0.18583803230E+02  0.22408477919E+03  0.17200000000E+03 0. -1.
         -6    1    1    2    0  502  0.22055654134E+02  0.14070600074E+03  0.23375048260E+03  0.32327684520E+03  0.17200000000E+03 0. -1.
<mgrwt>
<rscale>  2 0.22331285E+03</rscale>
<asrwt>0</asrwt>
<pdfrwt beam="1">  1       21 0.95316036E-01 0.22331285E+03</pdfrwt>
<pdfrwt beam="2">  1       21 0.41524369E-01 0.22331285E+03</pdfrwt>
<totfact> 0.50151282E+03</totfact>
</mgrwt>
</event>
<event>
 4    1  0.1116135E+000  0.1807385E+03  0.7546771E-02  0.1167090E+00
         21   -1    0    0  503  502  0.00000000000E+00  0.00000000000E+00  0.84975499593E+02  0.84975499593E+02  0.00000000000E+00 0.  1.
         21   -1    0    0  501  503 -0.00000000000E+00 -0.00000000000E+00 -0.42770586019E+03  0.42770586019E+03  0.00000000000E+00 0.  1.
          6    1    1    2  501    0 -0.54634968507E+02  0.98703361752E+01 -0.25291270237E+03  0.31085565515E+03  0.17200000000E+03 0.  1.
         -6    1    1    2    0  502  0.54634968507E+02 -0.98703361752E+01 -0.89817658224E+02  0.20182570463E+03  0.17200000000E+03 0.  1.
<mgrwt>
<rscale>  2 0.18073849E+03</rscale>
<asrwt>0</asrwt>
<pdfrwt beam="1">  1       21 0.21243875E-01 0.18073849E+03</pdfrwt>
<pdfrwt beam="2">  1       21 0.10692646E+00 0.18073849E+03</pdfrwt>
<totfact> 0.14533056E+04</totfact>
</mgrwt>
</event>
<event>
 4    1  0.1116135E+000  0.1844243E+03  0.7546771E-02  0.1163589E+00
         21   -1    0    0  501  502  0.00000000000E+00  0.00000000000E+00  0.79561915661E+03  0.79561915661E+03  0.00000000000E+00 0. -1.
         21   -1    0    0  502  503 -0.00000000000E+00 -0.00000000000E+00 -0.66103727842E+02  0.66103727842E+02  0.00000000000E+00 0.  1.
          6    1    1    2  501    0 -0.49498733975E+02  0.44477123757E+02  0.62085631198E+03  0.64766881917E+03  0.17200000000E+03 0. -1.
         -6    1    1    2    0  503  0.49498733975E+02 -0.44477123757E+02  0.10865911679E+03  0.21405406528E+03  0.17200000000E+03 0.  1.
<mgrwt>
<rscale>  2 0.18442435E+03</rscale>
<asrwt>0</asrwt>
<pdfrwt beam="1">  1       21 0.19890476E+00 0.18442435E+03</pdfrwt>
<pdfrwt beam="2">  1       21 0.16525934E-01 0.18442435E+03</pdfrwt>
<totfact> 0.45196248E+03</totfact>
</mgrwt>
</event>
<event>
 4    1  0.1116135E+000  0.1729255E+03  0.7546771E-02  0.1174831E+00
         21   -1    0    0  501  502  0.00000000000E+00  0.00000000000E+00  0.16530093345E+03  0.16530093345E+03  0.00000000000E+00 0. -1.
         21   -1    0    0  502  503 -0.00000000000E+00 -0.00000000000E+00 -0.39842041647E+03  0.39842041647E+03  0.00000000000E+00 0. -1.
          6    1    1    2  501    0 -0.14248268601E+02 -0.10780876065E+02  0.91703146608E+02  0.19573632148E+03  0.17200000000E+03 0. -1.
         -6    1    1    2    0  503  0.14248268601E+02  0.10780876065E+02 -0.32482262962E+03  0.36798502845E+03  0.17200000000E+03 0. -1.
<mgrwt>
<rscale>  2 0.17292553E+03</rscale>
<asrwt>0</asrwt>
<pdfrwt beam="1">  1       21 0.41325234E-01 0.17292553E+03</pdfrwt>
<pdfrwt beam="2">  1       21 0.99605103E-01 0.17292553E+03</pdfrwt>
<totfact> 0.47496739E+03</totfact>
</mgrwt>
</event>
<event>
 4    1  0.1116135E+000  0.2344064E+03  0.7546771E-02  0.1123576E+00
         21   -1    0    0  503  502  0.00000000000E+00  0.00000000000E+00  0.13345288427E+03  0.13345288427E+03  0.00000000000E+00 0.  1.
         21   -1    0    0  501  503 -0.00000000000E+00 -0.00000000000E+00 -0.41543460252E+03  0.41543460252E+03  0.00000000000E+00 0.  1.
          6    1    1    2  501    0 -0.15816685680E+03  0.18590683662E+02 -0.16691207317E+03  0.28776033132E+03  0.17200000000E+03 0.  1.
         -6    1    1    2    0  502  0.15816685680E+03 -0.18590683662E+02 -0.11506964507E+03  0.26112715547E+03  0.17200000000E+03 0.  1.
<mgrwt>
<rscale>  2 0.23440642E+03</rscale>
<asrwt>0</asrwt>
<pdfrwt beam="1">  1       21 0.33363221E-01 0.23440642E+03</pdfrwt>
<pdfrwt beam="2">  1       21 0.10385865E+00 0.23440642E+03</pdfrwt>
<totfact> 0.62976622E+03</totfact>
</mgrwt>
</event>
<event>
 4    1  0.1116135E+000  0.1942862E+03  0.7546771E-02  0.1154651E+00
         21   -1    0    0  501  502  0.00000000000E+00  0.00000000000E+00  0.71648473801E+03  0.71648473801E+03  0.00000000000E+00 0. -1.
         21   -1    0    0  502  503 -0.00000000000E+00 -0.00000000000E+00 -0.77740603888E+02  0.77740603888E+02  0.00000000000E+00 0. -1.
          6    1    1    2  501    0  0.57950057065E+02  0.69317596495E+02  0.54482330834E+03  0.57842853976E+03  0.17200000000E+03 0. -1.
         -6    1    1    2    0  503 -0.57950057065E+02 -0.69317596495E+02  0.93920825782E+02  0.21579680214E+03  0.17200000000E+03 0. -1.
<mgrwt>
<rscale>  2 0.19428623E+03</rscale>
<asrwt>0</asrwt>
<pdfrwt beam="1">  1       21 0.17912116E+00 0.19428623E+03</pdfrwt>
<pdfrwt beam="2">  1       21 0.19435153E-01 0.19428623E+03</pdfrwt>
<totfact> 0.44858182E+03</totfact>
</mgrwt>
</event>
<event>
 4    1  0.1116135E+000  0.1852616E+03  0.7546771E-02  0.1162806E+00
         21   -1    0    0  503  502  0.00000000000E+00  0.00000000000E+00  0.32011967527E+03  0.32011967527E+03  0.00000000000E+00 0.  1.
         21   -1    0    0  501  503 -0.00000000000E+00 -0.00000000000E+00 -0.14827450243E+03  0.14827450243E+03  0.00000000000E+00 0.  1.
          6    1    1    2  501    0  0.17260235940E+02  0.66632999834E+02 -0.37317248296E+02  0.18898266966E+03  0.17200000000E+03 0.  1.
         -6    1    1    2    0  502 -0.17260235940E+02 -0.66632999834E+02  0.20916242113E+03  0.27941150804E+03  0.17200000000E+03 0.  1.
<mgrwt>
<rscale>  2 0.18526163E+03</rscale>
<asrwt>0</asrwt>
<pdfrwt beam="1">  1       21 0.80029918E-01 0.18526163E+03</pdfrwt>
<pdfrwt beam="2">  1       21 0.37068626E-01 0.18526163E+03</pdfrwt>
<totfact> 0.96950768E+03</totfact>
</mgrwt>
</event>
<event>
 4    1  0.1116135E+000  0.2086156E+03  0.7546771E-02  0.1142667E+00
         21   -1    0    0  501  502  0.00000000000E+00  0.00000000000E+00  0.31309760265E+03  0.31309760265E+03  0.00000000000E+00 0.  1.
         21   -1    0    0  502  503 -0.00000000000E+00 -0.00000000000E+00 -0.15651684459E+03  0.15651684459E+03  0.00000000000E+00 0.  1.
          6    1    1    2  501    0 -0.30569270885E+02 -0.11402629491E+03 -0.26255910237E+00  0.20861578366E+03  0.17200000000E+03 0.  1.
         -6    1    1    2    0  503  0.30569270885E+02  0.11402629491E+03  0.15684331716E+03  0.26099866358E+03  0.17200000000E+03 0.  1.
<mgrwt>
<rscale>  2 0.20861562E+03</rscale>
<asrwt>0</asrwt>
<pdfrwt beam="1">  1       21 0.78274400E-01 0.20861562E+03</pdfrwt>
<pdfrwt beam="2">  1       21 0.39129212E-01 0.20861562E+03</pdfrwt>
<totfact> 0.89961565E+03</totfact>
</mgrwt>
</event>
<event>
 4    1  0.1116135E+000  0.1752198E+03  0.7546771E-02  0.1172511E+00
         21   -1    0    0  501  502  0.00000000000E+00  0.00000000000E+00  0.87247807702E+03  0.87247807702E+03  0.00000000000E+00 0. -1.
         21   -1    0    0  502  503 -0.00000000000E+00 -0.00000000000E+00 -0.38933644551E+02  0.38933644551E+02  0.00000000000E+00 0. -1.
          6    1    1    2  501    0  0.17158450402E+02  0.28698063683E+02  0.55809215500E+03  0.58495200209E+03  0.17200000000E+03 0. -1.
         -6    1    1    2    0  503 -0.17158450402E+02 -0.28698063683E+02  0.27545227747E+03  0.32645971948E+03  0.17200000000E+03 0. -1.
<mgrwt>
<rscale>  2 0.17521984E+03</rscale>
<asrwt>0</asrwt>
<pdfrwt beam="1">  1       21 0.21811946E+00 0.17521984E+03</pdfrwt>
<pdfrwt beam="2">  1       21 0.97334140E-02 0.17521984E+03</pdfrwt>
<totfact> 0.89356754E+03</totfact>
</mgrwt>
</event>
<event>
 4    1  0.1116135E+000  0.1746407E+03  0.7546771E-02  0.1173093E+00
         21   -1    0    0  501  502  0.00000000000E+00  0.00000000000E+00  0.37221436995E+03  0.37221436995E+03  0.00000000000E+00 0. -1.
         21   -1    0    0  502  503 -0.00000000000E+00 -0.00000000000E+00 -0.98832819880E+02  0.98832819880E+02  0.00000000000E+00 0. -1.
          6    1    1    2  501    0  0.26956269444E+02  0.13737976464E+02  0.23406197417E+03  0.29203489553E+03  0.17200000000E+03 0. -1.
         -6    1    1    2    0  503 -0.26956269444E+02 -0.13737976464E+02  0.39319575904E+02  0.17901229430E+03  0.17200000000E+03 0. -1.
<mgrwt>
<rscale>  2 0.17464070E+03</rscale>
<asrwt>0</asrwt>
<pdfrwt beam="1">  1       21 0.93053589E-01 0.17464070E+03</pdfrwt>
<pdfrwt beam="2">  1       21 0.24708206E-01 0.17464070E+03</pdfrwt>
<totfact> 0.15239514E+04</totfact>
</mgrwt>
</event>
<event>
 4    1  0.1116135E+000  0.2103601E+03  0.7546771E-02  0.1141281E+00
         21   -1    0    0  503  502  0.00000000000E+00  0.00000000000E+00  0.92424373484E+02  0.92424373484E+02  0.00000000000E+00 0.  1.
         21   -1    0    0  501  503 -0.00000000000E+00 -0.00000000000E+00 -0.69533305696E+03  0.69533305696E+03  0.00000000000E+00 0.  1.
          6    1    1    2  501    0 -0.12098757391E+03  0.54194953941E+01 -0.52126242059E+03  0.56210841933E+03  0.17200000000E+03 0.  1.
         -6    1    1    2    0  502  0.12098757391E+03 -0.54194953941E+01 -0.81646262887E+02  0.22564901111E+03  0.17200000000E+03 0.  1.
<mgrwt>
<rscale>  2 0.21036008E+03</rscale>
<asrwt>0</asrwt>
<pdfrwt beam="1">  1       21 0.23106094E-01 0.21036008E+03</pdfrwt>
<pdfrwt beam="2">  1       21 0.17383326E+00 0.21036008E+03</pdfrwt>
<totfact> 0.34739536E+03</totfact>
</mgrwt>
</event>
<event>
 4    1  0.1116135E+000  0.2890282E+03  0.7546771E-02  0.1090858E+00
         21   -1    0    0  503  502  0.00000000000E+00  0.00000000000E+00  0.43956200288E+03  0.43956200288E+03  0.00000000000E+00 0.  1.
         21   -1    0    0  501  503 -0.00000000000E+00 -0.00000000000E+00 -0.19760078871E+03  0.19760078871E+03  0.00000000000E+00 0.  1.
          6    1    1    2  501    0 -0.23125625477E+03  0.21768189385E+02  0.18327041995E+03  0.34223581967E+03  0.17200000000E+03 0.  1.
         -6    1    1    2    0  502  0.23125625477E+03 -0.21768189385E+02  0.58690794229E+02  0.29492697192E+03  0.17200000000E+03 0.  1.
<mgrwt>
<rscale>  2 0.28902822E+03</rscale>
<asrwt>0</asrwt>
<pdfrwt beam="1">  1       21 0.10989050E+00 0.28902822E+03</pdfrwt>
<pdfrwt beam="2">  1       21 0.49400198E-01 0.28902822E+03</pdfrwt>
<totfact> 0.23823836E+03</totfact>
</mgrwt>
</event>
<event>
 4    1  0.1116135E+000  0.1726189E+03  0.7546771E-02  0.1175144E+00
         21   -1    0    0  503  502  0.00000000000E+00  0.00000000000E+00  0.36878446491E+03  0.36878446491E+03  0.00000000000E+00 0. -1.
         21   -1    0    0  501  503 -0.00000000000E+00 -0.00000000000E+00 -0.98445209195E+02  0.98445209195E+02  0.00000000000E+00 0. -1.
          6    1    1    2  501    0 -0.58465408396E+01 -0.13382585926E+02  0.36261148959E+02  0.17638635596E+03  0.17200000000E+03 0. -1.
         -6    1    1    2    0  502  0.58465408396E+01  0.13382585926E+02  0.23407810675E+03  0.29084331814E+03  0.17200000000E+03 0. -1.
<mgrwt>
<rscale>  2 0.17261887E+03</rscale>
<asrwt>0</asrwt>
<pdfrwt beam="1">  1       21 0.92196113E-01 0.17261887E+03</pdfrwt>
<pdfrwt beam="2">  1       21 0.24611303E-01 0.17261887E+03</pdfrwt>
<totfact> 0.15709105E+04</totfact>
</mgrwt>
</event>
<event>
 4    1  0.1116135E+000  0.1772343E+03  0.7546771E-02  0.1170507E+00
         21   -1    0    0  503  502  0.00000000000E+00  0.00000000000E+00  0.38565172972E+02  0.38565172972E+02  0.00000000000E+00 0.  1.
         21   -1    0    0  501  503 -0.00000000000E+00 -0.00000000000E+00 -0.16585516477E+04  0.16585516477E+04  0.00000000000E+00 0.  1.
          6    1    1    2  501    0  0.21030792941E+02  0.37225208178E+02 -0.14153302608E+04  0.14263841550E+04  0.17200000000E+03 0.  1.
         -6    1    1    2    0  502 -0.21030792941E+02 -0.37225208178E+02 -0.20465621385E+03  0.27073266564E+03  0.17200000000E+03 0.  1.
<mgrwt>
<rscale>  2 0.17723434E+03</rscale>
<asrwt>0</asrwt>
<pdfrwt beam="1">  1       21 0.96412935E-02 0.17723434E+03</pdfrwt>
<pdfrwt beam="2">  1       21 0.41463790E+00 0.17723434E+03</pdfrwt>
<totfact> 0.62657516E+02</totfact>
</mgrwt>
</event>
<event>
 4    1  0.1116135E+000  0.1783398E+03  0.7546771E-02  0.1169420E+00
         21   -1    0    0  503  502  0.00000000000E+00  0.00000000000E+00  0.18796208402E+04  0.18796208402E+04  0.00000000000E+00 0.  1.
         21   -1    0    0  501  503 -0.00000000000E+00 -0.00000000000E+00 -0.47585413934E+02  0.47585413934E+02  0.00000000000E+00 0.  1.
          6    1    1    2  501    0  0.36151988784E+01  0.46989468641E+02  0.14248523935E+03  0.22826984746E+03  0.17200000000E+03 0.  1.
         -6    1    1    2    0  502 -0.36151988784E+01 -0.46989468641E+02  0.16895501869E+04  0.16989364067E+04  0.17200000000E+03 0.  1.
<mgrwt>
<rscale>  2 0.17833979E+03</rscale>
<asrwt>0</asrwt>
<pdfrwt beam="1">  1       21 0.46990496E+00 0.17833979E+03</pdfrwt>
<pdfrwt beam="2">  1       21 0.11896360E-01 0.17833979E+03</pdfrwt>
<totfact> 0.18734409E+02</totfact>
</mgrwt>
</event>
<event>
 4    1  0.1116135E+000  0.1721360E+03  0.7546771E-02  0.1175638E+00
         21   -1    0    0  501  502  0.00000000000E+00  0.00000000000E+00  0.86774594304E+03  0.86774594304E+03  0.00000000000E+00 0.  1.
         21   -1    0    0  502  503 -0.00000000000E+00 -0.00000000000E+00 -0.36513175442E+02  0.36513175442E+02  0.00000000000E+00 0.  1.
          6    1    1    2  501    0  0.45482993098E+01  0.51112263219E+01  0.30051697211E+03  0.34632537040E+03  0.17200000000E+03 0.  1.
         -6    1    1    2    0  503 -0.45482993098E+01 -0.51112263219E+01  0.53071579549E+03  0.55793374807E+03  0.17200000000E+03 0.  1.
<mgrwt>
<rscale>  2 0.17213603E+03</rscale>
<asrwt>0</asrwt>
<pdfrwt beam="1">  1       21 0.21693642E+00 0.17213603E+03</pdfrwt>
<pdfrwt beam="2">  1       21 0.91282967E-02 0.17213603E+03</pdfrwt>
<totfact> 0.10199918E+04</totfact>
</mgrwt>
</event>
<event>
 4    1  0.1116135E+000  0.1796107E+03  0.7546771E-02  0.1168180E+00
         21   -1    0    0  503  502  0.00000000000E+00  0.00000000000E+00  0.26457978975E+03  0.26457978975E+03  0.00000000000E+00 0.  1.
         21   -1    0    0  501  503 -0.00000000000E+00 -0.00000000000E+00 -0.12193557859E+03  0.12193557859E+03  0.00000000000E+00 0.  1.
          6    1    1    2  501    0  0.28948846222E+02  0.42871496585E+02  0.72720360320E+02  0.19377371267E+03  0.17200000000E+03 0.  1.
         -6    1    1    2    0  502 -0.28948846222E+02 -0.42871496585E+02  0.69923850839E+02  0.19274165568E+03  0.17200000000E+03 0.  1.
<mgrwt>
<rscale>  2 0.17961069E+03</rscale>
<asrwt>0</asrwt>
<pdfrwt beam="1">  1       21 0.66144946E-01 0.17961069E+03</pdfrwt>
<pdfrwt beam="2">  1       21 0.30483895E-01 0.17961069E+03</pdfrwt>
<totfact> 0.21837549E+04</totfact>
</mgrwt>
</event>
<event>
 4    1  0.1116135E+000  0.1738253E+03  0.7546771E-02  0.1173916E+00
         21   -1    0    0  503  502  0.00000000000E+00  0.00000000000E+00  0.26022827297E+03  0.26022827297E+03  0.00000000000E+00 0. -1.
         21   -1    0    0  501  503 -0.00000000000E+00 -0.00000000000E+00 -0.15480546398E+03  0.15480546398E+03  0.00000000000E+00 0. -1.
          6    1    1    2  501    0 -0.23790933837E+02 -0.80771738359E+01 -0.51038373395E+02  0.18116336503E+03  0.17200000000E+03 0. -1.
         -6    1    1    2    0  502  0.23790933837E+02  0.80771738359E+01  0.15646118239E+03  0.23387037192E+03  0.17200000000E+03 0. -1.
<mgrwt>
<rscale>  2 0.17382534E+03</rscale>
<asrwt>0</asrwt>
<pdfrwt beam="1">  1       21 0.65057068E-01 0.17382534E+03</pdfrwt>
<pdfrwt beam="2">  1       21 0.38701366E-01 0.17382534E+03</pdfrwt>
<totfact> 0.14178266E+04</totfact>
</mgrwt>
</event>
<event>
 4    1  0.1116135E+000  0.2834765E+03  0.7546771E-02  0.1093805E+00
         21   -1    0    0  503  502  0.00000000000E+00  0.00000000000E+00  0.73723609539E+03  0.73723609539E+03  0.00000000000E+00 0. -1.
         21   -1    0    0  501  503 -0.00000000000E+00 -0.00000000000E+00 -0.12217723269E+03  0.12217723269E+03  0.00000000000E+00 0.  1.
          6    1    1    2  501    0 -0.12301395729E+02 -0.22499693231E+03  0.16641079479E+03  0.32871187460E+03  0.17200000000E+03 0.  1.
         -6    1    1    2    0  502  0.12301395729E+02  0.22499693231E+03  0.44864806791E+03  0.53070145347E+03  0.17200000000E+03 0. -1.
<mgrwt>
<rscale>  2 0.28347653E+03</rscale>
<asrwt>0</asrwt>
<pdfrwt beam="1">  1       21 0.18430901E+00 0.28347653E+03</pdfrwt>
<pdfrwt beam="2">  1       21 0.30544310E-01 0.28347653E+03</pdfrwt>
<totfact> 0.16190151E+03</totfact>
</mgrwt>
</event>
<event>
 4    1  0.1116135E+000  0.1953508E+03  0.7546771E-02  0.1153722E+00
         21   -1    0    0  501  502  0.00000000000E+00  0.00000000000E+00  0.17608557329E+03  0.17608557329E+03  0.00000000000E+00 0. -1.
         21   -1    0    0  502  503 -0.00000000000E+00 -0.00000000000E+00 -0.38123747837E+03  0.38123747837E+03  0.00000000000E+00 0. -1.
          6    1    1    2  501    0  0.70107878524E+02  0.60521376623E+02  0.80478414871E+02  0.21127878956E+03  0.17200000000E+03 0. -1.
         -6    1    1    2    0  503 -0.70107878524E+02 -0.60521376623E+02 -0.28563031994E+03  0.34604426210E+03  0.17200000000E+03 0. -1.
<mgrwt>
<rscale>  2 0.19535084E+03</rscale>
<asrwt>0</asrwt>
<pdfrwt beam="1">  1       21 0.44021394E-01 0.19535084E+03</pdfrwt>
<pdfrwt beam="2">  1       21 0.95309369E-01 0.19535084E+03</pdfrwt>
<totfact> 0.45475010E+03</totfact>
</mgrwt>
</event>
<event>
 4    1  0.1116135E+000  0.1762200E+03  0.7546771E-02  0.1171512E+00
         21   -1    0    0  501  502  0.00000000000E+00  0.00000000000E+00  0.22909696594E+02  0.22909696594E+02  0.00000000000E+00 0. -1.
         21   -1    0    0  502  503 -0.00000000000E+00 -0.00000000000E+00 -0.13555327480E+04  0.13555327480E+04  0.00000000000E+00 0. -1.
          6    1    1    2  501    0 -0.19715040565E+02 -0.32875845353E+02 -0.66178423974E+03  0.68484442321E+03  0.17200000000E+03 0.  1.
         -6    1    1    2    0  503  0.19715040565E+02  0.32875845353E+02 -0.67083881168E+03  0.69359802140E+03  0.17200000000E+03 0.  1.
<mgrwt>
<rscale>  2 0.17622004E+03</rscale>
<asrwt>0</asrwt>
<pdfrwt beam="1">  1       21 0.57274242E-02 0.17622004E+03</pdfrwt>
<pdfrwt beam="2">  1       21 0.33888318E+00 0.17622004E+03</pdfrwt>
<totfact> 0.44345443E+03</totfact>
</mgrwt>
</event>
<event>
 4    1  0.1116135E+000  0.1928506E+03  0.7546771E-02  0.1155915E+00
         21   -1    0    0  503  502  0.00000000000E+00  0.00000000000E+00  0.51985008190E+02  0.51985008190E+02  0.00000000000E+00 0.  1.
         21   -1    0    0  501  503 -0.00000000000E+00 -0.00000000000E+00 -0.73810244357E+03  0.73810244357E+03  0.00000000000E+00 0. -1.
          6    1    1    2  501    0 -0.10389490193E+02 -0.86599156384E+02 -0.41230355690E+03  0.45517642560E+03  0.17200000000E+03 0.  1.
         -6    1    1    2    0  502  0.10389490193E+02  0.86599156384E+02 -0.27381387848E+03  0.33491102616E+03  0.17200000000E+03 0.  1.
<mgrwt>
<rscale>  2 0.19285060E+03</rscale>
<asrwt>0</asrwt>
<pdfrwt beam="1">  1       21 0.12996252E-01 0.19285060E+03</pdfrwt>
<pdfrwt beam="2">  1       21 0.18452561E+00 0.19285060E+03</pdfrwt>
<totfact> 0.86240703E+03</totfact>
</mgrwt>
</event>
<event>
 4    1  0.1116135E+000  0.2192398E+03  0.7546771E-02  0.1134451E+00
         21   -1    0    0  503  502  0.00000000000E+00  0.00000000000E+00  0.13470270285E+03  0.13470270285E+03  0.00000000000E+00 0. -1.
         21   -1    0    0  501  503 -0.00000000000E+00 -0.00000000000E+00 -0.74721063946E+03  0.74721063946E+03  0.00000000000E+00 0. -1.
          6    1    1    2  501    0  0.12871312953E+03 -0.43760808404E+02 -0.62498038805E+03  0.66231907984E+03  0.17200000000E+03 0. -1.
         -6    1    1    2    0  502 -0.12871312953E+03  0.43760808404E+02  0.12472451445E+02  0.21959426247E+03  0.17200000000E+03 0. -1.
<mgrwt>
<rscale>  2 0.21923977E+03</rscale>
<asrwt>0</asrwt>
<pdfrwt beam="1">  1       21 0.33675676E-01 0.21923977E+03</pdfrwt>
<pdfrwt beam="2">  1       21 0.18680266E+00 0.21923977E+03</pdfrwt>
<totfact> 0.13538574E+03</totfact>
</mgrwt>
</event>
<event>
 4    1  0.1116135E+000  0.2442551E+03  0.7546771E-02  0.1116990E+00
         21   -1    0    0  501  502  0.00000000000E+00  0.00000000000E+00  0.55812780569E+02  0.55812780569E+02  0.00000000000E+00 0.  1.
         21   -1    0    0  502  503 -0.00000000000E+00 -0.00000000000E+00 -0.10894848410E+04  0.10894848410E+04  0.00000000000E+00 0. -1.
          6    1    1    2  501    0  0.85461194705E+02  0.15090712770E+03 -0.43820079930E+03  0.50167770282E+03  0.17200000000E+03 0.  1.
         -6    1    1    2    0  503 -0.85461194705E+02 -0.15090712770E+03 -0.59547126117E+03  0.64361991880E+03  0.17200000000E+03 0. -1.
<mgrwt>
<rscale>  2 0.24425515E+03</rscale>
<asrwt>0</asrwt>
<pdfrwt beam="1">  1       21 0.13953195E-01 0.24425515E+03</pdfrwt>
<pdfrwt beam="2">  1       21 0.27237121E+00 0.24425515E+03</pdfrwt>
<totfact> 0.20847552E+03</totfact>
</mgrwt>
</event>
<event>
 4    1  0.1116135E+000  0.2253469E+03  0.7546771E-02  0.1129958E+00
         21   -1    0    0  503  502  0.00000000000E+00  0.00000000000E+00  0.39689889291E+03  0.39689889291E+03  0.00000000000E+00 0.  1.
         21   -1    0    0  501  503 -0.00000000000E+00 -0.00000000000E+00 -0.23680077412E+03  0.23680077412E+03  0.00000000000E+00 0.  1.
          6    1    1    2  501    0  0.13420023973E+03 -0.56458244015E+02 -0.13477732314E+03  0.26257601660E+03  0.17200000000E+03 0.  1.
         -6    1    1    2    0  502 -0.13420023973E+03  0.56458244015E+02  0.29487544192E+03  0.37112365043E+03  0.17200000000E+03 0.  1.
<mgrwt>
<rscale>  2 0.22534693E+03</rscale>
<asrwt>0</asrwt>
<pdfrwt beam="1">  1       21 0.99224722E-01 0.22534693E+03</pdfrwt>
<pdfrwt beam="2">  1       21 0.59200194E-01 0.22534693E+03</pdfrwt>
<totfact> 0.21686555E+03</totfact>
</mgrwt>
</event>
<event>
 4    1  0.1116135E+000  0.3002940E+03  0.7546771E-02  0.1085094E+00
         21   -1    0    0  501  502  0.00000000000E+00  0.00000000000E+00  0.31717523741E+03  0.31717523741E+03  0.00000000000E+00 0.  1.
         21   -1    0    0  502  503 -0.00000000000E+00 -0.00000000000E+00 -0.29191540851E+03  0.29191540851E+03  0.00000000000E+00 0. -1.
          6    1    1    2  501    0  0.10942661828E+03 -0.22049557221E+03  0.61782860298E+02  0.30658376340E+03  0.17200000000E+03 0.  1.
         -6    1    1    2    0  503 -0.10942661828E+03  0.22049557221E+03 -0.36523031400E+02  0.30250688253E+03  0.17200000000E+03 0. -1.
<mgrwt>
<rscale>  2 0.30029399E+03</rscale>
<asrwt>0</asrwt>
<pdfrwt beam="1">  1       21 0.79293809E-01 0.30029399E+03</pdfrwt>
<pdfrwt beam="2">  1       21 0.72978852E-01 0.30029399E+03</pdfrwt>
<totfact> 0.21942509E+03</totfact>
</mgrwt>
</event>
<event>
 4    1  0.1116135E+000  0.1753555E+03  0.7546771E-02  0.1172375E+00
         21   -1    0    0  501  502  0.00000000000E+00  0.00000000000E+00  0.10253901052E+03  0.10253901052E+03  0.00000000000E+00 0.  1.
         21   -1    0    0  502  503 -0.00000000000E+00 -0.00000000000E+00 -0.42117914374E+03  0.42117914374E+03  0.00000000000E+00 0.  1.
          6    1    1    2  501    0  0.33458335083E+02  0.67878830100E+01 -0.18792774117E+02  0.17635958693E+03  0.17200000000E+03 0.  1.
         -6    1    1    2    0  503 -0.33458335083E+02 -0.67878830100E+01 -0.29984735910E+03  0.34735856733E+03  0.17200000000E+03 0.  1.
<mgrwt>
<rscale>  2 0.17535545E+03</rscale>
<asrwt>0</asrwt>
<pdfrwt beam="1">  1       21 0.25634753E-01 0.17535545E+03</pdfrwt>
<pdfrwt beam="2">  1       21 0.10529479E+00 0.17535545E+03</pdfrwt>
<totfact> 0.10608257E+04</totfact>
</mgrwt>
</event>
<event>
 4    1  0.1116135E+000  0.1755054E+03  0.7546771E-02  0.1172225E+00
         21   -1    0    0  503  502  0.00000000000E+00  0.00000000000E+00  0.78990667741E+02  0.78990667741E+02  0.00000000000E+00 0. -1.
         21   -1    0    0  501  503 -0.00000000000E+00 -0.00000000000E+00 -0.43574430346E+03  0.43574430346E+03  0.00000000000E+00 0. -1.
          6    1    1    2  501    0 -0.23750565145E+02  0.25574253942E+02 -0.26181412931E+03  0.31519639928E+03  0.17200000000E+03 0.  1.
         -6    1    1    2    0  502  0.23750565145E+02 -0.25574253942E+02 -0.94939506409E+02  0.19953857193E+03  0.17200000000E+03 0.  1.
<mgrwt>
<rscale>  2 0.17550536E+03</rscale>
<asrwt>0</asrwt>
<pdfrwt beam="1">  1       21 0.19747667E-01 0.17550536E+03</pdfrwt>
<pdfrwt beam="2">  1       21 0.10893607E+00 0.17550536E+03</pdfrwt>
<totfact> 0.15985190E+04</totfact>
</mgrwt>
</event>
<event>
 4    1  0.1116135E+000  0.2156700E+03  0.7546771E-02  0.1137153E+00
         21   -1    0    0  501  502  0.00000000000E+00  0.00000000000E+00  0.30810125900E+03  0.30810125900E+03  0.00000000000E+00 0.  1.
         21   -1    0    0  502  503 -0.00000000000E+00 -0.00000000000E+00 -0.19026367619E+03  0.19026367619E+03  0.00000000000E+00 0. -1.
          6    1    1    2  501    0  0.98306489289E+02 -0.85237225291E+02  0.17216137770E+03  0.27595849395E+03  0.17200000000E+03 0.  1.
         -6    1    1    2    0  503 -0.98306489289E+02  0.85237225291E+02 -0.54323794888E+02  0.22240644123E+03  0.17200000000E+03 0.  1.
<mgrwt>
<rscale>  2 0.21567000E+03</rscale>
<asrwt>0</asrwt>
<pdfrwt beam="1">  1       21 0.77025314E-01 0.21567000E+03</pdfrwt>
<pdfrwt beam="2">  1       21 0.47565919E-01 0.21567000E+03</pdfrwt>
<totfact> 0.62250187E+03</totfact>
</mgrwt>
</event>
<event>
 4    1  0.1116135E+000  0.1877274E+03  0.7546771E-02  0.1160527E+00
         21   -1    0    0  501  502  0.00000000000E+00  0.00000000000E+00  0.79723855931E+02  0.79723855931E+02  0.00000000000E+00 0. -1.
         21   -1    0    0  502  503 -0.00000000000E+00 -0.00000000000E+00 -0.44304333438E+03  0.44304333438E+03  0.00000000000E+00 0.  1.
          6    1    1    2  501    0  0.15919428112E+02 -0.73513008993E+02 -0.19406291187E+03  0.27000371191E+03  0.17200000000E+03 0. -1.
         -6    1    1    2    0  503 -0.15919428112E+02  0.73513008993E+02 -0.16925656659E+03  0.25276347840E+03  0.17200000000E+03 0. -1.
<mgrwt>
<rscale>  2 0.18772744E+03</rscale>
<asrwt>0</asrwt>
<pdfrwt beam="1">  1       21 0.19930964E-01 0.18772744E+03</pdfrwt>
<pdfrwt beam="2">  1       21 0.11076083E+00 0.18772744E+03</pdfrwt>
<totfact> 0.14970867E+04</totfact>
</mgrwt>
</event>
<event>
 4    1  0.1116135E+000  0.1875593E+03  0.7546771E-02  0.1160681E+00
         21   -1    0    0  503  502  0.00000000000E+00  0.00000000000E+00  0.14124841246E+03  0.14124841246E+03  0.00000000000E+00 0. -1.
         21   -1    0    0  501  503 -0.00000000000E+00 -0.00000000000E+00 -0.27228276616E+03  0.27228276616E+03  0.00000000000E+00 0. -1.
          6    1    1    2  501    0  0.14844165218E+02 -0.73308528874E+02 -0.12590936413E+03  0.22590187609E+03  0.17200000000E+03 0.  1.
         -6    1    1    2    0  502 -0.14844165218E+02  0.73308528874E+02 -0.51249895701E+01  0.18762930252E+03  0.17200000000E+03 0.  1.
<mgrwt>
<rscale>  2 0.18755930E+03</rscale>
<asrwt>0</asrwt>
<pdfrwt beam="1">  1       21 0.35312103E-01 0.18755930E+03</pdfrwt>
<pdfrwt beam="2">  1       21 0.68070691E-01 0.18755930E+03</pdfrwt>
<totfact> 0.15283829E+04</totfact>
</mgrwt>
</event>
<event>
 4    1  0.1116135E+000  0.1877400E+03  0.7546771E-02  0.1160516E+00
         21   -1    0    0  501  502  0.00000000000E+00  0.00000000000E+00  0.47025269712E+02  0.47025269712E+02  0.00000000000E+00 0. -1.
         21   -1    0    0  502  503 -0.00000000000E+00 -0.00000000000E+00 -0.91267937041E+03  0.91267937041E+03  0.00000000000E+00 0. -1.
          6    1    1    2  501    0  0.33002752848E+02 -0.67624937212E+02 -0.22993904644E+03  0.29684723159E+03  0.17200000000E+03 0. -1.
         -6    1    1    2    0  503 -0.33002752848E+02  0.67624937212E+02 -0.63571505426E+03  0.66285740853E+03  0.17200000000E+03 0. -1.
<mgrwt>
<rscale>  2 0.18774002E+03</rscale>
<asrwt>0</asrwt>
<pdfrwt beam="1">  1       21 0.11756317E-01 0.18774002E+03</pdfrwt>
<pdfrwt beam="2">  1       21 0.22816984E+00 0.18774002E+03</pdfrwt>
<totfact> 0.54875728E+03</totfact>
</mgrwt>
</event>
<event>
 4    1  0.1116135E+000  0.2497599E+03  0.7546771E-02  0.1113457E+00
         21   -1    0    0  503  502  0.00000000000E+00  0.00000000000E+00  0.11516324979E+03  0.11516324979E+03  0.00000000000E+00 0.  1.
         21   -1    0    0  501  503 -0.00000000000E+00 -0.00000000000E+00 -0.66618472789E+03  0.66618472789E+03  0.00000000000E+00 0. -1.
          6    1    1    2  501    0  0.15078336170E+03  0.10030146482E+03 -0.44441268861E+03  0.50978686115E+03  0.17200000000E+03 0. -1.
         -6    1    1    2    0  502 -0.15078336170E+03 -0.10030146482E+03 -0.10660878949E+03  0.27156111652E+03  0.17200000000E+03 0.  1.
<mgrwt>
<rscale>  2 0.24975990E+03</rscale>
<asrwt>0</asrwt>
<pdfrwt beam="1">  1       21 0.28790812E-01 0.24975990E+03</pdfrwt>
<pdfrwt beam="2">  1       21 0.16654618E+00 0.24975990E+03</pdfrwt>
<totfact> 0.24818388E+03</totfact>
</mgrwt>
</event>
<event>
 4    1  0.1116135E+000  0.1737341E+03  0.7546771E-02  0.1174009E+00
         21   -1    0    0  503  502  0.00000000000E+00  0.00000000000E+00  0.11331618116E+04  0.11331618116E+04  0.00000000000E+00 0. -1.
         21   -1    0    0  501  503 -0.00000000000E+00 -0.00000000000E+00 -0.28876748325E+02  0.28876748325E+02  0.00000000000E+00 0. -1.
          6    1    1    2  501    0 -0.98394619472E+01 -0.22421610153E+02  0.39031302082E+03  0.42723272094E+03  0.17200000000E+03 0. -1.
         -6    1    1    2    0  502  0.98394619472E+01  0.22421610153E+02  0.71397204248E+03  0.73480583902E+03  0.17200000000E+03 0. -1.
<mgrwt>
<rscale>  2 0.17373412E+03</rscale>
<asrwt>0</asrwt>
<pdfrwt beam="1">  1       21 0.28329030E+00 0.17373412E+03</pdfrwt>
<pdfrwt beam="2">  1       21 0.72191909E-02 0.17373412E+03</pdfrwt>
<totfact> 0.62430067E+03</totfact>
</mgrwt>
</event>
<event>
 4    1  0.1116135E+000  0.1816624E+03  0.7546771E-02  0.1166204E+00
         21   -1    0    0  501  502  0.00000000000E+00  0.00000000000E+00  0.86081835465E+03  0.86081835465E+03  0.00000000000E+00 0. -1.
         21   -1    0    0  502  503 -0.00000000000E+00 -0.00000000000E+00 -0.65757152708E+02  0.65757152708E+02  0.00000000000E+00 0. -1.
          6    1    1    2  501    0 -0.37653858699E+02 -0.44715015883E+02  0.69669766022E+03  0.71999227459E+03  0.17200000000E+03 0. -1.
         -6    1    1    2    0  503  0.37653858699E+02  0.44715015883E+02  0.98363541729E+02  0.20658323277E+03  0.17200000000E+03 0. -1.
<mgrwt>
<rscale>  2 0.18166245E+03</rscale>
<asrwt>0</asrwt>
<pdfrwt beam="1">  1       21 0.21520455E+00 0.18166245E+03</pdfrwt>
<pdfrwt beam="2">  1       21 0.16439291E-01 0.18166245E+03</pdfrwt>
<totfact> 0.36133924E+03</totfact>
</mgrwt>
</event>
<event>
 4    1  0.1116135E+000  0.2012956E+03  0.7546771E-02  0.1148651E+00
         21   -1    0    0  501  502  0.00000000000E+00  0.00000000000E+00  0.25636721099E+03  0.25636721099E+03  0.00000000000E+00 0.  1.
         21   -1    0    0  502  503 -0.00000000000E+00 -0.00000000000E+00 -0.15931852609E+03  0.15931852609E+03  0.00000000000E+00 0.  1.
          6    1    1    2  501    0 -0.10480634771E+02 -0.10404839307E+03  0.30008933787E+02  0.20352014130E+03  0.17200000000E+03 0.  1.
         -6    1    1    2    0  503  0.10480634771E+02  0.10404839307E+03  0.67039751111E+02  0.21216559579E+03  0.17200000000E+03 0.  1.
<mgrwt>
<rscale>  2 0.20129558E+03</rscale>
<asrwt>0</asrwt>
<pdfrwt beam="1">  1       21 0.64091802E-01 0.20129558E+03</pdfrwt>
<pdfrwt beam="2">  1       21 0.39829632E-01 0.20129558E+03</pdfrwt>
<totfact> 0.13576453E+04</totfact>
</mgrwt>
</event>
<event>
 4    1  0.1116135E+000  0.1820770E+03  0.7546771E-02  0.1165808E+00
         21   -1    0    0  501  502  0.00000000000E+00  0.00000000000E+00  0.41276505081E+03  0.41276505081E+03  0.00000000000E+00 0.  1.
         21   -1    0    0  502  503 -0.00000000000E+00 -0.00000000000E+00 -0.83694492673E+02  0.83694492673E+02  0.00000000000E+00 0.  1.
          6    1    1    2  501    0  0.14072559141E+02  0.58051751228E+02  0.11466935665E+03  0.21517691349E+03  0.17200000000E+03 0.  1.
         -6    1    1    2    0  503 -0.14072559141E+02 -0.58051751228E+02  0.21440120148E+03  0.28128263000E+03  0.17200000000E+03 0.  1.
<mgrwt>
<rscale>  2 0.18207702E+03</rscale>
<asrwt>0</asrwt>
<pdfrwt beam="1">  1       21 0.10319126E+00 0.18207702E+03</pdfrwt>
<pdfrwt beam="2">  1       21 0.20923624E-01 0.18207702E+03</pdfrwt>
<totfact> 0.16268248E+04</totfact>
</mgrwt>
</event>
<event>
 4    1  0.1116135E+000  0.1813982E+03  0.7546771E-02  0.1166457E+00
         21   -1    0    0  503  502  0.00000000000E+00  0.00000000000E+00  0.73873423237E+03  0.73873423237E+03  0.00000000000E+00 0.  1.
         21   -1    0    0  501  503 -0.00000000000E+00 -0.00000000000E+00 -0.47204706460E+02  0.47204706460E+02  0.00000000000E+00 0.  1.
          6    1    1    2  501    0  0.19468956693E+02  0.54242628324E+02  0.25244765995E+03  0.31086190506E+03  0.17200000000E+03 0.  1.
         -6    1    1    2    0  502 -0.19468956693E+02 -0.54242628324E+02  0.43908186597E+03  0.47507703378E+03  0.17200000000E+03 0.  1.
<mgrwt>
<rscale>  2 0.18139819E+03</rscale>
<asrwt>0</asrwt>
<pdfrwt beam="1">  1       21 0.18468352E+00 0.18139819E+03</pdfrwt>
<pdfrwt beam="2">  1       21 0.11801179E-01 0.18139819E+03</pdfrwt>
<totfact> 0.10324067E+04</totfact>
</mgrwt>
</event>
<event>
 4    1  0.1116135E+000  0.2685215E+03  0.7546771E-02  0.1102129E+00
         21   -1    0    0  503  502  0.00000000000E+00  0.00000000000E+00  0.14107837279E+03  0.14107837279E+03  0.00000000000E+00 0. -1.
         21   -1    0    0  501  503 -0.00000000000E+00 -0.00000000000E+00 -0.56319462831E+03  0.56319462831E+03  0.00000000000E+00 0. -1.
          6    1    1    2  501    0  0.14270351364E+03 -0.14884731243E+03 -0.31816513512E+03  0.41633264156E+03  0.17200000000E+03 0. -1.
         -6    1    1    2    0  502 -0.14270351364E+03  0.14884731243E+03 -0.10395112040E+03  0.28794035955E+03  0.17200000000E+03 0. -1.
<mgrwt>
<rscale>  2 0.26852154E+03</rscale>
<asrwt>0</asrwt>
<pdfrwt beam="1">  1       21 0.35269594E-01 0.26852154E+03</pdfrwt>
<pdfrwt beam="2">  1       21 0.14079866E+00 0.26852154E+03</pdfrwt>
<totfact> 0.25745304E+03</totfact>
</mgrwt>
</event>
<event>
 4    1  0.1116135E+000  0.1807511E+03  0.7546771E-02  0.1167078E+00
         21   -1    0    0  501  502  0.00000000000E+00  0.00000000000E+00  0.14663686681E+03  0.14663686681E+03  0.00000000000E+00 0. -1.
         21   -1    0    0  502  503 -0.00000000000E+00 -0.00000000000E+00 -0.23044174804E+03  0.23044174804E+03  0.00000000000E+00 0. -1.
          6    1    1    2  501    0  0.52166037495E+02 -0.19122757544E+02 -0.76231598216E+02  0.19616888614E+03  0.17200000000E+03 0. -1.
         -6    1    1    2    0  503 -0.52166037495E+02  0.19122757544E+02 -0.75732830188E+01  0.18090972870E+03  0.17200000000E+03 0. -1.
<mgrwt>
<rscale>  2 0.18075114E+03</rscale>
<asrwt>0</asrwt>
<pdfrwt beam="1">  1       21 0.36659217E-01 0.18075114E+03</pdfrwt>
<pdfrwt beam="2">  1       21 0.57610437E-01 0.18075114E+03</pdfrwt>
<totfact> 0.20428733E+04</totfact>
</mgrwt>
</event>
<event>
 4    1  0.1116135E+000  0.2075032E+03  0.7546771E-02  0.1143559E+00
         21   -1    0    0  501  502  0.00000000000E+00  0.00000000000E+00  0.38136388027E+03  0.38136388027E+03  0.00000000000E+00 0.  1.
         21   -1    0    0  502  503 -0.00000000000E+00 -0.00000000000E+00 -0.12595255485E+03  0.12595255485E+03  0.00000000000E+00 0.  1.
          6    1    1    2  501    0  0.10466765822E+03 -0.50182326208E+02  0.20934947834E+03  0.29476225780E+03  0.17200000000E+03 0.  1.
         -6    1    1    2    0  503 -0.10466765822E+03  0.50182326208E+02  0.46061847087E+02  0.21255417732E+03  0.17200000000E+03 0.  1.
<mgrwt>
<rscale>  2 0.20750322E+03</rscale>
<asrwt>0</asrwt>
<pdfrwt beam="1">  1       21 0.95340968E-01 0.20750322E+03</pdfrwt>
<pdfrwt beam="2">  1       21 0.31488140E-01 0.20750322E+03</pdfrwt>
<totfact> 0.88114310E+03</totfact>
</mgrwt>
</event>
<event>
 4    1  0.1116135E+000  0.2397694E+03  0.7546771E-02  0.1119947E+00
         21   -1    0    0  503  502  0.00000000000E+00  0.00000000000E+00  0.40244365619E+03  0.40244365619E+03  0.00000000000E+00 0. -1.
         21   -1    0    0  501  503 -0.00000000000E+00 -0.00000000000E+00 -0.20412178505E+03  0.20412178505E+03  0.00000000000E+00 0.  1.
          6    1    1    2  501    0 -0.16631716636E+03  0.15619269534E+02 -0.67000694537E+02  0.24895472375E+03  0.17200000000E+03 0. -1.
         -6    1    1    2    0  502  0.16631716636E+03 -0.15619269534E+02  0.26532256568E+03  0.35761071750E+03  0.17200000000E+03 0. -1.
<mgrwt>
<rscale>  2 0.23976939E+03</rscale>
<asrwt>0</asrwt>
<pdfrwt beam="1">  1       21 0.10061091E+00 0.23976939E+03</pdfrwt>
<pdfrwt beam="2">  1       21 0.51030447E-01 0.23976939E+03</pdfrwt>
<totfact> 0.28459560E+03</totfact>
</mgrwt>
</event>
<event>
 4    1  0.1116135E+000  0.1851209E+03  0.7546771E-02  0.1162937E+00
         21   -1    0    0  503  502  0.00000000000E+00  0.00000000000E+00  0.64277227995E+02  0.64277227995E+02  0.00000000000E+00 0.  1.
         21   -1    0    0  501  503 -0.00000000000E+00 -0.00000000000E+00 -0.54413969370E+03  0.54413969370E+03  0.00000000000E+00 0. -1.
          6    1    1    2  501    0  0.68333938968E+02  0.40269189924E+01 -0.28315320570E+03  0.33829791781E+03  0.17200000000E+03 0.  1.
         -6    1    1    2    0  502 -0.68333938968E+02 -0.40269189924E+01 -0.19670926000E+03  0.27011900389E+03  0.17200000000E+03 0.  1.
<mgrwt>
<rscale>  2 0.18512089E+03</rscale>
<asrwt>0</asrwt>
<pdfrwt beam="1">  1       21 0.16069307E-01 0.18512089E+03</pdfrwt>
<pdfrwt beam="2">  1       21 0.13603492E+00 0.18512089E+03</pdfrwt>
<totfact> 0.13398599E+04</totfact>
</mgrwt>
</event>
<event>
 4    1  0.1116135E+000  0.1833342E+03  0.7546771E-02  0.1164615E+00
         21   -1    0    0  503  502  0.00000000000E+00  0.00000000000E+00  0.29568459088E+02  0.29568459088E+02  0.00000000000E+00 0. -1.
         21   -1    0    0  501  503 -0.00000000000E+00 -0.00000000000E+00 -0.11846413237E+04  0.11846413237E+04  0.00000000000E+00 0. -1.
          6    1    1    2  501    0 -0.54056591816E+02 -0.33246186696E+02 -0.45544681936E+03  0.49096153547E+03  0.17200000000E+03 0. -1.
         -6    1    1    2    0  502  0.54056591816E+02  0.33246186696E+02 -0.69962604521E+03  0.72324824727E+03  0.17200000000E+03 0. -1.
<mgrwt>
<rscale>  2 0.18333419E+03</rscale>
<asrwt>0</asrwt>
<pdfrwt beam="1">  1       21 0.73921158E-02 0.18333419E+03</pdfrwt>
<pdfrwt beam="2">  1       21 0.29616029E+00 0.18333419E+03</pdfrwt>
<totfact> 0.49988763E+03</totfact>
</mgrwt>
</event>
<event>
 4    1  0.1116135E+000  0.2912878E+03  0.7546771E-02  0.1089679E+00
         21   -1    0    0  503  502  0.00000000000E+00  0.00000000000E+00  0.52907061684E+03  0.52907061684E+03  0.00000000000E+00 0.  1.
         21   -1    0    0  501  503 -0.00000000000E+00 -0.00000000000E+00 -0.17844648056E+03  0.17844648056E+03  0.00000000000E+00 0.  1.
          6    1    1    2  501    0 -0.86947326533E+02 -0.21841410237E+03  0.62728304408E+02  0.29796543067E+03  0.17200000000E+03 0.  1.
         -6    1    1    2    0  502  0.86947326533E+02  0.21841410237E+03  0.28789583187E+03  0.40955166672E+03  0.17200000000E+03 0.  1.
<mgrwt>
<rscale>  2 0.29128776E+03</rscale>
<asrwt>0</asrwt>
<pdfrwt beam="1">  1       21 0.13226765E+00 0.29128776E+03</pdfrwt>
<pdfrwt beam="2">  1       21 0.44611621E-01 0.29128776E+03</pdfrwt>
<totfact> 0.18487806E+03</totfact>
</mgrwt>
</event>
<event>
 4    1  0.1116135E+000  0.1907599E+03  0.7546771E-02  0.1157778E+00
         21   -1    0    0  501  502  0.00000000000E+00  0.00000000000E+00  0.40213267064E+03  0.40213267064E+03  0.00000000000E+00 0. -1.
         21   -1    0    0  502  503 -0.00000000000E+00 -0.00000000000E+00 -0.26634523961E+03  0.26634523961E+03  0.00000000000E+00 0. -1.
          6    1    1    2  501    0 -0.62282363387E+02  0.54094815039E+02  0.33948207845E+03  0.38940650148E+03  0.17200000000E+03 0. -1.
         -6    1    1    2    0  503  0.62282363387E+02 -0.54094815039E+02 -0.20369464742E+03  0.27907140877E+03  0.17200000000E+03 0. -1.
<mgrwt>
<rscale>  2 0.19075991E+03</rscale>
<asrwt>0</asrwt>
<pdfrwt beam="1">  1       21 0.10053317E+00 0.19075991E+03</pdfrwt>
<pdfrwt beam="2">  1       21 0.66586310E-01 0.19075991E+03</pdfrwt>
<totfact> 0.16793495E+03</totfact>
</mgrwt>
</event>
<event>
 4    1  0.1116135E+000  0.1783099E+03  0.7546771E-02  0.1169449E+00
         21   -1    0    0  503  502  0.00000000000E+00  0.00000000000E+00  0.12488466845E+03  0.12488466845E+03  0.00000000000E+00 0. -1.
         21   -1    0    0  501  503 -0.00000000000E+00 -0.00000000000E+00 -0.37673943443E+03  0.37673943443E+03  0.00000000000E+00 0. -1.
          6    1    1    2  501    0  0.63935146196E+01 -0.46578267572E+02 -0.26874219218E+03  0.32251632191E+03  0.17200000000E+03 0. -1.
         -6    1    1    2    0  502 -0.63935146196E+01  0.46578267572E+02  0.16887426197E+02  0.17910778097E+03  0.17200000000E+03 0. -1.
<mgrwt>
<rscale>  2 0.17830988E+03</rscale>
<asrwt>0</asrwt>
<pdfrwt beam="1">  1       21 0.31221167E-01 0.17830988E+03</pdfrwt>
<pdfrwt beam="2">  1       21 0.94184858E-01 0.17830988E+03</pdfrwt>
<totfact> 0.94136111E+03</totfact>
</mgrwt>
</event>
