<event>
 4    1  0.4690138E-002  0.4842668E+03  0.7818608E-02  0.1017969E+00
         21   -1    0    0  503  502  0.00000000000E+00  0.00000000000E+00  0.11528194939E+04  0.11528194939E+04  0.00000000000E+00 0.  1.
         21   -1    0    0  501  503 -0.00000000000E+00 -0.00000000000E+00 -0.22793732911E+03  0.22793732911E+03  0.00000000000E+00 0. -1.
    9000007    1    1    2  501    0 -0.25274760018E+03 -0.10311614758E+03  0.23605145751E+03  0.53873423864E+03  0.40000000000E+03 0.  1.
   -9000007    1    1    2    0  502  0.25274760018E+03  0.10311614758E+03  0.68883070726E+03  0.84202258435E+03  0.40000000000E+03 0.  1.
<mgrwt>
<rscale>  2 0.48426675E+03</rscale>
<asrwt>0</asrwt>
<pdfrwt beam="1">  1       21 0.17735684E+00 0.48426675E+03</pdfrwt>
<pdfrwt beam="2">  1       21 0.35067282E-01 0.48426675E+03</pdfrwt>
<totfact> 0.12359907E+03</totfact>
</mgrwt>
</event>
<event>
 4    1  0.4690138E-002  0.4396410E+03  0.7818608E-02  0.1030857E+00
         21   -1    0    0  503  502  0.00000000000E+00  0.00000000000E+00  0.94923032136E+03  0.94923032136E+03  0.00000000000E+00 0. -1.
         21   -1    0    0  501  503 -0.00000000000E+00 -0.00000000000E+00 -0.22985659286E+03  0.22985659286E+03  0.00000000000E+00 0. -1.
    9000007    1    1    2  501    0 -0.16745428921E+03  0.72410272395E+02  0.55885709121E+03  0.71105937510E+03  0.40000000000E+03 0. -1.
   -9000007    1    1    2    0  502  0.16745428921E+03 -0.72410272395E+02  0.16051663730E+03  0.46802753912E+03  0.40000000000E+03 0. -1.
<mgrwt>
<rscale>  2 0.43964097E+03</rscale>
<asrwt>0</asrwt>
<pdfrwt beam="1">  1       21 0.14603543E+00 0.43964097E+03</pdfrwt>
<pdfrwt beam="2">  1       21 0.35362553E-01 0.43964097E+03</pdfrwt>
<totfact> 0.21293997E+03</totfact>
</mgrwt>
</event>
<event>
 4    1  0.4690138E-002  0.4195998E+03  0.7818608E-02  0.1037197E+00
         21   -1    0    0  503  502  0.00000000000E+00  0.00000000000E+00  0.10068920767E+04  0.10068920767E+04  0.00000000000E+00 0. -1.
         21   -1    0    0  501  503 -0.00000000000E+00 -0.00000000000E+00 -0.21376410139E+03  0.21376410139E+03  0.00000000000E+00 0. -1.
    9000007    1    1    2  501    0  0.50789239141E+01 -0.12664187827E+03  0.13618840827E+03  0.44114764348E+03  0.40000000000E+03 0. -1.
   -9000007    1    1    2    0  502 -0.50789239141E+01  0.12664187827E+03  0.65693956708E+03  0.77950853465E+03  0.40000000000E+03 0. -1.
<mgrwt>
<rscale>  2 0.41959976E+03</rscale>
<asrwt>0</asrwt>
<pdfrwt beam="1">  1       21 0.15490647E+00 0.41959976E+03</pdfrwt>
<pdfrwt beam="2">  1       21 0.32886785E-01 0.41959976E+03</pdfrwt>
<totfact> 0.21177596E+03</totfact>
</mgrwt>
</event>
<event>
 4    1  0.4690138E-002  0.5095349E+03  0.7818608E-02  0.1011320E+00
         21   -1    0    0  503  502  0.00000000000E+00  0.00000000000E+00  0.17437278975E+03  0.17437278975E+03  0.00000000000E+00 0.  1.
         21   -1    0    0  501  503 -0.00000000000E+00 -0.00000000000E+00 -0.14935557572E+04  0.14935557572E+04  0.00000000000E+00 0.  1.
    9000007    1    1    2  501    0  0.18056385127E+03  0.25888697282E+03 -0.70609260724E+03  0.87074252169E+03  0.40000000000E+03 0.  1.
   -9000007    1    1    2    0  502 -0.18056385127E+03 -0.25888697282E+03 -0.61309036017E+03  0.79718602522E+03  0.40000000000E+03 0.  1.
<mgrwt>
<rscale>  2 0.50953486E+03</rscale>
<asrwt>0</asrwt>
<pdfrwt beam="1">  1       21 0.26826583E-01 0.50953486E+03</pdfrwt>
<pdfrwt beam="2">  1       21 0.22977781E+00 0.50953486E+03</pdfrwt>
<totfact> 0.93356100E+02</totfact>
</mgrwt>
</event>
<event>
 4    1  0.4690138E-002  0.4677952E+03  0.7818608E-02  0.1022544E+00
         21   -1    0    0  503  502  0.00000000000E+00  0.00000000000E+00  0.58936022213E+03  0.58936022213E+03  0.00000000000E+00 0.  1.
         21   -1    0    0  501  503 -0.00000000000E+00 -0.00000000000E+00 -0.38475165558E+03  0.38475165558E+03  0.00000000000E+00 0.  1.
    9000007    1    1    2  501    0 -0.22253710121E+03 -0.96486104714E+02  0.11250586351E+02  0.46793044944E+03  0.40000000000E+03 0.  1.
   -9000007    1    1    2    0  502  0.22253710121E+03  0.96486104714E+02  0.19335798019E+03  0.50618142827E+03  0.40000000000E+03 0.  1.
<mgrwt>
<rscale>  2 0.46779518E+03</rscale>
<asrwt>0</asrwt>
<pdfrwt beam="1">  1       21 0.90670803E-01 0.46779518E+03</pdfrwt>
<pdfrwt beam="2">  1       21 0.59192562E-01 0.46779518E+03</pdfrwt>
<totfact> 0.23709038E+03</totfact>
</mgrwt>
</event>
<event>
 4    1  0.4690138E-002  0.7598197E+03  0.7818608E-02  0.9620070E-01
         21   -1    0    0  501  502  0.00000000000E+00  0.00000000000E+00  0.25088242266E+03  0.25088242266E+03  0.00000000000E+00 0. -1.
         21   -1    0    0  502  503 -0.00000000000E+00 -0.00000000000E+00 -0.23125246909E+04  0.23125246909E+04  0.00000000000E+00 0. -1.
    9000007    1    1    2  501    0 -0.40007731459E+03  0.50721209277E+03 -0.11205875589E+04  0.13538989777E+04  0.40000000000E+03 0. -1.
   -9000007    1    1    2    0  503  0.40007731459E+03 -0.50721209277E+03 -0.94105470938E+03  0.12095081359E+04  0.40000000000E+03 0. -1.
<mgrwt>
<rscale>  2 0.75981969E+03</rscale>
<asrwt>0</asrwt>
<pdfrwt beam="1">  1       21 0.38597296E-01 0.75981969E+03</pdfrwt>
<pdfrwt beam="2">  1       21 0.35577302E+00 0.75981969E+03</pdfrwt>
<totfact> 0.67554852E+01</totfact>
</mgrwt>
</event>
<event>
 4    1  0.4690138E-002  0.4554623E+03  0.7818608E-02  0.1026106E+00
         21   -1    0    0  503  502  0.00000000000E+00  0.00000000000E+00  0.66180302743E+03  0.66180302743E+03  0.00000000000E+00 0.  1.
         21   -1    0    0  501  503 -0.00000000000E+00 -0.00000000000E+00 -0.31573246114E+03  0.31573246114E+03  0.00000000000E+00 0. -1.
    9000007    1    1    2  501    0 -0.21596625740E+03  0.28363692165E+02  0.13153005679E+03  0.47407391745E+03  0.40000000000E+03 0. -1.
   -9000007    1    1    2    0  502  0.21596625740E+03 -0.28363692165E+02  0.21454050951E+03  0.50346157112E+03  0.40000000000E+03 0.  1.
<mgrwt>
<rscale>  2 0.45546232E+03</rscale>
<asrwt>0</asrwt>
<pdfrwt beam="1">  1       21 0.10181585E+00 0.45546232E+03</pdfrwt>
<pdfrwt beam="2">  1       21 0.48574225E-01 0.45546232E+03</pdfrwt>
<totfact> 0.27569864E+03</totfact>
</mgrwt>
</event>
<event>
 4    1  0.4690138E-002  0.4435343E+03  0.7818608E-02  0.1029668E+00
         21   -1    0    0  501  502  0.00000000000E+00  0.00000000000E+00  0.13720359679E+04  0.13720359679E+04  0.00000000000E+00 0. -1.
         21   -1    0    0  502  503 -0.00000000000E+00 -0.00000000000E+00 -0.17433752844E+03  0.17433752844E+03  0.00000000000E+00 0. -1.
    9000007    1    1    2  501    0  0.46514279477E+02  0.18590075872E+03  0.92466440125E+03  0.10255373836E+04  0.40000000000E+03 0. -1.
   -9000007    1    1    2    0  503 -0.46514279477E+02 -0.18590075872E+03  0.27303403823E+03  0.52083611273E+03  0.40000000000E+03 0. -1.
<mgrwt>
<rscale>  2 0.44353429E+03</rscale>
<asrwt>0</asrwt>
<pdfrwt beam="1">  1       21 0.21108245E+00 0.44353429E+03</pdfrwt>
<pdfrwt beam="2">  1       21 0.26821159E-01 0.44353429E+03</pdfrwt>
<totfact> 0.12672966E+03</totfact>
</mgrwt>
</event>
<event>
 4    1  0.4690138E-002  0.5748874E+03  0.7818608E-02  0.9958921E-01
         21   -1    0    0  503  502  0.00000000000E+00  0.00000000000E+00  0.14304100236E+04  0.14304100236E+04  0.00000000000E+00 0.  1.
         21   -1    0    0  501  503 -0.00000000000E+00 -0.00000000000E+00 -0.24380516408E+03  0.24380516408E+03  0.00000000000E+00 0. -1.
    9000007    1    1    2  501    0  0.40336664208E+03 -0.88265857798E+02  0.40182768418E+03  0.70139931378E+03  0.40000000000E+03 0.  1.
   -9000007    1    1    2    0  502 -0.40336664208E+03  0.88265857798E+02  0.78477717535E+03  0.97281587392E+03  0.40000000000E+03 0.  1.
<mgrwt>
<rscale>  2 0.57488739E+03</rscale>
<asrwt>0</asrwt>
<pdfrwt beam="1">  1       21 0.22006308E+00 0.57488739E+03</pdfrwt>
<pdfrwt beam="2">  1       21 0.37508488E-01 0.57488739E+03</pdfrwt>
<totfact> 0.53516752E+02</totfact>
</mgrwt>
</event>
<event>
 4    1  0.4690138E-002  0.4646496E+03  0.7818608E-02  0.1023441E+00
         21   -1    0    0  503  502  0.00000000000E+00  0.00000000000E+00  0.19200683625E+03  0.19200683625E+03  0.00000000000E+00 0.  1.
         21   -1    0    0  501  503 -0.00000000000E+00 -0.00000000000E+00 -0.11428602599E+04  0.11428602599E+04  0.00000000000E+00 0. -1.
    9000007    1    1    2  501    0 -0.22140699879E+03  0.82934600542E+02 -0.56017252818E+03  0.72779974472E+03  0.40000000000E+03 0. -1.
   -9000007    1    1    2    0  502  0.22140699879E+03 -0.82934600542E+02 -0.39068089544E+03  0.60706735141E+03  0.40000000000E+03 0.  1.
<mgrwt>
<rscale>  2 0.46464955E+03</rscale>
<asrwt>0</asrwt>
<pdfrwt beam="1">  1       21 0.29539514E-01 0.46464955E+03</pdfrwt>
<pdfrwt beam="2">  1       21 0.17582465E+00 0.46464955E+03</pdfrwt>
<totfact> 0.18023810E+03</totfact>
</mgrwt>
</event>
<event>
 4    1  0.4690138E-002  0.4539941E+03  0.7818608E-02  0.1026538E+00
         21   -1    0    0  503  502  0.00000000000E+00  0.00000000000E+00  0.31686193909E+04  0.31686193909E+04  0.00000000000E+00 0.  1.
         21   -1    0    0  501  503 -0.00000000000E+00 -0.00000000000E+00 -0.18696385582E+03  0.18696385582E+03  0.00000000000E+00 0. -1.
    9000007    1    1    2  501    0  0.19368389408E+03  0.92721171493E+02  0.13598081682E+03  0.47392135320E+03  0.40000000000E+03 0. -1.
   -9000007    1    1    2    0  502 -0.19368389408E+03 -0.92721171493E+02  0.28456747182E+04  0.28816618935E+04  0.40000000000E+03 0.  1.
<mgrwt>
<rscale>  2 0.45399413E+03</rscale>
<asrwt>0</asrwt>
<pdfrwt beam="1">  1       21 0.48747987E+00 0.45399413E+03</pdfrwt>
<pdfrwt beam="2">  1       21 0.28763672E-01 0.45399413E+03</pdfrwt>
<totfact> 0.19416574E+01</totfact>
</mgrwt>
</event>
<event>
 4    1  0.4690138E-002  0.4002790E+03  0.7818608E-02  0.1043683E+00
         21   -1    0    0  503  502  0.00000000000E+00  0.00000000000E+00  0.60041389715E+03  0.60041389715E+03  0.00000000000E+00 0.  1.
         21   -1    0    0  501  503 -0.00000000000E+00 -0.00000000000E+00 -0.30259333699E+03  0.30259333699E+03  0.00000000000E+00 0.  1.
    9000007    1    1    2  501    0  0.14873030331E+02 -0.14404226816E+01 -0.62571010424E+01  0.40032790705E+03  0.40000000000E+03 0.  1.
   -9000007    1    1    2    0  502 -0.14873030331E+02  0.14404226816E+01  0.30407766120E+03  0.50267932709E+03  0.40000000000E+03 0.  1.
<mgrwt>
<rscale>  2 0.40027901E+03</rscale>
<asrwt>0</asrwt>
<pdfrwt beam="1">  1       21 0.92371369E-01 0.40027901E+03</pdfrwt>
<pdfrwt beam="2">  1       21 0.46552821E-01 0.40027901E+03</pdfrwt>
<totfact> 0.38909814E+03</totfact>
</mgrwt>
</event>
<event>
 4    1  0.4690138E-002  0.4619474E+03  0.7818608E-02  0.1024218E+00
         21   -1    0    0  501  502  0.00000000000E+00  0.00000000000E+00  0.42313080054E+03  0.42313080054E+03  0.00000000000E+00 0.  1.
         21   -1    0    0  502  503 -0.00000000000E+00 -0.00000000000E+00 -0.59949268777E+03  0.59949268777E+03  0.00000000000E+00 0. -1.
    9000007    1    1    2  501    0  0.35002341216E+02  0.22840800115E+03  0.11554151867E+03  0.47617772041E+03  0.40000000000E+03 0.  1.
   -9000007    1    1    2    0  503 -0.35002341216E+02 -0.22840800115E+03 -0.29190340589E+03  0.54644576790E+03  0.40000000000E+03 0. -1.
<mgrwt>
<rscale>  2 0.46194738E+03</rscale>
<asrwt>0</asrwt>
<pdfrwt beam="1">  1       21 0.65097046E-01 0.46194738E+03</pdfrwt>
<pdfrwt beam="2">  1       21 0.92229644E-01 0.46194738E+03</pdfrwt>
<totfact> 0.18497748E+03</totfact>
</mgrwt>
</event>
<event>
 4    1  0.4690138E-002  0.7973150E+03  0.7818608E-02  0.9563912E-01
         21   -1    0    0  503  502  0.00000000000E+00  0.00000000000E+00  0.24625558119E+03  0.24625558119E+03  0.00000000000E+00 0.  1.
         21   -1    0    0  501  503 -0.00000000000E+00 -0.00000000000E+00 -0.25835476773E+04  0.25835476773E+04  0.00000000000E+00 0. -1.
    9000007    1    1    2  501    0 -0.15852596633E+03 -0.67125306956E+03 -0.12083853590E+04  0.14477245391E+04  0.40000000000E+03 0. -1.
   -9000007    1    1    2    0  502  0.15852596633E+03  0.67125306956E+03 -0.11289067372E+04  0.13820787194E+04  0.40000000000E+03 0.  1.
<mgrwt>
<rscale>  2 0.79731497E+03</rscale>
<asrwt>0</asrwt>
<pdfrwt beam="1">  1       21 0.37885473E-01 0.79731497E+03</pdfrwt>
<pdfrwt beam="2">  1       21 0.39746888E+00 0.79731497E+03</pdfrwt>
<totfact> 0.37468517E+01</totfact>
</mgrwt>
</event>
<event>
 4    1  0.4690138E-002  0.4257763E+03  0.7818608E-02  0.1035203E+00
         21   -1    0    0  503  502  0.00000000000E+00  0.00000000000E+00  0.31969173799E+03  0.31969173799E+03  0.00000000000E+00 0.  1.
         21   -1    0    0  501  503 -0.00000000000E+00 -0.00000000000E+00 -0.60784011184E+03  0.60784011184E+03  0.00000000000E+00 0.  1.
    9000007    1    1    2  501    0 -0.68110356961E+02  0.12902112974E+03 -0.26419283793E+03  0.50108215720E+03  0.40000000000E+03 0.  1.
   -9000007    1    1    2    0  502  0.68110356961E+02 -0.12902112974E+03 -0.23955535915E+02  0.42644969263E+03  0.40000000000E+03 0.  1.
<mgrwt>
<rscale>  2 0.42577632E+03</rscale>
<asrwt>0</asrwt>
<pdfrwt beam="1">  1       21 0.49183345E-01 0.42577632E+03</pdfrwt>
<pdfrwt beam="2">  1       21 0.93513863E-01 0.42577632E+03</pdfrwt>
<totfact> 0.33326026E+03</totfact>
</mgrwt>
</event>
<event>
 4    1  0.4690138E-002  0.4017343E+03  0.7818608E-02  0.1043181E+00
         21   -1    0    0  503  502  0.00000000000E+00  0.00000000000E+00  0.29014121673E+03  0.29014121673E+03  0.00000000000E+00 0.  1.
         21   -1    0    0  501  503 -0.00000000000E+00 -0.00000000000E+00 -0.58862844616E+03  0.58862844616E+03  0.00000000000E+00 0.  1.
    9000007    1    1    2  501    0  0.36851393065E+02 -0.56967509640E+01 -0.46189414249E+02  0.40438093443E+03  0.40000000000E+03 0.  1.
   -9000007    1    1    2    0  502 -0.36851393065E+02  0.56967509640E+01 -0.25229781518E+03  0.47438872846E+03  0.40000000000E+03 0.  1.
<mgrwt>
<rscale>  2 0.40173434E+03</rscale>
<asrwt>0</asrwt>
<pdfrwt beam="1">  1       21 0.44637111E-01 0.40173434E+03</pdfrwt>
<pdfrwt beam="2">  1       21 0.90558221E-01 0.40173434E+03</pdfrwt>
<totfact> 0.44506180E+03</totfact>
</mgrwt>
</event>
<event>
 4    1  0.4690138E-002  0.4263331E+03  0.7818608E-02  0.1035025E+00
         21   -1    0    0  503  502  0.00000000000E+00  0.00000000000E+00  0.97089784496E+02  0.97089784496E+02  0.00000000000E+00 0. -1.
         21   -1    0    0  501  503 -0.00000000000E+00 -0.00000000000E+00 -0.18870432924E+04  0.18870432924E+04  0.00000000000E+00 0. -1.
    9000007    1    1    2  501    0  0.14164909788E+03 -0.41175963366E+02 -0.98331545842E+03  0.10717598694E+04  0.40000000000E+03 0.  1.
   -9000007    1    1    2    0  502 -0.14164909788E+03  0.41175963366E+02 -0.80663804951E+03  0.91237320753E+03  0.40000000000E+03 0.  1.
<mgrwt>
<rscale>  2 0.42633312E+03</rscale>
<asrwt>0</asrwt>
<pdfrwt beam="1">  1       21 0.14936891E-01 0.42633312E+03</pdfrwt>
<pdfrwt beam="2">  1       21 0.29031433E+00 0.42633312E+03</pdfrwt>
<totfact> 0.12639108E+03</totfact>
</mgrwt>
</event>
<event>
 4    1  0.4690138E-002  0.4278393E+03  0.7818608E-02  0.1034545E+00
         21   -1    0    0  503  502  0.00000000000E+00  0.00000000000E+00  0.12791325988E+04  0.12791325988E+04  0.00000000000E+00 0. -1.
         21   -1    0    0  501  503 -0.00000000000E+00 -0.00000000000E+00 -0.69940036918E+03  0.69940036918E+03  0.00000000000E+00 0. -1.
    9000007    1    1    2  501    0 -0.14174094063E+03  0.54368967096E+02 -0.59240944003E+03  0.73074990488E+03  0.40000000000E+03 0. -1.
   -9000007    1    1    2    0  502  0.14174094063E+03 -0.54368967096E+02  0.11721416696E+04  0.12477830631E+04  0.40000000000E+03 0. -1.
<mgrwt>
<rscale>  2 0.42783931E+03</rscale>
<asrwt>0</asrwt>
<pdfrwt beam="1">  1       21 0.19678963E+00 0.42783931E+03</pdfrwt>
<pdfrwt beam="2">  1       21 0.10760006E+00 0.42783931E+03</pdfrwt>
<totfact> 0.77819520E+01</totfact>
</mgrwt>
</event>
<event>
 4    1  0.4690138E-002  0.4054821E+03  0.7818608E-02  0.1041898E+00
         21   -1    0    0  501  502  0.00000000000E+00  0.00000000000E+00  0.19998309482E+04  0.19998309482E+04  0.00000000000E+00 0.  1.
         21   -1    0    0  502  503 -0.00000000000E+00 -0.00000000000E+00 -0.82887402361E+02  0.82887402361E+02  0.00000000000E+00 0.  1.
    9000007    1    1    2  501    0 -0.66169951933E+02 -0.61026903728E+01  0.10522786855E+04  0.11276994889E+04  0.40000000000E+03 0.  1.
   -9000007    1    1    2    0  503  0.66169951933E+02  0.61026903728E+01  0.86466486033E+03  0.95501886163E+03  0.40000000000E+03 0.  1.
<mgrwt>
<rscale>  2 0.40548207E+03</rscale>
<asrwt>0</asrwt>
<pdfrwt beam="1">  1       21 0.30766626E+00 0.40548207E+03</pdfrwt>
<pdfrwt beam="2">  1       21 0.12751910E-01 0.40548207E+03</pdfrwt>
<totfact> 0.13466422E+03</totfact>
</mgrwt>
</event>
<event>
 4    1  0.4690138E-002  0.6396561E+03  0.7818608E-02  0.9826385E-01
         21   -1    0    0  501  502  0.00000000000E+00  0.00000000000E+00  0.12911014878E+04  0.12911014878E+04  0.00000000000E+00 0.  1.
         21   -1    0    0  502  503 -0.00000000000E+00 -0.00000000000E+00 -0.44171496950E+03  0.44171496950E+03  0.00000000000E+00 0. -1.
    9000007    1    1    2  501    0  0.40468493678E+03 -0.29221578363E+03  0.88523765868E+03  0.10921564332E+04  0.40000000000E+03 0.  1.
   -9000007    1    1    2    0  503 -0.40468493678E+03  0.29221578363E+03 -0.35851140341E+02  0.64066002413E+03  0.40000000000E+03 0. -1.
<mgrwt>
<rscale>  2 0.63965613E+03</rscale>
<asrwt>0</asrwt>
<pdfrwt beam="1">  1       21 0.19863100E+00 0.63965613E+03</pdfrwt>
<pdfrwt beam="2">  1       21 0.67956150E-01 0.63965613E+03</pdfrwt>
<totfact> 0.20202774E+02</totfact>
</mgrwt>
</event>
<event>
 4    1  0.4690138E-002  0.4018032E+03  0.7818608E-02  0.1043157E+00
         21   -1    0    0  503  502  0.00000000000E+00  0.00000000000E+00  0.67456233374E+03  0.67456233374E+03  0.00000000000E+00 0.  1.
         21   -1    0    0  501  503 -0.00000000000E+00 -0.00000000000E+00 -0.25715615800E+03  0.25715615800E+03  0.00000000000E+00 0.  1.
    9000007    1    1    2  501    0 -0.30639554987E+02  0.22518015735E+02  0.86062608653E+02  0.41091679933E+03  0.40000000000E+03 0.  1.
   -9000007    1    1    2    0  502  0.30639554987E+02 -0.22518015735E+02  0.33134356709E+03  0.52080169241E+03  0.40000000000E+03 0.  1.
<mgrwt>
<rscale>  2 0.40180324E+03</rscale>
<asrwt>0</asrwt>
<pdfrwt beam="1">  1       21 0.10377882E+00 0.40180324E+03</pdfrwt>
<pdfrwt beam="2">  1       21 0.39562486E-01 0.40180324E+03</pdfrwt>
<totfact> 0.41173829E+03</totfact>
</mgrwt>
</event>
<event>
 4    1  0.4690138E-002  0.4536198E+03  0.7818608E-02  0.1026648E+00
         21   -1    0    0  501  502  0.00000000000E+00  0.00000000000E+00  0.44234440292E+03  0.44234440292E+03  0.00000000000E+00 0. -1.
         21   -1    0    0  502  503 -0.00000000000E+00 -0.00000000000E+00 -0.93299418306E+03  0.93299418306E+03  0.00000000000E+00 0. -1.
    9000007    1    1    2  501    0  0.11457048268E+03 -0.18067789640E+03  0.24161535728E+03  0.51395416004E+03  0.40000000000E+03 0. -1.
   -9000007    1    1    2    0  503 -0.11457048268E+03  0.18067789640E+03 -0.73226513743E+03  0.86138442594E+03  0.40000000000E+03 0. -1.
<mgrwt>
<rscale>  2 0.45361977E+03</rscale>
<asrwt>0</asrwt>
<pdfrwt beam="1">  1       21 0.68052986E-01 0.45361977E+03</pdfrwt>
<pdfrwt beam="2">  1       21 0.14353756E+00 0.45361977E+03</pdfrwt>
<totfact> 0.55162357E+02</totfact>
</mgrwt>
</event>
<event>
 4    1  0.4690138E-002  0.5193961E+03  0.7818608E-02  0.1008837E+00
         21   -1    0    0  503  502  0.00000000000E+00  0.00000000000E+00  0.49061874115E+03  0.49061874115E+03  0.00000000000E+00 0. -1.
         21   -1    0    0  501  503 -0.00000000000E+00 -0.00000000000E+00 -0.88734868013E+03  0.88734868013E+03  0.00000000000E+00 0.  1.
    9000007    1    1    2  501    0  0.23773698219E+03  0.23076702807E+03 -0.62326867948E+03  0.81131753387E+03  0.40000000000E+03 0.  1.
   -9000007    1    1    2    0  502 -0.23773698219E+03 -0.23076702807E+03  0.22653874050E+03  0.56664988740E+03  0.40000000000E+03 0. -1.
<mgrwt>
<rscale>  2 0.51939609E+03</rscale>
<asrwt>0</asrwt>
<pdfrwt beam="1">  1       21 0.75479807E-01 0.51939609E+03</pdfrwt>
<pdfrwt beam="2">  1       21 0.13651518E+00 0.51939609E+03</pdfrwt>
<totfact> 0.48504496E+02</totfact>
</mgrwt>
</event>
<event>
 4    1  0.4690138E-002  0.4277764E+03  0.7818608E-02  0.1034565E+00
         21   -1    0    0  501  502  0.00000000000E+00  0.00000000000E+00  0.25778692799E+03  0.25778692799E+03  0.00000000000E+00 0. -1.
         21   -1    0    0  502  503 -0.00000000000E+00 -0.00000000000E+00 -0.79881155798E+03  0.79881155798E+03  0.00000000000E+00 0. -1.
    9000007    1    1    2  501    0  0.69931143975E+02  0.13454484768E+03 -0.94219706712E+02  0.43802971825E+03  0.40000000000E+03 0. -1.
   -9000007    1    1    2    0  503 -0.69931143975E+02 -0.13454484768E+03 -0.44680492328E+03  0.61856876773E+03  0.40000000000E+03 0. -1.
<mgrwt>
<rscale>  2 0.42777644E+03</rscale>
<asrwt>0</asrwt>
<pdfrwt beam="1">  1       21 0.39659528E-01 0.42777644E+03</pdfrwt>
<pdfrwt beam="2">  1       21 0.12289408E+00 0.42777644E+03</pdfrwt>
<totfact> 0.26604478E+03</totfact>
</mgrwt>
</event>
<event>
 4    1  0.4690138E-002  0.4061593E+03  0.7818608E-02  0.1041668E+00
         21   -1    0    0  503  502  0.00000000000E+00  0.00000000000E+00  0.14549648578E+04  0.14549648578E+04  0.00000000000E+00 0.  1.
         21   -1    0    0  501  503 -0.00000000000E+00 -0.00000000000E+00 -0.11581522096E+03  0.11581522096E+03  0.00000000000E+00 0.  1.
    9000007    1    1    2  501    0  0.67248356606E+02  0.21049139563E+02  0.78343720621E+03  0.88246204667E+03  0.40000000000E+03 0.  1.
   -9000007    1    1    2    0  502 -0.67248356606E+02 -0.21049139563E+02  0.55571243061E+03  0.68831803207E+03  0.40000000000E+03 0.  1.
<mgrwt>
<rscale>  2 0.40615934E+03</rscale>
<asrwt>0</asrwt>
<pdfrwt beam="1">  1       21 0.22384073E+00 0.40615934E+03</pdfrwt>
<pdfrwt beam="2">  1       21 0.17817727E-01 0.40615934E+03</pdfrwt>
<totfact> 0.23411569E+03</totfact>
</mgrwt>
</event>
<event>
 4    1  0.4690138E-002  0.5502943E+03  0.7818608E-02  0.1001426E+00
         21   -1    0    0  503  502  0.00000000000E+00  0.00000000000E+00  0.79361837856E+03  0.79361837856E+03  0.00000000000E+00 0.  1.
         21   -1    0    0  501  503 -0.00000000000E+00 -0.00000000000E+00 -0.53256308473E+03  0.53256308473E+03  0.00000000000E+00 0. -1.
    9000007    1    1    2  501    0 -0.37450692084E+03 -0.50679437548E+02 -0.22254229638E+03  0.59358985236E+03  0.40000000000E+03 0. -1.
   -9000007    1    1    2    0  502  0.37450692084E+03  0.50679437548E+02  0.48359759021E+03  0.73259161093E+03  0.40000000000E+03 0.  1.
<mgrwt>
<rscale>  2 0.55029432E+03</rscale>
<asrwt>0</asrwt>
<pdfrwt beam="1">  1       21 0.12209514E+00 0.55029432E+03</pdfrwt>
<pdfrwt beam="2">  1       21 0.81932782E-01 0.55029432E+03</pdfrwt>
<totfact> 0.53043742E+02</totfact>
</mgrwt>
</event>
<event>
 4    1  0.4690138E-002  0.5398029E+03  0.7818608E-02  0.1003882E+00
         21   -1    0    0  503  502  0.00000000000E+00  0.00000000000E+00  0.98669609829E+03  0.98669609829E+03  0.00000000000E+00 0.  1.
         21   -1    0    0  501  503 -0.00000000000E+00 -0.00000000000E+00 -0.29678366349E+03  0.29678366349E+03  0.00000000000E+00 0.  1.
    9000007    1    1    2  501    0 -0.27621507526E+03  0.23471780616E+03  0.39008374891E+03  0.66599740802E+03  0.40000000000E+03 0.  1.
   -9000007    1    1    2    0  502  0.27621507526E+03 -0.23471780616E+03  0.29982868590E+03  0.61748235377E+03  0.40000000000E+03 0.  1.
<mgrwt>
<rscale>  2 0.53980294E+03</rscale>
<asrwt>0</asrwt>
<pdfrwt beam="1">  1       21 0.15179940E+00 0.53980294E+03</pdfrwt>
<pdfrwt beam="2">  1       21 0.45659026E-01 0.53980294E+03</pdfrwt>
<totfact> 0.10891625E+03</totfact>
</mgrwt>
</event>
<event>
 4    1  0.4690138E-002  0.4409323E+03  0.7818608E-02  0.1030461E+00
         21   -1    0    0  501  502  0.00000000000E+00  0.00000000000E+00  0.12971227142E+04  0.12971227142E+04  0.00000000000E+00 0. -1.
         21   -1    0    0  502  503 -0.00000000000E+00 -0.00000000000E+00 -0.19678374453E+03  0.19678374453E+03  0.00000000000E+00 0.  1.
    9000007    1    1    2  501    0  0.74928393770E+02 -0.16972642291E+03  0.91481591438E+03  0.10155340861E+04  0.40000000000E+03 0.  1.
   -9000007    1    1    2    0  503 -0.74928393770E+02  0.16972642291E+03  0.18552305526E+03  0.47837237260E+03  0.40000000000E+03 0.  1.
<mgrwt>
<rscale>  2 0.44093233E+03</rscale>
<asrwt>0</asrwt>
<pdfrwt beam="1">  1       21 0.19955734E+00 0.44093233E+03</pdfrwt>
<pdfrwt beam="2">  1       21 0.30274423E-01 0.44093233E+03</pdfrwt>
<totfact> 0.11895626E+03</totfact>
</mgrwt>
</event>
<event>
 4    1  0.4690138E-002  0.5205790E+03  0.7818608E-02  0.1008543E+00
         21   -1    0    0  501  502  0.00000000000E+00  0.00000000000E+00  0.51818612327E+03  0.51818612327E+03  0.00000000000E+00 0.  1.
         21   -1    0    0  502  503 -0.00000000000E+00 -0.00000000000E+00 -0.53311749596E+03  0.53311749596E+03  0.00000000000E+00 0. -1.
    9000007    1    1    2  501    0 -0.37936658792E+02  0.33100342269E+03  0.65009772418E+02  0.52462246085E+03  0.40000000000E+03 0.  1.
   -9000007    1    1    2    0  503  0.37936658792E+02 -0.33100342269E+03 -0.79941145101E+02  0.52668115838E+03  0.40000000000E+03 0. -1.
<mgrwt>
<rscale>  2 0.52057896E+03</rscale>
<asrwt>0</asrwt>
<pdfrwt beam="1">  1       21 0.79720942E-01 0.52057896E+03</pdfrwt>
<pdfrwt beam="2">  1       21 0.82018077E-01 0.52057896E+03</pdfrwt>
<totfact> 0.15086109E+03</totfact>
</mgrwt>
</event>
<event>
 4    1  0.4690138E-002  0.4367484E+03  0.7818608E-02  0.1031749E+00
         21   -1    0    0  501  502  0.00000000000E+00  0.00000000000E+00  0.23560821919E+03  0.23560821919E+03  0.00000000000E+00 0. -1.
         21   -1    0    0  502  503 -0.00000000000E+00 -0.00000000000E+00 -0.12037757851E+04  0.12037757851E+04  0.00000000000E+00 0. -1.
    9000007    1    1    2  501    0 -0.12996306683E+03  0.11772310678E+03 -0.72254545839E+02  0.44268481791E+03  0.40000000000E+03 0.  1.
   -9000007    1    1    2    0  503  0.12996306683E+03 -0.11772310678E+03 -0.89591302004E+03  0.99669918636E+03  0.40000000000E+03 0.  1.
<mgrwt>
<rscale>  2 0.43674836E+03</rscale>
<asrwt>0</asrwt>
<pdfrwt beam="1">  1       21 0.36247418E-01 0.43674836E+03</pdfrwt>
<pdfrwt beam="2">  1       21 0.18519628E+00 0.43674836E+03</pdfrwt>
<totfact> 0.10391349E+03</totfact>
</mgrwt>
</event>
<event>
 4    1  0.4690138E-002  0.4358551E+03  0.7818608E-02  0.1032026E+00
         21   -1    0    0  503  502  0.00000000000E+00  0.00000000000E+00  0.39921752199E+03  0.39921752199E+03  0.00000000000E+00 0. -1.
         21   -1    0    0  501  503 -0.00000000000E+00 -0.00000000000E+00 -0.47760614628E+03  0.47760614628E+03  0.00000000000E+00 0. -1.
    9000007    1    1    2  501    0 -0.67198105555E+02  0.15954325608E+03 -0.12647393924E+02  0.43603852183E+03  0.40000000000E+03 0. -1.
   -9000007    1    1    2    0  502  0.67198105555E+02 -0.15954325608E+03 -0.65741230372E+02  0.44078514644E+03  0.40000000000E+03 0. -1.
<mgrwt>
<rscale>  2 0.43585506E+03</rscale>
<asrwt>0</asrwt>
<pdfrwt beam="1">  1       21 0.61418081E-01 0.43585506E+03</pdfrwt>
<pdfrwt beam="2">  1       21 0.73477868E-01 0.43585506E+03</pdfrwt>
<totfact> 0.36024203E+03</totfact>
</mgrwt>
</event>
<event>
 4    1  0.4690138E-002  0.4107729E+03  0.7818608E-02  0.1040112E+00
         21   -1    0    0  503  502  0.00000000000E+00  0.00000000000E+00  0.65675629418E+03  0.65675629418E+03  0.00000000000E+00 0.  1.
         21   -1    0    0  501  503 -0.00000000000E+00 -0.00000000000E+00 -0.57999770248E+03  0.57999770248E+03  0.00000000000E+00 0.  1.
    9000007    1    1    2  501    0  0.76140807827E+02 -0.54193614888E+02 -0.42314346827E+03  0.58973279140E+03  0.40000000000E+03 0.  1.
   -9000007    1    1    2    0  502 -0.76140807827E+02  0.54193614888E+02  0.49990205996E+03  0.64702120527E+03  0.40000000000E+03 0.  1.
<mgrwt>
<rscale>  2 0.41077289E+03</rscale>
<asrwt>0</asrwt>
<pdfrwt beam="1">  1       21 0.10103943E+00 0.41077289E+03</pdfrwt>
<pdfrwt beam="2">  1       21 0.89230415E-01 0.41077289E+03</pdfrwt>
<totfact> 0.73743261E+02</totfact>
</mgrwt>
</event>
<event>
 4    1  0.4690138E-002  0.5392498E+03  0.7818608E-02  0.1004013E+00
         21   -1    0    0  501  502  0.00000000000E+00  0.00000000000E+00  0.26904070637E+03  0.26904070637E+03  0.00000000000E+00 0. -1.
         21   -1    0    0  502  503 -0.00000000000E+00 -0.00000000000E+00 -0.16025887695E+04  0.16025887695E+04  0.00000000000E+00 0. -1.
    9000007    1    1    2  501    0  0.37791337065E+02 -0.35966944934E+03 -0.13281366509E+03  0.55536453576E+03  0.40000000000E+03 0. -1.
   -9000007    1    1    2    0  503 -0.37791337065E+02  0.35966944934E+03 -0.12007343981E+04  0.13162649402E+04  0.40000000000E+03 0. -1.
<mgrwt>
<rscale>  2 0.53924975E+03</rscale>
<asrwt>0</asrwt>
<pdfrwt beam="1">  1       21 0.41390878E-01 0.53924975E+03</pdfrwt>
<pdfrwt beam="2">  1       21 0.24655212E+00 0.53924975E+03</pdfrwt>
<totfact> 0.30134895E+02</totfact>
</mgrwt>
</event>
<event>
 4    1  0.4690138E-002  0.4142222E+03  0.7818608E-02  0.1038963E+00
         21   -1    0    0  501  502  0.00000000000E+00  0.00000000000E+00  0.57733653192E+03  0.57733653192E+03  0.00000000000E+00 0.  1.
         21   -1    0    0  502  503 -0.00000000000E+00 -0.00000000000E+00 -0.38908656077E+03  0.38908656077E+03  0.00000000000E+00 0.  1.
    9000007    1    1    2  501    0 -0.45829148543E+02 -0.97363798319E+02  0.32895747643E+03  0.52895466855E+03  0.40000000000E+03 0.  1.
   -9000007    1    1    2    0  503  0.45829148543E+02  0.97363798319E+02 -0.14070750528E+03  0.43746842414E+03  0.40000000000E+03 0.  1.
<mgrwt>
<rscale>  2 0.41422219E+03</rscale>
<asrwt>0</asrwt>
<pdfrwt beam="1">  1       21 0.88821005E-01 0.41422219E+03</pdfrwt>
<pdfrwt beam="2">  1       21 0.59859470E-01 0.41422219E+03</pdfrwt>
<totfact> 0.24782166E+03</totfact>
</mgrwt>
</event>
<event>
 4    1  0.4690138E-002  0.5212099E+03  0.7818608E-02  0.1008386E+00
         21   -1    0    0  501  502  0.00000000000E+00  0.00000000000E+00  0.86648593824E+03  0.86648593824E+03  0.00000000000E+00 0. -1.
         21   -1    0    0  502  503 -0.00000000000E+00 -0.00000000000E+00 -0.81250454130E+03  0.81250454130E+03  0.00000000000E+00 0. -1.
    9000007    1    1    2  501    0  0.32611065621E+03 -0.72880981403E+02  0.68487469775E+03  0.86064693642E+03  0.40000000000E+03 0. -1.
   -9000007    1    1    2    0  503 -0.32611065621E+03  0.72880981403E+02 -0.63089330082E+03  0.81834354312E+03  0.40000000000E+03 0. -1.
<mgrwt>
<rscale>  2 0.52120994E+03</rscale>
<asrwt>0</asrwt>
<pdfrwt beam="1">  1       21 0.13330553E+00 0.52120994E+03</pdfrwt>
<pdfrwt beam="2">  1       21 0.12500070E+00 0.52120994E+03</pdfrwt>
<totfact> 0.15184994E+02</totfact>
</mgrwt>
</event>
<event>
 4    1  0.4690138E-002  0.4864966E+03  0.7818608E-02  0.1017365E+00
         21   -1    0    0  503  502  0.00000000000E+00  0.00000000000E+00  0.66144422896E+03  0.66144422896E+03  0.00000000000E+00 0.  1.
         21   -1    0    0  501  503 -0.00000000000E+00 -0.00000000000E+00 -0.41834786124E+03  0.41834786124E+03  0.00000000000E+00 0.  1.
    9000007    1    1    2  501    0 -0.18777356577E+03 -0.20351913636E+03  0.32690718128E+03  0.58612904385E+03  0.40000000000E+03 0.  1.
   -9000007    1    1    2    0  502  0.18777356577E+03  0.20351913636E+03 -0.83810813561E+02  0.49366304636E+03  0.40000000000E+03 0.  1.
<mgrwt>
<rscale>  2 0.48649661E+03</rscale>
<asrwt>0</asrwt>
<pdfrwt beam="1">  1       21 0.10176065E+00 0.48649661E+03</pdfrwt>
<pdfrwt beam="2">  1       21 0.64361209E-01 0.48649661E+03</pdfrwt>
<totfact> 0.14828892E+03</totfact>
</mgrwt>
</event>
<event>
 4    1  0.4690138E-002  0.4478157E+03  0.7818608E-02  0.1028375E+00
         21   -1    0    0  501  502  0.00000000000E+00  0.00000000000E+00  0.21320720377E+03  0.21320720377E+03  0.00000000000E+00 0. -1.
         21   -1    0    0  502  503 -0.00000000000E+00 -0.00000000000E+00 -0.16520407963E+04  0.16520407963E+04  0.00000000000E+00 0.  1.
    9000007    1    1    2  501    0  0.42842612282E+02 -0.19673185897E+03 -0.10738920626E+03  0.46051205780E+03  0.40000000000E+03 0. -1.
   -9000007    1    1    2    0  503 -0.42842612282E+02  0.19673185897E+03 -0.13314443863E+04  0.14047359423E+04  0.40000000000E+03 0.  1.
<mgrwt>
<rscale>  2 0.44781571E+03</rscale>
<asrwt>0</asrwt>
<pdfrwt beam="1">  1       21 0.32801109E-01 0.44781571E+03</pdfrwt>
<pdfrwt beam="2">  1       21 0.25416012E+00 0.44781571E+03</pdfrwt>
<totfact> 0.45494483E+02</totfact>
</mgrwt>
</event>
<event>
 4    1  0.4690138E-002  0.5231027E+03  0.7818608E-02  0.1007919E+00
         21   -1    0    0  501  502  0.00000000000E+00  0.00000000000E+00  0.19098683602E+04  0.19098683602E+04  0.00000000000E+00 0.  1.
         21   -1    0    0  502  503 -0.00000000000E+00 -0.00000000000E+00 -0.27867255176E+03  0.27867255176E+03  0.00000000000E+00 0.  1.
    9000007    1    1    2  501    0 -0.16977174333E+03  0.29122840948E+03  0.15783491880E+04  0.16627755683E+04  0.40000000000E+03 0.  1.
   -9000007    1    1    2    0  503  0.16977174333E+03 -0.29122840948E+03  0.52846620467E+02  0.52576534368E+03  0.40000000000E+03 0.  1.
<mgrwt>
<rscale>  2 0.52310270E+03</rscale>
<asrwt>0</asrwt>
<pdfrwt beam="1">  1       21 0.29382589E+00 0.52310270E+03</pdfrwt>
<pdfrwt beam="2">  1       21 0.42872701E-01 0.52310270E+03</pdfrwt>
<totfact> 0.14513589E+02</totfact>
</mgrwt>
</event>
<event>
 4    1  0.4690138E-002  0.4603621E+03  0.7818608E-02  0.1024676E+00
         21   -1    0    0  501  502  0.00000000000E+00  0.00000000000E+00  0.23249559362E+03  0.23249559362E+03  0.00000000000E+00 0.  1.
         21   -1    0    0  502  503 -0.00000000000E+00 -0.00000000000E+00 -0.94940269747E+03  0.94940269747E+03  0.00000000000E+00 0. -1.
    9000007    1    1    2  501    0 -0.50160698570E+02 -0.22229972990E+03 -0.24046870568E+03  0.51938277215E+03  0.40000000000E+03 0.  1.
   -9000007    1    1    2    0  503  0.50160698570E+02  0.22229972990E+03 -0.47643839817E+03  0.66251551894E+03  0.40000000000E+03 0. -1.
<mgrwt>
<rscale>  2 0.46036210E+03</rscale>
<asrwt>0</asrwt>
<pdfrwt beam="1">  1       21 0.35768553E-01 0.46036210E+03</pdfrwt>
<pdfrwt beam="2">  1       21 0.14606195E+00 0.46036210E+03</pdfrwt>
<totfact> 0.20628120E+03</totfact>
</mgrwt>
</event>
<event>
 4    1  0.4690138E-002  0.6343985E+03  0.7818608E-02  0.9836503E-01
         21   -1    0    0  503  502  0.00000000000E+00  0.00000000000E+00  0.25139699433E+03  0.25139699433E+03  0.00000000000E+00 0.  1.
         21   -1    0    0  501  503 -0.00000000000E+00 -0.00000000000E+00 -0.16912112485E+04  0.16912112485E+04  0.00000000000E+00 0. -1.
    9000007    1    1    2  501    0 -0.44243180901E+03 -0.21613778416E+03 -0.49545318698E+03  0.80494428866E+03  0.40000000000E+03 0.  1.
   -9000007    1    1    2    0  502  0.44243180901E+03  0.21613778416E+03 -0.94436106721E+03  0.11376639542E+04  0.40000000000E+03 0. -1.
<mgrwt>
<rscale>  2 0.63439849E+03</rscale>
<asrwt>0</asrwt>
<pdfrwt beam="1">  1       21 0.38676459E-01 0.63439849E+03</pdfrwt>
<pdfrwt beam="2">  1       21 0.26018636E+00 0.63439849E+03</pdfrwt>
<totfact> 0.27436628E+02</totfact>
</mgrwt>
</event>
<event>
 4    1  0.4690138E-002  0.4742565E+03  0.7818608E-02  0.1020726E+00
         21   -1    0    0  503  502  0.00000000000E+00  0.00000000000E+00  0.13935568245E+04  0.13935568245E+04  0.00000000000E+00 0. -1.
         21   -1    0    0  501  503 -0.00000000000E+00 -0.00000000000E+00 -0.16999498027E+03  0.16999498027E+03  0.00000000000E+00 0. -1.
    9000007    1    1    2  501    0 -0.18913886600E+03 -0.17072107823E+03  0.43598753958E+03  0.64420829849E+03  0.40000000000E+03 0. -1.
   -9000007    1    1    2    0  502  0.18913886600E+03  0.17072107823E+03  0.78757430463E+03  0.91934350626E+03  0.40000000000E+03 0. -1.
<mgrwt>
<rscale>  2 0.47425647E+03</rscale>
<asrwt>0</asrwt>
<pdfrwt beam="1">  1       21 0.21439335E+00 0.47425647E+03</pdfrwt>
<pdfrwt beam="2">  1       21 0.26153075E-01 0.47425647E+03</pdfrwt>
<totfact> 0.12497321E+03</totfact>
</mgrwt>
</event>
<event>
 4    1  0.4690138E-002  0.7181708E+03  0.7818608E-02  0.9686653E-01
         21   -1    0    0  503  502  0.00000000000E+00  0.00000000000E+00  0.21900240544E+04  0.21900240544E+04  0.00000000000E+00 0. -1.
         21   -1    0    0  501  503 -0.00000000000E+00 -0.00000000000E+00 -0.24684177996E+03  0.24684177996E+03  0.00000000000E+00 0. -1.
    9000007    1    1    2  501    0  0.42205138717E+03 -0.42147583915E+03  0.12326691532E+04  0.14266192547E+04  0.40000000000E+03 0. -1.
   -9000007    1    1    2    0  502 -0.42205138717E+03  0.42147583915E+03  0.71051312121E+03  0.10102465797E+04  0.40000000000E+03 0. -1.
<mgrwt>
<rscale>  2 0.71817077E+03</rscale>
<asrwt>0</asrwt>
<pdfrwt beam="1">  1       21 0.33692676E+00 0.71817077E+03</pdfrwt>
<pdfrwt beam="2">  1       21 0.37975660E-01 0.71817077E+03</pdfrwt>
<totfact> 0.93066510E+01</totfact>
</mgrwt>
</event>
<event>
 4    1  0.4690138E-002  0.4253397E+03  0.7818608E-02  0.1035342E+00
         21   -1    0    0  501  502  0.00000000000E+00  0.00000000000E+00  0.29791329530E+03  0.29791329530E+03  0.00000000000E+00 0. -1.
         21   -1    0    0  502  503 -0.00000000000E+00 -0.00000000000E+00 -0.62303158371E+03  0.62303158371E+03  0.00000000000E+00 0. -1.
    9000007    1    1    2  501    0 -0.95426661651E+02 -0.10866284446E+03 -0.23579875161E+03  0.48632798889E+03  0.40000000000E+03 0. -1.
   -9000007    1    1    2    0  503  0.95426661651E+02  0.10866284446E+03 -0.89319536789E+02  0.43461689011E+03  0.40000000000E+03 0. -1.
<mgrwt>
<rscale>  2 0.42533970E+03</rscale>
<asrwt>0</asrwt>
<pdfrwt beam="1">  1       21 0.45832816E-01 0.42533970E+03</pdfrwt>
<pdfrwt beam="2">  1       21 0.95851011E-01 0.42533970E+03</pdfrwt>
<totfact> 0.36460409E+03</totfact>
</mgrwt>
</event>
<event>
 4    1  0.4690138E-002  0.4472805E+03  0.7818608E-02  0.1028536E+00
         21   -1    0    0  503  502  0.00000000000E+00  0.00000000000E+00  0.13378516573E+04  0.13378516573E+04  0.00000000000E+00 0.  1.
         21   -1    0    0  501  503 -0.00000000000E+00 -0.00000000000E+00 -0.15829174781E+03  0.15829174781E+03  0.00000000000E+00 0.  1.
    9000007    1    1    2  501    0 -0.17654742880E+03  0.94291191531E+02  0.76569707049E+03  0.88676480940E+03  0.40000000000E+03 0.  1.
   -9000007    1    1    2    0  502  0.17654742880E+03 -0.94291191531E+02  0.41386283902E+03  0.60937859573E+03  0.40000000000E+03 0.  1.
<mgrwt>
<rscale>  2 0.44728048E+03</rscale>
<asrwt>0</asrwt>
<pdfrwt beam="1">  1       21 0.20582332E+00 0.44728048E+03</pdfrwt>
<pdfrwt beam="2">  1       21 0.24352577E-01 0.44728048E+03</pdfrwt>
<totfact> 0.16530060E+03</totfact>
</mgrwt>
</event>
<event>
 4    1  0.4690138E-002  0.4298290E+03  0.7818608E-02  0.1033914E+00
         21   -1    0    0  503  502  0.00000000000E+00  0.00000000000E+00  0.72737217286E+03  0.72737217286E+03  0.00000000000E+00 0. -1.
         21   -1    0    0  501  503 -0.00000000000E+00 -0.00000000000E+00 -0.27497376087E+03  0.27497376087E+03  0.00000000000E+00 0. -1.
    9000007    1    1    2  501    0 -0.18928898654E+02  0.15618796680E+03  0.87787210839E+02  0.43870215245E+03  0.40000000000E+03 0. -1.
   -9000007    1    1    2    0  502  0.18928898654E+02 -0.15618796680E+03  0.36461120114E+03  0.56364378128E+03  0.40000000000E+03 0. -1.
<mgrwt>
<rscale>  2 0.42982902E+03</rscale>
<asrwt>0</asrwt>
<pdfrwt beam="1">  1       21 0.11190341E+00 0.42982902E+03</pdfrwt>
<pdfrwt beam="2">  1       21 0.42303656E-01 0.42982902E+03</pdfrwt>
<totfact> 0.29454837E+03</totfact>
</mgrwt>
</event>
<event>
 4    1  0.4690138E-002  0.5713534E+03  0.7818608E-02  0.9966688E-01
         21   -1    0    0  501  502  0.00000000000E+00  0.00000000000E+00  0.92918828954E+03  0.92918828954E+03  0.00000000000E+00 0.  1.
         21   -1    0    0  502  503 -0.00000000000E+00 -0.00000000000E+00 -0.52609499486E+03  0.52609499486E+03  0.00000000000E+00 0.  1.
    9000007    1    1    2  501    0  0.21882997014E+03 -0.34432280660E+03  0.62094044717E+03  0.84380791055E+03  0.40000000000E+03 0.  1.
   -9000007    1    1    2    0  503 -0.21882997014E+03  0.34432280660E+03 -0.21784715249E+03  0.61147537385E+03  0.40000000000E+03 0.  1.
<mgrwt>
<rscale>  2 0.57135344E+03</rscale>
<asrwt>0</asrwt>
<pdfrwt beam="1">  1       21 0.14295204E+00 0.57135344E+03</pdfrwt>
<pdfrwt beam="2">  1       21 0.80937692E-01 0.57135344E+03</pdfrwt>
<totfact> 0.35777047E+02</totfact>
</mgrwt>
</event>
<event>
 4    1  0.4690138E-002  0.4816852E+03  0.7818608E-02  0.1018673E+00
         21   -1    0    0  503  502  0.00000000000E+00  0.00000000000E+00  0.61522106751E+03  0.61522106751E+03  0.00000000000E+00 0. -1.
         21   -1    0    0  501  503 -0.00000000000E+00 -0.00000000000E+00 -0.82931410117E+03  0.82931410117E+03  0.00000000000E+00 0. -1.
    9000007    1    1    2  501    0  0.19925982653E+03 -0.17976681067E+03 -0.64037462916E+03  0.80131158132E+03  0.40000000000E+03 0. -1.
   -9000007    1    1    2    0  502 -0.19925982653E+03  0.17976681067E+03  0.42628159550E+03  0.64322358737E+03  0.40000000000E+03 0. -1.
<mgrwt>
<rscale>  2 0.48168515E+03</rscale>
<asrwt>0</asrwt>
<pdfrwt beam="1">  1       21 0.94649396E-01 0.48168515E+03</pdfrwt>
<pdfrwt beam="2">  1       21 0.12758678E+00 0.48168515E+03</pdfrwt>
<totfact> 0.34590645E+02</totfact>
</mgrwt>
</event>
<event>
 4    1  0.4690138E-002  0.4392426E+03  0.7818608E-02  0.1030979E+00
         21   -1    0    0  503  502  0.00000000000E+00  0.00000000000E+00  0.23445198194E+03  0.23445198194E+03  0.00000000000E+00 0.  1.
         21   -1    0    0  501  503 -0.00000000000E+00 -0.00000000000E+00 -0.83543488225E+03  0.83543488225E+03  0.00000000000E+00 0. -1.
    9000007    1    1    2  501    0  0.43605756912E+02 -0.17616080352E+03 -0.36597751101E+03  0.57172863257E+03  0.40000000000E+03 0.  1.
   -9000007    1    1    2    0  502 -0.43605756912E+02  0.17616080352E+03 -0.23500538929E+03  0.49815823162E+03  0.40000000000E+03 0.  1.
<mgrwt>
<rscale>  2 0.43924263E+03</rscale>
<asrwt>0</asrwt>
<pdfrwt beam="1">  1       21 0.36069536E-01 0.43924263E+03</pdfrwt>
<pdfrwt beam="2">  1       21 0.12852844E+00 0.43924263E+03</pdfrwt>
<totfact> 0.28650114E+03</totfact>
</mgrwt>
</event>
<event>
 4    1  0.4690138E-002  0.4128371E+03  0.7818608E-02  0.1039423E+00
         21   -1    0    0  501  502  0.00000000000E+00  0.00000000000E+00  0.35880234437E+03  0.35880234437E+03  0.00000000000E+00 0. -1.
         21   -1    0    0  502  503 -0.00000000000E+00 -0.00000000000E+00 -0.61060347226E+03  0.61060347226E+03  0.00000000000E+00 0. -1.
    9000007    1    1    2  501    0 -0.72706612494E+02 -0.71750860652E+02  0.10251019699E+03  0.42537369217E+03  0.40000000000E+03 0. -1.
   -9000007    1    1    2    0  503  0.72706612494E+02  0.71750860652E+02 -0.35431132488E+03  0.54403212446E+03  0.40000000000E+03 0. -1.
<mgrwt>
<rscale>  2 0.41283706E+03</rscale>
<asrwt>0</asrwt>
<pdfrwt beam="1">  1       21 0.55200361E-01 0.41283706E+03</pdfrwt>
<pdfrwt beam="2">  1       21 0.93938996E-01 0.41283706E+03</pdfrwt>
<totfact> 0.25887947E+03</totfact>
</mgrwt>
</event>
<event>
 4    1  0.4690138E-002  0.4162106E+03  0.7818608E-02  0.1038307E+00
         21   -1    0    0  501  502  0.00000000000E+00  0.00000000000E+00  0.53897530673E+02  0.53897530673E+02  0.00000000000E+00 0. -1.
         21   -1    0    0  502  503 -0.00000000000E+00 -0.00000000000E+00 -0.32938916787E+04  0.32938916787E+04  0.00000000000E+00 0. -1.
    9000007    1    1    2  501    0  0.86295665809E+02 -0.76054879717E+02 -0.13594471435E+04  0.14217340900E+04  0.40000000000E+03 0. -1.
   -9000007    1    1    2    0  503 -0.86295665809E+02  0.76054879717E+02 -0.18805470045E+04  0.19260551194E+04  0.40000000000E+03 0. -1.
<mgrwt>
<rscale>  2 0.41621063E+03</rscale>
<asrwt>0</asrwt>
<pdfrwt beam="1">  1       21 0.82919279E-02 0.41621063E+03</pdfrwt>
<pdfrwt beam="2">  1       21 0.50675256E+00 0.41621063E+03</pdfrwt>
<totfact> 0.14801504E+02</totfact>
</mgrwt>
</event>
<event>
 4    1  0.4690138E-002  0.5720008E+03  0.7818608E-02  0.9965261E-01
         21   -1    0    0  503  502  0.00000000000E+00  0.00000000000E+00  0.29639938812E+03  0.29639938812E+03  0.00000000000E+00 0. -1.
         21   -1    0    0  501  503 -0.00000000000E+00 -0.00000000000E+00 -0.11149302836E+04  0.11149302836E+04  0.00000000000E+00 0. -1.
    9000007    1    1    2  501    0 -0.36331389165E+03  0.18758440916E+03 -0.47956571329E+03  0.74643698179E+03  0.40000000000E+03 0. -1.
   -9000007    1    1    2    0  502  0.36331389165E+03 -0.18758440916E+03 -0.33896518223E+03  0.66489268998E+03  0.40000000000E+03 0. -1.
<mgrwt>
<rscale>  2 0.57200078E+03</rscale>
<asrwt>0</asrwt>
<pdfrwt beam="1">  1       21 0.45599905E-01 0.57200078E+03</pdfrwt>
<pdfrwt beam="2">  1       21 0.17152774E+00 0.57200078E+03</pdfrwt>
<totfact> 0.76570103E+02</totfact>
</mgrwt>
</event>
<event>
 4    1  0.4690138E-002  0.4017292E+03  0.7818608E-02  0.1043183E+00
         21   -1    0    0  501  502  0.00000000000E+00  0.00000000000E+00  0.24399854149E+03  0.24399854149E+03  0.00000000000E+00 0.  1.
         21   -1    0    0  502  503 -0.00000000000E+00 -0.00000000000E+00 -0.88291239632E+03  0.88291239632E+03  0.00000000000E+00 0.  1.
    9000007    1    1    2  501    0 -0.33179672974E+02 -0.16895794942E+02 -0.37244058396E+02  0.40345195311E+03  0.40000000000E+03 0.  1.
   -9000007    1    1    2    0  503  0.33179672974E+02  0.16895794942E+02 -0.60166979643E+03  0.72345898469E+03  0.40000000000E+03 0.  1.
<mgrwt>
<rscale>  2 0.40172921E+03</rscale>
<asrwt>0</asrwt>
<pdfrwt beam="1">  1       21 0.37538238E-01 0.40172921E+03</pdfrwt>
<pdfrwt beam="2">  1       21 0.13583267E+00 0.40172921E+03</pdfrwt>
<totfact> 0.23230902E+03</totfact>
</mgrwt>
</event>
<event>
 4    1  0.4690138E-002  0.4650028E+03  0.7818608E-02  0.1023340E+00
         21   -1    0    0  501  502  0.00000000000E+00  0.00000000000E+00  0.13922088281E+04  0.13922088281E+04  0.00000000000E+00 0.  1.
         21   -1    0    0  502  503 -0.00000000000E+00 -0.00000000000E+00 -0.20588702194E+03  0.20588702194E+03  0.00000000000E+00 0.  1.
    9000007    1    1    2  501    0  0.59946645016E+02  0.22942095911E+03  0.98918698942E+03  0.10930317821E+04  0.40000000000E+03 0.  1.
   -9000007    1    1    2    0  503 -0.59946645016E+02 -0.22942095911E+03  0.19713481675E+03  0.50506406792E+03  0.40000000000E+03 0.  1.
<mgrwt>
<rscale>  2 0.46500277E+03</rscale>
<asrwt>0</asrwt>
<pdfrwt beam="1">  1       21 0.21418597E+00 0.46500277E+03</pdfrwt>
<pdfrwt beam="2">  1       21 0.31674927E-01 0.46500277E+03</pdfrwt>
<totfact> 0.86162865E+02</totfact>
</mgrwt>
</event>
<event>
 4    1  0.4690138E-002  0.4172164E+03  0.7818608E-02  0.1037976E+00
         21   -1    0    0  501  502  0.00000000000E+00  0.00000000000E+00  0.51241733227E+03  0.51241733227E+03  0.00000000000E+00 0. -1.
         21   -1    0    0  502  503 -0.00000000000E+00 -0.00000000000E+00 -0.34053840204E+03  0.34053840204E+03  0.00000000000E+00 0.  1.
    9000007    1    1    2  501    0  0.77390283861E+02  0.89890207857E+02  0.64811269800E+02  0.42222032897E+03  0.40000000000E+03 0.  1.
   -9000007    1    1    2    0  503 -0.77390283861E+02 -0.89890207857E+02  0.10706766043E+03  0.43073540534E+03  0.40000000000E+03 0.  1.
<mgrwt>
<rscale>  2 0.41721638E+03</rscale>
<asrwt>0</asrwt>
<pdfrwt beam="1">  1       21 0.78833436E-01 0.41721638E+03</pdfrwt>
<pdfrwt beam="2">  1       21 0.52390523E-01 0.41721638E+03</pdfrwt>
<totfact> 0.43588776E+03</totfact>
</mgrwt>
</event>
<event>
 4    1  0.4690138E-002  0.4511219E+03  0.7818608E-02  0.1027388E+00
         21   -1    0    0  503  502  0.00000000000E+00  0.00000000000E+00  0.81345390606E+03  0.81345390606E+03  0.00000000000E+00 0.  1.
         21   -1    0    0  501  503 -0.00000000000E+00 -0.00000000000E+00 -0.16279478509E+04  0.16279478509E+04  0.00000000000E+00 0.  1.
    9000007    1    1    2  501    0  0.19967677877E+03  0.60333412763E+02 -0.15302394183E+04  0.15953506241E+04  0.40000000000E+03 0.  1.
   -9000007    1    1    2    0  502 -0.19967677877E+03 -0.60333412763E+02  0.71574547341E+03  0.84605113284E+03  0.40000000000E+03 0.  1.
<mgrwt>
<rscale>  2 0.45112186E+03</rscale>
<asrwt>0</asrwt>
<pdfrwt beam="1">  1       21 0.12514676E+00 0.45112186E+03</pdfrwt>
<pdfrwt beam="2">  1       21 0.25045351E+00 0.45112186E+03</pdfrwt>
<totfact> 0.23849200E+01</totfact>
</mgrwt>
</event>
<event>
 4    1  0.4690138E-002  0.4537449E+03  0.7818608E-02  0.1026611E+00
         21   -1    0    0  503  502  0.00000000000E+00  0.00000000000E+00  0.58240264070E+03  0.58240264070E+03  0.00000000000E+00 0. -1.
         21   -1    0    0  501  503 -0.00000000000E+00 -0.00000000000E+00 -0.67907480806E+03  0.67907480806E+03  0.00000000000E+00 0.  1.
    9000007    1    1    2  501    0 -0.10686752845E+03 -0.18564419610E+03 -0.48506328101E+03  0.66420691262E+03  0.40000000000E+03 0.  1.
   -9000007    1    1    2    0  502  0.10686752845E+03  0.18564419610E+03  0.38839111366E+03  0.59727053615E+03  0.40000000000E+03 0. -1.
<mgrwt>
<rscale>  2 0.45374490E+03</rscale>
<asrwt>0</asrwt>
<pdfrwt beam="1">  1       21 0.89600406E-01 0.45374490E+03</pdfrwt>
<pdfrwt beam="2">  1       21 0.10447305E+00 0.45374490E+03</pdfrwt>
<totfact> 0.66000415E+02</totfact>
</mgrwt>
</event>
<event>
 4    1  0.4690138E-002  0.6504599E+03  0.7818608E-02  0.9805917E-01
         21   -1    0    0  503  502  0.00000000000E+00  0.00000000000E+00  0.46946718733E+03  0.46946718733E+03  0.00000000000E+00 0.  1.
         21   -1    0    0  501  503 -0.00000000000E+00 -0.00000000000E+00 -0.17328770187E+04  0.17328770187E+04  0.00000000000E+00 0. -1.
    9000007    1    1    2  501    0  0.45988337707E+03  0.22716817659E+03 -0.13945577120E+04  0.15387947599E+04  0.40000000000E+03 0. -1.
   -9000007    1    1    2    0  502 -0.45988337707E+03 -0.22716817659E+03  0.13114788059E+03  0.66354944619E+03  0.40000000000E+03 0.  1.
<mgrwt>
<rscale>  2 0.65045991E+03</rscale>
<asrwt>0</asrwt>
<pdfrwt beam="1">  1       21 0.72225721E-01 0.65045991E+03</pdfrwt>
<pdfrwt beam="2">  1       21 0.26659647E+00 0.65045991E+03</pdfrwt>
<totfact> 0.64306869E+01</totfact>
</mgrwt>
</event>
<event>
 4    1  0.4690138E-002  0.4011725E+03  0.7818608E-02  0.1043374E+00
         21   -1    0    0  503  502  0.00000000000E+00  0.00000000000E+00  0.11824973770E+04  0.11824973770E+04  0.00000000000E+00 0. -1.
         21   -1    0    0  501  503 -0.00000000000E+00 -0.00000000000E+00 -0.14624145558E+03  0.14624145558E+03  0.00000000000E+00 0. -1.
    9000007    1    1    2  501    0 -0.25403864739E+02 -0.17147691698E+02  0.69307123250E+03  0.80080405405E+03  0.40000000000E+03 0. -1.
   -9000007    1    1    2    0  502  0.25403864739E+02  0.17147691698E+02  0.34318468895E+03  0.52793477855E+03  0.40000000000E+03 0. -1.
<mgrwt>
<rscale>  2 0.40117253E+03</rscale>
<asrwt>0</asrwt>
<pdfrwt beam="1">  1       21 0.18192267E+00 0.40117253E+03</pdfrwt>
<pdfrwt beam="2">  1       21 0.22498686E-01 0.40117253E+03</pdfrwt>
<totfact> 0.28523637E+03</totfact>
</mgrwt>
</event>
<event>
 4    1  0.4690138E-002  0.4169456E+03  0.7818608E-02  0.1038065E+00
         21   -1    0    0  501  502  0.00000000000E+00  0.00000000000E+00  0.23009405795E+03  0.23009405795E+03  0.00000000000E+00 0.  1.
         21   -1    0    0  502  503 -0.00000000000E+00 -0.00000000000E+00 -0.10082926899E+04  0.10082926899E+04  0.00000000000E+00 0.  1.
    9000007    1    1    2  501    0  0.39173304018E+02  0.11094632496E+03 -0.79081273806E+02  0.42437893755E+03  0.40000000000E+03 0.  1.
   -9000007    1    1    2    0  503 -0.39173304018E+02 -0.11094632496E+03 -0.69911735814E+03  0.81400781029E+03  0.40000000000E+03 0.  1.
<mgrwt>
<rscale>  2 0.41694560E+03</rscale>
<asrwt>0</asrwt>
<pdfrwt beam="1">  1       21 0.35399087E-01 0.41694560E+03</pdfrwt>
<pdfrwt beam="2">  1       21 0.15512195E+00 0.41694560E+03</pdfrwt>
<totfact> 0.18210305E+03</totfact>
</mgrwt>
</event>
<event>
 4    1  0.4690138E-002  0.5843353E+03  0.7818608E-02  0.9938449E-01
         21   -1    0    0  503  502  0.00000000000E+00  0.00000000000E+00  0.40444766992E+03  0.40444766992E+03  0.00000000000E+00 0. -1.
         21   -1    0    0  501  503 -0.00000000000E+00 -0.00000000000E+00 -0.15189541695E+04  0.15189541695E+04  0.00000000000E+00 0.  1.
    9000007    1    1    2  501    0  0.30998428334E+02  0.42483741134E+03 -0.11982120813E+04  0.13331016167E+04  0.40000000000E+03 0.  1.
   -9000007    1    1    2    0  502 -0.30998428334E+02 -0.42483741134E+03  0.83705581652E+02  0.59030022280E+03  0.40000000000E+03 0. -1.
<mgrwt>
<rscale>  2 0.58433529E+03</rscale>
<asrwt>0</asrwt>
<pdfrwt beam="1">  1       21 0.62222718E-01 0.58433529E+03</pdfrwt>
<pdfrwt beam="2">  1       21 0.23368526E+00 0.58433529E+03</pdfrwt>
<totfact> 0.14838863E+02</totfact>
</mgrwt>
</event>
<event>
 4    1  0.4690138E-002  0.4105731E+03  0.7818608E-02  0.1040179E+00
         21   -1    0    0  501  502  0.00000000000E+00  0.00000000000E+00  0.60547628480E+03  0.60547628480E+03  0.00000000000E+00 0.  1.
         21   -1    0    0  502  503 -0.00000000000E+00 -0.00000000000E+00 -0.28041050594E+03  0.28041050594E+03  0.00000000000E+00 0.  1.
    9000007    1    1    2  501    0 -0.21429526900E+02 -0.90061539954E+02  0.19995111464E+03  0.45667357472E+03  0.40000000000E+03 0. -1.
   -9000007    1    1    2    0  503  0.21429526900E+02  0.90061539954E+02  0.12511466422E+03  0.42921321602E+03  0.40000000000E+03 0. -1.
<mgrwt>
<rscale>  2 0.41057314E+03</rscale>
<asrwt>0</asrwt>
<pdfrwt beam="1">  1       21 0.93150197E-01 0.41057314E+03</pdfrwt>
<pdfrwt beam="2">  1       21 0.43140078E-01 0.41057314E+03</pdfrwt>
<totfact> 0.44538851E+03</totfact>
</mgrwt>
</event>
<event>
 4    1  0.4690138E-002  0.4136409E+03  0.7818608E-02  0.1039156E+00
         21   -1    0    0  503  502  0.00000000000E+00  0.00000000000E+00  0.83396272493E+03  0.83396272493E+03  0.00000000000E+00 0.  1.
         21   -1    0    0  501  503 -0.00000000000E+00 -0.00000000000E+00 -0.31754580387E+03  0.31754580387E+03  0.00000000000E+00 0.  1.
    9000007    1    1    2  501    0  0.87748211341E+02 -0.58301156314E+02 -0.84309063749E+02  0.42214546267E+03  0.40000000000E+03 0.  1.
   -9000007    1    1    2    0  502 -0.87748211341E+02  0.58301156314E+02  0.60072598481E+03  0.72936306614E+03  0.40000000000E+03 0.  1.
<mgrwt>
<rscale>  2 0.41364087E+03</rscale>
<asrwt>0</asrwt>
<pdfrwt beam="1">  1       21 0.12830196E+00 0.41364087E+03</pdfrwt>
<pdfrwt beam="2">  1       21 0.48853201E-01 0.41364087E+03</pdfrwt>
<totfact> 0.15509048E+03</totfact>
</mgrwt>
</event>
<event>
 4    1  0.4690138E-002  0.5188488E+03  0.7818608E-02  0.1008973E+00
         21   -1    0    0  503  502  0.00000000000E+00  0.00000000000E+00  0.12197184596E+04  0.12197184596E+04  0.00000000000E+00 0. -1.
         21   -1    0    0  501  503 -0.00000000000E+00 -0.00000000000E+00 -0.29513098692E+03  0.29513098692E+03  0.00000000000E+00 0. -1.
    9000007    1    1    2  501    0 -0.23123248000E+03 -0.23608395711E+03  0.84264048180E+03  0.98956913664E+03  0.40000000000E+03 0. -1.
   -9000007    1    1    2    0  502  0.23123248000E+03  0.23608395711E+03  0.81946990840E+02  0.52528030985E+03  0.40000000000E+03 0. -1.
<mgrwt>
<rscale>  2 0.51884882E+03</rscale>
<asrwt>0</asrwt>
<pdfrwt beam="1">  1       21 0.18764899E+00 0.51884882E+03</pdfrwt>
<pdfrwt beam="2">  1       21 0.45404768E-01 0.51884882E+03</pdfrwt>
<totfact> 0.60537928E+02</totfact>
</mgrwt>
</event>
<event>
 4    1  0.4690138E-002  0.5512675E+03  0.7818608E-02  0.1001201E+00
         21   -1    0    0  501  502  0.00000000000E+00  0.00000000000E+00  0.24137175960E+03  0.24137175960E+03  0.00000000000E+00 0.  1.
         21   -1    0    0  502  503 -0.00000000000E+00 -0.00000000000E+00 -0.15097253034E+04  0.15097253034E+04  0.00000000000E+00 0.  1.
    9000007    1    1    2  501    0 -0.22955534582E+03  0.30199364943E+03 -0.27739812936E+03  0.61712684536E+03  0.40000000000E+03 0.  1.
   -9000007    1    1    2    0  503  0.22955534582E+03 -0.30199364943E+03 -0.99095541439E+03  0.11339702176E+04  0.40000000000E+03 0.  1.
<mgrwt>
<rscale>  2 0.55126747E+03</rscale>
<asrwt>0</asrwt>
<pdfrwt beam="1">  1       21 0.37134118E-01 0.55126747E+03</pdfrwt>
<pdfrwt beam="2">  1       21 0.23226542E+00 0.55126747E+03</pdfrwt>
<totfact> 0.46085011E+02</totfact>
</mgrwt>
</event>
<event>
 4    1  0.4690138E-002  0.4433256E+03  0.7818608E-02  0.1029731E+00
         21   -1    0    0  501  502  0.00000000000E+00  0.00000000000E+00  0.30021495806E+03  0.30021495806E+03  0.00000000000E+00 0.  1.
         21   -1    0    0  502  503 -0.00000000000E+00 -0.00000000000E+00 -0.20371880316E+04  0.20371880316E+04  0.00000000000E+00 0.  1.
    9000007    1    1    2  501    0 -0.18939044937E+03 -0.25861615738E+02  0.94290272353E+02  0.45324190113E+03  0.40000000000E+03 0.  1.
   -9000007    1    1    2    0  503  0.18939044937E+03  0.25861615738E+02 -0.18312633459E+04  0.18841610885E+04  0.40000000000E+03 0.  1.
<mgrwt>
<rscale>  2 0.44332558E+03</rscale>
<asrwt>0</asrwt>
<pdfrwt beam="1">  1       21 0.46186917E-01 0.44332558E+03</pdfrwt>
<pdfrwt beam="2">  1       21 0.31341354E+00 0.44332558E+03</pdfrwt>
<totfact> 0.99172901E+01</totfact>
</mgrwt>
</event>
<event>
 4    1  0.4690138E-002  0.5205648E+03  0.7818608E-02  0.1008546E+00
         21   -1    0    0  503  502  0.00000000000E+00  0.00000000000E+00  0.25370589881E+03  0.25370589881E+03  0.00000000000E+00 0.  1.
         21   -1    0    0  501  503 -0.00000000000E+00 -0.00000000000E+00 -0.10753924617E+04  0.10753924617E+04  0.00000000000E+00 0. -1.
    9000007    1    1    2  501    0 -0.26310171208E+03  0.20436545950E+03 -0.46550132702E+03  0.69834034496E+03  0.40000000000E+03 0. -1.
   -9000007    1    1    2    0  502  0.26310171208E+03 -0.20436545950E+03 -0.35618523585E+03  0.63075801554E+03  0.40000000000E+03 0. -1.
<mgrwt>
<rscale>  2 0.52056484E+03</rscale>
<asrwt>0</asrwt>
<pdfrwt beam="1">  1       21 0.39031676E-01 0.52056484E+03</pdfrwt>
<pdfrwt beam="2">  1       21 0.16544500E+00 0.52056484E+03</pdfrwt>
<totfact> 0.11957964E+03</totfact>
</mgrwt>
</event>
<event>
 4    1  0.4690138E-002  0.4704002E+03  0.7818608E-02  0.1021807E+00
         21   -1    0    0  501  502  0.00000000000E+00  0.00000000000E+00  0.30723122883E+03  0.30723122883E+03  0.00000000000E+00 0.  1.
         21   -1    0    0  502  503 -0.00000000000E+00 -0.00000000000E+00 -0.72664655781E+03  0.72664655781E+03  0.00000000000E+00 0. -1.
    9000007    1    1    2  501    0  0.22825060929E+03 -0.95802059322E+02 -0.25829395628E+03  0.53664899428E+03  0.40000000000E+03 0.  1.
   -9000007    1    1    2    0  503 -0.22825060929E+03  0.95802059322E+02 -0.16112137270E+03  0.49722879236E+03  0.40000000000E+03 0. -1.
<mgrwt>
<rscale>  2 0.47040023E+03</rscale>
<asrwt>0</asrwt>
<pdfrwt beam="1">  1       21 0.47266343E-01 0.47040023E+03</pdfrwt>
<pdfrwt beam="2">  1       21 0.11179178E+00 0.47040023E+03</pdfrwt>
<totfact> 0.23063125E+03</totfact>
</mgrwt>
</event>
<event>
 4    1  0.4690138E-002  0.4995370E+03  0.7818608E-02  0.1013900E+00
         21   -1    0    0  501  502  0.00000000000E+00  0.00000000000E+00  0.77876784835E+02  0.77876784835E+02  0.00000000000E+00 0. -1.
         21   -1    0    0  502  503 -0.00000000000E+00 -0.00000000000E+00 -0.32689625147E+04  0.32689625147E+04  0.00000000000E+00 0. -1.
    9000007    1    1    2  501    0 -0.20485912917E+03 -0.21810532857E+03 -0.13601072912E+04  0.14489406616E+04  0.40000000000E+03 0. -1.
   -9000007    1    1    2    0  503  0.20485912917E+03  0.21810532857E+03 -0.18309784386E+04  0.18978986379E+04  0.40000000000E+03 0. -1.
<mgrwt>
<rscale>  2 0.49953698E+03</rscale>
<asrwt>0</asrwt>
<pdfrwt beam="1">  1       21 0.11981043E-01 0.49953698E+03</pdfrwt>
<pdfrwt beam="2">  1       21 0.50291734E+00 0.49953698E+03</pdfrwt>
<totfact> 0.76768238E+01</totfact>
</mgrwt>
</event>
<event>
 4    1  0.4690138E-002  0.5423614E+03  0.7818608E-02  0.1003278E+00
         21   -1    0    0  503  502  0.00000000000E+00  0.00000000000E+00  0.13471617842E+04  0.13471617842E+04  0.00000000000E+00 0.  1.
         21   -1    0    0  501  503 -0.00000000000E+00 -0.00000000000E+00 -0.70253916426E+03  0.70253916426E+03  0.00000000000E+00 0.  1.
    9000007    1    1    2  501    0 -0.11080072716E+03  0.34911179786E+03 -0.52849704604E+03  0.75727470327E+03  0.40000000000E+03 0.  1.
   -9000007    1    1    2    0  502  0.11080072716E+03 -0.34911179786E+03  0.11731196660E+04  0.12924262452E+04  0.40000000000E+03 0.  1.
<mgrwt>
<rscale>  2 0.54236136E+03</rscale>
<asrwt>0</asrwt>
<pdfrwt beam="1">  1       21 0.20725566E+00 0.54236136E+03</pdfrwt>
<pdfrwt beam="2">  1       21 0.10808295E+00 0.54236136E+03</pdfrwt>
<totfact> 0.61531887E+01</totfact>
</mgrwt>
</event>
<event>
 4    1  0.4690138E-002  0.4780119E+03  0.7818608E-02  0.1019683E+00
         21   -1    0    0  501  502  0.00000000000E+00  0.00000000000E+00  0.27929173861E+03  0.27929173861E+03  0.00000000000E+00 0.  1.
         21   -1    0    0  502  503 -0.00000000000E+00 -0.00000000000E+00 -0.84901143052E+03  0.84901143052E+03  0.00000000000E+00 0. -1.
    9000007    1    1    2  501    0  0.16466810420E+01 -0.26171100230E+03 -0.17725600558E+03  0.50981864599E+03  0.40000000000E+03 0.  1.
   -9000007    1    1    2    0  503 -0.16466810420E+01  0.26171100230E+03 -0.39246368633E+03  0.61848452314E+03  0.40000000000E+03 0.  1.
<mgrwt>
<rscale>  2 0.47801188E+03</rscale>
<asrwt>0</asrwt>
<pdfrwt beam="1">  1       21 0.42967960E-01 0.47801188E+03</pdfrwt>
<pdfrwt beam="2">  1       21 0.13061714E+00 0.47801188E+03</pdfrwt>
<totfact> 0.18896148E+03</totfact>
</mgrwt>
</event>
<event>
 4    1  0.4690138E-002  0.4592722E+03  0.7818608E-02  0.1024993E+00
         21   -1    0    0  501  502  0.00000000000E+00  0.00000000000E+00  0.14758126100E+04  0.14758126100E+04  0.00000000000E+00 0.  1.
         21   -1    0    0  502  503 -0.00000000000E+00 -0.00000000000E+00 -0.14503921136E+03  0.14503921136E+03  0.00000000000E+00 0.  1.
    9000007    1    1    2  501    0  0.21706057363E+03  0.61770770600E+02  0.76322676261E+03  0.89075586548E+03  0.40000000000E+03 0.  1.
   -9000007    1    1    2    0  503 -0.21706057363E+03 -0.61770770600E+02  0.56754663600E+03  0.73009595586E+03  0.40000000000E+03 0.  1.
<mgrwt>
<rscale>  2 0.45927216E+03</rscale>
<asrwt>0</asrwt>
<pdfrwt beam="1">  1       21 0.22704808E+00 0.45927216E+03</pdfrwt>
<pdfrwt beam="2">  1       21 0.22313726E-01 0.45927216E+03</pdfrwt>
<totfact> 0.14209025E+03</totfact>
</mgrwt>
</event>
<event>
 4    1  0.4690138E-002  0.4712122E+03  0.7818608E-02  0.1021579E+00
         21   -1    0    0  503  502  0.00000000000E+00  0.00000000000E+00  0.18051738576E+03  0.18051738576E+03  0.00000000000E+00 0. -1.
         21   -1    0    0  501  503 -0.00000000000E+00 -0.00000000000E+00 -0.17638778059E+04  0.17638778059E+04  0.00000000000E+00 0. -1.
    9000007    1    1    2  501    0 -0.55797193322E+02 -0.24275014561E+03 -0.13265288784E+04  0.14077357085E+04  0.40000000000E+03 0. -1.
   -9000007    1    1    2    0  502  0.55797193322E+02  0.24275014561E+03 -0.25683154179E+03  0.53665948313E+03  0.40000000000E+03 0. -1.
<mgrwt>
<rscale>  2 0.47121222E+03</rscale>
<asrwt>0</asrwt>
<pdfrwt beam="1">  1       21 0.27771905E-01 0.47121222E+03</pdfrwt>
<pdfrwt beam="2">  1       21 0.27136582E+00 0.47121222E+03</pdfrwt>
<totfact> 0.49160215E+02</totfact>
</mgrwt>
</event>
<event>
 4    1  0.4690138E-002  0.4219466E+03  0.7818608E-02  0.1036435E+00
         21   -1    0    0  503  502  0.00000000000E+00  0.00000000000E+00  0.13807817038E+04  0.13807817038E+04  0.00000000000E+00 0. -1.
         21   -1    0    0  501  503 -0.00000000000E+00 -0.00000000000E+00 -0.13003020868E+03  0.13003020868E+03  0.00000000000E+00 0. -1.
    9000007    1    1    2  501    0 -0.83374836127E+02  0.10529737918E+03  0.69452412675E+03  0.81265162524E+03  0.40000000000E+03 0. -1.
   -9000007    1    1    2    0  502  0.83374836127E+02 -0.10529737918E+03  0.55622736837E+03  0.69816028724E+03  0.40000000000E+03 0. -1.
<mgrwt>
<rscale>  2 0.42194656E+03</rscale>
<asrwt>0</asrwt>
<pdfrwt beam="1">  1       21 0.21242794E+00 0.42194656E+03</pdfrwt>
<pdfrwt beam="2">  1       21 0.20004649E-01 0.42194656E+03</pdfrwt>
<totfact> 0.22089400E+03</totfact>
</mgrwt>
</event>
<event>
 4    1  0.4690138E-002  0.6770092E+03  0.7818608E-02  0.9757378E-01
         21   -1    0    0  501  502  0.00000000000E+00  0.00000000000E+00  0.42254886847E+03  0.42254886847E+03  0.00000000000E+00 0.  1.
         21   -1    0    0  502  503 -0.00000000000E+00 -0.00000000000E+00 -0.10847096043E+04  0.10847096043E+04  0.00000000000E+00 0. -1.
    9000007    1    1    2  501    0 -0.77811637002E+02 -0.54063561694E+03 -0.33234702184E+03  0.75418569602E+03  0.40000000000E+03 0. -1.
   -9000007    1    1    2    0  503  0.77811637002E+02  0.54063561694E+03 -0.32981371401E+03  0.75307277677E+03  0.40000000000E+03 0.  1.
<mgrwt>
<rscale>  2 0.67700925E+03</rscale>
<asrwt>0</asrwt>
<pdfrwt beam="1">  1       21 0.65007518E-01 0.67700925E+03</pdfrwt>
<pdfrwt beam="2">  1       21 0.16687840E+00 0.67700925E+03</pdfrwt>
<totfact> 0.37049557E+02</totfact>
</mgrwt>
</event>
<event>
 4    1  0.4690138E-002  0.4276339E+03  0.7818608E-02  0.1034610E+00
         21   -1    0    0  501  502  0.00000000000E+00  0.00000000000E+00  0.95159598831E+03  0.95159598831E+03  0.00000000000E+00 0. -1.
         21   -1    0    0  502  503 -0.00000000000E+00 -0.00000000000E+00 -0.45314547110E+03  0.45314547110E+03  0.00000000000E+00 0. -1.
    9000007    1    1    2  501    0 -0.54890551038E+02 -0.14091755895E+03  0.78224735827E+03  0.89150527790E+03  0.40000000000E+03 0. -1.
   -9000007    1    1    2    0  503  0.54890551038E+02  0.14091755895E+03 -0.28379684106E+03  0.51323618151E+03  0.40000000000E+03 0. -1.
<mgrwt>
<rscale>  2 0.42763387E+03</rscale>
<asrwt>0</asrwt>
<pdfrwt beam="1">  1       21 0.14639938E+00 0.42763387E+03</pdfrwt>
<pdfrwt beam="2">  1       21 0.69714688E-01 0.42763387E+03</pdfrwt>
<totfact> 0.50162887E+02</totfact>
</mgrwt>
</event>
<event>
 4    1  0.4690138E-002  0.4023584E+03  0.7818608E-02  0.1042966E+00
         21   -1    0    0  501  502  0.00000000000E+00  0.00000000000E+00  0.38372910868E+03  0.38372910868E+03  0.00000000000E+00 0.  1.
         21   -1    0    0  502  503 -0.00000000000E+00 -0.00000000000E+00 -0.42192413622E+03  0.42192413622E+03  0.00000000000E+00 0.  1.
    9000007    1    1    2  501    0 -0.19038372500E+02  0.39113376510E+02 -0.15592591262E+02  0.40266045839E+03  0.40000000000E+03 0. -1.
   -9000007    1    1    2    0  503  0.19038372500E+02 -0.39113376510E+02 -0.22602436276E+02  0.40299278651E+03  0.40000000000E+03 0. -1.
<mgrwt>
<rscale>  2 0.40235844E+03</rscale>
<asrwt>0</asrwt>
<pdfrwt beam="1">  1       21 0.59035248E-01 0.40235844E+03</pdfrwt>
<pdfrwt beam="2">  1       21 0.64911405E-01 0.40235844E+03</pdfrwt>
<totfact> 0.52506188E+03</totfact>
</mgrwt>
</event>
<event>
 4    1  0.4690138E-002  0.4317491E+03  0.7818608E-02  0.1033309E+00
         21   -1    0    0  501  502  0.00000000000E+00  0.00000000000E+00  0.23541777414E+03  0.23541777414E+03  0.00000000000E+00 0. -1.
         21   -1    0    0  502  503 -0.00000000000E+00 -0.00000000000E+00 -0.13147520494E+04  0.13147520494E+04  0.00000000000E+00 0. -1.
    9000007    1    1    2  501    0  0.14511329466E+03 -0.73139929521E+02 -0.50843640891E+02  0.43473255387E+03  0.40000000000E+03 0. -1.
   -9000007    1    1    2    0  503 -0.14511329466E+03  0.73139929521E+02 -0.10284906343E+04  0.11154372696E+04  0.40000000000E+03 0. -1.
<mgrwt>
<rscale>  2 0.43174914E+03</rscale>
<asrwt>0</asrwt>
<pdfrwt beam="1">  1       21 0.36218119E-01 0.43174914E+03</pdfrwt>
<pdfrwt beam="2">  1       21 0.20226955E+00 0.43174914E+03</pdfrwt>
<totfact> 0.79955802E+02</totfact>
</mgrwt>
</event>
<event>
 4    1  0.4690138E-002  0.5391404E+03  0.7818608E-02  0.1004039E+00
         21   -1    0    0  503  502  0.00000000000E+00  0.00000000000E+00  0.98633206389E+03  0.98633206389E+03  0.00000000000E+00 0.  1.
         21   -1    0    0  501  503 -0.00000000000E+00 -0.00000000000E+00 -0.46244904853E+03  0.46244904853E+03  0.00000000000E+00 0.  1.
    9000007    1    1    2  501    0  0.29093661062E+03 -0.21454205159E+03 -0.17434362718E+03  0.56662871762E+03  0.40000000000E+03 0.  1.
   -9000007    1    1    2    0  502 -0.29093661062E+03  0.21454205159E+03  0.69822664254E+03  0.88215239480E+03  0.40000000000E+03 0.  1.
<mgrwt>
<rscale>  2 0.53914043E+03</rscale>
<asrwt>0</asrwt>
<pdfrwt beam="1">  1       21 0.15174339E+00 0.53914043E+03</pdfrwt>
<pdfrwt beam="2">  1       21 0.71146008E-01 0.53914043E+03</pdfrwt>
<totfact> 0.41410173E+02</totfact>
</mgrwt>
</event>
<event>
 4    1  0.4690138E-002  0.4032477E+03  0.7818608E-02  0.1042661E+00
         21   -1    0    0  501  502  0.00000000000E+00  0.00000000000E+00  0.73819987164E+03  0.73819987164E+03  0.00000000000E+00 0.  1.
         21   -1    0    0  502  503 -0.00000000000E+00 -0.00000000000E+00 -0.24403494694E+03  0.24403494694E+03  0.00000000000E+00 0.  1.
    9000007    1    1    2  501    0 -0.31430367532E+01 -0.50979047099E+02  0.40031824674E+03  0.56821073608E+03  0.40000000000E+03 0.  1.
   -9000007    1    1    2    0  503  0.31430367532E+01  0.50979047099E+02  0.93846677963E+02  0.41402408250E+03  0.40000000000E+03 0.  1.
<mgrwt>
<rscale>  2 0.40324774E+03</rscale>
<asrwt>0</asrwt>
<pdfrwt beam="1">  1       21 0.11356921E+00 0.40324774E+03</pdfrwt>
<pdfrwt beam="2">  1       21 0.37543838E-01 0.40324774E+03</pdfrwt>
<totfact> 0.36663131E+03</totfact>
</mgrwt>
</event>
<event>
 4    1  0.4690138E-002  0.4240911E+03  0.7818608E-02  0.1035743E+00
         21   -1    0    0  503  502  0.00000000000E+00  0.00000000000E+00  0.14632097743E+04  0.14632097743E+04  0.00000000000E+00 0.  1.
         21   -1    0    0  501  503 -0.00000000000E+00 -0.00000000000E+00 -0.13976576029E+03  0.13976576029E+03  0.00000000000E+00 0.  1.
    9000007    1    1    2  501    0 -0.40791549139E+02 -0.13486788536E+03  0.38344264646E+03  0.57173556834E+03  0.40000000000E+03 0. -1.
   -9000007    1    1    2    0  502  0.40791549139E+02  0.13486788536E+03  0.94000136753E+03  0.10312399662E+04  0.40000000000E+03 0. -1.
<mgrwt>
<rscale>  2 0.42409114E+03</rscale>
<asrwt>0</asrwt>
<pdfrwt beam="1">  1       21 0.22510919E+00 0.42409114E+03</pdfrwt>
<pdfrwt beam="2">  1       21 0.21502426E-01 0.42409114E+03</pdfrwt>
<totfact> 0.15952872E+03</totfact>
</mgrwt>
</event>
<event>
 4    1  0.4690138E-002  0.4116577E+03  0.7818608E-02  0.1039816E+00
         21   -1    0    0  501  502  0.00000000000E+00  0.00000000000E+00  0.10993290530E+04  0.10993290530E+04  0.00000000000E+00 0. -1.
         21   -1    0    0  502  503 -0.00000000000E+00 -0.00000000000E+00 -0.19365816060E+03  0.19365816060E+03  0.00000000000E+00 0. -1.
    9000007    1    1    2  501    0  0.87768778364E+02 -0.41937124985E+02  0.74483837117E+03  0.85102660362E+03  0.40000000000E+03 0. -1.
   -9000007    1    1    2    0  503 -0.87768778364E+02  0.41937124985E+02  0.16083252127E+03  0.44196061002E+03  0.40000000000E+03 0. -1.
<mgrwt>
<rscale>  2 0.41165772E+03</rscale>
<asrwt>0</asrwt>
<pdfrwt beam="1">  1       21 0.16912754E+00 0.41165772E+03</pdfrwt>
<pdfrwt beam="2">  1       21 0.29793564E-01 0.41165772E+03</pdfrwt>
<totfact> 0.20251775E+03</totfact>
</mgrwt>
</event>
<event>
 4    1  0.4690138E-002  0.5146720E+03  0.7818608E-02  0.1010019E+00
         21   -1    0    0  503  502  0.00000000000E+00  0.00000000000E+00  0.18139985005E+03  0.18139985005E+03  0.00000000000E+00 0.  1.
         21   -1    0    0  501  503 -0.00000000000E+00 -0.00000000000E+00 -0.14628298413E+04  0.14628298413E+04  0.00000000000E+00 0. -1.
    9000007    1    1    2  501    0  0.50246448722E+02 -0.31994142242E+03 -0.67531031087E+03  0.84907669580E+03  0.40000000000E+03 0.  1.
   -9000007    1    1    2    0  502 -0.50246448722E+02  0.31994142242E+03 -0.60611968043E+03  0.79515299559E+03  0.40000000000E+03 0.  1.
<mgrwt>
<rscale>  2 0.51467195E+03</rscale>
<asrwt>0</asrwt>
<pdfrwt beam="1">  1       21 0.27907669E-01 0.51467195E+03</pdfrwt>
<pdfrwt beam="2">  1       21 0.22505075E+00 0.51467195E+03</pdfrwt>
<totfact> 0.92346030E+02</totfact>
</mgrwt>
</event>
<event>
 4    1  0.4690138E-002  0.4151232E+03  0.7818608E-02  0.1038665E+00
         21   -1    0    0  503  502  0.00000000000E+00  0.00000000000E+00  0.89363813350E+03  0.89363813350E+03  0.00000000000E+00 0.  1.
         21   -1    0    0  501  503 -0.00000000000E+00 -0.00000000000E+00 -0.44679112762E+03  0.44679112762E+03  0.00000000000E+00 0.  1.
    9000007    1    1    2  501    0  0.68717709120E+02  0.87207262615E+02 -0.28186401513E+03  0.50177141531E+03  0.40000000000E+03 0.  1.
   -9000007    1    1    2    0  502 -0.68717709120E+02 -0.87207262615E+02  0.72871102100E+03  0.83865784580E+03  0.40000000000E+03 0.  1.
<mgrwt>
<rscale>  2 0.41512315E+03</rscale>
<asrwt>0</asrwt>
<pdfrwt beam="1">  1       21 0.13748279E+00 0.41512315E+03</pdfrwt>
<pdfrwt beam="2">  1       21 0.68737097E-01 0.41512315E+03</pdfrwt>
<totfact> 0.61594975E+02</totfact>
</mgrwt>
</event>
<event>
 4    1  0.4690138E-002  0.4822140E+03  0.7818608E-02  0.1018528E+00
         21   -1    0    0  503  502  0.00000000000E+00  0.00000000000E+00  0.15988842102E+03  0.15988842102E+03  0.00000000000E+00 0.  1.
         21   -1    0    0  501  503 -0.00000000000E+00 -0.00000000000E+00 -0.17861146897E+04  0.17861146897E+04  0.00000000000E+00 0. -1.
    9000007    1    1    2  501    0  0.14193982666E+03  0.22887435583E+03 -0.12324737257E+04  0.13234507432E+04  0.40000000000E+03 0.  1.
   -9000007    1    1    2    0  502 -0.14193982666E+03 -0.22887435583E+03 -0.39375254290E+03  0.62255236742E+03  0.40000000000E+03 0.  1.
<mgrwt>
<rscale>  2 0.48221404E+03</rscale>
<asrwt>0</asrwt>
<pdfrwt beam="1">  1       21 0.24598218E-01 0.48221404E+03</pdfrwt>
<pdfrwt beam="2">  1       21 0.27478688E+00 0.48221404E+03</pdfrwt>
<totfact> 0.59097314E+02</totfact>
</mgrwt>
</event>
<event>
 4    1  0.4690138E-002  0.5124075E+03  0.7818608E-02  0.1010590E+00
         21   -1    0    0  503  502  0.00000000000E+00  0.00000000000E+00  0.67258070783E+03  0.67258070783E+03  0.00000000000E+00 0. -1.
         21   -1    0    0  501  503 -0.00000000000E+00 -0.00000000000E+00 -0.10660744629E+04  0.10660744629E+04  0.00000000000E+00 0.  1.
    9000007    1    1    2  501    0  0.29357777117E+03  0.12795923314E+03 -0.88884098167E+03  0.10259628472E+04  0.40000000000E+03 0.  1.
   -9000007    1    1    2    0  502 -0.29357777117E+03 -0.12795923314E+03  0.49534722664E+03  0.71269232353E+03  0.40000000000E+03 0. -1.
<mgrwt>
<rscale>  2 0.51240753E+03</rscale>
<asrwt>0</asrwt>
<pdfrwt beam="1">  1       21 0.10347396E+00 0.51240753E+03</pdfrwt>
<pdfrwt beam="2">  1       21 0.16401146E+00 0.51240753E+03</pdfrwt>
<totfact> 0.13951806E+02</totfact>
</mgrwt>
</event>
<event>
 4    1  0.4690138E-002  0.5069672E+03  0.7818608E-02  0.1011976E+00
         21   -1    0    0  503  502  0.00000000000E+00  0.00000000000E+00  0.66610081554E+03  0.66610081554E+03  0.00000000000E+00 0. -1.
         21   -1    0    0  501  503 -0.00000000000E+00 -0.00000000000E+00 -0.39755132602E+03  0.39755132602E+03  0.00000000000E+00 0. -1.
    9000007    1    1    2  501    0 -0.26600225380E+03 -0.16204503061E+03  0.22551122309E+03  0.55486133647E+03  0.40000000000E+03 0. -1.
   -9000007    1    1    2    0  502  0.26600225380E+03  0.16204503061E+03  0.43038266437E+02  0.50879080509E+03  0.40000000000E+03 0. -1.
<mgrwt>
<rscale>  2 0.50696725E+03</rscale>
<asrwt>0</asrwt>
<pdfrwt beam="1">  1       21 0.10247705E+00 0.50696725E+03</pdfrwt>
<pdfrwt beam="2">  1       21 0.61161742E-01 0.50696725E+03</pdfrwt>
<totfact> 0.16200750E+03</totfact>
</mgrwt>
</event>
<event>
 4    1  0.4690138E-002  0.5887796E+03  0.7818608E-02  0.9928962E-01
         21   -1    0    0  503  502  0.00000000000E+00  0.00000000000E+00  0.24683297512E+04  0.24683297512E+04  0.00000000000E+00 0. -1.
         21   -1    0    0  501  503 -0.00000000000E+00 -0.00000000000E+00 -0.14445886283E+03  0.14445886283E+03  0.00000000000E+00 0. -1.
    9000007    1    1    2  501    0  0.17670011953E+03 -0.39425691057E+03  0.94413839245E+03  0.11126808832E+04  0.40000000000E+03 0. -1.
   -9000007    1    1    2    0  502 -0.17670011953E+03  0.39425691057E+03  0.13797324959E+04  0.15001077308E+04  0.40000000000E+03 0. -1.
<mgrwt>
<rscale>  2 0.58877962E+03</rscale>
<asrwt>0</asrwt>
<pdfrwt beam="1">  1       21 0.37974301E+00 0.58877962E+03</pdfrwt>
<pdfrwt beam="2">  1       21 0.22224442E-01 0.58877962E+03</pdfrwt>
<totfact> 0.15483779E+02</totfact>
</mgrwt>
</event>
<event>
 4    1  0.4690138E-002  0.5031766E+03  0.7818608E-02  0.1012953E+00
         21   -1    0    0  503  502  0.00000000000E+00  0.00000000000E+00  0.82643203555E+02  0.82643203555E+02  0.00000000000E+00 0.  1.
         21   -1    0    0  501  503 -0.00000000000E+00 -0.00000000000E+00 -0.31526439036E+04  0.31526439036E+04  0.00000000000E+00 0.  1.
    9000007    1    1    2  501    0 -0.17681805564E+03  0.24884138758E+03 -0.18068442875E+04  0.18755993550E+04  0.40000000000E+03 0.  1.
   -9000007    1    1    2    0  502  0.17681805564E+03 -0.24884138758E+03 -0.12631564125E+04  0.13596877522E+04  0.40000000000E+03 0.  1.
<mgrwt>
<rscale>  2 0.50317657E+03</rscale>
<asrwt>0</asrwt>
<pdfrwt beam="1">  1       21 0.12714341E-01 0.50317657E+03</pdfrwt>
<pdfrwt beam="2">  1       21 0.48502207E+00 0.50317657E+03</pdfrwt>
<totfact> 0.92066616E+01</totfact>
</mgrwt>
</event>
<event>
 4    1  0.4690138E-002  0.4076269E+03  0.7818608E-02  0.1041170E+00
         21   -1    0    0  503  502  0.00000000000E+00  0.00000000000E+00  0.10585068314E+03  0.10585068314E+03  0.00000000000E+00 0. -1.
         21   -1    0    0  501  503 -0.00000000000E+00 -0.00000000000E+00 -0.15797510454E+04  0.15797510454E+04  0.00000000000E+00 0. -1.
    9000007    1    1    2  501    0  0.77923940723E+02  0.93553951648E+01 -0.66990930877E+03  0.78417991936E+03  0.40000000000E+03 0.  1.
   -9000007    1    1    2    0  502 -0.77923940723E+02 -0.93553951648E+01 -0.80399105344E+03  0.90142180913E+03  0.40000000000E+03 0.  1.
<mgrwt>
<rscale>  2 0.40762687E+03</rscale>
<asrwt>0</asrwt>
<pdfrwt beam="1">  1       21 0.16284721E-01 0.40762687E+03</pdfrwt>
<pdfrwt beam="2">  1       21 0.24303861E+00 0.40762687E+03</pdfrwt>
<totfact> 0.21013579E+03</totfact>
</mgrwt>
</event>
<event>
 4    1  0.4690138E-002  0.4417529E+03  0.7818608E-02  0.1030210E+00
         21   -1    0    0  501  502  0.00000000000E+00  0.00000000000E+00  0.47668134527E+03  0.47668134527E+03  0.00000000000E+00 0. -1.
         21   -1    0    0  502  503 -0.00000000000E+00 -0.00000000000E+00 -0.41584265504E+03  0.41584265504E+03  0.00000000000E+00 0. -1.
    9000007    1    1    2  501    0  0.82425622732E+01  0.18729044570E+03 -0.25196817072E+02  0.44247093743E+03  0.40000000000E+03 0. -1.
   -9000007    1    1    2    0  503 -0.82425622732E+01 -0.18729044570E+03  0.86035507305E+02  0.45005306287E+03  0.40000000000E+03 0. -1.
<mgrwt>
<rscale>  2 0.44175293E+03</rscale>
<asrwt>0</asrwt>
<pdfrwt beam="1">  1       21 0.73335591E-01 0.44175293E+03</pdfrwt>
<pdfrwt beam="2">  1       21 0.63975793E-01 0.44175293E+03</pdfrwt>
<totfact> 0.32998113E+03</totfact>
</mgrwt>
</event>
<event>
 4    1  0.4690138E-002  0.4501261E+03  0.7818608E-02  0.1027684E+00
         21   -1    0    0  503  502  0.00000000000E+00  0.00000000000E+00  0.87123951780E+03  0.87123951780E+03  0.00000000000E+00 0. -1.
         21   -1    0    0  501  503 -0.00000000000E+00 -0.00000000000E+00 -0.32911608525E+03  0.32911608525E+03  0.00000000000E+00 0.  1.
    9000007    1    1    2  501    0  0.66621197456E+02  0.19538449371E+03 -0.54025808938E+02  0.45335667235E+03  0.40000000000E+03 0.  1.
   -9000007    1    1    2    0  502 -0.66621197456E+02 -0.19538449371E+03  0.59614924149E+03  0.74699893070E+03  0.40000000000E+03 0. -1.
<mgrwt>
<rscale>  2 0.45012608E+03</rscale>
<asrwt>0</asrwt>
<pdfrwt beam="1">  1       21 0.13403685E+00 0.45012608E+03</pdfrwt>
<pdfrwt beam="2">  1       21 0.50633244E-01 0.45012608E+03</pdfrwt>
<totfact> 0.12635769E+03</totfact>
</mgrwt>
</event>
<event>
 4    1  0.4690138E-002  0.5269739E+03  0.7818608E-02  0.1006969E+00
         21   -1    0    0  501  502  0.00000000000E+00  0.00000000000E+00  0.35427262086E+03  0.35427262086E+03  0.00000000000E+00 0.  1.
         21   -1    0    0  502  503 -0.00000000000E+00 -0.00000000000E+00 -0.10033540090E+04  0.10033540090E+04  0.00000000000E+00 0.  1.
    9000007    1    1    2  501    0 -0.12351056868E+03  0.32007284508E+03 -0.70501300537E+01  0.52702105372E+03  0.40000000000E+03 0.  1.
   -9000007    1    1    2    0  503  0.12351056868E+03 -0.32007284508E+03 -0.64203125806E+03  0.83060557611E+03  0.40000000000E+03 0.  1.
<mgrwt>
<rscale>  2 0.52697390E+03</rscale>
<asrwt>0</asrwt>
<pdfrwt beam="1">  1       21 0.54503479E-01 0.52697390E+03</pdfrwt>
<pdfrwt beam="2">  1       21 0.15436216E+00 0.52697390E+03</pdfrwt>
<totfact> 0.71612320E+02</totfact>
</mgrwt>
</event>
<event>
 4    1  0.4690138E-002  0.4350533E+03  0.7818608E-02  0.1032275E+00
         21   -1    0    0  501  502  0.00000000000E+00  0.00000000000E+00  0.85210010859E+03  0.85210010859E+03  0.00000000000E+00 0.  1.
         21   -1    0    0  502  503 -0.00000000000E+00 -0.00000000000E+00 -0.30608056855E+03  0.30608056855E+03  0.00000000000E+00 0.  1.
    9000007    1    1    2  501    0  0.14147967109E+03  0.96202237109E+02  0.57629925115E+03  0.72207492314E+03  0.40000000000E+03 0.  1.
   -9000007    1    1    2    0  503 -0.14147967109E+03 -0.96202237109E+02 -0.30279711114E+02  0.43610575399E+03  0.40000000000E+03 0.  1.
<mgrwt>
<rscale>  2 0.43505329E+03</rscale>
<asrwt>0</asrwt>
<pdfrwt beam="1">  1       21 0.13109232E+00 0.43505329E+03</pdfrwt>
<pdfrwt beam="2">  1       21 0.47089319E-01 0.43505329E+03</pdfrwt>
<totfact> 0.15710895E+03</totfact>
</mgrwt>
</event>
<event>
 4    1  0.4690138E-002  0.4701498E+03  0.7818608E-02  0.1021878E+00
         21   -1    0    0  501  502  0.00000000000E+00  0.00000000000E+00  0.47164538437E+03  0.47164538437E+03  0.00000000000E+00 0. -1.
         21   -1    0    0  502  503 -0.00000000000E+00 -0.00000000000E+00 -0.12636441302E+04  0.12636441302E+04  0.00000000000E+00 0.  1.
    9000007    1    1    2  501    0 -0.23772392164E+03  0.67291496271E+02  0.29219177807E+03  0.55354931448E+03  0.40000000000E+03 0. -1.
   -9000007    1    1    2    0  503  0.23772392164E+03 -0.67291496271E+02 -0.10841905239E+04  0.11817402001E+04  0.40000000000E+03 0.  1.
<mgrwt>
<rscale>  2 0.47014977E+03</rscale>
<asrwt>0</asrwt>
<pdfrwt beam="1">  1       21 0.72560829E-01 0.47014977E+03</pdfrwt>
<pdfrwt beam="2">  1       21 0.19440679E+00 0.47014977E+03</pdfrwt>
<totfact> 0.20006701E+02</totfact>
</mgrwt>
</event>
<event>
 4    1  0.4690138E-002  0.4609342E+03  0.7818608E-02  0.1024511E+00
         21   -1    0    0  503  502  0.00000000000E+00  0.00000000000E+00  0.61836626640E+03  0.61836626640E+03  0.00000000000E+00 0.  1.
         21   -1    0    0  501  503 -0.00000000000E+00 -0.00000000000E+00 -0.35154475570E+03  0.35154475570E+03  0.00000000000E+00 0.  1.
    9000007    1    1    2  501    0 -0.18933057217E+03 -0.12889632062E+03  0.60430122429E+02  0.46487861504E+03  0.40000000000E+03 0. -1.
   -9000007    1    1    2    0  502  0.18933057217E+03  0.12889632062E+03  0.20639138827E+03  0.50503240706E+03  0.40000000000E+03 0. -1.
<mgrwt>
<rscale>  2 0.46093419E+03</rscale>
<asrwt>0</asrwt>
<pdfrwt beam="1">  1       21 0.95133272E-01 0.46093419E+03</pdfrwt>
<pdfrwt beam="2">  1       21 0.54083809E-01 0.46093419E+03</pdfrwt>
<totfact> 0.25779366E+03</totfact>
</mgrwt>
</event>
<event>
 4    1  0.4690138E-002  0.4584493E+03  0.7818608E-02  0.1025232E+00
         21   -1    0    0  501  502  0.00000000000E+00  0.00000000000E+00  0.55561997485E+03  0.55561997485E+03  0.00000000000E+00 0. -1.
         21   -1    0    0  502  503 -0.00000000000E+00 -0.00000000000E+00 -0.38893519917E+03  0.38893519917E+03  0.00000000000E+00 0.  1.
    9000007    1    1    2  501    0 -0.22040680822E+03  0.39957844382E+02  0.16153956243E+03  0.48607696990E+03  0.40000000000E+03 0. -1.
   -9000007    1    1    2    0  503  0.22040680822E+03 -0.39957844382E+02  0.51452132502E+01  0.45847820412E+03  0.40000000000E+03 0. -1.
<mgrwt>
<rscale>  2 0.45844933E+03</rscale>
<asrwt>0</asrwt>
<pdfrwt beam="1">  1       21 0.85479996E-01 0.45844933E+03</pdfrwt>
<pdfrwt beam="2">  1       21 0.59836185E-01 0.45844933E+03</pdfrwt>
<totfact> 0.26697161E+03</totfact>
</mgrwt>
</event>
<event>
 4    1  0.4690138E-002  0.4255027E+03  0.7818608E-02  0.1035290E+00
         21   -1    0    0  501  502  0.00000000000E+00  0.00000000000E+00  0.10054684534E+04  0.10054684534E+04  0.00000000000E+00 0.  1.
         21   -1    0    0  502  503 -0.00000000000E+00 -0.00000000000E+00 -0.23780539600E+03  0.23780539600E+03  0.00000000000E+00 0.  1.
    9000007    1    1    2  501    0  0.14509494870E+03 -0.85510476747E-01  0.69013722870E+03  0.81076627081E+03  0.40000000000E+03 0.  1.
   -9000007    1    1    2    0  503 -0.14509494870E+03  0.85510476747E-01  0.77525828752E+02  0.43250757863E+03  0.40000000000E+03 0.  1.
<mgrwt>
<rscale>  2 0.42550270E+03</rscale>
<asrwt>0</asrwt>
<pdfrwt beam="1">  1       21 0.15468745E+00 0.42550270E+03</pdfrwt>
<pdfrwt beam="2">  1       21 0.36585446E-01 0.42550270E+03</pdfrwt>
<totfact> 0.17100925E+03</totfact>
</mgrwt>
</event>
<event>
 4    1  0.4690138E-002  0.4853668E+03  0.7818608E-02  0.1017671E+00
         21   -1    0    0  501  502  0.00000000000E+00  0.00000000000E+00  0.32513858618E+03  0.32513858618E+03  0.00000000000E+00 0. -1.
         21   -1    0    0  502  503 -0.00000000000E+00 -0.00000000000E+00 -0.22262263126E+04  0.22262263126E+04  0.00000000000E+00 0. -1.
    9000007    1    1    2  501    0  0.13081692724E+03 -0.24180126981E+03  0.97176312922E+02  0.49499914982E+03  0.40000000000E+03 0. -1.
   -9000007    1    1    2    0  503 -0.13081692724E+03  0.24180126981E+03 -0.19982640394E+04  0.20563657490E+04  0.40000000000E+03 0. -1.
<mgrwt>
<rscale>  2 0.48536679E+03</rscale>
<asrwt>0</asrwt>
<pdfrwt beam="1">  1       21 0.50021324E-01 0.48536679E+03</pdfrwt>
<pdfrwt beam="2">  1       21 0.34249634E+00 0.48536679E+03</pdfrwt>
<totfact> 0.54266342E+01</totfact>
</mgrwt>
</event>
<event>
 4    1  0.4690138E-002  0.4901166E+03  0.7818608E-02  0.1016391E+00
         21   -1    0    0  503  502  0.00000000000E+00  0.00000000000E+00  0.88942414234E+03  0.88942414234E+03  0.00000000000E+00 0.  1.
         21   -1    0    0  501  503 -0.00000000000E+00 -0.00000000000E+00 -0.28177739069E+03  0.28177739069E+03  0.00000000000E+00 0.  1.
    9000007    1    1    2  501    0 -0.28223740889E+03  0.23585544502E+02  0.18450066674E+03  0.52369335389E+03  0.40000000000E+03 0.  1.
   -9000007    1    1    2    0  502  0.28223740889E+03 -0.23585544502E+02  0.42314608490E+03  0.64750817914E+03  0.40000000000E+03 0.  1.
<mgrwt>
<rscale>  2 0.49011655E+03</rscale>
<asrwt>0</asrwt>
<pdfrwt beam="1">  1       21 0.13683448E+00 0.49011655E+03</pdfrwt>
<pdfrwt beam="2">  1       21 0.43350368E-01 0.49011655E+03</pdfrwt>
<totfact> 0.16350709E+03</totfact>
</mgrwt>
</event>
<event>
 4    1  0.4690138E-002  0.5910446E+03  0.7818608E-02  0.9924162E-01
         21   -1    0    0  503  502  0.00000000000E+00  0.00000000000E+00  0.20996162038E+04  0.20996162038E+04  0.00000000000E+00 0. -1.
         21   -1    0    0  501  503 -0.00000000000E+00 -0.00000000000E+00 -0.21335125290E+03  0.21335125290E+03  0.00000000000E+00 0. -1.
    9000007    1    1    2  501    0  0.10018135397E+03  0.42343522093E+03  0.40049597936E+03  0.71395428390E+03  0.40000000000E+03 0. -1.
   -9000007    1    1    2    0  502 -0.10018135397E+03 -0.42343522093E+03  0.14857689716E+04  0.15990131728E+04  0.40000000000E+03 0. -1.
<mgrwt>
<rscale>  2 0.59104458E+03</rscale>
<asrwt>0</asrwt>
<pdfrwt beam="1">  1       21 0.32301786E+00 0.59104458E+03</pdfrwt>
<pdfrwt beam="2">  1       21 0.32823271E-01 0.59104458E+03</pdfrwt>
<totfact> 0.16127893E+02</totfact>
</mgrwt>
</event>
<event>
 4    1  0.4690138E-002  0.4486351E+03  0.7818608E-02  0.1028130E+00
         21   -1    0    0  503  502  0.00000000000E+00  0.00000000000E+00  0.48648283376E+03  0.48648283376E+03  0.00000000000E+00 0. -1.
         21   -1    0    0  501  503 -0.00000000000E+00 -0.00000000000E+00 -0.46651619353E+03  0.46651619353E+03  0.00000000000E+00 0. -1.
    9000007    1    1    2  501    0  0.18287265894E+03  0.88493357210E+02  0.17026405200E+03  0.47985761540E+03  0.40000000000E+03 0.  1.
   -9000007    1    1    2    0  502 -0.18287265894E+03 -0.88493357210E+02 -0.15029741177E+03  0.47314141189E+03  0.40000000000E+03 0.  1.
<mgrwt>
<rscale>  2 0.44863513E+03</rscale>
<asrwt>0</asrwt>
<pdfrwt beam="1">  1       21 0.74843513E-01 0.44863513E+03</pdfrwt>
<pdfrwt beam="2">  1       21 0.71771722E-01 0.44863513E+03</pdfrwt>
<totfact> 0.24295374E+03</totfact>
</mgrwt>
</event>
<event>
 4    1  0.4690138E-002  0.4754382E+03  0.7818608E-02  0.1020396E+00
         21   -1    0    0  501  502  0.00000000000E+00  0.00000000000E+00  0.29570450838E+03  0.29570450838E+03  0.00000000000E+00 0. -1.
         21   -1    0    0  502  503 -0.00000000000E+00 -0.00000000000E+00 -0.22412201426E+04  0.22412201426E+04  0.00000000000E+00 0. -1.
    9000007    1    1    2  501    0 -0.12138544662E+03 -0.22651050849E+03  0.56908902620E+02  0.47883197502E+03  0.40000000000E+03 0. -1.
   -9000007    1    1    2    0  503  0.12138544662E+03  0.22651050849E+03 -0.20024245369E+04  0.20580926760E+04  0.40000000000E+03 0. -1.
<mgrwt>
<rscale>  2 0.47543815E+03</rscale>
<asrwt>0</asrwt>
<pdfrwt beam="1">  1       21 0.45492999E-01 0.47543815E+03</pdfrwt>
<pdfrwt beam="2">  1       21 0.34480311E+00 0.47543815E+03</pdfrwt>
<totfact> 0.64632130E+01</totfact>
</mgrwt>
</event>
<event>
 4    1  0.4690138E-002  0.5790772E+03  0.7818608E-02  0.9949791E-01
         21   -1    0    0  503  502  0.00000000000E+00  0.00000000000E+00  0.94503528567E+03  0.94503528567E+03  0.00000000000E+00 0.  1.
         21   -1    0    0  501  503 -0.00000000000E+00 -0.00000000000E+00 -0.36829039384E+03  0.36829039384E+03  0.00000000000E+00 0.  1.
    9000007    1    1    2  501    0  0.24171018269E+03 -0.34191611006E+03  0.16285178810E+03  0.60154064170E+03  0.40000000000E+03 0.  1.
   -9000007    1    1    2    0  502 -0.24171018269E+03  0.34191611006E+03  0.41389310373E+03  0.71178503781E+03  0.40000000000E+03 0.  1.
<mgrwt>
<rscale>  2 0.57907723E+03</rscale>
<asrwt>0</asrwt>
<pdfrwt beam="1">  1       21 0.14539004E+00 0.57907723E+03</pdfrwt>
<pdfrwt beam="2">  1       21 0.56660061E-01 0.57907723E+03</pdfrwt>
<totfact> 0.76102396E+02</totfact>
</mgrwt>
</event>
<event>
 4    1  0.4690138E-002  0.7319559E+03  0.7818608E-02  0.9664092E-01
         21   -1    0    0  501  502  0.00000000000E+00  0.00000000000E+00  0.27576241610E+04  0.27576241610E+04  0.00000000000E+00 0.  1.
         21   -1    0    0  502  503 -0.00000000000E+00 -0.00000000000E+00 -0.25211824074E+03  0.25211824074E+03  0.00000000000E+00 0. -1.
    9000007    1    1    2  501    0 -0.28622490392E+02  0.61232365666E+03  0.53198835116E+03  0.90485972020E+03  0.40000000000E+03 0. -1.
   -9000007    1    1    2    0  503  0.28622490392E+02 -0.61232365666E+03  0.19735175691E+04  0.21048826815E+04  0.40000000000E+03 0.  1.
<mgrwt>
<rscale>  2 0.73195595E+03</rscale>
<asrwt>0</asrwt>
<pdfrwt beam="1">  1       21 0.42424985E+00 0.73195595E+03</pdfrwt>
<pdfrwt beam="2">  1       21 0.38787423E-01 0.73195595E+03</pdfrwt>
<totfact> 0.24429178E+01</totfact>
</mgrwt>
</event>
<event>
 4    1  0.4690138E-002  0.5644977E+03  0.7818608E-02  0.9981929E-01
         21   -1    0    0  501  502  0.00000000000E+00  0.00000000000E+00  0.21716587080E+03  0.21716587080E+03  0.00000000000E+00 0.  1.
         21   -1    0    0  502  503 -0.00000000000E+00 -0.00000000000E+00 -0.17027506391E+04  0.17027506391E+04  0.00000000000E+00 0. -1.
    9000007    1    1    2  501    0  0.20819516656E+03 -0.33957690718E+03 -0.38586214146E+03  0.68377430157E+03  0.40000000000E+03 0.  1.
   -9000007    1    1    2    0  503 -0.20819516656E+03  0.33957690718E+03 -0.10997226269E+04  0.12361422084E+04  0.40000000000E+03 0. -1.
<mgrwt>
<rscale>  2 0.56449774E+03</rscale>
<asrwt>0</asrwt>
<pdfrwt beam="1">  1       21 0.33410133E-01 0.56449774E+03</pdfrwt>
<pdfrwt beam="2">  1       21 0.26196164E+00 0.56449774E+03</pdfrwt>
<totfact> 0.37120332E+02</totfact>
</mgrwt>
</event>
<event>
 4    1  0.4690138E-002  0.4278910E+03  0.7818608E-02  0.1034528E+00
         21   -1    0    0  501  502  0.00000000000E+00  0.00000000000E+00  0.96943404887E+03  0.96943404887E+03  0.00000000000E+00 0. -1.
         21   -1    0    0  502  503 -0.00000000000E+00 -0.00000000000E+00 -0.20315768171E+03  0.20315768171E+03  0.00000000000E+00 0. -1.
    9000007    1    1    2  501    0 -0.13111571297E+03  0.76807173015E+02  0.22762027310E+03  0.48466654593E+03  0.40000000000E+03 0. -1.
   -9000007    1    1    2    0  503  0.13111571297E+03 -0.76807173015E+02  0.53865609406E+03  0.68792518465E+03  0.40000000000E+03 0. -1.
<mgrwt>
<rscale>  2 0.42789096E+03</rscale>
<asrwt>0</asrwt>
<pdfrwt beam="1">  1       21 0.14914370E+00 0.42789096E+03</pdfrwt>
<pdfrwt beam="2">  1       21 0.31255029E-01 0.42789096E+03</pdfrwt>
<totfact> 0.25904876E+03</totfact>
</mgrwt>
</event>
<event>
 4    1  0.4690138E-002  0.4054836E+03  0.7818608E-02  0.1041897E+00
         21   -1    0    0  503  502  0.00000000000E+00  0.00000000000E+00  0.30364033166E+04  0.30364033166E+04  0.00000000000E+00 0. -1.
         21   -1    0    0  501  503 -0.00000000000E+00 -0.00000000000E+00 -0.54856681357E+02  0.54856681357E+02  0.00000000000E+00 0. -1.
    9000007    1    1    2  501    0  0.56452660016E+02  0.35072413045E+02  0.16663769639E+04  0.17150012137E+04  0.40000000000E+03 0.  1.
   -9000007    1    1    2    0  502 -0.56452660016E+02 -0.35072413045E+02  0.13151696713E+04  0.13762587843E+04  0.40000000000E+03 0.  1.
<mgrwt>
<rscale>  2 0.40548363E+03</rscale>
<asrwt>0</asrwt>
<pdfrwt beam="1">  1       21 0.46713884E+00 0.40548363E+03</pdfrwt>
<pdfrwt beam="2">  1       21 0.84394918E-02 0.40548363E+03</pdfrwt>
<totfact> 0.27464179E+02</totfact>
</mgrwt>
</event>
<event>
 4    1  0.4690138E-002  0.4843464E+03  0.7818608E-02  0.1017947E+00
         21   -1    0    0  503  502  0.00000000000E+00  0.00000000000E+00  0.14728030665E+04  0.14728030665E+04  0.00000000000E+00 0. -1.
         21   -1    0    0  501  503 -0.00000000000E+00 -0.00000000000E+00 -0.17715994009E+03  0.17715994009E+03  0.00000000000E+00 0.  1.
    9000007    1    1    2  501    0  0.24895739209E+03 -0.11230149329E+03  0.38575176881E+03  0.61918966045E+03  0.40000000000E+03 0.  1.
   -9000007    1    1    2    0  502 -0.24895739209E+03  0.11230149329E+03  0.90989135759E+03  0.10307733461E+04  0.40000000000E+03 0. -1.
<mgrwt>
<rscale>  2 0.48434637E+03</rscale>
<asrwt>0</asrwt>
<pdfrwt beam="1">  1       21 0.22658508E+00 0.48434637E+03</pdfrwt>
<pdfrwt beam="2">  1       21 0.27255376E-01 0.48434637E+03</pdfrwt>
<totfact> 0.95841866E+02</totfact>
</mgrwt>
</event>
<event>
 4    1  0.4690138E-002  0.4680552E+03  0.7818608E-02  0.1022471E+00
         21   -1    0    0  501  502  0.00000000000E+00  0.00000000000E+00  0.59915011673E+03  0.59915011673E+03  0.00000000000E+00 0. -1.
         21   -1    0    0  502  503 -0.00000000000E+00 -0.00000000000E+00 -0.39990102256E+03  0.39990102256E+03  0.00000000000E+00 0. -1.
    9000007    1    1    2  501    0 -0.11237085231E+03  0.21551909689E+03  0.24582738566E+03  0.52868402010E+03  0.40000000000E+03 0. -1.
   -9000007    1    1    2    0  503  0.11237085231E+03 -0.21551909689E+03 -0.46578291500E+02  0.47036711919E+03  0.40000000000E+03 0. -1.
<mgrwt>
<rscale>  2 0.46805522E+03</rscale>
<asrwt>0</asrwt>
<pdfrwt beam="1">  1       21 0.92176941E-01 0.46805522E+03</pdfrwt>
<pdfrwt beam="2">  1       21 0.61523234E-01 0.46805522E+03</pdfrwt>
<totfact> 0.20942193E+03</totfact>
</mgrwt>
</event>
<event>
 4    1  0.4690138E-002  0.4778630E+03  0.7818608E-02  0.1019724E+00
         21   -1    0    0  503  502  0.00000000000E+00  0.00000000000E+00  0.94269283195E+03  0.94269283195E+03  0.00000000000E+00 0. -1.
         21   -1    0    0  501  503 -0.00000000000E+00 -0.00000000000E+00 -0.24720469050E+03  0.24720469050E+03  0.00000000000E+00 0.  1.
    9000007    1    1    2  501    0  0.70523551015E+02  0.25175277094E+03  0.43210157570E+03  0.64425522943E+03  0.40000000000E+03 0. -1.
   -9000007    1    1    2    0  502 -0.70523551015E+02 -0.25175277094E+03  0.26338656574E+03  0.54564229302E+03  0.40000000000E+03 0.  1.
<mgrwt>
<rscale>  2 0.47786298E+03</rscale>
<asrwt>0</asrwt>
<pdfrwt beam="1">  1       21 0.14502966E+00 0.47786298E+03</pdfrwt>
<pdfrwt beam="2">  1       21 0.38031491E-01 0.47786298E+03</pdfrwt>
<totfact> 0.18430940E+03</totfact>
</mgrwt>
</event>
<event>
 4    1  0.4690138E-002  0.4982988E+03  0.7818608E-02  0.1014224E+00
         21   -1    0    0  503  502  0.00000000000E+00  0.00000000000E+00  0.38066567666E+03  0.38066567666E+03  0.00000000000E+00 0. -1.
         21   -1    0    0  501  503 -0.00000000000E+00 -0.00000000000E+00 -0.10107362609E+04  0.10107362609E+04  0.00000000000E+00 0.  1.
    9000007    1    1    2  501    0  0.27379788462E+03 -0.11548321384E+03 -0.72934022499E+03  0.88331128040E+03  0.40000000000E+03 0.  1.
   -9000007    1    1    2    0  502 -0.27379788462E+03  0.11548321384E+03  0.99269640757E+02  0.50809065715E+03  0.40000000000E+03 0. -1.
<mgrwt>
<rscale>  2 0.49829876E+03</rscale>
<asrwt>0</asrwt>
<pdfrwt beam="1">  1       21 0.58563951E-01 0.49829876E+03</pdfrwt>
<pdfrwt beam="2">  1       21 0.15549788E+00 0.49829876E+03</pdfrwt>
<totfact> 0.60696747E+02</totfact>
</mgrwt>
</event>
<event>
 4    1  0.4690138E-002  0.4409963E+03  0.7818608E-02  0.1030442E+00
         21   -1    0    0  503  502  0.00000000000E+00  0.00000000000E+00  0.17156476972E+03  0.17156476972E+03  0.00000000000E+00 0.  1.
         21   -1    0    0  501  503 -0.00000000000E+00 -0.00000000000E+00 -0.11343453459E+04  0.11343453459E+04  0.00000000000E+00 0. -1.
    9000007    1    1    2  501    0  0.14567819883E+03  0.11513306462E+03 -0.49864734857E+03  0.66567780376E+03  0.40000000000E+03 0.  1.
   -9000007    1    1    2    0  502 -0.14567819883E+03 -0.11513306462E+03 -0.46413322762E+03  0.64023231187E+03  0.40000000000E+03 0.  1.
<mgrwt>
<rscale>  2 0.44099633E+03</rscale>
<asrwt>0</asrwt>
<pdfrwt beam="1">  1       21 0.26394580E-01 0.44099633E+03</pdfrwt>
<pdfrwt beam="2">  1       21 0.17451467E+00 0.44099633E+03</pdfrwt>
<totfact> 0.23215047E+03</totfact>
</mgrwt>
</event>
<event>
 4    1  0.4690138E-002  0.4593427E+03  0.7818608E-02  0.1024972E+00
         21   -1    0    0  501  502  0.00000000000E+00  0.00000000000E+00  0.12310053225E+04  0.12310053225E+04  0.00000000000E+00 0.  1.
         21   -1    0    0  502  503 -0.00000000000E+00 -0.00000000000E+00 -0.47014898132E+03  0.47014898132E+03  0.00000000000E+00 0.  1.
    9000007    1    1    2  501    0 -0.49393932224E+02 -0.22035407946E+03  0.10584573296E+04  0.11538317032E+04  0.40000000000E+03 0.  1.
   -9000007    1    1    2    0  503  0.49393932224E+02  0.22035407946E+03 -0.29760098835E+03  0.54732260062E+03  0.40000000000E+03 0.  1.
<mgrwt>
<rscale>  2 0.45934266E+03</rscale>
<asrwt>0</asrwt>
<pdfrwt beam="1">  1       21 0.18938543E+00 0.45934266E+03</pdfrwt>
<pdfrwt beam="2">  1       21 0.72330612E-01 0.45934266E+03</pdfrwt>
<totfact> 0.21925865E+02</totfact>
</mgrwt>
</event>
<event>
 4    1  0.4690138E-002  0.4296838E+03  0.7818608E-02  0.1033960E+00
         21   -1    0    0  501  502  0.00000000000E+00  0.00000000000E+00  0.11700057720E+03  0.11700057720E+03  0.00000000000E+00 0.  1.
         21   -1    0    0  502  503 -0.00000000000E+00 -0.00000000000E+00 -0.17732309325E+04  0.17732309325E+04  0.00000000000E+00 0.  1.
    9000007    1    1    2  501    0  0.79894438752E+02  0.13507437993E+03 -0.51452364898E+03  0.67034528030E+03  0.40000000000E+03 0.  1.
   -9000007    1    1    2    0  503 -0.79894438752E+02 -0.13507437993E+03 -0.11417067063E+04  0.12198862294E+04  0.40000000000E+03 0.  1.
<mgrwt>
<rscale>  2 0.42968385E+03</rscale>
<asrwt>0</asrwt>
<pdfrwt beam="1">  1       21 0.18000088E-01 0.42968385E+03</pdfrwt>
<pdfrwt beam="2">  1       21 0.27280477E+00 0.42968385E+03</pdfrwt>
<totfact> 0.11349055E+03</totfact>
</mgrwt>
</event>
<event>
 4    1  0.4690138E-002  0.4004202E+03  0.7818608E-02  0.1043634E+00
         21   -1    0    0  503  502  0.00000000000E+00  0.00000000000E+00  0.17513109996E+03  0.17513109996E+03  0.00000000000E+00 0.  1.
         21   -1    0    0  501  503 -0.00000000000E+00 -0.00000000000E+00 -0.96612680867E+03  0.96612680867E+03  0.00000000000E+00 0.  1.
    9000007    1    1    2  501    0 -0.13797427967E+02 -0.12080725786E+02 -0.52609513958E+03  0.66114477147E+03  0.40000000000E+03 0.  1.
   -9000007    1    1    2    0  502  0.13797427967E+02  0.12080725786E+02 -0.26490056913E+03  0.48011313716E+03  0.40000000000E+03 0.  1.
<mgrwt>
<rscale>  2 0.40042017E+03</rscale>
<asrwt>0</asrwt>
<pdfrwt beam="1">  1       21 0.26943246E-01 0.40042017E+03</pdfrwt>
<pdfrwt beam="2">  1       21 0.14863489E+00 0.40042017E+03</pdfrwt>
<totfact> 0.35455246E+03</totfact>
</mgrwt>
</event>
<event>
 4    1  0.4690138E-002  0.4031402E+03  0.7818608E-02  0.1042698E+00
         21   -1    0    0  501  502  0.00000000000E+00  0.00000000000E+00  0.11285009449E+04  0.11285009449E+04  0.00000000000E+00 0.  1.
         21   -1    0    0  502  503 -0.00000000000E+00 -0.00000000000E+00 -0.15009303610E+03  0.15009303610E+03  0.00000000000E+00 0.  1.
    9000007    1    1    2  501    0 -0.10500495569E+02 -0.49109635095E+02  0.61784330863E+03  0.73773462077E+03  0.40000000000E+03 0.  1.
   -9000007    1    1    2    0  503  0.10500495569E+02  0.49109635095E+02  0.36056460018E+03  0.54085936025E+03  0.40000000000E+03 0.  1.
<mgrwt>
<rscale>  2 0.40314019E+03</rscale>
<asrwt>0</asrwt>
<pdfrwt beam="1">  1       21 0.17361552E+00 0.40314019E+03</pdfrwt>
<pdfrwt beam="2">  1       21 0.23091237E-01 0.40314019E+03</pdfrwt>
<totfact> 0.31036264E+03</totfact>
</mgrwt>
</event>
<event>
 4    1  0.4690138E-002  0.5439701E+03  0.7818608E-02  0.1002899E+00
         21   -1    0    0  501  502  0.00000000000E+00  0.00000000000E+00  0.16428681236E+04  0.16428681236E+04  0.00000000000E+00 0.  1.
         21   -1    0    0  502  503 -0.00000000000E+00 -0.00000000000E+00 -0.24365304888E+03  0.24365304888E+03  0.00000000000E+00 0. -1.
    9000007    1    1    2  501    0 -0.15827323350E+03  0.33294602544E+03  0.11812960371E+04  0.13005244325E+04  0.40000000000E+03 0.  1.
   -9000007    1    1    2    0  503  0.15827323350E+03 -0.33294602544E+03  0.21791903763E+03  0.58599673998E+03  0.40000000000E+03 0.  1.
<mgrwt>
<rscale>  2 0.54397010E+03</rscale>
<asrwt>0</asrwt>
<pdfrwt beam="1">  1       21 0.25274893E+00 0.54397010E+03</pdfrwt>
<pdfrwt beam="2">  1       21 0.37485086E-01 0.54397010E+03</pdfrwt>
<totfact> 0.33772994E+02</totfact>
</mgrwt>
</event>
<event>
 4    1  0.4690138E-002  0.4129531E+03  0.7818608E-02  0.1039385E+00
         21   -1    0    0  501  502  0.00000000000E+00  0.00000000000E+00  0.12099070094E+04  0.12099070094E+04  0.00000000000E+00 0.  1.
         21   -1    0    0  502  503 -0.00000000000E+00 -0.00000000000E+00 -0.16844656954E+03  0.16844656954E+03  0.00000000000E+00 0.  1.
    9000007    1    1    2  501    0  0.24527328802E+02  0.99642718461E+02  0.24225995124E+03  0.47876940710E+03  0.40000000000E+03 0.  1.
   -9000007    1    1    2    0  503 -0.24527328802E+02 -0.99642718461E+02  0.79920048858E+03  0.89958417180E+03  0.40000000000E+03 0.  1.
<mgrwt>
<rscale>  2 0.41295310E+03</rscale>
<asrwt>0</asrwt>
<pdfrwt beam="1">  1       21 0.18613953E+00 0.41295310E+03</pdfrwt>
<pdfrwt beam="2">  1       21 0.25914858E-01 0.41295310E+03</pdfrwt>
<totfact> 0.20175962E+03</totfact>
</mgrwt>
</event>
<event>
 4    1  0.4690138E-002  0.6502529E+03  0.7818608E-02  0.9806305E-01
         21   -1    0    0  503  502  0.00000000000E+00  0.00000000000E+00  0.48571867564E+03  0.48571867564E+03  0.00000000000E+00 0.  1.
         21   -1    0    0  501  503 -0.00000000000E+00 -0.00000000000E+00 -0.11186685148E+04  0.11186685148E+04  0.00000000000E+00 0. -1.
    9000007    1    1    2  501    0 -0.47220116605E+03  0.19963676178E+03 -0.69429288057E+03  0.95124727694E+03  0.40000000000E+03 0.  1.
   -9000007    1    1    2    0  502  0.47220116605E+03 -0.19963676178E+03  0.61343041410E+02  0.65313991349E+03  0.40000000000E+03 0. -1.
<mgrwt>
<rscale>  2 0.65025286E+03</rscale>
<asrwt>0</asrwt>
<pdfrwt beam="1">  1       21 0.74725952E-01 0.65025286E+03</pdfrwt>
<pdfrwt beam="2">  1       21 0.17210285E+00 0.65025286E+03</pdfrwt>
<totfact> 0.24923603E+02</totfact>
</mgrwt>
</event>
<event>
 4    1  0.4690138E-002  0.5396902E+03  0.7818608E-02  0.1003909E+00
         21   -1    0    0  503  502  0.00000000000E+00  0.00000000000E+00  0.36072592198E+03  0.36072592198E+03  0.00000000000E+00 0. -1.
         21   -1    0    0  501  503 -0.00000000000E+00 -0.00000000000E+00 -0.85661206445E+03  0.85661206445E+03  0.00000000000E+00 0.  1.
    9000007    1    1    2  501    0 -0.35531314428E+03 -0.70838049582E+02 -0.10211637830E+03  0.54926606893E+03  0.40000000000E+03 0. -1.
   -9000007    1    1    2    0  502  0.35531314428E+03  0.70838049582E+02 -0.39376976417E+03  0.66807191749E+03  0.40000000000E+03 0.  1.
<mgrwt>
<rscale>  2 0.53969015E+03</rscale>
<asrwt>0</asrwt>
<pdfrwt beam="1">  1       21 0.55496296E-01 0.53969015E+03</pdfrwt>
<pdfrwt beam="2">  1       21 0.13178647E+00 0.53969015E+03</pdfrwt>
<totfact> 0.10485031E+03</totfact>
</mgrwt>
</event>
<event>
 4    1  0.4690138E-002  0.4600319E+03  0.7818608E-02  0.1024772E+00
         21   -1    0    0  503  502  0.00000000000E+00  0.00000000000E+00  0.61253662390E+03  0.61253662390E+03  0.00000000000E+00 0. -1.
         21   -1    0    0  501  503 -0.00000000000E+00 -0.00000000000E+00 -0.40776761695E+03  0.40776761695E+03  0.00000000000E+00 0. -1.
    9000007    1    1    2  501    0 -0.13342496083E+03 -0.18392156040E+03  0.30174361208E+03  0.55016231058E+03  0.40000000000E+03 0. -1.
   -9000007    1    1    2    0  502  0.13342496083E+03  0.18392156040E+03 -0.96974605130E+02  0.47014193026E+03  0.40000000000E+03 0. -1.
<mgrwt>
<rscale>  2 0.46003191E+03</rscale>
<asrwt>0</asrwt>
<pdfrwt beam="1">  1       21 0.94236404E-01 0.46003191E+03</pdfrwt>
<pdfrwt beam="2">  1       21 0.62733479E-01 0.46003191E+03</pdfrwt>
<totfact> 0.19085714E+03</totfact>
</mgrwt>
</event>
<event>
 4    1  0.4690138E-002  0.5028198E+03  0.7818608E-02  0.1013046E+00
         21   -1    0    0  503  502  0.00000000000E+00  0.00000000000E+00  0.22994152987E+03  0.22994152987E+03  0.00000000000E+00 0. -1.
         21   -1    0    0  501  503 -0.00000000000E+00 -0.00000000000E+00 -0.12714313338E+04  0.12714313338E+04  0.00000000000E+00 0.  1.
    9000007    1    1    2  501    0  0.19205921532E+03 -0.23651859226E+03 -0.79677139380E+03  0.94216370162E+03  0.40000000000E+03 0. -1.
   -9000007    1    1    2    0  502 -0.19205921532E+03  0.23651859226E+03 -0.24471841016E+03  0.55920916207E+03  0.40000000000E+03 0. -1.
<mgrwt>
<rscale>  2 0.50281984E+03</rscale>
<asrwt>0</asrwt>
<pdfrwt beam="1">  1       21 0.35375620E-01 0.50281984E+03</pdfrwt>
<pdfrwt beam="2">  1       21 0.19560482E+00 0.50281984E+03</pdfrwt>
<totfact> 0.90025177E+02</totfact>
</mgrwt>
</event>
<event>
 4    1  0.4690138E-002  0.5572451E+03  0.7818608E-02  0.9998307E-01
         21   -1    0    0  503  502  0.00000000000E+00  0.00000000000E+00  0.12739211468E+04  0.12739211468E+04  0.00000000000E+00 0.  1.
         21   -1    0    0  501  503 -0.00000000000E+00 -0.00000000000E+00 -0.52082934045E+03  0.52082934045E+03  0.00000000000E+00 0. -1.
    9000007    1    1    2  501    0 -0.39519449057E+02 -0.38595383325E+03 -0.27797882036E+03  0.62273138095E+03  0.40000000000E+03 0. -1.
   -9000007    1    1    2    0  502  0.39519449057E+02  0.38595383325E+03  0.10310706267E+04  0.11720191063E+04  0.40000000000E+03 0.  1.
<mgrwt>
<rscale>  2 0.55724514E+03</rscale>
<asrwt>0</asrwt>
<pdfrwt beam="1">  1       21 0.19598787E+00 0.55724514E+03</pdfrwt>
<pdfrwt beam="2">  1       21 0.80127591E-01 0.55724514E+03</pdfrwt>
<totfact> 0.14920338E+02</totfact>
</mgrwt>
</event>
<event>
 4    1  0.4690138E-002  0.5178321E+03  0.7818608E-02  0.1009226E+00
         21   -1    0    0  501  502  0.00000000000E+00  0.00000000000E+00  0.26505799418E+03  0.26505799418E+03  0.00000000000E+00 0.  1.
         21   -1    0    0  502  503 -0.00000000000E+00 -0.00000000000E+00 -0.11959014740E+04  0.11959014740E+04  0.00000000000E+00 0. -1.
    9000007    1    1    2  501    0  0.27765467064E+03 -0.17623280898E+03 -0.17870880633E+03  0.54780193186E+03  0.40000000000E+03 0.  1.
   -9000007    1    1    2    0  503 -0.27765467064E+03  0.17623280898E+03 -0.75213467353E+03  0.91315753636E+03  0.40000000000E+03 0. -1.
<mgrwt>
<rscale>  2 0.51783213E+03</rscale>
<asrwt>0</asrwt>
<pdfrwt beam="1">  1       21 0.40778153E-01 0.51783213E+03</pdfrwt>
<pdfrwt beam="2">  1       21 0.18398484E+00 0.51783213E+03</pdfrwt>
<totfact> 0.80382280E+02</totfact>
</mgrwt>
</event>
<event>
 4    1  0.4690138E-002  0.5901973E+03  0.7818608E-02  0.9925955E-01
         21   -1    0    0  501  502  0.00000000000E+00  0.00000000000E+00  0.42924083144E+03  0.42924083144E+03  0.00000000000E+00 0. -1.
         21   -1    0    0  502  503 -0.00000000000E+00 -0.00000000000E+00 -0.81707436639E+03  0.81707436639E+03  0.00000000000E+00 0.  1.
    9000007    1    1    2  501    0  0.18846335132E+03 -0.39091481960E+03 -0.14248742468E+03  0.60715360261E+03  0.40000000000E+03 0. -1.
   -9000007    1    1    2    0  503 -0.18846335132E+03  0.39091481960E+03 -0.24534611027E+03  0.63916159522E+03  0.40000000000E+03 0. -1.
<mgrwt>
<rscale>  2 0.59019728E+03</rscale>
<asrwt>0</asrwt>
<pdfrwt beam="1">  1       21 0.66037050E-01 0.59019728E+03</pdfrwt>
<pdfrwt beam="2">  1       21 0.12570375E+00 0.59019728E+03</pdfrwt>
<totfact> 0.79453384E+02</totfact>
</mgrwt>
</event>
<event>
 4    1  0.4690138E-002  0.4438243E+03  0.7818608E-02  0.1029580E+00
         21   -1    0    0  503  502  0.00000000000E+00  0.00000000000E+00  0.16199566572E+03  0.16199566572E+03  0.00000000000E+00 0. -1.
         21   -1    0    0  501  503 -0.00000000000E+00 -0.00000000000E+00 -0.13726674204E+04  0.13726674204E+04  0.00000000000E+00 0.  1.
    9000007    1    1    2  501    0  0.14646202222E+03 -0.12461491180E+03 -0.86460291358E+03  0.97186326115E+03  0.40000000000E+03 0.  1.
   -9000007    1    1    2    0  502 -0.14646202222E+03  0.12461491180E+03 -0.34606884104E+03  0.56279982493E+03  0.40000000000E+03 0. -1.
<mgrwt>
<rscale>  2 0.44382429E+03</rscale>
<asrwt>0</asrwt>
<pdfrwt beam="1">  1       21 0.24922410E-01 0.44382429E+03</pdfrwt>
<pdfrwt beam="2">  1       21 0.21117961E+00 0.44382429E+03</pdfrwt>
<totfact> 0.14602816E+03</totfact>
</mgrwt>
</event>
<event>
 4    1  0.4690138E-002  0.5518193E+03  0.7818608E-02  0.1001074E+00
         21   -1    0    0  503  502  0.00000000000E+00  0.00000000000E+00  0.84634397754E+03  0.84634397754E+03  0.00000000000E+00 0. -1.
         21   -1    0    0  501  503 -0.00000000000E+00 -0.00000000000E+00 -0.45669514938E+03  0.45669514938E+03  0.00000000000E+00 0. -1.
    9000007    1    1    2  501    0 -0.37380770299E+03  0.69082499987E+02  0.49494216600E+03  0.74126401390E+03  0.40000000000E+03 0. -1.
   -9000007    1    1    2    0  502  0.37380770299E+03 -0.69082499987E+02 -0.10529333784E+03  0.56177511302E+03  0.40000000000E+03 0. -1.
<mgrwt>
<rscale>  2 0.55181935E+03</rscale>
<asrwt>0</asrwt>
<pdfrwt beam="1">  1       21 0.13020677E+00 0.55181935E+03</pdfrwt>
<pdfrwt beam="2">  1       21 0.70260792E-01 0.55181935E+03</pdfrwt>
<totfact> 0.63873867E+02</totfact>
</mgrwt>
</event>
<event>
 4    1  0.4690138E-002  0.4454738E+03  0.7818608E-02  0.1029080E+00
         21   -1    0    0  501  502  0.00000000000E+00  0.00000000000E+00  0.78784013585E+03  0.78784013585E+03  0.00000000000E+00 0.  1.
         21   -1    0    0  502  503 -0.00000000000E+00 -0.00000000000E+00 -0.39700048072E+03  0.39700048072E+03  0.00000000000E+00 0.  1.
    9000007    1    1    2  501    0  0.19593736835E+03 -0.74439044340E+01  0.55358880529E+03  0.71056838472E+03  0.40000000000E+03 0.  1.
   -9000007    1    1    2    0  503 -0.19593736835E+03  0.74439044340E+01 -0.16274915015E+03  0.47427223185E+03  0.40000000000E+03 0.  1.
<mgrwt>
<rscale>  2 0.44547375E+03</rscale>
<asrwt>0</asrwt>
<pdfrwt beam="1">  1       21 0.12120617E+00 0.44547375E+03</pdfrwt>
<pdfrwt beam="2">  1       21 0.61076997E-01 0.44547375E+03</pdfrwt>
<totfact> 0.10942271E+03</totfact>
</mgrwt>
</event>
<event>
 4    1  0.4690138E-002  0.4938642E+03  0.7818608E-02  0.1015393E+00
         21   -1    0    0  503  502  0.00000000000E+00  0.00000000000E+00  0.69558670448E+03  0.69558670448E+03  0.00000000000E+00 0. -1.
         21   -1    0    0  501  503 -0.00000000000E+00 -0.00000000000E+00 -0.54694435708E+03  0.54694435708E+03  0.00000000000E+00 0.  1.
    9000007    1    1    2  501    0 -0.16659534173E+03 -0.23695531574E+03 -0.29787214769E+03  0.57674053604E+03  0.40000000000E+03 0.  1.
   -9000007    1    1    2    0  502  0.16659534173E+03  0.23695531574E+03  0.44651449509E+03  0.66579052552E+03  0.40000000000E+03 0. -1.
<mgrwt>
<rscale>  2 0.49386418E+03</rscale>
<asrwt>0</asrwt>
<pdfrwt beam="1">  1       21 0.10701334E+00 0.49386418E+03</pdfrwt>
<pdfrwt beam="2">  1       21 0.84145286E-01 0.49386418E+03</pdfrwt>
<totfact> 0.70921419E+02</totfact>
</mgrwt>
</event>
<event>
 4    1  0.4690138E-002  0.4403187E+03  0.7818608E-02  0.1030649E+00
         21   -1    0    0  503  502  0.00000000000E+00  0.00000000000E+00  0.95009407403E+03  0.95009407403E+03  0.00000000000E+00 0. -1.
         21   -1    0    0  501  503 -0.00000000000E+00 -0.00000000000E+00 -0.20750746964E+03  0.20750746964E+03  0.00000000000E+00 0. -1.
    9000007    1    1    2  501    0 -0.17695412681E+03  0.50673289313E+02  0.29673878193E+03  0.53097499936E+03  0.40000000000E+03 0. -1.
   -9000007    1    1    2    0  502  0.17695412681E+03 -0.50673289313E+02  0.44584782246E+03  0.62662654431E+03  0.40000000000E+03 0. -1.
<mgrwt>
<rscale>  2 0.44031869E+03</rscale>
<asrwt>0</asrwt>
<pdfrwt beam="1">  1       21 0.14616832E+00 0.44031869E+03</pdfrwt>
<pdfrwt beam="2">  1       21 0.31924227E-01 0.44031869E+03</pdfrwt>
<totfact> 0.26091024E+03</totfact>
</mgrwt>
</event>
<event>
 4    1  0.4690138E-002  0.4039174E+03  0.7818608E-02  0.1042432E+00
         21   -1    0    0  503  502  0.00000000000E+00  0.00000000000E+00  0.29234996559E+03  0.29234996559E+03  0.00000000000E+00 0. -1.
         21   -1    0    0  501  503 -0.00000000000E+00 -0.00000000000E+00 -0.92802843979E+03  0.92802843979E+03  0.00000000000E+00 0. -1.
    9000007    1    1    2  501    0  0.31520794285E+02  0.46429440782E+02 -0.70310937487E+03  0.81087116515E+03  0.40000000000E+03 0. -1.
   -9000007    1    1    2    0  502 -0.31520794285E+02 -0.46429440782E+02  0.67430900668E+02  0.40950724024E+03  0.40000000000E+03 0. -1.
<mgrwt>
<rscale>  2 0.40391738E+03</rscale>
<asrwt>0</asrwt>
<pdfrwt beam="1">  1       21 0.44976918E-01 0.40391738E+03</pdfrwt>
<pdfrwt beam="2">  1       21 0.14277361E+00 0.40391738E+03</pdfrwt>
<totfact> 0.14007787E+03</totfact>
</mgrwt>
</event>
<event>
 4    1  0.4690138E-002  0.4519225E+03  0.7818608E-02  0.1027150E+00
         21   -1    0    0  501  502  0.00000000000E+00  0.00000000000E+00  0.14405784046E+03  0.14405784046E+03  0.00000000000E+00 0.  1.
         21   -1    0    0  502  503 -0.00000000000E+00 -0.00000000000E+00 -0.14707784349E+04  0.14707784349E+04  0.00000000000E+00 0.  1.
    9000007    1    1    2  501    0  0.14071891796E+03  0.15630778760E+03 -0.51000640698E+03  0.68142532496E+03  0.40000000000E+03 0.  1.
   -9000007    1    1    2    0  503 -0.14071891796E+03 -0.15630778760E+03 -0.81671418751E+03  0.93341095045E+03  0.40000000000E+03 0.  1.
<mgrwt>
<rscale>  2 0.45192249E+03</rscale>
<asrwt>0</asrwt>
<pdfrwt beam="1">  1       21 0.22162745E-01 0.45192249E+03</pdfrwt>
<pdfrwt beam="2">  1       21 0.22627361E+00 0.45192249E+03</pdfrwt>
<totfact> 0.14608087E+03</totfact>
</mgrwt>
</event>
<event>
 4    1  0.4690138E-002  0.4298377E+03  0.7818608E-02  0.1033911E+00
         21   -1    0    0  503  502  0.00000000000E+00  0.00000000000E+00  0.72103513898E+03  0.72103513898E+03  0.00000000000E+00 0. -1.
         21   -1    0    0  501  503 -0.00000000000E+00 -0.00000000000E+00 -0.25641318771E+03  0.25641318771E+03  0.00000000000E+00 0. -1.
    9000007    1    1    2  501    0 -0.14791255402E+03  0.53687351244E+02  0.24488916334E+03  0.49470310050E+03  0.40000000000E+03 0. -1.
   -9000007    1    1    2    0  502  0.14791255402E+03 -0.53687351244E+02  0.21973278793E+03  0.48274522619E+03  0.40000000000E+03 0. -1.
<mgrwt>
<rscale>  2 0.42983771E+03</rscale>
<asrwt>0</asrwt>
<pdfrwt beam="1">  1       21 0.11092848E+00 0.42983771E+03</pdfrwt>
<pdfrwt beam="2">  1       21 0.39448183E-01 0.42983771E+03</pdfrwt>
<totfact> 0.34774515E+03</totfact>
</mgrwt>
</event>
<event>
 4    1  0.4690138E-002  0.5349718E+03  0.7818608E-02  0.1005033E+00
         21   -1    0    0  503  502  0.00000000000E+00  0.00000000000E+00  0.72242565462E+03  0.72242565462E+03  0.00000000000E+00 0.  1.
         21   -1    0    0  501  503 -0.00000000000E+00 -0.00000000000E+00 -0.65234839957E+03  0.65234839957E+03  0.00000000000E+00 0.  1.
    9000007    1    1    2  501    0 -0.33897859698E+03 -0.10624683265E+03 -0.39572869390E+03  0.66542924330E+03  0.40000000000E+03 0.  1.
   -9000007    1    1    2    0  502  0.33897859698E+03  0.10624683265E+03  0.46580594895E+03  0.70934481089E+03  0.40000000000E+03 0.  1.
<mgrwt>
<rscale>  2 0.53497185E+03</rscale>
<asrwt>0</asrwt>
<pdfrwt beam="1">  1       21 0.11114241E+00 0.53497185E+03</pdfrwt>
<pdfrwt beam="2">  1       21 0.10036129E+00 0.53497185E+03</pdfrwt>
<totfact> 0.41711359E+02</totfact>
</mgrwt>
</event>
<event>
 4    1  0.4690138E-002  0.4661561E+03  0.7818608E-02  0.1023011E+00
         21   -1    0    0  503  502  0.00000000000E+00  0.00000000000E+00  0.96779298430E+03  0.96779298430E+03  0.00000000000E+00 0.  1.
         21   -1    0    0  501  503 -0.00000000000E+00 -0.00000000000E+00 -0.48428492898E+03  0.48428492898E+03  0.00000000000E+00 0. -1.
    9000007    1    1    2  501    0 -0.18151240622E+03  0.15606004303E+03 -0.28997309437E+03  0.54898623489E+03  0.40000000000E+03 0. -1.
   -9000007    1    1    2    0  502  0.18151240622E+03 -0.15606004303E+03  0.77348114969E+03  0.90309167839E+03  0.40000000000E+03 0.  1.
<mgrwt>
<rscale>  2 0.46615608E+03</rscale>
<asrwt>0</asrwt>
<pdfrwt beam="1">  1       21 0.14889123E+00 0.46615608E+03</pdfrwt>
<pdfrwt beam="2">  1       21 0.74505374E-01 0.46615608E+03</pdfrwt>
<totfact> 0.40489886E+02</totfact>
</mgrwt>
</event>
<event>
 4    1  0.4690138E-002  0.4021977E+03  0.7818608E-02  0.1043021E+00
         21   -1    0    0  501  502  0.00000000000E+00  0.00000000000E+00  0.10525962551E+04  0.10525962551E+04  0.00000000000E+00 0. -1.
         21   -1    0    0  502  503 -0.00000000000E+00 -0.00000000000E+00 -0.17392364094E+03  0.17392364094E+03  0.00000000000E+00 0. -1.
    9000007    1    1    2  501    0 -0.39848789486E+02  0.13232303561E+02  0.64855925950E+03  0.76314620681E+03  0.40000000000E+03 0. -1.
   -9000007    1    1    2    0  503  0.39848789486E+02 -0.13232303561E+02  0.23011335468E+03  0.46337368924E+03  0.40000000000E+03 0. -1.
<mgrwt>
<rscale>  2 0.40219774E+03</rscale>
<asrwt>0</asrwt>
<pdfrwt beam="1">  1       21 0.16193788E+00 0.40219774E+03</pdfrwt>
<pdfrwt beam="2">  1       21 0.26757484E-01 0.40219774E+03</pdfrwt>
<totfact> 0.28392268E+03</totfact>
</mgrwt>
</event>
<event>
 4    1  0.4690138E-002  0.5328247E+03  0.7818608E-02  0.1005549E+00
         21   -1    0    0  503  502  0.00000000000E+00  0.00000000000E+00  0.46345603065E+03  0.46345603065E+03  0.00000000000E+00 0. -1.
         21   -1    0    0  501  503 -0.00000000000E+00 -0.00000000000E+00 -0.64057908724E+03  0.64057908724E+03  0.00000000000E+00 0.  1.
    9000007    1    1    2  501    0 -0.35063709221E+03 -0.30916634509E+02 -0.20397770183E+03  0.57053405820E+03  0.40000000000E+03 0.  1.
   -9000007    1    1    2    0  502  0.35063709221E+03  0.30916634509E+02  0.26854645237E+02  0.53350105969E+03  0.40000000000E+03 0. -1.
<mgrwt>
<rscale>  2 0.53282474E+03</rscale>
<asrwt>0</asrwt>
<pdfrwt beam="1">  1       21 0.71300928E-01 0.53282474E+03</pdfrwt>
<pdfrwt beam="2">  1       21 0.98550629E-01 0.53282474E+03</pdfrwt>
<totfact> 0.12539716E+03</totfact>
</mgrwt>
</event>
<event>
 4    1  0.4690138E-002  0.5149956E+03  0.7818608E-02  0.1009937E+00
         21   -1    0    0  503  502  0.00000000000E+00  0.00000000000E+00  0.51582283376E+03  0.51582283376E+03  0.00000000000E+00 0. -1.
         21   -1    0    0  501  503 -0.00000000000E+00 -0.00000000000E+00 -0.55190434591E+03  0.55190434591E+03  0.00000000000E+00 0.  1.
    9000007    1    1    2  501    0 -0.20222313780E+03  0.25362614755E+03  0.12155400177E+03  0.52914628935E+03  0.40000000000E+03 0. -1.
   -9000007    1    1    2    0  502  0.20222313780E+03 -0.25362614755E+03 -0.15763551392E+03  0.53858089033E+03  0.40000000000E+03 0.  1.
<mgrwt>
<rscale>  2 0.51499555E+03</rscale>
<asrwt>0</asrwt>
<pdfrwt beam="1">  1       21 0.79357359E-01 0.51499555E+03</pdfrwt>
<pdfrwt beam="2">  1       21 0.84908361E-01 0.51499555E+03</pdfrwt>
<totfact> 0.14086584E+03</totfact>
</mgrwt>
</event>
<event>
 4    1  0.4690138E-002  0.6472747E+03  0.7818608E-02  0.9811907E-01
         21   -1    0    0  501  502  0.00000000000E+00  0.00000000000E+00  0.99846200836E+03  0.99846200836E+03  0.00000000000E+00 0.  1.
         21   -1    0    0  502  503 -0.00000000000E+00 -0.00000000000E+00 -0.42994918289E+03  0.42994918289E+03  0.00000000000E+00 0. -1.
    9000007    1    1    2  501    0  0.34447579091E+03  0.37456764843E+03  0.39501080006E+03  0.75828624275E+03  0.40000000000E+03 0.  1.
   -9000007    1    1    2    0  503 -0.34447579091E+03 -0.37456764843E+03  0.17350202541E+03  0.67012494850E+03  0.40000000000E+03 0. -1.
<mgrwt>
<rscale>  2 0.64727467E+03</rscale>
<asrwt>0</asrwt>
<pdfrwt beam="1">  1       21 0.15360954E+00 0.64727467E+03</pdfrwt>
<pdfrwt beam="2">  1       21 0.66146028E-01 0.64727467E+03</pdfrwt>
<totfact> 0.45445901E+02</totfact>
</mgrwt>
</event>
<event>
 4    1  0.4690138E-002  0.4167948E+03  0.7818608E-02  0.1038115E+00
         21   -1    0    0  503  502  0.00000000000E+00  0.00000000000E+00  0.24013589489E+03  0.24013589489E+03  0.00000000000E+00 0.  1.
         21   -1    0    0  501  503 -0.00000000000E+00 -0.00000000000E+00 -0.12308753457E+04  0.12308753457E+04  0.00000000000E+00 0.  1.
    9000007    1    1    2  501    0 -0.12543738308E+01 -0.11711691936E+03 -0.96762840367E+03  0.10535761358E+04  0.40000000000E+03 0.  1.
   -9000007    1    1    2    0  502  0.12543738308E+01  0.11711691936E+03 -0.23111047159E+02  0.41743510484E+03  0.40000000000E+03 0.  1.
<mgrwt>
<rscale>  2 0.41679485E+03</rscale>
<asrwt>0</asrwt>
<pdfrwt beam="1">  1       21 0.36943982E-01 0.41679485E+03</pdfrwt>
<pdfrwt beam="2">  1       21 0.18936545E+00 0.41679485E+03</pdfrwt>
<totfact> 0.94472204E+02</totfact>
</mgrwt>
</event>
<event>
 4    1  0.4690138E-002  0.4892969E+03  0.7818608E-02  0.1016611E+00
         21   -1    0    0  501  502  0.00000000000E+00  0.00000000000E+00  0.11672357739E+04  0.11672357739E+04  0.00000000000E+00 0. -1.
         21   -1    0    0  502  503 -0.00000000000E+00 -0.00000000000E+00 -0.25328001010E+03  0.25328001010E+03  0.00000000000E+00 0. -1.
    9000007    1    1    2  501    0 -0.28153458506E+03 -0.12236220719E+02  0.76672342638E+03  0.90954728313E+03  0.40000000000E+03 0. -1.
   -9000007    1    1    2    0  503  0.28153458506E+03  0.12236220719E+02  0.14723233739E+03  0.51096850085E+03  0.40000000000E+03 0. -1.
<mgrwt>
<rscale>  2 0.48929689E+03</rscale>
<asrwt>0</asrwt>
<pdfrwt beam="1">  1       21 0.17957473E+00 0.48929689E+03</pdfrwt>
<pdfrwt beam="2">  1       21 0.38966156E-01 0.48929689E+03</pdfrwt>
<totfact> 0.95916824E+02</totfact>
</mgrwt>
</event>
<event>
 4    1  0.4690138E-002  0.8976463E+03  0.7818608E-02  0.9428528E-01
         21   -1    0    0  503  502  0.00000000000E+00  0.00000000000E+00  0.76322976586E+03  0.76322976586E+03  0.00000000000E+00 0.  1.
         21   -1    0    0  501  503 -0.00000000000E+00 -0.00000000000E+00 -0.10648140396E+04  0.10648140396E+04  0.00000000000E+00 0. -1.
    9000007    1    1    2  501    0  0.41525487280E+03 -0.68799147008E+03 -0.23518858093E+03  0.92794533292E+03  0.40000000000E+03 0.  1.
   -9000007    1    1    2    0  502 -0.41525487280E+03  0.68799147008E+03 -0.66395692828E+02  0.90009847256E+03  0.40000000000E+03 0. -1.
<mgrwt>
<rscale>  2 0.89764630E+03</rscale>
<asrwt>0</asrwt>
<pdfrwt beam="1">  1       21 0.11741996E+00 0.89764630E+03</pdfrwt>
<pdfrwt beam="2">  1       21 0.16381754E+00 0.89764630E+03</pdfrwt>
<totfact> 0.89186267E+01</totfact>
</mgrwt>
</event>
<event>
 4    1  0.4690138E-002  0.5053795E+03  0.7818608E-02  0.1012384E+00
         21   -1    0    0  503  502  0.00000000000E+00  0.00000000000E+00  0.14319828736E+03  0.14319828736E+03  0.00000000000E+00 0. -1.
         21   -1    0    0  501  503 -0.00000000000E+00 -0.00000000000E+00 -0.18458007366E+04  0.18458007366E+04  0.00000000000E+00 0.  1.
    9000007    1    1    2  501    0 -0.30367737627E+03 -0.56466414960E+02 -0.66873879586E+03  0.83822430290E+03  0.40000000000E+03 0.  1.
   -9000007    1    1    2    0  502  0.30367737627E+03  0.56466414960E+02 -0.10338636534E+04  0.11507747211E+04  0.40000000000E+03 0. -1.
<mgrwt>
<rscale>  2 0.50537947E+03</rscale>
<asrwt>0</asrwt>
<pdfrwt beam="1">  1       21 0.22030508E-01 0.50537947E+03</pdfrwt>
<pdfrwt beam="2">  1       21 0.28396932E+00 0.50537947E+03</pdfrwt>
<totfact> 0.63635446E+02</totfact>
</mgrwt>
</event>
<event>
 4    1  0.4690138E-002  0.4956531E+03  0.7818608E-02  0.1014920E+00
         21   -1    0    0  503  502  0.00000000000E+00  0.00000000000E+00  0.16449096998E+04  0.16449096998E+04  0.00000000000E+00 0. -1.
         21   -1    0    0  501  503 -0.00000000000E+00 -0.00000000000E+00 -0.15486681002E+03  0.15486681002E+03  0.00000000000E+00 0.  1.
    9000007    1    1    2  501    0  0.20403361197E+03  0.20986241682E+03  0.91482285093E+03  0.10404675859E+04  0.40000000000E+03 0.  1.
   -9000007    1    1    2    0  502 -0.20403361197E+03 -0.20986241682E+03  0.57522003887E+03  0.75930892391E+03  0.40000000000E+03 0. -1.
<mgrwt>
<rscale>  2 0.49565305E+03</rscale>
<asrwt>0</asrwt>
<pdfrwt beam="1">  1       21 0.25306302E+00 0.49565305E+03</pdfrwt>
<pdfrwt beam="2">  1       21 0.23825664E-01 0.49565305E+03</pdfrwt>
<totfact> 0.84757547E+02</totfact>
</mgrwt>
</event>
<event>
 4    1  0.4690138E-002  0.4559607E+03  0.7818608E-02  0.1025959E+00
         21   -1    0    0  501  502  0.00000000000E+00  0.00000000000E+00  0.15409520056E+03  0.15409520056E+03  0.00000000000E+00 0. -1.
         21   -1    0    0  502  503 -0.00000000000E+00 -0.00000000000E+00 -0.18446649971E+04  0.18446649971E+04  0.00000000000E+00 0.  1.
    9000007    1    1    2  501    0 -0.66042627143E+02 -0.20865879149E+03 -0.32732873214E+03  0.56128799983E+03  0.40000000000E+03 0. -1.
   -9000007    1    1    2    0  503  0.66042627143E+02  0.20865879149E+03 -0.13632410644E+04  0.14374721978E+04  0.40000000000E+03 0.  1.
<mgrwt>
<rscale>  2 0.45596066E+03</rscale>
<asrwt>0</asrwt>
<pdfrwt beam="1">  1       21 0.23706955E-01 0.45596066E+03</pdfrwt>
<pdfrwt beam="2">  1       21 0.28379461E+00 0.45596066E+03</pdfrwt>
<totfact> 0.56793015E+02</totfact>
</mgrwt>
</event>
<event>
 4    1  0.4690138E-002  0.4354327E+03  0.7818608E-02  0.1032157E+00
         21   -1    0    0  501  502  0.00000000000E+00  0.00000000000E+00  0.15261153751E+03  0.15261153751E+03  0.00000000000E+00 0. -1.
         21   -1    0    0  502  503 -0.00000000000E+00 -0.00000000000E+00 -0.12526167757E+04  0.12526167757E+04  0.00000000000E+00 0. -1.
    9000007    1    1    2  501    0 -0.16730342148E+03  0.40139327385E+02 -0.48648730208E+03  0.65289470478E+03  0.40000000000E+03 0. -1.
   -9000007    1    1    2    0  503  0.16730342148E+03 -0.40139327385E+02 -0.61351793614E+03  0.75233360845E+03  0.40000000000E+03 0. -1.
<mgrwt>
<rscale>  2 0.43543266E+03</rscale>
<asrwt>0</asrwt>
<pdfrwt beam="1">  1       21 0.23478697E-01 0.43543266E+03</pdfrwt>
<pdfrwt beam="2">  1       21 0.19271028E+00 0.43543266E+03</pdfrwt>
<totfact> 0.21819400E+03</totfact>
</mgrwt>
</event>
<event>
 4    1  0.4690138E-002  0.4174746E+03  0.7818608E-02  0.1037891E+00
         21   -1    0    0  501  502  0.00000000000E+00  0.00000000000E+00  0.27255677090E+03  0.27255677090E+03  0.00000000000E+00 0. -1.
         21   -1    0    0  502  503 -0.00000000000E+00 -0.00000000000E+00 -0.69829388489E+03  0.69829388489E+03  0.00000000000E+00 0. -1.
    9000007    1    1    2  501    0  0.91733433962E+02 -0.76615790998E+02 -0.71948350154E+02  0.42362904460E+03  0.40000000000E+03 0. -1.
   -9000007    1    1    2    0  503 -0.91733433962E+02  0.76615790998E+02 -0.35378876384E+03  0.54722161119E+03  0.40000000000E+03 0. -1.
<mgrwt>
<rscale>  2 0.41747455E+03</rscale>
<asrwt>0</asrwt>
<pdfrwt beam="1">  1       21 0.41931812E-01 0.41747455E+03</pdfrwt>
<pdfrwt beam="2">  1       21 0.10742983E+00 0.41747455E+03</pdfrwt>
<totfact> 0.33343451E+03</totfact>
</mgrwt>
</event>
<event>
 4    1  0.4690138E-002  0.5305994E+03  0.7818608E-02  0.1006087E+00
         21   -1    0    0  503  502  0.00000000000E+00  0.00000000000E+00  0.70204554545E+03  0.70204554545E+03  0.00000000000E+00 0. -1.
         21   -1    0    0  501  503 -0.00000000000E+00 -0.00000000000E+00 -0.40152567458E+03  0.40152567458E+03  0.00000000000E+00 0. -1.
    9000007    1    1    2  501    0 -0.29575067706E+03  0.18457320268E+03  0.16980223128E+03  0.55710728579E+03  0.40000000000E+03 0. -1.
   -9000007    1    1    2    0  502  0.29575067706E+03 -0.18457320268E+03  0.13071763959E+03  0.54646393425E+03  0.40000000000E+03 0. -1.
<mgrwt>
<rscale>  2 0.53059941E+03</rscale>
<asrwt>0</asrwt>
<pdfrwt beam="1">  1       21 0.10800701E+00 0.53059941E+03</pdfrwt>
<pdfrwt beam="2">  1       21 0.61773181E-01 0.53059941E+03</pdfrwt>
<totfact> 0.13808689E+03</totfact>
</mgrwt>
</event>
<event>
 4    1  0.4690138E-002  0.4221882E+03  0.7818608E-02  0.1036356E+00
         21   -1    0    0  503  502  0.00000000000E+00  0.00000000000E+00  0.97035425207E+03  0.97035425207E+03  0.00000000000E+00 0.  1.
         21   -1    0    0  501  503 -0.00000000000E+00 -0.00000000000E+00 -0.24219262294E+03  0.24219262294E+03  0.00000000000E+00 0. -1.
    9000007    1    1    2  501    0 -0.17392358576E+02  0.13394171785E+03  0.66104687018E+02  0.42733208113E+03  0.40000000000E+03 0. -1.
   -9000007    1    1    2    0  502  0.17392358576E+02 -0.13394171785E+03  0.66205694212E+03  0.78521479388E+03  0.40000000000E+03 0.  1.
<mgrwt>
<rscale>  2 0.42218820E+03</rscale>
<asrwt>0</asrwt>
<pdfrwt beam="1">  1       21 0.14928527E+00 0.42218820E+03</pdfrwt>
<pdfrwt beam="2">  1       21 0.37260404E-01 0.42218820E+03</pdfrwt>
<totfact> 0.18174909E+03</totfact>
</mgrwt>
</event>
<event>
 4    1  0.4690138E-002  0.4310123E+03  0.7818608E-02  0.1033541E+00
         21   -1    0    0  503  502  0.00000000000E+00  0.00000000000E+00  0.45644385666E+03  0.45644385666E+03  0.00000000000E+00 0. -1.
         21   -1    0    0  501  503 -0.00000000000E+00 -0.00000000000E+00 -0.15601327659E+04  0.15601327659E+04  0.00000000000E+00 0. -1.
    9000007    1    1    2  501    0 -0.44824562922E+02 -0.15415046444E+03 -0.14186946273E+04  0.14827225137E+04  0.40000000000E+03 0. -1.
   -9000007    1    1    2    0  502  0.44824562922E+02  0.15415046444E+03  0.31500571806E+03  0.53385410885E+03  0.40000000000E+03 0. -1.
<mgrwt>
<rscale>  2 0.43101231E+03</rscale>
<asrwt>0</asrwt>
<pdfrwt beam="1">  1       21 0.70222132E-01 0.43101231E+03</pdfrwt>
<pdfrwt beam="2">  1       21 0.24002043E+00 0.43101231E+03</pdfrwt>
<totfact> 0.11189841E+02</totfact>
</mgrwt>
</event>
<event>
 4    1  0.4690138E-002  0.8159193E+03  0.7818608E-02  0.9537256E-01
         21   -1    0    0  501  502  0.00000000000E+00  0.00000000000E+00  0.21227668633E+04  0.21227668633E+04  0.00000000000E+00 0.  1.
         21   -1    0    0  502  503 -0.00000000000E+00 -0.00000000000E+00 -0.56673263455E+03  0.56673263455E+03  0.00000000000E+00 0.  1.
    9000007    1    1    2  501    0  0.69202284120E+03 -0.16379473165E+03  0.16767206983E+04  0.18647028254E+04  0.40000000000E+03 0.  1.
   -9000007    1    1    2    0  503 -0.69202284120E+03  0.16379473165E+03 -0.12068646962E+03  0.82479667240E+03  0.40000000000E+03 0.  1.
<mgrwt>
<rscale>  2 0.81591931E+03</rscale>
<asrwt>0</asrwt>
<pdfrwt beam="1">  1       21 0.32657951E+00 0.81591931E+03</pdfrwt>
<pdfrwt beam="2">  1       21 0.87189637E-01 0.81591931E+03</pdfrwt>
<totfact> 0.16564278E+01</totfact>
</mgrwt>
</event>
<event>
 4    1  0.4690138E-002  0.7096909E+03  0.7818608E-02  0.9700802E-01
         21   -1    0    0  503  502  0.00000000000E+00  0.00000000000E+00  0.91489080025E+03  0.91489080025E+03  0.00000000000E+00 0. -1.
         21   -1    0    0  501  503 -0.00000000000E+00 -0.00000000000E+00 -0.71119244665E+03  0.71119244665E+03  0.00000000000E+00 0. -1.
    9000007    1    1    2  501    0 -0.55914518061E+03 -0.17611866650E+03 -0.28460380258E+03  0.76463091890E+03  0.40000000000E+03 0. -1.
   -9000007    1    1    2    0  502  0.55914518061E+03  0.17611866650E+03  0.48830215617E+03  0.86145232800E+03  0.40000000000E+03 0. -1.
<mgrwt>
<rscale>  2 0.70969086E+03</rscale>
<asrwt>0</asrwt>
<pdfrwt beam="1">  1       21 0.14075243E+00 0.70969086E+03</pdfrwt>
<pdfrwt beam="2">  1       21 0.10941422E+00 0.70969086E+03</pdfrwt>
<totfact> 0.17175306E+02</totfact>
</mgrwt>
</event>
<event>
 4    1  0.4690138E-002  0.4879843E+03  0.7818608E-02  0.1016964E+00
         21   -1    0    0  503  502  0.00000000000E+00  0.00000000000E+00  0.77461272699E+03  0.77461272699E+03  0.00000000000E+00 0. -1.
         21   -1    0    0  501  503 -0.00000000000E+00 -0.00000000000E+00 -0.55570294146E+03  0.55570294146E+03  0.00000000000E+00 0. -1.
    9000007    1    1    2  501    0 -0.27107320522E+03 -0.68175906050E+02 -0.33515587242E+03  0.59199501313E+03  0.40000000000E+03 0. -1.
   -9000007    1    1    2    0  502  0.27107320522E+03  0.68175906050E+02  0.55406565794E+03  0.73832065532E+03  0.40000000000E+03 0. -1.
<mgrwt>
<rscale>  2 0.48798426E+03</rscale>
<asrwt>0</asrwt>
<pdfrwt beam="1">  1       21 0.11917119E+00 0.48798426E+03</pdfrwt>
<pdfrwt beam="2">  1       21 0.85492760E-01 0.48798426E+03</pdfrwt>
<totfact> 0.52332828E+02</totfact>
</mgrwt>
</event>
<event>
 4    1  0.4690138E-002  0.5125659E+03  0.7818608E-02  0.1010550E+00
         21   -1    0    0  503  502  0.00000000000E+00  0.00000000000E+00  0.15630462554E+03  0.15630462554E+03  0.00000000000E+00 0.  1.
         21   -1    0    0  501  503 -0.00000000000E+00 -0.00000000000E+00 -0.23187458183E+04  0.23187458183E+04  0.00000000000E+00 0.  1.
    9000007    1    1    2  501    0  0.31741973238E+03 -0.44368214908E+02 -0.17303093996E+04  0.18046313871E+04  0.40000000000E+03 0.  1.
   -9000007    1    1    2    0  502 -0.31741973238E+03  0.44368214908E+02 -0.43213179324E+03  0.67041905680E+03  0.40000000000E+03 0.  1.
<mgrwt>
<rscale>  2 0.51256592E+03</rscale>
<asrwt>0</asrwt>
<pdfrwt beam="1">  1       21 0.24046868E-01 0.51256592E+03</pdfrwt>
<pdfrwt beam="2">  1       21 0.35673010E+00 0.51256592E+03</pdfrwt>
<totfact> 0.19296365E+02</totfact>
</mgrwt>
</event>
<event>
 4    1  0.4690138E-002  0.7561680E+03  0.7818608E-02  0.9625723E-01
         21   -1    0    0  503  502  0.00000000000E+00  0.00000000000E+00  0.64986769822E+03  0.64986769822E+03  0.00000000000E+00 0.  1.
         21   -1    0    0  501  503 -0.00000000000E+00 -0.00000000000E+00 -0.10177980882E+04  0.10177980882E+04  0.00000000000E+00 0.  1.
    9000007    1    1    2  501    0  0.38407925827E+03 -0.51407501294E+03 -0.49093566629E+03  0.90155855272E+03  0.40000000000E+03 0.  1.
   -9000007    1    1    2    0  502 -0.38407925827E+03  0.51407501294E+03  0.12300527628E+03  0.76610723372E+03  0.40000000000E+03 0.  1.
<mgrwt>
<rscale>  2 0.75616797E+03</rscale>
<asrwt>0</asrwt>
<pdfrwt beam="1">  1       21 0.99979646E-01 0.75616797E+03</pdfrwt>
<pdfrwt beam="2">  1       21 0.15658432E+00 0.75616797E+03</pdfrwt>
<totfact> 0.15808770E+02</totfact>
</mgrwt>
</event>
<event>
 4    1  0.4690138E-002  0.4003794E+03  0.7818608E-02  0.1043648E+00
         21   -1    0    0  503  502  0.00000000000E+00  0.00000000000E+00  0.15464187869E+03  0.15464187869E+03  0.00000000000E+00 0. -1.
         21   -1    0    0  501  503 -0.00000000000E+00 -0.00000000000E+00 -0.11282620958E+04  0.11282620958E+04  0.00000000000E+00 0. -1.
    9000007    1    1    2  501    0  0.11632314861E+02 -0.12974449161E+02 -0.66963078528E+03  0.78019807464E+03  0.40000000000E+03 0. -1.
   -9000007    1    1    2    0  502 -0.11632314861E+02  0.12974449161E+02 -0.30398943182E+03  0.50270589984E+03  0.40000000000E+03 0. -1.
<mgrwt>
<rscale>  2 0.40037938E+03</rscale>
<asrwt>0</asrwt>
<pdfrwt beam="1">  1       21 0.23791059E-01 0.40037938E+03</pdfrwt>
<pdfrwt beam="2">  1       21 0.17357878E+00 0.40037938E+03</pdfrwt>
<totfact> 0.29353809E+03</totfact>
</mgrwt>
</event>
<event>
 4    1  0.4690138E-002  0.4317786E+03  0.7818608E-02  0.1033300E+00
         21   -1    0    0  501  502  0.00000000000E+00  0.00000000000E+00  0.13782204261E+04  0.13782204261E+04  0.00000000000E+00 0. -1.
         21   -1    0    0  502  503 -0.00000000000E+00 -0.00000000000E+00 -0.14666443755E+03  0.14666443755E+03  0.00000000000E+00 0. -1.
    9000007    1    1    2  501    0  0.51293720859E+01 -0.16250064132E+03  0.82828769580E+03  0.93407348528E+03  0.40000000000E+03 0. -1.
   -9000007    1    1    2    0  503 -0.51293720859E+01  0.16250064132E+03  0.40326829280E+03  0.59081137841E+03  0.40000000000E+03 0. -1.
<mgrwt>
<rscale>  2 0.43177861E+03</rscale>
<asrwt>0</asrwt>
<pdfrwt beam="1">  1       21 0.21203390E+00 0.43177861E+03</pdfrwt>
<pdfrwt beam="2">  1       21 0.22563761E-01 0.43177861E+03</pdfrwt>
<totfact> 0.17571006E+03</totfact>
</mgrwt>
</event>
<event>
 4    1  0.4690138E-002  0.5834566E+03  0.7818608E-02  0.9940335E-01
         21   -1    0    0  503  502  0.00000000000E+00  0.00000000000E+00  0.16066639917E+04  0.16066639917E+04  0.00000000000E+00 0.  1.
         21   -1    0    0  501  503 -0.00000000000E+00 -0.00000000000E+00 -0.32591682740E+03  0.32591682740E+03  0.00000000000E+00 0.  1.
    9000007    1    1    2  501    0 -0.10183191065E+03  0.41237350477E+03  0.68796442844E+02  0.58749859235E+03  0.40000000000E+03 0.  1.
   -9000007    1    1    2    0  502  0.10183191065E+03 -0.41237350477E+03  0.12119507215E+04  0.13450822268E+04  0.40000000000E+03 0.  1.
<mgrwt>
<rscale>  2 0.58345664E+03</rscale>
<asrwt>0</asrwt>
<pdfrwt beam="1">  1       21 0.24717907E+00 0.58345664E+03</pdfrwt>
<pdfrwt beam="2">  1       21 0.50141051E-01 0.58345664E+03</pdfrwt>
<totfact> 0.19544716E+02</totfact>
</mgrwt>
</event>
<event>
 4    1  0.4690138E-002  0.7131872E+03  0.7818608E-02  0.9694942E-01
         21   -1    0    0  501  502  0.00000000000E+00  0.00000000000E+00  0.73851841942E+03  0.73851841942E+03  0.00000000000E+00 0. -1.
         21   -1    0    0  502  503 -0.00000000000E+00 -0.00000000000E+00 -0.72761731974E+03  0.72761731974E+03  0.00000000000E+00 0.  1.
    9000007    1    1    2  501    0  0.17829310637E+03  0.56289216617E+03 -0.16403206985E+03  0.73180772232E+03  0.40000000000E+03 0.  1.
   -9000007    1    1    2    0  503 -0.17829310637E+03 -0.56289216617E+03  0.17493316953E+03  0.73432801684E+03  0.40000000000E+03 0. -1.
<mgrwt>
<rscale>  2 0.71318723E+03</rscale>
<asrwt>0</asrwt>
<pdfrwt beam="1">  1       21 0.11361822E+00 0.71318723E+03</pdfrwt>
<pdfrwt beam="2">  1       21 0.11194113E+00 0.71318723E+03</pdfrwt>
<totfact> 0.28341903E+02</totfact>
</mgrwt>
</event>
<event>
 4    1  0.4690138E-002  0.4999920E+03  0.7818608E-02  0.1013781E+00
         21   -1    0    0  501  502  0.00000000000E+00  0.00000000000E+00  0.67863442897E+03  0.67863442897E+03  0.00000000000E+00 0. -1.
         21   -1    0    0  502  503 -0.00000000000E+00 -0.00000000000E+00 -0.11269217203E+04  0.11269217203E+04  0.00000000000E+00 0.  1.
    9000007    1    1    2  501    0  0.10812245027E+03  0.27982405874E+03  0.51652727008E+03  0.71888273650E+03  0.40000000000E+03 0. -1.
   -9000007    1    1    2    0  503 -0.10812245027E+03 -0.27982405874E+03 -0.96481456142E+03  0.10866734128E+04  0.40000000000E+03 0.  1.
<mgrwt>
<rscale>  2 0.49999197E+03</rscale>
<asrwt>0</asrwt>
<pdfrwt beam="1">  1       21 0.10440530E+00 0.49999197E+03</pdfrwt>
<pdfrwt beam="2">  1       21 0.17337257E+00 0.49999197E+03</pdfrwt>
<totfact> 0.11718431E+02</totfact>
</mgrwt>
</event>
<event>
 4    1  0.4690138E-002  0.4416962E+03  0.7818608E-02  0.1030228E+00
         21   -1    0    0  501  502  0.00000000000E+00  0.00000000000E+00  0.89376535305E+03  0.89376535305E+03  0.00000000000E+00 0.  1.
         21   -1    0    0  502  503 -0.00000000000E+00 -0.00000000000E+00 -0.21850187568E+03  0.21850187568E+03  0.00000000000E+00 0.  1.
    9000007    1    1    2  501    0 -0.92006673878E+02  0.16318806056E+03  0.32011086326E+03  0.54549659571E+03  0.40000000000E+03 0.  1.
   -9000007    1    1    2    0  503  0.92006673878E+02 -0.16318806056E+03  0.35515261411E+03  0.56677063302E+03  0.40000000000E+03 0.  1.
<mgrwt>
<rscale>  2 0.44169624E+03</rscale>
<asrwt>0</asrwt>
<pdfrwt beam="1">  1       21 0.13750236E+00 0.44169624E+03</pdfrwt>
<pdfrwt beam="2">  1       21 0.33615674E-01 0.44169624E+03</pdfrwt>
<totfact> 0.27678089E+03</totfact>
</mgrwt>
</event>
<event>
 4    1  0.4690138E-002  0.4304914E+03  0.7818608E-02  0.1033705E+00
         21   -1    0    0  503  502  0.00000000000E+00  0.00000000000E+00  0.11796999692E+03  0.11796999692E+03  0.00000000000E+00 0.  1.
         21   -1    0    0  501  503 -0.00000000000E+00 -0.00000000000E+00 -0.17851458391E+04  0.17851458391E+04  0.00000000000E+00 0.  1.
    9000007    1    1    2  501    0 -0.86207727975E+02 -0.13375743976E+03 -0.11632145544E+04  0.12403188802E+04  0.40000000000E+03 0.  1.
   -9000007    1    1    2    0  502  0.86207727975E+02  0.13375743976E+03 -0.50396128782E+03  0.66279695584E+03  0.40000000000E+03 0.  1.
<mgrwt>
<rscale>  2 0.43049138E+03</rscale>
<asrwt>0</asrwt>
<pdfrwt beam="1">  1       21 0.18149232E-01 0.43049138E+03</pdfrwt>
<pdfrwt beam="2">  1       21 0.27463780E+00 0.43049138E+03</pdfrwt>
<totfact> 0.10888617E+03</totfact>
</mgrwt>
</event>
<event>
 4    1  0.4690138E-002  0.4283570E+03  0.7818608E-02  0.1034380E+00
         21   -1    0    0  501  502  0.00000000000E+00  0.00000000000E+00  0.79264054397E+03  0.79264054397E+03  0.00000000000E+00 0. -1.
         21   -1    0    0  502  503 -0.00000000000E+00 -0.00000000000E+00 -0.38392109440E+03  0.38392109440E+03  0.00000000000E+00 0.  1.
    9000007    1    1    2  501    0  0.14686334296E+03 -0.43827774463E+02  0.57503878067E+03  0.71704903221E+03  0.40000000000E+03 0. -1.
   -9000007    1    1    2    0  503 -0.14686334296E+03  0.43827774463E+02 -0.16631933111E+03  0.45951260616E+03  0.40000000000E+03 0.  1.
<mgrwt>
<rscale>  2 0.42835700E+03</rscale>
<asrwt>0</asrwt>
<pdfrwt beam="1">  1       21 0.12194470E+00 0.42835700E+03</pdfrwt>
<pdfrwt beam="2">  1       21 0.59064784E-01 0.42835700E+03</pdfrwt>
<totfact> 0.11678679E+03</totfact>
</mgrwt>
</event>
<event>
 4    1  0.4690138E-002  0.7317717E+03  0.7818608E-02  0.9664390E-01
         21   -1    0    0  501  502  0.00000000000E+00  0.00000000000E+00  0.62479460496E+03  0.62479460496E+03  0.00000000000E+00 0. -1.
         21   -1    0    0  502  503 -0.00000000000E+00 -0.00000000000E+00 -0.90897090820E+03  0.90897090820E+03  0.00000000000E+00 0.  1.
    9000007    1    1    2  501    0 -0.53437246678E+03 -0.29989307851E+03 -0.32534533790E+03  0.80083667541E+03  0.40000000000E+03 0.  1.
   -9000007    1    1    2    0  503  0.53437246678E+03  0.29989307851E+03  0.41169034660E+02  0.73292883775E+03  0.40000000000E+03 0. -1.
<mgrwt>
<rscale>  2 0.73177168E+03</rscale>
<asrwt>0</asrwt>
<pdfrwt beam="1">  1       21 0.96122246E-01 0.73177168E+03</pdfrwt>
<pdfrwt beam="2">  1       21 0.13984168E+00 0.73177168E+03</pdfrwt>
<totfact> 0.23925428E+02</totfact>
</mgrwt>
</event>
<event>
 4    1  0.4690138E-002  0.5179710E+03  0.7818608E-02  0.1009192E+00
         21   -1    0    0  503  502  0.00000000000E+00  0.00000000000E+00  0.11672568569E+03  0.11672568569E+03  0.00000000000E+00 0.  1.
         21   -1    0    0  501  503 -0.00000000000E+00 -0.00000000000E+00 -0.23474735533E+04  0.23474735533E+04  0.00000000000E+00 0. -1.
    9000007    1    1    2  501    0 -0.27351320546E+03  0.18298758602E+03 -0.12933364321E+04  0.13932024465E+04  0.40000000000E+03 0. -1.
   -9000007    1    1    2    0  502  0.27351320546E+03 -0.18298758602E+03 -0.93741143555E+03  0.10709967926E+04  0.40000000000E+03 0.  1.
<mgrwt>
<rscale>  2 0.51797097E+03</rscale>
<asrwt>0</asrwt>
<pdfrwt beam="1">  1       21 0.17957798E-01 0.51797097E+03</pdfrwt>
<pdfrwt beam="2">  1       21 0.36114978E+00 0.51797097E+03</pdfrwt>
<totfact> 0.31600435E+02</totfact>
</mgrwt>
</event>
<event>
 4    1  0.4690138E-002  0.4640036E+03  0.7818608E-02  0.1023626E+00
         21   -1    0    0  503  502  0.00000000000E+00  0.00000000000E+00  0.76687356005E+03  0.76687356005E+03  0.00000000000E+00 0. -1.
         21   -1    0    0  501  503 -0.00000000000E+00 -0.00000000000E+00 -0.49447484718E+03  0.49447484718E+03  0.00000000000E+00 0. -1.
    9000007    1    1    2  501    0 -0.40577565166E+02  0.23163082500E+03 -0.27843087896E+03  0.54113134472E+03  0.40000000000E+03 0. -1.
   -9000007    1    1    2    0  502  0.40577565166E+02 -0.23163082500E+03  0.55082959184E+03  0.72021706251E+03  0.40000000000E+03 0. -1.
<mgrwt>
<rscale>  2 0.46400364E+03</rscale>
<asrwt>0</asrwt>
<pdfrwt beam="1">  1       21 0.11798055E+00 0.46400364E+03</pdfrwt>
<pdfrwt beam="2">  1       21 0.76073053E-01 0.46400364E+03</pdfrwt>
<totfact> 0.71074496E+02</totfact>
</mgrwt>
</event>
<event>
 4    1  0.4690138E-002  0.5153846E+03  0.7818608E-02  0.1009840E+00
         21   -1    0    0  503  502  0.00000000000E+00  0.00000000000E+00  0.59489082139E+03  0.59489082139E+03  0.00000000000E+00 0.  1.
         21   -1    0    0  501  503 -0.00000000000E+00 -0.00000000000E+00 -0.70388616181E+03  0.70388616181E+03  0.00000000000E+00 0. -1.
    9000007    1    1    2  501    0 -0.22027993134E+03 -0.23895192580E+03 -0.44718093970E+03  0.68234306901E+03  0.40000000000E+03 0.  1.
   -9000007    1    1    2    0  502  0.22027993134E+03  0.23895192580E+03  0.33818559928E+03  0.61643391419E+03  0.40000000000E+03 0.  1.
<mgrwt>
<rscale>  2 0.51538459E+03</rscale>
<asrwt>0</asrwt>
<pdfrwt beam="1">  1       21 0.91521664E-01 0.51538459E+03</pdfrwt>
<pdfrwt beam="2">  1       21 0.10829018E+00 0.51538459E+03</pdfrwt>
<totfact> 0.56001583E+02</totfact>
</mgrwt>
</event>
<event>
 4    1  0.4690138E-002  0.4162639E+03  0.7818608E-02  0.1038289E+00
         21   -1    0    0  501  502  0.00000000000E+00  0.00000000000E+00  0.79577569376E+03  0.79577569376E+03  0.00000000000E+00 0. -1.
         21   -1    0    0  502  503 -0.00000000000E+00 -0.00000000000E+00 -0.79720015012E+03  0.79720015012E+03  0.00000000000E+00 0. -1.
    9000007    1    1    2  501    0 -0.26546235589E+02  0.11212015364E+03  0.67834391071E+03  0.79588070254E+03  0.40000000000E+03 0. -1.
   -9000007    1    1    2    0  503  0.26546235589E+02 -0.11212015364E+03 -0.67976836708E+03  0.79709514134E+03  0.40000000000E+03 0. -1.
<mgrwt>
<rscale>  2 0.41626390E+03</rscale>
<asrwt>0</asrwt>
<pdfrwt beam="1">  1       21 0.12242703E+00 0.41626390E+03</pdfrwt>
<pdfrwt beam="2">  1       21 0.12264618E+00 0.41626390E+03</pdfrwt>
<totfact> 0.20935697E+02</totfact>
</mgrwt>
</event>
<event>
 4    1  0.4690138E-002  0.4962841E+03  0.7818608E-02  0.1014753E+00
         21   -1    0    0  501  502  0.00000000000E+00  0.00000000000E+00  0.19771221704E+03  0.19771221704E+03  0.00000000000E+00 0. -1.
         21   -1    0    0  502  503 -0.00000000000E+00 -0.00000000000E+00 -0.12716864482E+04  0.12716864482E+04  0.00000000000E+00 0. -1.
    9000007    1    1    2  501    0 -0.21771825506E+03  0.19722229430E+03 -0.64193283577E+03  0.81140349863E+03  0.40000000000E+03 0. -1.
   -9000007    1    1    2    0  503  0.21771825506E+03 -0.19722229430E+03 -0.43204139544E+03  0.65799516664E+03  0.40000000000E+03 0. -1.
<mgrwt>
<rscale>  2 0.49628406E+03</rscale>
<asrwt>0</asrwt>
<pdfrwt beam="1">  1       21 0.30417264E-01 0.49628406E+03</pdfrwt>
<pdfrwt beam="2">  1       21 0.19564407E+00 0.49628406E+03</pdfrwt>
<totfact> 0.12223953E+03</totfact>
</mgrwt>
</event>
<event>
 4    1  0.4690138E-002  0.5069331E+03  0.7818608E-02  0.1011985E+00
         21   -1    0    0  501  502  0.00000000000E+00  0.00000000000E+00  0.31614965813E+03  0.31614965813E+03  0.00000000000E+00 0. -1.
         21   -1    0    0  502  503 -0.00000000000E+00 -0.00000000000E+00 -0.82217220955E+03  0.82217220955E+03  0.00000000000E+00 0.  1.
    9000007    1    1    2  501    0  0.18416186982E+03  0.25112851024E+03 -0.19239404212E+03  0.54221452433E+03  0.40000000000E+03 0.  1.
   -9000007    1    1    2    0  503 -0.18416186982E+03 -0.25112851024E+03 -0.31362850929E+03  0.59610734335E+03  0.40000000000E+03 0. -1.
<mgrwt>
<rscale>  2 0.50693306E+03</rscale>
<asrwt>0</asrwt>
<pdfrwt beam="1">  1       21 0.48638409E-01 0.50693306E+03</pdfrwt>
<pdfrwt beam="2">  1       21 0.12648803E+00 0.50693306E+03</pdfrwt>
<totfact> 0.15661256E+03</totfact>
</mgrwt>
</event>
<event>
 4    1  0.4690138E-002  0.4138067E+03  0.7818608E-02  0.1039101E+00
         21   -1    0    0  503  502  0.00000000000E+00  0.00000000000E+00  0.73361716990E+03  0.73361716990E+03  0.00000000000E+00 0.  1.
         21   -1    0    0  501  503 -0.00000000000E+00 -0.00000000000E+00 -0.27471254318E+03  0.27471254318E+03  0.00000000000E+00 0.  1.
    9000007    1    1    2  501    0 -0.10593529092E+03  0.37049576487E+01  0.33971420609E+02  0.41519883188E+03  0.40000000000E+03 0.  1.
   -9000007    1    1    2    0  502  0.10593529092E+03 -0.37049576487E+01  0.42493320611E+03  0.59313088120E+03  0.40000000000E+03 0.  1.
<mgrwt>
<rscale>  2 0.41380673E+03</rscale>
<asrwt>0</asrwt>
<pdfrwt beam="1">  1       21 0.11286418E+00 0.41380673E+03</pdfrwt>
<pdfrwt beam="2">  1       21 0.42263468E-01 0.41380673E+03</pdfrwt>
<totfact> 0.29071238E+03</totfact>
</mgrwt>
</event>
<event>
 4    1  0.4690138E-002  0.4222781E+03  0.7818608E-02  0.1036327E+00
         21   -1    0    0  501  502  0.00000000000E+00  0.00000000000E+00  0.16366992745E+03  0.16366992745E+03  0.00000000000E+00 0.  1.
         21   -1    0    0  502  503 -0.00000000000E+00 -0.00000000000E+00 -0.17078877772E+04  0.17078877772E+04  0.00000000000E+00 0.  1.
    9000007    1    1    2  501    0 -0.12964431975E+03 -0.38873935808E+02 -0.20902510068E+03  0.47117971650E+03  0.40000000000E+03 0.  1.
   -9000007    1    1    2    0  503  0.12964431975E+03  0.38873935808E+02 -0.13351927491E+04  0.14003779882E+04  0.40000000000E+03 0.  1.
<mgrwt>
<rscale>  2 0.42227815E+03</rscale>
<asrwt>0</asrwt>
<pdfrwt beam="1">  1       21 0.25179988E-01 0.42227815E+03</pdfrwt>
<pdfrwt beam="2">  1       21 0.26275197E+00 0.42227815E+03</pdfrwt>
<totfact> 0.68961227E+02</totfact>
</mgrwt>
</event>
<event>
 4    1  0.4690138E-002  0.8546468E+03  0.7818608E-02  0.9484121E-01
         21   -1    0    0  503  502  0.00000000000E+00  0.00000000000E+00  0.10906675876E+04  0.10906675876E+04  0.00000000000E+00 0.  1.
         21   -1    0    0  501  503 -0.00000000000E+00 -0.00000000000E+00 -0.71360346732E+03  0.71360346732E+03  0.00000000000E+00 0. -1.
    9000007    1    1    2  501    0  0.38560421768E+03  0.64940782465E+03  0.41229489224E+03  0.94889842110E+03  0.40000000000E+03 0. -1.
   -9000007    1    1    2    0  502 -0.38560421768E+03 -0.64940782465E+03 -0.35230771946E+02  0.85537263383E+03  0.40000000000E+03 0.  1.
<mgrwt>
<rscale>  2 0.85464679E+03</rscale>
<asrwt>0</asrwt>
<pdfrwt beam="1">  1       21 0.16779501E+00 0.85464679E+03</pdfrwt>
<pdfrwt beam="2">  1       21 0.10978515E+00 0.85464679E+03</pdfrwt>
<totfact> 0.99859102E+01</totfact>
</mgrwt>
</event>
<event>
 4    1  0.4690138E-002  0.4752537E+03  0.7818608E-02  0.1020448E+00
         21   -1    0    0  501  502  0.00000000000E+00  0.00000000000E+00  0.23935504432E+03  0.23935504432E+03  0.00000000000E+00 0.  1.
         21   -1    0    0  502  503 -0.00000000000E+00 -0.00000000000E+00 -0.10762765255E+04  0.10762765255E+04  0.00000000000E+00 0.  1.
    9000007    1    1    2  501    0 -0.21715794499E+03 -0.13677895914E+03 -0.64938345608E+03  0.80471419135E+03  0.40000000000E+03 0.  1.
   -9000007    1    1    2    0  503  0.21715794499E+03  0.13677895914E+03 -0.18753802508E+03  0.51091737844E+03  0.40000000000E+03 0.  1.
<mgrwt>
<rscale>  2 0.47525368E+03</rscale>
<asrwt>0</asrwt>
<pdfrwt beam="1">  1       21 0.36823853E-01 0.47525368E+03</pdfrwt>
<pdfrwt beam="2">  1       21 0.16558101E+00 0.47525368E+03</pdfrwt>
<totfact> 0.13676030E+03</totfact>
</mgrwt>
</event>
<event>
 4    1  0.4690138E-002  0.4239307E+03  0.7818608E-02  0.1035795E+00
         21   -1    0    0  501  502  0.00000000000E+00  0.00000000000E+00  0.98532726557E+02  0.98532726557E+02  0.00000000000E+00 0. -1.
         21   -1    0    0  502  503 -0.00000000000E+00 -0.00000000000E+00 -0.21935406344E+04  0.21935406344E+04  0.00000000000E+00 0. -1.
    9000007    1    1    2  501    0 -0.11544997679E+03 -0.79928120053E+02 -0.57707343677E+03  0.71605233953E+03  0.40000000000E+03 0. -1.
   -9000007    1    1    2    0  503  0.11544997679E+03  0.79928120053E+02 -0.15179344710E+04  0.15760210214E+04  0.40000000000E+03 0. -1.
<mgrwt>
<rscale>  2 0.42393066E+03</rscale>
<asrwt>0</asrwt>
<pdfrwt beam="1">  1       21 0.15158882E-01 0.42393066E+03</pdfrwt>
<pdfrwt beam="2">  1       21 0.33746777E+00 0.42393066E+03</pdfrwt>
<totfact> 0.64070567E+02</totfact>
</mgrwt>
</event>
<event>
 4    1  0.4690138E-002  0.4204801E+03  0.7818608E-02  0.1036910E+00
         21   -1    0    0  503  502  0.00000000000E+00  0.00000000000E+00  0.27078483700E+03  0.27078483700E+03  0.00000000000E+00 0.  1.
         21   -1    0    0  501  503 -0.00000000000E+00 -0.00000000000E+00 -0.11784843628E+04  0.11784843628E+04  0.00000000000E+00 0.  1.
    9000007    1    1    2  501    0 -0.89176404289E+02 -0.94079990563E+02 -0.93776141687E+03  0.10277158901E+04  0.40000000000E+03 0.  1.
   -9000007    1    1    2    0  502  0.89176404289E+02  0.94079990563E+02  0.30061891028E+02  0.42155330979E+03  0.40000000000E+03 0.  1.
<mgrwt>
<rscale>  2 0.42048005E+03</rscale>
<asrwt>0</asrwt>
<pdfrwt beam="1">  1       21 0.41659207E-01 0.42048005E+03</pdfrwt>
<pdfrwt beam="2">  1       21 0.18130528E+00 0.42048005E+03</pdfrwt>
<totfact> 0.83797825E+02</totfact>
</mgrwt>
</event>
<event>
 4    1  0.4690138E-002  0.4895837E+03  0.7818608E-02  0.1016534E+00
         21   -1    0    0  503  502  0.00000000000E+00  0.00000000000E+00  0.14793388687E+04  0.14793388687E+04  0.00000000000E+00 0. -1.
         21   -1    0    0  501  503 -0.00000000000E+00 -0.00000000000E+00 -0.18556878142E+03  0.18556878142E+03  0.00000000000E+00 0. -1.
    9000007    1    1    2  501    0 -0.56954207390E+02  0.27649302020E+03  0.35038038925E+03  0.60204533810E+03  0.40000000000E+03 0. -1.
   -9000007    1    1    2    0  502  0.56954207390E+02 -0.27649302020E+03  0.94338969803E+03  0.10628623120E+04  0.40000000000E+03 0. -1.
<mgrwt>
<rscale>  2 0.48958367E+03</rscale>
<asrwt>0</asrwt>
<pdfrwt beam="1">  1       21 0.22759059E+00 0.48958367E+03</pdfrwt>
<pdfrwt beam="2">  1       21 0.28549044E-01 0.48958367E+03</pdfrwt>
<totfact> 0.85980748E+02</totfact>
</mgrwt>
</event>
<event>
 4    1  0.4690138E-002  0.4066309E+03  0.7818608E-02  0.1041508E+00
         21   -1    0    0  501  502  0.00000000000E+00  0.00000000000E+00  0.46484497719E+03  0.46484497719E+03  0.00000000000E+00 0. -1.
         21   -1    0    0  502  503 -0.00000000000E+00 -0.00000000000E+00 -0.35690319714E+03  0.35690319714E+03  0.00000000000E+00 0. -1.
    9000007    1    1    2  501    0 -0.73119872153E+02 -0.14641406916E+01  0.30185158397E+02  0.40774968203E+03  0.40000000000E+03 0.  1.
   -9000007    1    1    2    0  503  0.73119872153E+02  0.14641406916E+01  0.77756621647E+02  0.41399849229E+03  0.40000000000E+03 0.  1.
<mgrwt>
<rscale>  2 0.40663086E+03</rscale>
<asrwt>0</asrwt>
<pdfrwt beam="1">  1       21 0.71514612E-01 0.40663086E+03</pdfrwt>
<pdfrwt beam="2">  1       21 0.54908184E-01 0.40663086E+03</pdfrwt>
<totfact> 0.49392029E+03</totfact>
</mgrwt>
</event>
<event>
 4    1  0.4690138E-002  0.7790096E+03  0.7818608E-02  0.9590907E-01
         21   -1    0    0  501  502  0.00000000000E+00  0.00000000000E+00  0.29568826640E+03  0.29568826640E+03  0.00000000000E+00 0. -1.
         21   -1    0    0  502  503 -0.00000000000E+00 -0.00000000000E+00 -0.21358881978E+04  0.21358881978E+04  0.00000000000E+00 0.  1.
    9000007    1    1    2  501    0  0.55431316454E+03 -0.37362137808E+03 -0.11605414643E+04  0.13977526637E+04  0.40000000000E+03 0.  1.
   -9000007    1    1    2    0  503 -0.55431316454E+03  0.37362137808E+03 -0.67965846708E+03  0.10338238005E+04  0.40000000000E+03 0. -1.
<mgrwt>
<rscale>  2 0.77900964E+03</rscale>
<asrwt>0</asrwt>
<pdfrwt beam="1">  1       21 0.45490501E-01 0.77900964E+03</pdfrwt>
<pdfrwt beam="2">  1       21 0.32859820E+00 0.77900964E+03</pdfrwt>
<totfact> 0.70193226E+01</totfact>
</mgrwt>
</event>
<event>
 4    1  0.4690138E-002  0.4283204E+03  0.7818608E-02  0.1034392E+00
         21   -1    0    0  503  502  0.00000000000E+00  0.00000000000E+00  0.57863380421E+03  0.57863380421E+03  0.00000000000E+00 0. -1.
         21   -1    0    0  501  503 -0.00000000000E+00 -0.00000000000E+00 -0.40925231916E+03  0.40925231916E+03  0.00000000000E+00 0.  1.
    9000007    1    1    2  501    0  0.11965825357E+03 -0.95604685448E+02 -0.14975483115E+03  0.45374537241E+03  0.40000000000E+03 0. -1.
   -9000007    1    1    2    0  502 -0.11965825357E+03  0.95604685448E+02  0.31913631621E+03  0.53414075097E+03  0.40000000000E+03 0. -1.
<mgrwt>
<rscale>  2 0.42832039E+03</rscale>
<asrwt>0</asrwt>
<pdfrwt beam="1">  1       21 0.89020586E-01 0.42832039E+03</pdfrwt>
<pdfrwt beam="2">  1       21 0.62961895E-01 0.42832039E+03</pdfrwt>
<totfact> 0.21939504E+03</totfact>
</mgrwt>
</event>
<event>
 4    1  0.4690138E-002  0.5898926E+03  0.7818608E-02  0.9926600E-01
         21   -1    0    0  503  502  0.00000000000E+00  0.00000000000E+00  0.14810930985E+04  0.14810930985E+04  0.00000000000E+00 0.  1.
         21   -1    0    0  501  503 -0.00000000000E+00 -0.00000000000E+00 -0.29280191473E+03  0.29280191473E+03  0.00000000000E+00 0.  1.
    9000007    1    1    2  501    0  0.28795863818E+03  0.32411896810E+03  0.98841584088E+03  0.11510600146E+04  0.40000000000E+03 0.  1.
   -9000007    1    1    2    0  502 -0.28795863818E+03 -0.32411896810E+03  0.19987534287E+03  0.62283499859E+03  0.40000000000E+03 0.  1.
<mgrwt>
<rscale>  2 0.58989260E+03</rscale>
<asrwt>0</asrwt>
<pdfrwt beam="1">  1       21 0.22786047E+00 0.58989260E+03</pdfrwt>
<pdfrwt beam="2">  1       21 0.45046449E-01 0.58989260E+03</pdfrwt>
<totfact> 0.32393662E+02</totfact>
</mgrwt>
</event>
<event>
 4    1  0.4690138E-002  0.4157000E+03  0.7818608E-02  0.1038475E+00
         21   -1    0    0  501  502  0.00000000000E+00  0.00000000000E+00  0.10651608932E+04  0.10651608932E+04  0.00000000000E+00 0. -1.
         21   -1    0    0  502  503 -0.00000000000E+00 -0.00000000000E+00 -0.16265835564E+03  0.16265835564E+03  0.00000000000E+00 0.  1.
    9000007    1    1    2  501    0 -0.11310560590E+03  0.36858596773E+01  0.48256807344E+03  0.63692888861E+03  0.40000000000E+03 0. -1.
   -9000007    1    1    2    0  503  0.11310560590E+03 -0.36858596773E+01  0.41993446410E+03  0.59089036021E+03  0.40000000000E+03 0.  1.
<mgrwt>
<rscale>  2 0.41569997E+03</rscale>
<asrwt>0</asrwt>
<pdfrwt beam="1">  1       21 0.16387090E+00 0.41569997E+03</pdfrwt>
<pdfrwt beam="2">  1       21 0.25024363E-01 0.41569997E+03</pdfrwt>
<totfact> 0.31115107E+03</totfact>
</mgrwt>
</event>
<event>
 4    1  0.4690138E-002  0.5335842E+03  0.7818608E-02  0.1005367E+00
         21   -1    0    0  503  502  0.00000000000E+00  0.00000000000E+00  0.17146579549E+04  0.17146579549E+04  0.00000000000E+00 0.  1.
         21   -1    0    0  501  503 -0.00000000000E+00 -0.00000000000E+00 -0.23599868719E+03  0.23599868719E+03  0.00000000000E+00 0.  1.
    9000007    1    1    2  501    0  0.23341843733E+03 -0.26500550180E+03  0.20832505702E+03  0.57281010138E+03  0.40000000000E+03 0.  1.
   -9000007    1    1    2    0  502 -0.23341843733E+03  0.26500550180E+03  0.12703342107E+04  0.13778465407E+04  0.40000000000E+03 0.  1.
<mgrwt>
<rscale>  2 0.53358419E+03</rscale>
<asrwt>0</asrwt>
<pdfrwt beam="1">  1       21 0.26379352E+00 0.53358419E+03</pdfrwt>
<pdfrwt beam="2">  1       21 0.36307491E-01 0.53358419E+03</pdfrwt>
<totfact> 0.30978474E+02</totfact>
</mgrwt>
</event>
<event>
 4    1  0.4690138E-002  0.4559382E+03  0.7818608E-02  0.1025966E+00
         21   -1    0    0  503  502  0.00000000000E+00  0.00000000000E+00  0.58784694509E+03  0.58784694509E+03  0.00000000000E+00 0. -1.
         21   -1    0    0  501  503 -0.00000000000E+00 -0.00000000000E+00 -0.35408511062E+03  0.35408511062E+03  0.00000000000E+00 0. -1.
    9000007    1    1    2  501    0 -0.21451211786E+03 -0.43175964223E+02  0.99974026021E+02  0.46677019878E+03  0.40000000000E+03 0. -1.
   -9000007    1    1    2    0  502  0.21451211786E+03  0.43175964223E+02  0.13378780844E+03  0.47516185693E+03  0.40000000000E+03 0. -1.
<mgrwt>
<rscale>  2 0.45593817E+03</rscale>
<asrwt>0</asrwt>
<pdfrwt beam="1">  1       21 0.90437992E-01 0.45593817E+03</pdfrwt>
<pdfrwt beam="2">  1       21 0.54474632E-01 0.45593817E+03</pdfrwt>
<totfact> 0.28690404E+03</totfact>
</mgrwt>
</event>
<event>
 4    1  0.4690138E-002  0.4170211E+03  0.7818608E-02  0.1038040E+00
         21   -1    0    0  501  502  0.00000000000E+00  0.00000000000E+00  0.96547889805E+02  0.96547889805E+02  0.00000000000E+00 0.  1.
         21   -1    0    0  502  503 -0.00000000000E+00 -0.00000000000E+00 -0.18570275485E+04  0.18570275485E+04  0.00000000000E+00 0.  1.
    9000007    1    1    2  501    0  0.80136838412E+02  0.86514192440E+02 -0.71094973730E+03  0.82423063965E+03  0.40000000000E+03 0. -1.
   -9000007    1    1    2    0  503 -0.80136838412E+02 -0.86514192440E+02 -0.10495299214E+04  0.11293447987E+04  0.40000000000E+03 0. -1.
<mgrwt>
<rscale>  2 0.41702112E+03</rscale>
<asrwt>0</asrwt>
<pdfrwt beam="1">  1       21 0.14853522E-01 0.41702112E+03</pdfrwt>
<pdfrwt beam="2">  1       21 0.28569654E+00 0.41702112E+03</pdfrwt>
<totfact> 0.13681407E+03</totfact>
</mgrwt>
</event>
<event>
 4    1  0.4690138E-002  0.4573558E+03  0.7818608E-02  0.1025551E+00
         21   -1    0    0  501  502  0.00000000000E+00  0.00000000000E+00  0.11822381792E+04  0.11822381792E+04  0.00000000000E+00 0.  1.
         21   -1    0    0  502  503 -0.00000000000E+00 -0.00000000000E+00 -0.24614582217E+03  0.24614582217E+03  0.00000000000E+00 0.  1.
    9000007    1    1    2  501    0  0.17494260053E+03  0.13626968588E+03  0.84676679229E+03  0.96238679401E+03  0.40000000000E+03 0.  1.
   -9000007    1    1    2    0  503 -0.17494260053E+03 -0.13626968588E+03  0.89325564760E+02  0.46599720738E+03  0.40000000000E+03 0.  1.
<mgrwt>
<rscale>  2 0.45735581E+03</rscale>
<asrwt>0</asrwt>
<pdfrwt beam="1">  1       21 0.18188279E+00 0.45735581E+03</pdfrwt>
<pdfrwt beam="2">  1       21 0.37868589E-01 0.45735581E+03</pdfrwt>
<totfact> 0.99312946E+02</totfact>
</mgrwt>
</event>
<event>
 4    1  0.4690138E-002  0.6139448E+03  0.7818608E-02  0.9876890E-01
         21   -1    0    0  501  502  0.00000000000E+00  0.00000000000E+00  0.86615178387E+03  0.86615178387E+03  0.00000000000E+00 0.  1.
         21   -1    0    0  502  503 -0.00000000000E+00 -0.00000000000E+00 -0.44290782629E+03  0.44290782629E+03  0.00000000000E+00 0. -1.
    9000007    1    1    2  501    0 -0.32212085039E+03  0.33640216050E+03  0.29810297747E+03  0.68249076259E+03  0.40000000000E+03 0. -1.
   -9000007    1    1    2    0  503  0.32212085039E+03 -0.33640216050E+03  0.12514098012E+03  0.62656884757E+03  0.40000000000E+03 0.  1.
<mgrwt>
<rscale>  2 0.61394483E+03</rscale>
<asrwt>0</asrwt>
<pdfrwt beam="1">  1       21 0.13325412E+00 0.61394483E+03</pdfrwt>
<pdfrwt beam="2">  1       21 0.68139666E-01 0.61394483E+03</pdfrwt>
<totfact> 0.63094322E+02</totfact>
</mgrwt>
</event>
<event>
 4    1  0.4690138E-002  0.4376467E+03  0.7818608E-02  0.1031471E+00
         21   -1    0    0  501  502  0.00000000000E+00  0.00000000000E+00  0.69088279550E+03  0.69088279550E+03  0.00000000000E+00 0. -1.
         21   -1    0    0  502  503 -0.00000000000E+00 -0.00000000000E+00 -0.59178649252E+03  0.59178649252E+03  0.00000000000E+00 0. -1.
    9000007    1    1    2  501    0  0.88710549708E+02  0.15383446664E+03  0.51712213328E+03  0.67745841605E+03  0.40000000000E+03 0. -1.
   -9000007    1    1    2    0  503 -0.88710549708E+02 -0.15383446664E+03 -0.41802583030E+03  0.60521087197E+03  0.40000000000E+03 0. -1.
<mgrwt>
<rscale>  2 0.43764667E+03</rscale>
<asrwt>0</asrwt>
<pdfrwt beam="1">  1       21 0.10628966E+00 0.43764667E+03</pdfrwt>
<pdfrwt beam="2">  1       21 0.91044075E-01 0.43764667E+03</pdfrwt>
<totfact> 0.61342263E+02</totfact>
</mgrwt>
</event>
<event>
 4    1  0.4690138E-002  0.4723543E+03  0.7818608E-02  0.1021258E+00
         21   -1    0    0  501  502  0.00000000000E+00  0.00000000000E+00  0.39471850664E+03  0.39471850664E+03  0.00000000000E+00 0. -1.
         21   -1    0    0  502  503 -0.00000000000E+00 -0.00000000000E+00 -0.57237704781E+03  0.57237704781E+03  0.00000000000E+00 0. -1.
    9000007    1    1    2  501    0  0.24496173391E+03  0.55788628919E+02 -0.34909851762E+02  0.47364260783E+03  0.40000000000E+03 0. -1.
   -9000007    1    1    2    0  503 -0.24496173391E+03 -0.55788628919E+02 -0.14274868941E+03  0.49345294662E+03  0.40000000000E+03 0. -1.
<mgrwt>
<rscale>  2 0.47235434E+03</rscale>
<asrwt>0</asrwt>
<pdfrwt beam="1">  1       21 0.60725925E-01 0.47235434E+03</pdfrwt>
<pdfrwt beam="2">  1       21 0.88058007E-01 0.47235434E+03</pdfrwt>
<totfact> 0.23983585E+03</totfact>
</mgrwt>
</event>
<event>
 4    1  0.4690138E-002  0.4635957E+03  0.7818608E-02  0.1023744E+00
         21   -1    0    0  503  502  0.00000000000E+00  0.00000000000E+00  0.43013592346E+03  0.43013592346E+03  0.00000000000E+00 0.  1.
         21   -1    0    0  501  503 -0.00000000000E+00 -0.00000000000E+00 -0.80468137722E+03  0.80468137722E+03  0.00000000000E+00 0.  1.
    9000007    1    1    2  501    0  0.30334490114E+01  0.23433255989E+03  0.19285289160E+03  0.50210874145E+03  0.40000000000E+03 0.  1.
   -9000007    1    1    2    0  502 -0.30334490114E+01 -0.23433255989E+03 -0.56739834537E+03  0.73270855923E+03  0.40000000000E+03 0.  1.
<mgrwt>
<rscale>  2 0.46359568E+03</rscale>
<asrwt>0</asrwt>
<pdfrwt beam="1">  1       21 0.66174758E-01 0.46359568E+03</pdfrwt>
<pdfrwt beam="2">  1       21 0.12379713E+00 0.46359568E+03</pdfrwt>
<totfact> 0.86143502E+02</totfact>
</mgrwt>
</event>
<event>
 4    1  0.4690138E-002  0.6446318E+03  0.7818608E-02  0.9816905E-01
         21   -1    0    0  503  502  0.00000000000E+00  0.00000000000E+00  0.56852437460E+03  0.56852437460E+03  0.00000000000E+00 0. -1.
         21   -1    0    0  501  503 -0.00000000000E+00 -0.00000000000E+00 -0.96625416201E+03  0.96625416201E+03  0.00000000000E+00 0. -1.
    9000007    1    1    2  501    0 -0.50418884091E+03 -0.36656697787E+02 -0.57757386939E+03  0.86552970798E+03  0.40000000000E+03 0. -1.
   -9000007    1    1    2    0  502  0.50418884091E+03  0.36656697787E+02  0.17984408198E+03  0.66924882863E+03  0.40000000000E+03 0. -1.
<mgrwt>
<rscale>  2 0.64463176E+03</rscale>
<asrwt>0</asrwt>
<pdfrwt beam="1">  1       21 0.87465288E-01 0.64463176E+03</pdfrwt>
<pdfrwt beam="2">  1       21 0.14865449E+00 0.64463176E+03</pdfrwt>
<totfact> 0.26124039E+02</totfact>
</mgrwt>
</event>
<event>
 4    1  0.4690138E-002  0.4499971E+03  0.7818608E-02  0.1027723E+00
         21   -1    0    0  503  502  0.00000000000E+00  0.00000000000E+00  0.45264936481E+03  0.45264936481E+03  0.00000000000E+00 0.  1.
         21   -1    0    0  501  503 -0.00000000000E+00 -0.00000000000E+00 -0.61914167344E+03  0.61914167344E+03  0.00000000000E+00 0. -1.
    9000007    1    1    2  501    0 -0.97629589229E+02 -0.18156512869E+03 -0.36552148684E+03  0.57974424533E+03  0.40000000000E+03 0. -1.
   -9000007    1    1    2    0  502  0.97629589229E+02  0.18156512869E+03  0.19902917821E+03  0.49204679293E+03  0.40000000000E+03 0.  1.
<mgrwt>
<rscale>  2 0.44999715E+03</rscale>
<asrwt>0</asrwt>
<pdfrwt beam="1">  1       21 0.69638364E-01 0.44999715E+03</pdfrwt>
<pdfrwt beam="2">  1       21 0.95252565E-01 0.44999715E+03</pdfrwt>
<totfact> 0.14794674E+03</totfact>
</mgrwt>
</event>
<event>
 4    1  0.4690138E-002  0.4750170E+03  0.7818608E-02  0.1020514E+00
         21   -1    0    0  501  502  0.00000000000E+00  0.00000000000E+00  0.23770469353E+03  0.23770469353E+03  0.00000000000E+00 0.  1.
         21   -1    0    0  502  503 -0.00000000000E+00 -0.00000000000E+00 -0.99043805831E+03  0.99043805831E+03  0.00000000000E+00 0. -1.
    9000007    1    1    2  501    0  0.24451382117E+03  0.76512378643E+02 -0.25114156046E+03  0.53732042230E+03  0.40000000000E+03 0.  1.
   -9000007    1    1    2    0  503 -0.24451382117E+03 -0.76512378643E+02 -0.50159180432E+03  0.69082232954E+03  0.40000000000E+03 0.  1.
<mgrwt>
<rscale>  2 0.47501700E+03</rscale>
<asrwt>0</asrwt>
<pdfrwt beam="1">  1       21 0.36569953E-01 0.47501700E+03</pdfrwt>
<pdfrwt beam="2">  1       21 0.15237508E+00 0.47501700E+03</pdfrwt>
<totfact> 0.17480724E+03</totfact>
</mgrwt>
</event>
<event>
 4    1  0.4690138E-002  0.5044194E+03  0.7818608E-02  0.1012632E+00
         21   -1    0    0  501  502  0.00000000000E+00  0.00000000000E+00  0.45359519614E+03  0.45359519614E+03  0.00000000000E+00 0.  1.
         21   -1    0    0  502  503 -0.00000000000E+00 -0.00000000000E+00 -0.59385874642E+03  0.59385874642E+03  0.00000000000E+00 0. -1.
    9000007    1    1    2  501    0 -0.21010012560E+03  0.22426969792E+03 -0.19344101176E+03  0.54023919259E+03  0.40000000000E+03 0. -1.
   -9000007    1    1    2    0  503  0.21010012560E+03 -0.22426969792E+03  0.53177461485E+02  0.50721474997E+03  0.40000000000E+03 0.  1.
<mgrwt>
<rscale>  2 0.50441943E+03</rscale>
<asrwt>0</asrwt>
<pdfrwt beam="1">  1       21 0.69783876E-01 0.50441943E+03</pdfrwt>
<pdfrwt beam="2">  1       21 0.91362885E-01 0.50441943E+03</pdfrwt>
<totfact> 0.15946412E+03</totfact>
</mgrwt>
</event>
<event>
 4    1  0.4690138E-002  0.5177301E+03  0.7818608E-02  0.1009252E+00
         21   -1    0    0  503  502  0.00000000000E+00  0.00000000000E+00  0.96594205284E+02  0.96594205284E+02  0.00000000000E+00 0.  1.
         21   -1    0    0  501  503 -0.00000000000E+00 -0.00000000000E+00 -0.28022515347E+04  0.28022515347E+04  0.00000000000E+00 0. -1.
    9000007    1    1    2  501    0  0.24480496362E+03 -0.21935126113E+03 -0.14958845618E+04  0.15829450616E+04  0.40000000000E+03 0.  1.
   -9000007    1    1    2    0  502 -0.24480496362E+03  0.21935126113E+03 -0.12097727676E+04  0.13159006783E+04  0.40000000000E+03 0.  1.
<mgrwt>
<rscale>  2 0.51773009E+03</rscale>
<asrwt>0</asrwt>
<pdfrwt beam="1">  1       21 0.14860647E-01 0.51773009E+03</pdfrwt>
<pdfrwt beam="2">  1       21 0.43111562E+00 0.51773009E+03</pdfrwt>
<totfact> 0.16005152E+02</totfact>
</mgrwt>
</event>
<event>
 4    1  0.4690138E-002  0.4464416E+03  0.7818608E-02  0.1028789E+00
         21   -1    0    0  501  502  0.00000000000E+00  0.00000000000E+00  0.73847597392E+03  0.73847597392E+03  0.00000000000E+00 0. -1.
         21   -1    0    0  502  503 -0.00000000000E+00 -0.00000000000E+00 -0.37450153541E+03  0.37450153541E+03  0.00000000000E+00 0. -1.
    9000007    1    1    2  501    0  0.51229557836E+02  0.19153485091E+03  0.47609840908E+03  0.65267125097E+03  0.40000000000E+03 0. -1.
   -9000007    1    1    2    0  503 -0.51229557836E+02 -0.19153485091E+03 -0.11212397057E+03  0.46030625836E+03  0.40000000000E+03 0. -1.
<mgrwt>
<rscale>  2 0.44644156E+03</rscale>
<asrwt>0</asrwt>
<pdfrwt beam="1">  1       21 0.11361169E+00 0.44644156E+03</pdfrwt>
<pdfrwt beam="2">  1       21 0.57615621E-01 0.44644156E+03</pdfrwt>
<totfact> 0.14627013E+03</totfact>
</mgrwt>
</event>
<event>
 4    1  0.4690138E-002  0.4414723E+03  0.7818608E-02  0.1030296E+00
         21   -1    0    0  501  502  0.00000000000E+00  0.00000000000E+00  0.16293218218E+03  0.16293218218E+03  0.00000000000E+00 0. -1.
         21   -1    0    0  502  503 -0.00000000000E+00 -0.00000000000E+00 -0.15724651996E+04  0.15724651996E+04  0.00000000000E+00 0. -1.
    9000007    1    1    2  501    0 -0.90649444106E+01  0.18658951187E+03 -0.28031183809E+03  0.52294602564E+03  0.40000000000E+03 0. -1.
   -9000007    1    1    2    0  503  0.90649444106E+01 -0.18658951187E+03 -0.11292211793E+04  0.12124513561E+04  0.40000000000E+03 0. -1.
<mgrwt>
<rscale>  2 0.44147233E+03</rscale>
<asrwt>0</asrwt>
<pdfrwt beam="1">  1       21 0.25066489E-01 0.44147233E+03</pdfrwt>
<pdfrwt beam="2">  1       21 0.24191773E+00 0.44147233E+03</pdfrwt>
<totfact> 0.92363974E+02</totfact>
</mgrwt>
</event>
<event>
 4    1  0.4690138E-002  0.4041917E+03  0.7818608E-02  0.1042338E+00
         21   -1    0    0  501  502  0.00000000000E+00  0.00000000000E+00  0.69375400710E+03  0.69375400710E+03  0.00000000000E+00 0.  1.
         21   -1    0    0  502  503 -0.00000000000E+00 -0.00000000000E+00 -0.25503253236E+03  0.25503253236E+03  0.00000000000E+00 0.  1.
    9000007    1    1    2  501    0  0.31176850553E+02 -0.48979131815E+02  0.35068653349E+03  0.53511867482E+03  0.40000000000E+03 0.  1.
   -9000007    1    1    2    0  503 -0.31176850553E+02  0.48979131815E+02  0.88034941247E+02  0.41366786465E+03  0.40000000000E+03 0.  1.
<mgrwt>
<rscale>  2 0.40419173E+03</rscale>
<asrwt>0</asrwt>
<pdfrwt beam="1">  1       21 0.10673139E+00 0.40419173E+03</pdfrwt>
<pdfrwt beam="2">  1       21 0.39235774E-01 0.40419173E+03</pdfrwt>
<totfact> 0.39056277E+03</totfact>
</mgrwt>
</event>
<event>
 4    1  0.4690138E-002  0.4566213E+03  0.7818608E-02  0.1025766E+00
         21   -1    0    0  503  502  0.00000000000E+00  0.00000000000E+00  0.68626123559E+03  0.68626123559E+03  0.00000000000E+00 0.  1.
         21   -1    0    0  501  503 -0.00000000000E+00 -0.00000000000E+00 -0.43316631929E+03  0.43316631929E+03  0.00000000000E+00 0.  1.
    9000007    1    1    2  501    0  0.19696743856E+03  0.98523096220E+02 -0.17930230629E+03  0.49056323689E+03  0.40000000000E+03 0.  1.
   -9000007    1    1    2    0  502 -0.19696743856E+03 -0.98523096220E+02  0.43239722259E+03  0.62886431799E+03  0.40000000000E+03 0.  1.
<mgrwt>
<rscale>  2 0.45662126E+03</rscale>
<asrwt>0</asrwt>
<pdfrwt beam="1">  1       21 0.10557865E+00 0.45662126E+03</pdfrwt>
<pdfrwt beam="2">  1       21 0.66640972E-01 0.45662126E+03</pdfrwt>
<totfact> 0.12678166E+03</totfact>
</mgrwt>
</event>
<event>
 4    1  0.4690138E-002  0.4125706E+03  0.7818608E-02  0.1039512E+00
         21   -1    0    0  503  502  0.00000000000E+00  0.00000000000E+00  0.19799344262E+03  0.19799344262E+03  0.00000000000E+00 0. -1.
         21   -1    0    0  501  503 -0.00000000000E+00 -0.00000000000E+00 -0.11604167069E+04  0.11604167069E+04  0.00000000000E+00 0. -1.
    9000007    1    1    2  501    0 -0.10085926698E+03 -0.64706152385E+01 -0.13545179496E+03  0.43423685858E+03  0.40000000000E+03 0. -1.
   -9000007    1    1    2    0  502  0.10085926698E+03  0.64706152385E+01 -0.82697146928E+03  0.92417329089E+03  0.40000000000E+03 0. -1.
<mgrwt>
<rscale>  2 0.41257055E+03</rscale>
<asrwt>0</asrwt>
<pdfrwt beam="1">  1       21 0.30460530E-01 0.41257055E+03</pdfrwt>
<pdfrwt beam="2">  1       21 0.17852565E+00 0.41257055E+03</pdfrwt>
<totfact> 0.16590855E+03</totfact>
</mgrwt>
</event>
<event>
 4    1  0.4690138E-002  0.4116337E+03  0.7818608E-02  0.1039824E+00
         21   -1    0    0  501  502  0.00000000000E+00  0.00000000000E+00  0.11351690633E+03  0.11351690633E+03  0.00000000000E+00 0. -1.
         21   -1    0    0  502  503 -0.00000000000E+00 -0.00000000000E+00 -0.15775644318E+04  0.15775644318E+04  0.00000000000E+00 0. -1.
    9000007    1    1    2  501    0  0.94483311636E+02 -0.22697845542E+02 -0.92818035450E+03  0.10153625258E+04  0.40000000000E+03 0. -1.
   -9000007    1    1    2    0  503 -0.94483311636E+02  0.22697845542E+02 -0.53586717094E+03  0.67571881227E+03  0.40000000000E+03 0. -1.
<mgrwt>
<rscale>  2 0.41163368E+03</rscale>
<asrwt>0</asrwt>
<pdfrwt beam="1">  1       21 0.17464140E-01 0.41163368E+03</pdfrwt>
<pdfrwt beam="2">  1       21 0.24270221E+00 0.41163368E+03</pdfrwt>
<totfact> 0.18488713E+03</totfact>
</mgrwt>
</event>
<event>
 4    1  0.4690138E-002  0.7334415E+03  0.7818608E-02  0.9661692E-01
         21   -1    0    0  501  502  0.00000000000E+00  0.00000000000E+00  0.24587572482E+04  0.24587572482E+04  0.00000000000E+00 0. -1.
         21   -1    0    0  502  503 -0.00000000000E+00 -0.00000000000E+00 -0.49649341726E+03  0.49649341726E+03  0.00000000000E+00 0.  1.
    9000007    1    1    2  501    0 -0.27967888889E+03  0.54746333156E+03  0.20862355330E+04  0.22114056795E+04  0.40000000000E+03 0. -1.
   -9000007    1    1    2    0  503  0.27967888889E+03 -0.54746333156E+03 -0.12397170199E+03  0.74384498599E+03  0.40000000000E+03 0.  1.
<mgrwt>
<rscale>  2 0.73344146E+03</rscale>
<asrwt>0</asrwt>
<pdfrwt beam="1">  1       21 0.37827034E+00 0.73344146E+03</pdfrwt>
<pdfrwt beam="2">  1       21 0.76383604E-01 0.73344146E+03</pdfrwt>
<totfact> 0.11081837E+01</totfact>
</mgrwt>
</event>
<event>
 4    1  0.4690138E-002  0.4232751E+03  0.7818608E-02  0.1036006E+00
         21   -1    0    0  501  502  0.00000000000E+00  0.00000000000E+00  0.58485834584E+03  0.58485834584E+03  0.00000000000E+00 0. -1.
         21   -1    0    0  502  503 -0.00000000000E+00 -0.00000000000E+00 -0.45844577893E+03  0.45844577893E+03  0.00000000000E+00 0. -1.
    9000007    1    1    2  501    0  0.76276568945E+01 -0.13821602530E+03  0.36368846103E+03  0.55806016476E+03  0.40000000000E+03 0. -1.
   -9000007    1    1    2    0  503 -0.76276568945E+01  0.13821602530E+03 -0.23727589412E+03  0.48524396001E+03  0.40000000000E+03 0. -1.
<mgrwt>
<rscale>  2 0.42327515E+03</rscale>
<asrwt>0</asrwt>
<pdfrwt beam="1">  1       21 0.89978207E-01 0.42327515E+03</pdfrwt>
<pdfrwt beam="2">  1       21 0.70530120E-01 0.42327515E+03</pdfrwt>
<totfact> 0.16642626E+03</totfact>
</mgrwt>
</event>
<event>
 4    1  0.4690138E-002  0.4426933E+03  0.7818608E-02  0.1029924E+00
         21   -1    0    0  501  502  0.00000000000E+00  0.00000000000E+00  0.75252303725E+03  0.75252303725E+03  0.00000000000E+00 0. -1.
         21   -1    0    0  502  503 -0.00000000000E+00 -0.00000000000E+00 -0.41661088747E+03  0.41661088747E+03  0.00000000000E+00 0.  1.
    9000007    1    1    2  501    0  0.14670938666E+03  0.12022342883E+03  0.52587698704E+03  0.68740375506E+03  0.40000000000E+03 0. -1.
   -9000007    1    1    2    0  503 -0.14670938666E+03 -0.12022342883E+03 -0.18996483726E+03  0.48173016967E+03  0.40000000000E+03 0.  1.
<mgrwt>
<rscale>  2 0.44269325E+03</rscale>
<asrwt>0</asrwt>
<pdfrwt beam="1">  1       21 0.11577277E+00 0.44269325E+03</pdfrwt>
<pdfrwt beam="2">  1       21 0.64093983E-01 0.44269325E+03</pdfrwt>
<totfact> 0.11059717E+03</totfact>
</mgrwt>
</event>
<event>
 4    1  0.4690138E-002  0.4866031E+03  0.7818608E-02  0.1017336E+00
         21   -1    0    0  503  502  0.00000000000E+00  0.00000000000E+00  0.27650435807E+03  0.27650435807E+03  0.00000000000E+00 0.  1.
         21   -1    0    0  501  503 -0.00000000000E+00 -0.00000000000E+00 -0.87488817158E+03  0.87488817158E+03  0.00000000000E+00 0. -1.
    9000007    1    1    2  501    0  0.24738832587E+03  0.12482616390E+03 -0.21537468390E+03  0.53213608169E+03  0.40000000000E+03 0.  1.
   -9000007    1    1    2    0  502 -0.24738832587E+03 -0.12482616390E+03 -0.38300912962E+03  0.61925644796E+03  0.40000000000E+03 0. -1.
<mgrwt>
<rscale>  2 0.48660308E+03</rscale>
<asrwt>0</asrwt>
<pdfrwt beam="1">  1       21 0.42539132E-01 0.48660308E+03</pdfrwt>
<pdfrwt beam="2">  1       21 0.13459818E+00 0.48660308E+03</pdfrwt>
<totfact> 0.17783419E+03</totfact>
</mgrwt>
</event>
<event>
 4    1  0.4690138E-002  0.4880653E+03  0.7818608E-02  0.1016942E+00
         21   -1    0    0  501  502  0.00000000000E+00  0.00000000000E+00  0.23327161394E+03  0.23327161394E+03  0.00000000000E+00 0. -1.
         21   -1    0    0  502  503 -0.00000000000E+00 -0.00000000000E+00 -0.10580075885E+04  0.10580075885E+04  0.00000000000E+00 0. -1.
    9000007    1    1    2  501    0  0.27848735590E+03  0.25544932589E+02 -0.29187895016E+03  0.56868363132E+03  0.40000000000E+03 0. -1.
   -9000007    1    1    2    0  503 -0.27848735590E+03 -0.25544932589E+02 -0.53285702444E+03  0.72259557117E+03  0.40000000000E+03 0. -1.
<mgrwt>
<rscale>  2 0.48806531E+03</rscale>
<asrwt>0</asrwt>
<pdfrwt beam="1">  1       21 0.35887941E-01 0.48806531E+03</pdfrwt>
<pdfrwt beam="2">  1       21 0.16277040E+00 0.48806531E+03</pdfrwt>
<totfact> 0.15048229E+03</totfact>
</mgrwt>
</event>
<event>
 4    1  0.4690138E-002  0.4542666E+03  0.7818608E-02  0.1026457E+00
         21   -1    0    0  501  502  0.00000000000E+00  0.00000000000E+00  0.68715566001E+03  0.68715566001E+03  0.00000000000E+00 0.  1.
         21   -1    0    0  502  503 -0.00000000000E+00 -0.00000000000E+00 -0.30539922532E+03  0.30539922532E+03  0.00000000000E+00 0. -1.
    9000007    1    1    2  501    0 -0.14004957386E+03 -0.16353673662E+03  0.25495693417E+03  0.52092339710E+03  0.40000000000E+03 0.  1.
   -9000007    1    1    2    0  503  0.14004957386E+03  0.16353673662E+03  0.12679950052E+03  0.47163148823E+03  0.40000000000E+03 0.  1.
<mgrwt>
<rscale>  2 0.45426660E+03</rscale>
<asrwt>0</asrwt>
<pdfrwt beam="1">  1       21 0.10571626E+00 0.45426660E+03</pdfrwt>
<pdfrwt beam="2">  1       21 0.46984496E-01 0.45426660E+03</pdfrwt>
<totfact> 0.26981412E+03</totfact>
</mgrwt>
</event>
<event>
 4    1  0.4690138E-002  0.4126062E+03  0.7818608E-02  0.1039500E+00
         21   -1    0    0  503  502  0.00000000000E+00  0.00000000000E+00  0.37795182473E+03  0.37795182473E+03  0.00000000000E+00 0.  1.
         21   -1    0    0  501  503 -0.00000000000E+00 -0.00000000000E+00 -0.55031298570E+03  0.55031298570E+03  0.00000000000E+00 0.  1.
    9000007    1    1    2  501    0  0.66398553051E+02 -0.76387878692E+02 -0.28390727584E+03  0.50084650057E+03  0.40000000000E+03 0.  1.
   -9000007    1    1    2    0  502 -0.66398553051E+02  0.76387878692E+02  0.11154611487E+03  0.42741830986E+03  0.40000000000E+03 0.  1.
<mgrwt>
<rscale>  2 0.41260620E+03</rscale>
<asrwt>0</asrwt>
<pdfrwt beam="1">  1       21 0.58146434E-01 0.41260620E+03</pdfrwt>
<pdfrwt beam="2">  1       21 0.84663537E-01 0.41260620E+03</pdfrwt>
<totfact> 0.29562429E+03</totfact>
</mgrwt>
</event>
<event>
 4    1  0.4690138E-002  0.4891303E+03  0.7818608E-02  0.1016656E+00
         21   -1    0    0  501  502  0.00000000000E+00  0.00000000000E+00  0.84800853322E+03  0.84800853322E+03  0.00000000000E+00 0. -1.
         21   -1    0    0  502  503 -0.00000000000E+00 -0.00000000000E+00 -0.68497493864E+03  0.68497493864E+03  0.00000000000E+00 0. -1.
    9000007    1    1    2  501    0  0.17231643967E+03 -0.22261074237E+03  0.66932979709E+03  0.82900595611E+03  0.40000000000E+03 0. -1.
   -9000007    1    1    2    0  503 -0.17231643967E+03  0.22261074237E+03 -0.50629620250E+03  0.70397751574E+03  0.40000000000E+03 0. -1.
<mgrwt>
<rscale>  2 0.48913035E+03</rscale>
<asrwt>0</asrwt>
<pdfrwt beam="1">  1       21 0.13046285E+00 0.48913035E+03</pdfrwt>
<pdfrwt beam="2">  1       21 0.10538076E+00 0.48913035E+03</pdfrwt>
<totfact> 0.25049901E+02</totfact>
</mgrwt>
</event>
<event>
 4    1  0.4690138E-002  0.4395180E+03  0.7818608E-02  0.1030895E+00
         21   -1    0    0  501  502  0.00000000000E+00  0.00000000000E+00  0.13444689798E+04  0.13444689798E+04  0.00000000000E+00 0. -1.
         21   -1    0    0  502  503 -0.00000000000E+00 -0.00000000000E+00 -0.25793238115E+03  0.25793238115E+03  0.00000000000E+00 0. -1.
    9000007    1    1    2  501    0  0.15935699796E+03  0.88212588902E+02  0.10765013165E+04  0.11627687638E+04  0.40000000000E+03 0. -1.
   -9000007    1    1    2    0  503 -0.15935699796E+03 -0.88212588902E+02  0.10035282198E+02  0.43963259721E+03  0.40000000000E+03 0. -1.
<mgrwt>
<rscale>  2 0.43951805E+03</rscale>
<asrwt>0</asrwt>
<pdfrwt beam="1">  1       21 0.20684138E+00 0.43951805E+03</pdfrwt>
<pdfrwt beam="2">  1       21 0.39681905E-01 0.43951805E+03</pdfrwt>
<totfact> 0.61664092E+02</totfact>
</mgrwt>
</event>
<event>
 4    1  0.4690138E-002  0.6277791E+03  0.7818608E-02  0.9849392E-01
         21   -1    0    0  503  502  0.00000000000E+00  0.00000000000E+00  0.67092448709E+03  0.67092448709E+03  0.00000000000E+00 0. -1.
         21   -1    0    0  501  503 -0.00000000000E+00 -0.00000000000E+00 -0.10104356349E+04  0.10104356349E+04  0.00000000000E+00 0.  1.
    9000007    1    1    2  501    0 -0.24315775574E+03 -0.41830713505E+03 -0.71370770282E+03  0.95051840512E+03  0.40000000000E+03 0.  1.
   -9000007    1    1    2    0  502  0.24315775574E+03  0.41830713505E+03  0.37419655497E+03  0.73084171690E+03  0.40000000000E+03 0. -1.
<mgrwt>
<rscale>  2 0.62777906E+03</rscale>
<asrwt>0</asrwt>
<pdfrwt beam="1">  1       21 0.10321915E+00 0.62777906E+03</pdfrwt>
<pdfrwt beam="2">  1       21 0.15545164E+00 0.62777906E+03</pdfrwt>
<totfact> 0.15556795E+02</totfact>
</mgrwt>
</event>
<event>
 4    1  0.4690138E-002  0.4703684E+03  0.7818608E-02  0.1021816E+00
         21   -1    0    0  503  502  0.00000000000E+00  0.00000000000E+00  0.19503668207E+04  0.19503668207E+04  0.00000000000E+00 0.  1.
         21   -1    0    0  501  503 -0.00000000000E+00 -0.00000000000E+00 -0.14593747232E+03  0.14593747232E+03  0.00000000000E+00 0.  1.
    9000007    1    1    2  501    0  0.19724013629E+03  0.14947486062E+03  0.40758895390E+03  0.62239469845E+03  0.40000000000E+03 0.  1.
   -9000007    1    1    2    0  502 -0.19724013629E+03 -0.14947486062E+03  0.13968403944E+04  0.14739095945E+04  0.40000000000E+03 0.  1.
<mgrwt>
<rscale>  2 0.47036837E+03</rscale>
<asrwt>0</asrwt>
<pdfrwt beam="1">  1       21 0.30005642E+00 0.47036837E+03</pdfrwt>
<pdfrwt beam="2">  1       21 0.22451920E-01 0.47036837E+03</pdfrwt>
<totfact> 0.49949948E+02</totfact>
</mgrwt>
</event>
<event>
 4    1  0.4690138E-002  0.4667336E+03  0.7818608E-02  0.1022846E+00
         21   -1    0    0  501  502  0.00000000000E+00  0.00000000000E+00  0.17952929255E+03  0.17952929255E+03  0.00000000000E+00 0. -1.
         21   -1    0    0  502  503 -0.00000000000E+00 -0.00000000000E+00 -0.14364361347E+04  0.14364361347E+04  0.00000000000E+00 0. -1.
    9000007    1    1    2  501    0 -0.10614925088E+03  0.21580686821E+03 -0.94683625630E+03  0.10556226428E+04  0.40000000000E+03 0.  1.
   -9000007    1    1    2    0  503  0.10614925088E+03 -0.21580686821E+03 -0.31007058583E+03  0.56034278440E+03  0.40000000000E+03 0.  1.
<mgrwt>
<rscale>  2 0.46673362E+03</rscale>
<asrwt>0</asrwt>
<pdfrwt beam="1">  1       21 0.27619891E-01 0.46673362E+03</pdfrwt>
<pdfrwt beam="2">  1       21 0.22099017E+00 0.46673362E+03</pdfrwt>
<totfact> 0.10216347E+03</totfact>
</mgrwt>
</event>
<event>
 4    1  0.4690138E-002  0.4437517E+03  0.7818608E-02  0.1029602E+00
         21   -1    0    0  501  502  0.00000000000E+00  0.00000000000E+00  0.25058203115E+03  0.25058203115E+03  0.00000000000E+00 0.  1.
         21   -1    0    0  502  503 -0.00000000000E+00 -0.00000000000E+00 -0.16829843545E+04  0.16829843545E+04  0.00000000000E+00 0.  1.
    9000007    1    1    2  501    0  0.65827490841E+02 -0.18050582691E+03 -0.10335707470E+02  0.44387209751E+03  0.40000000000E+03 0.  1.
   -9000007    1    1    2    0  503 -0.65827490841E+02  0.18050582691E+03 -0.14220666158E+04  0.14896942881E+04  0.40000000000E+03 0.  1.
<mgrwt>
<rscale>  2 0.44375175E+03</rscale>
<asrwt>0</asrwt>
<pdfrwt beam="1">  1       21 0.38551083E-01 0.44375175E+03</pdfrwt>
<pdfrwt beam="2">  1       21 0.25892066E+00 0.44375175E+03</pdfrwt>
<totfact> 0.30736277E+02</totfact>
</mgrwt>
</event>
<event>
 4    1  0.4690138E-002  0.5130263E+03  0.7818608E-02  0.1010434E+00
         21   -1    0    0  501  502  0.00000000000E+00  0.00000000000E+00  0.42399259141E+03  0.42399259141E+03  0.00000000000E+00 0.  1.
         21   -1    0    0  502  503 -0.00000000000E+00 -0.00000000000E+00 -0.73321446723E+03  0.73321446723E+03  0.00000000000E+00 0. -1.
    9000007    1    1    2  501    0 -0.28414170931E+03 -0.14986499431E+03  0.71989774161E+02  0.51805265666E+03  0.40000000000E+03 0.  1.
   -9000007    1    1    2    0  503  0.28414170931E+03  0.14986499431E+03 -0.38121164998E+03  0.63915440198E+03  0.40000000000E+03 0. -1.
<mgrwt>
<rscale>  2 0.51302634E+03</rscale>
<asrwt>0</asrwt>
<pdfrwt beam="1">  1       21 0.65229630E-01 0.51302634E+03</pdfrwt>
<pdfrwt beam="2">  1       21 0.11280222E+00 0.51302634E+03</pdfrwt>
<totfact> 0.11046561E+03</totfact>
</mgrwt>
</event>
<event>
 4    1  0.4690138E-002  0.4893012E+03  0.7818608E-02  0.1016610E+00
         21   -1    0    0  501  502  0.00000000000E+00  0.00000000000E+00  0.26081395939E+03  0.26081395939E+03  0.00000000000E+00 0.  1.
         21   -1    0    0  502  503 -0.00000000000E+00 -0.00000000000E+00 -0.11106529739E+04  0.11106529739E+04  0.00000000000E+00 0. -1.
    9000007    1    1    2  501    0  0.19326918946E+03  0.20509179145E+03 -0.13928932063E+03  0.50874073687E+03  0.40000000000E+03 0.  1.
   -9000007    1    1    2    0  503 -0.19326918946E+03 -0.20509179145E+03 -0.71054969389E+03  0.86272619643E+03  0.40000000000E+03 0. -1.
<mgrwt>
<rscale>  2 0.48930116E+03</rscale>
<asrwt>0</asrwt>
<pdfrwt beam="1">  1       21 0.40125225E-01 0.48930116E+03</pdfrwt>
<pdfrwt beam="2">  1       21 0.17086969E+00 0.48930116E+03</pdfrwt>
<totfact> 0.10427378E+03</totfact>
</mgrwt>
</event>
<event>
 4    1  0.4690138E-002  0.4794932E+03  0.7818608E-02  0.1019275E+00
         21   -1    0    0  501  502  0.00000000000E+00  0.00000000000E+00  0.13163072121E+04  0.13163072121E+04  0.00000000000E+00 0. -1.
         21   -1    0    0  502  503 -0.00000000000E+00 -0.00000000000E+00 -0.18538441695E+03  0.18538441695E+03  0.00000000000E+00 0.  1.
    9000007    1    1    2  501    0 -0.94230486302E+02  0.24705128101E+03  0.74600643782E+03  0.88681414359E+03  0.40000000000E+03 0. -1.
   -9000007    1    1    2    0  503  0.94230486302E+02 -0.24705128101E+03  0.38491635732E+03  0.61487748547E+03  0.40000000000E+03 0. -1.
<mgrwt>
<rscale>  2 0.47949319E+03</rscale>
<asrwt>0</asrwt>
<pdfrwt beam="1">  1       21 0.20250880E+00 0.47949319E+03</pdfrwt>
<pdfrwt beam="2">  1       21 0.28520680E-01 0.47949319E+03</pdfrwt>
<totfact> 0.12581098E+03</totfact>
</mgrwt>
</event>
<event>
 4    1  0.4690138E-002  0.4721847E+03  0.7818608E-02  0.1021305E+00
         21   -1    0    0  503  502  0.00000000000E+00  0.00000000000E+00  0.47144708925E+03  0.47144708925E+03  0.00000000000E+00 0.  1.
         21   -1    0    0  501  503 -0.00000000000E+00 -0.00000000000E+00 -0.47443517724E+03  0.47443517724E+03  0.00000000000E+00 0.  1.
    9000007    1    1    2  501    0  0.22574892017E+03  0.10952522287E+03 -0.28191254617E+02  0.47302547102E+03  0.40000000000E+03 0.  1.
   -9000007    1    1    2    0  502 -0.22574892017E+03 -0.10952522287E+03  0.25203166627E+02  0.47285679546E+03  0.40000000000E+03 0.  1.
<mgrwt>
<rscale>  2 0.47218466E+03</rscale>
<asrwt>0</asrwt>
<pdfrwt beam="1">  1       21 0.72530322E-01 0.47218466E+03</pdfrwt>
<pdfrwt beam="2">  1       21 0.72990027E-01 0.47218466E+03</pdfrwt>
<totfact> 0.24906977E+03</totfact>
</mgrwt>
</event>
<event>
 4    1  0.4690138E-002  0.5257624E+03  0.7818608E-02  0.1007265E+00
         21   -1    0    0  503  502  0.00000000000E+00  0.00000000000E+00  0.17096230488E+04  0.17096230488E+04  0.00000000000E+00 0.  1.
         21   -1    0    0  501  503 -0.00000000000E+00 -0.00000000000E+00 -0.27618146121E+03  0.27618146121E+03  0.00000000000E+00 0. -1.
    9000007    1    1    2  501    0  0.27664794535E+03 -0.19972992377E+03  0.77429314632E+02  0.53143337012E+03  0.40000000000E+03 0. -1.
   -9000007    1    1    2    0  502 -0.27664794535E+03  0.19972992377E+03  0.13560122730E+04  0.14543711399E+04  0.40000000000E+03 0.  1.
<mgrwt>
<rscale>  2 0.52576243E+03</rscale>
<asrwt>0</asrwt>
<pdfrwt beam="1">  1       21 0.26301892E+00 0.52576243E+03</pdfrwt>
<pdfrwt beam="2">  1       21 0.42489457E-01 0.52576243E+03</pdfrwt>
<totfact> 0.22729930E+02</totfact>
</mgrwt>
</event>
<event>
 4    1  0.4690138E-002  0.4339122E+03  0.7818608E-02  0.1032631E+00
         21   -1    0    0  503  502  0.00000000000E+00  0.00000000000E+00  0.26477012744E+04  0.26477012744E+04  0.00000000000E+00 0.  1.
         21   -1    0    0  501  503 -0.00000000000E+00 -0.00000000000E+00 -0.32306425434E+03  0.32306425434E+03  0.00000000000E+00 0.  1.
    9000007    1    1    2  501    0  0.84161230786E+02 -0.14559085700E+03 -0.14944092699E+03  0.45892526741E+03  0.40000000000E+03 0.  1.
   -9000007    1    1    2    0  502 -0.84161230786E+02  0.14559085700E+03  0.24740779470E+04  0.25118402613E+04  0.40000000000E+03 0.  1.
<mgrwt>
<rscale>  2 0.43391222E+03</rscale>
<asrwt>0</asrwt>
<pdfrwt beam="1">  1       21 0.40733864E+00 0.43391222E+03</pdfrwt>
<pdfrwt beam="2">  1       21 0.49702195E-01 0.43391222E+03</pdfrwt>
<totfact> 0.22382510E+01</totfact>
</mgrwt>
</event>
<event>
 4    1  0.4690138E-002  0.4212902E+03  0.7818608E-02  0.1036647E+00
         21   -1    0    0  503  502  0.00000000000E+00  0.00000000000E+00  0.89870243938E+03  0.89870243938E+03  0.00000000000E+00 0. -1.
         21   -1    0    0  501  503 -0.00000000000E+00 -0.00000000000E+00 -0.19782512784E+03  0.19782512784E+03  0.00000000000E+00 0. -1.
    9000007    1    1    2  501    0 -0.10257530119E+03 -0.83449167159E+02  0.37297797207E+03  0.56267043957E+03  0.40000000000E+03 0. -1.
   -9000007    1    1    2    0  502  0.10257530119E+03  0.83449167159E+02  0.32789933948E+03  0.53385712765E+03  0.40000000000E+03 0. -1.
<mgrwt>
<rscale>  2 0.42129023E+03</rscale>
<asrwt>0</asrwt>
<pdfrwt beam="1">  1       21 0.13826191E+00 0.42129023E+03</pdfrwt>
<pdfrwt beam="2">  1       21 0.30434635E-01 0.42129023E+03</pdfrwt>
<totfact> 0.33540767E+03</totfact>
</mgrwt>
</event>
<event>
 4    1  0.4690138E-002  0.4087129E+03  0.7818608E-02  0.1040804E+00
         21   -1    0    0  503  502  0.00000000000E+00  0.00000000000E+00  0.12134263045E+04  0.12134263045E+04  0.00000000000E+00 0. -1.
         21   -1    0    0  501  503 -0.00000000000E+00 -0.00000000000E+00 -0.22254262224E+03  0.22254262224E+03  0.00000000000E+00 0. -1.
    9000007    1    1    2  501    0  0.83628171418E+02 -0.72524774695E+01  0.52032150173E+02  0.41201166748E+03  0.40000000000E+03 0. -1.
   -9000007    1    1    2    0  502 -0.83628171418E+02  0.72524774695E+01  0.93885153204E+03  0.10239572592E+04  0.40000000000E+03 0. -1.
<mgrwt>
<rscale>  2 0.40871294E+03</rscale>
<asrwt>0</asrwt>
<pdfrwt beam="1">  1       21 0.18668097E+00 0.40871294E+03</pdfrwt>
<pdfrwt beam="2">  1       21 0.34237327E-01 0.40871294E+03</pdfrwt>
<totfact> 0.11542294E+03</totfact>
</mgrwt>
</event>
<event>
 4    1  0.4690138E-002  0.4068891E+03  0.7818608E-02  0.1041420E+00
         21   -1    0    0  503  502  0.00000000000E+00  0.00000000000E+00  0.11658963404E+04  0.11658963404E+04  0.00000000000E+00 0. -1.
         21   -1    0    0  501  503 -0.00000000000E+00 -0.00000000000E+00 -0.23253910308E+03  0.23253910308E+03  0.00000000000E+00 0. -1.
    9000007    1    1    2  501    0 -0.48048695751E+02 -0.57009056389E+02  0.30384273515E+02  0.40802195254E+03  0.40000000000E+03 0. -1.
   -9000007    1    1    2    0  502  0.48048695751E+02  0.57009056389E+02  0.90297296383E+03  0.99041349097E+03  0.40000000000E+03 0. -1.
<mgrwt>
<rscale>  2 0.40688906E+03</rscale>
<asrwt>0</asrwt>
<pdfrwt beam="1">  1       21 0.17936866E+00 0.40688906E+03</pdfrwt>
<pdfrwt beam="2">  1       21 0.35775247E-01 0.40688906E+03</pdfrwt>
<totfact> 0.11885544E+03</totfact>
</mgrwt>
</event>
<event>
 4    1  0.4690138E-002  0.4115349E+03  0.7818608E-02  0.1039857E+00
         21   -1    0    0  501  502  0.00000000000E+00  0.00000000000E+00  0.37359212947E+03  0.37359212947E+03  0.00000000000E+00 0. -1.
         21   -1    0    0  502  503 -0.00000000000E+00 -0.00000000000E+00 -0.45423288374E+03  0.45423288374E+03  0.00000000000E+00 0. -1.
    9000007    1    1    2  501    0 -0.96752113729E+02  0.43155647812E-01 -0.21879008441E+02  0.41211608120E+03  0.40000000000E+03 0.  1.
   -9000007    1    1    2    0  503  0.96752113729E+02 -0.43155647812E-01 -0.58761745831E+02  0.41570893200E+03  0.40000000000E+03 0.  1.
<mgrwt>
<rscale>  2 0.41153490E+03</rscale>
<asrwt>0</asrwt>
<pdfrwt beam="1">  1       21 0.57475712E-01 0.41153490E+03</pdfrwt>
<pdfrwt beam="2">  1       21 0.69881982E-01 0.41153490E+03</pdfrwt>
<totfact> 0.47049037E+03</totfact>
</mgrwt>
</event>
<event>
 4    1  0.4690138E-002  0.4575723E+03  0.7818608E-02  0.1025488E+00
         21   -1    0    0  501  502  0.00000000000E+00  0.00000000000E+00  0.78444827965E+03  0.78444827965E+03  0.00000000000E+00 0.  1.
         21   -1    0    0  502  503 -0.00000000000E+00 -0.00000000000E+00 -0.26733779006E+03  0.26733779006E+03  0.00000000000E+00 0.  1.
    9000007    1    1    2  501    0  0.21727665374E+03  0.46511058670E+02  0.27973797911E+03  0.53630752353E+03  0.40000000000E+03 0.  1.
   -9000007    1    1    2    0  503 -0.21727665374E+03 -0.46511058670E+02  0.23737251048E+03  0.51547854618E+03  0.40000000000E+03 0.  1.
<mgrwt>
<rscale>  2 0.45757231E+03</rscale>
<asrwt>0</asrwt>
<pdfrwt beam="1">  1       21 0.12068435E+00 0.45757231E+03</pdfrwt>
<pdfrwt beam="2">  1       21 0.41128891E-01 0.45757231E+03</pdfrwt>
<totfact> 0.25563277E+03</totfact>
</mgrwt>
</event>
<event>
 4    1  0.4690138E-002  0.4746147E+03  0.7818608E-02  0.1020626E+00
         21   -1    0    0  501  502  0.00000000000E+00  0.00000000000E+00  0.87389913584E+03  0.87389913584E+03  0.00000000000E+00 0. -1.
         21   -1    0    0  502  503 -0.00000000000E+00 -0.00000000000E+00 -0.28734695169E+03  0.28734695169E+03  0.00000000000E+00 0. -1.
    9000007    1    1    2  501    0  0.18174565783E+03  0.17952056197E+03  0.10697434173E+03  0.48652094107E+03  0.40000000000E+03 0.  1.
   -9000007    1    1    2    0  503 -0.18174565783E+03 -0.17952056197E+03  0.47957784242E+03  0.67472514645E+03  0.40000000000E+03 0.  1.
<mgrwt>
<rscale>  2 0.47461470E+03</rscale>
<asrwt>0</asrwt>
<pdfrwt beam="1">  1       21 0.13444602E+00 0.47461470E+03</pdfrwt>
<pdfrwt beam="2">  1       21 0.44207224E-01 0.47461470E+03</pdfrwt>
<totfact> 0.16534304E+03</totfact>
</mgrwt>
</event>
<event>
 4    1  0.4690138E-002  0.4633718E+03  0.7818608E-02  0.1023808E+00
         21   -1    0    0  503  502  0.00000000000E+00  0.00000000000E+00  0.22561454525E+03  0.22561454525E+03  0.00000000000E+00 0.  1.
         21   -1    0    0  501  503 -0.00000000000E+00 -0.00000000000E+00 -0.16680315052E+04  0.16680315052E+04  0.00000000000E+00 0. -1.
    9000007    1    1    2  501    0  0.93634043889E+02  0.21435040943E+03 -0.13416902029E+04  0.14194527230E+04  0.40000000000E+03 0. -1.
   -9000007    1    1    2    0  502 -0.93634043889E+02 -0.21435040943E+03 -0.10072675699E+03  0.47419332742E+03  0.40000000000E+03 0.  1.
<mgrwt>
<rscale>  2 0.46337181E+03</rscale>
<asrwt>0</asrwt>
<pdfrwt beam="1">  1       21 0.34709930E-01 0.46337181E+03</pdfrwt>
<pdfrwt beam="2">  1       21 0.25662023E+00 0.46337181E+03</pdfrwt>
<totfact> 0.38884590E+02</totfact>
</mgrwt>
</event>
<event>
 4    1  0.4690138E-002  0.4077370E+03  0.7818608E-02  0.1041133E+00
         21   -1    0    0  503  502  0.00000000000E+00  0.00000000000E+00  0.10235556529E+04  0.10235556529E+04  0.00000000000E+00 0. -1.
         21   -1    0    0  501  503 -0.00000000000E+00 -0.00000000000E+00 -0.22620956033E+03  0.22620956033E+03  0.00000000000E+00 0. -1.
    9000007    1    1    2  501    0  0.66723441967E+02 -0.42396661887E+02  0.66850540908E+02  0.41318094035E+03  0.40000000000E+03 0. -1.
   -9000007    1    1    2    0  502 -0.66723441967E+02  0.42396661887E+02  0.73049555170E+03  0.83658427292E+03  0.40000000000E+03 0. -1.
<mgrwt>
<rscale>  2 0.40773704E+03</rscale>
<asrwt>0</asrwt>
<pdfrwt beam="1">  1       21 0.15747010E+00 0.40773704E+03</pdfrwt>
<pdfrwt beam="2">  1       21 0.34801471E-01 0.40773704E+03</pdfrwt>
<totfact> 0.18156866E+03</totfact>
</mgrwt>
</event>
<event>
 4    1  0.4690138E-002  0.5424928E+03  0.7818608E-02  0.1003247E+00
         21   -1    0    0  501  502  0.00000000000E+00  0.00000000000E+00  0.47507924565E+03  0.47507924565E+03  0.00000000000E+00 0. -1.
         21   -1    0    0  502  503 -0.00000000000E+00 -0.00000000000E+00 -0.63500680603E+03  0.63500680603E+03  0.00000000000E+00 0.  1.
    9000007    1    1    2  501    0 -0.29991350236E+03 -0.21059516887E+03 -0.16677705768E+03  0.56755001631E+03  0.40000000000E+03 0.  1.
   -9000007    1    1    2    0  503  0.29991350236E+03  0.21059516887E+03  0.68494972949E+01  0.54253603536E+03  0.40000000000E+03 0.  1.
<mgrwt>
<rscale>  2 0.54249280E+03</rscale>
<asrwt>0</asrwt>
<pdfrwt beam="1">  1       21 0.73089115E-01 0.54249280E+03</pdfrwt>
<pdfrwt beam="2">  1       21 0.97693355E-01 0.54249280E+03</pdfrwt>
<totfact> 0.12068129E+03</totfact>
</mgrwt>
</event>
<event>
 4    1  0.4690138E-002  0.5102136E+03  0.7818608E-02  0.1011147E+00
         21   -1    0    0  503  502  0.00000000000E+00  0.00000000000E+00  0.31376024851E+03  0.31376024851E+03  0.00000000000E+00 0.  1.
         21   -1    0    0  501  503 -0.00000000000E+00 -0.00000000000E+00 -0.84436065225E+03  0.84436065225E+03  0.00000000000E+00 0.  1.
    9000007    1    1    2  501    0 -0.21144394579E+03 -0.23581633220E+03 -0.18892353656E+03  0.54406799888E+03  0.40000000000E+03 0.  1.
   -9000007    1    1    2    0  502  0.21144394579E+03  0.23581633220E+03 -0.34167686718E+03  0.61405290188E+03  0.40000000000E+03 0.  1.
<mgrwt>
<rscale>  2 0.51021357E+03</rscale>
<asrwt>0</asrwt>
<pdfrwt beam="1">  1       21 0.48270808E-01 0.51021357E+03</pdfrwt>
<pdfrwt beam="2">  1       21 0.12990164E+00 0.51021357E+03</pdfrwt>
<totfact> 0.14835632E+03</totfact>
</mgrwt>
</event>
<event>
 4    1  0.4690138E-002  0.4738290E+03  0.7818608E-02  0.1020845E+00
         21   -1    0    0  503  502  0.00000000000E+00  0.00000000000E+00  0.33489649354E+03  0.33489649354E+03  0.00000000000E+00 0.  1.
         21   -1    0    0  501  503 -0.00000000000E+00 -0.00000000000E+00 -0.68854977127E+03  0.68854977127E+03  0.00000000000E+00 0.  1.
    9000007    1    1    2  501    0 -0.17312092940E+03  0.18585776467E+03 -0.93740997225E+02  0.48301277358E+03  0.40000000000E+03 0.  1.
   -9000007    1    1    2    0  502  0.17312092940E+03 -0.18585776467E+03 -0.25991228051E+03  0.54043349123E+03  0.40000000000E+03 0.  1.
<mgrwt>
<rscale>  2 0.47382905E+03</rscale>
<asrwt>0</asrwt>
<pdfrwt beam="1">  1       21 0.51522538E-01 0.47382905E+03</pdfrwt>
<pdfrwt beam="2">  1       21 0.10593073E+00 0.47382905E+03</pdfrwt>
<totfact> 0.21918184E+03</totfact>
</mgrwt>
</event>
<event>
 4    1  0.4690138E-002  0.4455505E+03  0.7818608E-02  0.1029057E+00
         21   -1    0    0  501  502  0.00000000000E+00  0.00000000000E+00  0.66012141281E+03  0.66012141281E+03  0.00000000000E+00 0.  1.
         21   -1    0    0  502  503 -0.00000000000E+00 -0.00000000000E+00 -0.43909816999E+03  0.43909816999E+03  0.00000000000E+00 0.  1.
    9000007    1    1    2  501    0 -0.19293210737E+03  0.35950677666E+02  0.41904277881E+03  0.61164703854E+03  0.40000000000E+03 0.  1.
   -9000007    1    1    2    0  503  0.19293210737E+03 -0.35950677666E+02 -0.19801953599E+03  0.48757254426E+03  0.40000000000E+03 0.  1.
<mgrwt>
<rscale>  2 0.44555050E+03</rscale>
<asrwt>0</asrwt>
<pdfrwt beam="1">  1       21 0.10155714E+00 0.44555050E+03</pdfrwt>
<pdfrwt beam="2">  1       21 0.67553565E-01 0.44555050E+03</pdfrwt>
<totfact> 0.13588506E+03</totfact>
</mgrwt>
</event>
<event>
 4    1  0.4690138E-002  0.4381306E+03  0.7818608E-02  0.1031322E+00
         21   -1    0    0  501  502  0.00000000000E+00  0.00000000000E+00  0.19490022372E+03  0.19490022372E+03  0.00000000000E+00 0. -1.
         21   -1    0    0  502  503 -0.00000000000E+00 -0.00000000000E+00 -0.15443376779E+04  0.15443376779E+04  0.00000000000E+00 0. -1.
    9000007    1    1    2  501    0  0.14501572721E+03 -0.10454133216E+03 -0.15132165785E+03  0.46352636970E+03  0.40000000000E+03 0. -1.
   -9000007    1    1    2    0  503 -0.14501572721E+03  0.10454133216E+03 -0.11981157963E+04  0.12757115319E+04  0.40000000000E+03 0. -1.
<mgrwt>
<rscale>  2 0.43813063E+03</rscale>
<asrwt>0</asrwt>
<pdfrwt beam="1">  1       21 0.29984650E-01 0.43813063E+03</pdfrwt>
<pdfrwt beam="2">  1       21 0.23759041E+00 0.43813063E+03</pdfrwt>
<totfact> 0.69210406E+02</totfact>
</mgrwt>
</event>
<event>
 4    1  0.4690138E-002  0.5329768E+03  0.7818608E-02  0.1005513E+00
         21   -1    0    0  501  502  0.00000000000E+00  0.00000000000E+00  0.95374683810E+03  0.95374683810E+03  0.00000000000E+00 0. -1.
         21   -1    0    0  502  503 -0.00000000000E+00 -0.00000000000E+00 -0.33059620723E+03  0.33059620723E+03  0.00000000000E+00 0. -1.
    9000007    1    1    2  501    0 -0.22142956494E+03 -0.27392183962E+03  0.51371288993E+03  0.74024668843E+03  0.40000000000E+03 0. -1.
   -9000007    1    1    2    0  503  0.22142956494E+03  0.27392183962E+03  0.10943774094E+03  0.54409635690E+03  0.40000000000E+03 0. -1.
<mgrwt>
<rscale>  2 0.53297676E+03</rscale>
<asrwt>0</asrwt>
<pdfrwt beam="1">  1       21 0.14673028E+00 0.53297676E+03</pdfrwt>
<pdfrwt beam="2">  1       21 0.50860955E-01 0.53297676E+03</pdfrwt>
<totfact> 0.95246455E+02</totfact>
</mgrwt>
</event>
<event>
 4    1  0.4690138E-002  0.4880263E+03  0.7818608E-02  0.1016952E+00
         21   -1    0    0  501  502  0.00000000000E+00  0.00000000000E+00  0.57392123825E+03  0.57392123825E+03  0.00000000000E+00 0. -1.
         21   -1    0    0  502  503 -0.00000000000E+00 -0.00000000000E+00 -0.68681220428E+03  0.68681220428E+03  0.00000000000E+00 0. -1.
    9000007    1    1    2  501    0 -0.19882584324E+03 -0.19656536680E+03  0.34012410541E+03  0.59485634102E+03  0.40000000000E+03 0. -1.
   -9000007    1    1    2    0  503  0.19882584324E+03  0.19656536680E+03 -0.45301507145E+03  0.66587710152E+03  0.40000000000E+03 0. -1.
<mgrwt>
<rscale>  2 0.48802629E+03</rscale>
<asrwt>0</asrwt>
<pdfrwt beam="1">  1       21 0.88295575E-01 0.48802629E+03</pdfrwt>
<pdfrwt beam="2">  1       21 0.10566342E+00 0.48802629E+03</pdfrwt>
<totfact> 0.65501226E+02</totfact>
</mgrwt>
</event>
<event>
 4    1  0.4690138E-002  0.4247712E+03  0.7818608E-02  0.1035525E+00
         21   -1    0    0  501  502  0.00000000000E+00  0.00000000000E+00  0.47217056921E+03  0.47217056921E+03  0.00000000000E+00 0. -1.
         21   -1    0    0  502  503 -0.00000000000E+00 -0.00000000000E+00 -0.11289107547E+04  0.11289107547E+04  0.00000000000E+00 0. -1.
    9000007    1    1    2  501    0  0.14095758281E+03  0.23696737861E+02  0.32273355321E+03  0.53346745159E+03  0.40000000000E+03 0. -1.
   -9000007    1    1    2    0  503 -0.14095758281E+03 -0.23696737861E+02 -0.97947373869E+03  0.10676138723E+04  0.40000000000E+03 0. -1.
<mgrwt>
<rscale>  2 0.42477120E+03</rscale>
<asrwt>0</asrwt>
<pdfrwt beam="1">  1       21 0.72641627E-01 0.42477120E+03</pdfrwt>
<pdfrwt beam="2">  1       21 0.17367857E+00 0.42477120E+03</pdfrwt>
<totfact> 0.28495540E+02</totfact>
</mgrwt>
</event>
<event>
 4    1  0.4690138E-002  0.7155909E+03  0.7818608E-02  0.9690935E-01
         21   -1    0    0  503  502  0.00000000000E+00  0.00000000000E+00  0.78907076528E+03  0.78907076528E+03  0.00000000000E+00 0.  1.
         21   -1    0    0  501  503 -0.00000000000E+00 -0.00000000000E+00 -0.14254450384E+04  0.14254450384E+04  0.00000000000E+00 0.  1.
    9000007    1    1    2  501    0  0.47580687917E+03 -0.35451123378E+03 -0.11354125335E+04  0.13420998556E+04  0.40000000000E+03 0.  1.
   -9000007    1    1    2    0  502 -0.47580687917E+03  0.35451123378E+03  0.49903826039E+03  0.87241594808E+03  0.40000000000E+03 0.  1.
<mgrwt>
<rscale>  2 0.71559095E+03</rscale>
<asrwt>0</asrwt>
<pdfrwt beam="1">  1       21 0.12139550E+00 0.71559095E+03</pdfrwt>
<pdfrwt beam="2">  1       21 0.21929923E+00 0.71559095E+03</pdfrwt>
<totfact> 0.35448972E+01</totfact>
</mgrwt>
</event>
<event>
 4    1  0.4690138E-002  0.6724245E+03  0.7818608E-02  0.9765588E-01
         21   -1    0    0  501  502  0.00000000000E+00  0.00000000000E+00  0.55946113435E+03  0.55946113435E+03  0.00000000000E+00 0. -1.
         21   -1    0    0  502  503 -0.00000000000E+00 -0.00000000000E+00 -0.81321253506E+03  0.81321253506E+03  0.00000000000E+00 0. -1.
    9000007    1    1    2  501    0  0.54033850576E+03  0.13747785071E+02 -0.72974024517E+02  0.67637261229E+03  0.40000000000E+03 0. -1.
   -9000007    1    1    2    0  503 -0.54033850576E+03 -0.13747785071E+02 -0.18077737620E+03  0.69630105712E+03  0.40000000000E+03 0. -1.
<mgrwt>
<rscale>  2 0.67242450E+03</rscale>
<asrwt>0</asrwt>
<pdfrwt beam="1">  1       21 0.86070944E-01 0.67242450E+03</pdfrwt>
<pdfrwt beam="2">  1       21 0.12510962E+00 0.67242450E+03</pdfrwt>
<totfact> 0.42609752E+02</totfact>
</mgrwt>
</event>
<event>
 4    1  0.4690138E-002  0.4749415E+03  0.7818608E-02  0.1020535E+00
         21   -1    0    0  503  502  0.00000000000E+00  0.00000000000E+00  0.58484299386E+03  0.58484299386E+03  0.00000000000E+00 0.  1.
         21   -1    0    0  501  503 -0.00000000000E+00 -0.00000000000E+00 -0.50913456400E+03  0.50913456400E+03  0.00000000000E+00 0.  1.
    9000007    1    1    2  501    0  0.14350597773E+02  0.25566284308E+03  0.30719002340E+03  0.56562809289E+03  0.40000000000E+03 0.  1.
   -9000007    1    1    2    0  502 -0.14350597773E+02 -0.25566284308E+03 -0.23148159354E+03  0.52834946497E+03  0.40000000000E+03 0.  1.
<mgrwt>
<rscale>  2 0.47494150E+03</rscale>
<asrwt>0</asrwt>
<pdfrwt beam="1">  1       21 0.89975845E-01 0.47494150E+03</pdfrwt>
<pdfrwt beam="2">  1       21 0.78328394E-01 0.47494150E+03</pdfrwt>
<totfact> 0.12844261E+03</totfact>
</mgrwt>
</event>
<event>
 4    1  0.4690138E-002  0.4175306E+03  0.7818608E-02  0.1037873E+00
         21   -1    0    0  503  502  0.00000000000E+00  0.00000000000E+00  0.23379342113E+03  0.23379342113E+03  0.00000000000E+00 0.  1.
         21   -1    0    0  501  503 -0.00000000000E+00 -0.00000000000E+00 -0.23008986882E+04  0.23008986882E+04  0.00000000000E+00 0.  1.
    9000007    1    1    2  501    0 -0.97228951701E+02 -0.69845210732E+02 -0.20754960777E+04  0.21170771811E+04  0.40000000000E+03 0.  1.
   -9000007    1    1    2    0  502  0.97228951701E+02  0.69845210732E+02  0.83908106315E+01  0.41761492815E+03  0.40000000000E+03 0.  1.
<mgrwt>
<rscale>  2 0.41753062E+03</rscale>
<asrwt>0</asrwt>
<pdfrwt beam="1">  1       21 0.35968217E-01 0.41753062E+03</pdfrwt>
<pdfrwt beam="2">  1       21 0.35398443E+00 0.41753062E+03</pdfrwt>
<totfact> 0.95975729E+01</totfact>
</mgrwt>
</event>
<event>
 4    1  0.4690138E-002  0.4898040E+03  0.7818608E-02  0.1016475E+00
         21   -1    0    0  501  502  0.00000000000E+00  0.00000000000E+00  0.31174843552E+03  0.31174843552E+03  0.00000000000E+00 0. -1.
         21   -1    0    0  502  503 -0.00000000000E+00 -0.00000000000E+00 -0.87908722407E+03  0.87908722407E+03  0.00000000000E+00 0. -1.
    9000007    1    1    2  501    0 -0.17167460258E+03 -0.22457917187E+03 -0.73497702318E+02  0.49528767989E+03  0.40000000000E+03 0. -1.
   -9000007    1    1    2    0  503  0.17167460258E+03  0.22457917187E+03 -0.49384108624E+03  0.69554797970E+03  0.40000000000E+03 0. -1.
<mgrwt>
<rscale>  2 0.48980402E+03</rscale>
<asrwt>0</asrwt>
<pdfrwt beam="1">  1       21 0.47961298E-01 0.48980402E+03</pdfrwt>
<pdfrwt beam="2">  1       21 0.13524419E+00 0.48980402E+03</pdfrwt>
<totfact> 0.13634522E+03</totfact>
</mgrwt>
</event>
<event>
 4    1  0.4690138E-002  0.5362235E+03  0.7818608E-02  0.1004734E+00
         21   -1    0    0  501  502  0.00000000000E+00  0.00000000000E+00  0.48976222259E+03  0.48976222259E+03  0.00000000000E+00 0. -1.
         21   -1    0    0  502  503 -0.00000000000E+00 -0.00000000000E+00 -0.59328541173E+03  0.59328541173E+03  0.00000000000E+00 0. -1.
    9000007    1    1    2  501    0  0.35645510291E+03  0.21803449676E+02  0.35657857323E+01  0.53623534538E+03  0.40000000000E+03 0. -1.
   -9000007    1    1    2    0  503 -0.35645510291E+03 -0.21803449676E+02 -0.10708897488E+03  0.54681228895E+03  0.40000000000E+03 0. -1.
<mgrwt>
<rscale>  2 0.53622349E+03</rscale>
<asrwt>0</asrwt>
<pdfrwt beam="1">  1       21 0.75348035E-01 0.53622349E+03</pdfrwt>
<pdfrwt beam="2">  1       21 0.91274678E-01 0.53622349E+03</pdfrwt>
<totfact> 0.13282808E+03</totfact>
</mgrwt>
</event>
<event>
 4    1  0.4690138E-002  0.6213762E+03  0.7818608E-02  0.9862024E-01
         21   -1    0    0  501  502  0.00000000000E+00  0.00000000000E+00  0.71611785689E+03  0.71611785689E+03  0.00000000000E+00 0. -1.
         21   -1    0    0  502  503 -0.00000000000E+00 -0.00000000000E+00 -0.14111077818E+04  0.14111077818E+04  0.00000000000E+00 0.  1.
    9000007    1    1    2  501    0  0.46335238958E+03  0.10683128543E+03  0.48858253036E+03  0.79045635518E+03  0.40000000000E+03 0. -1.
   -9000007    1    1    2    0  503 -0.46335238958E+03 -0.10683128543E+03 -0.11835724553E+04  0.13367692835E+04  0.40000000000E+03 0.  1.
<mgrwt>
<rscale>  2 0.62137618E+03</rscale>
<asrwt>0</asrwt>
<pdfrwt beam="1">  1       21 0.11017198E+00 0.62137618E+03</pdfrwt>
<pdfrwt beam="2">  1       21 0.21709350E+00 0.62137618E+03</pdfrwt>
<totfact> 0.48730490E+01</totfact>
</mgrwt>
</event>
<event>
 4    1  0.4690138E-002  0.4519990E+03  0.7818608E-02  0.1027128E+00
         21   -1    0    0  503  502  0.00000000000E+00  0.00000000000E+00  0.37778013945E+03  0.37778013945E+03  0.00000000000E+00 0. -1.
         21   -1    0    0  501  503 -0.00000000000E+00 -0.00000000000E+00 -0.99889193154E+03  0.99889193154E+03  0.00000000000E+00 0. -1.
    9000007    1    1    2  501    0 -0.20970433173E+03 -0.18088012731E+02 -0.77669774815E+03  0.89864479909E+03  0.40000000000E+03 0. -1.
   -9000007    1    1    2    0  502  0.20970433173E+03  0.18088012731E+02  0.15558595607E+03  0.47802727190E+03  0.40000000000E+03 0. -1.
<mgrwt>
<rscale>  2 0.45199899E+03</rscale>
<asrwt>0</asrwt>
<pdfrwt beam="1">  1       21 0.58120021E-01 0.45199899E+03</pdfrwt>
<pdfrwt beam="2">  1       21 0.15367568E+00 0.45199899E+03</pdfrwt>
<totfact> 0.65033303E+02</totfact>
</mgrwt>
</event>
<event>
 4    1  0.4690138E-002  0.4050882E+03  0.7818608E-02  0.1042032E+00
         21   -1    0    0  501  502  0.00000000000E+00  0.00000000000E+00  0.31904203889E+03  0.31904203889E+03  0.00000000000E+00 0.  1.
         21   -1    0    0  502  503 -0.00000000000E+00 -0.00000000000E+00 -0.51674511679E+03  0.51674511679E+03  0.00000000000E+00 0.  1.
    9000007    1    1    2  501    0 -0.41303634637E+02 -0.48892687690E+02 -0.12735394712E+03  0.42463574154E+03  0.40000000000E+03 0. -1.
   -9000007    1    1    2    0  503  0.41303634637E+02  0.48892687690E+02 -0.70349130778E+02  0.41115141413E+03  0.40000000000E+03 0. -1.
<mgrwt>
<rscale>  2 0.40508824E+03</rscale>
<asrwt>0</asrwt>
<pdfrwt beam="1">  1       21 0.49083390E-01 0.40508824E+03</pdfrwt>
<pdfrwt beam="2">  1       21 0.79499249E-01 0.40508824E+03</pdfrwt>
<totfact> 0.49334113E+03</totfact>
</mgrwt>
</event>
<event>
 4    1  0.4690138E-002  0.4515140E+03  0.7818608E-02  0.1027272E+00
         21   -1    0    0  501  502  0.00000000000E+00  0.00000000000E+00  0.38984730905E+03  0.38984730905E+03  0.00000000000E+00 0.  1.
         21   -1    0    0  502  503 -0.00000000000E+00 -0.00000000000E+00 -0.16121873792E+04  0.16121873792E+04  0.00000000000E+00 0.  1.
    9000007    1    1    2  501    0  0.20156187083E+03  0.56900529863E+02  0.21163714734E+03  0.49865332668E+03  0.40000000000E+03 0.  1.
   -9000007    1    1    2    0  503 -0.20156187083E+03 -0.56900529863E+02 -0.14339772175E+04  0.15033813616E+04  0.40000000000E+03 0.  1.
<mgrwt>
<rscale>  2 0.45151396E+03</rscale>
<asrwt>0</asrwt>
<pdfrwt beam="1">  1       21 0.59976509E-01 0.45151396E+03</pdfrwt>
<pdfrwt beam="2">  1       21 0.24802883E+00 0.45151396E+03</pdfrwt>
<totfact> 0.14000498E+02</totfact>
</mgrwt>
</event>
<event>
 4    1  0.4690138E-002  0.4076048E+03  0.7818608E-02  0.1041178E+00
         21   -1    0    0  501  502  0.00000000000E+00  0.00000000000E+00  0.50693109733E+03  0.50693109733E+03  0.00000000000E+00 0. -1.
         21   -1    0    0  502  503 -0.00000000000E+00 -0.00000000000E+00 -0.55174413785E+03  0.55174413785E+03  0.00000000000E+00 0. -1.
    9000007    1    1    2  501    0 -0.78330157451E+02 -0.24688326888E+01  0.31487434474E+03  0.51506073591E+03  0.40000000000E+03 0. -1.
   -9000007    1    1    2    0  503  0.78330157451E+02  0.24688326888E+01 -0.35968738526E+03  0.54361449927E+03  0.40000000000E+03 0. -1.
<mgrwt>
<rscale>  2 0.40760484E+03</rscale>
<asrwt>0</asrwt>
<pdfrwt beam="1">  1       21 0.77989400E-01 0.40760484E+03</pdfrwt>
<pdfrwt beam="2">  1       21 0.84883713E-01 0.40760484E+03</pdfrwt>
<totfact> 0.15287150E+03</totfact>
</mgrwt>
</event>
<event>
 4    1  0.4690138E-002  0.5268890E+03  0.7818608E-02  0.1006989E+00
         21   -1    0    0  503  502  0.00000000000E+00  0.00000000000E+00  0.19444344917E+04  0.19444344917E+04  0.00000000000E+00 0.  1.
         21   -1    0    0  501  503 -0.00000000000E+00 -0.00000000000E+00 -0.29754177744E+03  0.29754177744E+03  0.00000000000E+00 0.  1.
    9000007    1    1    2  501    0  0.24325048130E+03 -0.24174615528E+03  0.14966408960E+02  0.52710150222E+03  0.40000000000E+03 0.  1.
   -9000007    1    1    2    0  502 -0.24325048130E+03  0.24174615528E+03  0.16319263053E+04  0.17148747669E+04  0.40000000000E+03 0.  1.
<mgrwt>
<rscale>  2 0.52688898E+03</rscale>
<asrwt>0</asrwt>
<pdfrwt beam="1">  1       21 0.29914376E+00 0.52688898E+03</pdfrwt>
<pdfrwt beam="2">  1       21 0.45775659E-01 0.52688898E+03</pdfrwt>
<totfact> 0.11723338E+02</totfact>
</mgrwt>
</event>
<event>
 4    1  0.4690138E-002  0.4498533E+03  0.7818608E-02  0.1027766E+00
         21   -1    0    0  503  502  0.00000000000E+00  0.00000000000E+00  0.63027321632E+03  0.63027321632E+03  0.00000000000E+00 0.  1.
         21   -1    0    0  501  503 -0.00000000000E+00 -0.00000000000E+00 -0.10069779416E+04  0.10069779416E+04  0.00000000000E+00 0.  1.
    9000007    1    1    2  501    0  0.83039399441E+02 -0.18834119515E+03 -0.86397652128E+03  0.97407565259E+03  0.40000000000E+03 0.  1.
   -9000007    1    1    2    0  502 -0.83039399441E+02  0.18834119515E+03  0.48727179602E+03  0.66317550531E+03  0.40000000000E+03 0.  1.
<mgrwt>
<rscale>  2 0.44985325E+03</rscale>
<asrwt>0</asrwt>
<pdfrwt beam="1">  1       21 0.96965111E-01 0.44985325E+03</pdfrwt>
<pdfrwt beam="2">  1       21 0.15491968E+00 0.44985325E+03</pdfrwt>
<totfact> 0.19762065E+02</totfact>
</mgrwt>
</event>
<event>
 4    1  0.4690138E-002  0.4450707E+03  0.7818608E-02  0.1029202E+00
         21   -1    0    0  503  502  0.00000000000E+00  0.00000000000E+00  0.22799435796E+03  0.22799435796E+03  0.00000000000E+00 0.  1.
         21   -1    0    0  501  503 -0.00000000000E+00 -0.00000000000E+00 -0.11526649410E+04  0.11526649410E+04  0.00000000000E+00 0.  1.
    9000007    1    1    2  501    0  0.18159711063E+03 -0.71487357658E+02 -0.80489730742E+03  0.91975411301E+03  0.40000000000E+03 0. -1.
   -9000007    1    1    2    0  502 -0.18159711063E+03  0.71487357658E+02 -0.11977327563E+03  0.46090518597E+03  0.40000000000E+03 0. -1.
<mgrwt>
<rscale>  2 0.44507073E+03</rscale>
<asrwt>0</asrwt>
<pdfrwt beam="1">  1       21 0.35076055E-01 0.44507073E+03</pdfrwt>
<pdfrwt beam="2">  1       21 0.17733307E+00 0.44507073E+03</pdfrwt>
<totfact> 0.12564755E+03</totfact>
</mgrwt>
</event>
<event>
 4    1  0.4690138E-002  0.4075945E+03  0.7818608E-02  0.1041181E+00
         21   -1    0    0  503  502  0.00000000000E+00  0.00000000000E+00  0.21564520242E+04  0.21564520242E+04  0.00000000000E+00 0. -1.
         21   -1    0    0  501  503 -0.00000000000E+00 -0.00000000000E+00 -0.14479132651E+03  0.14479132651E+03  0.00000000000E+00 0. -1.
    9000007    1    1    2  501    0  0.67952063797E+02  0.38932940867E+02  0.21874850895E+03  0.46258422695E+03  0.40000000000E+03 0. -1.
   -9000007    1    1    2    0  502 -0.67952063797E+02 -0.38932940867E+02  0.17929121887E+04  0.18386591238E+04  0.40000000000E+03 0. -1.
<mgrwt>
<rscale>  2 0.40759448E+03</rscale>
<asrwt>0</asrwt>
<pdfrwt beam="1">  1       21 0.33176183E+00 0.40759448E+03</pdfrwt>
<pdfrwt beam="2">  1       21 0.22275590E-01 0.40759448E+03</pdfrwt>
<totfact> 0.33928646E+02</totfact>
</mgrwt>
</event>
<event>
 4    1  0.4690138E-002  0.4743245E+03  0.7818608E-02  0.1020707E+00
         21   -1    0    0  503  502  0.00000000000E+00  0.00000000000E+00  0.78159015809E+03  0.78159015809E+03  0.00000000000E+00 0.  1.
         21   -1    0    0  501  503 -0.00000000000E+00 -0.00000000000E+00 -0.36835214868E+03  0.36835214868E+03  0.00000000000E+00 0. -1.
    9000007    1    1    2  501    0 -0.20161471327E+03  0.15599742522E+03 -0.62167812814E+02  0.47838115163E+03  0.40000000000E+03 0. -1.
   -9000007    1    1    2    0  502  0.20161471327E+03 -0.15599742522E+03  0.47540582223E+03  0.67156115514E+03  0.40000000000E+03 0.  1.
<mgrwt>
<rscale>  2 0.47432446E+03</rscale>
<asrwt>0</asrwt>
<pdfrwt beam="1">  1       21 0.12024464E+00 0.47432446E+03</pdfrwt>
<pdfrwt beam="2">  1       21 0.56669561E-01 0.47432446E+03</pdfrwt>
<totfact> 0.13001720E+03</totfact>
</mgrwt>
</event>
<event>
 4    1  0.4690138E-002  0.6308391E+03  0.7818608E-02  0.9843413E-01
         21   -1    0    0  501  502  0.00000000000E+00  0.00000000000E+00  0.22836099494E+03  0.22836099494E+03  0.00000000000E+00 0. -1.
         21   -1    0    0  502  503 -0.00000000000E+00 -0.00000000000E+00 -0.17583806505E+04  0.17583806505E+04  0.00000000000E+00 0.  1.
    9000007    1    1    2  501    0 -0.10940002499E+03  0.47538357477E+03 -0.85890619571E+03  0.10656818295E+04  0.40000000000E+03 0.  1.
   -9000007    1    1    2    0  503  0.10940002499E+03 -0.47538357477E+03 -0.67111345989E+03  0.92105981601E+03  0.40000000000E+03 0. -1.
<mgrwt>
<rscale>  2 0.63083905E+03</rscale>
<asrwt>0</asrwt>
<pdfrwt beam="1">  1       21 0.35132462E-01 0.63083905E+03</pdfrwt>
<pdfrwt beam="2">  1       21 0.27052009E+00 0.63083905E+03</pdfrwt>
<totfact> 0.28897520E+02</totfact>
</mgrwt>
</event>
<event>
 4    1  0.4690138E-002  0.4936781E+03  0.7818608E-02  0.1015442E+00
         21   -1    0    0  501  502  0.00000000000E+00  0.00000000000E+00  0.63414517529E+03  0.63414517529E+03  0.00000000000E+00 0. -1.
         21   -1    0    0  502  503 -0.00000000000E+00 -0.00000000000E+00 -0.39582642936E+03  0.39582642936E+03  0.00000000000E+00 0. -1.
    9000007    1    1    2  501    0 -0.48577186241E+02  0.28523381442E+03  0.20694269237E+03  0.53529744053E+03  0.40000000000E+03 0. -1.
   -9000007    1    1    2    0  503  0.48577186241E+02 -0.28523381442E+03  0.31376053555E+02  0.49467416412E+03  0.40000000000E+03 0. -1.
<mgrwt>
<rscale>  2 0.49367811E+03</rscale>
<asrwt>0</asrwt>
<pdfrwt beam="1">  1       21 0.97560796E-01 0.49367811E+03</pdfrwt>
<pdfrwt beam="2">  1       21 0.60896374E-01 0.49367811E+03</pdfrwt>
<totfact> 0.18522476E+03</totfact>
</mgrwt>
</event>
<event>
 4    1  0.4690138E-002  0.4272482E+03  0.7818608E-02  0.1034733E+00
         21   -1    0    0  501  502  0.00000000000E+00  0.00000000000E+00  0.42194870248E+03  0.42194870248E+03  0.00000000000E+00 0. -1.
         21   -1    0    0  502  503 -0.00000000000E+00 -0.00000000000E+00 -0.81286961658E+03  0.81286961658E+03  0.00000000000E+00 0. -1.
    9000007    1    1    2  501    0 -0.11655360862E+03 -0.94637799213E+02  0.22681928833E+03  0.48372310910E+03  0.40000000000E+03 0. -1.
   -9000007    1    1    2    0  503  0.11655360862E+03  0.94637799213E+02 -0.61774020243E+03  0.75109520996E+03  0.40000000000E+03 0. -1.
<mgrwt>
<rscale>  2 0.42724824E+03</rscale>
<asrwt>0</asrwt>
<pdfrwt beam="1">  1       21 0.64915186E-01 0.42724824E+03</pdfrwt>
<pdfrwt beam="2">  1       21 0.12505686E+00 0.42724824E+03</pdfrwt>
<totfact> 0.88979308E+02</totfact>
</mgrwt>
</event>
<event>
 4    1  0.4690138E-002  0.4620401E+03  0.7818608E-02  0.1024191E+00
         21   -1    0    0  503  502  0.00000000000E+00  0.00000000000E+00  0.15506547081E+03  0.15506547081E+03  0.00000000000E+00 0. -1.
         21   -1    0    0  501  503 -0.00000000000E+00 -0.00000000000E+00 -0.28456670441E+04  0.28456670441E+04  0.00000000000E+00 0. -1.
    9000007    1    1    2  501    0 -0.11332929723E+03 -0.20158752944E+03 -0.24232764546E+04  0.24669312591E+04  0.40000000000E+03 0. -1.
   -9000007    1    1    2    0  502  0.11332929723E+03  0.20158752944E+03 -0.26732511869E+03  0.53380125582E+03  0.40000000000E+03 0. -1.
<mgrwt>
<rscale>  2 0.46204011E+03</rscale>
<asrwt>0</asrwt>
<pdfrwt beam="1">  1       21 0.23856227E-01 0.46204011E+03</pdfrwt>
<pdfrwt beam="2">  1       21 0.43779492E+00 0.46204011E+03</pdfrwt>
<totfact> 0.61037053E+01</totfact>
</mgrwt>
</event>
<event>
 4    1  0.4690138E-002  0.5251336E+03  0.7818608E-02  0.1007419E+00
         21   -1    0    0  501  502  0.00000000000E+00  0.00000000000E+00  0.15153211754E+04  0.15153211754E+04  0.00000000000E+00 0. -1.
         21   -1    0    0  502  503 -0.00000000000E+00 -0.00000000000E+00 -0.21744103991E+03  0.21744103991E+03  0.00000000000E+00 0.  1.
    9000007    1    1    2  501    0 -0.27323632235E+02  0.33914413527E+03  0.99879253469E+03  0.11284289312E+04  0.40000000000E+03 0.  1.
   -9000007    1    1    2    0  503  0.27323632235E+02 -0.33914413527E+03  0.29908760081E+03  0.60433328414E+03  0.40000000000E+03 0.  1.
<mgrwt>
<rscale>  2 0.52513363E+03</rscale>
<asrwt>0</asrwt>
<pdfrwt beam="1">  1       21 0.23312633E+00 0.52513363E+03</pdfrwt>
<pdfrwt beam="2">  1       21 0.33452469E-01 0.52513363E+03</pdfrwt>
<totfact> 0.56898430E+02</totfact>
</mgrwt>
</event>
<event>
 4    1  0.4690138E-002  0.4266201E+03  0.7818608E-02  0.1034933E+00
         21   -1    0    0  501  502  0.00000000000E+00  0.00000000000E+00  0.12404598328E+04  0.12404598328E+04  0.00000000000E+00 0.  1.
         21   -1    0    0  502  503 -0.00000000000E+00 -0.00000000000E+00 -0.58542543792E+03  0.58542543792E+03  0.00000000000E+00 0.  1.
    9000007    1    1    2  501    0 -0.10419047942E+03  0.10558900950E+03  0.11178180249E+04  0.11964622149E+04  0.40000000000E+03 0.  1.
   -9000007    1    1    2    0  503  0.10419047942E+03 -0.10558900950E+03 -0.46278363004E+03  0.62942305579E+03  0.40000000000E+03 0.  1.
<mgrwt>
<rscale>  2 0.42662008E+03</rscale>
<asrwt>0</asrwt>
<pdfrwt beam="1">  1       21 0.19083997E+00 0.42662008E+03</pdfrwt>
<pdfrwt beam="2">  1       21 0.90065452E-01 0.42662008E+03</pdfrwt>
<totfact> 0.13134064E+02</totfact>
</mgrwt>
</event>
<event>
 4    1  0.4690138E-002  0.4475713E+03  0.7818608E-02  0.1028449E+00
         21   -1    0    0  503  502  0.00000000000E+00  0.00000000000E+00  0.71358329404E+03  0.71358329404E+03  0.00000000000E+00 0. -1.
         21   -1    0    0  501  503 -0.00000000000E+00 -0.00000000000E+00 -0.68537294496E+03  0.68537294496E+03  0.00000000000E+00 0. -1.
    9000007    1    1    2  501    0 -0.14507039511E+03  0.13883309700E+03 -0.52335933619E+03  0.68863999530E+03  0.40000000000E+03 0. -1.
   -9000007    1    1    2    0  502  0.14507039511E+03 -0.13883309700E+03  0.55156968526E+03  0.71031624369E+03  0.40000000000E+03 0. -1.
<mgrwt>
<rscale>  2 0.44757128E+03</rscale>
<asrwt>0</asrwt>
<pdfrwt beam="1">  1       21 0.10978205E+00 0.44757128E+03</pdfrwt>
<pdfrwt beam="2">  1       21 0.10544199E+00 0.44757128E+03</pdfrwt>
<totfact> 0.39533270E+02</totfact>
</mgrwt>
</event>
<event>
 4    1  0.4690138E-002  0.4313421E+03  0.7818608E-02  0.1033437E+00
         21   -1    0    0  501  502  0.00000000000E+00  0.00000000000E+00  0.60925844739E+03  0.60925844739E+03  0.00000000000E+00 0. -1.
         21   -1    0    0  502  503 -0.00000000000E+00 -0.00000000000E+00 -0.34854970301E+03  0.34854970301E+03  0.00000000000E+00 0.  1.
    9000007    1    1    2  501    0 -0.10709464377E+01  0.16141526668E+03  0.29889321318E+03  0.52477918035E+03  0.40000000000E+03 0. -1.
   -9000007    1    1    2    0  503  0.10709464377E+01 -0.16141526668E+03 -0.38184468798E+02  0.43302897005E+03  0.40000000000E+03 0.  1.
<mgrwt>
<rscale>  2 0.43134213E+03</rscale>
<asrwt>0</asrwt>
<pdfrwt beam="1">  1       21 0.93732069E-01 0.43134213E+03</pdfrwt>
<pdfrwt beam="2">  1       21 0.53623031E-01 0.43134213E+03</pdfrwt>
<totfact> 0.27503325E+03</totfact>
</mgrwt>
</event>
<event>
 4    1  0.4690138E-002  0.4037768E+03  0.7818608E-02  0.1042480E+00
         21   -1    0    0  501  502  0.00000000000E+00  0.00000000000E+00  0.17215062135E+03  0.17215062135E+03  0.00000000000E+00 0. -1.
         21   -1    0    0  502  503 -0.00000000000E+00 -0.00000000000E+00 -0.94848941519E+03  0.94848941519E+03  0.00000000000E+00 0.  1.
    9000007    1    1    2  501    0  0.38981618821E+02 -0.38937671004E+02 -0.36636184452E+03  0.54521253649E+03  0.40000000000E+03 0. -1.
   -9000007    1    1    2    0  503 -0.38981618821E+02  0.38937671004E+02 -0.40997694933E+03  0.57542750005E+03  0.40000000000E+03 0. -1.
<mgrwt>
<rscale>  2 0.40377681E+03</rscale>
<asrwt>0</asrwt>
<pdfrwt beam="1">  1       21 0.26484710E-01 0.40377681E+03</pdfrwt>
<pdfrwt beam="2">  1       21 0.14592145E+00 0.40377681E+03</pdfrwt>
<totfact> 0.38474287E+03</totfact>
</mgrwt>
</event>
<event>
 4    1  0.4690138E-002  0.5392930E+03  0.7818608E-02  0.1004003E+00
         21   -1    0    0  501  502  0.00000000000E+00  0.00000000000E+00  0.86576258578E+03  0.86576258578E+03  0.00000000000E+00 0.  1.
         21   -1    0    0  502  503 -0.00000000000E+00 -0.00000000000E+00 -0.34727224824E+03  0.34727224824E+03  0.00000000000E+00 0. -1.
    9000007    1    1    2  501    0 -0.31824892870E+03 -0.17191428742E+03  0.14964037178E+03  0.55966878035E+03  0.40000000000E+03 0.  1.
   -9000007    1    1    2    0  503  0.31824892870E+03  0.17191428742E+03  0.36884996576E+03  0.65336605366E+03  0.40000000000E+03 0.  1.
<mgrwt>
<rscale>  2 0.53929297E+03</rscale>
<asrwt>0</asrwt>
<pdfrwt beam="1">  1       21 0.13319424E+00 0.53929297E+03</pdfrwt>
<pdfrwt beam="2">  1       21 0.53426500E-01 0.53929297E+03</pdfrwt>
<totfact> 0.11072759E+03</totfact>
</mgrwt>
</event>
<event>
 4    1  0.4690138E-002  0.5701276E+03  0.7818608E-02  0.9969396E-01
         21   -1    0    0  501  502  0.00000000000E+00  0.00000000000E+00  0.14970944176E+03  0.14970944176E+03  0.00000000000E+00 0.  1.
         21   -1    0    0  502  503 -0.00000000000E+00 -0.00000000000E+00 -0.22120632035E+04  0.22120632035E+04  0.00000000000E+00 0. -1.
    9000007    1    1    2  501    0 -0.38738235103E+03  0.12239444929E+03 -0.11917249744E+04  0.13210805810E+04  0.40000000000E+03 0. -1.
   -9000007    1    1    2    0  503  0.38738235103E+03 -0.12239444929E+03 -0.87062878741E+03  0.10406920642E+04  0.40000000000E+03 0.  1.
<mgrwt>
<rscale>  2 0.57012761E+03</rscale>
<asrwt>0</asrwt>
<pdfrwt beam="1">  1       21 0.23032221E-01 0.57012761E+03</pdfrwt>
<pdfrwt beam="2">  1       21 0.34031742E+00 0.57012761E+03</pdfrwt>
<totfact> 0.25713745E+02</totfact>
</mgrwt>
</event>
<event>
 4    1  0.4690138E-002  0.4198126E+03  0.7818608E-02  0.1037127E+00
         21   -1    0    0  501  502  0.00000000000E+00  0.00000000000E+00  0.78165461252E+03  0.78165461252E+03  0.00000000000E+00 0.  1.
         21   -1    0    0  502  503 -0.00000000000E+00 -0.00000000000E+00 -0.18439954300E+04  0.18439954300E+04  0.00000000000E+00 0.  1.
    9000007    1    1    2  501    0  0.12696384909E+03 -0.11081969917E+02  0.69877597575E+03  0.81518739767E+03  0.40000000000E+03 0.  1.
   -9000007    1    1    2    0  503 -0.12696384909E+03  0.11081969917E+02 -0.17611167933E+04  0.18104626449E+04  0.40000000000E+03 0.  1.
<mgrwt>
<rscale>  2 0.41981261E+03</rscale>
<asrwt>0</asrwt>
<pdfrwt beam="1">  1       21 0.12025456E+00 0.41981261E+03</pdfrwt>
<pdfrwt beam="2">  1       21 0.28369160E+00 0.41981261E+03</pdfrwt>
<totfact> 0.16996034E+01</totfact>
</mgrwt>
</event>
<event>
 4    1  0.4690138E-002  0.4145099E+03  0.7818608E-02  0.1038868E+00
         21   -1    0    0  501  502  0.00000000000E+00  0.00000000000E+00  0.90033696548E+03  0.90033696548E+03  0.00000000000E+00 0. -1.
         21   -1    0    0  502  503 -0.00000000000E+00 -0.00000000000E+00 -0.41243645210E+03  0.41243645210E+03  0.00000000000E+00 0. -1.
    9000007    1    1    2  501    0 -0.10301946745E+03 -0.34719236672E+02  0.72508275712E+03  0.83520263454E+03  0.40000000000E+03 0. -1.
   -9000007    1    1    2    0  503  0.10301946745E+03  0.34719236672E+02 -0.23718224374E+03  0.47757078304E+03  0.40000000000E+03 0. -1.
<mgrwt>
<rscale>  2 0.41450987E+03</rscale>
<asrwt>0</asrwt>
<pdfrwt beam="1">  1       21 0.13851338E+00 0.41450987E+03</pdfrwt>
<pdfrwt beam="2">  1       21 0.63451763E-01 0.41450987E+03</pdfrwt>
<totfact> 0.72175354E+02</totfact>
</mgrwt>
</event>
<event>
 4    1  0.4690138E-002  0.4205827E+03  0.7818608E-02  0.1036877E+00
         21   -1    0    0  501  502  0.00000000000E+00  0.00000000000E+00  0.20185645442E+04  0.20185645442E+04  0.00000000000E+00 0.  1.
         21   -1    0    0  502  503 -0.00000000000E+00 -0.00000000000E+00 -0.15693172227E+03  0.15693172227E+03  0.00000000000E+00 0.  1.
    9000007    1    1    2  501    0 -0.89054198343E+02  0.94652818036E+02  0.16536533541E+04  0.17062998627E+04  0.40000000000E+03 0.  1.
   -9000007    1    1    2    0  503  0.89054198343E+02 -0.94652818036E+02  0.20797946785E+03  0.46919640371E+03  0.40000000000E+03 0.  1.
<mgrwt>
<rscale>  2 0.42058270E+03</rscale>
<asrwt>0</asrwt>
<pdfrwt beam="1">  1       21 0.31054837E+00 0.42058270E+03</pdfrwt>
<pdfrwt beam="2">  1       21 0.24143343E-01 0.42058270E+03</pdfrwt>
<totfact> 0.38652635E+02</totfact>
</mgrwt>
</event>
<event>
 4    1  0.4690138E-002  0.4627723E+03  0.7818608E-02  0.1023980E+00
         21   -1    0    0  503  502  0.00000000000E+00  0.00000000000E+00  0.22987831048E+03  0.22987831048E+03  0.00000000000E+00 0.  1.
         21   -1    0    0  501  503 -0.00000000000E+00 -0.00000000000E+00 -0.99723327893E+03  0.99723327893E+03  0.00000000000E+00 0. -1.
    9000007    1    1    2  501    0  0.19903107098E+03 -0.12060181483E+03 -0.54106377751E+03  0.71197484246E+03  0.40000000000E+03 0.  1.
   -9000007    1    1    2    0  502 -0.19903107098E+03  0.12060181483E+03 -0.22629119094E+03  0.51513674695E+03  0.40000000000E+03 0. -1.
<mgrwt>
<rscale>  2 0.46277226E+03</rscale>
<asrwt>0</asrwt>
<pdfrwt beam="1">  1       21 0.35365894E-01 0.46277226E+03</pdfrwt>
<pdfrwt beam="2">  1       21 0.15342050E+00 0.46277226E+03</pdfrwt>
<totfact> 0.18452481E+03</totfact>
</mgrwt>
</event>
<event>
 4    1  0.4690138E-002  0.4068090E+03  0.7818608E-02  0.1041447E+00
         21   -1    0    0  501  502  0.00000000000E+00  0.00000000000E+00  0.47624344327E+03  0.47624344327E+03  0.00000000000E+00 0. -1.
         21   -1    0    0  502  503 -0.00000000000E+00 -0.00000000000E+00 -0.35823922383E+03  0.35823922383E+03  0.00000000000E+00 0. -1.
    9000007    1    1    2  501    0 -0.74063596235E+02  0.28583777798E+01  0.13125081663E+03  0.42745802540E+03  0.40000000000E+03 0. -1.
   -9000007    1    1    2    0  503  0.74063596235E+02 -0.28583777798E+01 -0.13246597190E+02  0.40702464170E+03  0.40000000000E+03 0. -1.
<mgrwt>
<rscale>  2 0.40680903E+03</rscale>
<asrwt>0</asrwt>
<pdfrwt beam="1">  1       21 0.73268222E-01 0.40680903E+03</pdfrwt>
<pdfrwt beam="2">  1       21 0.55113727E-01 0.40680903E+03</pdfrwt>
<totfact> 0.46381988E+03</totfact>
</mgrwt>
</event>
<event>
 4    1  0.4690138E-002  0.4467735E+03  0.7818608E-02  0.1028689E+00
         21   -1    0    0  501  502  0.00000000000E+00  0.00000000000E+00  0.50722382302E+03  0.50722382302E+03  0.00000000000E+00 0. -1.
         21   -1    0    0  502  503 -0.00000000000E+00 -0.00000000000E+00 -0.65057789607E+03  0.65057789607E+03  0.00000000000E+00 0. -1.
    9000007    1    1    2  501    0 -0.96320440781E+02 -0.17415212280E+03  0.29220747540E+03  0.53384623055E+03  0.40000000000E+03 0. -1.
   -9000007    1    1    2    0  503  0.96320440781E+02  0.17415212280E+03 -0.43556154846E+03  0.62395548854E+03  0.40000000000E+03 0. -1.
<mgrwt>
<rscale>  2 0.44677353E+03</rscale>
<asrwt>0</asrwt>
<pdfrwt beam="1">  1       21 0.78034434E-01 0.44677353E+03</pdfrwt>
<pdfrwt beam="2">  1       21 0.10008891E+00 0.44677353E+03</pdfrwt>
<totfact> 0.10148125E+03</totfact>
</mgrwt>
</event>
<event>
 4    1  0.4690138E-002  0.4543744E+03  0.7818608E-02  0.1026426E+00
         21   -1    0    0  503  502  0.00000000000E+00  0.00000000000E+00  0.76499575927E+03  0.76499575927E+03  0.00000000000E+00 0. -1.
         21   -1    0    0  501  503 -0.00000000000E+00 -0.00000000000E+00 -0.40927870961E+03  0.40927870961E+03  0.00000000000E+00 0. -1.
    9000007    1    1    2  501    0 -0.10873075174E+03 -0.18610133539E+03 -0.16479989071E+03  0.48333744670E+03  0.40000000000E+03 0. -1.
   -9000007    1    1    2    0  502  0.10873075174E+03  0.18610133539E+03  0.52051694037E+03  0.69093702218E+03  0.40000000000E+03 0. -1.
<mgrwt>
<rscale>  2 0.45437439E+03</rscale>
<asrwt>0</asrwt>
<pdfrwt beam="1">  1       21 0.11769166E+00 0.45437439E+03</pdfrwt>
<pdfrwt beam="2">  1       21 0.62965955E-01 0.45437439E+03</pdfrwt>
<totfact> 0.10985292E+03</totfact>
</mgrwt>
</event>
<event>
 4    1  0.4690138E-002  0.4180552E+03  0.7818608E-02  0.1037701E+00
         21   -1    0    0  501  502  0.00000000000E+00  0.00000000000E+00  0.82523728351E+03  0.82523728351E+03  0.00000000000E+00 0. -1.
         21   -1    0    0  502  503 -0.00000000000E+00 -0.00000000000E+00 -0.21213091405E+03  0.21213091405E+03  0.00000000000E+00 0. -1.
    9000007    1    1    2  501    0  0.98768945249E+02 -0.70815628979E+02  0.28550839888E+03  0.50624618881E+03  0.40000000000E+03 0. -1.
   -9000007    1    1    2    0  503 -0.98768945249E+02  0.70815628979E+02  0.32759797058E+03  0.53112200875E+03  0.40000000000E+03 0. -1.
<mgrwt>
<rscale>  2 0.41805521E+03</rscale>
<asrwt>0</asrwt>
<pdfrwt beam="1">  1       21 0.12695958E+00 0.41805521E+03</pdfrwt>
<pdfrwt beam="2">  1       21 0.32635526E-01 0.41805521E+03</pdfrwt>
<totfact> 0.36477037E+03</totfact>
</mgrwt>
</event>
<event>
 4    1  0.4690138E-002  0.4002929E+03  0.7818608E-02  0.1043678E+00
         21   -1    0    0  501  502  0.00000000000E+00  0.00000000000E+00  0.57349148523E+03  0.57349148523E+03  0.00000000000E+00 0. -1.
         21   -1    0    0  502  503 -0.00000000000E+00 -0.00000000000E+00 -0.12693493392E+04  0.12693493392E+04  0.00000000000E+00 0. -1.
    9000007    1    1    2  501    0 -0.44430006767E+01  0.14650703304E+02  0.46578809967E+03  0.61416035134E+03  0.40000000000E+03 0. -1.
   -9000007    1    1    2    0  503  0.44430006767E+01 -0.14650703304E+02 -0.11616459537E+04  0.12286804731E+04  0.40000000000E+03 0. -1.
<mgrwt>
<rscale>  2 0.40029287E+03</rscale>
<asrwt>0</asrwt>
<pdfrwt beam="1">  1       21 0.88229459E-01 0.40029287E+03</pdfrwt>
<pdfrwt beam="2">  1       21 0.19528451E+00 0.40029287E+03</pdfrwt>
<totfact> 0.13073406E+02</totfact>
</mgrwt>
</event>
<event>
 4    1  0.4690138E-002  0.4686678E+03  0.7818608E-02  0.1022297E+00
         21   -1    0    0  503  502  0.00000000000E+00  0.00000000000E+00  0.69994859356E+03  0.69994859356E+03  0.00000000000E+00 0. -1.
         21   -1    0    0  501  503 -0.00000000000E+00 -0.00000000000E+00 -0.32736403605E+03  0.32736403605E+03  0.00000000000E+00 0. -1.
    9000007    1    1    2  501    0 -0.21468538315E+03 -0.11644597458E+03  0.81766535093E+02  0.47574703887E+03  0.40000000000E+03 0. -1.
   -9000007    1    1    2    0  502  0.21468538315E+03  0.11644597458E+03  0.29081802242E+03  0.55156559075E+03  0.40000000000E+03 0. -1.
<mgrwt>
<rscale>  2 0.46866777E+03</rscale>
<asrwt>0</asrwt>
<pdfrwt beam="1">  1       21 0.10768440E+00 0.46866777E+03</pdfrwt>
<pdfrwt beam="2">  1       21 0.50363698E-01 0.46866777E+03</pdfrwt>
<totfact> 0.22135010E+03</totfact>
</mgrwt>
</event>
<event>
 4    1  0.4690138E-002  0.5146586E+03  0.7818608E-02  0.1010022E+00
         21   -1    0    0  501  502  0.00000000000E+00  0.00000000000E+00  0.36259166853E+03  0.36259166853E+03  0.00000000000E+00 0.  1.
         21   -1    0    0  502  503 -0.00000000000E+00 -0.00000000000E+00 -0.75621140745E+03  0.75621140745E+03  0.00000000000E+00 0. -1.
    9000007    1    1    2  501    0 -0.31757245530E+03  0.63413358283E+02 -0.93662566626E+02  0.52311202888E+03  0.40000000000E+03 0.  1.
   -9000007    1    1    2    0  503  0.31757245530E+03 -0.63413358283E+02 -0.29995717230E+03  0.59569104709E+03  0.40000000000E+03 0. -1.
<mgrwt>
<rscale>  2 0.51465864E+03</rscale>
<asrwt>0</asrwt>
<pdfrwt beam="1">  1       21 0.55783334E-01 0.51465864E+03</pdfrwt>
<pdfrwt beam="2">  1       21 0.11634022E+00 0.51465864E+03</pdfrwt>
<totfact> 0.14415359E+03</totfact>
</mgrwt>
</event>
<event>
 4    1  0.4690138E-002  0.4315600E+03  0.7818608E-02  0.1033368E+00
         21   -1    0    0  501  502  0.00000000000E+00  0.00000000000E+00  0.57069908195E+03  0.57069908195E+03  0.00000000000E+00 0. -1.
         21   -1    0    0  502  503 -0.00000000000E+00 -0.00000000000E+00 -0.32692490631E+03  0.32692490631E+03  0.00000000000E+00 0. -1.
    9000007    1    1    2  501    0  0.83469306967E+02 -0.13884139437E+03  0.14081054017E+03  0.45395117163E+03  0.40000000000E+03 0. -1.
   -9000007    1    1    2    0  503 -0.83469306967E+02  0.13884139437E+03  0.10296363547E+03  0.44367281664E+03  0.40000000000E+03 0. -1.
<mgrwt>
<rscale>  2 0.43156003E+03</rscale>
<asrwt>0</asrwt>
<pdfrwt beam="1">  1       21 0.87799859E-01 0.43156003E+03</pdfrwt>
<pdfrwt beam="2">  1       21 0.50296139E-01 0.43156003E+03</pdfrwt>
<totfact> 0.36822068E+03</totfact>
</mgrwt>
</event>
<event>
 4    1  0.4690138E-002  0.4161791E+03  0.7818608E-02  0.1038317E+00
         21   -1    0    0  503  502  0.00000000000E+00  0.00000000000E+00  0.10303861521E+04  0.10303861521E+04  0.00000000000E+00 0.  1.
         21   -1    0    0  501  503 -0.00000000000E+00 -0.00000000000E+00 -0.23098786652E+03  0.23098786652E+03  0.00000000000E+00 0.  1.
    9000007    1    1    2  501    0  0.14056305510E+02  0.11405030677E+03  0.70610938109E+02  0.42212670702E+03  0.40000000000E+03 0.  1.
   -9000007    1    1    2    0  502 -0.14056305510E+02 -0.11405030677E+03  0.72878734746E+03  0.83924731159E+03  0.40000000000E+03 0.  1.
<mgrwt>
<rscale>  2 0.41617911E+03</rscale>
<asrwt>0</asrwt>
<pdfrwt beam="1">  1       21 0.15852094E+00 0.41617911E+03</pdfrwt>
<pdfrwt beam="2">  1       21 0.35536595E-01 0.41617911E+03</pdfrwt>
<totfact> 0.17024493E+03</totfact>
</mgrwt>
</event>
<event>
 4    1  0.4690138E-002  0.7518132E+03  0.7818608E-02  0.9632510E-01
         21   -1    0    0  503  502  0.00000000000E+00  0.00000000000E+00  0.12134422978E+04  0.12134422978E+04  0.00000000000E+00 0. -1.
         21   -1    0    0  501  503 -0.00000000000E+00 -0.00000000000E+00 -0.47212877032E+03  0.47212877032E+03  0.00000000000E+00 0.  1.
    9000007    1    1    2  501    0  0.18056665460E+03 -0.61042506151E+03  0.46822306509E+03  0.88569515701E+03  0.40000000000E+03 0.  1.
   -9000007    1    1    2    0  502 -0.18056665460E+03  0.61042506151E+03  0.27309046234E+03  0.79987591106E+03  0.40000000000E+03 0.  1.
<mgrwt>
<rscale>  2 0.75181319E+03</rscale>
<asrwt>0</asrwt>
<pdfrwt beam="1">  1       21 0.18668343E+00 0.75181319E+03</pdfrwt>
<pdfrwt beam="2">  1       21 0.72635196E-01 0.75181319E+03</pdfrwt>
<totfact> 0.20234301E+02</totfact>
</mgrwt>
</event>
<event>
 4    1  0.4690138E-002  0.8140828E+03  0.7818608E-02  0.9539854E-01
         21   -1    0    0  503  502  0.00000000000E+00  0.00000000000E+00  0.36917145530E+03  0.36917145530E+03  0.00000000000E+00 0.  1.
         21   -1    0    0  501  503 -0.00000000000E+00 -0.00000000000E+00 -0.22231116789E+04  0.22231116789E+04  0.00000000000E+00 0. -1.
    9000007    1    1    2  501    0  0.70879764646E+03  0.18351397966E+02 -0.14956354136E+04  0.17028376810E+04  0.40000000000E+03 0. -1.
   -9000007    1    1    2    0  502 -0.70879764646E+03 -0.18351397966E+02 -0.35830481009E+03  0.88944545328E+03  0.40000000000E+03 0.  1.
<mgrwt>
<rscale>  2 0.81408284E+03</rscale>
<asrwt>0</asrwt>
<pdfrwt beam="1">  1       21 0.56795609E-01 0.81408284E+03</pdfrwt>
<pdfrwt beam="2">  1       21 0.34201718E+00 0.81408284E+03</pdfrwt>
<totfact> 0.35412423E+01</totfact>
</mgrwt>
</event>
<event>
 4    1  0.4690138E-002  0.4485765E+03  0.7818608E-02  0.1028147E+00
         21   -1    0    0  501  502  0.00000000000E+00  0.00000000000E+00  0.16409470617E+04  0.16409470617E+04  0.00000000000E+00 0.  1.
         21   -1    0    0  502  503 -0.00000000000E+00 -0.00000000000E+00 -0.19165483013E+03  0.19165483013E+03  0.00000000000E+00 0. -1.
    9000007    1    1    2  501    0 -0.19746652822E+03 -0.47200073904E+02  0.12745631149E+04  0.13511965108E+04  0.40000000000E+03 0.  1.
   -9000007    1    1    2    0  503  0.19746652822E+03  0.47200073904E+02  0.17472911669E+03  0.48140538111E+03  0.40000000000E+03 0. -1.
<mgrwt>
<rscale>  2 0.44857650E+03</rscale>
<asrwt>0</asrwt>
<pdfrwt beam="1">  1       21 0.25245338E+00 0.44857650E+03</pdfrwt>
<pdfrwt beam="2">  1       21 0.29485360E-01 0.44857650E+03</pdfrwt>
<totfact> 0.57620116E+02</totfact>
</mgrwt>
</event>
<event>
 4    1  0.4690138E-002  0.4454344E+03  0.7818608E-02  0.1029092E+00
         21   -1    0    0  503  502  0.00000000000E+00  0.00000000000E+00  0.12826797163E+04  0.12826797163E+04  0.00000000000E+00 0.  1.
         21   -1    0    0  501  503 -0.00000000000E+00 -0.00000000000E+00 -0.32825071333E+03  0.32825071333E+03  0.00000000000E+00 0.  1.
    9000007    1    1    2  501    0 -0.90455039066E+02 -0.17386676553E+03 -0.10848583817E+03  0.45845495235E+03  0.40000000000E+03 0.  1.
   -9000007    1    1    2    0  502  0.90455039066E+02  0.17386676553E+03  0.10629148411E+04  0.11524754773E+04  0.40000000000E+03 0.  1.
<mgrwt>
<rscale>  2 0.44543436E+03</rscale>
<asrwt>0</asrwt>
<pdfrwt beam="1">  1       21 0.19733534E+00 0.44543436E+03</pdfrwt>
<pdfrwt beam="2">  1       21 0.50500110E-01 0.44543436E+03</pdfrwt>
<totfact> 0.42920280E+02</totfact>
</mgrwt>
</event>
<event>
 4    1  0.4690138E-002  0.4149050E+03  0.7818608E-02  0.1038737E+00
         21   -1    0    0  503  502  0.00000000000E+00  0.00000000000E+00  0.34241604976E+03  0.34241604976E+03  0.00000000000E+00 0. -1.
         21   -1    0    0  501  503 -0.00000000000E+00 -0.00000000000E+00 -0.50745697826E+03  0.50745697826E+03  0.00000000000E+00 0.  1.
    9000007    1    1    2  501    0 -0.10996205216E+03 -0.73837683719E+01 -0.12349047145E+03  0.43289267664E+03  0.40000000000E+03 0. -1.
   -9000007    1    1    2    0  502  0.10996205216E+03  0.73837683719E+01 -0.41550457047E+02  0.41698035137E+03  0.40000000000E+03 0. -1.
<mgrwt>
<rscale>  2 0.41490502E+03</rscale>
<asrwt>0</asrwt>
<pdfrwt beam="1">  1       21 0.52679392E-01 0.41490502E+03</pdfrwt>
<pdfrwt beam="2">  1       21 0.78070305E-01 0.41490502E+03</pdfrwt>
<totfact> 0.44089098E+03</totfact>
</mgrwt>
</event>
<event>
 4    1  0.4690138E-002  0.5385928E+03  0.7818608E-02  0.1004169E+00
         21   -1    0    0  501  502  0.00000000000E+00  0.00000000000E+00  0.14344545766E+04  0.14344545766E+04  0.00000000000E+00 0.  1.
         21   -1    0    0  502  503 -0.00000000000E+00 -0.00000000000E+00 -0.20905896203E+03  0.20905896203E+03  0.00000000000E+00 0.  1.
    9000007    1    1    2  501    0 -0.35131785853E+03 -0.81596091900E+02  0.46411984114E+03  0.71097776820E+03  0.40000000000E+03 0.  1.
   -9000007    1    1    2    0  503  0.35131785853E+03  0.81596091900E+02  0.76127577347E+03  0.93253577047E+03  0.40000000000E+03 0.  1.
<mgrwt>
<rscale>  2 0.53859276E+03</rscale>
<asrwt>0</asrwt>
<pdfrwt beam="1">  1       21 0.22068531E+00 0.53859276E+03</pdfrwt>
<pdfrwt beam="2">  1       21 0.32162918E-01 0.53859276E+03</pdfrwt>
<totfact> 0.73504976E+02</totfact>
</mgrwt>
</event>
<event>
 4    1  0.4690138E-002  0.5112964E+03  0.7818608E-02  0.1010872E+00
         21   -1    0    0  501  502  0.00000000000E+00  0.00000000000E+00  0.97340793273E+03  0.97340793273E+03  0.00000000000E+00 0.  1.
         21   -1    0    0  502  503 -0.00000000000E+00 -0.00000000000E+00 -0.27886652168E+03  0.27886652168E+03  0.00000000000E+00 0. -1.
    9000007    1    1    2  501    0  0.12828309169E+02  0.31821282200E+03  0.46761005064E+03  0.69288031077E+03  0.40000000000E+03 0.  1.
   -9000007    1    1    2    0  503 -0.12828309169E+02 -0.31821282200E+03  0.22693136041E+03  0.55939414364E+03  0.40000000000E+03 0. -1.
<mgrwt>
<rscale>  2 0.51129636E+03</rscale>
<asrwt>0</asrwt>
<pdfrwt beam="1">  1       21 0.14975507E+00 0.51129636E+03</pdfrwt>
<pdfrwt beam="2">  1       21 0.42902542E-01 0.51129636E+03</pdfrwt>
<totfact> 0.13009992E+03</totfact>
</mgrwt>
</event>
<event>
 4    1  0.4690138E-002  0.4566934E+03  0.7818608E-02  0.1025745E+00
         21   -1    0    0  501  502  0.00000000000E+00  0.00000000000E+00  0.11606770694E+04  0.11606770694E+04  0.00000000000E+00 0. -1.
         21   -1    0    0  502  503 -0.00000000000E+00 -0.00000000000E+00 -0.57773349421E+03  0.57773349421E+03  0.00000000000E+00 0. -1.
    9000007    1    1    2  501    0 -0.21547475365E+03  0.46254571322E+02  0.10129457395E+04  0.11111381219E+04  0.40000000000E+03 0. -1.
   -9000007    1    1    2    0  503  0.21547475365E+03 -0.46254571322E+02 -0.43000216429E+03  0.62727244170E+03  0.40000000000E+03 0. -1.
<mgrwt>
<rscale>  2 0.45669339E+03</rscale>
<asrwt>0</asrwt>
<pdfrwt beam="1">  1       21 0.17856570E+00 0.45669339E+03</pdfrwt>
<pdfrwt beam="2">  1       21 0.88882076E-01 0.45669339E+03</pdfrwt>
<totfact> 0.16215521E+02</totfact>
</mgrwt>
</event>
<event>
 4    1  0.4690138E-002  0.4895117E+03  0.7818608E-02  0.1016553E+00
         21   -1    0    0  501  502  0.00000000000E+00  0.00000000000E+00  0.29835545168E+03  0.29835545168E+03  0.00000000000E+00 0.  1.
         21   -1    0    0  502  503 -0.00000000000E+00 -0.00000000000E+00 -0.82020547790E+03  0.82020547790E+03  0.00000000000E+00 0. -1.
    9000007    1    1    2  501    0  0.20084970952E+03 -0.19819455653E+03 -0.34159400338E+03  0.59691553104E+03  0.40000000000E+03 0. -1.
   -9000007    1    1    2    0  503 -0.20084970952E+03  0.19819455653E+03 -0.18025602284E+03  0.52164539854E+03  0.40000000000E+03 0. -1.
<mgrwt>
<rscale>  2 0.48951168E+03</rscale>
<asrwt>0</asrwt>
<pdfrwt beam="1">  1       21 0.45900839E-01 0.48951168E+03</pdfrwt>
<pdfrwt beam="2">  1       21 0.12618546E+00 0.48951168E+03</pdfrwt>
<totfact> 0.17921119E+03</totfact>
</mgrwt>
</event>
<event>
 4    1  0.4690138E-002  0.4043691E+03  0.7818608E-02  0.1042277E+00
         21   -1    0    0  501  502  0.00000000000E+00  0.00000000000E+00  0.20767207608E+04  0.20767207608E+04  0.00000000000E+00 0.  1.
         21   -1    0    0  502  503 -0.00000000000E+00 -0.00000000000E+00 -0.89089602767E+02  0.89089602767E+02  0.00000000000E+00 0.  1.
    9000007    1    1    2  501    0  0.59267802402E+02 -0.12915544739E+01  0.13629682017E+04  0.14216879613E+04  0.40000000000E+03 0.  1.
   -9000007    1    1    2    0  503 -0.59267802402E+02  0.12915544739E+01  0.62466295634E+03  0.74412240225E+03  0.40000000000E+03 0.  1.
<mgrwt>
<rscale>  2 0.40436906E+03</rscale>
<asrwt>0</asrwt>
<pdfrwt beam="1">  1       21 0.31949547E+00 0.40436906E+03</pdfrwt>
<pdfrwt beam="2">  1       21 0.13706094E-01 0.40436906E+03</pdfrwt>
<totfact> 0.10027506E+03</totfact>
</mgrwt>
</event>
<event>
 4    1  0.4690138E-002  0.4265368E+03  0.7818608E-02  0.1034960E+00
         21   -1    0    0  501  502  0.00000000000E+00  0.00000000000E+00  0.71472140538E+03  0.71472140538E+03  0.00000000000E+00 0.  1.
         21   -1    0    0  502  503 -0.00000000000E+00 -0.00000000000E+00 -0.30510401254E+03  0.30510401254E+03  0.00000000000E+00 0.  1.
    9000007    1    1    2  501    0 -0.11411258740E+03 -0.94403092989E+02  0.41236786522E+03  0.59327976776E+03  0.40000000000E+03 0.  1.
   -9000007    1    1    2    0  503  0.11411258740E+03  0.94403092989E+02 -0.27504723744E+01  0.42654565016E+03  0.40000000000E+03 0.  1.
<mgrwt>
<rscale>  2 0.42653678E+03</rscale>
<asrwt>0</asrwt>
<pdfrwt beam="1">  1       21 0.10995714E+00 0.42653678E+03</pdfrwt>
<pdfrwt beam="2">  1       21 0.46939079E-01 0.42653678E+03</pdfrwt>
<totfact> 0.24788523E+03</totfact>
</mgrwt>
</event>
<event>
 4    1  0.4690138E-002  0.5512055E+03  0.7818608E-02  0.1001215E+00
         21   -1    0    0  503  502  0.00000000000E+00  0.00000000000E+00  0.20461927730E+03  0.20461927730E+03  0.00000000000E+00 0.  1.
         21   -1    0    0  501  503 -0.00000000000E+00 -0.00000000000E+00 -0.17466187600E+04  0.17466187600E+04  0.00000000000E+00 0.  1.
    9000007    1    1    2  501    0 -0.37828110120E+03 -0.27036141688E+02 -0.11486986572E+04  0.12741020954E+04  0.40000000000E+03 0.  1.
   -9000007    1    1    2    0  502  0.37828110120E+03  0.27036141688E+02 -0.39330082555E+03  0.67713594193E+03  0.40000000000E+03 0.  1.
<mgrwt>
<rscale>  2 0.55120554E+03</rscale>
<asrwt>0</asrwt>
<pdfrwt beam="1">  1       21 0.31479889E-01 0.55120554E+03</pdfrwt>
<pdfrwt beam="2">  1       21 0.26871058E+00 0.55120554E+03</pdfrwt>
<totfact> 0.38269190E+02</totfact>
</mgrwt>
</event>
<event>
 4    1  0.4690138E-002  0.4608791E+03  0.7818608E-02  0.1024527E+00
         21   -1    0    0  501  502  0.00000000000E+00  0.00000000000E+00  0.10758908868E+04  0.10758908868E+04  0.00000000000E+00 0.  1.
         21   -1    0    0  502  503 -0.00000000000E+00 -0.00000000000E+00 -0.25949796643E+03  0.25949796643E+03  0.00000000000E+00 0.  1.
    9000007    1    1    2  501    0  0.19451675170E+03  0.12071771015E+03  0.73475139715E+03  0.86733450747E+03  0.40000000000E+03 0.  1.
   -9000007    1    1    2    0  503 -0.19451675170E+03 -0.12071771015E+03  0.81641523183E+02  0.46805434572E+03  0.40000000000E+03 0.  1.
<mgrwt>
<rscale>  2 0.46087909E+03</rscale>
<asrwt>0</asrwt>
<pdfrwt beam="1">  1       21 0.16552167E+00 0.46087909E+03</pdfrwt>
<pdfrwt beam="2">  1       21 0.39922765E-01 0.46087909E+03</pdfrwt>
<totfact> 0.11669621E+03</totfact>
</mgrwt>
</event>
<event>
 4    1  0.4690138E-002  0.6163217E+03  0.7818608E-02  0.9872111E-01
         21   -1    0    0  503  502  0.00000000000E+00  0.00000000000E+00  0.46967650298E+03  0.46967650298E+03  0.00000000000E+00 0. -1.
         21   -1    0    0  501  503 -0.00000000000E+00 -0.00000000000E+00 -0.84367380879E+03  0.84367380879E+03  0.00000000000E+00 0. -1.
    9000007    1    1    2  501    0 -0.44234137509E+03  0.15552014043E+03 -0.53399473932E+02  0.61863067335E+03  0.40000000000E+03 0. -1.
   -9000007    1    1    2    0  502  0.44234137509E+03 -0.15552014043E+03 -0.32059783188E+03  0.69471963841E+03  0.40000000000E+03 0. -1.
<mgrwt>
<rscale>  2 0.61632167E+03</rscale>
<asrwt>0</asrwt>
<pdfrwt beam="1">  1       21 0.72257924E-01 0.61632167E+03</pdfrwt>
<pdfrwt beam="2">  1       21 0.12979597E+00 0.61632167E+03</pdfrwt>
<totfact> 0.59132536E+02</totfact>
</mgrwt>
</event>
<event>
 4    1  0.4690138E-002  0.4144740E+03  0.7818608E-02  0.1038880E+00
         21   -1    0    0  501  502  0.00000000000E+00  0.00000000000E+00  0.28580050669E+03  0.28580050669E+03  0.00000000000E+00 0.  1.
         21   -1    0    0  502  503 -0.00000000000E+00 -0.00000000000E+00 -0.10833782538E+04  0.10833782538E+04  0.00000000000E+00 0.  1.
    9000007    1    1    2  501    0 -0.36454467581E+02 -0.10227317642E+03  0.57981912961E+02  0.41851001548E+03  0.40000000000E+03 0.  1.
   -9000007    1    1    2    0  503  0.36454467581E+02  0.10227317642E+03 -0.85555966010E+03  0.95066874505E+03  0.40000000000E+03 0.  1.
<mgrwt>
<rscale>  2 0.41447404E+03</rscale>
<asrwt>0</asrwt>
<pdfrwt beam="1">  1       21 0.43969309E-01 0.41447404E+03</pdfrwt>
<pdfrwt beam="2">  1       21 0.16667358E+00 0.41447404E+03</pdfrwt>
<totfact> 0.95646005E+02</totfact>
</mgrwt>
</event>
<event>
 4    1  0.4690138E-002  0.4675286E+03  0.7818608E-02  0.1022620E+00
         21   -1    0    0  503  502  0.00000000000E+00  0.00000000000E+00  0.17250886051E+04  0.17250886051E+04  0.00000000000E+00 0. -1.
         21   -1    0    0  501  503 -0.00000000000E+00 -0.00000000000E+00 -0.15477920517E+03  0.15477920517E+03  0.00000000000E+00 0.  1.
    9000007    1    1    2  501    0  0.15018459047E+03  0.18980930913E+03  0.38486954438E+03  0.60556382920E+03  0.40000000000E+03 0.  1.
   -9000007    1    1    2    0  502 -0.15018459047E+03 -0.18980930913E+03  0.11854398555E+04  0.12743039810E+04  0.40000000000E+03 0. -1.
<mgrwt>
<rscale>  2 0.46752859E+03</rscale>
<asrwt>0</asrwt>
<pdfrwt beam="1">  1       21 0.26539823E+00 0.46752859E+03</pdfrwt>
<pdfrwt beam="2">  1       21 0.23812187E-01 0.46752859E+03</pdfrwt>
<totfact> 0.72310390E+02</totfact>
</mgrwt>
</event>
<event>
 4    1  0.4690138E-002  0.6566351E+03  0.7818608E-02  0.9794408E-01
         21   -1    0    0  503  502  0.00000000000E+00  0.00000000000E+00  0.19135627090E+04  0.19135627090E+04  0.00000000000E+00 0.  1.
         21   -1    0    0  501  503 -0.00000000000E+00 -0.00000000000E+00 -0.25793027117E+03  0.25793027117E+03  0.00000000000E+00 0. -1.
    9000007    1    1    2  501    0  0.16066342452E+03 -0.49533518741E+03  0.44177424587E+03  0.79141276726E+03  0.40000000000E+03 0. -1.
   -9000007    1    1    2    0  502 -0.16066342452E+03  0.49533518741E+03  0.12138581919E+04  0.13800802129E+04  0.40000000000E+03 0. -1.
<mgrwt>
<rscale>  2 0.65663512E+03</rscale>
<asrwt>0</asrwt>
<pdfrwt beam="1">  1       21 0.29439425E+00 0.65663512E+03</pdfrwt>
<pdfrwt beam="2">  1       21 0.39681581E-01 0.65663512E+03</pdfrwt>
<totfact> 0.15904198E+02</totfact>
</mgrwt>
</event>
<event>
 4    1  0.4690138E-002  0.4298529E+03  0.7818608E-02  0.1033906E+00
         21   -1    0    0  501  502  0.00000000000E+00  0.00000000000E+00  0.93252023826E+03  0.93252023826E+03  0.00000000000E+00 0.  1.
         21   -1    0    0  502  503 -0.00000000000E+00 -0.00000000000E+00 -0.24518192653E+03  0.24518192653E+03  0.00000000000E+00 0.  1.
    9000007    1    1    2  501    0 -0.79468985036E+02  0.13586088506E+03  0.60158872716E+03  0.73937980519E+03  0.40000000000E+03 0.  1.
   -9000007    1    1    2    0  503  0.79468985036E+02 -0.13586088506E+03  0.85749584570E+02  0.43832235960E+03  0.40000000000E+03 0.  1.
<mgrwt>
<rscale>  2 0.42985288E+03</rscale>
<asrwt>0</asrwt>
<pdfrwt beam="1">  1       21 0.14346465E+00 0.42985288E+03</pdfrwt>
<pdfrwt beam="2">  1       21 0.37720297E-01 0.42985288E+03</pdfrwt>
<totfact> 0.19665113E+03</totfact>
</mgrwt>
</event>
<event>
 4    1  0.4690138E-002  0.5276036E+03  0.7818608E-02  0.1006815E+00
         21   -1    0    0  501  502  0.00000000000E+00  0.00000000000E+00  0.32564181109E+03  0.32564181109E+03  0.00000000000E+00 0.  1.
         21   -1    0    0  502  503 -0.00000000000E+00 -0.00000000000E+00 -0.25802970528E+04  0.25802970528E+04  0.00000000000E+00 0.  1.
    9000007    1    1    2  501    0  0.33225731583E+03  0.89278282302E+02  0.60835484928E+02  0.53109932389E+03  0.40000000000E+03 0.  1.
   -9000007    1    1    2    0  503 -0.33225731583E+03 -0.89278282302E+02 -0.23154907266E+04  0.23748395400E+04  0.40000000000E+03 0.  1.
<mgrwt>
<rscale>  2 0.52760358E+03</rscale>
<asrwt>0</asrwt>
<pdfrwt beam="1">  1       21 0.50098738E-01 0.52760358E+03</pdfrwt>
<pdfrwt beam="2">  1       21 0.39696879E+00 0.52760358E+03</pdfrwt>
<totfact> 0.23991207E+01</totfact>
</mgrwt>
</event>
<event>
 4    1  0.4690138E-002  0.4446840E+03  0.7818608E-02  0.1029319E+00
         21   -1    0    0  501  502  0.00000000000E+00  0.00000000000E+00  0.41488974712E+03  0.41488974712E+03  0.00000000000E+00 0.  1.
         21   -1    0    0  502  503 -0.00000000000E+00 -0.00000000000E+00 -0.50320886060E+03  0.50320886060E+03  0.00000000000E+00 0.  1.
    9000007    1    1    2  501    0 -0.11819472227E+03 -0.15418775363E+03  0.61364792892E+02  0.44889808815E+03  0.40000000000E+03 0.  1.
   -9000007    1    1    2    0  503  0.11819472227E+03  0.15418775363E+03 -0.14968390637E+03  0.46920051957E+03  0.40000000000E+03 0.  1.
<mgrwt>
<rscale>  2 0.44468400E+03</rscale>
<asrwt>0</asrwt>
<pdfrwt beam="1">  1       21 0.63829192E-01 0.44468400E+03</pdfrwt>
<pdfrwt beam="2">  1       21 0.77416748E-01 0.44468400E+03</pdfrwt>
<totfact> 0.29279134E+03</totfact>
</mgrwt>
</event>
<event>
 4    1  0.4690138E-002  0.4108801E+03  0.7818608E-02  0.1040076E+00
         21   -1    0    0  503  502  0.00000000000E+00  0.00000000000E+00  0.93583369020E+03  0.93583369020E+03  0.00000000000E+00 0.  1.
         21   -1    0    0  501  503 -0.00000000000E+00 -0.00000000000E+00 -0.23718459271E+03  0.23718459271E+03  0.00000000000E+00 0.  1.
    9000007    1    1    2  501    0  0.84637707032E+02  0.40729622937E+02  0.62342461032E+02  0.41558275480E+03  0.40000000000E+03 0.  1.
   -9000007    1    1    2    0  502 -0.84637707032E+02 -0.40729622937E+02  0.63630663646E+03  0.75743552811E+03  0.40000000000E+03 0.  1.
<mgrwt>
<rscale>  2 0.41088008E+03</rscale>
<asrwt>0</asrwt>
<pdfrwt beam="1">  1       21 0.14397441E+00 0.41088008E+03</pdfrwt>
<pdfrwt beam="2">  1       21 0.36489938E-01 0.41088008E+03</pdfrwt>
<totfact> 0.21005661E+03</totfact>
</mgrwt>
</event>
<event>
 4    1  0.4690138E-002  0.5802330E+03  0.7818608E-02  0.9947287E-01
         21   -1    0    0  501  502  0.00000000000E+00  0.00000000000E+00  0.27995640013E+03  0.27995640013E+03  0.00000000000E+00 0.  1.
         21   -1    0    0  502  503 -0.00000000000E+00 -0.00000000000E+00 -0.13650524100E+04  0.13650524100E+04  0.00000000000E+00 0.  1.
    9000007    1    1    2  501    0  0.41894484139E+03 -0.33992926411E+02 -0.25878759804E+03  0.63532772651E+03  0.40000000000E+03 0.  1.
   -9000007    1    1    2    0  503 -0.41894484139E+03  0.33992926411E+02 -0.82630841182E+03  0.10096810836E+04  0.40000000000E+03 0.  1.
<mgrwt>
<rscale>  2 0.58023297E+03</rscale>
<asrwt>0</asrwt>
<pdfrwt beam="1">  1       21 0.43070215E-01 0.58023297E+03</pdfrwt>
<pdfrwt beam="2">  1       21 0.21000806E+00 0.58023297E+03</pdfrwt>
<totfact> 0.46642853E+02</totfact>
</mgrwt>
</event>
<event>
 4    1  0.4690138E-002  0.4642182E+03  0.7818608E-02  0.1023565E+00
         21   -1    0    0  501  502  0.00000000000E+00  0.00000000000E+00  0.89856079820E+03  0.89856079820E+03  0.00000000000E+00 0.  1.
         21   -1    0    0  502  503 -0.00000000000E+00 -0.00000000000E+00 -0.13143538593E+04  0.13143538593E+04  0.00000000000E+00 0. -1.
    9000007    1    1    2  501    0 -0.19111342484E+03  0.13774690184E+03  0.79253480915E+03  0.91848242979E+03  0.40000000000E+03 0.  1.
   -9000007    1    1    2    0  503  0.19111342484E+03 -0.13774690184E+03 -0.12083278703E+04  0.12944322277E+04  0.40000000000E+03 0. -1.
<mgrwt>
<rscale>  2 0.46421821E+03</rscale>
<asrwt>0</asrwt>
<pdfrwt beam="1">  1       21 0.13824012E+00 0.46421821E+03</pdfrwt>
<pdfrwt beam="2">  1       21 0.20220829E+00 0.46421821E+03</pdfrwt>
<totfact> 0.36947970E+01</totfact>
</mgrwt>
</event>
<event>
 4    1  0.4690138E-002  0.4977027E+03  0.7818608E-02  0.1014380E+00
         21   -1    0    0  503  502  0.00000000000E+00  0.00000000000E+00  0.39564745990E+03  0.39564745990E+03  0.00000000000E+00 0. -1.
         21   -1    0    0  501  503 -0.00000000000E+00 -0.00000000000E+00 -0.72202530366E+03  0.72202530366E+03  0.00000000000E+00 0. -1.
    9000007    1    1    2  501    0  0.19802036466E+03 -0.22021777708E+03  0.40522209661E+02  0.49934956057E+03  0.40000000000E+03 0. -1.
   -9000007    1    1    2    0  502 -0.19802036466E+03  0.22021777708E+03 -0.36690005342E+03  0.61832320299E+03  0.40000000000E+03 0. -1.
<mgrwt>
<rscale>  2 0.49770266E+03</rscale>
<asrwt>0</asrwt>
<pdfrwt beam="1">  1       21 0.60868840E-01 0.49770266E+03</pdfrwt>
<pdfrwt beam="2">  1       21 0.11108082E+00 0.49770266E+03</pdfrwt>
<totfact> 0.13453893E+03</totfact>
</mgrwt>
</event>
<event>
 4    1  0.4690138E-002  0.4916951E+03  0.7818608E-02  0.1015970E+00
         21   -1    0    0  501  502  0.00000000000E+00  0.00000000000E+00  0.13828675765E+04  0.13828675765E+04  0.00000000000E+00 0. -1.
         21   -1    0    0  502  503 -0.00000000000E+00 -0.00000000000E+00 -0.17556220095E+03  0.17556220095E+03  0.00000000000E+00 0. -1.
    9000007    1    1    2  501    0 -0.21288184190E+03  0.19090663640E+03  0.65404201486E+03  0.81825117148E+03  0.40000000000E+03 0. -1.
   -9000007    1    1    2    0  503  0.21288184190E+03 -0.19090663640E+03  0.55326336066E+03  0.74017860593E+03  0.40000000000E+03 0. -1.
<mgrwt>
<rscale>  2 0.49169505E+03</rscale>
<asrwt>0</asrwt>
<pdfrwt beam="1">  1       21 0.21274885E+00 0.49169505E+03</pdfrwt>
<pdfrwt beam="2">  1       21 0.27009570E-01 0.49169505E+03</pdfrwt>
<totfact> 0.11933762E+03</totfact>
</mgrwt>
</event>
<event>
 4    1  0.4690138E-002  0.4346327E+03  0.7818608E-02  0.1032406E+00
         21   -1    0    0  501  502  0.00000000000E+00  0.00000000000E+00  0.42628422620E+03  0.42628422620E+03  0.00000000000E+00 0.  1.
         21   -1    0    0  502  503 -0.00000000000E+00 -0.00000000000E+00 -0.51983084691E+03  0.51983084691E+03  0.00000000000E+00 0.  1.
    9000007    1    1    2  501    0  0.13110858873E+03 -0.10824114368E+03  0.13492099809E+03  0.45509260920E+03  0.40000000000E+03 0.  1.
   -9000007    1    1    2    0  503 -0.13110858873E+03  0.10824114368E+03 -0.22846761881E+03  0.49102246391E+03  0.40000000000E+03 0.  1.
<mgrwt>
<rscale>  2 0.43463273E+03</rscale>
<asrwt>0</asrwt>
<pdfrwt beam="1">  1       21 0.65582188E-01 0.43463273E+03</pdfrwt>
<pdfrwt beam="2">  1       21 0.79973977E-01 0.43463273E+03</pdfrwt>
<totfact> 0.25678266E+03</totfact>
</mgrwt>
</event>
<event>
 4    1  0.4690138E-002  0.4460440E+03  0.7818608E-02  0.1028908E+00
         21   -1    0    0  503  502  0.00000000000E+00  0.00000000000E+00  0.19808776759E+04  0.19808776759E+04  0.00000000000E+00 0. -1.
         21   -1    0    0  501  503 -0.00000000000E+00 -0.00000000000E+00 -0.35926329453E+03  0.35926329453E+03  0.00000000000E+00 0.  1.
    9000007    1    1    2  501    0 -0.19514801357E+03 -0.29538632966E+02 -0.18232945487E+03  0.48187063425E+03  0.40000000000E+03 0.  1.
   -9000007    1    1    2    0  502  0.19514801357E+03  0.29538632966E+02  0.18039438362E+04  0.18582703362E+04  0.40000000000E+03 0. -1.
<mgrwt>
<rscale>  2 0.44604403E+03</rscale>
<asrwt>0</asrwt>
<pdfrwt beam="1">  1       21 0.30475040E+00 0.44604403E+03</pdfrwt>
<pdfrwt beam="2">  1       21 0.55271277E-01 0.44604403E+03</pdfrwt>
<totfact> 0.76138705E+01</totfact>
</mgrwt>
</event>
<event>
 4    1  0.4690138E-002  0.4196396E+03  0.7818608E-02  0.1037184E+00
         21   -1    0    0  503  502  0.00000000000E+00  0.00000000000E+00  0.15307981692E+04  0.15307981692E+04  0.00000000000E+00 0. -1.
         21   -1    0    0  501  503 -0.00000000000E+00 -0.00000000000E+00 -0.12934141492E+03  0.12934141492E+03  0.00000000000E+00 0.  1.
    9000007    1    1    2  501    0  0.10657347774E+03  0.68844024428E+02  0.42467631174E+03  0.59703213951E+03  0.40000000000E+03 0.  1.
   -9000007    1    1    2    0  502 -0.10657347774E+03 -0.68844024428E+02  0.97678044253E+03  0.10631074446E+04  0.40000000000E+03 0. -1.
<mgrwt>
<rscale>  2 0.41963961E+03</rscale>
<asrwt>0</asrwt>
<pdfrwt beam="1">  1       21 0.23550740E+00 0.41963961E+03</pdfrwt>
<pdfrwt beam="2">  1       21 0.19898680E-01 0.41963961E+03</pdfrwt>
<totfact> 0.15949862E+03</totfact>
</mgrwt>
</event>
<event>
 4    1  0.4690138E-002  0.4444398E+03  0.7818608E-02  0.1029393E+00
         21   -1    0    0  503  502  0.00000000000E+00  0.00000000000E+00  0.23737396965E+03  0.23737396965E+03  0.00000000000E+00 0.  1.
         21   -1    0    0  501  503 -0.00000000000E+00 -0.00000000000E+00 -0.18552400367E+04  0.18552400367E+04  0.00000000000E+00 0. -1.
    9000007    1    1    2  501    0  0.79726860924E+02 -0.17655119038E+03 -0.15859305495E+04  0.16470283553E+04  0.40000000000E+03 0. -1.
   -9000007    1    1    2    0  502 -0.79726860924E+02  0.17655119038E+03 -0.31935517554E+02  0.44558565109E+03  0.40000000000E+03 0.  1.
<mgrwt>
<rscale>  2 0.44443975E+03</rscale>
<asrwt>0</asrwt>
<pdfrwt beam="1">  1       21 0.36519073E-01 0.44443975E+03</pdfrwt>
<pdfrwt beam="2">  1       21 0.28542154E+00 0.44443975E+03</pdfrwt>
<totfact> 0.23727601E+02</totfact>
</mgrwt>
</event>
<event>
 4    1  0.4690138E-002  0.4838660E+03  0.7818608E-02  0.1018078E+00
         21   -1    0    0  503  502  0.00000000000E+00  0.00000000000E+00  0.40675168334E+03  0.40675168334E+03  0.00000000000E+00 0. -1.
         21   -1    0    0  501  503 -0.00000000000E+00 -0.00000000000E+00 -0.95490988069E+03  0.95490988069E+03  0.00000000000E+00 0.  1.
    9000007    1    1    2  501    0  0.26068307499E+03 -0.78553502318E+02 -0.70317562411E+03  0.85357031149E+03  0.40000000000E+03 0.  1.
   -9000007    1    1    2    0  502 -0.26068307499E+03  0.78553502318E+02  0.15501742676E+03  0.50809125255E+03  0.40000000000E+03 0. -1.
<mgrwt>
<rscale>  2 0.48386601E+03</rscale>
<asrwt>0</asrwt>
<pdfrwt beam="1">  1       21 0.62577181E-01 0.48386601E+03</pdfrwt>
<pdfrwt beam="2">  1       21 0.14690921E+00 0.48386601E+03</pdfrwt>
<totfact> 0.61634568E+02</totfact>
</mgrwt>
</event>
<event>
 4    1  0.4690138E-002  0.4018857E+03  0.7818608E-02  0.1043129E+00
         21   -1    0    0  501  502  0.00000000000E+00  0.00000000000E+00  0.14304314005E+04  0.14304314005E+04  0.00000000000E+00 0. -1.
         21   -1    0    0  502  503 -0.00000000000E+00 -0.00000000000E+00 -0.16293320957E+03  0.16293320957E+03  0.00000000000E+00 0. -1.
    9000007    1    1    2  501    0  0.38739240723E+02 -0.33706141738E+01  0.10751770456E+04  0.11478317687E+04  0.40000000000E+03 0. -1.
   -9000007    1    1    2    0  503 -0.38739240723E+02  0.33706141738E+01  0.19232114532E+03  0.44553284138E+03  0.40000000000E+03 0. -1.
<mgrwt>
<rscale>  2 0.40188567E+03</rscale>
<asrwt>0</asrwt>
<pdfrwt beam="1">  1       21 0.22006636E+00 0.40188567E+03</pdfrwt>
<pdfrwt beam="2">  1       21 0.25066649E-01 0.40188567E+03</pdfrwt>
<totfact> 0.12919563E+03</totfact>
</mgrwt>
</event>
<event>
 4    1  0.4690138E-002  0.5606813E+03  0.7818608E-02  0.9990514E-01
         21   -1    0    0  503  502  0.00000000000E+00  0.00000000000E+00  0.55631932095E+03  0.55631932095E+03  0.00000000000E+00 0.  1.
         21   -1    0    0  501  503 -0.00000000000E+00 -0.00000000000E+00 -0.56566654279E+03  0.56566654279E+03  0.00000000000E+00 0. -1.
    9000007    1    1    2  501    0  0.18258206430E+03  0.34788978676E+03 -0.22777085184E+02  0.56114375123E+03  0.40000000000E+03 0.  1.
   -9000007    1    1    2    0  502 -0.18258206430E+03 -0.34788978676E+03  0.13429863348E+02  0.56084211251E+03  0.40000000000E+03 0.  1.
<mgrwt>
<rscale>  2 0.56068129E+03</rscale>
<asrwt>0</asrwt>
<pdfrwt beam="1">  1       21 0.85587587E-01 0.56068129E+03</pdfrwt>
<pdfrwt beam="2">  1       21 0.87025622E-01 0.56068129E+03</pdfrwt>
<totfact> 0.10976009E+03</totfact>
</mgrwt>
</event>
<event>
 4    1  0.4690138E-002  0.1427172E+04  0.7818608E-02  0.8934381E-01
         21   -1    0    0  501  502  0.00000000000E+00  0.00000000000E+00  0.16548595612E+04  0.16548595612E+04  0.00000000000E+00 0.  1.
         21   -1    0    0  502  503 -0.00000000000E+00 -0.00000000000E+00 -0.12370644597E+04  0.12370644597E+04  0.00000000000E+00 0. -1.
    9000007    1    1    2  501    0 -0.13254489819E+04  0.34641928926E+03  0.10610079131E+03  0.14311110039E+04  0.40000000000E+03 0. -1.
   -9000007    1    1    2    0  503  0.13254489819E+04 -0.34641928926E+03  0.31169431018E+03  0.14608130170E+04  0.40000000000E+03 0.  1.
<mgrwt>
<rscale>  2 0.14271725E+04</rscale>
<asrwt>0</asrwt>
<pdfrwt beam="1">  1       21 0.25459378E+00 0.14271725E+04</pdfrwt>
<pdfrwt beam="2">  1       21 0.19031761E+00 0.14271725E+04</pdfrwt>
<totfact> 0.48180279E+00</totfact>
</mgrwt>
</event>
<event>
 4    1  0.4690138E-002  0.4374601E+03  0.7818608E-02  0.1031529E+00
         21   -1    0    0  501  502  0.00000000000E+00  0.00000000000E+00  0.24849988860E+03  0.24849988860E+03  0.00000000000E+00 0. -1.
         21   -1    0    0  502  503 -0.00000000000E+00 -0.00000000000E+00 -0.95457958611E+03  0.95457958611E+03  0.00000000000E+00 0. -1.
    9000007    1    1    2  501    0 -0.15768834477E+03  0.80657928094E+02 -0.88601120162E+02  0.44634232819E+03  0.40000000000E+03 0. -1.
   -9000007    1    1    2    0  503  0.15768834477E+03 -0.80657928094E+02 -0.61747857734E+03  0.75673714652E+03  0.40000000000E+03 0. -1.
<mgrwt>
<rscale>  2 0.43746007E+03</rscale>
<asrwt>0</asrwt>
<pdfrwt beam="1">  1       21 0.38230752E-01 0.43746007E+03</pdfrwt>
<pdfrwt beam="2">  1       21 0.14685840E+00 0.43746007E+03</pdfrwt>
<totfact> 0.17911659E+03</totfact>
</mgrwt>
</event>
<event>
 4    1  0.4690138E-002  0.4420445E+03  0.7818608E-02  0.1030121E+00
         21   -1    0    0  503  502  0.00000000000E+00  0.00000000000E+00  0.15335212367E+04  0.15335212367E+04  0.00000000000E+00 0.  1.
         21   -1    0    0  501  503 -0.00000000000E+00 -0.00000000000E+00 -0.15087140308E+03  0.15087140308E+03  0.00000000000E+00 0. -1.
    9000007    1    1    2  501    0 -0.17349364574E+03  0.72823574171E+02  0.35929137361E+03  0.56964340532E+03  0.40000000000E+03 0. -1.
   -9000007    1    1    2    0  502  0.17349364574E+03 -0.72823574171E+02  0.10233584600E+04  0.11147492344E+04  0.40000000000E+03 0.  1.
<mgrwt>
<rscale>  2 0.44204448E+03</rscale>
<asrwt>0</asrwt>
<pdfrwt beam="1">  1       21 0.23592633E+00 0.44204448E+03</pdfrwt>
<pdfrwt beam="2">  1       21 0.23210986E-01 0.44204448E+03</pdfrwt>
<totfact> 0.11676682E+03</totfact>
</mgrwt>
</event>
<event>
 4    1  0.4690138E-002  0.4376708E+03  0.7818608E-02  0.1031464E+00
         21   -1    0    0  501  502  0.00000000000E+00  0.00000000000E+00  0.26590062830E+03  0.26590062830E+03  0.00000000000E+00 0. -1.
         21   -1    0    0  502  503 -0.00000000000E+00 -0.00000000000E+00 -0.73787275987E+03  0.73787275987E+03  0.00000000000E+00 0.  1.
    9000007    1    1    2  501    0  0.94918347163E+02 -0.15015417170E+03 -0.15876228785E+03  0.46557623645E+03  0.40000000000E+03 0.  1.
   -9000007    1    1    2    0  503 -0.94918347163E+02  0.15015417170E+03 -0.31320984372E+03  0.53819715171E+03  0.40000000000E+03 0.  1.
<mgrwt>
<rscale>  2 0.43767084E+03</rscale>
<asrwt>0</asrwt>
<pdfrwt beam="1">  1       21 0.40907789E-01 0.43767084E+03</pdfrwt>
<pdfrwt beam="2">  1       21 0.11351889E+00 0.43767084E+03</pdfrwt>
<totfact> 0.30377601E+03</totfact>
</mgrwt>
</event>
<event>
 4    1  0.4690138E-002  0.5642803E+03  0.7818608E-02  0.9982416E-01
         21   -1    0    0  503  502  0.00000000000E+00  0.00000000000E+00  0.42645363694E+03  0.42645363694E+03  0.00000000000E+00 0.  1.
         21   -1    0    0  501  503 -0.00000000000E+00 -0.00000000000E+00 -0.89908284313E+03  0.89908284313E+03  0.00000000000E+00 0. -1.
    9000007    1    1    2  501    0  0.20590530159E+03 -0.34061016607E+03  0.36582464579E+02  0.56546490180E+03  0.40000000000E+03 0.  1.
   -9000007    1    1    2    0  502 -0.20590530159E+03  0.34061016607E+03 -0.50921167076E+03  0.76007157827E+03  0.40000000000E+03 0. -1.
<mgrwt>
<rscale>  2 0.56428032E+03</rscale>
<asrwt>0</asrwt>
<pdfrwt beam="1">  1       21 0.65608253E-01 0.56428032E+03</pdfrwt>
<pdfrwt beam="2">  1       21 0.13832044E+00 0.56428032E+03</pdfrwt>
<totfact> 0.63269620E+02</totfact>
</mgrwt>
</event>
<event>
 4    1  0.4690138E-002  0.4654278E+03  0.7818608E-02  0.1023219E+00
         21   -1    0    0  503  502  0.00000000000E+00  0.00000000000E+00  0.12311490153E+03  0.12311490153E+03  0.00000000000E+00 0.  1.
         21   -1    0    0  501  503 -0.00000000000E+00 -0.00000000000E+00 -0.18612768385E+04  0.18612768385E+04  0.00000000000E+00 0.  1.
    9000007    1    1    2  501    0  0.23495574747E+03  0.37667256125E+02 -0.63708760035E+03  0.78898899610E+03  0.40000000000E+03 0.  1.
   -9000007    1    1    2    0  502 -0.23495574747E+03 -0.37667256125E+02 -0.11010743367E+04  0.11954027440E+04  0.40000000000E+03 0.  1.
<mgrwt>
<rscale>  2 0.46542779E+03</rscale>
<asrwt>0</asrwt>
<pdfrwt beam="1">  1       21 0.18940754E-01 0.46542779E+03</pdfrwt>
<pdfrwt beam="2">  1       21 0.28635028E+00 0.46542779E+03</pdfrwt>
<totfact> 0.83826412E+02</totfact>
</mgrwt>
</event>
<event>
 4    1  0.4690138E-002  0.4330514E+03  0.7818608E-02  0.1032900E+00
         21   -1    0    0  501  502  0.00000000000E+00  0.00000000000E+00  0.16673456066E+04  0.16673456066E+04  0.00000000000E+00 0. -1.
         21   -1    0    0  502  503 -0.00000000000E+00 -0.00000000000E+00 -0.11423286896E+03  0.11423286896E+03  0.00000000000E+00 0. -1.
    9000007    1    1    2  501    0  0.13829253876E+03  0.91699049496E+02  0.66603195176E+03  0.79443823090E+03  0.40000000000E+03 0. -1.
   -9000007    1    1    2    0  503 -0.13829253876E+03 -0.91699049496E+02  0.88708078590E+03  0.98714024468E+03  0.40000000000E+03 0. -1.
<mgrwt>
<rscale>  2 0.43305143E+03</rscale>
<asrwt>0</asrwt>
<pdfrwt beam="1">  1       21 0.25651469E+00 0.43305143E+03</pdfrwt>
<pdfrwt beam="2">  1       21 0.17574289E-01 0.43305143E+03</pdfrwt>
<totfact> 0.14875885E+03</totfact>
</mgrwt>
</event>
<event>
 4    1  0.4690138E-002  0.4181264E+03  0.7818608E-02  0.1037678E+00
         21   -1    0    0  501  502  0.00000000000E+00  0.00000000000E+00  0.64429840158E+03  0.64429840158E+03  0.00000000000E+00 0. -1.
         21   -1    0    0  502  503 -0.00000000000E+00 -0.00000000000E+00 -0.30332439168E+03  0.30332439168E+03  0.00000000000E+00 0. -1.
    9000007    1    1    2  501    0 -0.12102963206E+03  0.13472960468E+02  0.32432376860E+03  0.52916500204E+03  0.40000000000E+03 0. -1.
   -9000007    1    1    2    0  503  0.12102963206E+03 -0.13472960468E+02  0.16650241301E+02  0.41845779122E+03  0.40000000000E+03 0. -1.
<mgrwt>
<rscale>  2 0.41812641E+03</rscale>
<asrwt>0</asrwt>
<pdfrwt beam="1">  1       21 0.99122831E-01 0.41812641E+03</pdfrwt>
<pdfrwt beam="2">  1       21 0.46665291E-01 0.41812641E+03</pdfrwt>
<totfact> 0.32470400E+03</totfact>
</mgrwt>
</event>
<event>
 4    1  0.4690138E-002  0.4183069E+03  0.7818608E-02  0.1037619E+00
         21   -1    0    0  503  502  0.00000000000E+00  0.00000000000E+00  0.55849991286E+03  0.55849991286E+03  0.00000000000E+00 0. -1.
         21   -1    0    0  501  503 -0.00000000000E+00 -0.00000000000E+00 -0.68221314768E+03  0.68221314768E+03  0.00000000000E+00 0. -1.
    9000007    1    1    2  501    0 -0.12231257952E+03 -0.45023803857E+01 -0.51804122307E+03  0.66584333543E+03  0.40000000000E+03 0. -1.
   -9000007    1    1    2    0  502  0.12231257952E+03  0.45023803857E+01  0.39432798825E+03  0.57486972511E+03  0.40000000000E+03 0. -1.
<mgrwt>
<rscale>  2 0.41830687E+03</rscale>
<asrwt>0</asrwt>
<pdfrwt beam="1">  1       21 0.85923064E-01 0.41830687E+03</pdfrwt>
<pdfrwt beam="2">  1       21 0.10495587E+00 0.41830687E+03</pdfrwt>
<totfact> 0.73171627E+02</totfact>
</mgrwt>
</event>
<event>
 4    1  0.4690138E-002  0.4374954E+03  0.7818608E-02  0.1031518E+00
         21   -1    0    0  503  502  0.00000000000E+00  0.00000000000E+00  0.23995889997E+03  0.23995889997E+03  0.00000000000E+00 0. -1.
         21   -1    0    0  501  503 -0.00000000000E+00 -0.00000000000E+00 -0.12279753120E+04  0.12279753120E+04  0.00000000000E+00 0. -1.
    9000007    1    1    2  501    0 -0.16654618961E+03  0.60535654418E+02 -0.92850078720E+03  0.10264092315E+04  0.40000000000E+03 0. -1.
   -9000007    1    1    2    0  502  0.16654618961E+03 -0.60535654418E+02 -0.59515624796E+02  0.44152498041E+03  0.40000000000E+03 0. -1.
<mgrwt>
<rscale>  2 0.43749537E+03</rscale>
<asrwt>0</asrwt>
<pdfrwt beam="1">  1       21 0.36916754E-01 0.43749537E+03</pdfrwt>
<pdfrwt beam="2">  1       21 0.18891928E+00 0.43749537E+03</pdfrwt>
<totfact> 0.94345205E+02</totfact>
</mgrwt>
</event>
<event>
 4    1  0.4690138E-002  0.4275982E+03  0.7818608E-02  0.1034621E+00
         21   -1    0    0  501  502  0.00000000000E+00  0.00000000000E+00  0.17153897259E+03  0.17153897259E+03  0.00000000000E+00 0.  1.
         21   -1    0    0  502  503 -0.00000000000E+00 -0.00000000000E+00 -0.13171241997E+04  0.13171241997E+04  0.00000000000E+00 0. -1.
    9000007    1    1    2  501    0  0.14822776821E+03  0.29474814603E+02 -0.24770552835E+03  0.49416420827E+03  0.40000000000E+03 0.  1.
   -9000007    1    1    2    0  503 -0.14822776821E+03 -0.29474814603E+02 -0.89787969872E+03  0.99449896397E+03  0.40000000000E+03 0. -1.
<mgrwt>
<rscale>  2 0.42759822E+03</rscale>
<asrwt>0</asrwt>
<pdfrwt beam="1">  1       21 0.26390611E-01 0.42759822E+03</pdfrwt>
<pdfrwt beam="2">  1       21 0.20263450E+00 0.42759822E+03</pdfrwt>
<totfact> 0.14968928E+03</totfact>
</mgrwt>
</event>
<event>
 4    1  0.4690138E-002  0.5000866E+03  0.7818608E-02  0.1013756E+00
         21   -1    0    0  503  502  0.00000000000E+00  0.00000000000E+00  0.37270348541E+03  0.37270348541E+03  0.00000000000E+00 0. -1.
         21   -1    0    0  501  503 -0.00000000000E+00 -0.00000000000E+00 -0.11830404721E+04  0.11830404721E+04  0.00000000000E+00 0.  1.
    9000007    1    1    2  501    0 -0.50288743319E+02 -0.29590135624E+03 -0.91691818556E+03  0.10444259329E+04  0.40000000000E+03 0.  1.
   -9000007    1    1    2    0  502  0.50288743319E+02  0.29590135624E+03  0.10658119886E+03  0.51131802460E+03  0.40000000000E+03 0. -1.
<mgrwt>
<rscale>  2 0.50008656E+03</rscale>
<asrwt>0</asrwt>
<pdfrwt beam="1">  1       21 0.57338997E-01 0.50008656E+03</pdfrwt>
<pdfrwt beam="2">  1       21 0.18200623E+00 0.50008656E+03</pdfrwt>
<totfact> 0.40541246E+02</totfact>
</mgrwt>
</event>
<event>
 4    1  0.4690138E-002  0.4109366E+03  0.7818608E-02  0.1040057E+00
         21   -1    0    0  501  502  0.00000000000E+00  0.00000000000E+00  0.28578993475E+04  0.28578993475E+04  0.00000000000E+00 0.  1.
         21   -1    0    0  502  503 -0.00000000000E+00 -0.00000000000E+00 -0.64550123511E+02  0.64550123511E+02  0.00000000000E+00 0.  1.
    9000007    1    1    2  501    0 -0.52559768219E+02  0.78142964951E+02  0.18217159909E+04  0.18674897600E+04  0.40000000000E+03 0. -1.
   -9000007    1    1    2    0  503  0.52559768219E+02 -0.78142964951E+02  0.97163323304E+03  0.10549597110E+04  0.40000000000E+03 0. -1.
<mgrwt>
<rscale>  2 0.41093655E+03</rscale>
<asrwt>0</asrwt>
<pdfrwt beam="1">  1       21 0.43967673E+00 0.41093655E+03</pdfrwt>
<pdfrwt beam="2">  1       21 0.99307904E-02 0.41093655E+03</pdfrwt>
<totfact> 0.31408938E+02</totfact>
</mgrwt>
</event>
<event>
 4    1  0.4690138E-002  0.4544681E+03  0.7818608E-02  0.1026398E+00
         21   -1    0    0  501  502  0.00000000000E+00  0.00000000000E+00  0.13959490830E+04  0.13959490830E+04  0.00000000000E+00 0.  1.
         21   -1    0    0  502  503 -0.00000000000E+00 -0.00000000000E+00 -0.17826626196E+03  0.17826626196E+03  0.00000000000E+00 0.  1.
    9000007    1    1    2  501    0 -0.19186761571E+03 -0.98630974321E+02  0.93339250424E+03  0.10381535619E+04  0.40000000000E+03 0.  1.
   -9000007    1    1    2    0  503  0.19186761571E+03  0.98630974321E+02  0.28429031677E+03  0.53606178306E+03  0.40000000000E+03 0.  1.
<mgrwt>
<rscale>  2 0.45446810E+03</rscale>
<asrwt>0</asrwt>
<pdfrwt beam="1">  1       21 0.21476139E+00 0.45446810E+03</pdfrwt>
<pdfrwt beam="2">  1       21 0.27425580E-01 0.45446810E+03</pdfrwt>
<totfact> 0.11424135E+03</totfact>
</mgrwt>
</event>
<event>
 4    1  0.4690138E-002  0.5396709E+03  0.7818608E-02  0.1003913E+00
         21   -1    0    0  503  502  0.00000000000E+00  0.00000000000E+00  0.30610906908E+03  0.30610906908E+03  0.00000000000E+00 0. -1.
         21   -1    0    0  501  503 -0.00000000000E+00 -0.00000000000E+00 -0.13136654516E+04  0.13136654516E+04  0.00000000000E+00 0.  1.
    9000007    1    1    2  501    0 -0.81417404966E+02 -0.35300969380E+03 -0.92905452847E+03  0.10744240106E+04  0.40000000000E+03 0.  1.
   -9000007    1    1    2    0  502  0.81417404966E+02  0.35300969380E+03 -0.78501854078E+02  0.54535051007E+03  0.40000000000E+03 0. -1.
<mgrwt>
<rscale>  2 0.53967086E+03</rscale>
<asrwt>0</asrwt>
<pdfrwt beam="1">  1       21 0.47093703E-01 0.53967086E+03</pdfrwt>
<pdfrwt beam="2">  1       21 0.20210238E+00 0.53967086E+03</pdfrwt>
<totfact> 0.44316633E+02</totfact>
</mgrwt>
</event>
<event>
 4    1  0.4690138E-002  0.4098495E+03  0.7818608E-02  0.1040422E+00
         21   -1    0    0  501  502  0.00000000000E+00  0.00000000000E+00  0.19472445015E+04  0.19472445015E+04  0.00000000000E+00 0. -1.
         21   -1    0    0  502  503 -0.00000000000E+00 -0.00000000000E+00 -0.75114508783E+03  0.75114508783E+03  0.00000000000E+00 0. -1.
    9000007    1    1    2  501    0 -0.74470110719E+02  0.49303228145E+02  0.18674097222E+04  0.19118566045E+04  0.40000000000E+03 0. -1.
   -9000007    1    1    2    0  503  0.74470110719E+02 -0.49303228145E+02 -0.67131030858E+03  0.78653298475E+03  0.40000000000E+03 0. -1.
<mgrwt>
<rscale>  2 0.40984949E+03</rscale>
<asrwt>0</asrwt>
<pdfrwt beam="1">  1       21 0.29957607E+00 0.40984949E+03</pdfrwt>
<pdfrwt beam="2">  1       21 0.11556078E+00 0.40984949E+03</pdfrwt>
<totfact> 0.15208893E+01</totfact>
</mgrwt>
</event>
<event>
 4    1  0.4690138E-002  0.4174371E+03  0.7818608E-02  0.1037904E+00
         21   -1    0    0  501  502  0.00000000000E+00  0.00000000000E+00  0.19986298705E+04  0.19986298705E+04  0.00000000000E+00 0.  1.
         21   -1    0    0  502  503 -0.00000000000E+00 -0.00000000000E+00 -0.35720020637E+03  0.35720020637E+03  0.00000000000E+00 0.  1.
    9000007    1    1    2  501    0  0.91541368262E+02 -0.76641368101E+02  0.18448350721E+04  0.18914730145E+04  0.40000000000E+03 0.  1.
   -9000007    1    1    2    0  503 -0.91541368262E+02  0.76641368101E+02 -0.20340540794E+03  0.46435706238E+03  0.40000000000E+03 0.  1.
<mgrwt>
<rscale>  2 0.41743709E+03</rscale>
<asrwt>0</asrwt>
<pdfrwt beam="1">  1       21 0.30748151E+00 0.41743709E+03</pdfrwt>
<pdfrwt beam="2">  1       21 0.54953879E-01 0.41743709E+03</pdfrwt>
<totfact> 0.75707036E+01</totfact>
</mgrwt>
</event>
<event>
 4    1  0.4690138E-002  0.5067131E+03  0.7818608E-02  0.1012041E+00
         21   -1    0    0  501  502  0.00000000000E+00  0.00000000000E+00  0.28932973878E+03  0.28932973878E+03  0.00000000000E+00 0. -1.
         21   -1    0    0  502  503 -0.00000000000E+00 -0.00000000000E+00 -0.89363807921E+03  0.89363807921E+03  0.00000000000E+00 0. -1.
    9000007    1    1    2  501    0 -0.57515453943E+02 -0.30569608512E+03 -0.25283064122E+03  0.56628743324E+03  0.40000000000E+03 0. -1.
   -9000007    1    1    2    0  503  0.57515453943E+02  0.30569608512E+03 -0.35147769921E+03  0.61668038476E+03  0.40000000000E+03 0. -1.
<mgrwt>
<rscale>  2 0.50671306E+03</rscale>
<asrwt>0</asrwt>
<pdfrwt beam="1">  1       21 0.44512267E-01 0.50671306E+03</pdfrwt>
<pdfrwt beam="2">  1       21 0.13748278E+00 0.50671306E+03</pdfrwt>
<totfact> 0.15187199E+03</totfact>
</mgrwt>
</event>
<event>
 4    1  0.4690138E-002  0.4339314E+03  0.7818608E-02  0.1032625E+00
         21   -1    0    0  503  502  0.00000000000E+00  0.00000000000E+00  0.24606898016E+03  0.24606898016E+03  0.00000000000E+00 0. -1.
         21   -1    0    0  501  503 -0.00000000000E+00 -0.00000000000E+00 -0.12696988289E+04  0.12696988289E+04  0.00000000000E+00 0.  1.
    9000007    1    1    2  501    0 -0.99951472521E+02 -0.13530025904E+03 -0.98953619713E+03  0.10804991173E+04  0.40000000000E+03 0.  1.
   -9000007    1    1    2    0  502  0.99951472521E+02  0.13530025904E+03 -0.34093651571E+02  0.43526869177E+03  0.40000000000E+03 0. -1.
<mgrwt>
<rscale>  2 0.43393140E+03</rscale>
<asrwt>0</asrwt>
<pdfrwt beam="1">  1       21 0.37856766E-01 0.43393140E+03</pdfrwt>
<pdfrwt beam="2">  1       21 0.19533828E+00 0.43393140E+03</pdfrwt>
<totfact> 0.81201583E+02</totfact>
</mgrwt>
</event>
<event>
 4    1  0.4690138E-002  0.4222097E+03  0.7818608E-02  0.1036350E+00
         21   -1    0    0  503  502  0.00000000000E+00  0.00000000000E+00  0.20780755389E+03  0.20780755389E+03  0.00000000000E+00 0. -1.
         21   -1    0    0  501  503 -0.00000000000E+00 -0.00000000000E+00 -0.11430426441E+04  0.11430426441E+04  0.00000000000E+00 0. -1.
    9000007    1    1    2  501    0 -0.12977349529E+03  0.37681091307E+02 -0.80501331416E+03  0.90901455472E+03  0.40000000000E+03 0. -1.
   -9000007    1    1    2    0  502  0.12977349529E+03 -0.37681091307E+02 -0.13022177609E+03  0.44183564330E+03  0.40000000000E+03 0. -1.
<mgrwt>
<rscale>  2 0.42220969E+03</rscale>
<asrwt>0</asrwt>
<pdfrwt beam="1">  1       21 0.31970394E-01 0.42220969E+03</pdfrwt>
<pdfrwt beam="2">  1       21 0.17585271E+00 0.42220969E+03</pdfrwt>
<totfact> 0.15670255E+03</totfact>
</mgrwt>
</event>
<event>
 4    1  0.4690138E-002  0.4734281E+03  0.7818608E-02  0.1020957E+00
         21   -1    0    0  501  502  0.00000000000E+00  0.00000000000E+00  0.97544833301E+03  0.97544833301E+03  0.00000000000E+00 0.  1.
         21   -1    0    0  502  503 -0.00000000000E+00 -0.00000000000E+00 -0.57779895063E+03  0.57779895063E+03  0.00000000000E+00 0. -1.
    9000007    1    1    2  501    0 -0.25294444337E+03 -0.12381216269E+02  0.80155974561E+03  0.93093083080E+03  0.40000000000E+03 0.  1.
   -9000007    1    1    2    0  503  0.25294444337E+03  0.12381216269E+02 -0.40391036324E+03  0.62231645284E+03  0.40000000000E+03 0. -1.
<mgrwt>
<rscale>  2 0.47342812E+03</rscale>
<asrwt>0</asrwt>
<pdfrwt beam="1">  1       21 0.15006897E+00 0.47342812E+03</pdfrwt>
<pdfrwt beam="2">  1       21 0.88892147E-01 0.47342812E+03</pdfrwt>
<totfact> 0.26216286E+02</totfact>
</mgrwt>
</event>
<event>
 4    1  0.4690138E-002  0.4505186E+03  0.7818608E-02  0.1027567E+00
         21   -1    0    0  503  502  0.00000000000E+00  0.00000000000E+00  0.31489128598E+03  0.31489128598E+03  0.00000000000E+00 0. -1.
         21   -1    0    0  501  503 -0.00000000000E+00 -0.00000000000E+00 -0.10038269287E+04  0.10038269287E+04  0.00000000000E+00 0. -1.
    9000007    1    1    2  501    0 -0.97528573218E+02  0.18290763441E+03 -0.73892500456E+03  0.86543468135E+03  0.40000000000E+03 0. -1.
   -9000007    1    1    2    0  502  0.97528573218E+02 -0.18290763441E+03  0.49989361808E+02  0.45328353336E+03  0.40000000000E+03 0. -1.
<mgrwt>
<rscale>  2 0.45051862E+03</rscale>
<asrwt>0</asrwt>
<pdfrwt beam="1">  1       21 0.48444813E-01 0.45051862E+03</pdfrwt>
<pdfrwt beam="2">  1       21 0.15443491E+00 0.45051862E+03</pdfrwt>
<totfact> 0.94921031E+02</totfact>
</mgrwt>
</event>
<event>
 4    1  0.4690138E-002  0.4450706E+03  0.7818608E-02  0.1029202E+00
         21   -1    0    0  501  502  0.00000000000E+00  0.00000000000E+00  0.64739589302E+03  0.64739589302E+03  0.00000000000E+00 0.  1.
         21   -1    0    0  502  503 -0.00000000000E+00 -0.00000000000E+00 -0.46742878952E+03  0.46742878952E+03  0.00000000000E+00 0.  1.
    9000007    1    1    2  501    0  0.10635000458E+03  0.16363832396E+03  0.41758149996E+03  0.61029675868E+03  0.40000000000E+03 0.  1.
   -9000007    1    1    2    0  503 -0.10635000458E+03 -0.16363832396E+03 -0.23761439646E+03  0.50452792385E+03  0.40000000000E+03 0.  1.
<mgrwt>
<rscale>  2 0.44507058E+03</rscale>
<asrwt>0</asrwt>
<pdfrwt beam="1">  1       21 0.99599368E-01 0.44507058E+03</pdfrwt>
<pdfrwt beam="2">  1       21 0.71912122E-01 0.44507058E+03</pdfrwt>
<totfact> 0.12381368E+03</totfact>
</mgrwt>
</event>
<event>
 4    1  0.4690138E-002  0.5509121E+03  0.7818608E-02  0.1001283E+00
         21   -1    0    0  503  502  0.00000000000E+00  0.00000000000E+00  0.16569396784E+03  0.16569396784E+03  0.00000000000E+00 0.  1.
         21   -1    0    0  501  503 -0.00000000000E+00 -0.00000000000E+00 -0.33945182769E+04  0.33945182769E+04  0.00000000000E+00 0.  1.
    9000007    1    1    2  501    0  0.37191238192E+03 -0.72008919393E+02 -0.28222510010E+04  0.28755181823E+04  0.40000000000E+03 0.  1.
   -9000007    1    1    2    0  502 -0.37191238192E+03  0.72008919393E+02 -0.40657330814E+03  0.68469406248E+03  0.40000000000E+03 0.  1.
<mgrwt>
<rscale>  2 0.55091207E+03</rscale>
<asrwt>0</asrwt>
<pdfrwt beam="1">  1       21 0.25491382E-01 0.55091207E+03</pdfrwt>
<pdfrwt beam="2">  1       21 0.52223354E+00 0.55091207E+03</pdfrwt>
<totfact> 0.12958906E+01</totfact>
</mgrwt>
</event>
<event>
 4    1  0.4690138E-002  0.4905793E+03  0.7818608E-02  0.1016268E+00
         21   -1    0    0  501  502  0.00000000000E+00  0.00000000000E+00  0.23613589523E+03  0.23613589523E+03  0.00000000000E+00 0.  1.
         21   -1    0    0  502  503 -0.00000000000E+00 -0.00000000000E+00 -0.10428032217E+04  0.10428032217E+04  0.00000000000E+00 0. -1.
    9000007    1    1    2  501    0 -0.27891952051E+03 -0.53590317328E+02 -0.30711265328E+03  0.57877992608E+03  0.40000000000E+03 0.  1.
   -9000007    1    1    2    0  503  0.27891952051E+03  0.53590317328E+02 -0.49955467318E+03  0.70015919084E+03  0.40000000000E+03 0. -1.
<mgrwt>
<rscale>  2 0.49057927E+03</rscale>
<asrwt>0</asrwt>
<pdfrwt beam="1">  1       21 0.36328599E-01 0.49057927E+03</pdfrwt>
<pdfrwt beam="2">  1       21 0.16043126E+00 0.49057927E+03</pdfrwt>
<totfact> 0.15272479E+03</totfact>
</mgrwt>
</event>
<event>
 4    1  0.4690138E-002  0.5744279E+03  0.7818608E-02  0.9959928E-01
         21   -1    0    0  501  502  0.00000000000E+00  0.00000000000E+00  0.77598703698E+03  0.77598703698E+03  0.00000000000E+00 0.  1.
         21   -1    0    0  502  503 -0.00000000000E+00 -0.00000000000E+00 -0.44531045471E+03  0.44531045471E+03  0.00000000000E+00 0. -1.
    9000007    1    1    2  501    0  0.25430616408E+02 -0.41148593564E+03  0.29503366637E+03  0.64576486105E+03  0.40000000000E+03 0.  1.
   -9000007    1    1    2    0  503 -0.25430616408E+02  0.41148593564E+03  0.35642915911E+02  0.57553263064E+03  0.40000000000E+03 0.  1.
<mgrwt>
<rscale>  2 0.57442788E+03</rscale>
<asrwt>0</asrwt>
<pdfrwt beam="1">  1       21 0.11938262E+00 0.57442788E+03</pdfrwt>
<pdfrwt beam="2">  1       21 0.68509301E-01 0.57442788E+03</pdfrwt>
<totfact> 0.83994636E+02</totfact>
</mgrwt>
</event>
<event>
 4    1  0.4690138E-002  0.5958235E+03  0.7818608E-02  0.9914109E-01
         21   -1    0    0  501  502  0.00000000000E+00  0.00000000000E+00  0.37177596498E+03  0.37177596498E+03  0.00000000000E+00 0. -1.
         21   -1    0    0  502  503 -0.00000000000E+00 -0.00000000000E+00 -0.95514386113E+03  0.95514386113E+03  0.00000000000E+00 0. -1.
    9000007    1    1    2  501    0 -0.25252248839E+03  0.36226789582E+03 -0.30247245394E+03  0.66820297880E+03  0.40000000000E+03 0. -1.
   -9000007    1    1    2    0  503  0.25252248839E+03 -0.36226789582E+03 -0.28089544221E+03  0.65871684732E+03  0.40000000000E+03 0. -1.
<mgrwt>
<rscale>  2 0.59582349E+03</rscale>
<asrwt>0</asrwt>
<pdfrwt beam="1">  1       21 0.57196303E-01 0.59582349E+03</pdfrwt>
<pdfrwt beam="2">  1       21 0.14694521E+00 0.59582349E+03</pdfrwt>
<totfact> 0.72022208E+02</totfact>
</mgrwt>
</event>
<event>
 4    1  0.4690138E-002  0.5727512E+03  0.7818608E-02  0.9963609E-01
         21   -1    0    0  501  502  0.00000000000E+00  0.00000000000E+00  0.13035845657E+04  0.13035845657E+04  0.00000000000E+00 0. -1.
         21   -1    0    0  502  503 -0.00000000000E+00 -0.00000000000E+00 -0.27843709887E+03  0.27843709887E+03  0.00000000000E+00 0.  1.
    9000007    1    1    2  501    0 -0.15223673732E+03 -0.38061519193E+03  0.75793219741E+03  0.95000271810E+03  0.40000000000E+03 0. -1.
   -9000007    1    1    2    0  503  0.15223673732E+03  0.38061519193E+03  0.26721526945E+03  0.63201894651E+03  0.40000000000E+03 0.  1.
<mgrwt>
<rscale>  2 0.57275121E+03</rscale>
<asrwt>0</asrwt>
<pdfrwt beam="1">  1       21 0.20055147E+00 0.57275121E+03</pdfrwt>
<pdfrwt beam="2">  1       21 0.42836478E-01 0.57275121E+03</pdfrwt>
<totfact> 0.54686656E+02</totfact>
</mgrwt>
</event>
<event>
 4    1  0.4690138E-002  0.4549834E+03  0.7818608E-02  0.1026246E+00
         21   -1    0    0  503  502  0.00000000000E+00  0.00000000000E+00  0.31912451916E+03  0.31912451916E+03  0.00000000000E+00 0. -1.
         21   -1    0    0  501  503 -0.00000000000E+00 -0.00000000000E+00 -0.88913810161E+03  0.88913810161E+03  0.00000000000E+00 0. -1.
    9000007    1    1    2  501    0  0.21614544259E+03  0.17060326750E+02 -0.59917760387E+03  0.75234547123E+03  0.40000000000E+03 0. -1.
   -9000007    1    1    2    0  502 -0.21614544259E+03 -0.17060326750E+02  0.29164021425E+02  0.45591714954E+03  0.40000000000E+03 0. -1.
<mgrwt>
<rscale>  2 0.45498341E+03</rscale>
<asrwt>0</asrwt>
<pdfrwt beam="1">  1       21 0.49096080E-01 0.45498341E+03</pdfrwt>
<pdfrwt beam="2">  1       21 0.13679048E+00 0.45498341E+03</pdfrwt>
<totfact> 0.12766366E+03</totfact>
</mgrwt>
</event>
<event>
 4    1  0.4690138E-002  0.4196694E+03  0.7818608E-02  0.1037174E+00
         21   -1    0    0  503  502  0.00000000000E+00  0.00000000000E+00  0.98639519342E+03  0.98639519342E+03  0.00000000000E+00 0. -1.
         21   -1    0    0  501  503 -0.00000000000E+00 -0.00000000000E+00 -0.21644121014E+03  0.21644121014E+03  0.00000000000E+00 0. -1.
    9000007    1    1    2  501    0 -0.71362243388E+02  0.10502284137E+03  0.13334428808E+03  0.44034425868E+03  0.40000000000E+03 0. -1.
   -9000007    1    1    2    0  502  0.71362243388E+02 -0.10502284137E+03  0.63660969520E+03  0.76249214489E+03  0.40000000000E+03 0. -1.
<mgrwt>
<rscale>  2 0.41966935E+03</rscale>
<asrwt>0</asrwt>
<pdfrwt beam="1">  1       21 0.15175310E+00 0.41966935E+03</pdfrwt>
<pdfrwt beam="2">  1       21 0.33298648E-01 0.41966935E+03</pdfrwt>
<totfact> 0.21845870E+03</totfact>
</mgrwt>
</event>
<event>
 4    1  0.4690138E-002  0.5853682E+03  0.7818608E-02  0.9936236E-01
         21   -1    0    0  503  502  0.00000000000E+00  0.00000000000E+00  0.73580381055E+03  0.73580381055E+03  0.00000000000E+00 0.  1.
         21   -1    0    0  501  503 -0.00000000000E+00 -0.00000000000E+00 -0.57599082134E+03  0.57599082134E+03  0.00000000000E+00 0. -1.
    9000007    1    1    2  501    0  0.41400762691E+03 -0.10608327109E+03 -0.20711788432E+03  0.62092978150E+03  0.40000000000E+03 0.  1.
   -9000007    1    1    2    0  502 -0.41400762691E+03  0.10608327109E+03  0.36693087353E+03  0.69086485039E+03  0.40000000000E+03 0.  1.
<mgrwt>
<rscale>  2 0.58536824E+03</rscale>
<asrwt>0</asrwt>
<pdfrwt beam="1">  1       21 0.11320059E+00 0.58536824E+03</pdfrwt>
<pdfrwt beam="2">  1       21 0.88613972E-01 0.58536824E+03</pdfrwt>
<totfact> 0.52785852E+02</totfact>
</mgrwt>
</event>
<event>
 4    1  0.4690138E-002  0.4087042E+03  0.7818608E-02  0.1040807E+00
         21   -1    0    0  501  502  0.00000000000E+00  0.00000000000E+00  0.26605265699E+03  0.26605265699E+03  0.00000000000E+00 0.  1.
         21   -1    0    0  502  503 -0.00000000000E+00 -0.00000000000E+00 -0.69518225511E+03  0.69518225511E+03  0.00000000000E+00 0.  1.
    9000007    1    1    2  501    0  0.36119041652E+01 -0.83821868540E+02 -0.64980457198E+02  0.41383766300E+03  0.40000000000E+03 0.  1.
   -9000007    1    1    2    0  503 -0.36119041652E+01  0.83821868540E+02 -0.36414914092E+03  0.54739724911E+03  0.40000000000E+03 0.  1.
<mgrwt>
<rscale>  2 0.40870423E+03</rscale>
<asrwt>0</asrwt>
<pdfrwt beam="1">  1       21 0.40931179E-01 0.40870423E+03</pdfrwt>
<pdfrwt beam="2">  1       21 0.10695111E+00 0.40870423E+03</pdfrwt>
<totfact> 0.35557684E+03</totfact>
</mgrwt>
</event>
<event>
 4    1  0.4690138E-002  0.7236827E+03  0.7818608E-02  0.9677567E-01
         21   -1    0    0  503  502  0.00000000000E+00  0.00000000000E+00  0.43036007401E+03  0.43036007401E+03  0.00000000000E+00 0. -1.
         21   -1    0    0  501  503 -0.00000000000E+00 -0.00000000000E+00 -0.12189927072E+04  0.12189927072E+04  0.00000000000E+00 0.  1.
    9000007    1    1    2  501    0  0.60049736967E+03 -0.55852480086E+02 -0.36036418555E+03  0.80844229029E+03  0.40000000000E+03 0. -1.
   -9000007    1    1    2    0  502 -0.60049736967E+03  0.55852480086E+02 -0.42826844764E+03  0.84091049093E+03  0.40000000000E+03 0. -1.
<mgrwt>
<rscale>  2 0.72368266E+03</rscale>
<asrwt>0</asrwt>
<pdfrwt beam="1">  1       21 0.66209241E-01 0.72368266E+03</pdfrwt>
<pdfrwt beam="2">  1       21 0.18753734E+00 0.72368266E+03</pdfrwt>
<totfact> 0.24842323E+02</totfact>
</mgrwt>
</event>
<event>
 4    1  0.4690138E-002  0.4370636E+03  0.7818608E-02  0.1031652E+00
         21   -1    0    0  503  502  0.00000000000E+00  0.00000000000E+00  0.51884248183E+03  0.51884248183E+03  0.00000000000E+00 0. -1.
         21   -1    0    0  501  503 -0.00000000000E+00 -0.00000000000E+00 -0.44784700937E+03  0.44784700937E+03  0.00000000000E+00 0. -1.
    9000007    1    1    2  501    0 -0.99574325062E+02  0.14529110692E+03 -0.16836906669E+03  0.46837238879E+03  0.40000000000E+03 0. -1.
   -9000007    1    1    2    0  502  0.99574325062E+02 -0.14529110692E+03  0.23936453915E+03  0.49831710242E+03  0.40000000000E+03 0. -1.
<mgrwt>
<rscale>  2 0.43706356E+03</rscale>
<asrwt>0</asrwt>
<pdfrwt beam="1">  1       21 0.79821921E-01 0.43706356E+03</pdfrwt>
<pdfrwt beam="2">  1       21 0.68899540E-01 0.43706356E+03</pdfrwt>
<totfact> 0.23078275E+03</totfact>
</mgrwt>
</event>
<event>
 4    1  0.4690138E-002  0.5369889E+03  0.7818608E-02  0.1004551E+00
         21   -1    0    0  501  502  0.00000000000E+00  0.00000000000E+00  0.71070976903E+03  0.71070976903E+03  0.00000000000E+00 0. -1.
         21   -1    0    0  502  503 -0.00000000000E+00 -0.00000000000E+00 -0.46813790241E+03  0.46813790241E+03  0.00000000000E+00 0. -1.
    9000007    1    1    2  501    0 -0.35033107650E+03 -0.75001619765E+02  0.33649299288E+03  0.63370706197E+03  0.40000000000E+03 0. -1.
   -9000007    1    1    2    0  503  0.35033107650E+03  0.75001619765E+02 -0.93921126261E+02  0.54514060947E+03  0.40000000000E+03 0. -1.
<mgrwt>
<rscale>  2 0.53698893E+03</rscale>
<asrwt>0</asrwt>
<pdfrwt beam="1">  1       21 0.10933997E+00 0.53698893E+03</pdfrwt>
<pdfrwt beam="2">  1       21 0.72021215E-01 0.53698893E+03</pdfrwt>
<totfact> 0.94744387E+02</totfact>
</mgrwt>
</event>
<event>
 4    1  0.4690138E-002  0.5795324E+03  0.7818608E-02  0.9948804E-01
         21   -1    0    0  501  502  0.00000000000E+00  0.00000000000E+00  0.27538902460E+03  0.27538902460E+03  0.00000000000E+00 0.  1.
         21   -1    0    0  502  503 -0.00000000000E+00 -0.00000000000E+00 -0.12549189130E+04  0.12549189130E+04  0.00000000000E+00 0. -1.
    9000007    1    1    2  501    0  0.37552129424E+03  0.18665899738E+03 -0.36135677613E+03  0.68296159730E+03  0.40000000000E+03 0.  1.
   -9000007    1    1    2    0  503 -0.37552129424E+03 -0.18665899738E+03 -0.61817311231E+03  0.84734634035E+03  0.40000000000E+03 0. -1.
<mgrwt>
<rscale>  2 0.57953242E+03</rscale>
<asrwt>0</asrwt>
<pdfrwt beam="1">  1       21 0.42367543E-01 0.57953242E+03</pdfrwt>
<pdfrwt beam="2">  1       21 0.19306445E+00 0.57953242E+03</pdfrwt>
<totfact> 0.62754719E+02</totfact>
</mgrwt>
</event>
<event>
 4    1  0.4690138E-002  0.4891260E+03  0.7818608E-02  0.1016657E+00
         21   -1    0    0  503  502  0.00000000000E+00  0.00000000000E+00  0.14896561542E+04  0.14896561542E+04  0.00000000000E+00 0. -1.
         21   -1    0    0  501  503 -0.00000000000E+00 -0.00000000000E+00 -0.16169169115E+03  0.16169169115E+03  0.00000000000E+00 0. -1.
    9000007    1    1    2  501    0  0.77291592483E+01 -0.28139748636E+03  0.73171175987E+03  0.88013998021E+03  0.40000000000E+03 0. -1.
   -9000007    1    1    2    0  502 -0.77291592483E+01  0.28139748636E+03  0.59625270322E+03  0.77120786519E+03  0.40000000000E+03 0. -1.
<mgrwt>
<rscale>  2 0.48912604E+03</rscale>
<asrwt>0</asrwt>
<pdfrwt beam="1">  1       21 0.22917786E+00 0.48912604E+03</pdfrwt>
<pdfrwt beam="2">  1       21 0.24875646E-01 0.48912604E+03</pdfrwt>
<totfact> 0.11012261E+03</totfact>
</mgrwt>
</event>
<event>
 4    1  0.4690138E-002  0.5629096E+03  0.7818608E-02  0.9985493E-01
         21   -1    0    0  503  502  0.00000000000E+00  0.00000000000E+00  0.22228675340E+04  0.22228675340E+04  0.00000000000E+00 0.  1.
         21   -1    0    0  501  503 -0.00000000000E+00 -0.00000000000E+00 -0.57765486425E+03  0.57765486425E+03  0.00000000000E+00 0.  1.
    9000007    1    1    2  501    0  0.19222290787E+03  0.34629119104E+03 -0.39266254015E+03  0.68633162956E+03  0.40000000000E+03 0.  1.
   -9000007    1    1    2    0  502 -0.19222290787E+03 -0.34629119104E+03  0.20378752099E+04  0.21141907687E+04  0.40000000000E+03 0.  1.
<mgrwt>
<rscale>  2 0.56290962E+03</rscale>
<asrwt>0</asrwt>
<pdfrwt beam="1">  1       21 0.34197962E+00 0.56290962E+03</pdfrwt>
<pdfrwt beam="2">  1       21 0.88869980E-01 0.56290962E+03</pdfrwt>
<totfact> 0.14347998E+01</totfact>
</mgrwt>
</event>
<event>
 4    1  0.4690138E-002  0.4064959E+03  0.7818608E-02  0.1041553E+00
         21   -1    0    0  501  502  0.00000000000E+00  0.00000000000E+00  0.12655211997E+03  0.12655211997E+03  0.00000000000E+00 0. -1.
         21   -1    0    0  502  503 -0.00000000000E+00 -0.00000000000E+00 -0.18693188900E+04  0.18693188900E+04  0.00000000000E+00 0. -1.
    9000007    1    1    2  501    0  0.64513276665E+02 -0.32816543333E+02 -0.32341664264E+03  0.51945857691E+03  0.40000000000E+03 0. -1.
   -9000007    1    1    2    0  503 -0.64513276665E+02  0.32816543333E+02 -0.14193501274E+04  0.14764124331E+04  0.40000000000E+03 0. -1.
<mgrwt>
<rscale>  2 0.40649587E+03</rscale>
<asrwt>0</asrwt>
<pdfrwt beam="1">  1       21 0.19469557E-01 0.40649587E+03</pdfrwt>
<pdfrwt beam="2">  1       21 0.28758752E+00 0.40649587E+03</pdfrwt>
<totfact> 0.80806890E+02</totfact>
</mgrwt>
</event>
<event>
 4    1  0.4690138E-002  0.4384178E+03  0.7818608E-02  0.1031233E+00
         21   -1    0    0  501  502  0.00000000000E+00  0.00000000000E+00  0.10906444013E+04  0.10906444013E+04  0.00000000000E+00 0. -1.
         21   -1    0    0  502  503 -0.00000000000E+00 -0.00000000000E+00 -0.17941753158E+03  0.17941753158E+03  0.00000000000E+00 0. -1.
    9000007    1    1    2  501    0  0.31418389643E+02  0.17670042991E+03  0.54018438885E+03  0.69570779146E+03  0.40000000000E+03 0. -1.
   -9000007    1    1    2    0  503 -0.31418389643E+02 -0.17670042991E+03  0.37104248084E+03  0.57435414139E+03  0.40000000000E+03 0. -1.
<mgrwt>
<rscale>  2 0.43841779E+03</rscale>
<asrwt>0</asrwt>
<pdfrwt beam="1">  1       21 0.16779144E+00 0.43841779E+03</pdfrwt>
<pdfrwt beam="2">  1       21 0.27602698E-01 0.43841779E+03</pdfrwt>
<totfact> 0.23811248E+03</totfact>
</mgrwt>
</event>
<event>
 4    1  0.4690138E-002  0.6995755E+03  0.7818608E-02  0.9717958E-01
         21   -1    0    0  501  502  0.00000000000E+00  0.00000000000E+00  0.24991018039E+04  0.24991018039E+04  0.00000000000E+00 0. -1.
         21   -1    0    0  502  503 -0.00000000000E+00 -0.00000000000E+00 -0.24563881221E+03  0.24563881221E+03  0.00000000000E+00 0.  1.
    9000007    1    1    2  501    0  0.55223802514E+03  0.15632982475E+03  0.17446968767E+04  0.18797268530E+04  0.40000000000E+03 0. -1.
   -9000007    1    1    2    0  503 -0.55223802514E+03 -0.15632982475E+03  0.50876611501E+03  0.86501376307E+03  0.40000000000E+03 0.  1.
<mgrwt>
<rscale>  2 0.69957548E+03</rscale>
<asrwt>0</asrwt>
<pdfrwt beam="1">  1       21 0.38447718E+00 0.69957548E+03</pdfrwt>
<pdfrwt beam="2">  1       21 0.37790588E-01 0.69957548E+03</pdfrwt>
<totfact> 0.47569965E+01</totfact>
</mgrwt>
</event>
<event>
 4    1  0.4690138E-002  0.4482394E+03  0.7818608E-02  0.1028248E+00
         21   -1    0    0  503  502  0.00000000000E+00  0.00000000000E+00  0.75537962378E+03  0.75537962378E+03  0.00000000000E+00 0.  1.
         21   -1    0    0  501  503 -0.00000000000E+00 -0.00000000000E+00 -0.38157676605E+03  0.38157676605E+03  0.00000000000E+00 0.  1.
    9000007    1    1    2  501    0  0.95725885057E+02 -0.17819968550E+03 -0.12598662049E+03  0.46560842080E+03  0.40000000000E+03 0.  1.
   -9000007    1    1    2    0  502 -0.95725885057E+02  0.17819968550E+03  0.49978947822E+03  0.67134796903E+03  0.40000000000E+03 0.  1.
<mgrwt>
<rscale>  2 0.44823941E+03</rscale>
<asrwt>0</asrwt>
<pdfrwt beam="1">  1       21 0.11621225E+00 0.44823941E+03</pdfrwt>
<pdfrwt beam="2">  1       21 0.58704118E-01 0.44823941E+03</pdfrwt>
<totfact> 0.13260130E+03</totfact>
</mgrwt>
</event>
<event>
 4    1  0.4690138E-002  0.4643876E+03  0.7818608E-02  0.1023516E+00
         21   -1    0    0  503  502  0.00000000000E+00  0.00000000000E+00  0.24071350454E+03  0.24071350454E+03  0.00000000000E+00 0.  1.
         21   -1    0    0  501  503 -0.00000000000E+00 -0.00000000000E+00 -0.12308282058E+04  0.12308282058E+04  0.00000000000E+00 0.  1.
    9000007    1    1    2  501    0 -0.12470076258E+03  0.20026374092E+03 -0.87886891797E+03  0.99401530224E+03  0.40000000000E+03 0.  1.
   -9000007    1    1    2    0  502  0.12470076258E+03 -0.20026374092E+03 -0.11124578325E+03  0.47752640807E+03  0.40000000000E+03 0.  1.
<mgrwt>
<rscale>  2 0.46438760E+03</rscale>
<asrwt>0</asrwt>
<pdfrwt beam="1">  1       21 0.37032847E-01 0.46438760E+03</pdfrwt>
<pdfrwt beam="2">  1       21 0.18935819E+00 0.46438760E+03</pdfrwt>
<totfact> 0.91964397E+02</totfact>
</mgrwt>
</event>
<event>
 4    1  0.4690138E-002  0.4764349E+03  0.7818608E-02  0.1020120E+00
         21   -1    0    0  501  502  0.00000000000E+00  0.00000000000E+00  0.91781201463E+03  0.91781201463E+03  0.00000000000E+00 0. -1.
         21   -1    0    0  502  503 -0.00000000000E+00 -0.00000000000E+00 -0.28926319724E+03  0.28926319724E+03  0.00000000000E+00 0. -1.
    9000007    1    1    2  501    0  0.20671581111E+03 -0.15575221605E+03  0.54410399198E+03  0.72321458327E+03  0.40000000000E+03 0. -1.
   -9000007    1    1    2    0  503 -0.20671581111E+03  0.15575221605E+03  0.84444825401E+02  0.48386062859E+03  0.40000000000E+03 0. -1.
<mgrwt>
<rscale>  2 0.47643486E+03</rscale>
<asrwt>0</asrwt>
<pdfrwt beam="1">  1       21 0.14120185E+00 0.47643486E+03</pdfrwt>
<pdfrwt beam="2">  1       21 0.44502031E-01 0.47643486E+03</pdfrwt>
<totfact> 0.14310068E+03</totfact>
</mgrwt>
</event>
<event>
 4    1  0.4690138E-002  0.4345846E+03  0.7818608E-02  0.1032421E+00
         21   -1    0    0  501  502  0.00000000000E+00  0.00000000000E+00  0.34151855866E+03  0.34151855866E+03  0.00000000000E+00 0.  1.
         21   -1    0    0  502  503 -0.00000000000E+00 -0.00000000000E+00 -0.56379110173E+03  0.56379110173E+03  0.00000000000E+00 0.  1.
    9000007    1    1    2  501    0  0.12477219167E+02  0.16943453112E+03 -0.17372648084E+03  0.46802204166E+03  0.40000000000E+03 0.  1.
   -9000007    1    1    2    0  503 -0.12477219167E+02 -0.16943453112E+03 -0.48546062228E+02  0.43728761873E+03  0.40000000000E+03 0.  1.
<mgrwt>
<rscale>  2 0.43458456E+03</rscale>
<asrwt>0</asrwt>
<pdfrwt beam="1">  1       21 0.52541317E-01 0.43458456E+03</pdfrwt>
<pdfrwt beam="2">  1       21 0.86737092E-01 0.43458456E+03</pdfrwt>
<totfact> 0.34481573E+03</totfact>
</mgrwt>
</event>
<event>
 4    1  0.4690138E-002  0.4365012E+03  0.7818608E-02  0.1031826E+00
         21   -1    0    0  503  502  0.00000000000E+00  0.00000000000E+00  0.21738439075E+03  0.21738439075E+03  0.00000000000E+00 0.  1.
         21   -1    0    0  501  503 -0.00000000000E+00 -0.00000000000E+00 -0.12436573809E+04  0.12436573809E+04  0.00000000000E+00 0.  1.
    9000007    1    1    2  501    0  0.16105618213E+03 -0.67780341474E+02 -0.91007175869E+03  0.10093383350E+04  0.40000000000E+03 0.  1.
   -9000007    1    1    2    0  502 -0.16105618213E+03  0.67780341474E+02 -0.11620123145E+03  0.45170343665E+03  0.40000000000E+03 0.  1.
<mgrwt>
<rscale>  2 0.43650117E+03</rscale>
<asrwt>0</asrwt>
<pdfrwt beam="1">  1       21 0.33443753E-01 0.43650117E+03</pdfrwt>
<pdfrwt beam="2">  1       21 0.19133190E+00 0.43650117E+03</pdfrwt>
<totfact> 0.11098955E+03</totfact>
</mgrwt>
</event>
<event>
 4    1  0.4690138E-002  0.6208557E+03  0.7818608E-02  0.9863057E-01
         21   -1    0    0  501  502  0.00000000000E+00  0.00000000000E+00  0.33922099140E+03  0.33922099140E+03  0.00000000000E+00 0. -1.
         21   -1    0    0  502  503 -0.00000000000E+00 -0.00000000000E+00 -0.11687807850E+04  0.11687807850E+04  0.00000000000E+00 0.  1.
    9000007    1    1    2  501    0 -0.46074860603E+03  0.11477182266E+03 -0.54044633252E+03  0.82313066251E+03  0.40000000000E+03 0.  1.
   -9000007    1    1    2    0  503  0.46074860603E+03 -0.11477182266E+03 -0.28911346103E+03  0.68487111385E+03  0.40000000000E+03 0. -1.
<mgrwt>
<rscale>  2 0.62085574E+03</rscale>
<asrwt>0</asrwt>
<pdfrwt beam="1">  1       21 0.52187846E-01 0.62085574E+03</pdfrwt>
<pdfrwt beam="2">  1       21 0.17981243E+00 0.62085574E+03</pdfrwt>
<totfact> 0.49199557E+02</totfact>
</mgrwt>
</event>
<event>
 4    1  0.4690138E-002  0.5079719E+03  0.7818608E-02  0.1011719E+00
         21   -1    0    0  503  502  0.00000000000E+00  0.00000000000E+00  0.68125316413E+03  0.68125316413E+03  0.00000000000E+00 0. -1.
         21   -1    0    0  501  503 -0.00000000000E+00 -0.00000000000E+00 -0.56180186110E+03  0.56180186110E+03  0.00000000000E+00 0.  1.
    9000007    1    1    2  501    0 -0.28573831662E+03  0.12801981887E+03 -0.29503626915E+03  0.58743668571E+03  0.40000000000E+03 0. -1.
   -9000007    1    1    2    0  502  0.28573831662E+03 -0.12801981887E+03  0.41448757218E+03  0.65561833951E+03  0.40000000000E+03 0. -1.
<mgrwt>
<rscale>  2 0.50797191E+03</rscale>
<asrwt>0</asrwt>
<pdfrwt beam="1">  1       21 0.10480818E+00 0.50797191E+03</pdfrwt>
<pdfrwt beam="2">  1       21 0.86431056E-01 0.50797191E+03</pdfrwt>
<totfact> 0.69738714E+02</totfact>
</mgrwt>
</event>
<event>
 4    1  0.4690138E-002  0.4663503E+03  0.7818608E-02  0.1022955E+00
         21   -1    0    0  501  502  0.00000000000E+00  0.00000000000E+00  0.11697941763E+04  0.11697941763E+04  0.00000000000E+00 0. -1.
         21   -1    0    0  502  503 -0.00000000000E+00 -0.00000000000E+00 -0.30266693692E+03  0.30266693692E+03  0.00000000000E+00 0.  1.
    9000007    1    1    2  501    0  0.21012547250E+03  0.11545509799E+03  0.89082329402E+03  0.10055091919E+04  0.40000000000E+03 0. -1.
   -9000007    1    1    2    0  503 -0.21012547250E+03 -0.11545509799E+03 -0.23696054610E+02  0.46695192135E+03  0.40000000000E+03 0.  1.
<mgrwt>
<rscale>  2 0.46635029E+03</rscale>
<asrwt>0</asrwt>
<pdfrwt beam="1">  1       21 0.17996833E+00 0.46635029E+03</pdfrwt>
<pdfrwt beam="2">  1       21 0.46564145E-01 0.46635029E+03</pdfrwt>
<totfact> 0.66435244E+02</totfact>
</mgrwt>
</event>
<event>
 4    1  0.4690138E-002  0.4590936E+03  0.7818608E-02  0.1025044E+00
         21   -1    0    0  501  502  0.00000000000E+00  0.00000000000E+00  0.28397583870E+03  0.28397583870E+03  0.00000000000E+00 0.  1.
         21   -1    0    0  502  503 -0.00000000000E+00 -0.00000000000E+00 -0.90195560265E+03  0.90195560265E+03  0.00000000000E+00 0. -1.
    9000007    1    1    2  501    0 -0.14544595788E+03 -0.17208249266E+03 -0.59435702269E+02  0.46292495466E+03  0.40000000000E+03 0.  1.
   -9000007    1    1    2    0  503  0.14544595788E+03  0.17208249266E+03 -0.55854406169E+03  0.72300648669E+03  0.40000000000E+03 0. -1.
<mgrwt>
<rscale>  2 0.45909358E+03</rscale>
<asrwt>0</asrwt>
<pdfrwt beam="1">  1       21 0.43688591E-01 0.45909358E+03</pdfrwt>
<pdfrwt beam="2">  1       21 0.13876240E+00 0.45909358E+03</pdfrwt>
<totfact> 0.15685981E+03</totfact>
</mgrwt>
</event>
<event>
 4    1  0.4690138E-002  0.5189224E+03  0.7818608E-02  0.1008955E+00
         21   -1    0    0  503  502  0.00000000000E+00  0.00000000000E+00  0.18307618222E+04  0.18307618222E+04  0.00000000000E+00 0. -1.
         21   -1    0    0  501  503 -0.00000000000E+00 -0.00000000000E+00 -0.15953050156E+03  0.15953050156E+03  0.00000000000E+00 0.  1.
    9000007    1    1    2  501    0 -0.30814293583E+03  0.11970133968E+03  0.55768030977E+03  0.76176624205E+03  0.40000000000E+03 0.  1.
   -9000007    1    1    2    0  502  0.30814293583E+03 -0.11970133968E+03  0.11135510109E+04  0.12285260817E+04  0.40000000000E+03 0.  1.
<mgrwt>
<rscale>  2 0.51892242E+03</rscale>
<asrwt>0</asrwt>
<pdfrwt beam="1">  1       21 0.28165565E+00 0.51892242E+03</pdfrwt>
<pdfrwt beam="2">  1       21 0.24543155E-01 0.51892242E+03</pdfrwt>
<totfact> 0.52980480E+02</totfact>
</mgrwt>
</event>
<event>
 4    1  0.4690138E-002  0.4015717E+03  0.7818608E-02  0.1043237E+00
         21   -1    0    0  503  502  0.00000000000E+00  0.00000000000E+00  0.40013757757E+03  0.40013757757E+03  0.00000000000E+00 0.  1.
         21   -1    0    0  501  503 -0.00000000000E+00 -0.00000000000E+00 -0.44332274988E+03  0.44332274988E+03  0.00000000000E+00 0.  1.
    9000007    1    1    2  501    0 -0.15674496747E+02 -0.31845925368E+02 -0.14876425755E+03  0.42824135383E+03  0.40000000000E+03 0.  1.
   -9000007    1    1    2    0  502  0.15674496747E+02  0.31845925368E+02  0.10557908523E+03  0.41521897361E+03  0.40000000000E+03 0.  1.
<mgrwt>
<rscale>  2 0.40157173E+03</rscale>
<asrwt>0</asrwt>
<pdfrwt beam="1">  1       21 0.61559627E-01 0.40157173E+03</pdfrwt>
<pdfrwt beam="2">  1       21 0.68203500E-01 0.40157173E+03</pdfrwt>
<totfact> 0.42927045E+03</totfact>
</mgrwt>
</event>
<event>
 4    1  0.4690138E-002  0.5001501E+03  0.7818608E-02  0.1013740E+00
         21   -1    0    0  503  502  0.00000000000E+00  0.00000000000E+00  0.46277527123E+03  0.46277527123E+03  0.00000000000E+00 0.  1.
         21   -1    0    0  501  503 -0.00000000000E+00 -0.00000000000E+00 -0.66785375708E+03  0.66785375708E+03  0.00000000000E+00 0.  1.
    9000007    1    1    2  501    0 -0.30000368921E+03 -0.12162797133E+02 -0.34935973383E+03  0.61008390472E+03  0.40000000000E+03 0.  1.
   -9000007    1    1    2    0  502  0.30000368921E+03  0.12162797133E+02  0.14428124798E+03  0.52054512359E+03  0.40000000000E+03 0.  1.
<mgrwt>
<rscale>  2 0.50015012E+03</rscale>
<asrwt>0</asrwt>
<pdfrwt beam="1">  1       21 0.71196196E-01 0.50015012E+03</pdfrwt>
<pdfrwt beam="2">  1       21 0.10274673E+00 0.50015012E+03</pdfrwt>
<totfact> 0.11490953E+03</totfact>
</mgrwt>
</event>
<event>
 4    1  0.4690138E-002  0.4671469E+03  0.7818608E-02  0.1022729E+00
         21   -1    0    0  501  502  0.00000000000E+00  0.00000000000E+00  0.30825225752E+03  0.30825225752E+03  0.00000000000E+00 0. -1.
         21   -1    0    0  502  503 -0.00000000000E+00 -0.00000000000E+00 -0.74999577950E+03  0.74999577950E+03  0.00000000000E+00 0. -1.
    9000007    1    1    2  501    0 -0.81150001206E+02  0.22724643951E+03 -0.95585149685E+02  0.47682574155E+03  0.40000000000E+03 0. -1.
   -9000007    1    1    2    0  503  0.81150001206E+02 -0.22724643951E+03 -0.34615837229E+03  0.58142229547E+03  0.40000000000E+03 0. -1.
<mgrwt>
<rscale>  2 0.46714694E+03</rscale>
<asrwt>0</asrwt>
<pdfrwt beam="1">  1       21 0.47423424E-01 0.46714694E+03</pdfrwt>
<pdfrwt beam="2">  1       21 0.11538397E+00 0.46714694E+03</pdfrwt>
<totfact> 0.21187228E+03</totfact>
</mgrwt>
</event>
<event>
 4    1  0.4690138E-002  0.4028975E+03  0.7818608E-02  0.1042781E+00
         21   -1    0    0  503  502  0.00000000000E+00  0.00000000000E+00  0.87337025163E+03  0.87337025163E+03  0.00000000000E+00 0.  1.
         21   -1    0    0  501  503 -0.00000000000E+00 -0.00000000000E+00 -0.25276872061E+03  0.25276872061E+03  0.00000000000E+00 0.  1.
    9000007    1    1    2  501    0  0.42677164363E+00 -0.48231025123E+02  0.20609813440E+02  0.40342431549E+03  0.40000000000E+03 0.  1.
   -9000007    1    1    2    0  502 -0.42677164363E+00  0.48231025123E+02  0.59999171758E+03  0.72271465675E+03  0.40000000000E+03 0.  1.
<mgrwt>
<rscale>  2 0.40289752E+03</rscale>
<asrwt>0</asrwt>
<pdfrwt beam="1">  1       21 0.13436465E+00 0.40289752E+03</pdfrwt>
<pdfrwt beam="2">  1       21 0.38887496E-01 0.40289752E+03</pdfrwt>
<totfact> 0.22225329E+03</totfact>
</mgrwt>
</event>
<event>
 4    1  0.4690138E-002  0.4553303E+03  0.7818608E-02  0.1026144E+00
         21   -1    0    0  503  502  0.00000000000E+00  0.00000000000E+00  0.24959992460E+03  0.24959992460E+03  0.00000000000E+00 0.  1.
         21   -1    0    0  501  503 -0.00000000000E+00 -0.00000000000E+00 -0.13731766937E+04  0.13731766937E+04  0.00000000000E+00 0.  1.
    9000007    1    1    2  501    0 -0.11525157904E+03  0.18450682355E+03 -0.10718037710E+04  0.11645123520E+04  0.40000000000E+03 0.  1.
   -9000007    1    1    2    0  502  0.11525157904E+03 -0.18450682355E+03 -0.51772998039E+02  0.45826426626E+03  0.40000000000E+03 0.  1.
<mgrwt>
<rscale>  2 0.45533031E+03</rscale>
<asrwt>0</asrwt>
<pdfrwt beam="1">  1       21 0.38399988E-01 0.45533031E+03</pdfrwt>
<pdfrwt beam="2">  1       21 0.21125795E+00 0.45533031E+03</pdfrwt>
<totfact> 0.61247929E+02</totfact>
</mgrwt>
</event>
<event>
 4    1  0.4690138E-002  0.4433802E+03  0.7818608E-02  0.1029715E+00
         21   -1    0    0  503  502  0.00000000000E+00  0.00000000000E+00  0.21913500683E+03  0.21913500683E+03  0.00000000000E+00 0. -1.
         21   -1    0    0  501  503 -0.00000000000E+00 -0.00000000000E+00 -0.10471460353E+04  0.10471460353E+04  0.00000000000E+00 0. -1.
    9000007    1    1    2  501    0  0.16824818677E+03  0.90986294391E+02 -0.65367299915E+03  0.78985716932E+03  0.40000000000E+03 0. -1.
   -9000007    1    1    2    0  502 -0.16824818677E+03 -0.90986294391E+02 -0.17433802934E+03  0.47642387282E+03  0.40000000000E+03 0. -1.
<mgrwt>
<rscale>  2 0.44338015E+03</rscale>
<asrwt>0</asrwt>
<pdfrwt beam="1">  1       21 0.33713078E-01 0.44338015E+03</pdfrwt>
<pdfrwt beam="2">  1       21 0.16109939E+00 0.44338015E+03</pdfrwt>
<totfact> 0.17895604E+03</totfact>
</mgrwt>
</event>
<event>
 4    1  0.4690138E-002  0.4610321E+03  0.7818608E-02  0.1024482E+00
         21   -1    0    0  503  502  0.00000000000E+00  0.00000000000E+00  0.62097641690E+03  0.62097641690E+03  0.00000000000E+00 0.  1.
         21   -1    0    0  501  503 -0.00000000000E+00 -0.00000000000E+00 -0.79412390057E+03  0.79412390057E+03  0.00000000000E+00 0.  1.
    9000007    1    1    2  501    0  0.13189578648E+03 -0.18749426623E+03 -0.62028351029E+03  0.77285330529E+03  0.40000000000E+03 0.  1.
   -9000007    1    1    2    0  502 -0.13189578648E+03  0.18749426623E+03  0.44713602661E+03  0.64224701218E+03  0.40000000000E+03 0.  1.
<mgrwt>
<rscale>  2 0.46103210E+03</rscale>
<asrwt>0</asrwt>
<pdfrwt beam="1">  1       21 0.95534833E-01 0.46103210E+03</pdfrwt>
<pdfrwt beam="2">  1       21 0.12217291E+00 0.46103210E+03</pdfrwt>
<totfact> 0.38177210E+02</totfact>
</mgrwt>
</event>
<event>
 4    1  0.4690138E-002  0.4036552E+03  0.7818608E-02  0.1042521E+00
         21   -1    0    0  501  502  0.00000000000E+00  0.00000000000E+00  0.22609350567E+03  0.22609350567E+03  0.00000000000E+00 0. -1.
         21   -1    0    0  502  503 -0.00000000000E+00 -0.00000000000E+00 -0.73611658273E+03  0.73611658273E+03  0.00000000000E+00 0. -1.
    9000007    1    1    2  501    0  0.35617531341E+02 -0.40852195742E+02 -0.18530662346E+03  0.44415769174E+03  0.40000000000E+03 0.  1.
   -9000007    1    1    2    0  503 -0.35617531341E+02  0.40852195742E+02 -0.32471645360E+03  0.51805239665E+03  0.40000000000E+03 0.  1.
<mgrwt>
<rscale>  2 0.40365519E+03</rscale>
<asrwt>0</asrwt>
<pdfrwt beam="1">  1       21 0.34783616E-01 0.40365519E+03</pdfrwt>
<pdfrwt beam="2">  1       21 0.11324871E+00 0.40365519E+03</pdfrwt>
<totfact> 0.43096309E+03</totfact>
</mgrwt>
</event>
<event>
 4    1  0.4690138E-002  0.4277020E+03  0.7818608E-02  0.1034588E+00
         21   -1    0    0  501  502  0.00000000000E+00  0.00000000000E+00  0.19073809856E+03  0.19073809856E+03  0.00000000000E+00 0. -1.
         21   -1    0    0  502  503 -0.00000000000E+00 -0.00000000000E+00 -0.10370144496E+04  0.10370144496E+04  0.00000000000E+00 0. -1.
    9000007    1    1    2  501    0  0.57277198895E+02 -0.14017254116E+03 -0.25482708818E+03  0.49786128960E+03  0.40000000000E+03 0. -1.
   -9000007    1    1    2    0  503 -0.57277198895E+02  0.14017254116E+03 -0.59144926289E+03  0.72989125860E+03  0.40000000000E+03 0. -1.
<mgrwt>
<rscale>  2 0.42770202E+03</rscale>
<asrwt>0</asrwt>
<pdfrwt beam="1">  1       21 0.29344322E-01 0.42770202E+03</pdfrwt>
<pdfrwt beam="2">  1       21 0.15954069E+00 0.42770202E+03</pdfrwt>
<totfact> 0.24415140E+03</totfact>
</mgrwt>
</event>
<event>
 4    1  0.4690138E-002  0.4015472E+03  0.7818608E-02  0.1043245E+00
         21   -1    0    0  503  502  0.00000000000E+00  0.00000000000E+00  0.47204725305E+03  0.47204725305E+03  0.00000000000E+00 0.  1.
         21   -1    0    0  501  503 -0.00000000000E+00 -0.00000000000E+00 -0.34219050420E+03  0.34219050420E+03  0.00000000000E+00 0.  1.
    9000007    1    1    2  501    0  0.16224937019E+02  0.31254847035E+02  0.82177761603E+02  0.40986985562E+03  0.40000000000E+03 0.  1.
   -9000007    1    1    2    0  502 -0.16224937019E+02 -0.31254847035E+02  0.47678987252E+02  0.40436790163E+03  0.40000000000E+03 0.  1.
<mgrwt>
<rscale>  2 0.40154715E+03</rscale>
<asrwt>0</asrwt>
<pdfrwt beam="1">  1       21 0.72622654E-01 0.40154715E+03</pdfrwt>
<pdfrwt beam="2">  1       21 0.52644693E-01 0.40154715E+03</pdfrwt>
<totfact> 0.52315338E+03</totfact>
</mgrwt>
</event>
<event>
 4    1  0.4690138E-002  0.4131530E+03  0.7818608E-02  0.1039318E+00
         21   -1    0    0  501  502  0.00000000000E+00  0.00000000000E+00  0.10456843042E+03  0.10456843042E+03  0.00000000000E+00 0.  1.
         21   -1    0    0  502  503 -0.00000000000E+00 -0.00000000000E+00 -0.19763503043E+04  0.19763503043E+04  0.00000000000E+00 0. -1.
    9000007    1    1    2  501    0  0.31159013339E+02  0.98612765020E+02 -0.50182674842E+03  0.65001957429E+03  0.40000000000E+03 0.  1.
   -9000007    1    1    2    0  503 -0.31159013339E+02 -0.98612765020E+02 -0.13699551255E+04  0.14308991604E+04  0.40000000000E+03 0. -1.
<mgrwt>
<rscale>  2 0.41315295E+03</rscale>
<asrwt>0</asrwt>
<pdfrwt beam="1">  1       21 0.16087452E-01 0.41315295E+03</pdfrwt>
<pdfrwt beam="2">  1       21 0.30405388E+00 0.41315295E+03</pdfrwt>
<totfact> 0.91777467E+02</totfact>
</mgrwt>
</event>
<event>
 4    1  0.4690138E-002  0.4117241E+03  0.7818608E-02  0.1039794E+00
         21   -1    0    0  503  502  0.00000000000E+00  0.00000000000E+00  0.49250720238E+03  0.49250720238E+03  0.00000000000E+00 0. -1.
         21   -1    0    0  501  503 -0.00000000000E+00 -0.00000000000E+00 -0.35064866908E+03  0.35064866908E+03  0.00000000000E+00 0. -1.
    9000007    1    1    2  501    0  0.97487801416E+02 -0.35821296588E+01  0.13719657903E+02  0.41195258476E+03  0.40000000000E+03 0. -1.
   -9000007    1    1    2    0  502 -0.97487801416E+02  0.35821296588E+01  0.12813887540E+03  0.43120328671E+03  0.40000000000E+03 0. -1.
<mgrwt>
<rscale>  2 0.41172406E+03</rscale>
<asrwt>0</asrwt>
<pdfrwt beam="1">  1       21 0.75770339E-01 0.41172406E+03</pdfrwt>
<pdfrwt beam="2">  1       21 0.53945949E-01 0.41172406E+03</pdfrwt>
<totfact> 0.44917734E+03</totfact>
</mgrwt>
</event>
<event>
 4    1  0.4690138E-002  0.4443702E+03  0.7818608E-02  0.1029414E+00
         21   -1    0    0  501  502  0.00000000000E+00  0.00000000000E+00  0.37143649305E+03  0.37143649305E+03  0.00000000000E+00 0. -1.
         21   -1    0    0  502  503 -0.00000000000E+00 -0.00000000000E+00 -0.98285628737E+03  0.98285628737E+03  0.00000000000E+00 0.  1.
    9000007    1    1    2  501    0 -0.37620730459E+01  0.19352187349E+03  0.15310470768E+03  0.47000629807E+03  0.40000000000E+03 0. -1.
   -9000007    1    1    2    0  503  0.37620730459E+01 -0.19352187349E+03 -0.76452450200E+03  0.88428648235E+03  0.40000000000E+03 0.  1.
<mgrwt>
<rscale>  2 0.44437019E+03</rscale>
<asrwt>0</asrwt>
<pdfrwt beam="1">  1       21 0.57144076E-01 0.44437019E+03</pdfrwt>
<pdfrwt beam="2">  1       21 0.15120866E+00 0.44437019E+03</pdfrwt>
<totfact> 0.70764139E+02</totfact>
</mgrwt>
</event>
<event>
 4    1  0.4690138E-002  0.5025898E+03  0.7818608E-02  0.1013105E+00
         21   -1    0    0  501  502  0.00000000000E+00  0.00000000000E+00  0.63633144164E+03  0.63633144164E+03  0.00000000000E+00 0. -1.
         21   -1    0    0  502  503 -0.00000000000E+00 -0.00000000000E+00 -0.45302041575E+03  0.45302041575E+03  0.00000000000E+00 0. -1.
    9000007    1    1    2  501    0 -0.29014917908E+03  0.91706080889E+02  0.28326502102E+03  0.57691907884E+03  0.40000000000E+03 0. -1.
   -9000007    1    1    2    0  503  0.29014917908E+03 -0.91706080889E+02 -0.99953995125E+02  0.51243277855E+03  0.40000000000E+03 0. -1.
<mgrwt>
<rscale>  2 0.50258984E+03</rscale>
<asrwt>0</asrwt>
<pdfrwt beam="1">  1       21 0.97897145E-01 0.50258984E+03</pdfrwt>
<pdfrwt beam="2">  1       21 0.69695448E-01 0.50258984E+03</pdfrwt>
<totfact> 0.13555993E+03</totfact>
</mgrwt>
</event>
<event>
 4    1  0.4690138E-002  0.4373643E+03  0.7818608E-02  0.1031559E+00
         21   -1    0    0  501  502  0.00000000000E+00  0.00000000000E+00  0.31972776441E+03  0.31972776441E+03  0.00000000000E+00 0.  1.
         21   -1    0    0  502  503 -0.00000000000E+00 -0.00000000000E+00 -0.60410113480E+03  0.60410113480E+03  0.00000000000E+00 0. -1.
    9000007    1    1    2  501    0  0.17399321837E+03  0.31842287500E+02 -0.18751942921E+03  0.47586879247E+03  0.40000000000E+03 0.  1.
   -9000007    1    1    2    0  503 -0.17399321837E+03 -0.31842287500E+02 -0.96853941179E+02  0.44796010674E+03  0.40000000000E+03 0. -1.
<mgrwt>
<rscale>  2 0.43736435E+03</rscale>
<asrwt>0</asrwt>
<pdfrwt beam="1">  1       21 0.49188887E-01 0.43736435E+03</pdfrwt>
<pdfrwt beam="2">  1       21 0.92938636E-01 0.43736435E+03</pdfrwt>
<totfact> 0.33669082E+03</totfact>
</mgrwt>
</event>
<event>
 4    1  0.4690138E-002  0.4306180E+03  0.7818608E-02  0.1033665E+00
         21   -1    0    0  501  502  0.00000000000E+00  0.00000000000E+00  0.64347427813E+03  0.64347427813E+03  0.00000000000E+00 0. -1.
         21   -1    0    0  502  503 -0.00000000000E+00 -0.00000000000E+00 -0.30829878269E+03  0.30829878269E+03  0.00000000000E+00 0. -1.
    9000007    1    1    2  501    0  0.11623297161E+03  0.10918676879E+03  0.28917691560E+03  0.51870525608E+03  0.40000000000E+03 0. -1.
   -9000007    1    1    2    0  503 -0.11623297161E+03 -0.10918676879E+03  0.45998579841E+02  0.43306780475E+03  0.40000000000E+03 0. -1.
<mgrwt>
<rscale>  2 0.43061799E+03</rscale>
<asrwt>0</asrwt>
<pdfrwt beam="1">  1       21 0.98996042E-01 0.43061799E+03</pdfrwt>
<pdfrwt beam="2">  1       21 0.47430582E-01 0.43061799E+03</pdfrwt>
<totfact> 0.31327266E+03</totfact>
</mgrwt>
</event>
<event>
 4    1  0.4690138E-002  0.6303448E+03  0.7818608E-02  0.9844376E-01
         21   -1    0    0  503  502  0.00000000000E+00  0.00000000000E+00  0.11400336675E+04  0.11400336675E+04  0.00000000000E+00 0. -1.
         21   -1    0    0  501  503 -0.00000000000E+00 -0.00000000000E+00 -0.40130054855E+03  0.40130054855E+03  0.00000000000E+00 0.  1.
    9000007    1    1    2  501    0 -0.23859321901E+03 -0.42474451432E+03  0.64883480657E+03  0.90461109480E+03  0.40000000000E+03 0. -1.
   -9000007    1    1    2    0  502  0.23859321901E+03  0.42474451432E+03  0.89898312401E+02  0.63672312129E+03  0.40000000000E+03 0.  1.
<mgrwt>
<rscale>  2 0.63034485E+03</rscale>
<asrwt>0</asrwt>
<pdfrwt beam="1">  1       21 0.17538979E+00 0.63034485E+03</pdfrwt>
<pdfrwt beam="2">  1       21 0.61738546E-01 0.63034485E+03</pdfrwt>
<totfact> 0.36543712E+02</totfact>
</mgrwt>
</event>
<event>
 4    1  0.4690138E-002  0.4236993E+03  0.7818608E-02  0.1035869E+00
         21   -1    0    0  501  502  0.00000000000E+00  0.00000000000E+00  0.23290697873E+04  0.23290697873E+04  0.00000000000E+00 0.  1.
         21   -1    0    0  502  503 -0.00000000000E+00 -0.00000000000E+00 -0.13970337556E+03  0.13970337556E+03  0.00000000000E+00 0.  1.
    9000007    1    1    2  501    0 -0.78721145636E+02 -0.11543000804E+03  0.19211422356E+04  0.19673099895E+04  0.40000000000E+03 0.  1.
   -9000007    1    1    2    0  503  0.78721145636E+02  0.11543000804E+03  0.26822417613E+03  0.50146317331E+03  0.40000000000E+03 0.  1.
<mgrwt>
<rscale>  2 0.42369931E+03</rscale>
<asrwt>0</asrwt>
<pdfrwt beam="1">  1       21 0.35831840E+00 0.42369931E+03</pdfrwt>
<pdfrwt beam="2">  1       21 0.21492829E-01 0.42369931E+03</pdfrwt>
<totfact> 0.24758011E+02</totfact>
</mgrwt>
</event>
<event>
 4    1  0.4690138E-002  0.5211543E+03  0.7818608E-02  0.1008400E+00
         21   -1    0    0  501  502  0.00000000000E+00  0.00000000000E+00  0.57014758626E+03  0.57014758626E+03  0.00000000000E+00 0. -1.
         21   -1    0    0  502  503 -0.00000000000E+00 -0.00000000000E+00 -0.50017002282E+03  0.50017002282E+03  0.00000000000E+00 0.  1.
    9000007    1    1    2  501    0 -0.18651500480E+03 -0.27715328465E+03 -0.81746780078E+02  0.52752661190E+03  0.40000000000E+03 0. -1.
   -9000007    1    1    2    0  503  0.18651500480E+03  0.27715328465E+03  0.15172434352E+03  0.54279099719E+03  0.40000000000E+03 0. -1.
<mgrwt>
<rscale>  2 0.52115429E+03</rscale>
<asrwt>0</asrwt>
<pdfrwt beam="1">  1       21 0.87715013E-01 0.52115429E+03</pdfrwt>
<pdfrwt beam="2">  1       21 0.76949234E-01 0.52115429E+03</pdfrwt>
<totfact> 0.13980239E+03</totfact>
</mgrwt>
</event>
<event>
 4    1  0.4690138E-002  0.4687424E+03  0.7818608E-02  0.1022276E+00
         21   -1    0    0  503  502  0.00000000000E+00  0.00000000000E+00  0.63488922986E+03  0.63488922986E+03  0.00000000000E+00 0. -1.
         21   -1    0    0  501  503 -0.00000000000E+00 -0.00000000000E+00 -0.34621768063E+03  0.34621768063E+03  0.00000000000E+00 0. -1.
    9000007    1    1    2  501    0  0.32520943807E+02  0.24220212060E+03  0.15428389909E+03  0.49348049660E+03  0.40000000000E+03 0. -1.
   -9000007    1    1    2    0  502 -0.32520943807E+02 -0.24220212060E+03  0.13438765014E+03  0.48762641388E+03  0.40000000000E+03 0. -1.
<mgrwt>
<rscale>  2 0.46874244E+03</rscale>
<asrwt>0</asrwt>
<pdfrwt beam="1">  1       21 0.97675266E-01 0.46874244E+03</pdfrwt>
<pdfrwt beam="2">  1       21 0.53264259E-01 0.46874244E+03</pdfrwt>
<totfact> 0.24933146E+03</totfact>
</mgrwt>
</event>
<event>
 4    1  0.4690138E-002  0.5213967E+03  0.7818608E-02  0.1008340E+00
         21   -1    0    0  503  502  0.00000000000E+00  0.00000000000E+00  0.77550151554E+03  0.77550151554E+03  0.00000000000E+00 0.  1.
         21   -1    0    0  501  503 -0.00000000000E+00 -0.00000000000E+00 -0.46683510370E+03  0.46683510370E+03  0.00000000000E+00 0.  1.
    9000007    1    1    2  501    0  0.12783643661E+03 -0.30905075785E+03 -0.15568245601E+03  0.54414295232E+03  0.40000000000E+03 0.  1.
   -9000007    1    1    2    0  502 -0.12783643661E+03  0.30905075785E+03  0.46434886785E+03  0.69819366692E+03  0.40000000000E+03 0.  1.
<mgrwt>
<rscale>  2 0.52139671E+03</rscale>
<asrwt>0</asrwt>
<pdfrwt beam="1">  1       21 0.11930793E+00 0.52139671E+03</pdfrwt>
<pdfrwt beam="2">  1       21 0.71820785E-01 0.52139671E+03</pdfrwt>
<totfact> 0.77007359E+02</totfact>
</mgrwt>
</event>
<event>
 4    1  0.4690138E-002  0.4297594E+03  0.7818608E-02  0.1033936E+00
         21   -1    0    0  503  502  0.00000000000E+00  0.00000000000E+00  0.20313943775E+03  0.20313943775E+03  0.00000000000E+00 0. -1.
         21   -1    0    0  501  503 -0.00000000000E+00 -0.00000000000E+00 -0.92214546642E+03  0.92214546642E+03  0.00000000000E+00 0. -1.
    9000007    1    1    2  501    0  0.12435707226E+03  0.96065075025E+02 -0.29282380707E+03  0.52003746216E+03  0.40000000000E+03 0. -1.
   -9000007    1    1    2    0  502 -0.12435707226E+03 -0.96065075025E+02 -0.42618222159E+03  0.60524744201E+03  0.40000000000E+03 0. -1.
<mgrwt>
<rscale>  2 0.42975944E+03</rscale>
<asrwt>0</asrwt>
<pdfrwt beam="1">  1       21 0.31252221E-01 0.42975944E+03</pdfrwt>
<pdfrwt beam="2">  1       21 0.14186854E+00 0.42975944E+03</pdfrwt>
<totfact> 0.29613853E+03</totfact>
</mgrwt>
</event>
<event>
 4    1  0.4690138E-002  0.4090816E+03  0.7818608E-02  0.1040680E+00
         21   -1    0    0  501  502  0.00000000000E+00  0.00000000000E+00  0.92782361504E+02  0.92782361504E+02  0.00000000000E+00 0. -1.
         21   -1    0    0  502  503 -0.00000000000E+00 -0.00000000000E+00 -0.18041499658E+04  0.18041499658E+04  0.00000000000E+00 0. -1.
    9000007    1    1    2  501    0 -0.76108996770E+02 -0.39436209147E+02 -0.87132104553E+03  0.96257371581E+03  0.40000000000E+03 0. -1.
   -9000007    1    1    2    0  503  0.76108996770E+02  0.39436209147E+02 -0.84004655877E+03  0.93435861150E+03  0.40000000000E+03 0. -1.
<mgrwt>
<rscale>  2 0.40908165E+03</rscale>
<asrwt>0</asrwt>
<pdfrwt beam="1">  1       21 0.14274210E-01 0.40908165E+03</pdfrwt>
<pdfrwt beam="2">  1       21 0.27756152E+00 0.40908165E+03</pdfrwt>
<totfact> 0.16547767E+03</totfact>
</mgrwt>
</event>
<event>
 4    1  0.4690138E-002  0.4980783E+03  0.7818608E-02  0.1014282E+00
         21   -1    0    0  501  502  0.00000000000E+00  0.00000000000E+00  0.52640758418E+03  0.52640758418E+03  0.00000000000E+00 0.  1.
         21   -1    0    0  502  503 -0.00000000000E+00 -0.00000000000E+00 -0.54066979883E+03  0.54066979883E+03  0.00000000000E+00 0. -1.
    9000007    1    1    2  501    0 -0.91899664694E+02 -0.28219933321E+03  0.18401595035E+03  0.53098388113E+03  0.40000000000E+03 0.  1.
   -9000007    1    1    2    0  503  0.91899664694E+02  0.28219933321E+03 -0.19827816500E+03  0.53609350187E+03  0.40000000000E+03 0. -1.
<mgrwt>
<rscale>  2 0.49807832E+03</rscale>
<asrwt>0</asrwt>
<pdfrwt beam="1">  1       21 0.80985782E-01 0.49807832E+03</pdfrwt>
<pdfrwt beam="2">  1       21 0.83179970E-01 0.49807832E+03</pdfrwt>
<totfact> 0.14183554E+03</totfact>
</mgrwt>
</event>
<event>
 4    1  0.4690138E-002  0.4814548E+03  0.7818608E-02  0.1018736E+00
         21   -1    0    0  501  502  0.00000000000E+00  0.00000000000E+00  0.53305976563E+03  0.53305976563E+03  0.00000000000E+00 0.  1.
         21   -1    0    0  502  503 -0.00000000000E+00 -0.00000000000E+00 -0.44727786304E+03  0.44727786304E+03  0.00000000000E+00 0. -1.
    9000007    1    1    2  501    0 -0.27783613350E+02  0.26650851844E+03 -0.38829587193E+02  0.48301807048E+03  0.40000000000E+03 0. -1.
   -9000007    1    1    2    0  503  0.27783613350E+02 -0.26650851844E+03  0.12461148978E+03  0.49731955819E+03  0.40000000000E+03 0.  1.
<mgrwt>
<rscale>  2 0.48145479E+03</rscale>
<asrwt>0</asrwt>
<pdfrwt beam="1">  1       21 0.82009195E-01 0.48145479E+03</pdfrwt>
<pdfrwt beam="2">  1       21 0.68811979E-01 0.48145479E+03</pdfrwt>
<totfact> 0.21392086E+03</totfact>
</mgrwt>
</event>
<event>
 4    1  0.4690138E-002  0.4343147E+03  0.7818608E-02  0.1032506E+00
         21   -1    0    0  503  502  0.00000000000E+00  0.00000000000E+00  0.19908106334E+03  0.19908106334E+03  0.00000000000E+00 0. -1.
         21   -1    0    0  501  503 -0.00000000000E+00 -0.00000000000E+00 -0.13234031782E+04  0.13234031782E+04  0.00000000000E+00 0. -1.
    9000007    1    1    2  501    0  0.68994364598E+02 -0.15449618214E+03 -0.96787017314E+03  0.10608496428E+04  0.40000000000E+03 0. -1.
   -9000007    1    1    2    0  502 -0.68994364598E+02  0.15449618214E+03 -0.15645194169E+03  0.46163459868E+03  0.40000000000E+03 0. -1.
<mgrwt>
<rscale>  2 0.43431474E+03</rscale>
<asrwt>0</asrwt>
<pdfrwt beam="1">  1       21 0.30627857E-01 0.43431474E+03</pdfrwt>
<pdfrwt beam="2">  1       21 0.20360048E+00 0.43431474E+03</pdfrwt>
<totfact> 0.10961437E+03</totfact>
</mgrwt>
</event>
<event>
 4    1  0.4690138E-002  0.4269581E+03  0.7818608E-02  0.1034825E+00
         21   -1    0    0  503  502  0.00000000000E+00  0.00000000000E+00  0.46184843730E+03  0.46184843730E+03  0.00000000000E+00 0. -1.
         21   -1    0    0  501  503 -0.00000000000E+00 -0.00000000000E+00 -0.39610864824E+03  0.39610864824E+03  0.00000000000E+00 0. -1.
    9000007    1    1    2  501    0 -0.20723370345E+02  0.14786396958E+03  0.73203111214E+01  0.42702084086E+03  0.40000000000E+03 0. -1.
   -9000007    1    1    2    0  502  0.20723370345E+02 -0.14786396958E+03  0.58419477938E+02  0.43093624468E+03  0.40000000000E+03 0. -1.
<mgrwt>
<rscale>  2 0.42695809E+03</rscale>
<asrwt>0</asrwt>
<pdfrwt beam="1">  1       21 0.71053606E-01 0.42695809E+03</pdfrwt>
<pdfrwt beam="2">  1       21 0.60939792E-01 0.42695809E+03</pdfrwt>
<totfact> 0.39664442E+03</totfact>
</mgrwt>
</event>
<event>
 4    1  0.4690138E-002  0.4459935E+03  0.7818608E-02  0.1028924E+00
         21   -1    0    0  501  502  0.00000000000E+00  0.00000000000E+00  0.12465115061E+04  0.12465115061E+04  0.00000000000E+00 0. -1.
         21   -1    0    0  502  503 -0.00000000000E+00 -0.00000000000E+00 -0.16629179537E+03  0.16629179537E+03  0.00000000000E+00 0. -1.
    9000007    1    1    2  501    0 -0.18714680453E+03  0.62340281725E+02  0.39812403456E+03  0.59784026634E+03  0.40000000000E+03 0. -1.
   -9000007    1    1    2    0  503  0.18714680453E+03 -0.62340281725E+02  0.68209567614E+03  0.81496303510E+03  0.40000000000E+03 0. -1.
<mgrwt>
<rscale>  2 0.44599354E+03</rscale>
<asrwt>0</asrwt>
<pdfrwt beam="1">  1       21 0.19177100E+00 0.44599354E+03</pdfrwt>
<pdfrwt beam="2">  1       21 0.25583354E-01 0.44599354E+03</pdfrwt>
<totfact> 0.18659267E+03</totfact>
</mgrwt>
</event>
<event>
 4    1  0.4690138E-002  0.4113903E+03  0.7818608E-02  0.1039905E+00
         21   -1    0    0  503  502  0.00000000000E+00  0.00000000000E+00  0.34334044133E+03  0.34334044133E+03  0.00000000000E+00 0. -1.
         21   -1    0    0  501  503 -0.00000000000E+00 -0.00000000000E+00 -0.10179467951E+04  0.10179467951E+04  0.00000000000E+00 0.  1.
    9000007    1    1    2  501    0  0.51271382183E+01  0.95998298545E+02 -0.82611854428E+03  0.92288342171E+03  0.40000000000E+03 0.  1.
   -9000007    1    1    2    0  502 -0.51271382183E+01 -0.95998298545E+02  0.15151219053E+03  0.43840381471E+03  0.40000000000E+03 0. -1.
<mgrwt>
<rscale>  2 0.41139028E+03</rscale>
<asrwt>0</asrwt>
<pdfrwt beam="1">  1       21 0.52821607E-01 0.41139028E+03</pdfrwt>
<pdfrwt beam="2">  1       21 0.15660720E+00 0.41139028E+03</pdfrwt>
<totfact> 0.77354002E+02</totfact>
</mgrwt>
</event>
<event>
 4    1  0.4690138E-002  0.4013081E+03  0.7818608E-02  0.1043328E+00
         21   -1    0    0  501  502  0.00000000000E+00  0.00000000000E+00  0.94746222746E+03  0.94746222746E+03  0.00000000000E+00 0.  1.
         21   -1    0    0  502  503 -0.00000000000E+00 -0.00000000000E+00 -0.46696822603E+03  0.46696822603E+03  0.00000000000E+00 0.  1.
    9000007    1    1    2  501    0 -0.76150953383E+01 -0.31466944973E+02  0.80424646140E+03  0.89881061908E+03  0.40000000000E+03 0.  1.
   -9000007    1    1    2    0  503  0.76150953383E+01  0.31466944973E+02 -0.32375245997E+03  0.51561983441E+03  0.40000000000E+03 0.  1.
<mgrwt>
<rscale>  2 0.40130806E+03</rscale>
<asrwt>0</asrwt>
<pdfrwt beam="1">  1       21 0.14576342E+00 0.40130806E+03</pdfrwt>
<pdfrwt beam="2">  1       21 0.71841266E-01 0.40130806E+03</pdfrwt>
<totfact> 0.48067558E+02</totfact>
</mgrwt>
</event>
<event>
 4    1  0.4690138E-002  0.4640797E+03  0.7818608E-02  0.1023605E+00
         21   -1    0    0  503  502  0.00000000000E+00  0.00000000000E+00  0.95294481563E+03  0.95294481563E+03  0.00000000000E+00 0. -1.
         21   -1    0    0  501  503 -0.00000000000E+00 -0.00000000000E+00 -0.26077717515E+03  0.26077717515E+03  0.00000000000E+00 0. -1.
    9000007    1    1    2  501    0 -0.23520886238E+03 -0.68411114435E+01  0.56768507883E+03  0.73323690474E+03  0.40000000000E+03 0. -1.
   -9000007    1    1    2    0  502  0.23520886238E+03  0.68411114435E+01  0.12448256165E+03  0.48048508604E+03  0.40000000000E+03 0. -1.
<mgrwt>
<rscale>  2 0.46407975E+03</rscale>
<asrwt>0</asrwt>
<pdfrwt beam="1">  1       21 0.14660689E+00 0.46407975E+03</pdfrwt>
<pdfrwt beam="2">  1       21 0.40119566E-01 0.46407975E+03</pdfrwt>
<totfact> 0.16124348E+03</totfact>
</mgrwt>
</event>
<event>
 4    1  0.4690138E-002  0.4027621E+03  0.7818608E-02  0.1042827E+00
         21   -1    0    0  503  502  0.00000000000E+00  0.00000000000E+00  0.43572737030E+03  0.43572737030E+03  0.00000000000E+00 0. -1.
         21   -1    0    0  501  503 -0.00000000000E+00 -0.00000000000E+00 -0.38459117587E+03  0.38459117587E+03  0.00000000000E+00 0. -1.
    9000007    1    1    2  501    0  0.44243088983E+02  0.16119809149E+02  0.98920061510E+02  0.41473181424E+03  0.40000000000E+03 0. -1.
   -9000007    1    1    2    0  502 -0.44243088983E+02 -0.16119809149E+02 -0.47783867074E+02  0.40558673194E+03  0.40000000000E+03 0. -1.
<mgrwt>
<rscale>  2 0.40276209E+03</rscale>
<asrwt>0</asrwt>
<pdfrwt beam="1">  1       21 0.67034980E-01 0.40276209E+03</pdfrwt>
<pdfrwt beam="2">  1       21 0.59167873E-01 0.40276209E+03</pdfrwt>
<totfact> 0.48635197E+03</totfact>
</mgrwt>
</event>
<event>
 4    1  0.4690138E-002  0.4521790E+03  0.7818608E-02  0.1027074E+00
         21   -1    0    0  501  502  0.00000000000E+00  0.00000000000E+00  0.42439990630E+03  0.42439990630E+03  0.00000000000E+00 0. -1.
         21   -1    0    0  502  503 -0.00000000000E+00 -0.00000000000E+00 -0.48363164886E+03  0.48363164886E+03  0.00000000000E+00 0. -1.
    9000007    1    1    2  501    0  0.20106168584E+03 -0.63561235405E+02 -0.57736309420E+02  0.45585009990E+03  0.40000000000E+03 0. -1.
   -9000007    1    1    2    0  503 -0.20106168584E+03  0.63561235405E+02 -0.14954331471E+01  0.45218145526E+03  0.40000000000E+03 0. -1.
<mgrwt>
<rscale>  2 0.45217898E+03</rscale>
<asrwt>0</asrwt>
<pdfrwt beam="1">  1       21 0.65292294E-01 0.45217898E+03</pdfrwt>
<pdfrwt beam="2">  1       21 0.74404869E-01 0.45217898E+03</pdfrwt>
<totfact> 0.30405814E+03</totfact>
</mgrwt>
</event>
<event>
 4    1  0.4690138E-002  0.4229258E+03  0.7818608E-02  0.1036118E+00
         21   -1    0    0  501  502  0.00000000000E+00  0.00000000000E+00  0.23953601871E+04  0.23953601871E+04  0.00000000000E+00 0.  1.
         21   -1    0    0  502  503 -0.00000000000E+00 -0.00000000000E+00 -0.11770891250E+03  0.11770891250E+03  0.00000000000E+00 0. -1.
    9000007    1    1    2  501    0  0.50082474442E+02 -0.12789832772E+03  0.18986103024E+04  0.19451445491E+04  0.40000000000E+03 0.  1.
   -9000007    1    1    2    0  503 -0.50082474442E+02  0.12789832772E+03  0.37904097225E+03  0.56792455055E+03  0.40000000000E+03 0. -1.
<mgrwt>
<rscale>  2 0.42292580E+03</rscale>
<asrwt>0</asrwt>
<pdfrwt beam="1">  1       21 0.36851692E+00 0.42292580E+03</pdfrwt>
<pdfrwt beam="2">  1       21 0.18109065E-01 0.42292580E+03</pdfrwt>
<totfact> 0.29654632E+02</totfact>
</mgrwt>
</event>
<event>
 4    1  0.4690138E-002  0.4300794E+03  0.7818608E-02  0.1033835E+00
         21   -1    0    0  501  502  0.00000000000E+00  0.00000000000E+00  0.12743734223E+04  0.12743734223E+04  0.00000000000E+00 0. -1.
         21   -1    0    0  502  503 -0.00000000000E+00 -0.00000000000E+00 -0.17981138449E+03  0.17981138449E+03  0.00000000000E+00 0. -1.
    9000007    1    1    2  501    0  0.15117751696E+03  0.45974023538E+02  0.86653669070E+03  0.96739551829E+03  0.40000000000E+03 0. -1.
   -9000007    1    1    2    0  503 -0.15117751696E+03 -0.45974023538E+02  0.22802534713E+03  0.48678928851E+03  0.40000000000E+03 0. -1.
<mgrwt>
<rscale>  2 0.43007936E+03</rscale>
<asrwt>0</asrwt>
<pdfrwt beam="1">  1       21 0.19605744E+00 0.43007936E+03</pdfrwt>
<pdfrwt beam="2">  1       21 0.27663291E-01 0.43007936E+03</pdfrwt>
<totfact> 0.15081914E+03</totfact>
</mgrwt>
</event>
<event>
 4    1  0.4690138E-002  0.6173509E+03  0.7818608E-02  0.9870048E-01
         21   -1    0    0  503  502  0.00000000000E+00  0.00000000000E+00  0.93232194883E+03  0.93232194883E+03  0.00000000000E+00 0.  1.
         21   -1    0    0  501  503 -0.00000000000E+00 -0.00000000000E+00 -0.41606120554E+03  0.41606120554E+03  0.00000000000E+00 0. -1.
    9000007    1    1    2  501    0 -0.45961312283E+03 -0.99387554402E+02  0.16899194654E+03  0.64006279899E+03  0.40000000000E+03 0. -1.
   -9000007    1    1    2    0  502  0.45961312283E+03  0.99387554402E+02  0.34726879675E+03  0.70832035538E+03  0.40000000000E+03 0.  1.
<mgrwt>
<rscale>  2 0.61735088E+03</rscale>
<asrwt>0</asrwt>
<pdfrwt beam="1">  1       21 0.14343415E+00 0.61735088E+03</pdfrwt>
<pdfrwt beam="2">  1       21 0.64009416E-01 0.61735088E+03</pdfrwt>
<totfact> 0.59567771E+02</totfact>
</mgrwt>
</event>
<event>
 4    1  0.4690138E-002  0.4183374E+03  0.7818608E-02  0.1037609E+00
         21   -1    0    0  503  502  0.00000000000E+00  0.00000000000E+00  0.53796613376E+03  0.53796613376E+03  0.00000000000E+00 0. -1.
         21   -1    0    0  501  503 -0.00000000000E+00 -0.00000000000E+00 -0.33332630861E+03  0.33332630861E+03  0.00000000000E+00 0. -1.
    9000007    1    1    2  501    0  0.79897512194E+02 -0.92857727106E+02  0.34763609394E+02  0.41977932116E+03  0.40000000000E+03 0. -1.
   -9000007    1    1    2    0  502 -0.79897512194E+02  0.92857727106E+02  0.16987621575E+03  0.45151312120E+03  0.40000000000E+03 0. -1.
<mgrwt>
<rscale>  2 0.41833739E+03</rscale>
<asrwt>0</asrwt>
<pdfrwt beam="1">  1       21 0.82764020E-01 0.41833739E+03</pdfrwt>
<pdfrwt beam="2">  1       21 0.51280971E-01 0.41833739E+03</pdfrwt>
<totfact> 0.40759171E+03</totfact>
</mgrwt>
</event>
<event>
 4    1  0.4690138E-002  0.4723890E+03  0.7818608E-02  0.1021248E+00
         21   -1    0    0  501  502  0.00000000000E+00  0.00000000000E+00  0.20549282669E+04  0.20549282669E+04  0.00000000000E+00 0.  1.
         21   -1    0    0  502  503 -0.00000000000E+00 -0.00000000000E+00 -0.11332192527E+03  0.11332192527E+03  0.00000000000E+00 0. -1.
    9000007    1    1    2  501    0 -0.21888676196E+03 -0.12345024117E+03  0.11922611493E+04  0.12824344135E+04  0.40000000000E+03 0.  1.
   -9000007    1    1    2    0  503  0.21888676196E+03  0.12345024117E+03  0.74934519229E+03  0.88581577871E+03  0.40000000000E+03 0.  1.
<mgrwt>
<rscale>  2 0.47238901E+03</rscale>
<asrwt>0</asrwt>
<pdfrwt beam="1">  1       21 0.31614278E+00 0.47238901E+03</pdfrwt>
<pdfrwt beam="2">  1       21 0.17434144E-01 0.47238901E+03</pdfrwt>
<totfact> 0.64581123E+02</totfact>
</mgrwt>
</event>
<event>
 4    1  0.4690138E-002  0.5013049E+03  0.7818608E-02  0.1013439E+00
         21   -1    0    0  503  502  0.00000000000E+00  0.00000000000E+00  0.27984381999E+03  0.27984381999E+03  0.00000000000E+00 0. -1.
         21   -1    0    0  501  503 -0.00000000000E+00 -0.00000000000E+00 -0.22821425581E+04  0.22821425581E+04  0.00000000000E+00 0.  1.
    9000007    1    1    2  501    0 -0.18179891816E+03  0.24136227755E+03 -0.19987621608E+04  0.20606690105E+04  0.40000000000E+03 0.  1.
   -9000007    1    1    2    0  502  0.18179891816E+03 -0.24136227755E+03 -0.35365773822E+01  0.50131736759E+03  0.40000000000E+03 0. -1.
<mgrwt>
<rscale>  2 0.50130489E+03</rscale>
<asrwt>0</asrwt>
<pdfrwt beam="1">  1       21 0.43052897E-01 0.50130489E+03</pdfrwt>
<pdfrwt beam="2">  1       21 0.35109884E+00 0.50130489E+03</pdfrwt>
<totfact> 0.65256680E+01</totfact>
</mgrwt>
</event>
<event>
 4    1  0.4690138E-002  0.4413685E+03  0.7818608E-02  0.1030328E+00
         21   -1    0    0  501  502  0.00000000000E+00  0.00000000000E+00  0.12973688243E+04  0.12973688243E+04  0.00000000000E+00 0. -1.
         21   -1    0    0  502  503 -0.00000000000E+00 -0.00000000000E+00 -0.15382824154E+03  0.15382824154E+03  0.00000000000E+00 0. -1.
    9000007    1    1    2  501    0  0.12814771429E+03 -0.13558884324E+03  0.45964224569E+03  0.63724184194E+03  0.40000000000E+03 0. -1.
   -9000007    1    1    2    0  503 -0.12814771429E+03  0.13558884324E+03  0.68389833709E+03  0.81395522393E+03  0.40000000000E+03 0. -1.
<mgrwt>
<rscale>  2 0.44136852E+03</rscale>
<asrwt>0</asrwt>
<pdfrwt beam="1">  1       21 0.19959520E+00 0.44136852E+03</pdfrwt>
<pdfrwt beam="2">  1       21 0.23665884E-01 0.44136852E+03</pdfrwt>
<totfact> 0.19262406E+03</totfact>
</mgrwt>
</event>
<event>
 4    1  0.4690138E-002  0.4111259E+03  0.7818608E-02  0.1039994E+00
         21   -1    0    0  503  502  0.00000000000E+00  0.00000000000E+00  0.42219875852E+03  0.42219875852E+03  0.00000000000E+00 0. -1.
         21   -1    0    0  501  503 -0.00000000000E+00 -0.00000000000E+00 -0.45251864392E+03  0.45251864392E+03  0.00000000000E+00 0. -1.
    9000007    1    1    2  501    0  0.74385175417E+02  0.59087857887E+02  0.13334857206E+03  0.43221102594E+03  0.40000000000E+03 0. -1.
   -9000007    1    1    2    0  502 -0.74385175417E+02 -0.59087857887E+02 -0.16366845746E+03  0.44250637650E+03  0.40000000000E+03 0. -1.
<mgrwt>
<rscale>  2 0.41112593E+03</rscale>
<asrwt>0</asrwt>
<pdfrwt beam="1">  1       21 0.64953656E-01 0.41112593E+03</pdfrwt>
<pdfrwt beam="2">  1       21 0.69618253E-01 0.41112593E+03</pdfrwt>
<totfact> 0.36286330E+03</totfact>
</mgrwt>
</event>
<event>
 4    1  0.4690138E-002  0.6915777E+03  0.7818608E-02  0.9731745E-01
         21   -1    0    0  501  502  0.00000000000E+00  0.00000000000E+00  0.14013095896E+04  0.14013095896E+04  0.00000000000E+00 0. -1.
         21   -1    0    0  502  503 -0.00000000000E+00 -0.00000000000E+00 -0.64329855580E+03  0.64329855580E+03  0.00000000000E+00 0. -1.
    9000007    1    1    2  501    0  0.56404174349E+03  0.11691573859E+02  0.10794434510E+04  0.12819820378E+04  0.40000000000E+03 0. -1.
   -9000007    1    1    2    0  503 -0.56404174349E+03 -0.11691573859E+02 -0.32143241715E+03  0.76262610767E+03  0.40000000000E+03 0. -1.
<mgrwt>
<rscale>  2 0.69157775E+03</rscale>
<asrwt>0</asrwt>
<pdfrwt beam="1">  1       21 0.21558609E+00 0.69157775E+03</pdfrwt>
<pdfrwt beam="2">  1       21 0.98969009E-01 0.69157775E+03</pdfrwt>
<totfact> 0.63215782E+01</totfact>
</mgrwt>
</event>
<event>
 4    1  0.4690138E-002  0.4313645E+03  0.7818608E-02  0.1033430E+00
         21   -1    0    0  503  502  0.00000000000E+00  0.00000000000E+00  0.33663788573E+03  0.33663788573E+03  0.00000000000E+00 0.  1.
         21   -1    0    0  501  503 -0.00000000000E+00 -0.00000000000E+00 -0.88865835598E+03  0.88865835598E+03  0.00000000000E+00 0.  1.
    9000007    1    1    2  501    0  0.11192258252E+03  0.11639873966E+03 -0.65267631752E+03  0.78234372658E+03  0.40000000000E+03 0.  1.
   -9000007    1    1    2    0  502 -0.11192258252E+03 -0.11639873966E+03  0.10065584727E+03  0.44295251513E+03  0.40000000000E+03 0.  1.
<mgrwt>
<rscale>  2 0.43136450E+03</rscale>
<asrwt>0</asrwt>
<pdfrwt beam="1">  1       21 0.51790445E-01 0.43136450E+03</pdfrwt>
<pdfrwt beam="2">  1       21 0.13671667E+00 0.43136450E+03</pdfrwt>
<totfact> 0.11523695E+03</totfact>
</mgrwt>
</event>
<event>
 4    1  0.4690138E-002  0.4274559E+03  0.7818608E-02  0.1034667E+00
         21   -1    0    0  503  502  0.00000000000E+00  0.00000000000E+00  0.31426661418E+03  0.31426661418E+03  0.00000000000E+00 0. -1.
         21   -1    0    0  501  503 -0.00000000000E+00 -0.00000000000E+00 -0.59396525521E+03  0.59396525521E+03  0.00000000000E+00 0. -1.
    9000007    1    1    2  501    0  0.13853831619E+03  0.59377743434E+02 -0.20586595009E+03  0.47444638356E+03  0.40000000000E+03 0. -1.
   -9000007    1    1    2    0  502 -0.13853831619E+03 -0.59377743434E+02 -0.73832690942E+02  0.43378548583E+03  0.40000000000E+03 0. -1.
<mgrwt>
<rscale>  2 0.42745594E+03</rscale>
<asrwt>0</asrwt>
<pdfrwt beam="1">  1       21 0.48348710E-01 0.42745594E+03</pdfrwt>
<pdfrwt beam="2">  1       21 0.91379270E-01 0.42745594E+03</pdfrwt>
<totfact> 0.36484590E+03</totfact>
</mgrwt>
</event>
<event>
 4    1  0.4690138E-002  0.4204003E+03  0.7818608E-02  0.1036936E+00
         21   -1    0    0  503  502  0.00000000000E+00  0.00000000000E+00  0.18222103327E+03  0.18222103327E+03  0.00000000000E+00 0.  1.
         21   -1    0    0  501  503 -0.00000000000E+00 -0.00000000000E+00 -0.10048135222E+04  0.10048135222E+04  0.00000000000E+00 0.  1.
    9000007    1    1    2  501    0  0.12412324887E+03 -0.36466433439E+02 -0.52192819888E+03  0.67018312905E+03  0.40000000000E+03 0. -1.
   -9000007    1    1    2    0  502 -0.12412324887E+03  0.36466433439E+02 -0.30066429002E+03  0.51685142640E+03  0.40000000000E+03 0. -1.
<mgrwt>
<rscale>  2 0.42040026E+03</rscale>
<asrwt>0</asrwt>
<pdfrwt beam="1">  1       21 0.28034005E-01 0.42040026E+03</pdfrwt>
<pdfrwt beam="2">  1       21 0.15458670E+00 0.42040026E+03</pdfrwt>
<totfact> 0.29238548E+03</totfact>
</mgrwt>
</event>
<event>
 4    1  0.4690138E-002  0.4046039E+03  0.7818608E-02  0.1042197E+00
         21   -1    0    0  503  502  0.00000000000E+00  0.00000000000E+00  0.20384232525E+03  0.20384232525E+03  0.00000000000E+00 0. -1.
         21   -1    0    0  501  503 -0.00000000000E+00 -0.00000000000E+00 -0.11078344894E+04  0.11078344894E+04  0.00000000000E+00 0. -1.
    9000007    1    1    2  501    0 -0.59183616668E+02  0.14200232808E+02 -0.79596974359E+03  0.89290099104E+03  0.40000000000E+03 0. -1.
   -9000007    1    1    2    0  502  0.59183616668E+02 -0.14200232808E+02 -0.10802242057E+03  0.41877582361E+03  0.40000000000E+03 0. -1.
<mgrwt>
<rscale>  2 0.40460394E+03</rscale>
<asrwt>0</asrwt>
<pdfrwt beam="1">  1       21 0.31360358E-01 0.40460394E+03</pdfrwt>
<pdfrwt beam="2">  1       21 0.17043607E+00 0.40460394E+03</pdfrwt>
<totfact> 0.17953431E+03</totfact>
</mgrwt>
</event>
<event>
 4    1  0.4690138E-002  0.4472521E+03  0.7818608E-02  0.1028545E+00
         21   -1    0    0  501  502  0.00000000000E+00  0.00000000000E+00  0.41625289553E+03  0.41625289553E+03  0.00000000000E+00 0. -1.
         21   -1    0    0  502  503 -0.00000000000E+00 -0.00000000000E+00 -0.57054386318E+03  0.57054386318E+03  0.00000000000E+00 0. -1.
    9000007    1    1    2  501    0  0.18104363203E+03  0.85191866550E+02  0.11880022288E+03  0.46276121681E+03  0.40000000000E+03 0. -1.
   -9000007    1    1    2    0  503 -0.18104363203E+03 -0.85191866550E+02 -0.27309119053E+03  0.52403554190E+03  0.40000000000E+03 0. -1.
<mgrwt>
<rscale>  2 0.44725211E+03</rscale>
<asrwt>0</asrwt>
<pdfrwt beam="1">  1       21 0.64038908E-01 0.44725211E+03</pdfrwt>
<pdfrwt beam="2">  1       21 0.87775978E-01 0.44725211E+03</pdfrwt>
<totfact> 0.21687933E+03</totfact>
</mgrwt>
</event>
<event>
 4    1  0.4690138E-002  0.4107589E+03  0.7818608E-02  0.1040117E+00
         21   -1    0    0  501  502  0.00000000000E+00  0.00000000000E+00  0.38780593621E+03  0.38780593621E+03  0.00000000000E+00 0. -1.
         21   -1    0    0  502  503 -0.00000000000E+00 -0.00000000000E+00 -0.10267948346E+04  0.10267948346E+04  0.00000000000E+00 0. -1.
    9000007    1    1    2  501    0 -0.50582933126E+02 -0.78512913960E+02  0.21744063607E+03  0.46476159587E+03  0.40000000000E+03 0. -1.
   -9000007    1    1    2    0  503  0.50582933126E+02  0.78512913960E+02 -0.85642953444E+03  0.94983917494E+03  0.40000000000E+03 0. -1.
<mgrwt>
<rscale>  2 0.41075894E+03</rscale>
<asrwt>0</asrwt>
<pdfrwt beam="1">  1       21 0.59662452E-01 0.41075894E+03</pdfrwt>
<pdfrwt beam="2">  1       21 0.15796844E+00 0.41075894E+03</pdfrwt>
<totfact> 0.58059288E+02</totfact>
</mgrwt>
</event>
<event>
 4    1  0.4690138E-002  0.4768701E+03  0.7818608E-02  0.1019999E+00
         21   -1    0    0  501  502  0.00000000000E+00  0.00000000000E+00  0.11288753273E+03  0.11288753273E+03  0.00000000000E+00 0. -1.
         21   -1    0    0  502  503 -0.00000000000E+00 -0.00000000000E+00 -0.22476849099E+04  0.22476849099E+04  0.00000000000E+00 0. -1.
    9000007    1    1    2  501    0  0.25198993286E+03 -0.62499599742E+02 -0.14476108465E+04  0.15241332911E+04  0.40000000000E+03 0. -1.
   -9000007    1    1    2    0  503 -0.25198993286E+03  0.62499599742E+02 -0.68718653067E+03  0.83643915151E+03  0.40000000000E+03 0. -1.
<mgrwt>
<rscale>  2 0.47687014E+03</rscale>
<asrwt>0</asrwt>
<pdfrwt beam="1">  1       21 0.17367313E-01 0.47687014E+03</pdfrwt>
<pdfrwt beam="2">  1       21 0.34579768E+00 0.47687014E+03</pdfrwt>
<totfact> 0.42833043E+02</totfact>
</mgrwt>
</event>
<event>
 4    1  0.4690138E-002  0.6358612E+03  0.7818608E-02  0.9833677E-01
         21   -1    0    0  501  502  0.00000000000E+00  0.00000000000E+00  0.93113789622E+03  0.93113789622E+03  0.00000000000E+00 0.  1.
         21   -1    0    0  502  503 -0.00000000000E+00 -0.00000000000E+00 -0.50919225270E+03  0.50919225270E+03  0.00000000000E+00 0.  1.
    9000007    1    1    2  501    0 -0.19735068076E+03 -0.45318002828E+03  0.48730990262E+03  0.80111820003E+03  0.40000000000E+03 0.  1.
   -9000007    1    1    2    0  503  0.19735068076E+03  0.45318002828E+03 -0.65364259111E+02  0.63921194888E+03  0.40000000000E+03 0.  1.
<mgrwt>
<rscale>  2 0.63586117E+03</rscale>
<asrwt>0</asrwt>
<pdfrwt beam="1">  1       21 0.14325198E+00 0.63586117E+03</pdfrwt>
<pdfrwt beam="2">  1       21 0.78337270E-01 0.63586117E+03</pdfrwt>
<totfact> 0.37533592E+02</totfact>
</mgrwt>
</event>
<event>
 4    1  0.4690138E-002  0.5543001E+03  0.7818608E-02  0.1000503E+00
         21   -1    0    0  501  502  0.00000000000E+00  0.00000000000E+00  0.40982705736E+03  0.40982705736E+03  0.00000000000E+00 0. -1.
         21   -1    0    0  502  503 -0.00000000000E+00 -0.00000000000E+00 -0.84302454131E+03  0.84302454131E+03  0.00000000000E+00 0.  1.
    9000007    1    1    2  501    0 -0.23040651197E+03  0.30685736803E+03 -0.42501918001E+03  0.69849116562E+03  0.40000000000E+03 0.  1.
   -9000007    1    1    2    0  503  0.23040651197E+03 -0.30685736803E+03 -0.81783039405E+01  0.55436043305E+03  0.40000000000E+03 0. -1.
<mgrwt>
<rscale>  2 0.55430010E+03</rscale>
<asrwt>0</asrwt>
<pdfrwt beam="1">  1       21 0.63050317E-01 0.55430010E+03</pdfrwt>
<pdfrwt beam="2">  1       21 0.12969608E+00 0.55430010E+03</pdfrwt>
<totfact> 0.82193642E+02</totfact>
</mgrwt>
</event>
<event>
 4    1  0.4690138E-002  0.4607915E+03  0.7818608E-02  0.1024552E+00
         21   -1    0    0  501  502  0.00000000000E+00  0.00000000000E+00  0.41563838932E+03  0.41563838932E+03  0.00000000000E+00 0. -1.
         21   -1    0    0  502  503 -0.00000000000E+00 -0.00000000000E+00 -0.61144077536E+03  0.61144077536E+03  0.00000000000E+00 0. -1.
    9000007    1    1    2  501    0  0.22698910359E+03  0.28368490389E+02  0.11039246438E+03  0.47383047663E+03  0.40000000000E+03 0.  1.
   -9000007    1    1    2    0  503 -0.22698910359E+03 -0.28368490389E+02 -0.30619485042E+03  0.55324868804E+03  0.40000000000E+03 0.  1.
<mgrwt>
<rscale>  2 0.46079152E+03</rscale>
<asrwt>0</asrwt>
<pdfrwt beam="1">  1       21 0.63944367E-01 0.46079152E+03</pdfrwt>
<pdfrwt beam="2">  1       21 0.94067812E-01 0.46079152E+03</pdfrwt>
<totfact> 0.18368329E+03</totfact>
</mgrwt>
</event>
<event>
 4    1  0.4690138E-002  0.4015412E+03  0.7818608E-02  0.1043247E+00
         21   -1    0    0  503  502  0.00000000000E+00  0.00000000000E+00  0.76291414212E+03  0.76291414212E+03  0.00000000000E+00 0.  1.
         21   -1    0    0  501  503 -0.00000000000E+00 -0.00000000000E+00 -0.21351889197E+03  0.21351889197E+03  0.00000000000E+00 0.  1.
    9000007    1    1    2  501    0 -0.57575934839E+00  0.35143016724E+02  0.22539501073E+03  0.46047613835E+03  0.40000000000E+03 0.  1.
   -9000007    1    1    2    0  502  0.57575934839E+00 -0.35143016724E+02  0.32400023941E+03  0.51595689574E+03  0.40000000000E+03 0.  1.
<mgrwt>
<rscale>  2 0.40154123E+03</rscale>
<asrwt>0</asrwt>
<pdfrwt beam="1">  1       21 0.11737141E+00 0.40154123E+03</pdfrwt>
<pdfrwt beam="2">  1       21 0.32849061E-01 0.40154123E+03</pdfrwt>
<totfact> 0.44261713E+03</totfact>
</mgrwt>
</event>
<event>
 4    1  0.4690138E-002  0.4121671E+03  0.7818608E-02  0.1039646E+00
         21   -1    0    0  503  502  0.00000000000E+00  0.00000000000E+00  0.98188270134E+02  0.98188270134E+02  0.00000000000E+00 0. -1.
         21   -1    0    0  501  503 -0.00000000000E+00 -0.00000000000E+00 -0.18346170909E+04  0.18346170909E+04  0.00000000000E+00 0. -1.
    9000007    1    1    2  501    0  0.69910616250E+02  0.70669965295E+02 -0.10988081856E+04  0.11735677087E+04  0.40000000000E+03 0. -1.
   -9000007    1    1    2    0  502 -0.69910616250E+02 -0.70669965295E+02 -0.63762063513E+03  0.75923765225E+03  0.40000000000E+03 0. -1.
<mgrwt>
<rscale>  2 0.41216712E+03</rscale>
<asrwt>0</asrwt>
<pdfrwt beam="1">  1       21 0.15105889E-01 0.41216712E+03</pdfrwt>
<pdfrwt beam="2">  1       21 0.28224876E+00 0.41216712E+03</pdfrwt>
<totfact> 0.13944951E+03</totfact>
</mgrwt>
</event>
<event>
 4    1  0.4690138E-002  0.4188057E+03  0.7818608E-02  0.1037456E+00
         21   -1    0    0  503  502  0.00000000000E+00  0.00000000000E+00  0.39572977687E+03  0.39572977687E+03  0.00000000000E+00 0.  1.
         21   -1    0    0  501  503 -0.00000000000E+00 -0.00000000000E+00 -0.11853147958E+04  0.11853147958E+04  0.00000000000E+00 0. -1.
    9000007    1    1    2  501    0  0.11435931588E+03  0.48168329331E+02 -0.10202889199E+04  0.11028996877E+04  0.40000000000E+03 0. -1.
   -9000007    1    1    2    0  502 -0.11435931588E+03 -0.48168329331E+02  0.23070390098E+03  0.47814488495E+03  0.40000000000E+03 0.  1.
<mgrwt>
<rscale>  2 0.41880573E+03</rscale>
<asrwt>0</asrwt>
<pdfrwt beam="1">  1       21 0.60881505E-01 0.41880573E+03</pdfrwt>
<pdfrwt beam="2">  1       21 0.18235612E+00 0.41880573E+03</pdfrwt>
<totfact> 0.36780246E+02</totfact>
</mgrwt>
</event>
<event>
 4    1  0.4690138E-002  0.4024773E+03  0.7818608E-02  0.1042925E+00
         21   -1    0    0  503  502  0.00000000000E+00  0.00000000000E+00  0.25874854254E+03  0.25874854254E+03  0.00000000000E+00 0.  1.
         21   -1    0    0  501  503 -0.00000000000E+00 -0.00000000000E+00 -0.94238561065E+03  0.94238561065E+03  0.00000000000E+00 0.  1.
    9000007    1    1    2  501    0 -0.79674273349E+01  0.43869071815E+02 -0.68977535192E+03  0.79861004970E+03  0.40000000000E+03 0.  1.
   -9000007    1    1    2    0  502  0.79674273349E+01 -0.43869071815E+02  0.61382838197E+01  0.40252410349E+03  0.40000000000E+03 0.  1.
<mgrwt>
<rscale>  2 0.40247730E+03</rscale>
<asrwt>0</asrwt>
<pdfrwt beam="1">  1       21 0.39807468E-01 0.40247730E+03</pdfrwt>
<pdfrwt beam="2">  1       21 0.14498240E+00 0.40247730E+03</pdfrwt>
<totfact> 0.17326107E+03</totfact>
</mgrwt>
</event>
<event>
 4    1  0.4690138E-002  0.5508789E+03  0.7818608E-02  0.1001291E+00
         21   -1    0    0  503  502  0.00000000000E+00  0.00000000000E+00  0.51816499332E+03  0.51816499332E+03  0.00000000000E+00 0. -1.
         21   -1    0    0  501  503 -0.00000000000E+00 -0.00000000000E+00 -0.66920276530E+03  0.66920276530E+03  0.00000000000E+00 0. -1.
    9000007    1    1    2  501    0 -0.37077459124E+03 -0.77419279928E+02 -0.28528516272E+03  0.62036696114E+03  0.40000000000E+03 0. -1.
   -9000007    1    1    2    0  502  0.37077459124E+03  0.77419279928E+02  0.13424739074E+03  0.56700079747E+03  0.40000000000E+03 0. -1.
<mgrwt>
<rscale>  2 0.55087888E+03</rscale>
<asrwt>0</asrwt>
<pdfrwt beam="1">  1       21 0.79717691E-01 0.55087888E+03</pdfrwt>
<pdfrwt beam="2">  1       21 0.10295427E+00 0.55087888E+03</pdfrwt>
<totfact> 0.86701286E+02</totfact>
</mgrwt>
</event>
<event>
 4    1  0.4690138E-002  0.4373173E+03  0.7818608E-02  0.1031573E+00
         21   -1    0    0  501  502  0.00000000000E+00  0.00000000000E+00  0.72851098089E+03  0.72851098089E+03  0.00000000000E+00 0. -1.
         21   -1    0    0  502  503 -0.00000000000E+00 -0.00000000000E+00 -0.26252339318E+03  0.26252339318E+03  0.00000000000E+00 0. -1.
    9000007    1    1    2  501    0 -0.45905065117E+02  0.17070192973E+03  0.23546348490E+03  0.49667844380E+03  0.40000000000E+03 0. -1.
   -9000007    1    1    2    0  503  0.45905065117E+02 -0.17070192973E+03  0.23052410280E+03  0.49435593026E+03  0.40000000000E+03 0. -1.
<mgrwt>
<rscale>  2 0.43731730E+03</rscale>
<asrwt>0</asrwt>
<pdfrwt beam="1">  1       21 0.11207861E+00 0.43731730E+03</pdfrwt>
<pdfrwt beam="2">  1       21 0.40388215E-01 0.43731730E+03</pdfrwt>
<totfact> 0.32201651E+03</totfact>
</mgrwt>
</event>
<event>
 4    1  0.4690138E-002  0.4205448E+03  0.7818608E-02  0.1036889E+00
         21   -1    0    0  503  502  0.00000000000E+00  0.00000000000E+00  0.66130518238E+03  0.66130518238E+03  0.00000000000E+00 0. -1.
         21   -1    0    0  501  503 -0.00000000000E+00 -0.00000000000E+00 -0.48924599889E+03  0.48924599889E+03  0.00000000000E+00 0.  1.
    9000007    1    1    2  501    0  0.10623505498E+03 -0.74646151911E+02 -0.30131830692E+03  0.51734964675E+03  0.40000000000E+03 0.  1.
   -9000007    1    1    2    0  502 -0.10623505498E+03  0.74646151911E+02  0.47337749041E+03  0.63320153453E+03  0.40000000000E+03 0. -1.
<mgrwt>
<rscale>  2 0.42054481E+03</rscale>
<asrwt>0</asrwt>
<pdfrwt beam="1">  1       21 0.10173926E+00 0.42054481E+03</pdfrwt>
<pdfrwt beam="2">  1       21 0.75268615E-01 0.42054481E+03</pdfrwt>
<totfact> 0.10709802E+03</totfact>
</mgrwt>
</event>
<event>
 4    1  0.4690138E-002  0.4349373E+03  0.7818608E-02  0.1032312E+00
         21   -1    0    0  501  502  0.00000000000E+00  0.00000000000E+00  0.43150634054E+03  0.43150634054E+03  0.00000000000E+00 0.  1.
         21   -1    0    0  502  503 -0.00000000000E+00 -0.00000000000E+00 -0.45321463977E+03  0.45321463977E+03  0.00000000000E+00 0.  1.
    9000007    1    1    2  501    0 -0.78638689356E+02 -0.15161264898E+03  0.69135875447E+02  0.44039778390E+03  0.40000000000E+03 0.  1.
   -9000007    1    1    2    0  503  0.78638689356E+02  0.15161264898E+03 -0.90844174671E+02  0.44432319641E+03  0.40000000000E+03 0.  1.
<mgrwt>
<rscale>  2 0.43493728E+03</rscale>
<asrwt>0</asrwt>
<pdfrwt beam="1">  1       21 0.66385591E-01 0.43493728E+03</pdfrwt>
<pdfrwt beam="2">  1       21 0.69725329E-01 0.43493728E+03</pdfrwt>
<totfact> 0.34150847E+03</totfact>
</mgrwt>
</event>
<event>
 4    1  0.4690138E-002  0.4397154E+03  0.7818608E-02  0.1030834E+00
         21   -1    0    0  503  502  0.00000000000E+00  0.00000000000E+00  0.82618443704E+03  0.82618443704E+03  0.00000000000E+00 0.  1.
         21   -1    0    0  501  503 -0.00000000000E+00 -0.00000000000E+00 -0.40217845417E+03  0.40217845417E+03  0.00000000000E+00 0.  1.
    9000007    1    1    2  501    0  0.13851593326E+03  0.11900839013E+03 -0.18513121904E+03  0.47709876226E+03  0.40000000000E+03 0.  1.
   -9000007    1    1    2    0  502 -0.13851593326E+03 -0.11900839013E+03  0.60913720191E+03  0.75126412895E+03  0.40000000000E+03 0.  1.
<mgrwt>
<rscale>  2 0.43971543E+03</rscale>
<asrwt>0</asrwt>
<pdfrwt beam="1">  1       21 0.12710530E+00 0.43971543E+03</pdfrwt>
<pdfrwt beam="2">  1       21 0.61873608E-01 0.43971543E+03</pdfrwt>
<totfact> 0.94367204E+02</totfact>
</mgrwt>
</event>
<event>
 4    1  0.4690138E-002  0.6471964E+03  0.7818608E-02  0.9812054E-01
         21   -1    0    0  501  502  0.00000000000E+00  0.00000000000E+00  0.33989016868E+03  0.33989016868E+03  0.00000000000E+00 0. -1.
         21   -1    0    0  502  503 -0.00000000000E+00 -0.00000000000E+00 -0.12385878178E+04  0.12385878178E+04  0.00000000000E+00 0.  1.
    9000007    1    1    2  501    0 -0.12225205321E+01  0.50878457359E+03 -0.39333390490E+03  0.75734721074E+03  0.40000000000E+03 0. -1.
   -9000007    1    1    2    0  503  0.12225205321E+01 -0.50878457359E+03 -0.50536374418E+03  0.82113077571E+03  0.40000000000E+03 0.  1.
<mgrwt>
<rscale>  2 0.64719644E+03</rscale>
<asrwt>0</asrwt>
<pdfrwt beam="1">  1       21 0.52290794E-01 0.64719644E+03</pdfrwt>
<pdfrwt beam="2">  1       21 0.19055198E+00 0.64719644E+03</pdfrwt>
<totfact> 0.40816097E+02</totfact>
</mgrwt>
</event>
<event>
 4    1  0.4690138E-002  0.4103402E+03  0.7818608E-02  0.1040257E+00
         21   -1    0    0  503  502  0.00000000000E+00  0.00000000000E+00  0.13146196673E+03  0.13146196673E+03  0.00000000000E+00 0. -1.
         21   -1    0    0  501  503 -0.00000000000E+00 -0.00000000000E+00 -0.15013456099E+04  0.15013456099E+04  0.00000000000E+00 0. -1.
    9000007    1    1    2  501    0  0.59454487913E+02 -0.69600421718E+02 -0.99783395742E+03  0.10789122584E+04  0.40000000000E+03 0. -1.
   -9000007    1    1    2    0  502 -0.59454487913E+02  0.69600421718E+02 -0.37204968573E+03  0.55389531817E+03  0.40000000000E+03 0. -1.
<mgrwt>
<rscale>  2 0.41034017E+03</rscale>
<asrwt>0</asrwt>
<pdfrwt beam="1">  1       21 0.20224917E-01 0.41034017E+03</pdfrwt>
<pdfrwt beam="2">  1       21 0.23097626E+00 0.41034017E+03</pdfrwt>
<totfact> 0.16581516E+03</totfact>
</mgrwt>
</event>
<event>
 4    1  0.4690138E-002  0.5144566E+03  0.7818608E-02  0.1010073E+00
         21   -1    0    0  501  502  0.00000000000E+00  0.00000000000E+00  0.17970421425E+04  0.17970421425E+04  0.00000000000E+00 0. -1.
         21   -1    0    0  502  503 -0.00000000000E+00 -0.00000000000E+00 -0.15265102566E+03  0.15265102566E+03  0.00000000000E+00 0. -1.
    9000007    1    1    2  501    0 -0.32019291070E+03 -0.46282546060E+02  0.10050804559E+04  0.11290935732E+04  0.40000000000E+03 0. -1.
   -9000007    1    1    2    0  503  0.32019291070E+03  0.46282546060E+02  0.63931066098E+03  0.82059959504E+03  0.40000000000E+03 0. -1.
<mgrwt>
<rscale>  2 0.51445658E+03</rscale>
<asrwt>0</asrwt>
<pdfrwt beam="1">  1       21 0.27646801E+00 0.51445658E+03</pdfrwt>
<pdfrwt beam="2">  1       21 0.23484774E-01 0.51445658E+03</pdfrwt>
<totfact> 0.62185076E+02</totfact>
</mgrwt>
</event>
<event>
 4    1  0.4690138E-002  0.4560680E+03  0.7818608E-02  0.1025928E+00
         21   -1    0    0  501  502  0.00000000000E+00  0.00000000000E+00  0.14396756824E+03  0.14396756824E+03  0.00000000000E+00 0.  1.
         21   -1    0    0  502  503 -0.00000000000E+00 -0.00000000000E+00 -0.14488872651E+04  0.14488872651E+04  0.00000000000E+00 0.  1.
    9000007    1    1    2  501    0 -0.83164572621E+02  0.20268604664E+03 -0.69498842006E+03  0.83126823809E+03  0.40000000000E+03 0.  1.
   -9000007    1    1    2    0  503  0.83164572621E+02 -0.20268604664E+03 -0.60993127679E+03  0.76158659524E+03  0.40000000000E+03 0.  1.
<mgrwt>
<rscale>  2 0.45606796E+03</rscale>
<asrwt>0</asrwt>
<pdfrwt beam="1">  1       21 0.22148857E-01 0.45606796E+03</pdfrwt>
<pdfrwt beam="2">  1       21 0.22290573E+00 0.45606796E+03</pdfrwt>
<totfact> 0.15334182E+03</totfact>
</mgrwt>
</event>
<event>
 4    1  0.4690138E-002  0.4342345E+03  0.7818608E-02  0.1032531E+00
         21   -1    0    0  501  502  0.00000000000E+00  0.00000000000E+00  0.74831777685E+03  0.74831777685E+03  0.00000000000E+00 0.  1.
         21   -1    0    0  502  503 -0.00000000000E+00 -0.00000000000E+00 -0.25245646501E+03  0.25245646501E+03  0.00000000000E+00 0. -1.
    9000007    1    1    2  501    0  0.68291368199E+02  0.15458308888E+03  0.22614741659E+03  0.48959401178E+03  0.40000000000E+03 0.  1.
   -9000007    1    1    2    0  503 -0.68291368199E+02 -0.15458308888E+03  0.26971389525E+03  0.51118023009E+03  0.40000000000E+03 0. -1.
<mgrwt>
<rscale>  2 0.43423455E+03</rscale>
<asrwt>0</asrwt>
<pdfrwt beam="1">  1       21 0.11512581E+00 0.43423455E+03</pdfrwt>
<pdfrwt beam="2">  1       21 0.38839457E-01 0.43423455E+03</pdfrwt>
<totfact> 0.32676847E+03</totfact>
</mgrwt>
</event>
<event>
 4    1  0.4690138E-002  0.4938132E+03  0.7818608E-02  0.1015406E+00
         21   -1    0    0  503  502  0.00000000000E+00  0.00000000000E+00  0.41419489242E+03  0.41419489242E+03  0.00000000000E+00 0.  1.
         21   -1    0    0  501  503 -0.00000000000E+00 -0.00000000000E+00 -0.59139509639E+03  0.59139509639E+03  0.00000000000E+00 0.  1.
    9000007    1    1    2  501    0  0.60475719905E+02 -0.28318567735E+03 -0.54885359865E+02  0.49685394562E+03  0.40000000000E+03 0.  1.
   -9000007    1    1    2    0  502 -0.60475719905E+02  0.28318567735E+03 -0.12231484410E+03  0.50873604319E+03  0.40000000000E+03 0.  1.
<mgrwt>
<rscale>  2 0.49381316E+03</rscale>
<asrwt>0</asrwt>
<pdfrwt beam="1">  1       21 0.63722291E-01 0.49381316E+03</pdfrwt>
<pdfrwt beam="2">  1       21 0.90983861E-01 0.49381316E+03</pdfrwt>
<totfact> 0.19807326E+03</totfact>
</mgrwt>
</event>
<event>
 4    1  0.4690138E-002  0.5569259E+03  0.7818608E-02  0.9999035E-01
         21   -1    0    0  501  502  0.00000000000E+00  0.00000000000E+00  0.52902130247E+03  0.52902130247E+03  0.00000000000E+00 0. -1.
         21   -1    0    0  502  503 -0.00000000000E+00 -0.00000000000E+00 -0.58907869656E+03  0.58907869656E+03  0.00000000000E+00 0. -1.
    9000007    1    1    2  501    0 -0.37355122754E+03 -0.10308197212E+03  0.83512019599E+01  0.55698846949E+03  0.40000000000E+03 0. -1.
   -9000007    1    1    2    0  503  0.37355122754E+03  0.10308197212E+03 -0.68408596048E+02  0.56111152954E+03  0.40000000000E+03 0. -1.
<mgrwt>
<rscale>  2 0.55692586E+03</rscale>
<asrwt>0</asrwt>
<pdfrwt beam="1">  1       21 0.81387893E-01 0.55692586E+03</pdfrwt>
<pdfrwt beam="2">  1       21 0.90627492E-01 0.55692586E+03</pdfrwt>
<totfact> 0.11229138E+03</totfact>
</mgrwt>
</event>
<event>
 4    1  0.4690138E-002  0.5780792E+03  0.7818608E-02  0.9951958E-01
         21   -1    0    0  501  502  0.00000000000E+00  0.00000000000E+00  0.10766010550E+04  0.10766010550E+04  0.00000000000E+00 0. -1.
         21   -1    0    0  502  503 -0.00000000000E+00 -0.00000000000E+00 -0.35964223628E+03  0.35964223628E+03  0.00000000000E+00 0. -1.
    9000007    1    1    2  501    0  0.83270208900E+01 -0.41726034149E+03  0.62420748152E+03  0.85077054007E+03  0.40000000000E+03 0. -1.
   -9000007    1    1    2    0  503 -0.83270208900E+01  0.41726034149E+03  0.92751337186E+02  0.58547275121E+03  0.40000000000E+03 0. -1.
<mgrwt>
<rscale>  2 0.57807917E+03</rscale>
<asrwt>0</asrwt>
<pdfrwt beam="1">  1       21 0.16563093E+00 0.57807917E+03</pdfrwt>
<pdfrwt beam="2">  1       21 0.55329575E-01 0.57807917E+03</pdfrwt>
<totfact> 0.55827727E+02</totfact>
</mgrwt>
</event>
<event>
 4    1  0.4690138E-002  0.5010511E+03  0.7818608E-02  0.1013505E+00
         21   -1    0    0  503  502  0.00000000000E+00  0.00000000000E+00  0.86739689166E+03  0.86739689166E+03  0.00000000000E+00 0.  1.
         21   -1    0    0  501  503 -0.00000000000E+00 -0.00000000000E+00 -0.31721703647E+03  0.31721703647E+03  0.00000000000E+00 0.  1.
    9000007    1    1    2  501    0  0.23291539878E+03 -0.19184005177E+03  0.99792261788E+02  0.51089204727E+03  0.40000000000E+03 0.  1.
   -9000007    1    1    2    0  502 -0.23291539878E+03  0.19184005177E+03  0.45038759340E+03  0.67372188086E+03  0.40000000000E+03 0.  1.
<mgrwt>
<rscale>  2 0.50105108E+03</rscale>
<asrwt>0</asrwt>
<pdfrwt beam="1">  1       21 0.13344567E+00 0.50105108E+03</pdfrwt>
<pdfrwt beam="2">  1       21 0.48802621E-01 0.50105108E+03</pdfrwt>
<totfact> 0.13554319E+03</totfact>
</mgrwt>
</event>
<event>
 4    1  0.4690138E-002  0.4288368E+03  0.7818608E-02  0.1034228E+00
         21   -1    0    0  501  502  0.00000000000E+00  0.00000000000E+00  0.19803543290E+03  0.19803543290E+03  0.00000000000E+00 0. -1.
         21   -1    0    0  502  503 -0.00000000000E+00 -0.00000000000E+00 -0.16688308370E+04  0.16688308370E+04  0.00000000000E+00 0. -1.
    9000007    1    1    2  501    0  0.15434949327E+03 -0.87889671332E+01 -0.11373791187E+03  0.44366352635E+03  0.40000000000E+03 0. -1.
   -9000007    1    1    2    0  503 -0.15434949327E+03  0.87889671332E+01 -0.13570574922E+04  0.14232027436E+04  0.40000000000E+03 0. -1.
<mgrwt>
<rscale>  2 0.42883681E+03</rscale>
<asrwt>0</asrwt>
<pdfrwt beam="1">  1       21 0.30466991E-01 0.42883681E+03</pdfrwt>
<pdfrwt beam="2">  1       21 0.25674319E+00 0.42883681E+03</pdfrwt>
<totfact> 0.51376298E+02</totfact>
</mgrwt>
</event>
<event>
 4    1  0.4690138E-002  0.4176711E+03  0.7818608E-02  0.1037827E+00
         21   -1    0    0  501  502  0.00000000000E+00  0.00000000000E+00  0.61857959825E+03  0.61857959825E+03  0.00000000000E+00 0.  1.
         21   -1    0    0  502  503 -0.00000000000E+00 -0.00000000000E+00 -0.42610917874E+03  0.42610917874E+03  0.00000000000E+00 0.  1.
    9000007    1    1    2  501    0  0.11624690185E+03  0.30591212528E+02  0.39998685377E+03  0.57830670726E+03  0.40000000000E+03 0.  1.
   -9000007    1    1    2    0  503 -0.11624690185E+03 -0.30591212528E+02 -0.20751643426E+03  0.46638206973E+03  0.40000000000E+03 0.  1.
<mgrwt>
<rscale>  2 0.41767112E+03</rscale>
<asrwt>0</asrwt>
<pdfrwt beam="1">  1       21 0.95166091E-01 0.41767112E+03</pdfrwt>
<pdfrwt beam="2">  1       21 0.65555259E-01 0.41767112E+03</pdfrwt>
<totfact> 0.17193343E+03</totfact>
</mgrwt>
</event>
<event>
 4    1  0.4690138E-002  0.4811865E+03  0.7818608E-02  0.1018810E+00
         21   -1    0    0  501  502  0.00000000000E+00  0.00000000000E+00  0.10139278220E+04  0.10139278220E+04  0.00000000000E+00 0.  1.
         21   -1    0    0  502  503 -0.00000000000E+00 -0.00000000000E+00 -0.28921751548E+03  0.28921751548E+03  0.00000000000E+00 0. -1.
    9000007    1    1    2  501    0 -0.15302550238E+03  0.21937094782E+03  0.66124293805E+03  0.81779131828E+03  0.40000000000E+03 0.  1.
   -9000007    1    1    2    0  503  0.15302550238E+03 -0.21937094782E+03  0.63467368513E+02  0.48535401924E+03  0.40000000000E+03 0. -1.
<mgrwt>
<rscale>  2 0.48118647E+03</rscale>
<asrwt>0</asrwt>
<pdfrwt beam="1">  1       21 0.15598889E+00 0.48118647E+03</pdfrwt>
<pdfrwt beam="2">  1       21 0.44495003E-01 0.48118647E+03</pdfrwt>
<totfact> 0.10904164E+03</totfact>
</mgrwt>
</event>
<event>
 4    1  0.4690138E-002  0.4053105E+03  0.7818608E-02  0.1041956E+00
         21   -1    0    0  501  502  0.00000000000E+00  0.00000000000E+00  0.46365368305E+03  0.46365368305E+03  0.00000000000E+00 0.  1.
         21   -1    0    0  502  503 -0.00000000000E+00 -0.00000000000E+00 -0.54148338497E+03  0.54148338497E+03  0.00000000000E+00 0.  1.
    9000007    1    1    2  501    0 -0.59533075738E+02  0.27063590191E+02  0.25656376298E+03  0.47968905501E+03  0.40000000000E+03 0.  1.
   -9000007    1    1    2    0  503  0.59533075738E+02 -0.27063590191E+02 -0.33439346489E+03  0.52544801301E+03  0.40000000000E+03 0.  1.
<mgrwt>
<rscale>  2 0.40531053E+03</rscale>
<asrwt>0</asrwt>
<pdfrwt beam="1">  1       21 0.71331336E-01 0.40531053E+03</pdfrwt>
<pdfrwt beam="2">  1       21 0.83305136E-01 0.40531053E+03</pdfrwt>
<totfact> 0.19581799E+03</totfact>
</mgrwt>
</event>
<event>
 4    1  0.4690138E-002  0.4020401E+03  0.7818608E-02  0.1043076E+00
         21   -1    0    0  503  502  0.00000000000E+00  0.00000000000E+00  0.83876480979E+03  0.83876480979E+03  0.00000000000E+00 0.  1.
         21   -1    0    0  501  503 -0.00000000000E+00 -0.00000000000E+00 -0.20105928768E+03  0.20105928768E+03  0.00000000000E+00 0.  1.
    9000007    1    1    2  501    0  0.16244732203E+02 -0.37045777927E+02  0.42481647738E+03  0.58489770083E+03  0.40000000000E+03 0.  1.
   -9000007    1    1    2    0  502 -0.16244732203E+02  0.37045777927E+02  0.21288904474E+03  0.45492639664E+03  0.40000000000E+03 0.  1.
<mgrwt>
<rscale>  2 0.40204015E+03</rscale>
<asrwt>0</asrwt>
<pdfrwt beam="1">  1       21 0.12904074E+00 0.40204015E+03</pdfrwt>
<pdfrwt beam="2">  1       21 0.30932198E-01 0.40204015E+03</pdfrwt>
<totfact> 0.39176749E+03</totfact>
</mgrwt>
</event>
<event>
 4    1  0.4690138E-002  0.4239609E+03  0.7818608E-02  0.1035785E+00
         21   -1    0    0  503  502  0.00000000000E+00  0.00000000000E+00  0.90070113203E+03  0.90070113203E+03  0.00000000000E+00 0. -1.
         21   -1    0    0  501  503 -0.00000000000E+00 -0.00000000000E+00 -0.20600027345E+03  0.20600027345E+03  0.00000000000E+00 0. -1.
    9000007    1    1    2  501    0  0.12688116508E+03  0.60365339210E+02  0.44520033395E+03  0.61477324403E+03  0.40000000000E+03 0. -1.
   -9000007    1    1    2    0  502 -0.12688116508E+03 -0.60365339210E+02  0.24950052464E+03  0.49192816145E+03  0.40000000000E+03 0. -1.
<mgrwt>
<rscale>  2 0.42396085E+03</rscale>
<asrwt>0</asrwt>
<pdfrwt beam="1">  1       21 0.13856940E+00 0.42396085E+03</pdfrwt>
<pdfrwt beam="2">  1       21 0.31692350E-01 0.42396085E+03</pdfrwt>
<totfact> 0.30727518E+03</totfact>
</mgrwt>
</event>
<event>
 4    1  0.4690138E-002  0.4202397E+03  0.7818608E-02  0.1036988E+00
         21   -1    0    0  503  502  0.00000000000E+00  0.00000000000E+00  0.59807110437E+03  0.59807110437E+03  0.00000000000E+00 0.  1.
         21   -1    0    0  501  503 -0.00000000000E+00 -0.00000000000E+00 -0.35510027005E+03  0.35510027005E+03  0.00000000000E+00 0. -1.
    9000007    1    1    2  501    0 -0.11346101120E+03  0.61057389930E+02  0.31708667817E+03  0.52644597767E+03  0.40000000000E+03 0.  1.
   -9000007    1    1    2    0  502  0.11346101120E+03 -0.61057389930E+02 -0.74115843846E+02  0.42672539676E+03  0.40000000000E+03 0. -1.
<mgrwt>
<rscale>  2 0.42023970E+03</rscale>
<asrwt>0</asrwt>
<pdfrwt beam="1">  1       21 0.92010939E-01 0.42023970E+03</pdfrwt>
<pdfrwt beam="2">  1       21 0.54630811E-01 0.42023970E+03</pdfrwt>
<totfact> 0.27732714E+03</totfact>
</mgrwt>
</event>
<event>
 4    1  0.4690138E-002  0.4507534E+03  0.7818608E-02  0.1027498E+00
         21   -1    0    0  501  502  0.00000000000E+00  0.00000000000E+00  0.30914314165E+03  0.30914314165E+03  0.00000000000E+00 0. -1.
         21   -1    0    0  502  503 -0.00000000000E+00 -0.00000000000E+00 -0.66318282131E+03  0.66318282131E+03  0.00000000000E+00 0. -1.
    9000007    1    1    2  501    0  0.19379611020E+03 -0.74978223128E+02 -0.22307363157E+03  0.50293191525E+03  0.40000000000E+03 0.  1.
   -9000007    1    1    2    0  503 -0.19379611020E+03  0.74978223128E+02 -0.13096604809E+03  0.46939404771E+03  0.40000000000E+03 0.  1.
<mgrwt>
<rscale>  2 0.45075344E+03</rscale>
<asrwt>0</asrwt>
<pdfrwt beam="1">  1       21 0.47560484E-01 0.45075344E+03</pdfrwt>
<pdfrwt beam="2">  1       21 0.10202813E+00 0.45075344E+03</pdfrwt>
<totfact> 0.28729614E+03</totfact>
</mgrwt>
</event>
<event>
 4    1  0.4690138E-002  0.4054797E+03  0.7818608E-02  0.1041899E+00
         21   -1    0    0  501  502  0.00000000000E+00  0.00000000000E+00  0.14830919014E+04  0.14830919014E+04  0.00000000000E+00 0.  1.
         21   -1    0    0  502  503 -0.00000000000E+00 -0.00000000000E+00 -0.11178901725E+03  0.11178901725E+03  0.00000000000E+00 0.  1.
    9000007    1    1    2  501    0  0.26166283358E+01 -0.66384998942E+02  0.75839369418E+03  0.85998535464E+03  0.40000000000E+03 0.  1.
   -9000007    1    1    2    0  503 -0.26166283358E+01  0.66384998942E+02  0.61290918995E+03  0.73489556398E+03  0.40000000000E+03 0.  1.
<mgrwt>
<rscale>  2 0.40547973E+03</rscale>
<asrwt>0</asrwt>
<pdfrwt beam="1">  1       21 0.22816797E+00 0.40547973E+03</pdfrwt>
<pdfrwt beam="2">  1       21 0.17198311E-01 0.40547973E+03</pdfrwt>
<totfact> 0.23504361E+03</totfact>
</mgrwt>
</event>
<event>
 4    1  0.4690138E-002  0.6464696E+03  0.7818608E-02  0.9813426E-01
         21   -1    0    0  501  502  0.00000000000E+00  0.00000000000E+00  0.74991717349E+03  0.74991717349E+03  0.00000000000E+00 0.  1.
         21   -1    0    0  502  503 -0.00000000000E+00 -0.00000000000E+00 -0.67456389433E+03  0.67456389433E+03  0.00000000000E+00 0.  1.
    9000007    1    1    2  501    0 -0.35495281956E+03 -0.36322363380E+03 -0.25929292026E+03  0.69653121306E+03  0.40000000000E+03 0.  1.
   -9000007    1    1    2    0  503  0.35495281956E+03  0.36322363380E+03  0.33464619942E+03  0.72794985476E+03  0.40000000000E+03 0.  1.
<mgrwt>
<rscale>  2 0.64646958E+03</rscale>
<asrwt>0</asrwt>
<pdfrwt beam="1">  1       21 0.11537187E+00 0.64646958E+03</pdfrwt>
<pdfrwt beam="2">  1       21 0.10377906E+00 0.64646958E+03</pdfrwt>
<totfact> 0.33630729E+02</totfact>
</mgrwt>
</event>
<event>
 4    1  0.4690138E-002  0.4592042E+03  0.7818608E-02  0.1025012E+00
         21   -1    0    0  503  502  0.00000000000E+00  0.00000000000E+00  0.26980340864E+03  0.26980340864E+03  0.00000000000E+00 0.  1.
         21   -1    0    0  501  503 -0.00000000000E+00 -0.00000000000E+00 -0.83215242160E+03  0.83215242160E+03  0.00000000000E+00 0.  1.
    9000007    1    1    2  501    0 -0.22223361031E+03 -0.38479748259E+02 -0.14532411207E+03  0.48165087576E+03  0.40000000000E+03 0. -1.
   -9000007    1    1    2    0  502  0.22223361031E+03  0.38479748259E+02 -0.41702490090E+03  0.62030495448E+03  0.40000000000E+03 0. -1.
<mgrwt>
<rscale>  2 0.45920417E+03</rscale>
<asrwt>0</asrwt>
<pdfrwt beam="1">  1       21 0.41508217E-01 0.45920417E+03</pdfrwt>
<pdfrwt beam="2">  1       21 0.12802345E+00 0.45920417E+03</pdfrwt>
<totfact> 0.21538189E+03</totfact>
</mgrwt>
</event>
<event>
 4    1  0.4690138E-002  0.4550334E+03  0.7818608E-02  0.1026232E+00
         21   -1    0    0  501  502  0.00000000000E+00  0.00000000000E+00  0.42352707118E+03  0.42352707118E+03  0.00000000000E+00 0.  1.
         21   -1    0    0  502  503 -0.00000000000E+00 -0.00000000000E+00 -0.60208835469E+03  0.60208835469E+03  0.00000000000E+00 0.  1.
    9000007    1    1    2  501    0 -0.18095052226E+03 -0.11963389302E+03  0.13307959535E+03  0.47409444055E+03  0.40000000000E+03 0.  1.
   -9000007    1    1    2    0  503  0.18095052226E+03  0.11963389302E+03 -0.31164087886E+03  0.55152098531E+03  0.40000000000E+03 0.  1.
<mgrwt>
<rscale>  2 0.45503336E+03</rscale>
<asrwt>0</asrwt>
<pdfrwt beam="1">  1       21 0.65158011E-01 0.45503336E+03</pdfrwt>
<pdfrwt beam="2">  1       21 0.92628978E-01 0.45503336E+03</pdfrwt>
<totfact> 0.18317469E+03</totfact>
</mgrwt>
</event>
<event>
 4    1  0.4690138E-002  0.4100839E+03  0.7818608E-02  0.1040343E+00
         21   -1    0    0  503  502  0.00000000000E+00  0.00000000000E+00  0.45178229250E+03  0.45178229250E+03  0.00000000000E+00 0.  1.
         21   -1    0    0  501  503 -0.00000000000E+00 -0.00000000000E+00 -0.56514178832E+03  0.56514178832E+03  0.00000000000E+00 0. -1.
    9000007    1    1    2  501    0  0.38927912837E+02  0.81568444588E+02 -0.35374684160E+03  0.54157697652E+03  0.40000000000E+03 0. -1.
   -9000007    1    1    2    0  502 -0.38927912837E+02 -0.81568444588E+02  0.24038734578E+03  0.47534710429E+03  0.40000000000E+03 0.  1.
<mgrwt>
<rscale>  2 0.41008389E+03</rscale>
<asrwt>0</asrwt>
<pdfrwt beam="1">  1       21 0.69504968E-01 0.41008389E+03</pdfrwt>
<pdfrwt beam="2">  1       21 0.86944891E-01 0.41008389E+03</pdfrwt>
<totfact> 0.18747560E+03</totfact>
</mgrwt>
</event>
<event>
 4    1  0.4690138E-002  0.4402481E+03  0.7818608E-02  0.1030671E+00
         21   -1    0    0  503  502  0.00000000000E+00  0.00000000000E+00  0.56453948533E+03  0.56453948533E+03  0.00000000000E+00 0. -1.
         21   -1    0    0  501  503 -0.00000000000E+00 -0.00000000000E+00 -0.45204807731E+03  0.45204807731E+03  0.00000000000E+00 0.  1.
    9000007    1    1    2  501    0 -0.73281442704E+01  0.18375173855E+03 -0.19303624764E+03  0.48070926351E+03  0.40000000000E+03 0.  1.
   -9000007    1    1    2    0  502  0.73281442704E+01 -0.18375173855E+03  0.30552765565E+03  0.53587829914E+03  0.40000000000E+03 0. -1.
<mgrwt>
<rscale>  2 0.44024812E+03</rscale>
<asrwt>0</asrwt>
<pdfrwt beam="1">  1       21 0.86852229E-01 0.44024812E+03</pdfrwt>
<pdfrwt beam="2">  1       21 0.69545858E-01 0.44024812E+03</pdfrwt>
<totfact> 0.18544633E+03</totfact>
</mgrwt>
</event>
<event>
 4    1  0.4690138E-002  0.4270486E+03  0.7818608E-02  0.1034796E+00
         21   -1    0    0  501  502  0.00000000000E+00  0.00000000000E+00  0.60661749097E+03  0.60661749097E+03  0.00000000000E+00 0. -1.
         21   -1    0    0  502  503 -0.00000000000E+00 -0.00000000000E+00 -0.40352259569E+03  0.40352259569E+03  0.00000000000E+00 0. -1.
    9000007    1    1    2  501    0  0.37816749511E+01 -0.14951997953E+03  0.35658194312E+03  0.55634630178E+03  0.40000000000E+03 0. -1.
   -9000007    1    1    2    0  503 -0.37816749511E+01  0.14951997953E+03 -0.15348704784E+03  0.45379378488E+03  0.40000000000E+03 0. -1.
<mgrwt>
<rscale>  2 0.42704862E+03</rscale>
<asrwt>0</asrwt>
<pdfrwt beam="1">  1       21 0.93325768E-01 0.42704862E+03</pdfrwt>
<pdfrwt beam="2">  1       21 0.62080399E-01 0.42704862E+03</pdfrwt>
<totfact> 0.20243759E+03</totfact>
</mgrwt>
</event>
<event>
 4    1  0.4690138E-002  0.4763346E+03  0.7818608E-02  0.1020147E+00
         21   -1    0    0  501  502  0.00000000000E+00  0.00000000000E+00  0.24365047195E+04  0.24365047195E+04  0.00000000000E+00 0.  1.
         21   -1    0    0  502  503 -0.00000000000E+00 -0.00000000000E+00 -0.19599490389E+03  0.19599490389E+03  0.00000000000E+00 0.  1.
    9000007    1    1    2  501    0  0.23593033923E+03 -0.10597896213E+03  0.20738506201E+04  0.21278512776E+04  0.40000000000E+03 0.  1.
   -9000007    1    1    2    0  503 -0.23593033923E+03  0.10597896213E+03  0.16665919550E+03  0.50464834571E+03  0.40000000000E+03 0.  1.
<mgrwt>
<rscale>  2 0.47633461E+03</rscale>
<asrwt>0</asrwt>
<pdfrwt beam="1">  1       21 0.37484686E+00 0.47633461E+03</pdfrwt>
<pdfrwt beam="2">  1       21 0.30153064E-01 0.47633461E+03</pdfrwt>
<totfact> 0.97461534E+01</totfact>
</mgrwt>
</event>
<event>
 4    1  0.4690138E-002  0.4261633E+03  0.7818608E-02  0.1035079E+00
         21   -1    0    0  501  502  0.00000000000E+00  0.00000000000E+00  0.14324346598E+03  0.14324346598E+03  0.00000000000E+00 0. -1.
         21   -1    0    0  502  503 -0.00000000000E+00 -0.00000000000E+00 -0.14008840081E+04  0.14008840081E+04  0.00000000000E+00 0.  1.
    9000007    1    1    2  501    0  0.37714669532E+01 -0.14697268404E+03 -0.39092368366E+03  0.57830486792E+03  0.40000000000E+03 0. -1.
   -9000007    1    1    2    0  503 -0.37714669532E+01  0.14697268404E+03 -0.86671685850E+03  0.96582260619E+03  0.40000000000E+03 0.  1.
<mgrwt>
<rscale>  2 0.42616334E+03</rscale>
<asrwt>0</asrwt>
<pdfrwt beam="1">  1       21 0.22037456E-01 0.42616334E+03</pdfrwt>
<pdfrwt beam="2">  1       21 0.21552062E+00 0.42616334E+03</pdfrwt>
<totfact> 0.17502119E+03</totfact>
</mgrwt>
</event>
<event>
 4    1  0.4690138E-002  0.9636553E+03  0.7818608E-02  0.9349331E-01
         21   -1    0    0  501  502  0.00000000000E+00  0.00000000000E+00  0.79046527738E+03  0.79046527738E+03  0.00000000000E+00 0. -1.
         21   -1    0    0  502  503 -0.00000000000E+00 -0.00000000000E+00 -0.11907052431E+04  0.11907052431E+04  0.00000000000E+00 0.  1.
    9000007    1    1    2  501    0 -0.86559229255E+03 -0.13921725621E+03 -0.85599470961E+02  0.96744960116E+03  0.40000000000E+03 0. -1.
   -9000007    1    1    2    0  503  0.86559229255E+03  0.13921725621E+03 -0.31464049476E+03  0.10137209193E+04  0.40000000000E+03 0.  1.
<mgrwt>
<rscale>  2 0.96365526E+03</rscale>
<asrwt>0</asrwt>
<pdfrwt beam="1">  1       21 0.12161004E+00 0.96365526E+03</pdfrwt>
<pdfrwt beam="2">  1       21 0.18318542E+00 0.96365526E+03</pdfrwt>
<totfact> 0.57587431E+01</totfact>
</mgrwt>
</event>
<event>
 4    1  0.4690138E-002  0.4022464E+03  0.7818608E-02  0.1043005E+00
         21   -1    0    0  503  502  0.00000000000E+00  0.00000000000E+00  0.46648994804E+03  0.46648994804E+03  0.00000000000E+00 0. -1.
         21   -1    0    0  501  503 -0.00000000000E+00 -0.00000000000E+00 -0.45888002237E+03  0.45888002237E+03  0.00000000000E+00 0. -1.
    9000007    1    1    2  501    0  0.38896057335E+02  0.17008532983E+02 -0.22480881382E+03  0.46080494381E+03  0.40000000000E+03 0. -1.
   -9000007    1    1    2    0  502 -0.38896057335E+02 -0.17008532983E+02  0.23241873949E+03  0.46456502660E+03  0.40000000000E+03 0. -1.
<mgrwt>
<rscale>  2 0.40224643E+03</rscale>
<asrwt>0</asrwt>
<pdfrwt beam="1">  1       21 0.71767684E-01 0.40224643E+03</pdfrwt>
<pdfrwt beam="2">  1       21 0.70596927E-01 0.40224643E+03</pdfrwt>
<totfact> 0.28231489E+03</totfact>
</mgrwt>
</event>
<event>
 4    1  0.4690138E-002  0.4533301E+03  0.7818608E-02  0.1026734E+00
         21   -1    0    0  503  502  0.00000000000E+00  0.00000000000E+00  0.64298008326E+03  0.64298008326E+03  0.00000000000E+00 0. -1.
         21   -1    0    0  501  503 -0.00000000000E+00 -0.00000000000E+00 -0.52283370024E+03  0.52283370024E+03  0.00000000000E+00 0. -1.
    9000007    1    1    2  501    0 -0.86738388290E+02 -0.19489648235E+03 -0.30333585629E+03  0.54545469890E+03  0.40000000000E+03 0. -1.
   -9000007    1    1    2    0  502  0.86738388290E+02  0.19489648235E+03  0.42348223932E+03  0.62035908461E+03  0.40000000000E+03 0. -1.
<mgrwt>
<rscale>  2 0.45333011E+03</rscale>
<asrwt>0</asrwt>
<pdfrwt beam="1">  1       21 0.98920013E-01 0.45333011E+03</pdfrwt>
<pdfrwt beam="2">  1       21 0.80435954E-01 0.45333011E+03</pdfrwt>
<totfact> 0.97099950E+02</totfact>
</mgrwt>
</event>
<event>
 4    1  0.4690138E-002  0.4339822E+03  0.7818608E-02  0.1032609E+00
         21   -1    0    0  501  502  0.00000000000E+00  0.00000000000E+00  0.59510682373E+02  0.59510682373E+02  0.00000000000E+00 0. -1.
         21   -1    0    0  502  503 -0.00000000000E+00 -0.00000000000E+00 -0.33689775018E+04  0.33689775018E+04  0.00000000000E+00 0. -1.
    9000007    1    1    2  501    0  0.86329997241E+02 -0.14452564740E+03 -0.12327382517E+04  0.13068986680E+04  0.40000000000E+03 0. -1.
   -9000007    1    1    2    0  503 -0.86329997241E+02  0.14452564740E+03 -0.20767285678E+04  0.21215895162E+04  0.40000000000E+03 0. -1.
<mgrwt>
<rscale>  2 0.43398218E+03</rscale>
<asrwt>0</asrwt>
<pdfrwt beam="1">  1       21 0.91554896E-02 0.43398218E+03</pdfrwt>
<pdfrwt beam="2">  1       21 0.51830423E+00 0.43398218E+03</pdfrwt>
<totfact> 0.10108588E+02</totfact>
</mgrwt>
</event>
<event>
 4    1  0.4690138E-002  0.5253182E+03  0.7818608E-02  0.1007374E+00
         21   -1    0    0  501  502  0.00000000000E+00  0.00000000000E+00  0.26864370152E+03  0.26864370152E+03  0.00000000000E+00 0.  1.
         21   -1    0    0  502  503 -0.00000000000E+00 -0.00000000000E+00 -0.10677304238E+04  0.10677304238E+04  0.00000000000E+00 0. -1.
    9000007    1    1    2  501    0 -0.34027198553E+03  0.13199006092E+02 -0.26940968893E+03  0.59037345671E+03  0.40000000000E+03 0.  1.
   -9000007    1    1    2    0  503  0.34027198553E+03 -0.13199006092E+02 -0.52967703333E+03  0.74600066859E+03  0.40000000000E+03 0.  1.
<mgrwt>
<rscale>  2 0.52531823E+03</rscale>
<asrwt>0</asrwt>
<pdfrwt beam="1">  1       21 0.41329801E-01 0.52531823E+03</pdfrwt>
<pdfrwt beam="2">  1       21 0.16426622E+00 0.52531823E+03</pdfrwt>
<totfact> 0.10822066E+03</totfact>
</mgrwt>
</event>
<event>
 4    1  0.4690138E-002  0.4791932E+03  0.7818608E-02  0.1019357E+00
         21   -1    0    0  501  502  0.00000000000E+00  0.00000000000E+00  0.44050422915E+03  0.44050422915E+03  0.00000000000E+00 0. -1.
         21   -1    0    0  502  503 -0.00000000000E+00 -0.00000000000E+00 -0.52358257256E+03  0.52358257256E+03  0.00000000000E+00 0.  1.
    9000007    1    1    2  501    0  0.23667981655E+03  0.11665665908E+03 -0.73504991516E+02  0.48479799447E+03  0.40000000000E+03 0.  1.
   -9000007    1    1    2    0  503 -0.23667981655E+03 -0.11665665908E+03 -0.95733518914E+01  0.47928880723E+03  0.40000000000E+03 0. -1.
<mgrwt>
<rscale>  2 0.47919319E+03</rscale>
<asrwt>0</asrwt>
<pdfrwt beam="1">  1       21 0.67769882E-01 0.47919319E+03</pdfrwt>
<pdfrwt beam="2">  1       21 0.80551164E-01 0.47919319E+03</pdfrwt>
<totfact> 0.23097149E+03</totfact>
</mgrwt>
</event>
<event>
 4    1  0.4690138E-002  0.5360318E+03  0.7818608E-02  0.1004780E+00
         21   -1    0    0  501  502  0.00000000000E+00  0.00000000000E+00  0.36917849190E+03  0.36917849190E+03  0.00000000000E+00 0. -1.
         21   -1    0    0  502  503 -0.00000000000E+00 -0.00000000000E+00 -0.11270828695E+04  0.11270828695E+04  0.00000000000E+00 0.  1.
    9000007    1    1    2  501    0 -0.28333520451E+03 -0.21691303675E+03  0.37226341078E+02  0.53732290487E+03  0.40000000000E+03 0. -1.
   -9000007    1    1    2    0  503  0.28333520451E+03  0.21691303675E+03 -0.79513071871E+03  0.95893845656E+03  0.40000000000E+03 0.  1.
<mgrwt>
<rscale>  2 0.53603181E+03</rscale>
<asrwt>0</asrwt>
<pdfrwt beam="1">  1       21 0.56796691E-01 0.53603181E+03</pdfrwt>
<pdfrwt beam="2">  1       21 0.17339736E+00 0.53603181E+03</pdfrwt>
<totfact> 0.46985165E+02</totfact>
</mgrwt>
</event>
<event>
 4    1  0.4690138E-002  0.5607838E+03  0.7818608E-02  0.9990283E-01
         21   -1    0    0  503  502  0.00000000000E+00  0.00000000000E+00  0.25930991883E+03  0.25930991883E+03  0.00000000000E+00 0.  1.
         21   -1    0    0  501  503 -0.00000000000E+00 -0.00000000000E+00 -0.12136995593E+04  0.12136995593E+04  0.00000000000E+00 0. -1.
    9000007    1    1    2  501    0 -0.37465174810E+03 -0.11880439358E+03 -0.49778240836E+03  0.74984381198E+03  0.40000000000E+03 0. -1.
   -9000007    1    1    2    0  502  0.37465174810E+03  0.11880439358E+03 -0.45660723207E+03  0.72316566613E+03  0.40000000000E+03 0.  1.
<mgrwt>
<rscale>  2 0.56078375E+03</rscale>
<asrwt>0</asrwt>
<pdfrwt beam="1">  1       21 0.39893834E-01 0.56078375E+03</pdfrwt>
<pdfrwt beam="2">  1       21 0.18672301E+00 0.56078375E+03</pdfrwt>
<totfact> 0.79200851E+02</totfact>
</mgrwt>
</event>
<event>
 4    1  0.4690138E-002  0.4759463E+03  0.7818608E-02  0.1020255E+00
         21   -1    0    0  503  502  0.00000000000E+00  0.00000000000E+00  0.21748075929E+04  0.21748075929E+04  0.00000000000E+00 0.  1.
         21   -1    0    0  501  503 -0.00000000000E+00 -0.00000000000E+00 -0.12945501096E+03  0.12945501096E+03  0.00000000000E+00 0. -1.
    9000007    1    1    2  501    0 -0.13837735342E+02 -0.25755272786E+03  0.51337815076E+03  0.70005858056E+03  0.40000000000E+03 0. -1.
   -9000007    1    1    2    0  502  0.13837735342E+02  0.25755272786E+03  0.15319744312E+04  0.16042040233E+04  0.40000000000E+03 0.  1.
<mgrwt>
<rscale>  2 0.47594631E+03</rscale>
<asrwt>0</asrwt>
<pdfrwt beam="1">  1       21 0.33458576E+00 0.47594631E+03</pdfrwt>
<pdfrwt beam="2">  1       21 0.19916157E-01 0.47594631E+03</pdfrwt>
<totfact> 0.38725272E+02</totfact>
</mgrwt>
</event>
<event>
 4    1  0.4690138E-002  0.4662077E+03  0.7818608E-02  0.1022996E+00
         21   -1    0    0  501  502  0.00000000000E+00  0.00000000000E+00  0.92146150530E+03  0.92146150530E+03  0.00000000000E+00 0. -1.
         21   -1    0    0  502  503 -0.00000000000E+00 -0.00000000000E+00 -0.23889262976E+03  0.23889262976E+03  0.00000000000E+00 0.  1.
    9000007    1    1    2  501    0  0.12319806498E+03 -0.20535795604E+03  0.40649205764E+03  0.61853491918E+03  0.40000000000E+03 0.  1.
   -9000007    1    1    2    0  503 -0.12319806498E+03  0.20535795604E+03  0.27607681790E+03  0.54181921588E+03  0.40000000000E+03 0. -1.
<mgrwt>
<rscale>  2 0.46620774E+03</rscale>
<asrwt>0</asrwt>
<pdfrwt beam="1">  1       21 0.14176331E+00 0.46620774E+03</pdfrwt>
<pdfrwt beam="2">  1       21 0.36752712E-01 0.46620774E+03</pdfrwt>
<totfact> 0.21103616E+03</totfact>
</mgrwt>
</event>
<event>
 4    1  0.4690138E-002  0.4697908E+03  0.7818608E-02  0.1021979E+00
         21   -1    0    0  503  502  0.00000000000E+00  0.00000000000E+00  0.13858376952E+03  0.13858376952E+03  0.00000000000E+00 0.  1.
         21   -1    0    0  501  503 -0.00000000000E+00 -0.00000000000E+00 -0.17757451736E+04  0.17757451736E+04  0.00000000000E+00 0.  1.
    9000007    1    1    2  501    0  0.92834356114E+02 -0.22822174292E+03 -0.11260047740E+04  0.12200779207E+04  0.40000000000E+03 0.  1.
   -9000007    1    1    2    0  502 -0.92834356114E+02  0.22822174292E+03 -0.51115663017E+03  0.69425102245E+03  0.40000000000E+03 0.  1.
<mgrwt>
<rscale>  2 0.46979078E+03</rscale>
<asrwt>0</asrwt>
<pdfrwt beam="1">  1       21 0.21320580E-01 0.46979078E+03</pdfrwt>
<pdfrwt beam="2">  1       21 0.27319156E+00 0.46979078E+03</pdfrwt>
<totfact> 0.80150322E+02</totfact>
</mgrwt>
</event>
<event>
 4    1  0.4690138E-002  0.4593960E+03  0.7818608E-02  0.1024957E+00
         21   -1    0    0  501  502  0.00000000000E+00  0.00000000000E+00  0.41422925825E+03  0.41422925825E+03  0.00000000000E+00 0. -1.
         21   -1    0    0  502  503 -0.00000000000E+00 -0.00000000000E+00 -0.61023395553E+03  0.61023395553E+03  0.00000000000E+00 0. -1.
    9000007    1    1    2  501    0  0.20235324874E+03  0.10048824064E+03  0.11012664474E+03  0.47241147495E+03  0.40000000000E+03 0. -1.
   -9000007    1    1    2    0  503 -0.20235324874E+03 -0.10048824064E+03 -0.30613134202E+03  0.55205173884E+03  0.40000000000E+03 0. -1.
<mgrwt>
<rscale>  2 0.45939604E+03</rscale>
<asrwt>0</asrwt>
<pdfrwt beam="1">  1       21 0.63727578E-01 0.45939604E+03</pdfrwt>
<pdfrwt beam="2">  1       21 0.93882147E-01 0.45939604E+03</pdfrwt>
<totfact> 0.18604466E+03</totfact>
</mgrwt>
</event>
<event>
 4    1  0.4690138E-002  0.4232374E+03  0.7818608E-02  0.1036018E+00
         21   -1    0    0  503  502  0.00000000000E+00  0.00000000000E+00  0.19420674228E+04  0.19420674228E+04  0.00000000000E+00 0. -1.
         21   -1    0    0  501  503 -0.00000000000E+00 -0.00000000000E+00 -0.11231201974E+03  0.11231201974E+03  0.00000000000E+00 0. -1.
    9000007    1    1    2  501    0  0.10799946793E+03  0.86406171936E+02  0.48059886790E+03  0.64039455295E+03  0.40000000000E+03 0. -1.
   -9000007    1    1    2    0  502 -0.10799946793E+03 -0.86406171936E+02  0.13491565352E+04  0.14139848896E+04  0.40000000000E+03 0. -1.
<mgrwt>
<rscale>  2 0.42323742E+03</rscale>
<asrwt>0</asrwt>
<pdfrwt beam="1">  1       21 0.29877958E+00 0.42323742E+03</pdfrwt>
<pdfrwt beam="2">  1       21 0.17278774E-01 0.42323742E+03</pdfrwt>
<totfact> 0.85868495E+02</totfact>
</mgrwt>
</event>
<event>
 4    1  0.4690138E-002  0.6044813E+03  0.7818608E-02  0.9896152E-01
         21   -1    0    0  501  502  0.00000000000E+00  0.00000000000E+00  0.88093398526E+03  0.88093398526E+03  0.00000000000E+00 0. -1.
         21   -1    0    0  502  503 -0.00000000000E+00 -0.00000000000E+00 -0.11443219656E+04  0.11443219656E+04  0.00000000000E+00 0. -1.
    9000007    1    1    2  501    0 -0.43449796336E+03 -0.12887676049E+03  0.67684250100E+03  0.90747642984E+03  0.40000000000E+03 0. -1.
   -9000007    1    1    2    0  503  0.43449796336E+03  0.12887676049E+03 -0.94023048132E+03  0.11177795210E+04  0.40000000000E+03 0. -1.
<mgrwt>
<rscale>  2 0.60448135E+03</rscale>
<asrwt>0</asrwt>
<pdfrwt beam="1">  1       21 0.13552831E+00 0.60448135E+03</pdfrwt>
<pdfrwt beam="2">  1       21 0.17604953E+00 0.60448135E+03</pdfrwt>
<totfact> 0.54915225E+01</totfact>
</mgrwt>
</event>
<event>
 4    1  0.4690138E-002  0.5956935E+03  0.7818608E-02  0.9914381E-01
         21   -1    0    0  501  502  0.00000000000E+00  0.00000000000E+00  0.84816072535E+03  0.84816072535E+03  0.00000000000E+00 0. -1.
         21   -1    0    0  502  503 -0.00000000000E+00 -0.00000000000E+00 -0.52743607895E+03  0.52743607895E+03  0.00000000000E+00 0.  1.
    9000007    1    1    2  501    0  0.43909564560E+03  0.45230508462E+02  0.47311967122E+03  0.76071874446E+03  0.40000000000E+03 0. -1.
   -9000007    1    1    2    0  503 -0.43909564560E+03 -0.45230508462E+02 -0.15239502481E+03  0.61487805984E+03  0.40000000000E+03 0.  1.
<mgrwt>
<rscale>  2 0.59569353E+03</rscale>
<asrwt>0</asrwt>
<pdfrwt beam="1">  1       21 0.13048627E+00 0.59569353E+03</pdfrwt>
<pdfrwt beam="2">  1       21 0.81144012E-01 0.59569353E+03</pdfrwt>
<totfact> 0.44928392E+02</totfact>
</mgrwt>
</event>
<event>
 4    1  0.4690138E-002  0.5690398E+03  0.7818608E-02  0.9971806E-01
         21   -1    0    0  503  502  0.00000000000E+00  0.00000000000E+00  0.38926116715E+03  0.38926116715E+03  0.00000000000E+00 0.  1.
         21   -1    0    0  501  503 -0.00000000000E+00 -0.00000000000E+00 -0.85371130411E+03  0.85371130411E+03  0.00000000000E+00 0. -1.
    9000007    1    1    2  501    0  0.40449531833E+03 -0.13778406306E+02 -0.13276947567E+03  0.58432357534E+03  0.40000000000E+03 0.  1.
   -9000007    1    1    2    0  502 -0.40449531833E+03  0.13778406306E+02 -0.33168066129E+03  0.65864889592E+03  0.40000000000E+03 0. -1.
<mgrwt>
<rscale>  2 0.56903981E+03</rscale>
<asrwt>0</asrwt>
<pdfrwt beam="1">  1       21 0.59886333E-01 0.56903981E+03</pdfrwt>
<pdfrwt beam="2">  1       21 0.13134020E+00 0.56903981E+03</pdfrwt>
<totfact> 0.88678682E+02</totfact>
</mgrwt>
</event>
<event>
 4    1  0.4690138E-002  0.4408271E+03  0.7818608E-02  0.1030493E+00
         21   -1    0    0  501  502  0.00000000000E+00  0.00000000000E+00  0.13110133582E+04  0.13110133582E+04  0.00000000000E+00 0.  1.
         21   -1    0    0  502  503 -0.00000000000E+00 -0.00000000000E+00 -0.35488840513E+03  0.35488840513E+03  0.00000000000E+00 0.  1.
    9000007    1    1    2  501    0 -0.15029059354E+03  0.10835714614E+03  0.11136895827E+04  0.11977616709E+04  0.40000000000E+03 0.  1.
   -9000007    1    1    2    0  503  0.15029059354E+03 -0.10835714614E+03 -0.15756462965E+03  0.46814009243E+03  0.40000000000E+03 0.  1.
<mgrwt>
<rscale>  2 0.44082710E+03</rscale>
<asrwt>0</asrwt>
<pdfrwt beam="1">  1       21 0.20169436E+00 0.44082710E+03</pdfrwt>
<pdfrwt beam="2">  1       21 0.54598217E-01 0.44082710E+03</pdfrwt>
<totfact> 0.34040143E+02</totfact>
</mgrwt>
</event>
<event>
 4    1  0.4690138E-002  0.4401119E+03  0.7818608E-02  0.1030712E+00
         21   -1    0    0  503  502  0.00000000000E+00  0.00000000000E+00  0.44152372386E+03  0.44152372386E+03  0.00000000000E+00 0. -1.
         21   -1    0    0  501  503 -0.00000000000E+00 -0.00000000000E+00 -0.44685706468E+03  0.44685706468E+03  0.00000000000E+00 0. -1.
    9000007    1    1    2  501    0  0.16833957279E+03 -0.73213838670E+02  0.57330388060E+02  0.44383020552E+03  0.40000000000E+03 0. -1.
   -9000007    1    1    2    0  502 -0.16833957279E+03  0.73213838670E+02 -0.62663728887E+02  0.44455058301E+03  0.40000000000E+03 0. -1.
<mgrwt>
<rscale>  2 0.44011189E+03</rscale>
<asrwt>0</asrwt>
<pdfrwt beam="1">  1       21 0.67926726E-01 0.44011189E+03</pdfrwt>
<pdfrwt beam="2">  1       21 0.68747241E-01 0.44011189E+03</pdfrwt>
<totfact> 0.33428468E+03</totfact>
</mgrwt>
</event>
<event>
 4    1  0.4690138E-002  0.5721055E+03  0.7818608E-02  0.9965030E-01
         21   -1    0    0  501  502  0.00000000000E+00  0.00000000000E+00  0.15502610981E+03  0.15502610981E+03  0.00000000000E+00 0. -1.
         21   -1    0    0  502  503 -0.00000000000E+00 -0.00000000000E+00 -0.28337513414E+04  0.28337513414E+04  0.00000000000E+00 0. -1.
    9000007    1    1    2  501    0  0.40693459490E+03 -0.41339920958E+02 -0.58480806368E+03  0.81811076569E+03  0.40000000000E+03 0. -1.
   -9000007    1    1    2    0  503 -0.40693459490E+03  0.41339920958E+02 -0.20939171679E+04  0.21706666855E+04  0.40000000000E+03 0. -1.
<mgrwt>
<rscale>  2 0.57210554E+03</rscale>
<asrwt>0</asrwt>
<pdfrwt beam="1">  1       21 0.23850170E-01 0.57210554E+03</pdfrwt>
<pdfrwt beam="2">  1       21 0.43596176E+00 0.57210554E+03</pdfrwt>
<totfact> 0.58596280E+01</totfact>
</mgrwt>
</event>
<event>
 4    1  0.4690138E-002  0.6660211E+03  0.7818608E-02  0.9777173E-01
         21   -1    0    0  501  502  0.00000000000E+00  0.00000000000E+00  0.10027325755E+04  0.10027325755E+04  0.00000000000E+00 0.  1.
         21   -1    0    0  502  503 -0.00000000000E+00 -0.00000000000E+00 -0.13848652680E+04  0.13848652680E+04  0.00000000000E+00 0. -1.
    9000007    1    1    2  501    0  0.35912372140E+03  0.39321025254E+03  0.79377388779E+03  0.10361762084E+04  0.40000000000E+03 0.  1.
   -9000007    1    1    2    0  503 -0.35912372140E+03 -0.39321025254E+03 -0.11759065804E+04  0.13514216351E+04  0.40000000000E+03 0. -1.
<mgrwt>
<rscale>  2 0.66602113E+03</rscale>
<asrwt>0</asrwt>
<pdfrwt beam="1">  1       21 0.15426655E+00 0.66602113E+03</pdfrwt>
<pdfrwt beam="2">  1       21 0.21305620E+00 0.66602113E+03</pdfrwt>
<totfact> 0.20947008E+01</totfact>
</mgrwt>
</event>
<event>
 4    1  0.4690138E-002  0.6351013E+03  0.7818608E-02  0.9835144E-01
         21   -1    0    0  501  502  0.00000000000E+00  0.00000000000E+00  0.28365257630E+04  0.28365257630E+04  0.00000000000E+00 0. -1.
         21   -1    0    0  502  503 -0.00000000000E+00 -0.00000000000E+00 -0.14296754348E+03  0.14296754348E+03  0.00000000000E+00 0. -1.
    9000007    1    1    2  501    0  0.90728655137E+02 -0.48489377085E+03  0.12376160587E+04  0.13910597279E+04  0.40000000000E+03 0. -1.
   -9000007    1    1    2    0  503 -0.90728655137E+02  0.48489377085E+03  0.14559421608E+04  0.15884335786E+04  0.40000000000E+03 0. -1.
<mgrwt>
<rscale>  2 0.63510130E+03</rscale>
<asrwt>0</asrwt>
<pdfrwt beam="1">  1       21 0.43638854E+00 0.63510130E+03</pdfrwt>
<pdfrwt beam="2">  1       21 0.21995009E-01 0.63510130E+03</pdfrwt>
<totfact> 0.65905316E+01</totfact>
</mgrwt>
</event>
<event>
 4    1  0.4690138E-002  0.5135168E+03  0.7818608E-02  0.1010310E+00
         21   -1    0    0  501  502  0.00000000000E+00  0.00000000000E+00  0.26024748793E+03  0.26024748793E+03  0.00000000000E+00 0.  1.
         21   -1    0    0  502  503 -0.00000000000E+00 -0.00000000000E+00 -0.11400582307E+04  0.11400582307E+04  0.00000000000E+00 0.  1.
    9000007    1    1    2  501    0 -0.19605057875E+03  0.25546746106E+03 -0.67340103351E+03  0.84685796036E+03  0.40000000000E+03 0.  1.
   -9000007    1    1    2    0  503  0.19605057875E+03 -0.25546746106E+03 -0.20640970930E+03  0.55344775832E+03  0.40000000000E+03 0.  1.
<mgrwt>
<rscale>  2 0.51351675E+03</rscale>
<asrwt>0</asrwt>
<pdfrwt beam="1">  1       21 0.40038075E-01 0.51351675E+03</pdfrwt>
<pdfrwt beam="2">  1       21 0.17539357E+00 0.51351675E+03</pdfrwt>
<totfact> 0.96230675E+02</totfact>
</mgrwt>
</event>
<event>
 4    1  0.4690138E-002  0.4306332E+03  0.7818608E-02  0.1033660E+00
         21   -1    0    0  503  502  0.00000000000E+00  0.00000000000E+00  0.11623434133E+04  0.11623434133E+04  0.00000000000E+00 0. -1.
         21   -1    0    0  501  503 -0.00000000000E+00 -0.00000000000E+00 -0.21336222608E+03  0.21336222608E+03  0.00000000000E+00 0. -1.
    9000007    1    1    2  501    0 -0.15459962243E+03  0.39292782625E+02  0.12902780367E+03  0.44954770619E+03  0.40000000000E+03 0. -1.
   -9000007    1    1    2    0  502  0.15459962243E+03 -0.39292782625E+02  0.81995338352E+03  0.92615793316E+03  0.40000000000E+03 0. -1.
<mgrwt>
<rscale>  2 0.43063322E+03</rscale>
<asrwt>0</asrwt>
<pdfrwt beam="1">  1       21 0.17882206E+00 0.43063322E+03</pdfrwt>
<pdfrwt beam="2">  1       21 0.32824959E-01 0.43063322E+03</pdfrwt>
<totfact> 0.14106411E+03</totfact>
</mgrwt>
</event>
<event>
 4    1  0.4690138E-002  0.5988010E+03  0.7818608E-02  0.9907897E-01
         21   -1    0    0  501  502  0.00000000000E+00  0.00000000000E+00  0.17652202204E+04  0.17652202204E+04  0.00000000000E+00 0. -1.
         21   -1    0    0  502  503 -0.00000000000E+00 -0.00000000000E+00 -0.20331958803E+03  0.20331958803E+03  0.00000000000E+00 0.  1.
    9000007    1    1    2  501    0  0.22424342414E+03 -0.38506825496E+03  0.81129711981E+03  0.10083480009E+04  0.40000000000E+03 0. -1.
   -9000007    1    1    2    0  503 -0.22424342414E+03  0.38506825496E+03  0.75060351257E+03  0.96019180757E+03  0.40000000000E+03 0. -1.
<mgrwt>
<rscale>  2 0.59880103E+03</rscale>
<asrwt>0</asrwt>
<pdfrwt beam="1">  1       21 0.27157233E+00 0.59880103E+03</pdfrwt>
<pdfrwt beam="2">  1       21 0.31279938E-01 0.59880103E+03</pdfrwt>
<totfact> 0.36471441E+02</totfact>
</mgrwt>
</event>
<event>
 4    1  0.4690138E-002  0.5281747E+03  0.7818608E-02  0.1006676E+00
         21   -1    0    0  501  502  0.00000000000E+00  0.00000000000E+00  0.49491309353E+03  0.49491309353E+03  0.00000000000E+00 0.  1.
         21   -1    0    0  502  503 -0.00000000000E+00 -0.00000000000E+00 -0.58578999405E+03  0.58578999405E+03  0.00000000000E+00 0. -1.
    9000007    1    1    2  501    0  0.18028223110E+03  0.29405241850E+03 -0.15043648691E+03  0.54918088484E+03  0.40000000000E+03 0.  1.
   -9000007    1    1    2    0  503 -0.18028223110E+03 -0.29405241850E+03  0.59559586397E+02  0.53152220274E+03  0.40000000000E+03 0. -1.
<mgrwt>
<rscale>  2 0.52817469E+03</rscale>
<asrwt>0</asrwt>
<pdfrwt beam="1">  1       21 0.76140476E-01 0.52817469E+03</pdfrwt>
<pdfrwt beam="2">  1       21 0.90121537E-01 0.52817469E+03</pdfrwt>
<totfact> 0.13402072E+03</totfact>
</mgrwt>
</event>
<event>
 4    1  0.4690138E-002  0.5528049E+03  0.7818608E-02  0.1000847E+00
         21   -1    0    0  503  502  0.00000000000E+00  0.00000000000E+00  0.97991729807E+03  0.97991729807E+03  0.00000000000E+00 0.  1.
         21   -1    0    0  501  503 -0.00000000000E+00 -0.00000000000E+00 -0.54420624422E+03  0.54420624422E+03  0.00000000000E+00 0.  1.
    9000007    1    1    2  501    0  0.38155610489E+03  0.28721548814E+01 -0.28008763283E+03  0.61971153976E+03  0.40000000000E+03 0.  1.
   -9000007    1    1    2    0  502 -0.38155610489E+03 -0.28721548814E+01  0.71579868668E+03  0.90441200252E+03  0.40000000000E+03 0.  1.
<mgrwt>
<rscale>  2 0.55280495E+03</rscale>
<asrwt>0</asrwt>
<pdfrwt beam="1">  1       21 0.15075651E+00 0.55280495E+03</pdfrwt>
<pdfrwt beam="2">  1       21 0.83724038E-01 0.55280495E+03</pdfrwt>
<totfact> 0.28813729E+02</totfact>
</mgrwt>
</event>
<event>
 4    1  0.4690138E-002  0.5771977E+03  0.7818608E-02  0.9953877E-01
         21   -1    0    0  503  502  0.00000000000E+00  0.00000000000E+00  0.10708874676E+04  0.10708874676E+04  0.00000000000E+00 0.  1.
         21   -1    0    0  501  503 -0.00000000000E+00 -0.00000000000E+00 -0.47741830495E+03  0.47741830495E+03  0.00000000000E+00 0.  1.
    9000007    1    1    2  501    0 -0.54994718892E+02 -0.41247147770E+03 -0.16018765533E+03  0.59901354237E+03  0.40000000000E+03 0.  1.
   -9000007    1    1    2    0  502  0.54994718892E+02  0.41247147770E+03  0.75365681799E+03  0.94929223021E+03  0.40000000000E+03 0.  1.
<mgrwt>
<rscale>  2 0.57719766E+03</rscale>
<asrwt>0</asrwt>
<pdfrwt beam="1">  1       21 0.16475192E+00 0.57719766E+03</pdfrwt>
<pdfrwt beam="2">  1       21 0.73448970E-01 0.57719766E+03</pdfrwt>
<totfact> 0.30163535E+02</totfact>
</mgrwt>
</event>
<event>
 4    1  0.4690138E-002  0.4397933E+03  0.7818608E-02  0.1030810E+00
         21   -1    0    0  503  502  0.00000000000E+00  0.00000000000E+00  0.54170192783E+03  0.54170192783E+03  0.00000000000E+00 0.  1.
         21   -1    0    0  501  503 -0.00000000000E+00 -0.00000000000E+00 -0.35874479980E+03  0.35874479980E+03  0.00000000000E+00 0.  1.
    9000007    1    1    2  501    0  0.63967724635E+02 -0.17124922933E+03  0.12236488581E+03  0.45649899630E+03  0.40000000000E+03 0.  1.
   -9000007    1    1    2    0  502 -0.63967724635E+02  0.17124922933E+03  0.60592242226E+02  0.44394773134E+03  0.40000000000E+03 0.  1.
<mgrwt>
<rscale>  2 0.43979332E+03</rscale>
<asrwt>0</asrwt>
<pdfrwt beam="1">  1       21 0.83338759E-01 0.43979332E+03</pdfrwt>
<pdfrwt beam="2">  1       21 0.55191507E-01 0.43979332E+03</pdfrwt>
<totfact> 0.33995039E+03</totfact>
</mgrwt>
</event>
<event>
 4    1  0.4690138E-002  0.4254760E+03  0.7818608E-02  0.1035299E+00
         21   -1    0    0  501  502  0.00000000000E+00  0.00000000000E+00  0.28742570878E+03  0.28742570878E+03  0.00000000000E+00 0. -1.
         21   -1    0    0  502  503 -0.00000000000E+00 -0.00000000000E+00 -0.67600438893E+03  0.67600438893E+03  0.00000000000E+00 0. -1.
    9000007    1    1    2  501    0  0.14423753508E+03  0.15012662530E+02 -0.68394581110E+02  0.43093812234E+03  0.40000000000E+03 0.  1.
   -9000007    1    1    2    0  503 -0.14423753508E+03 -0.15012662530E+02 -0.32018409903E+03  0.53249197537E+03  0.40000000000E+03 0.  1.
<mgrwt>
<rscale>  2 0.42547602E+03</rscale>
<asrwt>0</asrwt>
<pdfrwt beam="1">  1       21 0.44219340E-01 0.42547602E+03</pdfrwt>
<pdfrwt beam="2">  1       21 0.10400068E+00 0.42547602E+03</pdfrwt>
<totfact> 0.32239924E+03</totfact>
</mgrwt>
</event>
<event>
 4    1  0.4690138E-002  0.4315828E+03  0.7818608E-02  0.1033361E+00
         21   -1    0    0  503  502  0.00000000000E+00  0.00000000000E+00  0.13780132030E+04  0.13780132030E+04  0.00000000000E+00 0. -1.
         21   -1    0    0  501  503 -0.00000000000E+00 -0.00000000000E+00 -0.19003633794E+03  0.19003633794E+03  0.00000000000E+00 0.  1.
    9000007    1    1    2  501    0 -0.15875398639E+03  0.32571500698E+02  0.17270819182E+03  0.46485680631E+03  0.40000000000E+03 0.  1.
   -9000007    1    1    2    0  502  0.15875398639E+03 -0.32571500698E+02  0.10152686732E+04  0.11031927346E+04  0.40000000000E+03 0. -1.
<mgrwt>
<rscale>  2 0.43158282E+03</rscale>
<asrwt>0</asrwt>
<pdfrwt beam="1">  1       21 0.21200203E+00 0.43158282E+03</pdfrwt>
<pdfrwt beam="2">  1       21 0.29236360E-01 0.43158282E+03</pdfrwt>
<totfact> 0.10606813E+03</totfact>
</mgrwt>
</event>
<event>
 4    1  0.4690138E-002  0.5785342E+03  0.7818608E-02  0.9950970E-01
         21   -1    0    0  503  502  0.00000000000E+00  0.00000000000E+00  0.75081488125E+03  0.75081488125E+03  0.00000000000E+00 0. -1.
         21   -1    0    0  501  503 -0.00000000000E+00 -0.00000000000E+00 -0.67175326038E+03  0.67175326038E+03  0.00000000000E+00 0. -1.
    9000007    1    1    2  501    0  0.12063193962E+03 -0.40018712714E+03 -0.37300550134E+03  0.68835667035E+03  0.40000000000E+03 0. -1.
   -9000007    1    1    2    0  502 -0.12063193962E+03  0.40018712714E+03  0.45206712220E+03  0.73421147128E+03  0.40000000000E+03 0. -1.
<mgrwt>
<rscale>  2 0.57853418E+03</rscale>
<asrwt>0</asrwt>
<pdfrwt beam="1">  1       21 0.11550998E+00 0.57853418E+03</pdfrwt>
<pdfrwt beam="2">  1       21 0.10334666E+00 0.57853418E+03</pdfrwt>
<totfact> 0.34664478E+02</totfact>
</mgrwt>
</event>
<event>
 4    1  0.4690138E-002  0.5591023E+03  0.7818608E-02  0.9994088E-01
         21   -1    0    0  501  502  0.00000000000E+00  0.00000000000E+00  0.50350758124E+03  0.50350758124E+03  0.00000000000E+00 0.  1.
         21   -1    0    0  502  503 -0.00000000000E+00 -0.00000000000E+00 -0.70199304310E+03  0.70199304310E+03  0.00000000000E+00 0.  1.
    9000007    1    1    2  501    0  0.27926683449E+03 -0.27313989022E+03  0.10570144116E+03  0.56900629095E+03  0.40000000000E+03 0.  1.
   -9000007    1    1    2    0  503 -0.27926683449E+03  0.27313989022E+03 -0.30418690303E+03  0.63649433340E+03  0.40000000000E+03 0.  1.
<mgrwt>
<rscale>  2 0.55910228E+03</rscale>
<asrwt>0</asrwt>
<pdfrwt beam="1">  1       21 0.77462705E-01 0.55910228E+03</pdfrwt>
<pdfrwt beam="2">  1       21 0.10799893E+00 0.55910228E+03</pdfrwt>
<totfact> 0.82071574E+02</totfact>
</mgrwt>
</event>
<event>
 4    1  0.4690138E-002  0.5628757E+03  0.7818608E-02  0.9985569E-01
         21   -1    0    0  501  502  0.00000000000E+00  0.00000000000E+00  0.77764071357E+03  0.77764071357E+03  0.00000000000E+00 0. -1.
         21   -1    0    0  502  503 -0.00000000000E+00 -0.00000000000E+00 -0.61445129482E+03  0.61445129482E+03  0.00000000000E+00 0.  1.
    9000007    1    1    2  501    0 -0.23490863296E+03  0.31882116312E+03  0.48562011748E+03  0.74340829858E+03  0.40000000000E+03 0. -1.
   -9000007    1    1    2    0  503  0.23490863296E+03 -0.31882116312E+03 -0.32243069873E+03  0.64868370982E+03  0.40000000000E+03 0.  1.
<mgrwt>
<rscale>  2 0.56287565E+03</rscale>
<asrwt>0</asrwt>
<pdfrwt beam="1">  1       21 0.11963703E+00 0.56287565E+03</pdfrwt>
<pdfrwt beam="2">  1       21 0.94530969E-01 0.56287565E+03</pdfrwt>
<totfact> 0.39637703E+02</totfact>
</mgrwt>
</event>
<event>
 4    1  0.4690138E-002  0.4393642E+03  0.7818608E-02  0.1030942E+00
         21   -1    0    0  503  502  0.00000000000E+00  0.00000000000E+00  0.22520161262E+03  0.22520161262E+03  0.00000000000E+00 0. -1.
         21   -1    0    0  501  503 -0.00000000000E+00 -0.00000000000E+00 -0.10613423498E+04  0.10613423498E+04  0.00000000000E+00 0. -1.
    9000007    1    1    2  501    0  0.70126984920E+02  0.16769953127E+03 -0.70019590401E+03  0.82662883497E+03  0.40000000000E+03 0. -1.
   -9000007    1    1    2    0  502 -0.70126984920E+02 -0.16769953127E+03 -0.13594483318E+03  0.45991512747E+03  0.40000000000E+03 0. -1.
<mgrwt>
<rscale>  2 0.43936423E+03</rscale>
<asrwt>0</asrwt>
<pdfrwt beam="1">  1       21 0.34646402E-01 0.43936423E+03</pdfrwt>
<pdfrwt beam="2">  1       21 0.16328344E+00 0.43936423E+03</pdfrwt>
<totfact> 0.16337722E+03</totfact>
</mgrwt>
</event>
<event>
 4    1  0.4690138E-002  0.6330778E+03  0.7818608E-02  0.9839061E-01
         21   -1    0    0  501  502  0.00000000000E+00  0.00000000000E+00  0.13440722688E+04  0.13440722688E+04  0.00000000000E+00 0. -1.
         21   -1    0    0  502  503 -0.00000000000E+00 -0.00000000000E+00 -0.32656545977E+03  0.32656545977E+03  0.00000000000E+00 0.  1.
    9000007    1    1    2  501    0  0.47434778795E+03 -0.12562518957E+03  0.75498658586E+03  0.98528790565E+03  0.40000000000E+03 0. -1.
   -9000007    1    1    2    0  503 -0.47434778795E+03  0.12562518957E+03  0.26252022316E+03  0.68534982291E+03  0.40000000000E+03 0.  1.
<mgrwt>
<rscale>  2 0.63307781E+03</rscale>
<asrwt>0</asrwt>
<pdfrwt beam="1">  1       21 0.20678035E+00 0.63307781E+03</pdfrwt>
<pdfrwt beam="2">  1       21 0.50240841E-01 0.63307781E+03</pdfrwt>
<totfact> 0.34681367E+02</totfact>
</mgrwt>
</event>
<event>
 4    1  0.4690138E-002  0.4202756E+03  0.7818608E-02  0.1036977E+00
         21   -1    0    0  501  502  0.00000000000E+00  0.00000000000E+00  0.39704429741E+03  0.39704429741E+03  0.00000000000E+00 0. -1.
         21   -1    0    0  502  503 -0.00000000000E+00 -0.00000000000E+00 -0.96970598698E+03  0.96970598698E+03  0.00000000000E+00 0.  1.
    9000007    1    1    2  501    0  0.12705126662E+03 -0.22125239432E+02  0.21641970348E+03  0.47272511952E+03  0.40000000000E+03 0. -1.
   -9000007    1    1    2    0  503 -0.12705126662E+03  0.22125239432E+02 -0.78908139305E+03  0.89402516487E+03  0.40000000000E+03 0.  1.
<mgrwt>
<rscale>  2 0.42027557E+03</rscale>
<asrwt>0</asrwt>
<pdfrwt beam="1">  1       21 0.61083739E-01 0.42027557E+03</pdfrwt>
<pdfrwt beam="2">  1       21 0.14918553E+00 0.42027557E+03</pdfrwt>
<totfact> 0.64167418E+02</totfact>
</mgrwt>
</event>
<event>
 4    1  0.4690138E-002  0.6643558E+03  0.7818608E-02  0.9780208E-01
         21   -1    0    0  503  502  0.00000000000E+00  0.00000000000E+00  0.16770408341E+04  0.16770408341E+04  0.00000000000E+00 0.  1.
         21   -1    0    0  501  503 -0.00000000000E+00 -0.00000000000E+00 -0.31236689762E+03  0.31236689762E+03  0.00000000000E+00 0.  1.
    9000007    1    1    2  501    0  0.22475218377E+03 -0.48047379886E+03  0.28763178151E+03  0.72394796583E+03  0.40000000000E+03 0.  1.
   -9000007    1    1    2    0  502 -0.22475218377E+03  0.48047379886E+03  0.10770421549E+04  0.12654597659E+04  0.40000000000E+03 0.  1.
<mgrwt>
<rscale>  2 0.66435579E+03</rscale>
<asrwt>0</asrwt>
<pdfrwt beam="1">  1       21 0.25800628E+00 0.66435579E+03</pdfrwt>
<pdfrwt beam="2">  1       21 0.48056447E-01 0.66435579E+03</pdfrwt>
<totfact> 0.17740848E+02</totfact>
</mgrwt>
</event>
<event>
 4    1  0.4690138E-002  0.4180298E+03  0.7818608E-02  0.1037709E+00
         21   -1    0    0  503  502  0.00000000000E+00  0.00000000000E+00  0.42506579446E+03  0.42506579446E+03  0.00000000000E+00 0. -1.
         21   -1    0    0  501  503 -0.00000000000E+00 -0.00000000000E+00 -0.66135965490E+03  0.66135965490E+03  0.00000000000E+00 0. -1.
    9000007    1    1    2  501    0 -0.99136712642E+02 -0.70148845569E+02 -0.45229389762E+03  0.61588855985E+03  0.40000000000E+03 0. -1.
   -9000007    1    1    2    0  502  0.99136712642E+02  0.70148845569E+02  0.21600003718E+03  0.47053688951E+03  0.40000000000E+03 0. -1.
<mgrwt>
<rscale>  2 0.41802984E+03</rscale>
<asrwt>0</asrwt>
<pdfrwt beam="1">  1       21 0.65394737E-01 0.41802984E+03</pdfrwt>
<pdfrwt beam="2">  1       21 0.10174764E+00 0.41802984E+03</pdfrwt>
<totfact> 0.14707512E+03</totfact>
</mgrwt>
</event>
<event>
 4    1  0.4690138E-002  0.5034083E+03  0.7818608E-02  0.1012893E+00
         21   -1    0    0  503  502  0.00000000000E+00  0.00000000000E+00  0.29348538202E+03  0.29348538202E+03  0.00000000000E+00 0. -1.
         21   -1    0    0  501  503 -0.00000000000E+00 -0.00000000000E+00 -0.97734035396E+03  0.97734035396E+03  0.00000000000E+00 0. -1.
    9000007    1    1    2  501    0 -0.12355621564E+03 -0.27956005163E+03 -0.55880350661E+03  0.75211788962E+03  0.40000000000E+03 0. -1.
   -9000007    1    1    2    0  502  0.12355621564E+03  0.27956005163E+03 -0.12505146533E+03  0.51870784635E+03  0.40000000000E+03 0. -1.
<mgrwt>
<rscale>  2 0.50340834E+03</rscale>
<asrwt>0</asrwt>
<pdfrwt beam="1">  1       21 0.45151597E-01 0.50340834E+03</pdfrwt>
<pdfrwt beam="2">  1       21 0.15036005E+00 0.50340834E+03</pdfrwt>
<totfact> 0.11595571E+03</totfact>
</mgrwt>
</event>
<event>
 4    1  0.4690138E-002  0.5016662E+03  0.7818608E-02  0.1013345E+00
         21   -1    0    0  503  502  0.00000000000E+00  0.00000000000E+00  0.16463791832E+03  0.16463791832E+03  0.00000000000E+00 0. -1.
         21   -1    0    0  501  503 -0.00000000000E+00 -0.00000000000E+00 -0.15292561799E+04  0.15292561799E+04  0.00000000000E+00 0. -1.
    9000007    1    1    2  501    0 -0.28590547938E+03 -0.99634666826E+02 -0.66505071573E+03  0.83304349494E+03  0.40000000000E+03 0. -1.
   -9000007    1    1    2    0  502  0.28590547938E+03  0.99634666826E+02 -0.69956754590E+03  0.86085060333E+03  0.40000000000E+03 0. -1.
<mgrwt>
<rscale>  2 0.50166623E+03</rscale>
<asrwt>0</asrwt>
<pdfrwt beam="1">  1       21 0.25328911E-01 0.50166623E+03</pdfrwt>
<pdfrwt beam="2">  1       21 0.23527018E+00 0.50166623E+03</pdfrwt>
<totfact> 0.96787569E+02</totfact>
</mgrwt>
</event>
<event>
 4    1  0.4690138E-002  0.4355939E+03  0.7818608E-02  0.1032107E+00
         21   -1    0    0  501  502  0.00000000000E+00  0.00000000000E+00  0.18338045932E+03  0.18338045932E+03  0.00000000000E+00 0.  1.
         21   -1    0    0  502  503 -0.00000000000E+00 -0.00000000000E+00 -0.12236049810E+04  0.12236049810E+04  0.00000000000E+00 0. -1.
    9000007    1    1    2  501    0  0.33029229372E+02 -0.16926640796E+03 -0.24369100188E+03  0.49912658841E+03  0.40000000000E+03 0.  1.
   -9000007    1    1    2    0  503 -0.33029229372E+02  0.16926640796E+03 -0.79653351984E+03  0.90785885196E+03  0.40000000000E+03 0. -1.
<mgrwt>
<rscale>  2 0.43559390E+03</rscale>
<asrwt>0</asrwt>
<pdfrwt beam="1">  1       21 0.28212380E-01 0.43559390E+03</pdfrwt>
<pdfrwt beam="2">  1       21 0.18824691E+00 0.43559390E+03</pdfrwt>
<totfact> 0.16354363E+03</totfact>
</mgrwt>
</event>
<event>
 4    1  0.4690138E-002  0.4428424E+03  0.7818608E-02  0.1029878E+00
         21   -1    0    0  501  502  0.00000000000E+00  0.00000000000E+00  0.32488737681E+03  0.32488737681E+03  0.00000000000E+00 0.  1.
         21   -1    0    0  502  503 -0.00000000000E+00 -0.00000000000E+00 -0.60448864800E+03  0.60448864800E+03  0.00000000000E+00 0.  1.
    9000007    1    1    2  501    0 -0.13760064891E+03  0.13105514685E+03 -0.12221259187E+03  0.45939667795E+03  0.40000000000E+03 0.  1.
   -9000007    1    1    2    0  503  0.13760064891E+03 -0.13105514685E+03 -0.15738867932E+03  0.46997934686E+03  0.40000000000E+03 0.  1.
<mgrwt>
<rscale>  2 0.44284240E+03</rscale>
<asrwt>0</asrwt>
<pdfrwt beam="1">  1       21 0.49982673E-01 0.44284240E+03</pdfrwt>
<pdfrwt beam="2">  1       21 0.92998253E-01 0.44284240E+03</pdfrwt>
<totfact> 0.32430162E+03</totfact>
</mgrwt>
</event>
<event>
 4    1  0.4690138E-002  0.5037656E+03  0.7818608E-02  0.1012801E+00
         21   -1    0    0  503  502  0.00000000000E+00  0.00000000000E+00  0.26048644317E+03  0.26048644317E+03  0.00000000000E+00 0.  1.
         21   -1    0    0  501  503 -0.00000000000E+00 -0.00000000000E+00 -0.10325954642E+04  0.10325954642E+04  0.00000000000E+00 0. -1.
    9000007    1    1    2  501    0  0.26594201406E+03  0.15183733128E+03 -0.53973646324E+03  0.73830561407E+03  0.40000000000E+03 0. -1.
   -9000007    1    1    2    0  502 -0.26594201406E+03 -0.15183733128E+03 -0.23237255780E+03  0.55477629332E+03  0.40000000000E+03 0.  1.
<mgrwt>
<rscale>  2 0.50376555E+03</rscale>
<asrwt>0</asrwt>
<pdfrwt beam="1">  1       21 0.40074838E-01 0.50376555E+03</pdfrwt>
<pdfrwt beam="2">  1       21 0.15886084E+00 0.50376555E+03</pdfrwt>
<totfact> 0.12773291E+03</totfact>
</mgrwt>
</event>
<event>
 4    1  0.4690138E-002  0.6456682E+03  0.7818608E-02  0.9814942E-01
         21   -1    0    0  501  502  0.00000000000E+00  0.00000000000E+00  0.23267502418E+04  0.23267502418E+04  0.00000000000E+00 0.  1.
         21   -1    0    0  502  503 -0.00000000000E+00 -0.00000000000E+00 -0.18020756469E+03  0.18020756469E+03  0.00000000000E+00 0. -1.
    9000007    1    1    2  501    0  0.30210710296E+03  0.40696272967E+03  0.11683145031E+04  0.13348580985E+04  0.40000000000E+03 0. -1.
   -9000007    1    1    2    0  503 -0.30210710296E+03 -0.40696272967E+03  0.97822817401E+03  0.11720997080E+04  0.40000000000E+03 0.  1.
<mgrwt>
<rscale>  2 0.64566815E+03</rscale>
<asrwt>0</asrwt>
<pdfrwt beam="1">  1       21 0.35796155E+00 0.64566815E+03</pdfrwt>
<pdfrwt beam="2">  1       21 0.27724242E-01 0.64566815E+03</pdfrwt>
<totfact> 0.13417520E+02</totfact>
</mgrwt>
</event>
<event>
 4    1  0.4690138E-002  0.4440936E+03  0.7818608E-02  0.1029498E+00
         21   -1    0    0  501  502  0.00000000000E+00  0.00000000000E+00  0.12689509724E+04  0.12689509724E+04  0.00000000000E+00 0.  1.
         21   -1    0    0  502  503 -0.00000000000E+00 -0.00000000000E+00 -0.18219418555E+03  0.18219418555E+03  0.00000000000E+00 0.  1.
    9000007    1    1    2  501    0  0.12069053810E+03  0.15050884944E+03  0.82152877930E+03  0.93387828702E+03  0.40000000000E+03 0.  1.
   -9000007    1    1    2    0  503 -0.12069053810E+03 -0.15050884944E+03  0.26522800750E+03  0.51726687088E+03  0.40000000000E+03 0.  1.
<mgrwt>
<rscale>  2 0.44409359E+03</rscale>
<asrwt>0</asrwt>
<pdfrwt beam="1">  1       21 0.19522322E+00 0.44409359E+03</pdfrwt>
<pdfrwt beam="2">  1       21 0.28029876E-01 0.44409359E+03</pdfrwt>
<totfact> 0.14794010E+03</totfact>
</mgrwt>
</event>
<event>
 4    1  0.4690138E-002  0.4205027E+03  0.7818608E-02  0.1036903E+00
         21   -1    0    0  501  502  0.00000000000E+00  0.00000000000E+00  0.30644583193E+03  0.30644583193E+03  0.00000000000E+00 0.  1.
         21   -1    0    0  502  503 -0.00000000000E+00 -0.00000000000E+00 -0.78492156630E+03  0.78492156630E+03  0.00000000000E+00 0.  1.
    9000007    1    1    2  501    0  0.68592957001E+02  0.11007964990E+03  0.41606971434E+02  0.42255610650E+03  0.40000000000E+03 0.  1.
   -9000007    1    1    2    0  503 -0.68592957001E+02 -0.11007964990E+03 -0.52008270580E+03  0.66881129173E+03  0.40000000000E+03 0.  1.
<mgrwt>
<rscale>  2 0.42050270E+03</rscale>
<asrwt>0</asrwt>
<pdfrwt beam="1">  1       21 0.47145513E-01 0.42050270E+03</pdfrwt>
<pdfrwt beam="2">  1       21 0.12075716E+00 0.42050270E+03</pdfrwt>
<totfact> 0.19472491E+03</totfact>
</mgrwt>
</event>
<event>
 4    1  0.4690138E-002  0.4162480E+03  0.7818608E-02  0.1038294E+00
         21   -1    0    0  503  502  0.00000000000E+00  0.00000000000E+00  0.24466047404E+03  0.24466047404E+03  0.00000000000E+00 0. -1.
         21   -1    0    0  501  503 -0.00000000000E+00 -0.00000000000E+00 -0.72380559250E+03  0.72380559250E+03  0.00000000000E+00 0. -1.
    9000007    1    1    2  501    0 -0.24770103920E+02  0.11246697969E+03 -0.16841286097E+03  0.44902702737E+03  0.40000000000E+03 0.  1.
   -9000007    1    1    2    0  502  0.24770103920E+02 -0.11246697969E+03 -0.31073225749E+03  0.51943903917E+03  0.40000000000E+03 0.  1.
<mgrwt>
<rscale>  2 0.41624798E+03</rscale>
<asrwt>0</asrwt>
<pdfrwt beam="1">  1       21 0.37640074E-01 0.41624798E+03</pdfrwt>
<pdfrwt beam="2">  1       21 0.11135470E+00 0.41624798E+03</pdfrwt>
<totfact> 0.38108147E+03</totfact>
</mgrwt>
</event>
<event>
 4    1  0.4690138E-002  0.4936024E+03  0.7818608E-02  0.1015462E+00
         21   -1    0    0  503  502  0.00000000000E+00  0.00000000000E+00  0.41494469513E+03  0.41494469513E+03  0.00000000000E+00 0.  1.
         21   -1    0    0  501  503 -0.00000000000E+00 -0.00000000000E+00 -0.67605116163E+03  0.67605116163E+03  0.00000000000E+00 0. -1.
    9000007    1    1    2  501    0 -0.14129629543E+03 -0.25234631068E+03 -0.32834438004E+03  0.59283499857E+03  0.40000000000E+03 0. -1.
   -9000007    1    1    2    0  502  0.14129629543E+03  0.25234631068E+03  0.67237913540E+02  0.49816085819E+03  0.40000000000E+03 0.  1.
<mgrwt>
<rscale>  2 0.49360237E+03</rscale>
<asrwt>0</asrwt>
<pdfrwt beam="1">  1       21 0.63837646E-01 0.49360237E+03</pdfrwt>
<pdfrwt beam="2">  1       21 0.10400787E+00 0.49360237E+03</pdfrwt>
<totfact> 0.14274312E+03</totfact>
</mgrwt>
</event>
<event>
 4    1  0.4690138E-002  0.4570557E+03  0.7818608E-02  0.1025639E+00
         21   -1    0    0  503  502  0.00000000000E+00  0.00000000000E+00  0.13833311719E+03  0.13833311719E+03  0.00000000000E+00 0.  1.
         21   -1    0    0  501  503 -0.00000000000E+00 -0.00000000000E+00 -0.16701941367E+04  0.16701941367E+04  0.00000000000E+00 0.  1.
    9000007    1    1    2  501    0  0.22111817709E+03 -0.25881238105E+01 -0.48598800909E+03  0.66714637944E+03  0.40000000000E+03 0. -1.
   -9000007    1    1    2    0  502 -0.22111817709E+03  0.25881238105E+01 -0.10458730104E+04  0.11413808745E+04  0.40000000000E+03 0. -1.
<mgrwt>
<rscale>  2 0.45705574E+03</rscale>
<asrwt>0</asrwt>
<pdfrwt beam="1">  1       21 0.21282019E-01 0.45705574E+03</pdfrwt>
<pdfrwt beam="2">  1       21 0.25695293E+00 0.45705574E+03</pdfrwt>
<totfact> 0.10160468E+03</totfact>
</mgrwt>
</event>
<event>
 4    1  0.4690138E-002  0.4333789E+03  0.7818608E-02  0.1032798E+00
         21   -1    0    0  501  502  0.00000000000E+00  0.00000000000E+00  0.83984014926E+02  0.83984014926E+02  0.00000000000E+00 0.  1.
         21   -1    0    0  502  503 -0.00000000000E+00 -0.00000000000E+00 -0.22648662140E+04  0.22648662140E+04  0.00000000000E+00 0.  1.
    9000007    1    1    2  501    0  0.49022295824E+02  0.15941782270E+03 -0.12222329134E+04  0.12967923976E+04  0.40000000000E+03 0.  1.
   -9000007    1    1    2    0  503 -0.49022295824E+02 -0.15941782270E+03 -0.95864928563E+03  0.10520578314E+04  0.40000000000E+03 0.  1.
<mgrwt>
<rscale>  2 0.43337885E+03</rscale>
<asrwt>0</asrwt>
<pdfrwt beam="1">  1       21 0.12920618E-01 0.43337885E+03</pdfrwt>
<pdfrwt beam="2">  1       21 0.34844095E+00 0.43337885E+03</pdfrwt>
<totfact> 0.73307773E+02</totfact>
</mgrwt>
</event>
<event>
 4    1  0.4690138E-002  0.5492414E+03  0.7818608E-02  0.1001670E+00
         21   -1    0    0  503  502  0.00000000000E+00  0.00000000000E+00  0.44691295131E+03  0.44691295131E+03  0.00000000000E+00 0.  1.
         21   -1    0    0  501  503 -0.00000000000E+00 -0.00000000000E+00 -0.73475999975E+03  0.73475999975E+03  0.00000000000E+00 0.  1.
    9000007    1    1    2  501    0  0.92680119462E+02 -0.36479660529E+03 -0.31242373334E+03  0.63188191692E+03  0.40000000000E+03 0.  1.
   -9000007    1    1    2    0  502 -0.92680119462E+02  0.36479660529E+03  0.24576684901E+02  0.54979103414E+03  0.40000000000E+03 0.  1.
<mgrwt>
<rscale>  2 0.54924145E+03</rscale>
<asrwt>0</asrwt>
<pdfrwt beam="1">  1       21 0.68755839E-01 0.54924145E+03</pdfrwt>
<pdfrwt beam="2">  1       21 0.11304000E+00 0.54924145E+03</pdfrwt>
<totfact> 0.96437553E+02</totfact>
</mgrwt>
</event>
<event>
 4    1  0.4690138E-002  0.5140101E+03  0.7818608E-02  0.1010185E+00
         21   -1    0    0  501  502  0.00000000000E+00  0.00000000000E+00  0.79610514383E+03  0.79610514383E+03  0.00000000000E+00 0.  1.
         21   -1    0    0  502  503 -0.00000000000E+00 -0.00000000000E+00 -0.38315447121E+03  0.38315447121E+03  0.00000000000E+00 0. -1.
    9000007    1    1    2  501    0  0.18667137171E+03 -0.26336317299E+03  0.42218507037E+03  0.66516659233E+03  0.40000000000E+03 0.  1.
   -9000007    1    1    2    0  503 -0.18667137171E+03  0.26336317299E+03 -0.92343977505E+01  0.51409302272E+03  0.40000000000E+03 0. -1.
<mgrwt>
<rscale>  2 0.51401008E+03</rscale>
<asrwt>0</asrwt>
<pdfrwt beam="1">  1       21 0.12247771E+00 0.51401008E+03</pdfrwt>
<pdfrwt beam="2">  1       21 0.58946842E-01 0.51401008E+03</pdfrwt>
<totfact> 0.11215740E+03</totfact>
</mgrwt>
</event>
<event>
 4    1  0.4690138E-002  0.4469645E+03  0.7818608E-02  0.1028631E+00
         21   -1    0    0  501  502  0.00000000000E+00  0.00000000000E+00  0.19116375663E+04  0.19116375663E+04  0.00000000000E+00 0. -1.
         21   -1    0    0  502  503 -0.00000000000E+00 -0.00000000000E+00 -0.14753542175E+03  0.14753542175E+03  0.00000000000E+00 0. -1.
    9000007    1    1    2  501    0  0.16195721813E+03  0.11639225862E+03  0.14380810735E+04  0.15059397306E+04  0.40000000000E+03 0. -1.
   -9000007    1    1    2    0  503 -0.16195721813E+03 -0.11639225862E+03  0.32602107111E+03  0.55323325748E+03  0.40000000000E+03 0. -1.
<mgrwt>
<rscale>  2 0.44696454E+03</rscale>
<asrwt>0</asrwt>
<pdfrwt beam="1">  1       21 0.29409807E+00 0.44696454E+03</pdfrwt>
<pdfrwt beam="2">  1       21 0.22697758E-01 0.44696454E+03</pdfrwt>
<totfact> 0.53819069E+02</totfact>
</mgrwt>
</event>
<event>
 4    1  0.4690138E-002  0.5303649E+03  0.7818608E-02  0.1006144E+00
         21   -1    0    0  503  502  0.00000000000E+00  0.00000000000E+00  0.53893795045E+03  0.53893795045E+03  0.00000000000E+00 0.  1.
         21   -1    0    0  501  503 -0.00000000000E+00 -0.00000000000E+00 -0.73887088091E+03  0.73887088091E+03  0.00000000000E+00 0.  1.
    9000007    1    1    2  501    0 -0.34820734846E+03 -0.62063111333E+01 -0.44616417225E+03  0.69307239479E+03  0.40000000000E+03 0.  1.
   -9000007    1    1    2    0  502  0.34820734846E+03  0.62063111333E+01  0.24623124178E+03  0.58473643657E+03  0.40000000000E+03 0.  1.
<mgrwt>
<rscale>  2 0.53036485E+03</rscale>
<asrwt>0</asrwt>
<pdfrwt beam="1">  1       21 0.82913531E-01 0.53036485E+03</pdfrwt>
<pdfrwt beam="2">  1       21 0.11367244E+00 0.53036485E+03</pdfrwt>
<totfact> 0.62299366E+02</totfact>
</mgrwt>
</event>
<event>
 4    1  0.4690138E-002  0.4707350E+03  0.7818608E-02  0.1021713E+00
         21   -1    0    0  503  502  0.00000000000E+00  0.00000000000E+00  0.40367971437E+03  0.40367971437E+03  0.00000000000E+00 0. -1.
         21   -1    0    0  501  503 -0.00000000000E+00 -0.00000000000E+00 -0.81031235398E+03  0.81031235398E+03  0.00000000000E+00 0. -1.
    9000007    1    1    2  501    0  0.58254290396E+02  0.24124241704E+03 -0.54806186298E+03  0.72247025668E+03  0.40000000000E+03 0. -1.
   -9000007    1    1    2    0  502 -0.58254290396E+02 -0.24124241704E+03  0.14142922337E+03  0.49152181168E+03  0.40000000000E+03 0. -1.
<mgrwt>
<rscale>  2 0.47073503E+03</rscale>
<asrwt>0</asrwt>
<pdfrwt beam="1">  1       21 0.62104572E-01 0.47073503E+03</pdfrwt>
<pdfrwt beam="2">  1       21 0.12466344E+00 0.47073503E+03</pdfrwt>
<totfact> 0.97126296E+02</totfact>
</mgrwt>
</event>
<event>
 4    1  0.4690138E-002  0.4336858E+03  0.7818608E-02  0.1032702E+00
         21   -1    0    0  503  502  0.00000000000E+00  0.00000000000E+00  0.46165406458E+03  0.46165406458E+03  0.00000000000E+00 0.  1.
         21   -1    0    0  501  503 -0.00000000000E+00 -0.00000000000E+00 -0.44208813947E+03  0.44208813947E+03  0.00000000000E+00 0. -1.
    9000007    1    1    2  501    0  0.12516813321E+03 -0.11142862533E+03 -0.11677095208E+03  0.44913122288E+03  0.40000000000E+03 0. -1.
   -9000007    1    1    2    0  502 -0.12516813321E+03  0.11142862533E+03  0.13633687719E+03  0.45461098117E+03  0.40000000000E+03 0.  1.
<mgrwt>
<rscale>  2 0.43368583E+03</rscale>
<asrwt>0</asrwt>
<pdfrwt beam="1">  1       21 0.71023702E-01 0.43368583E+03</pdfrwt>
<pdfrwt beam="2">  1       21 0.68013560E-01 0.43368583E+03</pdfrwt>
<totfact> 0.31049220E+03</totfact>
</mgrwt>
</event>
<event>
 4    1  0.4690138E-002  0.5882161E+03  0.7818608E-02  0.9930160E-01
         21   -1    0    0  501  502  0.00000000000E+00  0.00000000000E+00  0.46797068516E+03  0.46797068516E+03  0.00000000000E+00 0. -1.
         21   -1    0    0  502  503 -0.00000000000E+00 -0.00000000000E+00 -0.15412269081E+04  0.15412269081E+04  0.00000000000E+00 0.  1.
    9000007    1    1    2  501    0  0.17399938836E+03  0.39461681274E+03  0.18799277683E+03  0.61752692264E+03  0.40000000000E+03 0. -1.
   -9000007    1    1    2    0  503 -0.17399938836E+03 -0.39461681274E+03 -0.12612489997E+04  0.13916706706E+04  0.40000000000E+03 0.  1.
<mgrwt>
<rscale>  2 0.58821613E+03</rscale>
<asrwt>0</asrwt>
<pdfrwt beam="1">  1       21 0.71995491E-01 0.58821613E+03</pdfrwt>
<pdfrwt beam="2">  1       21 0.23711183E+00 0.58821613E+03</pdfrwt>
<totfact> 0.10153175E+02</totfact>
</mgrwt>
</event>
<event>
 4    1  0.4690138E-002  0.4097456E+03  0.7818608E-02  0.1040456E+00
         21   -1    0    0  503  502  0.00000000000E+00  0.00000000000E+00  0.65168667043E+03  0.65168667043E+03  0.00000000000E+00 0.  1.
         21   -1    0    0  501  503 -0.00000000000E+00 -0.00000000000E+00 -0.25877953946E+03  0.25877953946E+03  0.00000000000E+00 0.  1.
    9000007    1    1    2  501    0  0.82574677730E+02  0.32755363726E+02  0.16606099393E+03  0.44211734298E+03  0.40000000000E+03 0. -1.
   -9000007    1    1    2    0  502 -0.82574677730E+02 -0.32755363726E+02  0.22684613704E+03  0.46834886692E+03  0.40000000000E+03 0. -1.
<mgrwt>
<rscale>  2 0.40974564E+03</rscale>
<asrwt>0</asrwt>
<pdfrwt beam="1">  1       21 0.10025949E+00 0.40974564E+03</pdfrwt>
<pdfrwt beam="2">  1       21 0.39812237E-01 0.40974564E+03</pdfrwt>
<totfact> 0.44079629E+03</totfact>
</mgrwt>
</event>
<event>
 4    1  0.4690138E-002  0.4006014E+03  0.7818608E-02  0.1043572E+00
         21   -1    0    0  503  502  0.00000000000E+00  0.00000000000E+00  0.90442433004E+03  0.90442433004E+03  0.00000000000E+00 0.  1.
         21   -1    0    0  501  503 -0.00000000000E+00 -0.00000000000E+00 -0.43301606117E+03  0.43301606117E+03  0.00000000000E+00 0.  1.
    9000007    1    1    2  501    0 -0.25749694223E+01  0.21790443645E+02 -0.27804623417E+03  0.48763835190E+03  0.40000000000E+03 0.  1.
   -9000007    1    1    2    0  502  0.25749694223E+01 -0.21790443645E+02  0.74945450304E+03  0.84980203931E+03  0.40000000000E+03 0.  1.
<mgrwt>
<rscale>  2 0.40060137E+03</rscale>
<asrwt>0</asrwt>
<pdfrwt beam="1">  1       21 0.13914220E+00 0.40060137E+03</pdfrwt>
<pdfrwt beam="2">  1       21 0.66617856E-01 0.40060137E+03</pdfrwt>
<totfact> 0.64460243E+02</totfact>
</mgrwt>
</event>
<event>
 4    1  0.4690138E-002  0.5504202E+03  0.7818608E-02  0.1001397E+00
         21   -1    0    0  501  502  0.00000000000E+00  0.00000000000E+00  0.33631497889E+03  0.33631497889E+03  0.00000000000E+00 0. -1.
         21   -1    0    0  502  503 -0.00000000000E+00 -0.00000000000E+00 -0.18960099878E+04  0.18960099878E+04  0.00000000000E+00 0.  1.
    9000007    1    1    2  501    0 -0.25716397772E+03 -0.27718058007E+03  0.28797822756E+02  0.55117302184E+03  0.40000000000E+03 0. -1.
   -9000007    1    1    2    0  503  0.25716397772E+03  0.27718058007E+03 -0.15884928317E+04  0.16811519449E+04  0.40000000000E+03 0.  1.
<mgrwt>
<rscale>  2 0.55042019E+03</rscale>
<asrwt>0</asrwt>
<pdfrwt beam="1">  1       21 0.51740768E-01 0.55042019E+03</pdfrwt>
<pdfrwt beam="2">  1       21 0.29169383E+00 0.55042019E+03</pdfrwt>
<totfact> 0.99020876E+01</totfact>
</mgrwt>
</event>
<event>
 4    1  0.4690138E-002  0.4038443E+03  0.7818608E-02  0.1042457E+00
         21   -1    0    0  501  502  0.00000000000E+00  0.00000000000E+00  0.72318957154E+02  0.72318957154E+02  0.00000000000E+00 0.  1.
         21   -1    0    0  502  503 -0.00000000000E+00 -0.00000000000E+00 -0.32147920361E+04  0.32147920361E+04  0.00000000000E+00 0.  1.
    9000007    1    1    2  501    0 -0.37828609318E+02 -0.40733887250E+02 -0.67326603501E+03  0.78509706862E+03  0.40000000000E+03 0.  1.
   -9000007    1    1    2    0  503  0.37828609318E+02  0.40733887250E+02 -0.24692070439E+04  0.25020139246E+04  0.40000000000E+03 0.  1.
<mgrwt>
<rscale>  2 0.40384434E+03</rscale>
<asrwt>0</asrwt>
<pdfrwt beam="1">  1       21 0.11125992E-01 0.40384434E+03</pdfrwt>
<pdfrwt beam="2">  1       21 0.49458345E+00 0.40384434E+03</pdfrwt>
<totfact> 0.10779586E+02</totfact>
</mgrwt>
</event>
<event>
 4    1  0.4690138E-002  0.4015704E+03  0.7818608E-02  0.1043237E+00
         21   -1    0    0  501  502  0.00000000000E+00  0.00000000000E+00  0.82363415940E+03  0.82363415940E+03  0.00000000000E+00 0.  1.
         21   -1    0    0  502  503 -0.00000000000E+00 -0.00000000000E+00 -0.20213529605E+03  0.20213529605E+03  0.00000000000E+00 0.  1.
    9000007    1    1    2  501    0 -0.24662134098E+02 -0.25506822180E+02  0.40162475272E+03  0.56794476918E+03  0.40000000000E+03 0. -1.
   -9000007    1    1    2    0  503  0.24662134098E+02  0.25506822180E+02  0.21987411063E+03  0.45782468628E+03  0.40000000000E+03 0. -1.
<mgrwt>
<rscale>  2 0.40157044E+03</rscale>
<asrwt>0</asrwt>
<pdfrwt beam="1">  1       21 0.12671295E+00 0.40157044E+03</pdfrwt>
<pdfrwt beam="2">  1       21 0.31097738E-01 0.40157044E+03</pdfrwt>
<totfact> 0.40631590E+03</totfact>
</mgrwt>
</event>
<event>
 4    1  0.4690138E-002  0.4518917E+03  0.7818608E-02  0.1027159E+00
         21   -1    0    0  503  502  0.00000000000E+00  0.00000000000E+00  0.17459416924E+03  0.17459416924E+03  0.00000000000E+00 0. -1.
         21   -1    0    0  501  503 -0.00000000000E+00 -0.00000000000E+00 -0.13398778815E+04  0.13398778815E+04  0.00000000000E+00 0.  1.
    9000007    1    1    2  501    0 -0.20632944382E+03  0.40425854018E+02 -0.85258500451E+03  0.96493900272E+03  0.40000000000E+03 0.  1.
   -9000007    1    1    2    0  502  0.20632944382E+03 -0.40425854018E+02 -0.31269870778E+03  0.54953304806E+03  0.40000000000E+03 0. -1.
<mgrwt>
<rscale>  2 0.45189168E+03</rscale>
<asrwt>0</asrwt>
<pdfrwt beam="1">  1       21 0.26860641E-01 0.45189168E+03</pdfrwt>
<pdfrwt beam="2">  1       21 0.20613506E+00 0.45189168E+03</pdfrwt>
<totfact> 0.13561245E+03</totfact>
</mgrwt>
</event>
<event>
 4    1  0.4690138E-002  0.4262108E+03  0.7818608E-02  0.1035064E+00
         21   -1    0    0  503  502  0.00000000000E+00  0.00000000000E+00  0.41457253154E+03  0.41457253154E+03  0.00000000000E+00 0.  1.
         21   -1    0    0  501  503 -0.00000000000E+00 -0.00000000000E+00 -0.10010770612E+04  0.10010770612E+04  0.00000000000E+00 0.  1.
    9000007    1    1    2  501    0  0.10996504592E+03 -0.97792261536E+02 -0.82402443136E+03  0.92772404368E+03  0.40000000000E+03 0.  1.
   -9000007    1    1    2    0  502 -0.10996504592E+03  0.97792261536E+02  0.23751990168E+03  0.48792554907E+03  0.40000000000E+03 0.  1.
<mgrwt>
<rscale>  2 0.42621079E+03</rscale>
<asrwt>0</asrwt>
<pdfrwt beam="1">  1       21 0.63780389E-01 0.42621079E+03</pdfrwt>
<pdfrwt beam="2">  1       21 0.15401186E+00 0.42621079E+03</pdfrwt>
<totfact> 0.53351284E+02</totfact>
</mgrwt>
</event>
<event>
 4    1  0.4690138E-002  0.4844761E+03  0.7818608E-02  0.1017912E+00
         21   -1    0    0  503  502  0.00000000000E+00  0.00000000000E+00  0.14800273483E+04  0.14800273483E+04  0.00000000000E+00 0. -1.
         21   -1    0    0  501  503 -0.00000000000E+00 -0.00000000000E+00 -0.17227833604E+03  0.17227833604E+03  0.00000000000E+00 0. -1.
    9000007    1    1    2  501    0  0.16396984400E+03 -0.21870299156E+03  0.42099836636E+03  0.64183855660E+03  0.40000000000E+03 0. -1.
   -9000007    1    1    2    0  502 -0.16396984400E+03  0.21870299156E+03  0.88675064591E+03  0.10104671278E+04  0.40000000000E+03 0. -1.
<mgrwt>
<rscale>  2 0.48447612E+03</rscale>
<asrwt>0</asrwt>
<pdfrwt beam="1">  1       21 0.22769651E+00 0.48447612E+03</pdfrwt>
<pdfrwt beam="2">  1       21 0.26504360E-01 0.48447612E+03</pdfrwt>
<totfact> 0.99614378E+02</totfact>
</mgrwt>
</event>
<event>
 4    1  0.4690138E-002  0.4402162E+03  0.7818608E-02  0.1030680E+00
         21   -1    0    0  503  502  0.00000000000E+00  0.00000000000E+00  0.11400340901E+04  0.11400340901E+04  0.00000000000E+00 0. -1.
         21   -1    0    0  501  503 -0.00000000000E+00 -0.00000000000E+00 -0.25381509709E+03  0.25381509709E+03  0.00000000000E+00 0. -1.
    9000007    1    1    2  501    0  0.59004106275E+02 -0.17409430529E+03  0.42590263427E+02  0.44227168373E+03  0.40000000000E+03 0.  1.
   -9000007    1    1    2    0  502 -0.59004106275E+02  0.17409430529E+03  0.84362872955E+03  0.95157750342E+03  0.40000000000E+03 0.  1.
<mgrwt>
<rscale>  2 0.44021621E+03</rscale>
<asrwt>0</asrwt>
<pdfrwt beam="1">  1       21 0.17538986E+00 0.44021621E+03</pdfrwt>
<pdfrwt beam="2">  1       21 0.39048477E-01 0.44021621E+03</pdfrwt>
<totfact> 0.10447820E+03</totfact>
</mgrwt>
</event>
<event>
 4    1  0.4690138E-002  0.4138805E+03  0.7818608E-02  0.1039077E+00
         21   -1    0    0  503  502  0.00000000000E+00  0.00000000000E+00  0.19979818227E+04  0.19979818227E+04  0.00000000000E+00 0.  1.
         21   -1    0    0  501  503 -0.00000000000E+00 -0.00000000000E+00 -0.31056083509E+03  0.31056083509E+03  0.00000000000E+00 0.  1.
    9000007    1    1    2  501    0 -0.71284331515E+02  0.78839174716E+02 -0.13839383375E+03  0.43640568810E+03  0.40000000000E+03 0.  1.
   -9000007    1    1    2    0  502  0.71284331515E+02 -0.78839174716E+02  0.18258148214E+04  0.18721369697E+04  0.40000000000E+03 0.  1.
<mgrwt>
<rscale>  2 0.41388050E+03</rscale>
<asrwt>0</asrwt>
<pdfrwt beam="1">  1       21 0.30738181E+00 0.41388050E+03</pdfrwt>
<pdfrwt beam="2">  1       21 0.47778591E-01 0.41388050E+03</pdfrwt>
<totfact> 0.10241081E+02</totfact>
</mgrwt>
</event>
<event>
 4    1  0.4690138E-002  0.4985156E+03  0.7818608E-02  0.1014167E+00
         21   -1    0    0  501  502  0.00000000000E+00  0.00000000000E+00  0.50448580251E+03  0.50448580251E+03  0.00000000000E+00 0. -1.
         21   -1    0    0  502  503 -0.00000000000E+00 -0.00000000000E+00 -0.14335439072E+04  0.14335439072E+04  0.00000000000E+00 0.  1.
    9000007    1    1    2  501    0 -0.24648311911E+03  0.16662483357E+03  0.32053142994E+03  0.59267036432E+03  0.40000000000E+03 0. -1.
   -9000007    1    1    2    0  503  0.24648311911E+03 -0.16662483357E+03 -0.12495895346E+04  0.13453593454E+04  0.40000000000E+03 0.  1.
<mgrwt>
<rscale>  2 0.49851556E+03</rscale>
<asrwt>0</asrwt>
<pdfrwt beam="1">  1       21 0.77613201E-01 0.49851556E+03</pdfrwt>
<pdfrwt beam="2">  1       21 0.22054522E+00 0.49851556E+03</pdfrwt>
<totfact> 0.11372766E+02</totfact>
</mgrwt>
</event>
<event>
 4    1  0.4690138E-002  0.4202070E+03  0.7818608E-02  0.1036999E+00
         21   -1    0    0  501  502  0.00000000000E+00  0.00000000000E+00  0.48958266125E+03  0.48958266125E+03  0.00000000000E+00 0.  1.
         21   -1    0    0  502  503 -0.00000000000E+00 -0.00000000000E+00 -0.36364205416E+03  0.36364205416E+03  0.00000000000E+00 0.  1.
    9000007    1    1    2  501    0 -0.12339826274E+03 -0.36699189266E+02  0.24351965549E+02  0.42091208104E+03  0.40000000000E+03 0.  1.
   -9000007    1    1    2    0  503  0.12339826274E+03  0.36699189266E+02  0.10158864154E+03  0.43231263436E+03  0.40000000000E+03 0.  1.
<mgrwt>
<rscale>  2 0.42020705E+03</rscale>
<asrwt>0</asrwt>
<pdfrwt beam="1">  1       21 0.75320410E-01 0.42020705E+03</pdfrwt>
<pdfrwt beam="2">  1       21 0.55944931E-01 0.42020705E+03</pdfrwt>
<totfact> 0.41969906E+03</totfact>
</mgrwt>
</event>
<event>
 4    1  0.4690138E-002  0.4305226E+03  0.7818608E-02  0.1033695E+00
         21   -1    0    0  503  502  0.00000000000E+00  0.00000000000E+00  0.23187266213E+03  0.23187266213E+03  0.00000000000E+00 0.  1.
         21   -1    0    0  501  503 -0.00000000000E+00 -0.00000000000E+00 -0.89160543866E+03  0.89160543866E+03  0.00000000000E+00 0.  1.
    9000007    1    1    2  501    0  0.64825357207E+02 -0.14542139995E+03 -0.51055089800E+03  0.66784124607E+03  0.40000000000E+03 0. -1.
   -9000007    1    1    2    0  502 -0.64825357207E+02  0.14542139995E+03 -0.14918187853E+03  0.45563685472E+03  0.40000000000E+03 0. -1.
<mgrwt>
<rscale>  2 0.43052260E+03</rscale>
<asrwt>0</asrwt>
<pdfrwt beam="1">  1       21 0.35672718E-01 0.43052260E+03</pdfrwt>
<pdfrwt beam="2">  1       21 0.13717007E+00 0.43052260E+03</pdfrwt>
<totfact> 0.24814365E+03</totfact>
</mgrwt>
</event>
<event>
 4    1  0.4690138E-002  0.4430846E+03  0.7818608E-02  0.1029805E+00
         21   -1    0    0  501  502  0.00000000000E+00  0.00000000000E+00  0.24152360894E+03  0.24152360894E+03  0.00000000000E+00 0. -1.
         21   -1    0    0  502  503 -0.00000000000E+00 -0.00000000000E+00 -0.17006123122E+04  0.17006123122E+04  0.00000000000E+00 0. -1.
    9000007    1    1    2  501    0  0.17397761918E+03 -0.77818680084E+02 -0.27937526103E+02  0.44396448542E+03  0.40000000000E+03 0. -1.
   -9000007    1    1    2    0  503 -0.17397761918E+03  0.77818680084E+02 -0.14311511771E+04  0.14981714357E+04  0.40000000000E+03 0. -1.
<mgrwt>
<rscale>  2 0.44308460E+03</rscale>
<asrwt>0</asrwt>
<pdfrwt beam="1">  1       21 0.37157478E-01 0.44308460E+03</pdfrwt>
<pdfrwt beam="2">  1       21 0.26163267E+00 0.44308460E+03</pdfrwt>
<totfact> 0.31914623E+02</totfact>
</mgrwt>
</event>
<event>
 4    1  0.4690138E-002  0.4293199E+03  0.7818608E-02  0.1034075E+00
         21   -1    0    0  501  502  0.00000000000E+00  0.00000000000E+00  0.12980695546E+04  0.12980695546E+04  0.00000000000E+00 0. -1.
         21   -1    0    0  502  503 -0.00000000000E+00 -0.00000000000E+00 -0.12713317979E+04  0.12713317979E+04  0.00000000000E+00 0. -1.
    9000007    1    1    2  501    0 -0.10471191861E+03  0.11554655569E+03  0.12242034143E+04  0.12973008873E+04  0.40000000000E+03 0. -1.
   -9000007    1    1    2    0  503  0.10471191861E+03 -0.11554655569E+03 -0.11974656577E+04  0.12721004652E+04  0.40000000000E+03 0. -1.
<mgrwt>
<rscale>  2 0.42931992E+03</rscale>
<asrwt>0</asrwt>
<pdfrwt beam="1">  1       21 0.19970301E+00 0.42931992E+03</pdfrwt>
<pdfrwt beam="2">  1       21 0.19558951E+00 0.42931992E+03</pdfrwt>
<totfact> 0.14768602E+01</totfact>
</mgrwt>
</event>
<event>
 4    1  0.4690138E-002  0.4499391E+03  0.7818608E-02  0.1027740E+00
         21   -1    0    0  503  502  0.00000000000E+00  0.00000000000E+00  0.72032317235E+03  0.72032317235E+03  0.00000000000E+00 0. -1.
         21   -1    0    0  501  503 -0.00000000000E+00 -0.00000000000E+00 -0.36333167692E+03  0.36333167692E+03  0.00000000000E+00 0. -1.
    9000007    1    1    2  501    0  0.17162820494E+03 -0.11396889421E+03 -0.79354210995E+02  0.45688318024E+03  0.40000000000E+03 0. -1.
   -9000007    1    1    2    0  502 -0.17162820494E+03  0.11396889421E+03  0.43634570643E+03  0.62677166903E+03  0.40000000000E+03 0. -1.
<mgrwt>
<rscale>  2 0.44993905E+03</rscale>
<asrwt>0</asrwt>
<pdfrwt beam="1">  1       21 0.11081895E+00 0.44993905E+03</pdfrwt>
<pdfrwt beam="2">  1       21 0.55897181E-01 0.44993905E+03</pdfrwt>
<totfact> 0.16595903E+03</totfact>
</mgrwt>
</event>
<event>
 4    1  0.4690138E-002  0.4345582E+03  0.7818608E-02  0.1032430E+00
         21   -1    0    0  503  502  0.00000000000E+00  0.00000000000E+00  0.53758948201E+03  0.53758948201E+03  0.00000000000E+00 0.  1.
         21   -1    0    0  501  503 -0.00000000000E+00 -0.00000000000E+00 -0.44664098284E+03  0.44664098284E+03  0.00000000000E+00 0.  1.
    9000007    1    1    2  501    0 -0.57423794077E+02  0.15982274569E+03 -0.18192459923E+03  0.47110228398E+03  0.40000000000E+03 0.  1.
   -9000007    1    1    2    0  502  0.57423794077E+02 -0.15982274569E+03  0.27287309841E+03  0.51312818087E+03  0.40000000000E+03 0.  1.
<mgrwt>
<rscale>  2 0.43455817E+03</rscale>
<asrwt>0</asrwt>
<pdfrwt beam="1">  1       21 0.82706074E-01 0.43455817E+03</pdfrwt>
<pdfrwt beam="2">  1       21 0.68713998E-01 0.43455817E+03</pdfrwt>
<totfact> 0.21406658E+03</totfact>
</mgrwt>
</event>
<event>
 4    1  0.4690138E-002  0.4498070E+03  0.7818608E-02  0.1027780E+00
         21   -1    0    0  503  502  0.00000000000E+00  0.00000000000E+00  0.13232356943E+03  0.13232356943E+03  0.00000000000E+00 0. -1.
         21   -1    0    0  501  503 -0.00000000000E+00 -0.00000000000E+00 -0.21529216534E+04  0.21529216534E+04  0.00000000000E+00 0.  1.
    9000007    1    1    2  501    0 -0.89315370305E+02 -0.18533517598E+03 -0.16253968725E+04  0.16864878760E+04  0.40000000000E+03 0.  1.
   -9000007    1    1    2    0  502  0.89315370305E+02  0.18533517598E+03 -0.39520121151E+03  0.59875734685E+03  0.40000000000E+03 0. -1.
<mgrwt>
<rscale>  2 0.44980703E+03</rscale>
<asrwt>0</asrwt>
<pdfrwt beam="1">  1       21 0.20357473E-01 0.44980703E+03</pdfrwt>
<pdfrwt beam="2">  1       21 0.33121871E+00 0.44980703E+03</pdfrwt>
<totfact> 0.39540423E+02</totfact>
</mgrwt>
</event>
<event>
 4    1  0.4690138E-002  0.4417079E+03  0.7818608E-02  0.1030224E+00
         21   -1    0    0  501  502  0.00000000000E+00  0.00000000000E+00  0.13153298812E+04  0.13153298812E+04  0.00000000000E+00 0. -1.
         21   -1    0    0  502  503 -0.00000000000E+00 -0.00000000000E+00 -0.17338614414E+03  0.17338614414E+03  0.00000000000E+00 0. -1.
    9000007    1    1    2  501    0 -0.17547346563E+03 -0.65688125574E+02  0.85392344612E+03  0.96140060267E+03  0.40000000000E+03 0. -1.
   -9000007    1    1    2    0  503  0.17547346563E+03  0.65688125574E+02  0.28802029093E+03  0.52731542266E+03  0.40000000000E+03 0. -1.
<mgrwt>
<rscale>  2 0.44170790E+03</rscale>
<asrwt>0</asrwt>
<pdfrwt beam="1">  1       21 0.20235844E+00 0.44170790E+03</pdfrwt>
<pdfrwt beam="2">  1       21 0.26674792E-01 0.44170790E+03</pdfrwt>
<totfact> 0.14625671E+03</totfact>
</mgrwt>
</event>
<event>
 4    1  0.4690138E-002  0.4330117E+03  0.7818608E-02  0.1032913E+00
         21   -1    0    0  503  502  0.00000000000E+00  0.00000000000E+00  0.72146578794E+03  0.72146578794E+03  0.00000000000E+00 0. -1.
         21   -1    0    0  501  503 -0.00000000000E+00 -0.00000000000E+00 -0.66556778436E+03  0.66556778436E+03  0.00000000000E+00 0. -1.
    9000007    1    1    2  501    0  0.15846337487E+03  0.48871960644E+02 -0.51349481446E+03  0.67169638542E+03  0.40000000000E+03 0. -1.
   -9000007    1    1    2    0  502 -0.15846337487E+03 -0.48871960644E+02  0.56939281804E+03  0.71533718689E+03  0.40000000000E+03 0. -1.
<mgrwt>
<rscale>  2 0.43301167E+03</rscale>
<asrwt>0</asrwt>
<pdfrwt beam="1">  1       21 0.11099474E+00 0.43301167E+03</pdfrwt>
<pdfrwt beam="2">  1       21 0.10239504E+00 0.43301167E+03</pdfrwt>
<totfact> 0.41628014E+02</totfact>
</mgrwt>
</event>
<event>
 4    1  0.4690138E-002  0.4069750E+03  0.7818608E-02  0.1041391E+00
         21   -1    0    0  503  502  0.00000000000E+00  0.00000000000E+00  0.42807585454E+03  0.42807585454E+03  0.00000000000E+00 0.  1.
         21   -1    0    0  501  503 -0.00000000000E+00 -0.00000000000E+00 -0.57111663820E+03  0.57111663820E+03  0.00000000000E+00 0.  1.
    9000007    1    1    2  501    0  0.26411358813E+02  0.70221511827E+02  0.21220908989E+03  0.45897855988E+03  0.40000000000E+03 0.  1.
   -9000007    1    1    2    0  502 -0.26411358813E+02 -0.70221511827E+02 -0.35524987355E+03  0.54021393286E+03  0.40000000000E+03 0.  1.
<mgrwt>
<rscale>  2 0.40697496E+03</rscale>
<asrwt>0</asrwt>
<pdfrwt beam="1">  1       21 0.65857824E-01 0.40697496E+03</pdfrwt>
<pdfrwt beam="2">  1       21 0.87864098E-01 0.40697496E+03</pdfrwt>
<totfact> 0.20656873E+03</totfact>
</mgrwt>
</event>
<event>
 4    1  0.4690138E-002  0.4561772E+03  0.7818608E-02  0.1025896E+00
         21   -1    0    0  503  502  0.00000000000E+00  0.00000000000E+00  0.82485600387E+03  0.82485600387E+03  0.00000000000E+00 0.  1.
         21   -1    0    0  501  503 -0.00000000000E+00 -0.00000000000E+00 -0.34186318364E+03  0.34186318364E+03  0.00000000000E+00 0.  1.
    9000007    1    1    2  501    0 -0.21924468456E+03 -0.54213248197E+01 -0.57120746419E+02  0.45973949378E+03  0.40000000000E+03 0.  1.
   -9000007    1    1    2    0  502  0.21924468456E+03  0.54213248197E+01  0.54011356665E+03  0.70697969373E+03  0.40000000000E+03 0.  1.
<mgrwt>
<rscale>  2 0.45617718E+03</rscale>
<asrwt>0</asrwt>
<pdfrwt beam="1">  1       21 0.12690092E+00 0.45617718E+03</pdfrwt>
<pdfrwt beam="2">  1       21 0.52594336E-01 0.45617718E+03</pdfrwt>
<totfact> 0.13395508E+03</totfact>
</mgrwt>
</event>
<event>
 4    1  0.4690138E-002  0.6178753E+03  0.7818608E-02  0.9868999E-01
         21   -1    0    0  501  502  0.00000000000E+00  0.00000000000E+00  0.88826040970E+03  0.88826040970E+03  0.00000000000E+00 0.  1.
         21   -1    0    0  502  503 -0.00000000000E+00 -0.00000000000E+00 -0.51418186656E+03  0.51418186656E+03  0.00000000000E+00 0.  1.
    9000007    1    1    2  501    0 -0.41771412324E+03 -0.21745065495E+03  0.47111496206E+03  0.77699368309E+03  0.40000000000E+03 0.  1.
   -9000007    1    1    2    0  503  0.41771412324E+03  0.21745065495E+03 -0.97036418922E+02  0.62544859316E+03  0.40000000000E+03 0.  1.
<mgrwt>
<rscale>  2 0.61787529E+03</rscale>
<asrwt>0</asrwt>
<pdfrwt beam="1">  1       21 0.13665545E+00 0.61787529E+03</pdfrwt>
<pdfrwt beam="2">  1       21 0.79104903E-01 0.61787529E+03</pdfrwt>
<totfact> 0.41898568E+02</totfact>
</mgrwt>
</event>
<event>
 4    1  0.4690138E-002  0.4235993E+03  0.7818608E-02  0.1035901E+00
         21   -1    0    0  501  502  0.00000000000E+00  0.00000000000E+00  0.15140829295E+04  0.15140829295E+04  0.00000000000E+00 0.  1.
         21   -1    0    0  502  503 -0.00000000000E+00 -0.00000000000E+00 -0.13211063171E+03  0.13211063171E+03  0.00000000000E+00 0.  1.
    9000007    1    1    2  501    0  0.86468082501E+02 -0.10936006229E+03  0.95506669672E+03  0.10447912460E+04  0.40000000000E+03 0.  1.
   -9000007    1    1    2    0  503 -0.86468082501E+02  0.10936006229E+03  0.42690560105E+03  0.60140231520E+03  0.40000000000E+03 0.  1.
<mgrwt>
<rscale>  2 0.42359928E+03</rscale>
<asrwt>0</asrwt>
<pdfrwt beam="1">  1       21 0.23293582E+00 0.42359928E+03</pdfrwt>
<pdfrwt beam="2">  1       21 0.20324714E-01 0.42359928E+03</pdfrwt>
<totfact> 0.15865662E+03</totfact>
</mgrwt>
</event>
<event>
 4    1  0.4690138E-002  0.6772501E+03  0.7818608E-02  0.9756948E-01
         21   -1    0    0  501  502  0.00000000000E+00  0.00000000000E+00  0.69181245794E+03  0.69181245794E+03  0.00000000000E+00 0.  1.
         21   -1    0    0  502  503 -0.00000000000E+00 -0.00000000000E+00 -0.86462025938E+03  0.86462025938E+03  0.00000000000E+00 0. -1.
    9000007    1    1    2  501    0 -0.14145472490E+03  0.52788090693E+03  0.28939968071E+03  0.73649159282E+03  0.40000000000E+03 0.  1.
   -9000007    1    1    2    0  503  0.14145472490E+03 -0.52788090693E+03 -0.46220748215E+03  0.81994112450E+03  0.40000000000E+03 0. -1.
<mgrwt>
<rscale>  2 0.67725009E+03</rscale>
<asrwt>0</asrwt>
<pdfrwt beam="1">  1       21 0.10643269E+00 0.67725009E+03</pdfrwt>
<pdfrwt beam="2">  1       21 0.13301850E+00 0.67725009E+03</pdfrwt>
<totfact> 0.21628843E+02</totfact>
</mgrwt>
</event>
<event>
 4    1  0.4690138E-002  0.4197538E+03  0.7818608E-02  0.1037146E+00
         21   -1    0    0  503  502  0.00000000000E+00  0.00000000000E+00  0.22561715461E+04  0.22561715461E+04  0.00000000000E+00 0.  1.
         21   -1    0    0  501  503 -0.00000000000E+00 -0.00000000000E+00 -0.80738209688E+02  0.80738209688E+02  0.00000000000E+00 0.  1.
    9000007    1    1    2  501    0 -0.12723982652E+03 -0.18222010858E+01  0.87625755453E+03  0.97160722298E+03  0.40000000000E+03 0.  1.
   -9000007    1    1    2    0  502  0.12723982652E+03  0.18222010858E+01  0.12991757819E+04  0.13653025328E+04  0.40000000000E+03 0.  1.
<mgrwt>
<rscale>  2 0.41975385E+03</rscale>
<asrwt>0</asrwt>
<pdfrwt beam="1">  1       21 0.34710327E+00 0.41975385E+03</pdfrwt>
<pdfrwt beam="2">  1       21 0.12421265E-01 0.41975385E+03</pdfrwt>
<totfact> 0.80950511E+02</totfact>
</mgrwt>
</event>
<event>
 4    1  0.4690138E-002  0.4399284E+03  0.7818608E-02  0.1030769E+00
         21   -1    0    0  501  502  0.00000000000E+00  0.00000000000E+00  0.93666000758E+03  0.93666000758E+03  0.00000000000E+00 0.  1.
         21   -1    0    0  502  503 -0.00000000000E+00 -0.00000000000E+00 -0.22759847614E+03  0.22759847614E+03  0.00000000000E+00 0. -1.
    9000007    1    1    2  501    0 -0.11367367272E+03 -0.14358032385E+03  0.53124597803E+03  0.68975307353E+03  0.40000000000E+03 0.  1.
   -9000007    1    1    2    0  503  0.11367367272E+03  0.14358032385E+03  0.17781555341E+03  0.47450541019E+03  0.40000000000E+03 0. -1.
<mgrwt>
<rscale>  2 0.43992842E+03</rscale>
<asrwt>0</asrwt>
<pdfrwt beam="1">  1       21 0.14410154E+00 0.43992842E+03</pdfrwt>
<pdfrwt beam="2">  1       21 0.35015151E-01 0.43992842E+03</pdfrwt>
<totfact> 0.22513507E+03</totfact>
</mgrwt>
</event>
<event>
 4    1  0.4690138E-002  0.4837962E+03  0.7818608E-02  0.1018097E+00
         21   -1    0    0  501  502  0.00000000000E+00  0.00000000000E+00  0.37563306356E+03  0.37563306356E+03  0.00000000000E+00 0. -1.
         21   -1    0    0  502  503 -0.00000000000E+00 -0.00000000000E+00 -0.62663297737E+03  0.62663297737E+03  0.00000000000E+00 0. -1.
    9000007    1    1    2  501    0  0.84596749576E+02 -0.25865448244E+03 -0.87896841055E+02  0.49171598102E+03  0.40000000000E+03 0. -1.
   -9000007    1    1    2    0  503 -0.84596749576E+02  0.25865448244E+03 -0.16310307275E+03  0.51055005991E+03  0.40000000000E+03 0. -1.
<mgrwt>
<rscale>  2 0.48379619E+03</rscale>
<asrwt>0</asrwt>
<pdfrwt beam="1">  1       21 0.57789702E-01 0.48379619E+03</pdfrwt>
<pdfrwt beam="2">  1       21 0.96405074E-01 0.48379619E+03</pdfrwt>
<totfact> 0.21455167E+03</totfact>
</mgrwt>
</event>
<event>
 4    1  0.4690138E-002  0.5119084E+03  0.7818608E-02  0.1010717E+00
         21   -1    0    0  503  502  0.00000000000E+00  0.00000000000E+00  0.19065797198E+03  0.19065797198E+03  0.00000000000E+00 0.  1.
         21   -1    0    0  501  503 -0.00000000000E+00 -0.00000000000E+00 -0.13782539048E+04  0.13782539048E+04  0.00000000000E+00 0. -1.
    9000007    1    1    2  501    0 -0.31385192710E+03 -0.59558537344E+02 -0.63499807701E+03  0.81564257449E+03  0.40000000000E+03 0.  1.
   -9000007    1    1    2    0  502  0.31385192710E+03  0.59558537344E+02 -0.55259785578E+03  0.75326930226E+03  0.40000000000E+03 0. -1.
<mgrwt>
<rscale>  2 0.51190844E+03</rscale>
<asrwt>0</asrwt>
<pdfrwt beam="1">  1       21 0.29331996E-01 0.51190844E+03</pdfrwt>
<pdfrwt beam="2">  1       21 0.21203906E+00 0.51190844E+03</pdfrwt>
<totfact> 0.10162756E+03</totfact>
</mgrwt>
</event>
<event>
 4    1  0.4690138E-002  0.1169338E+04  0.7818608E-02  0.9140126E-01
         21   -1    0    0  503  502  0.00000000000E+00  0.00000000000E+00  0.25017688172E+04  0.25017688172E+04  0.00000000000E+00 0. -1.
         21   -1    0    0  501  503 -0.00000000000E+00 -0.00000000000E+00 -0.67382981165E+03  0.67382981165E+03  0.00000000000E+00 0.  1.
    9000007    1    1    2  501    0 -0.62905292190E+03 -0.90091321992E+03  0.22389953460E+03  0.11905810388E+04  0.40000000000E+03 0.  1.
   -9000007    1    1    2    0  502  0.62905292190E+03  0.90091321992E+03  0.16040394709E+04  0.19850175900E+04  0.40000000000E+03 0. -1.
<mgrwt>
<rscale>  2 0.11693384E+04</rscale>
<asrwt>0</asrwt>
<pdfrwt beam="1">  1       21 0.38488751E+00 0.11693384E+04</pdfrwt>
<pdfrwt beam="2">  1       21 0.10366613E+00 0.11693384E+04</pdfrwt>
<totfact> 0.41164576E+00</totfact>
</mgrwt>
</event>
<event>
 4    1  0.4690138E-002  0.7147605E+03  0.7818608E-02  0.9692318E-01
         21   -1    0    0  501  502  0.00000000000E+00  0.00000000000E+00  0.13668764137E+04  0.13668764137E+04  0.00000000000E+00 0. -1.
         21   -1    0    0  502  503 -0.00000000000E+00 -0.00000000000E+00 -0.52553571631E+03  0.52553571631E+03  0.00000000000E+00 0.  1.
    9000007    1    1    2  501    0  0.49360964174E+03 -0.32746305644E+03 -0.87825026330E+02  0.72013593648E+03  0.40000000000E+03 0. -1.
   -9000007    1    1    2    0  503 -0.49360964174E+03  0.32746305644E+03  0.92916572368E+03  0.11722761935E+04  0.40000000000E+03 0.  1.
<mgrwt>
<rscale>  2 0.71476047E+03</rscale>
<asrwt>0</asrwt>
<pdfrwt beam="1">  1       21 0.21028868E+00 0.71476047E+03</pdfrwt>
<pdfrwt beam="2">  1       21 0.80851649E-01 0.71476047E+03</pdfrwt>
<totfact> 0.11020250E+02</totfact>
</mgrwt>
</event>
<event>
 4    1  0.4690138E-002  0.5046871E+03  0.7818608E-02  0.1012563E+00
         21   -1    0    0  503  502  0.00000000000E+00  0.00000000000E+00  0.43643827231E+03  0.43643827231E+03  0.00000000000E+00 0.  1.
         21   -1    0    0  501  503 -0.00000000000E+00 -0.00000000000E+00 -0.98687601547E+03  0.98687601547E+03  0.00000000000E+00 0.  1.
    9000007    1    1    2  501    0 -0.11545656527E+03  0.28526985097E+03 -0.73014000261E+03  0.88758860388E+03  0.40000000000E+03 0.  1.
   -9000007    1    1    2    0  502  0.11545656527E+03 -0.28526985097E+03  0.17970225944E+03  0.53572568390E+03  0.40000000000E+03 0.  1.
<mgrwt>
<rscale>  2 0.50468714E+03</rscale>
<asrwt>0</asrwt>
<pdfrwt beam="1">  1       21 0.67144350E-01 0.50468714E+03</pdfrwt>
<pdfrwt beam="2">  1       21 0.15182708E+00 0.50468714E+03</pdfrwt>
<totfact> 0.47761007E+02</totfact>
</mgrwt>
</event>
<event>
 4    1  0.4690138E-002  0.4836083E+03  0.7818608E-02  0.1018148E+00
         21   -1    0    0  501  502  0.00000000000E+00  0.00000000000E+00  0.82655255643E+03  0.82655255643E+03  0.00000000000E+00 0. -1.
         21   -1    0    0  502  503 -0.00000000000E+00 -0.00000000000E+00 -0.48416522705E+03  0.48416522705E+03  0.00000000000E+00 0.  1.
    9000007    1    1    2  501    0 -0.27170784739E+03  0.72006489712E+01  0.59367512210E+03  0.76572002343E+03  0.40000000000E+03 0. -1.
   -9000007    1    1    2    0  503  0.27170784739E+03 -0.72006489712E+01 -0.25128779272E+03  0.54499776004E+03  0.40000000000E+03 0.  1.
<mgrwt>
<rscale>  2 0.48360832E+03</rscale>
<asrwt>0</asrwt>
<pdfrwt beam="1">  1       21 0.12716193E+00 0.48360832E+03</pdfrwt>
<pdfrwt beam="2">  1       21 0.74486958E-01 0.48360832E+03</pdfrwt>
<totfact> 0.61045238E+02</totfact>
</mgrwt>
</event>
<event>
 4    1  0.4690138E-002  0.4922602E+03  0.7818608E-02  0.1015819E+00
         21   -1    0    0  503  502  0.00000000000E+00  0.00000000000E+00  0.18360122243E+04  0.18360122243E+04  0.00000000000E+00 0.  1.
         21   -1    0    0  501  503 -0.00000000000E+00 -0.00000000000E+00 -0.24484427497E+03  0.24484427497E+03  0.00000000000E+00 0. -1.
    9000007    1    1    2  501    0 -0.35836876333E+02 -0.28466796569E+03  0.89198089655E+02  0.50027635522E+03  0.40000000000E+03 0. -1.
   -9000007    1    1    2    0  502  0.35836876333E+02  0.28466796569E+03  0.15019698596E+04  0.15805801440E+04  0.40000000000E+03 0.  1.
<mgrwt>
<rscale>  2 0.49226023E+03</rscale>
<asrwt>0</asrwt>
<pdfrwt beam="1">  1       21 0.28246341E+00 0.49226023E+03</pdfrwt>
<pdfrwt beam="2">  1       21 0.37668351E-01 0.49226023E+03</pdfrwt>
<totfact> 0.22579559E+02</totfact>
</mgrwt>
</event>
<event>
 4    1  0.4690138E-002  0.4986205E+03  0.7818608E-02  0.1014140E+00
         21   -1    0    0  503  502  0.00000000000E+00  0.00000000000E+00  0.49159060924E+03  0.49159060924E+03  0.00000000000E+00 0.  1.
         21   -1    0    0  501  503 -0.00000000000E+00 -0.00000000000E+00 -0.52628500739E+03  0.52628500739E+03  0.00000000000E+00 0.  1.
    9000007    1    1    2  501    0  0.22975401674E+03  0.18930268370E+03 -0.11787627129E+03  0.51236435239E+03  0.40000000000E+03 0.  1.
   -9000007    1    1    2    0  502 -0.22975401674E+03 -0.18930268370E+03  0.83181873131E+02  0.50551126425E+03  0.40000000000E+03 0.  1.
<mgrwt>
<rscale>  2 0.49862051E+03</rscale>
<asrwt>0</asrwt>
<pdfrwt beam="1">  1       21 0.75629325E-01 0.49862051E+03</pdfrwt>
<pdfrwt beam="2">  1       21 0.80966924E-01 0.49862051E+03</pdfrwt>
<totfact> 0.17680447E+03</totfact>
</mgrwt>
</event>
<event>
 4    1  0.4690138E-002  0.4216235E+03  0.7818608E-02  0.1036539E+00
         21   -1    0    0  503  502  0.00000000000E+00  0.00000000000E+00  0.10289676469E+04  0.10289676469E+04  0.00000000000E+00 0.  1.
         21   -1    0    0  501  503 -0.00000000000E+00 -0.00000000000E+00 -0.24788797977E+03  0.24788797977E+03  0.00000000000E+00 0. -1.
    9000007    1    1    2  501    0 -0.70444227988E+02 -0.11315460019E+03  0.39076861605E+02  0.42343045936E+03  0.40000000000E+03 0. -1.
   -9000007    1    1    2    0  502  0.70444227988E+02  0.11315460019E+03  0.74200280551E+03  0.85342516731E+03  0.40000000000E+03 0.  1.
<mgrwt>
<rscale>  2 0.42162347E+03</rscale>
<asrwt>0</asrwt>
<pdfrwt beam="1">  1       21 0.15830271E+00 0.42162347E+03</pdfrwt>
<pdfrwt beam="2">  1       21 0.38136613E-01 0.42162347E+03</pdfrwt>
<totfact> 0.14768312E+03</totfact>
</mgrwt>
</event>
<event>
 4    1  0.4690138E-002  0.4628464E+03  0.7818608E-02  0.1023959E+00
         21   -1    0    0  503  502  0.00000000000E+00  0.00000000000E+00  0.22830464539E+03  0.22830464539E+03  0.00000000000E+00 0.  1.
         21   -1    0    0  501  503 -0.00000000000E+00 -0.00000000000E+00 -0.94030777668E+03  0.94030777668E+03  0.00000000000E+00 0.  1.
    9000007    1    1    2  501    0  0.13929395471E+03 -0.18661188179E+03 -0.32925463818E+03  0.56801005009E+03  0.40000000000E+03 0.  1.
   -9000007    1    1    2    0  502 -0.13929395471E+03  0.18661188179E+03 -0.38274849311E+03  0.60060237197E+03  0.40000000000E+03 0.  1.
<mgrwt>
<rscale>  2 0.46284641E+03</rscale>
<asrwt>0</asrwt>
<pdfrwt beam="1">  1       21 0.35123792E-01 0.46284641E+03</pdfrwt>
<pdfrwt beam="2">  1       21 0.14466273E+00 0.46284641E+03</pdfrwt>
<totfact> 0.21944511E+03</totfact>
</mgrwt>
</event>
<event>
 4    1  0.4690138E-002  0.4099593E+03  0.7818608E-02  0.1040385E+00
         21   -1    0    0  503  502  0.00000000000E+00  0.00000000000E+00  0.11673330260E+04  0.11673330260E+04  0.00000000000E+00 0.  1.
         21   -1    0    0  501  503 -0.00000000000E+00 -0.00000000000E+00 -0.24413410301E+03  0.24413410301E+03  0.00000000000E+00 0.  1.
    9000007    1    1    2  501    0  0.80892966990E+02 -0.39024871336E+02  0.95644665002E+01  0.41007083743E+03  0.40000000000E+03 0.  1.
   -9000007    1    1    2    0  502 -0.80892966990E+02  0.39024871336E+02  0.91363445653E+03  0.10013962916E+04  0.40000000000E+03 0.  1.
<mgrwt>
<rscale>  2 0.40995928E+03</rscale>
<asrwt>0</asrwt>
<pdfrwt beam="1">  1       21 0.17958969E+00 0.40995928E+03</pdfrwt>
<pdfrwt beam="2">  1       21 0.37559094E-01 0.40995928E+03</pdfrwt>
<totfact> 0.10712122E+03</totfact>
</mgrwt>
</event>
<event>
 4    1  0.4690138E-002  0.4494467E+03  0.7818608E-02  0.1027887E+00
         21   -1    0    0  503  502  0.00000000000E+00  0.00000000000E+00  0.42008465593E+03  0.42008465593E+03  0.00000000000E+00 0.  1.
         21   -1    0    0  501  503 -0.00000000000E+00 -0.00000000000E+00 -0.48508700278E+03  0.48508700278E+03  0.00000000000E+00 0.  1.
    9000007    1    1    2  501    0 -0.81773254765E+02  0.18792406007E+03 -0.74744418076E+02  0.45561940870E+03  0.40000000000E+03 0.  1.
   -9000007    1    1    2    0  502  0.81773254765E+02 -0.18792406007E+03  0.97420712234E+01  0.44955225002E+03  0.40000000000E+03 0.  1.
<mgrwt>
<rscale>  2 0.44944668E+03</rscale>
<asrwt>0</asrwt>
<pdfrwt beam="1">  1       21 0.64628408E-01 0.44944668E+03</pdfrwt>
<pdfrwt beam="2">  1       21 0.74628770E-01 0.44944668E+03</pdfrwt>
<totfact> 0.30921735E+03</totfact>
</mgrwt>
</event>
<event>
 4    1  0.4690138E-002  0.5463858E+03  0.7818608E-02  0.1002334E+00
         21   -1    0    0  501  502  0.00000000000E+00  0.00000000000E+00  0.71483558175E+03  0.71483558175E+03  0.00000000000E+00 0.  1.
         21   -1    0    0  502  503 -0.00000000000E+00 -0.00000000000E+00 -0.46829137071E+03  0.46829137071E+03  0.00000000000E+00 0.  1.
    9000007    1    1    2  501    0  0.35775593721E+03  0.10270411208E+03 -0.71298745258E+02  0.55101810889E+03  0.40000000000E+03 0.  1.
   -9000007    1    1    2    0  503 -0.35775593721E+03 -0.10270411208E+03  0.31784295630E+03  0.63210884357E+03  0.40000000000E+03 0.  1.
<mgrwt>
<rscale>  2 0.54638580E+03</rscale>
<asrwt>0</asrwt>
<pdfrwt beam="1">  1       21 0.10997471E+00 0.54638580E+03</pdfrwt>
<pdfrwt beam="2">  1       21 0.72044826E-01 0.54638580E+03</pdfrwt>
<totfact> 0.93018612E+02</totfact>
</mgrwt>
</event>
<event>
 4    1  0.4690138E-002  0.4787429E+03  0.7818608E-02  0.1019481E+00
         21   -1    0    0  503  502  0.00000000000E+00  0.00000000000E+00  0.74923392343E+03  0.74923392343E+03  0.00000000000E+00 0. -1.
         21   -1    0    0  501  503 -0.00000000000E+00 -0.00000000000E+00 -0.34792423912E+03  0.34792423912E+03  0.00000000000E+00 0. -1.
    9000007    1    1    2  501    0  0.19344434841E+03 -0.17825287342E+03  0.10012995376E+02  0.47884764058E+03  0.40000000000E+03 0. -1.
   -9000007    1    1    2    0  502 -0.19344434841E+03  0.17825287342E+03  0.39129668893E+03  0.61831052197E+03  0.40000000000E+03 0. -1.
<mgrwt>
<rscale>  2 0.47874294E+03</rscale>
<asrwt>0</asrwt>
<pdfrwt beam="1">  1       21 0.11526676E+00 0.47874294E+03</pdfrwt>
<pdfrwt beam="2">  1       21 0.53526806E-01 0.47874294E+03</pdfrwt>
<totfact> 0.16338868E+03</totfact>
</mgrwt>
</event>
<event>
 4    1  0.4690138E-002  0.4512393E+03  0.7818608E-02  0.1027353E+00
         21   -1    0    0  501  502  0.00000000000E+00  0.00000000000E+00  0.30831710822E+03  0.30831710822E+03  0.00000000000E+00 0. -1.
         21   -1    0    0  502  503 -0.00000000000E+00 -0.00000000000E+00 -0.71953335608E+03  0.71953335608E+03  0.00000000000E+00 0. -1.
    9000007    1    1    2  501    0 -0.13323557227E+03  0.16082647103E+03 -0.58295462620E+02  0.45498926632E+03  0.40000000000E+03 0. -1.
   -9000007    1    1    2    0  503  0.13323557227E+03 -0.16082647103E+03 -0.35292078524E+03  0.57286119799E+03  0.40000000000E+03 0. -1.
<mgrwt>
<rscale>  2 0.45123926E+03</rscale>
<asrwt>0</asrwt>
<pdfrwt beam="1">  1       21 0.47433402E-01 0.45123926E+03</pdfrwt>
<pdfrwt beam="2">  1       21 0.11069744E+00 0.45123926E+03</pdfrwt>
<totfact> 0.23623888E+03</totfact>
</mgrwt>
</event>
<event>
 4    1  0.4690138E-002  0.4024222E+03  0.7818608E-02  0.1042944E+00
         21   -1    0    0  501  502  0.00000000000E+00  0.00000000000E+00  0.47914850670E+03  0.47914850670E+03  0.00000000000E+00 0.  1.
         21   -1    0    0  502  503 -0.00000000000E+00 -0.00000000000E+00 -0.35432533723E+03  0.35432533723E+03  0.00000000000E+00 0.  1.
    9000007    1    1    2  501    0 -0.33474994359E+00 -0.44085430109E+02  0.15191289617E+03  0.43014086673E+03  0.40000000000E+03 0.  1.
   -9000007    1    1    2    0  503  0.33474994359E+00  0.44085430109E+02 -0.27089726703E+02  0.40333297720E+03  0.40000000000E+03 0.  1.
<mgrwt>
<rscale>  2 0.40242221E+03</rscale>
<asrwt>0</asrwt>
<pdfrwt beam="1">  1       21 0.73715155E-01 0.40242221E+03</pdfrwt>
<pdfrwt beam="2">  1       21 0.54511591E-01 0.40242221E+03</pdfrwt>
<totfact> 0.46918907E+03</totfact>
</mgrwt>
</event>
<event>
 4    1  0.4690138E-002  0.4103700E+03  0.7818608E-02  0.1040247E+00
         21   -1    0    0  503  502  0.00000000000E+00  0.00000000000E+00  0.13480892234E+03  0.13480892234E+03  0.00000000000E+00 0. -1.
         21   -1    0    0  501  503 -0.00000000000E+00 -0.00000000000E+00 -0.16857325598E+04  0.16857325598E+04  0.00000000000E+00 0. -1.
    9000007    1    1    2  501    0 -0.14795711552E+02  0.90468786791E+02 -0.12386780799E+04  0.13048857805E+04  0.40000000000E+03 0. -1.
   -9000007    1    1    2    0  502  0.14795711552E+02 -0.90468786791E+02 -0.31224555762E+03  0.51565570172E+03  0.40000000000E+03 0. -1.
<mgrwt>
<rscale>  2 0.41036997E+03</rscale>
<asrwt>0</asrwt>
<pdfrwt beam="1">  1       21 0.20739833E-01 0.41036997E+03</pdfrwt>
<pdfrwt beam="2">  1       21 0.25934348E+00 0.41036997E+03</pdfrwt>
<totfact> 0.10575717E+03</totfact>
</mgrwt>
</event>
<event>
 4    1  0.4690138E-002  0.4916446E+03  0.7818608E-02  0.1015983E+00
         21   -1    0    0  503  502  0.00000000000E+00  0.00000000000E+00  0.49146581194E+03  0.49146581194E+03  0.00000000000E+00 0. -1.
         21   -1    0    0  501  503 -0.00000000000E+00 -0.00000000000E+00 -0.69229611674E+03  0.69229611674E+03  0.00000000000E+00 0. -1.
    9000007    1    1    2  501    0 -0.76611246838E+01 -0.28575472650E+03 -0.41891989886E+03  0.64591666507E+03  0.40000000000E+03 0. -1.
   -9000007    1    1    2    0  502  0.76611246838E+01  0.28575472650E+03  0.21808959406E+03  0.53784526361E+03  0.40000000000E+03 0. -1.
<mgrwt>
<rscale>  2 0.49164464E+03</rscale>
<asrwt>0</asrwt>
<pdfrwt beam="1">  1       21 0.75610125E-01 0.49164464E+03</pdfrwt>
<pdfrwt beam="2">  1       21 0.10650709E+00 0.49164464E+03</pdfrwt>
<totfact> 0.91991182E+02</totfact>
</mgrwt>
</event>
<event>
 4    1  0.4690138E-002  0.4612276E+03  0.7818608E-02  0.1024426E+00
         21   -1    0    0  501  502  0.00000000000E+00  0.00000000000E+00  0.14469712924E+03  0.14469712924E+03  0.00000000000E+00 0.  1.
         21   -1    0    0  502  503 -0.00000000000E+00 -0.00000000000E+00 -0.16946223923E+04  0.16946223923E+04  0.00000000000E+00 0. -1.
    9000007    1    1    2  501    0  0.16729875145E+03 -0.15729598296E+03 -0.44027268244E+03  0.63762915037E+03  0.40000000000E+03 0.  1.
   -9000007    1    1    2    0  503 -0.16729875145E+03  0.15729598296E+03 -0.11096525807E+04  0.12016903712E+04  0.40000000000E+03 0. -1.
<mgrwt>
<rscale>  2 0.46122760E+03</rscale>
<asrwt>0</asrwt>
<pdfrwt beam="1">  1       21 0.22261096E-01 0.46122760E+03</pdfrwt>
<pdfrwt beam="2">  1       21 0.26071115E+00 0.46122760E+03</pdfrwt>
<totfact> 0.88222955E+02</totfact>
</mgrwt>
</event>
<event>
 4    1  0.4690138E-002  0.5682641E+03  0.7818608E-02  0.9973527E-01
         21   -1    0    0  501  502  0.00000000000E+00  0.00000000000E+00  0.77798761493E+03  0.77798761493E+03  0.00000000000E+00 0. -1.
         21   -1    0    0  502  503 -0.00000000000E+00 -0.00000000000E+00 -0.41587252243E+03  0.41587252243E+03  0.00000000000E+00 0.  1.
    9000007    1    1    2  501    0  0.15203392572E+03 -0.37391141111E+03  0.20718021720E+03  0.60485345360E+03  0.40000000000E+03 0.  1.
   -9000007    1    1    2    0  503 -0.15203392572E+03  0.37391141111E+03  0.15493487530E+03  0.58900668376E+03  0.40000000000E+03 0. -1.
<mgrwt>
<rscale>  2 0.56826407E+03</rscale>
<asrwt>0</asrwt>
<pdfrwt beam="1">  1       21 0.11969040E+00 0.56826407E+03</pdfrwt>
<pdfrwt beam="2">  1       21 0.63980388E-01 0.56826407E+03</pdfrwt>
<totfact> 0.97464058E+02</totfact>
</mgrwt>
</event>
<event>
 4    1  0.4690138E-002  0.5662155E+03  0.7818608E-02  0.9978088E-01
         21   -1    0    0  501  502  0.00000000000E+00  0.00000000000E+00  0.73201065343E+03  0.73201065343E+03  0.00000000000E+00 0. -1.
         21   -1    0    0  502  503 -0.00000000000E+00 -0.00000000000E+00 -0.56163720080E+03  0.56163720080E+03  0.00000000000E+00 0. -1.
    9000007    1    1    2  501    0  0.37512768894E+03  0.14099360263E+03  0.38870326105E+03  0.68679706183E+03  0.40000000000E+03 0. -1.
   -9000007    1    1    2    0  503 -0.37512768894E+03 -0.14099360263E+03 -0.21832980843E+03  0.60685079240E+03  0.40000000000E+03 0. -1.
<mgrwt>
<rscale>  2 0.56621549E+03</rscale>
<asrwt>0</asrwt>
<pdfrwt beam="1">  1       21 0.11261702E+00 0.56621549E+03</pdfrwt>
<pdfrwt beam="2">  1       21 0.86405723E-01 0.56621549E+03</pdfrwt>
<totfact> 0.57145428E+02</totfact>
</mgrwt>
</event>
<event>
 4    1  0.4690138E-002  0.5989564E+03  0.7818608E-02  0.9907574E-01
         21   -1    0    0  503  502  0.00000000000E+00  0.00000000000E+00  0.10076021890E+04  0.10076021890E+04  0.00000000000E+00 0.  1.
         21   -1    0    0  501  503 -0.00000000000E+00 -0.00000000000E+00 -0.46391590486E+03  0.46391590486E+03  0.00000000000E+00 0.  1.
    9000007    1    1    2  501    0 -0.38866453712E+03 -0.21837720631E+03 -0.82949107118E+02  0.60467287108E+03  0.40000000000E+03 0.  1.
   -9000007    1    1    2    0  502  0.38866453712E+03  0.21837720631E+03  0.62663539121E+03  0.86684522273E+03  0.40000000000E+03 0.  1.
<mgrwt>
<rscale>  2 0.59895636E+03</rscale>
<asrwt>0</asrwt>
<pdfrwt beam="1">  1       21 0.15501572E+00 0.59895636E+03</pdfrwt>
<pdfrwt beam="2">  1       21 0.71371678E-01 0.59895636E+03</pdfrwt>
<totfact> 0.37913403E+02</totfact>
</mgrwt>
</event>
<event>
 4    1  0.4690138E-002  0.4533812E+03  0.7818608E-02  0.1026719E+00
         21   -1    0    0  503  502  0.00000000000E+00  0.00000000000E+00  0.27308063829E+03  0.27308063829E+03  0.00000000000E+00 0.  1.
         21   -1    0    0  501  503 -0.00000000000E+00 -0.00000000000E+00 -0.10675430067E+04  0.10675430067E+04  0.00000000000E+00 0. -1.
    9000007    1    1    2  501    0 -0.19623859404E+03 -0.83933968154E+02 -0.76124200309E+03  0.88602702220E+03  0.40000000000E+03 0. -1.
   -9000007    1    1    2    0  502  0.19623859404E+03  0.83933968154E+02 -0.33220365343E+02  0.45459662281E+03  0.40000000000E+03 0.  1.
<mgrwt>
<rscale>  2 0.45338118E+03</rscale>
<asrwt>0</asrwt>
<pdfrwt beam="1">  1       21 0.42012407E-01 0.45338118E+03</pdfrwt>
<pdfrwt beam="2">  1       21 0.16423738E+00 0.45338118E+03</pdfrwt>
<totfact> 0.10768369E+03</totfact>
</mgrwt>
</event>
<event>
 4    1  0.4690138E-002  0.4385729E+03  0.7818608E-02  0.1031186E+00
         21   -1    0    0  503  502  0.00000000000E+00  0.00000000000E+00  0.47367263123E+03  0.47367263123E+03  0.00000000000E+00 0. -1.
         21   -1    0    0  501  503 -0.00000000000E+00 -0.00000000000E+00 -0.47226057369E+03  0.47226057369E+03  0.00000000000E+00 0. -1.
    9000007    1    1    2  501    0  0.96642785900E+02 -0.15167836020E+03 -0.17635561420E+03  0.47270229075E+03  0.40000000000E+03 0. -1.
   -9000007    1    1    2    0  502 -0.96642785900E+02  0.15167836020E+03  0.17776767173E+03  0.47323091418E+03  0.40000000000E+03 0. -1.
<mgrwt>
<rscale>  2 0.43857286E+03</rscale>
<asrwt>0</asrwt>
<pdfrwt beam="1">  1       21 0.72872712E-01 0.43857286E+03</pdfrwt>
<pdfrwt beam="2">  1       21 0.72655473E-01 0.43857286E+03</pdfrwt>
<totfact> 0.25202954E+03</totfact>
</mgrwt>
</event>
<event>
 4    1  0.4690138E-002  0.4061670E+03  0.7818608E-02  0.1041665E+00
         21   -1    0    0  503  502  0.00000000000E+00  0.00000000000E+00  0.10334885921E+03  0.10334885921E+03  0.00000000000E+00 0. -1.
         21   -1    0    0  501  503 -0.00000000000E+00 -0.00000000000E+00 -0.22235286635E+04  0.22235286635E+04  0.00000000000E+00 0. -1.
    9000007    1    1    2  501    0  0.65815377644E+02  0.25297886715E+02 -0.16780336871E+04  0.17264902844E+04  0.40000000000E+03 0. -1.
   -9000007    1    1    2    0  502 -0.65815377644E+02 -0.25297886715E+02 -0.44214611716E+03  0.60038723831E+03  0.40000000000E+03 0. -1.
<mgrwt>
<rscale>  2 0.40616702E+03</rscale>
<asrwt>0</asrwt>
<pdfrwt beam="1">  1       21 0.15899823E-01 0.40616702E+03</pdfrwt>
<pdfrwt beam="2">  1       21 0.34208136E+00 0.40616702E+03</pdfrwt>
<totfact> 0.55598269E+02</totfact>
</mgrwt>
</event>
<event>
 4    1  0.4690138E-002  0.4329684E+03  0.7818608E-02  0.1032926E+00
         21   -1    0    0  501  502  0.00000000000E+00  0.00000000000E+00  0.11283487441E+04  0.11283487441E+04  0.00000000000E+00 0.  1.
         21   -1    0    0  502  503 -0.00000000000E+00 -0.00000000000E+00 -0.20541568565E+03  0.20541568565E+03  0.00000000000E+00 0.  1.
    9000007    1    1    2  501    0 -0.98308107699E+02 -0.13340604297E+03  0.75307828007E+03  0.86867056601E+03  0.40000000000E+03 0.  1.
   -9000007    1    1    2    0  503  0.98308107699E+02  0.13340604297E+03  0.16985477837E+03  0.46509386373E+03  0.40000000000E+03 0.  1.
<mgrwt>
<rscale>  2 0.43296842E+03</rscale>
<asrwt>0</asrwt>
<pdfrwt beam="1">  1       21 0.17359211E+00 0.43296842E+03</pdfrwt>
<pdfrwt beam="2">  1       21 0.31602414E-01 0.43296842E+03</pdfrwt>
<totfact> 0.16567505E+03</totfact>
</mgrwt>
</event>
<event>
 4    1  0.4690138E-002  0.4171315E+03  0.7818608E-02  0.1038004E+00
         21   -1    0    0  503  502  0.00000000000E+00  0.00000000000E+00  0.39815016569E+03  0.39815016569E+03  0.00000000000E+00 0. -1.
         21   -1    0    0  501  503 -0.00000000000E+00 -0.00000000000E+00 -0.45925432641E+03  0.45925432641E+03  0.00000000000E+00 0. -1.
    9000007    1    1    2  501    0 -0.11156343900E+03  0.39399499180E+02 -0.12488479018E+03  0.43542500190E+03  0.40000000000E+03 0. -1.
   -9000007    1    1    2    0  502  0.11156343900E+03 -0.39399499180E+02  0.63780629453E+02  0.42197949020E+03  0.40000000000E+03 0. -1.
<mgrwt>
<rscale>  2 0.41713154E+03</rscale>
<asrwt>0</asrwt>
<pdfrwt beam="1">  1       21 0.61253872E-01 0.41713154E+03</pdfrwt>
<pdfrwt beam="2">  1       21 0.70654512E-01 0.41713154E+03</pdfrwt>
<totfact> 0.39861338E+03</totfact>
</mgrwt>
</event>
<event>
 4    1  0.4690138E-002  0.4743116E+03  0.7818608E-02  0.1020710E+00
         21   -1    0    0  503  502  0.00000000000E+00  0.00000000000E+00  0.84700781422E+03  0.84700781422E+03  0.00000000000E+00 0.  1.
         21   -1    0    0  501  503 -0.00000000000E+00 -0.00000000000E+00 -0.28369891983E+03  0.28369891983E+03  0.00000000000E+00 0.  1.
    9000007    1    1    2  501    0  0.53870820272E+02  0.24913736542E+03  0.42442195999E+03  0.63647898021E+03  0.40000000000E+03 0.  1.
   -9000007    1    1    2    0  502 -0.53870820272E+02 -0.24913736542E+03  0.13888693440E+03  0.49422775384E+03  0.40000000000E+03 0.  1.
<mgrwt>
<rscale>  2 0.47431160E+03</rscale>
<asrwt>0</asrwt>
<pdfrwt beam="1">  1       21 0.13030889E+00 0.47431160E+03</pdfrwt>
<pdfrwt beam="2">  1       21 0.43645988E-01 0.47431160E+03</pdfrwt>
<totfact> 0.18426985E+03</totfact>
</mgrwt>
</event>
<event>
 4    1  0.4690138E-002  0.6887740E+03  0.7818608E-02  0.9736625E-01
         21   -1    0    0  503  502  0.00000000000E+00  0.00000000000E+00  0.24592880850E+03  0.24592880850E+03  0.00000000000E+00 0. -1.
         21   -1    0    0  501  503 -0.00000000000E+00 -0.00000000000E+00 -0.19902325988E+04  0.19902325988E+04  0.00000000000E+00 0.  1.
    9000007    1    1    2  501    0 -0.31381144475E+01 -0.56071368779E+03 -0.67612086946E+03  0.96516792194E+03  0.40000000000E+03 0. -1.
   -9000007    1    1    2    0  502  0.31381144475E+01  0.56071368779E+03 -0.10681829209E+04  0.12709934854E+04  0.40000000000E+03 0.  1.
<mgrwt>
<rscale>  2 0.68877405E+03</rscale>
<asrwt>0</asrwt>
<pdfrwt beam="1">  1       21 0.37835202E-01 0.68877405E+03</pdfrwt>
<pdfrwt beam="2">  1       21 0.30618963E+00 0.68877405E+03</pdfrwt>
<totfact> 0.14672788E+02</totfact>
</mgrwt>
</event>
<event>
 4    1  0.4690138E-002  0.4564843E+03  0.7818608E-02  0.1025806E+00
         21   -1    0    0  501  502  0.00000000000E+00  0.00000000000E+00  0.56299815961E+03  0.56299815961E+03  0.00000000000E+00 0.  1.
         21   -1    0    0  502  503 -0.00000000000E+00 -0.00000000000E+00 -0.37045610699E+03  0.37045610699E+03  0.00000000000E+00 0. -1.
    9000007    1    1    2  501    0 -0.19319472689E+03 -0.10513684025E+03  0.11028921441E+03  0.46961864155E+03  0.40000000000E+03 0.  1.
   -9000007    1    1    2    0  503  0.19319472689E+03  0.10513684025E+03  0.82252838211E+02  0.46383562506E+03  0.40000000000E+03 0.  1.
<mgrwt>
<rscale>  2 0.45648435E+03</rscale>
<asrwt>0</asrwt>
<pdfrwt beam="1">  1       21 0.86615101E-01 0.45648435E+03</pdfrwt>
<pdfrwt beam="2">  1       21 0.56993247E-01 0.45648435E+03</pdfrwt>
<totfact> 0.28804605E+03</totfact>
</mgrwt>
</event>
<event>
 4    1  0.4690138E-002  0.4948110E+03  0.7818608E-02  0.1015142E+00
         21   -1    0    0  503  502  0.00000000000E+00  0.00000000000E+00  0.43586760852E+03  0.43586760852E+03  0.00000000000E+00 0. -1.
         21   -1    0    0  501  503 -0.00000000000E+00 -0.00000000000E+00 -0.13843637940E+04  0.13843637940E+04  0.00000000000E+00 0.  1.
    9000007    1    1    2  501    0 -0.29002689366E+03  0.26876948355E+02 -0.11758260574E+04  0.12756978038E+04  0.40000000000E+03 0.  1.
   -9000007    1    1    2    0  502  0.29002689366E+03 -0.26876948355E+02  0.22732987195E+03  0.54453359867E+03  0.40000000000E+03 0. -1.
<mgrwt>
<rscale>  2 0.49481104E+03</rscale>
<asrwt>0</asrwt>
<pdfrwt beam="1">  1       21 0.67056556E-01 0.49481104E+03</pdfrwt>
<pdfrwt beam="2">  1       21 0.21297904E+00 0.49481104E+03</pdfrwt>
<totfact> 0.17771140E+02</totfact>
</mgrwt>
</event>
<event>
 4    1  0.4690138E-002  0.4317407E+03  0.7818608E-02  0.1033312E+00
         21   -1    0    0  503  502  0.00000000000E+00  0.00000000000E+00  0.38151774027E+03  0.38151774027E+03  0.00000000000E+00 0. -1.
         21   -1    0    0  501  503 -0.00000000000E+00 -0.00000000000E+00 -0.89866783521E+03  0.89866783521E+03  0.00000000000E+00 0. -1.
    9000007    1    1    2  501    0  0.33519270482E+02  0.15898569366E+03 -0.69097384547E+03  0.81476674417E+03  0.40000000000E+03 0. -1.
   -9000007    1    1    2    0  502 -0.33519270482E+02 -0.15898569366E+03  0.17382375053E+03  0.46541883130E+03  0.40000000000E+03 0. -1.
<mgrwt>
<rscale>  2 0.43174065E+03</rscale>
<asrwt>0</asrwt>
<pdfrwt beam="1">  1       21 0.58695038E-01 0.43174065E+03</pdfrwt>
<pdfrwt beam="2">  1       21 0.13825659E+00 0.43174065E+03</pdfrwt>
<totfact> 0.85380067E+02</totfact>
</mgrwt>
</event>
<event>
 4    1  0.4690138E-002  0.4542540E+03  0.7818608E-02  0.1026461E+00
         21   -1    0    0  503  502  0.00000000000E+00  0.00000000000E+00  0.25358934345E+03  0.25358934345E+03  0.00000000000E+00 0. -1.
         21   -1    0    0  501  503 -0.00000000000E+00 -0.00000000000E+00 -0.84521401108E+03  0.84521401108E+03  0.00000000000E+00 0. -1.
    9000007    1    1    2  501    0  0.11451846973E+03 -0.18229715061E+03 -0.40189124896E+03  0.60651735921E+03  0.40000000000E+03 0. -1.
   -9000007    1    1    2    0  502 -0.11451846973E+03  0.18229715061E+03 -0.18973341867E+03  0.49228599532E+03  0.40000000000E+03 0. -1.
<mgrwt>
<rscale>  2 0.45425404E+03</rscale>
<asrwt>0</asrwt>
<pdfrwt beam="1">  1       21 0.39013745E-01 0.45425404E+03</pdfrwt>
<pdfrwt beam="2">  1       21 0.13003292E+00 0.45425404E+03</pdfrwt>
<totfact> 0.23551353E+03</totfact>
</mgrwt>
</event>
<event>
 4    1  0.4690138E-002  0.4216966E+03  0.7818608E-02  0.1036516E+00
         21   -1    0    0  503  502  0.00000000000E+00  0.00000000000E+00  0.99889179719E+03  0.99889179719E+03  0.00000000000E+00 0.  1.
         21   -1    0    0  501  503 -0.00000000000E+00 -0.00000000000E+00 -0.24490168282E+03  0.24490168282E+03  0.00000000000E+00 0.  1.
    9000007    1    1    2  501    0 -0.49743538986E+02  0.12390966494E+03  0.52013480562E+02  0.42489225328E+03  0.40000000000E+03 0.  1.
   -9000007    1    1    2    0  502  0.49743538986E+02 -0.12390966494E+03  0.70197663380E+03  0.81890122673E+03  0.40000000000E+03 0.  1.
<mgrwt>
<rscale>  2 0.42169660E+03</rscale>
<asrwt>0</asrwt>
<pdfrwt beam="1">  1       21 0.15367566E+00 0.42169660E+03</pdfrwt>
<pdfrwt beam="2">  1       21 0.37677182E-01 0.42169660E+03</pdfrwt>
<totfact> 0.16425378E+03</totfact>
</mgrwt>
</event>
<event>
 4    1  0.4690138E-002  0.4101991E+03  0.7818608E-02  0.1040304E+00
         21   -1    0    0  503  502  0.00000000000E+00  0.00000000000E+00  0.33438686696E+03  0.33438686696E+03  0.00000000000E+00 0. -1.
         21   -1    0    0  501  503 -0.00000000000E+00 -0.00000000000E+00 -0.78366706568E+03  0.78366706568E+03  0.00000000000E+00 0. -1.
    9000007    1    1    2  501    0 -0.10851092352E+02  0.90252605840E+02 -0.55907249586E+03  0.69341570122E+03  0.40000000000E+03 0. -1.
   -9000007    1    1    2    0  502  0.10851092352E+02 -0.90252605840E+02  0.10979229715E+03  0.42463823141E+03  0.40000000000E+03 0. -1.
<mgrwt>
<rscale>  2 0.41019907E+03</rscale>
<asrwt>0</asrwt>
<pdfrwt beam="1">  1       21 0.51444134E-01 0.41019907E+03</pdfrwt>
<pdfrwt beam="2">  1       21 0.12056416E+00 0.41019907E+03</pdfrwt>
<totfact> 0.16322000E+03</totfact>
</mgrwt>
</event>
<event>
 4    1  0.4690138E-002  0.4010646E+03  0.7818608E-02  0.1043412E+00
         21   -1    0    0  503  502  0.00000000000E+00  0.00000000000E+00  0.70060477283E+03  0.70060477283E+03  0.00000000000E+00 0. -1.
         21   -1    0    0  501  503 -0.00000000000E+00 -0.00000000000E+00 -0.28751058878E+03  0.28751058878E+03  0.00000000000E+00 0. -1.
    9000007    1    1    2  501    0  0.16324277981E+02  0.24213582089E+02 -0.15202199881E+02  0.40135257130E+03  0.40000000000E+03 0. -1.
   -9000007    1    1    2    0  502 -0.16324277981E+02 -0.24213582089E+02  0.42829638393E+03  0.58676279031E+03  0.40000000000E+03 0. -1.
<mgrwt>
<rscale>  2 0.40106456E+03</rscale>
<asrwt>0</asrwt>
<pdfrwt beam="1">  1       21 0.10778535E+00 0.40106456E+03</pdfrwt>
<pdfrwt beam="2">  1       21 0.44232398E-01 0.40106456E+03</pdfrwt>
<totfact> 0.29792406E+03</totfact>
</mgrwt>
</event>
<event>
 4    1  0.4690138E-002  0.4614418E+03  0.7818608E-02  0.1024364E+00
         21   -1    0    0  501  502  0.00000000000E+00  0.00000000000E+00  0.27372742768E+03  0.27372742768E+03  0.00000000000E+00 0. -1.
         21   -1    0    0  502  503 -0.00000000000E+00 -0.00000000000E+00 -0.10756422924E+04  0.10756422924E+04  0.00000000000E+00 0.  1.
    9000007    1    1    2  501    0 -0.22670944753E+03 -0.39132580392E+02 -0.45982209605E+02  0.46372717847E+03  0.40000000000E+03 0. -1.
   -9000007    1    1    2    0  503  0.22670944753E+03  0.39132580392E+02 -0.75593265512E+03  0.88564254162E+03  0.40000000000E+03 0.  1.
<mgrwt>
<rscale>  2 0.46144180E+03</rscale>
<asrwt>0</asrwt>
<pdfrwt beam="1">  1       21 0.42111913E-01 0.46144180E+03</pdfrwt>
<pdfrwt beam="2">  1       21 0.16548343E+00 0.46144180E+03</pdfrwt>
<totfact> 0.10453700E+03</totfact>
</mgrwt>
</event>
<event>
 4    1  0.4690138E-002  0.6123226E+03  0.7818608E-02  0.9880165E-01
         21   -1    0    0  501  502  0.00000000000E+00  0.00000000000E+00  0.11578931677E+04  0.11578931677E+04  0.00000000000E+00 0. -1.
         21   -1    0    0  502  503 -0.00000000000E+00 -0.00000000000E+00 -0.62861278726E+03  0.62861278726E+03  0.00000000000E+00 0.  1.
    9000007    1    1    2  501    0 -0.18799348457E+03 -0.42378931298E+03  0.88664162014E+03  0.10775306467E+04  0.40000000000E+03 0. -1.
   -9000007    1    1    2    0  503  0.18799348457E+03  0.42378931298E+03 -0.35736123972E+03  0.70897530823E+03  0.40000000000E+03 0.  1.
<mgrwt>
<rscale>  2 0.61232257E+03</rscale>
<asrwt>0</asrwt>
<pdfrwt beam="1">  1       21 0.17813741E+00 0.61232257E+03</pdfrwt>
<pdfrwt beam="2">  1       21 0.96709660E-01 0.61232257E+03</pdfrwt>
<totfact> 0.12431059E+02</totfact>
</mgrwt>
</event>
<event>
 4    1  0.4690138E-002  0.4079870E+03  0.7818608E-02  0.1041049E+00
         21   -1    0    0  501  502  0.00000000000E+00  0.00000000000E+00  0.17477691039E+03  0.17477691039E+03  0.00000000000E+00 0.  1.
         21   -1    0    0  502  503 -0.00000000000E+00 -0.00000000000E+00 -0.97596009030E+03  0.97596009030E+03  0.00000000000E+00 0.  1.
    9000007    1    1    2  501    0 -0.51660578839E+02 -0.61518946261E+02 -0.31115064363E+03  0.51309659830E+03  0.40000000000E+03 0.  1.
   -9000007    1    1    2    0  503  0.51660578839E+02  0.61518946261E+02 -0.49003253628E+03  0.63764040240E+03  0.40000000000E+03 0.  1.
<mgrwt>
<rscale>  2 0.40798700E+03</rscale>
<asrwt>0</asrwt>
<pdfrwt beam="1">  1       21 0.26888757E-01 0.40798700E+03</pdfrwt>
<pdfrwt beam="2">  1       21 0.15014770E+00 0.40798700E+03</pdfrwt>
<totfact> 0.34524994E+03</totfact>
</mgrwt>
</event>
<event>
 4    1  0.4690138E-002  0.5339536E+03  0.7818608E-02  0.1005278E+00
         21   -1    0    0  501  502  0.00000000000E+00  0.00000000000E+00  0.92238447750E+03  0.92238447750E+03  0.00000000000E+00 0.  1.
         21   -1    0    0  502  503 -0.00000000000E+00 -0.00000000000E+00 -0.47361822984E+03  0.47361822984E+03  0.00000000000E+00 0.  1.
    9000007    1    1    2  501    0  0.28841962231E+03  0.20474521014E+03  0.63577218572E+03  0.83024860839E+03  0.40000000000E+03 0.  1.
   -9000007    1    1    2    0  503 -0.28841962231E+03 -0.20474521014E+03 -0.18700593805E+03  0.56575409895E+03  0.40000000000E+03 0.  1.
<mgrwt>
<rscale>  2 0.53395363E+03</rscale>
<asrwt>0</asrwt>
<pdfrwt beam="1">  1       21 0.14190530E+00 0.53395363E+03</pdfrwt>
<pdfrwt beam="2">  1       21 0.72864343E-01 0.53395363E+03</pdfrwt>
<totfact> 0.47143189E+02</totfact>
</mgrwt>
</event>
<event>
 4    1  0.4690138E-002  0.5702192E+03  0.7818608E-02  0.9969194E-01
         21   -1    0    0  503  502  0.00000000000E+00  0.00000000000E+00  0.61468893176E+03  0.61468893176E+03  0.00000000000E+00 0.  1.
         21   -1    0    0  501  503 -0.00000000000E+00 -0.00000000000E+00 -0.55319978627E+03  0.55319978627E+03  0.00000000000E+00 0.  1.
    9000007    1    1    2  501    0  0.16019562234E+03 -0.37347994939E+03 -0.91473600494E+02  0.57750959265E+03  0.40000000000E+03 0.  1.
   -9000007    1    1    2    0  502 -0.16019562234E+03  0.37347994939E+03  0.15296274599E+03  0.59037912537E+03  0.40000000000E+03 0.  1.
<mgrwt>
<rscale>  2 0.57021918E+03</rscale>
<asrwt>0</asrwt>
<pdfrwt beam="1">  1       21 0.94567528E-01 0.57021918E+03</pdfrwt>
<pdfrwt beam="2">  1       21 0.85107659E-01 0.57021918E+03</pdfrwt>
<totfact> 0.90932884E+02</totfact>
</mgrwt>
</event>
<event>
 4    1  0.4690138E-002  0.4129014E+03  0.7818608E-02  0.1039402E+00
         21   -1    0    0  501  502  0.00000000000E+00  0.00000000000E+00  0.92962516080E+03  0.92962516080E+03  0.00000000000E+00 0.  1.
         21   -1    0    0  502  503 -0.00000000000E+00 -0.00000000000E+00 -0.21549578623E+03  0.21549578623E+03  0.00000000000E+00 0.  1.
    9000007    1    1    2  501    0 -0.10071806023E+03  0.18532110849E+02  0.57805201558E+03  0.71037433759E+03  0.40000000000E+03 0.  1.
   -9000007    1    1    2    0  503  0.10071806023E+03 -0.18532110849E+02  0.13607735899E+03  0.43474660944E+03  0.40000000000E+03 0.  1.
<mgrwt>
<rscale>  2 0.41290140E+03</rscale>
<asrwt>0</asrwt>
<pdfrwt beam="1">  1       21 0.14301925E+00 0.41290140E+03</pdfrwt>
<pdfrwt beam="2">  1       21 0.33153199E-01 0.41290140E+03</pdfrwt>
<totfact> 0.25927509E+03</totfact>
</mgrwt>
</event>
<event>
 4    1  0.4690138E-002  0.4639870E+03  0.7818608E-02  0.1023631E+00
         21   -1    0    0  503  502  0.00000000000E+00  0.00000000000E+00  0.80995969026E+03  0.80995969026E+03  0.00000000000E+00 0.  1.
         21   -1    0    0  501  503 -0.00000000000E+00 -0.00000000000E+00 -0.26613457720E+03  0.26613457720E+03  0.00000000000E+00 0.  1.
    9000007    1    1    2  501    0  0.22082405573E+03  0.80750675499E+02  0.25271764458E+03  0.52834661262E+03  0.40000000000E+03 0.  1.
   -9000007    1    1    2    0  502 -0.22082405573E+03 -0.80750675499E+02  0.29110746848E+03  0.54774765484E+03  0.40000000000E+03 0.  1.
<mgrwt>
<rscale>  2 0.46398700E+03</rscale>
<asrwt>0</asrwt>
<pdfrwt beam="1">  1       21 0.12460918E+00 0.46398700E+03</pdfrwt>
<pdfrwt beam="2">  1       21 0.40943781E-01 0.46398700E+03</pdfrwt>
<totfact> 0.23715625E+03</totfact>
</mgrwt>
</event>
<event>
 4    1  0.4690138E-002  0.4132362E+03  0.7818608E-02  0.1039290E+00
         21   -1    0    0  503  502  0.00000000000E+00  0.00000000000E+00  0.15335770652E+04  0.15335770652E+04  0.00000000000E+00 0. -1.
         21   -1    0    0  501  503 -0.00000000000E+00 -0.00000000000E+00 -0.24005034636E+03  0.24005034636E+03  0.00000000000E+00 0.  1.
    9000007    1    1    2  501    0  0.53870057047E+02 -0.88668960156E+02 -0.25744452625E+01  0.41324423203E+03  0.40000000000E+03 0.  1.
   -9000007    1    1    2    0  502 -0.53870057047E+02  0.88668960156E+02  0.12961011641E+04  0.13603831796E+04  0.40000000000E+03 0. -1.
<mgrwt>
<rscale>  2 0.41323621E+03</rscale>
<asrwt>0</asrwt>
<pdfrwt beam="1">  1       21 0.23593493E+00 0.41323621E+03</pdfrwt>
<pdfrwt beam="2">  1       21 0.36930823E-01 0.41323621E+03</pdfrwt>
<totfact> 0.47258418E+02</totfact>
</mgrwt>
</event>
<event>
 4    1  0.4690138E-002  0.4242288E+03  0.7818608E-02  0.1035699E+00
         21   -1    0    0  503  502  0.00000000000E+00  0.00000000000E+00  0.65855979292E+03  0.65855979292E+03  0.00000000000E+00 0.  1.
         21   -1    0    0  501  503 -0.00000000000E+00 -0.00000000000E+00 -0.28331395232E+03  0.28331395232E+03  0.00000000000E+00 0.  1.
    9000007    1    1    2  501    0  0.13421043361E+03  0.44245620840E+02  0.98988781038E+02  0.43562471719E+03  0.40000000000E+03 0. -1.
   -9000007    1    1    2    0  502 -0.13421043361E+03 -0.44245620840E+02  0.27625705956E+03  0.50624902806E+03  0.40000000000E+03 0. -1.
<mgrwt>
<rscale>  2 0.42422885E+03</rscale>
<asrwt>0</asrwt>
<pdfrwt beam="1">  1       21 0.10131689E+00 0.42422885E+03</pdfrwt>
<pdfrwt beam="2">  1       21 0.43586762E-01 0.42422885E+03</pdfrwt>
<totfact> 0.35433977E+03</totfact>
</mgrwt>
</event>
<event>
 4    1  0.4690138E-002  0.4381767E+03  0.7818608E-02  0.1031308E+00
         21   -1    0    0  503  502  0.00000000000E+00  0.00000000000E+00  0.63680695429E+03  0.63680695429E+03  0.00000000000E+00 0. -1.
         21   -1    0    0  501  503 -0.00000000000E+00 -0.00000000000E+00 -0.31217461355E+03  0.31217461355E+03  0.00000000000E+00 0. -1.
    9000007    1    1    2  501    0 -0.14700434136E+03 -0.10192414221E+03  0.74584415631E+02  0.44447906835E+03  0.40000000000E+03 0. -1.
   -9000007    1    1    2    0  502  0.14700434136E+03  0.10192414221E+03  0.25004792511E+03  0.50450249949E+03  0.40000000000E+03 0. -1.
<mgrwt>
<rscale>  2 0.43817668E+03</rscale>
<asrwt>0</asrwt>
<pdfrwt beam="1">  1       21 0.97970300E-01 0.43817668E+03</pdfrwt>
<pdfrwt beam="2">  1       21 0.48026864E-01 0.43817668E+03</pdfrwt>
<totfact> 0.31202049E+03</totfact>
</mgrwt>
</event>
<event>
 4    1  0.4690138E-002  0.4841758E+03  0.7818608E-02  0.1017994E+00
         21   -1    0    0  503  502  0.00000000000E+00  0.00000000000E+00  0.14573925054E+03  0.14573925054E+03  0.00000000000E+00 0.  1.
         21   -1    0    0  501  503 -0.00000000000E+00 -0.00000000000E+00 -0.17101071796E+04  0.17101071796E+04  0.00000000000E+00 0. -1.
    9000007    1    1    2  501    0 -0.17903889758E+03 -0.20584281984E+03 -0.10083331243E+04  0.11185534779E+04  0.40000000000E+03 0. -1.
   -9000007    1    1    2    0  502  0.17903889758E+03  0.20584281984E+03 -0.55603480473E+03  0.73729295222E+03  0.40000000000E+03 0.  1.
<mgrwt>
<rscale>  2 0.48417579E+03</rscale>
<asrwt>0</asrwt>
<pdfrwt beam="1">  1       21 0.22421425E-01 0.48417579E+03</pdfrwt>
<pdfrwt beam="2">  1       21 0.26309339E+00 0.48417579E+03</pdfrwt>
<totfact> 0.83202763E+02</totfact>
</mgrwt>
</event>
<event>
 4    1  0.4690138E-002  0.5203039E+03  0.7818608E-02  0.1008611E+00
         21   -1    0    0  503  502  0.00000000000E+00  0.00000000000E+00  0.12448606011E+04  0.12448606011E+04  0.00000000000E+00 0. -1.
         21   -1    0    0  501  503 -0.00000000000E+00 -0.00000000000E+00 -0.22085630434E+03  0.22085630434E+03  0.00000000000E+00 0. -1.
    9000007    1    1    2  501    0 -0.21281002121E+03 -0.25578908913E+03  0.42121649001E+03  0.66943221815E+03  0.40000000000E+03 0. -1.
   -9000007    1    1    2    0  502  0.21281002121E+03  0.25578908913E+03  0.60278780674E+03  0.79628468728E+03  0.40000000000E+03 0. -1.
<mgrwt>
<rscale>  2 0.52030391E+03</rscale>
<asrwt>0</asrwt>
<pdfrwt beam="1">  1       21 0.19151701E+00 0.52030391E+03</pdfrwt>
<pdfrwt beam="2">  1       21 0.33977894E-01 0.52030391E+03</pdfrwt>
<totfact> 0.10345413E+03</totfact>
</mgrwt>
</event>
<event>
 4    1  0.4690138E-002  0.4749994E+03  0.7818608E-02  0.1020519E+00
         21   -1    0    0  501  502  0.00000000000E+00  0.00000000000E+00  0.64284482319E+03  0.64284482319E+03  0.00000000000E+00 0.  1.
         21   -1    0    0  502  503 -0.00000000000E+00 -0.00000000000E+00 -0.96946074900E+03  0.96946074900E+03  0.00000000000E+00 0. -1.
    9000007    1    1    2  501    0 -0.78476956278E+02 -0.24385604060E+03  0.48058849123E+03  0.67571421408E+03  0.40000000000E+03 0.  1.
   -9000007    1    1    2    0  503  0.78476956278E+02  0.24385604060E+03 -0.80720441704E+03  0.93659135812E+03  0.40000000000E+03 0. -1.
<mgrwt>
<rscale>  2 0.47499937E+03</rscale>
<asrwt>0</asrwt>
<pdfrwt beam="1">  1       21 0.98899204E-01 0.47499937E+03</pdfrwt>
<pdfrwt beam="2">  1       21 0.14914781E+00 0.47499937E+03</pdfrwt>
<totfact> 0.20636067E+02</totfact>
</mgrwt>
</event>
<event>
 4    1  0.4690138E-002  0.4536173E+03  0.7818608E-02  0.1026649E+00
         21   -1    0    0  501  502  0.00000000000E+00  0.00000000000E+00  0.90471685386E+03  0.90471685386E+03  0.00000000000E+00 0.  1.
         21   -1    0    0  502  503 -0.00000000000E+00 -0.00000000000E+00 -0.22748268927E+03  0.22748268927E+03  0.00000000000E+00 0. -1.
    9000007    1    1    2  501    0 -0.52296001009E+02 -0.20744578873E+03  0.33084467201E+03  0.56145064252E+03  0.40000000000E+03 0. -1.
   -9000007    1    1    2    0  503  0.52296001009E+02  0.20744578873E+03  0.34638949258E+03  0.57074890062E+03  0.40000000000E+03 0. -1.
<mgrwt>
<rscale>  2 0.45361727E+03</rscale>
<asrwt>0</asrwt>
<pdfrwt beam="1">  1       21 0.13918721E+00 0.45361727E+03</pdfrwt>
<pdfrwt beam="2">  1       21 0.34997337E-01 0.45361727E+03</pdfrwt>
<totfact> 0.24593903E+03</totfact>
</mgrwt>
</event>
<event>
 4    1  0.4690138E-002  0.5606334E+03  0.7818608E-02  0.9990622E-01
         21   -1    0    0  501  502  0.00000000000E+00  0.00000000000E+00  0.16693528538E+04  0.16693528538E+04  0.00000000000E+00 0. -1.
         21   -1    0    0  502  503 -0.00000000000E+00 -0.00000000000E+00 -0.18917861301E+03  0.18917861301E+03  0.00000000000E+00 0. -1.
    9000007    1    1    2  501    0 -0.28821554590E+03  0.26691133523E+03  0.80404514030E+03  0.98020326944E+03  0.40000000000E+03 0. -1.
   -9000007    1    1    2    0  503  0.28821554590E+03 -0.26691133523E+03  0.67612910054E+03  0.87832819741E+03  0.40000000000E+03 0. -1.
<mgrwt>
<rscale>  2 0.56063345E+03</rscale>
<asrwt>0</asrwt>
<pdfrwt beam="1">  1       21 0.25682351E+00 0.56063345E+03</pdfrwt>
<pdfrwt beam="2">  1       21 0.29104403E-01 0.56063345E+03</pdfrwt>
<totfact> 0.52735506E+02</totfact>
</mgrwt>
</event>
<event>
 4    1  0.4690138E-002  0.6054623E+03  0.7818608E-02  0.9894138E-01
         21   -1    0    0  503  502  0.00000000000E+00  0.00000000000E+00  0.11429343591E+04  0.11429343591E+04  0.00000000000E+00 0. -1.
         21   -1    0    0  501  503 -0.00000000000E+00 -0.00000000000E+00 -0.32186614810E+03  0.32186614810E+03  0.00000000000E+00 0.  1.
    9000007    1    1    2  501    0  0.44990666532E+03  0.64564356916E+02  0.36720868624E+03  0.70811495037E+03  0.40000000000E+03 0.  1.
   -9000007    1    1    2    0  502 -0.44990666532E+03 -0.64564356916E+02  0.45385952475E+03  0.75668555681E+03  0.40000000000E+03 0. -1.
<mgrwt>
<rscale>  2 0.60546227E+03</rscale>
<asrwt>0</asrwt>
<pdfrwt beam="1">  1       21 0.17583605E+00 0.60546227E+03</pdfrwt>
<pdfrwt beam="2">  1       21 0.49517870E-01 0.60546227E+03</pdfrwt>
<totfact> 0.59118694E+02</totfact>
</mgrwt>
</event>
<event>
 4    1  0.4690138E-002  0.4306411E+03  0.7818608E-02  0.1033658E+00
         21   -1    0    0  503  502  0.00000000000E+00  0.00000000000E+00  0.85095633703E+03  0.85095633703E+03  0.00000000000E+00 0.  1.
         21   -1    0    0  501  503 -0.00000000000E+00 -0.00000000000E+00 -0.36678334059E+03  0.36678334059E+03  0.00000000000E+00 0.  1.
    9000007    1    1    2  501    0  0.15242408325E+03 -0.47102372251E+02 -0.14579058277E+03  0.45465000677E+03  0.40000000000E+03 0.  1.
   -9000007    1    1    2    0  502 -0.15242408325E+03  0.47102372251E+02  0.62996357921E+03  0.76308967085E+03  0.40000000000E+03 0.  1.
<mgrwt>
<rscale>  2 0.43064107E+03</rscale>
<asrwt>0</asrwt>
<pdfrwt beam="1">  1       21 0.13091636E+00 0.43064107E+03</pdfrwt>
<pdfrwt beam="2">  1       21 0.56428206E-01 0.43064107E+03</pdfrwt>
<totfact> 0.10733173E+03</totfact>
</mgrwt>
</event>
<event>
 4    1  0.4690138E-002  0.4391017E+03  0.7818608E-02  0.1031023E+00
         21   -1    0    0  503  502  0.00000000000E+00  0.00000000000E+00  0.11807570775E+04  0.11807570775E+04  0.00000000000E+00 0. -1.
         21   -1    0    0  501  503 -0.00000000000E+00 -0.00000000000E+00 -0.20300673127E+03  0.20300673127E+03  0.00000000000E+00 0. -1.
    9000007    1    1    2  501    0 -0.13421765162E+03  0.12163864724E+03  0.18286025885E+03  0.47565556107E+03  0.40000000000E+03 0. -1.
   -9000007    1    1    2    0  502  0.13421765162E+03 -0.12163864724E+03  0.79489008737E+03  0.90810824768E+03  0.40000000000E+03 0. -1.
<mgrwt>
<rscale>  2 0.43910174E+03</rscale>
<asrwt>0</asrwt>
<pdfrwt beam="1">  1       21 0.18165493E+00 0.43910174E+03</pdfrwt>
<pdfrwt beam="2">  1       21 0.31231806E-01 0.43910174E+03</pdfrwt>
<totfact> 0.14828009E+03</totfact>
</mgrwt>
</event>
<event>
 4    1  0.4690138E-002  0.8645103E+03  0.7818608E-02  0.9471066E-01
         21   -1    0    0  503  502  0.00000000000E+00  0.00000000000E+00  0.16683770399E+04  0.16683770399E+04  0.00000000000E+00 0. -1.
         21   -1    0    0  501  503 -0.00000000000E+00 -0.00000000000E+00 -0.47211777599E+03  0.47211777599E+03  0.00000000000E+00 0.  1.
    9000007    1    1    2  501    0 -0.29963022350E+03 -0.70540748114E+03  0.35606916642E+03  0.93496697084E+03  0.40000000000E+03 0.  1.
   -9000007    1    1    2    0  502  0.29963022350E+03  0.70540748114E+03  0.84019009748E+03  0.12055278451E+04  0.40000000000E+03 0. -1.
<mgrwt>
<rscale>  2 0.86451026E+03</rscale>
<asrwt>0</asrwt>
<pdfrwt beam="1">  1       21 0.25667339E+00 0.86451026E+03</pdfrwt>
<pdfrwt beam="2">  1       21 0.72633505E-01 0.86451026E+03</pdfrwt>
<totfact> 0.67743583E+01</totfact>
</mgrwt>
</event>
<event>
 4    1  0.4690138E-002  0.4243629E+03  0.7818608E-02  0.1035656E+00
         21   -1    0    0  503  502  0.00000000000E+00  0.00000000000E+00  0.26222076424E+03  0.26222076424E+03  0.00000000000E+00 0.  1.
         21   -1    0    0  501  503 -0.00000000000E+00 -0.00000000000E+00 -0.84376040260E+03  0.84376040260E+03  0.00000000000E+00 0.  1.
    9000007    1    1    2  501    0  0.14159561058E+03 -0.58784516624E+01 -0.52930504906E+03  0.67841558656E+03  0.40000000000E+03 0.  1.
   -9000007    1    1    2    0  502 -0.14159561058E+03  0.58784516624E+01 -0.52234589302E+02  0.42756558029E+03  0.40000000000E+03 0.  1.
<mgrwt>
<rscale>  2 0.42436290E+03</rscale>
<asrwt>0</asrwt>
<pdfrwt beam="1">  1       21 0.40341656E-01 0.42436290E+03</pdfrwt>
<pdfrwt beam="2">  1       21 0.12980929E+00 0.42436290E+03</pdfrwt>
<totfact> 0.22341441E+03</totfact>
</mgrwt>
</event>
<event>
 4    1  0.4690138E-002  0.5592945E+03  0.7818608E-02  0.9993652E-01
         21   -1    0    0  501  502  0.00000000000E+00  0.00000000000E+00  0.11894530905E+04  0.11894530905E+04  0.00000000000E+00 0.  1.
         21   -1    0    0  502  503 -0.00000000000E+00 -0.00000000000E+00 -0.43066085547E+03  0.43066085547E+03  0.00000000000E+00 0.  1.
    9000007    1    1    2  501    0  0.38050343387E+03 -0.89596204324E+02  0.88484929291E+03  0.10467896705E+04  0.40000000000E+03 0.  1.
   -9000007    1    1    2    0  503 -0.38050343387E+03  0.89596204324E+02 -0.12605705790E+03  0.57332427549E+03  0.40000000000E+03 0.  1.
<mgrwt>
<rscale>  2 0.55929450E+03</rscale>
<asrwt>0</asrwt>
<pdfrwt beam="1">  1       21 0.18299278E+00 0.55929450E+03</pdfrwt>
<pdfrwt beam="2">  1       21 0.66255517E-01 0.55929450E+03</pdfrwt>
<totfact> 0.28282028E+02</totfact>
</mgrwt>
</event>
<event>
 4    1  0.4690138E-002  0.4085677E+03  0.7818608E-02  0.1040853E+00
         21   -1    0    0  501  502  0.00000000000E+00  0.00000000000E+00  0.46765147574E+03  0.46765147574E+03  0.00000000000E+00 0. -1.
         21   -1    0    0  502  503 -0.00000000000E+00 -0.00000000000E+00 -0.36006309603E+03  0.36006309603E+03  0.00000000000E+00 0.  1.
    9000007    1    1    2  501    0 -0.65071541299E+02 -0.51896858678E+02  0.92284176011E+02  0.41886030914E+03  0.40000000000E+03 0. -1.
   -9000007    1    1    2    0  503  0.65071541299E+02  0.51896858678E+02  0.15304203702E+02  0.40885426264E+03  0.40000000000E+03 0.  1.
<mgrwt>
<rscale>  2 0.40856773E+03</rscale>
<asrwt>0</asrwt>
<pdfrwt beam="1">  1       21 0.71946381E-01 0.40856773E+03</pdfrwt>
<pdfrwt beam="2">  1       21 0.55394322E-01 0.40856773E+03</pdfrwt>
<totfact> 0.47774450E+03</totfact>
</mgrwt>
</event>
<event>
 4    1  0.4690138E-002  0.4227500E+03  0.7818608E-02  0.1036175E+00
         21   -1    0    0  501  502  0.00000000000E+00  0.00000000000E+00  0.23288992567E+03  0.23288992567E+03  0.00000000000E+00 0. -1.
         21   -1    0    0  502  503 -0.00000000000E+00 -0.00000000000E+00 -0.96388828073E+03  0.96388828073E+03  0.00000000000E+00 0. -1.
    9000007    1    1    2  501    0  0.12400065197E+03  0.57805041178E+02 -0.95321895324E+02  0.43336341355E+03  0.40000000000E+03 0. -1.
   -9000007    1    1    2    0  503 -0.12400065197E+03 -0.57805041178E+02 -0.63567645973E+03  0.76341479285E+03  0.40000000000E+03 0. -1.
<mgrwt>
<rscale>  2 0.42275003E+03</rscale>
<asrwt>0</asrwt>
<pdfrwt beam="1">  1       21 0.35829219E-01 0.42275003E+03</pdfrwt>
<pdfrwt beam="2">  1       21 0.14829051E+00 0.42275003E+03</pdfrwt>
<totfact> 0.20034605E+03</totfact>
</mgrwt>
</event>
<event>
 4    1  0.4690138E-002  0.4420275E+03  0.7818608E-02  0.1030127E+00
         21   -1    0    0  503  502  0.00000000000E+00  0.00000000000E+00  0.43903892087E+03  0.43903892087E+03  0.00000000000E+00 0.  1.
         21   -1    0    0  501  503 -0.00000000000E+00 -0.00000000000E+00 -0.46100369734E+03  0.46100369734E+03  0.00000000000E+00 0.  1.
    9000007    1    1    2  501    0  0.55481624348E+02  0.17975003630E+03 -0.94734744334E+02  0.45206521430E+03  0.40000000000E+03 0.  1.
   -9000007    1    1    2    0  502 -0.55481624348E+02 -0.17975003630E+03  0.72769967870E+02  0.44797740391E+03  0.40000000000E+03 0.  1.
<mgrwt>
<rscale>  2 0.44202747E+03</rscale>
<asrwt>0</asrwt>
<pdfrwt beam="1">  1       21 0.67544449E-01 0.44202747E+03</pdfrwt>
<pdfrwt beam="2">  1       21 0.70923646E-01 0.44202747E+03</pdfrwt>
<totfact> 0.31539178E+03</totfact>
</mgrwt>
</event>
<event>
 4    1  0.4690138E-002  0.4681754E+03  0.7818608E-02  0.1022436E+00
         21   -1    0    0  503  502  0.00000000000E+00  0.00000000000E+00  0.96988333551E+03  0.96988333551E+03  0.00000000000E+00 0. -1.
         21   -1    0    0  501  503 -0.00000000000E+00 -0.00000000000E+00 -0.34930852758E+03  0.34930852758E+03  0.00000000000E+00 0. -1.
    9000007    1    1    2  501    0  0.23926210535E+03  0.44065961447E+02 -0.81616745123E+02  0.47523621190E+03  0.40000000000E+03 0. -1.
   -9000007    1    1    2    0  502 -0.23926210535E+03 -0.44065961447E+02  0.70219155305E+03  0.84395565120E+03  0.40000000000E+03 0. -1.
<mgrwt>
<rscale>  2 0.46817536E+03</rscale>
<asrwt>0</asrwt>
<pdfrwt beam="1">  1       21 0.14921282E+00 0.46817536E+03</pdfrwt>
<pdfrwt beam="2">  1       21 0.53739774E-01 0.46817536E+03</pdfrwt>
<totfact> 0.82916756E+02</totfact>
</mgrwt>
</event>
<event>
 4    1  0.4690138E-002  0.5076907E+03  0.7818608E-02  0.1011791E+00
         21   -1    0    0  501  502  0.00000000000E+00  0.00000000000E+00  0.83689308735E+03  0.83689308735E+03  0.00000000000E+00 0.  1.
         21   -1    0    0  502  503 -0.00000000000E+00 -0.00000000000E+00 -0.32330157033E+03  0.32330157033E+03  0.00000000000E+00 0.  1.
    9000007    1    1    2  501    0  0.80041884945E+02 -0.30223033932E+03  0.38306236244E+03  0.63599265316E+03  0.40000000000E+03 0.  1.
   -9000007    1    1    2    0  503 -0.80041884945E+02  0.30223033932E+03  0.13052915459E+03  0.52420200452E+03  0.40000000000E+03 0.  1.
<mgrwt>
<rscale>  2 0.50769073E+03</rscale>
<asrwt>0</asrwt>
<pdfrwt beam="1">  1       21 0.12875278E+00 0.50769073E+03</pdfrwt>
<pdfrwt beam="2">  1       21 0.49738703E-01 0.50769073E+03</pdfrwt>
<totfact> 0.14257948E+03</totfact>
</mgrwt>
</event>
<event>
 4    1  0.4690138E-002  0.4286443E+03  0.7818608E-02  0.1034289E+00
         21   -1    0    0  501  502  0.00000000000E+00  0.00000000000E+00  0.74858930026E+03  0.74858930026E+03  0.00000000000E+00 0. -1.
         21   -1    0    0  502  503 -0.00000000000E+00 -0.00000000000E+00 -0.26054164360E+03  0.26054164360E+03  0.00000000000E+00 0. -1.
    9000007    1    1    2  501    0 -0.13422344415E+03  0.75630570789E+02  0.36548839359E+03  0.56330957923E+03  0.40000000000E+03 0.  1.
   -9000007    1    1    2    0  503  0.13422344415E+03 -0.75630570789E+02  0.12255926307E+03  0.44582136463E+03  0.40000000000E+03 0.  1.
<mgrwt>
<rscale>  2 0.42864428E+03</rscale>
<asrwt>0</asrwt>
<pdfrwt beam="1">  1       21 0.11516758E+00 0.42864428E+03</pdfrwt>
<pdfrwt beam="2">  1       21 0.40083330E-01 0.42864428E+03</pdfrwt>
<totfact> 0.30664202E+03</totfact>
</mgrwt>
</event>
<event>
 4    1  0.4690138E-002  0.4826195E+03  0.7818608E-02  0.1018418E+00
         21   -1    0    0  503  502  0.00000000000E+00  0.00000000000E+00  0.47087765998E+03  0.47087765998E+03  0.00000000000E+00 0.  1.
         21   -1    0    0  501  503 -0.00000000000E+00 -0.00000000000E+00 -0.68292147412E+03  0.68292147412E+03  0.00000000000E+00 0. -1.
    9000007    1    1    2  501    0  0.18022855679E+03  0.20109514102E+03 -0.40892402083E+03  0.63256655242E+03  0.40000000000E+03 0. -1.
   -9000007    1    1    2    0  502 -0.18022855679E+03 -0.20109514102E+03  0.19688020669E+03  0.52123258169E+03  0.40000000000E+03 0.  1.
<mgrwt>
<rscale>  2 0.48261951E+03</rscale>
<asrwt>0</asrwt>
<pdfrwt beam="1">  1       21 0.72442717E-01 0.48261951E+03</pdfrwt>
<pdfrwt beam="2">  1       21 0.10506484E+00 0.48261951E+03</pdfrwt>
<totfact> 0.10525706E+03</totfact>
</mgrwt>
</event>
<event>
 4    1  0.4690138E-002  0.5115898E+03  0.7818608E-02  0.1010797E+00
         21   -1    0    0  501  502  0.00000000000E+00  0.00000000000E+00  0.89620703281E+03  0.89620703281E+03  0.00000000000E+00 0. -1.
         21   -1    0    0  502  503 -0.00000000000E+00 -0.00000000000E+00 -0.44554120153E+03  0.44554120153E+03  0.00000000000E+00 0.  1.
    9000007    1    1    2  501    0 -0.16272880102E+03 -0.27430534521E+03  0.61911834854E+03  0.80313860235E+03  0.40000000000E+03 0. -1.
   -9000007    1    1    2    0  503  0.16272880102E+03  0.27430534521E+03 -0.16845251727E+03  0.53860963198E+03  0.40000000000E+03 0.  1.
<mgrwt>
<rscale>  2 0.51158976E+03</rscale>
<asrwt>0</asrwt>
<pdfrwt beam="1">  1       21 0.13787800E+00 0.51158976E+03</pdfrwt>
<pdfrwt beam="2">  1       21 0.68544801E-01 0.51158976E+03</pdfrwt>
<totfact> 0.58976739E+02</totfact>
</mgrwt>
</event>
<event>
 4    1  0.4690138E-002  0.4018921E+03  0.7818608E-02  0.1043126E+00
         21   -1    0    0  501  502  0.00000000000E+00  0.00000000000E+00  0.71484592174E+03  0.71484592174E+03  0.00000000000E+00 0.  1.
         21   -1    0    0  502  503 -0.00000000000E+00 -0.00000000000E+00 -0.42383251363E+03  0.42383251363E+03  0.00000000000E+00 0.  1.
    9000007    1    1    2  501    0  0.25540567084E+02  0.29409615123E+02  0.53453486161E+03  0.66876360869E+03  0.40000000000E+03 0.  1.
   -9000007    1    1    2    0  503 -0.25540567084E+02 -0.29409615123E+02 -0.24352145349E+03  0.46991482669E+03  0.40000000000E+03 0.  1.
<mgrwt>
<rscale>  2 0.40189208E+03</rscale>
<asrwt>0</asrwt>
<pdfrwt beam="1">  1       21 0.10997630E+00 0.40189208E+03</pdfrwt>
<pdfrwt beam="2">  1       21 0.65205002E-01 0.40189208E+03</pdfrwt>
<totfact> 0.12314585E+03</totfact>
</mgrwt>
</event>
<event>
 4    1  0.4690138E-002  0.4428047E+03  0.7818608E-02  0.1029890E+00
         21   -1    0    0  503  502  0.00000000000E+00  0.00000000000E+00  0.20518606762E+04  0.20518606762E+04  0.00000000000E+00 0. -1.
         21   -1    0    0  501  503 -0.00000000000E+00 -0.00000000000E+00 -0.98879513230E+02  0.98879513230E+02  0.00000000000E+00 0. -1.
    9000007    1    1    2  501    0 -0.43145532379E+02  0.18497157708E+03  0.77945931905E+03  0.89645571633E+03  0.40000000000E+03 0. -1.
   -9000007    1    1    2    0  502  0.43145532379E+02 -0.18497157708E+03  0.11735218439E+04  0.12542844731E+04  0.40000000000E+03 0. -1.
<mgrwt>
<rscale>  2 0.44280472E+03</rscale>
<asrwt>0</asrwt>
<pdfrwt beam="1">  1       21 0.31567084E+00 0.44280472E+03</pdfrwt>
<pdfrwt beam="2">  1       21 0.15212234E-01 0.44280472E+03</pdfrwt>
<totfact> 0.85257118E+02</totfact>
</mgrwt>
</event>
<event>
 4    1  0.4690138E-002  0.4281469E+03  0.7818608E-02  0.1034447E+00
         21   -1    0    0  503  502  0.00000000000E+00  0.00000000000E+00  0.11318380656E+04  0.11318380656E+04  0.00000000000E+00 0. -1.
         21   -1    0    0  501  503 -0.00000000000E+00 -0.00000000000E+00 -0.24196853887E+03  0.24196853887E+03  0.00000000000E+00 0. -1.
    9000007    1    1    2  501    0 -0.40162344906E+02  0.14729830445E+03  0.49940516635E+02  0.43104971830E+03  0.40000000000E+03 0. -1.
   -9000007    1    1    2    0  502  0.40162344906E+02 -0.14729830445E+03  0.83992901010E+03  0.94275688619E+03  0.40000000000E+03 0. -1.
<mgrwt>
<rscale>  2 0.42814694E+03</rscale>
<asrwt>0</asrwt>
<pdfrwt beam="1">  1       21 0.17412893E+00 0.42814694E+03</pdfrwt>
<pdfrwt beam="2">  1       21 0.37225930E-01 0.42814694E+03</pdfrwt>
<totfact> 0.11826859E+03</totfact>
</mgrwt>
</event>
<event>
 4    1  0.4690138E-002  0.4759436E+03  0.7818608E-02  0.1020256E+00
         21   -1    0    0  501  502  0.00000000000E+00  0.00000000000E+00  0.60760637461E+03  0.60760637461E+03  0.00000000000E+00 0. -1.
         21   -1    0    0  502  503 -0.00000000000E+00 -0.00000000000E+00 -0.43977155142E+03  0.43977155142E+03  0.00000000000E+00 0. -1.
    9000007    1    1    2  501    0 -0.24298834824E+03 -0.86481270182E+02  0.28826491055E+03  0.55643418850E+03  0.40000000000E+03 0.  1.
   -9000007    1    1    2    0  503  0.24298834824E+03  0.86481270182E+02 -0.12043008737E+03  0.49094373753E+03  0.40000000000E+03 0.  1.
<mgrwt>
<rscale>  2 0.47594364E+03</rscale>
<asrwt>0</asrwt>
<pdfrwt beam="1">  1       21 0.93477904E-01 0.47594364E+03</pdfrwt>
<pdfrwt beam="2">  1       21 0.67657162E-01 0.47594364E+03</pdfrwt>
<totfact> 0.16350755E+03</totfact>
</mgrwt>
</event>
<event>
 4    1  0.4690138E-002  0.4213440E+03  0.7818608E-02  0.1036630E+00
         21   -1    0    0  503  502  0.00000000000E+00  0.00000000000E+00  0.15946330711E+04  0.15946330711E+04  0.00000000000E+00 0.  1.
         21   -1    0    0  501  503 -0.00000000000E+00 -0.00000000000E+00 -0.18011516026E+03  0.18011516026E+03  0.00000000000E+00 0.  1.
    9000007    1    1    2  501    0 -0.10058351606E+03  0.86103119040E+02  0.12556349342E+04  0.13244432335E+04  0.40000000000E+03 0.  1.
   -9000007    1    1    2    0  502  0.10058351606E+03 -0.86103119040E+02  0.15888297663E+03  0.45030499783E+03  0.40000000000E+03 0.  1.
<mgrwt>
<rscale>  2 0.42134403E+03</rscale>
<asrwt>0</asrwt>
<pdfrwt beam="1">  1       21 0.24532816E+00 0.42134403E+03</pdfrwt>
<pdfrwt beam="2">  1       21 0.27710026E-01 0.42134403E+03</pdfrwt>
<totfact> 0.73093873E+02</totfact>
</mgrwt>
</event>
<event>
 4    1  0.4690138E-002  0.7016633E+03  0.7818608E-02  0.9714392E-01
         21   -1    0    0  501  502  0.00000000000E+00  0.00000000000E+00  0.97481706871E+03  0.97481706871E+03  0.00000000000E+00 0. -1.
         21   -1    0    0  502  503 -0.00000000000E+00 -0.00000000000E+00 -0.74182895292E+03  0.74182895292E+03  0.00000000000E+00 0.  1.
    9000007    1    1    2  501    0 -0.41861638597E+03 -0.39634795005E+03  0.60141439588E+03  0.92413778826E+03  0.40000000000E+03 0.  1.
   -9000007    1    1    2    0  503  0.41861638597E+03  0.39634795005E+03 -0.36842628009E+03  0.79250823338E+03  0.40000000000E+03 0.  1.
<mgrwt>
<rscale>  2 0.70166329E+03</rscale>
<asrwt>0</asrwt>
<pdfrwt beam="1">  1       21 0.14997186E+00 0.70166329E+03</pdfrwt>
<pdfrwt beam="2">  1       21 0.11412753E+00 0.70166329E+03</pdfrwt>
<totfact> 0.13022807E+02</totfact>
</mgrwt>
</event>
<event>
 4    1  0.4690138E-002  0.4061275E+03  0.7818608E-02  0.1041678E+00
         21   -1    0    0  501  502  0.00000000000E+00  0.00000000000E+00  0.16680862056E+03  0.16680862056E+03  0.00000000000E+00 0. -1.
         21   -1    0    0  502  503 -0.00000000000E+00 -0.00000000000E+00 -0.16443791232E+04  0.16443791232E+04  0.00000000000E+00 0. -1.
    9000007    1    1    2  501    0  0.21400098391E+02  0.66944535049E+02 -0.16698189326E+03  0.43911557438E+03  0.40000000000E+03 0. -1.
   -9000007    1    1    2    0  503 -0.21400098391E+02 -0.66944535049E+02 -0.13105886094E+04  0.13720721694E+04  0.40000000000E+03 0. -1.
<mgrwt>
<rscale>  2 0.40612749E+03</rscale>
<asrwt>0</asrwt>
<pdfrwt beam="1">  1       21 0.25662864E-01 0.40612749E+03</pdfrwt>
<pdfrwt beam="2">  1       21 0.25298141E+00 0.40612749E+03</pdfrwt>
<totfact> 0.76890847E+02</totfact>
</mgrwt>
</event>
<event>
 4    1  0.4690138E-002  0.4823895E+03  0.7818608E-02  0.1018481E+00
         21   -1    0    0  501  502  0.00000000000E+00  0.00000000000E+00  0.74773083603E+03  0.74773083603E+03  0.00000000000E+00 0.  1.
         21   -1    0    0  502  503 -0.00000000000E+00 -0.00000000000E+00 -0.32270833767E+03  0.32270833767E+03  0.00000000000E+00 0.  1.
    9000007    1    1    2  501    0 -0.23614352264E+03  0.13013773142E+03  0.31354998368E+03  0.57533745288E+03  0.40000000000E+03 0.  1.
   -9000007    1    1    2    0  503  0.23614352264E+03 -0.13013773142E+03  0.11147251468E+03  0.49510172081E+03  0.40000000000E+03 0.  1.
<mgrwt>
<rscale>  2 0.48238946E+03</rscale>
<asrwt>0</asrwt>
<pdfrwt beam="1">  1       21 0.11503551E+00 0.48238946E+03</pdfrwt>
<pdfrwt beam="2">  1       21 0.49647437E-01 0.48238946E+03</pdfrwt>
<totfact> 0.19264615E+03</totfact>
</mgrwt>
</event>
<event>
 4    1  0.4690138E-002  0.4533574E+03  0.7818608E-02  0.1026726E+00
         21   -1    0    0  501  502  0.00000000000E+00  0.00000000000E+00  0.53609243271E+03  0.53609243271E+03  0.00000000000E+00 0.  1.
         21   -1    0    0  502  503 -0.00000000000E+00 -0.00000000000E+00 -0.38364554132E+03  0.38364554132E+03  0.00000000000E+00 0. -1.
    9000007    1    1    2  501    0 -0.21306383127E+03 -0.11691938914E+02  0.64373043637E+02  0.45790477872E+03  0.40000000000E+03 0.  1.
   -9000007    1    1    2    0  503  0.21306383127E+03  0.11691938914E+02  0.88073847754E+02  0.46183319531E+03  0.40000000000E+03 0. -1.
<mgrwt>
<rscale>  2 0.45335736E+03</rscale>
<asrwt>0</asrwt>
<pdfrwt beam="1">  1       21 0.82475759E-01 0.45335736E+03</pdfrwt>
<pdfrwt beam="2">  1       21 0.59022391E-01 0.45335736E+03</pdfrwt>
<totfact> 0.29959882E+03</totfact>
</mgrwt>
</event>
<event>
 4    1  0.4690138E-002  0.5534071E+03  0.7818608E-02  0.1000708E+00
         21   -1    0    0  501  502  0.00000000000E+00  0.00000000000E+00  0.10120841889E+04  0.10120841889E+04  0.00000000000E+00 0.  1.
         21   -1    0    0  502  503 -0.00000000000E+00 -0.00000000000E+00 -0.46262885245E+03  0.46262885245E+03  0.00000000000E+00 0.  1.
    9000007    1    1    2  501    0  0.32945371438E+03 -0.19421563624E+03  0.70839486810E+03  0.89893423143E+03  0.40000000000E+03 0.  1.
   -9000007    1    1    2    0  503 -0.32945371438E+03  0.19421563624E+03 -0.15893953161E+03  0.57577880995E+03  0.40000000000E+03 0.  1.
<mgrwt>
<rscale>  2 0.55340714E+03</rscale>
<asrwt>0</asrwt>
<pdfrwt beam="1">  1       21 0.15570526E+00 0.55340714E+03</pdfrwt>
<pdfrwt beam="2">  1       21 0.71173670E-01 0.55340714E+03</pdfrwt>
<totfact> 0.38325517E+02</totfact>
</mgrwt>
</event>
<event>
 4    1  0.4690138E-002  0.4718808E+03  0.7818608E-02  0.1021391E+00
         21   -1    0    0  501  502  0.00000000000E+00  0.00000000000E+00  0.60068803677E+03  0.60068803677E+03  0.00000000000E+00 0.  1.
         21   -1    0    0  502  503 -0.00000000000E+00 -0.00000000000E+00 -0.37188599755E+03  0.37188599755E+03  0.00000000000E+00 0.  1.
    9000007    1    1    2  501    0 -0.10426958364E+03 -0.22759462097E+03  0.14193211446E+03  0.49276382039E+03  0.40000000000E+03 0.  1.
   -9000007    1    1    2    0  503  0.10426958364E+03  0.22759462097E+03  0.86869924758E+02  0.47981021393E+03  0.40000000000E+03 0.  1.
<mgrwt>
<rscale>  2 0.47188077E+03</rscale>
<asrwt>0</asrwt>
<pdfrwt beam="1">  1       21 0.92413544E-01 0.47188077E+03</pdfrwt>
<pdfrwt beam="2">  1       21 0.57213231E-01 0.47188077E+03</pdfrwt>
<totfact> 0.24369848E+03</totfact>
</mgrwt>
</event>
<event>
 4    1  0.4690138E-002  0.4483161E+03  0.7818608E-02  0.1028225E+00
         21   -1    0    0  503  502  0.00000000000E+00  0.00000000000E+00  0.87623647707E+03  0.87623647707E+03  0.00000000000E+00 0.  1.
         21   -1    0    0  501  503 -0.00000000000E+00 -0.00000000000E+00 -0.35929896579E+03  0.35929896579E+03  0.00000000000E+00 0.  1.
    9000007    1    1    2  501    0 -0.13932573241E+03  0.14688659179E+03 -0.11301578087E+03  0.46234175378E+03  0.40000000000E+03 0.  1.
   -9000007    1    1    2    0  502  0.13932573241E+03 -0.14688659179E+03  0.62995329215E+03  0.77319368909E+03  0.40000000000E+03 0.  1.
<mgrwt>
<rscale>  2 0.44831611E+03</rscale>
<asrwt>0</asrwt>
<pdfrwt beam="1">  1       21 0.13480561E+00 0.44831611E+03</pdfrwt>
<pdfrwt beam="2">  1       21 0.55276764E-01 0.44831611E+03</pdfrwt>
<totfact> 0.10319853E+03</totfact>
</mgrwt>
</event>
<event>
 4    1  0.4690138E-002  0.4090705E+03  0.7818608E-02  0.1040683E+00
         21   -1    0    0  503  502  0.00000000000E+00  0.00000000000E+00  0.66232104111E+03  0.66232104111E+03  0.00000000000E+00 0. -1.
         21   -1    0    0  501  503 -0.00000000000E+00 -0.00000000000E+00 -0.25786752222E+03  0.25786752222E+03  0.00000000000E+00 0. -1.
    9000007    1    1    2  501    0 -0.40235118985E+02  0.75629187964E+02  0.13681169996E+03  0.43134218449E+03  0.40000000000E+03 0.  1.
   -9000007    1    1    2    0  502  0.40235118985E+02 -0.75629187964E+02  0.26764181892E+03  0.48884637884E+03  0.40000000000E+03 0.  1.
<mgrwt>
<rscale>  2 0.40907046E+03</rscale>
<asrwt>0</asrwt>
<pdfrwt beam="1">  1       21 0.10189554E+00 0.40907046E+03</pdfrwt>
<pdfrwt beam="2">  1       21 0.39671927E-01 0.40907046E+03</pdfrwt>
<totfact> 0.42694650E+03</totfact>
</mgrwt>
</event>
<event>
 4    1  0.4690138E-002  0.5576022E+03  0.7818608E-02  0.9997495E-01
         21   -1    0    0  503  502  0.00000000000E+00  0.00000000000E+00  0.22581152797E+04  0.22581152797E+04  0.00000000000E+00 0.  1.
         21   -1    0    0  501  503 -0.00000000000E+00 -0.00000000000E+00 -0.13812935289E+03  0.13812935289E+03  0.00000000000E+00 0. -1.
    9000007    1    1    2  501    0 -0.34803015910E+03 -0.17261299815E+03  0.11275528928E+04  0.12578933837E+04  0.40000000000E+03 0. -1.
   -9000007    1    1    2    0  502  0.34803015910E+03  0.17261299815E+03  0.99243303400E+03  0.11383512488E+04  0.40000000000E+03 0.  1.
<mgrwt>
<rscale>  2 0.55760222E+03</rscale>
<asrwt>0</asrwt>
<pdfrwt beam="1">  1       21 0.34740232E+00 0.55760222E+03</pdfrwt>
<pdfrwt beam="2">  1       21 0.21250671E-01 0.55760222E+03</pdfrwt>
<totfact> 0.27331990E+02</totfact>
</mgrwt>
</event>
<event>
 4    1  0.4690138E-002  0.5199538E+03  0.7818608E-02  0.1008698E+00
         21   -1    0    0  503  502  0.00000000000E+00  0.00000000000E+00  0.19984733572E+04  0.19984733572E+04  0.00000000000E+00 0.  1.
         21   -1    0    0  501  503 -0.00000000000E+00 -0.00000000000E+00 -0.20476807463E+03  0.20476807463E+03  0.00000000000E+00 0.  1.
    9000007    1    1    2  501    0  0.23897733569E+02  0.33133195967E+03  0.25511359304E+03  0.57916743220E+03  0.40000000000E+03 0.  1.
   -9000007    1    1    2    0  502 -0.23897733569E+02 -0.33133195967E+03  0.15385916895E+04  0.16240739996E+04  0.40000000000E+03 0.  1.
<mgrwt>
<rscale>  2 0.51995381E+03</rscale>
<asrwt>0</asrwt>
<pdfrwt beam="1">  1       21 0.30745743E+00 0.51995381E+03</pdfrwt>
<pdfrwt beam="2">  1       21 0.31502782E-01 0.51995381E+03</pdfrwt>
<totfact> 0.22567808E+02</totfact>
</mgrwt>
</event>
<event>
 4    1  0.4690138E-002  0.5569424E+03  0.7818608E-02  0.9998997E-01
         21   -1    0    0  501  502  0.00000000000E+00  0.00000000000E+00  0.22010838552E+03  0.22010838552E+03  0.00000000000E+00 0. -1.
         21   -1    0    0  502  503 -0.00000000000E+00 -0.00000000000E+00 -0.16628082688E+04  0.16628082688E+04  0.00000000000E+00 0. -1.
    9000007    1    1    2  501    0  0.26595351081E+03 -0.28187499394E+03 -0.10889964278E+04  0.12231508500E+04  0.40000000000E+03 0. -1.
   -9000007    1    1    2    0  503 -0.26595351081E+03  0.28187499394E+03 -0.35370345545E+03  0.65976580430E+03  0.40000000000E+03 0. -1.
<mgrwt>
<rscale>  2 0.55694235E+03</rscale>
<asrwt>0</asrwt>
<pdfrwt beam="1">  1       21 0.33862830E-01 0.55694235E+03</pdfrwt>
<pdfrwt beam="2">  1       21 0.25581665E+00 0.55694235E+03</pdfrwt>
<totfact> 0.39540227E+02</totfact>
</mgrwt>
</event>
<event>
 4    1  0.4690138E-002  0.7330305E+03  0.7818608E-02  0.9662355E-01
         21   -1    0    0  503  502  0.00000000000E+00  0.00000000000E+00  0.49968878390E+03  0.49968878390E+03  0.00000000000E+00 0.  1.
         21   -1    0    0  501  503 -0.00000000000E+00 -0.00000000000E+00 -0.11215961238E+04  0.11215961238E+04  0.00000000000E+00 0.  1.
    9000007    1    1    2  501    0  0.38965539810E+03  0.47487090402E+03 -0.47558445356E+03  0.87379304027E+03  0.40000000000E+03 0.  1.
   -9000007    1    1    2    0  502 -0.38965539810E+03 -0.47487090402E+03 -0.14632288630E+03  0.74749186739E+03  0.40000000000E+03 0.  1.
<mgrwt>
<rscale>  2 0.73303049E+03</rscale>
<asrwt>0</asrwt>
<pdfrwt beam="1">  1       21 0.76875198E-01 0.73303049E+03</pdfrwt>
<pdfrwt beam="2">  1       21 0.17255325E+00 0.73303049E+03</pdfrwt>
<totfact> 0.22559630E+02</totfact>
</mgrwt>
</event>
<event>
 4    1  0.4690138E-002  0.4413637E+03  0.7818608E-02  0.1030329E+00
         21   -1    0    0  501  502  0.00000000000E+00  0.00000000000E+00  0.92966601274E+03  0.92966601274E+03  0.00000000000E+00 0.  1.
         21   -1    0    0  502  503 -0.00000000000E+00 -0.00000000000E+00 -0.29120627630E+03  0.29120627630E+03  0.00000000000E+00 0. -1.
    9000007    1    1    2  501    0 -0.95343304976E+02 -0.16034828892E+03  0.64249741005E+03  0.77949011635E+03  0.40000000000E+03 0.  1.
   -9000007    1    1    2    0  503  0.95343304976E+02  0.16034828892E+03 -0.40376736168E+01  0.44138217269E+03  0.40000000000E+03 0. -1.
<mgrwt>
<rscale>  2 0.44136370E+03</rscale>
<asrwt>0</asrwt>
<pdfrwt beam="1">  1       21 0.14302554E+00 0.44136370E+03</pdfrwt>
<pdfrwt beam="2">  1       21 0.44800966E-01 0.44136370E+03</pdfrwt>
<totfact> 0.13828472E+03</totfact>
</mgrwt>
</event>
<event>
 4    1  0.4690138E-002  0.4202185E+03  0.7818608E-02  0.1036995E+00
         21   -1    0    0  501  502  0.00000000000E+00  0.00000000000E+00  0.37954776998E+03  0.37954776998E+03  0.00000000000E+00 0.  1.
         21   -1    0    0  502  503 -0.00000000000E+00 -0.00000000000E+00 -0.56621765541E+03  0.56621765541E+03  0.00000000000E+00 0.  1.
    9000007    1    1    2  501    0 -0.10588358253E+03  0.73295857404E+02  0.10635603659E+03  0.43346882504E+03  0.40000000000E+03 0.  1.
   -9000007    1    1    2    0  503  0.10588358253E+03 -0.73295857404E+02 -0.29302592201E+03  0.51229660035E+03  0.40000000000E+03 0.  1.
<mgrwt>
<rscale>  2 0.42021853E+03</rscale>
<asrwt>0</asrwt>
<pdfrwt beam="1">  1       21 0.58391965E-01 0.42021853E+03</pdfrwt>
<pdfrwt beam="2">  1       21 0.87110409E-01 0.42021853E+03</pdfrwt>
<totfact> 0.27322674E+03</totfact>
</mgrwt>
</event>
<event>
 4    1  0.4690138E-002  0.4747692E+03  0.7818608E-02  0.1020583E+00
         21   -1    0    0  501  502  0.00000000000E+00  0.00000000000E+00  0.70833416913E+03  0.70833416913E+03  0.00000000000E+00 0. -1.
         21   -1    0    0  502  503 -0.00000000000E+00 -0.00000000000E+00 -0.41990770661E+03  0.41990770661E+03  0.00000000000E+00 0.  1.
    9000007    1    1    2  501    0  0.73014561033E+02 -0.24510131490E+03  0.42182027638E+03  0.63508906955E+03  0.40000000000E+03 0. -1.
   -9000007    1    1    2    0  503 -0.73014561033E+02  0.24510131490E+03 -0.13339381386E+03  0.49315280620E+03  0.40000000000E+03 0.  1.
<mgrwt>
<rscale>  2 0.47476919E+03</rscale>
<asrwt>0</asrwt>
<pdfrwt beam="1">  1       21 0.10897449E+00 0.47476919E+03</pdfrwt>
<pdfrwt beam="2">  1       21 0.64601186E-01 0.47476919E+03</pdfrwt>
<totfact> 0.12475444E+03</totfact>
</mgrwt>
</event>
<event>
 4    1  0.4690138E-002  0.4834819E+03  0.7818608E-02  0.1018183E+00
         21   -1    0    0  503  502  0.00000000000E+00  0.00000000000E+00  0.14588624362E+04  0.14588624362E+04  0.00000000000E+00 0.  1.
         21   -1    0    0  501  503 -0.00000000000E+00 -0.00000000000E+00 -0.17329790873E+03  0.17329790873E+03  0.00000000000E+00 0.  1.
    9000007    1    1    2  501    0 -0.10308161520E+03 -0.25125475976E+03  0.41869094923E+03  0.63957555039E+03  0.40000000000E+03 0. -1.
   -9000007    1    1    2    0  502  0.10308161520E+03  0.25125475976E+03  0.86687357827E+03  0.99258479456E+03  0.40000000000E+03 0. -1.
<mgrwt>
<rscale>  2 0.48348193E+03</rscale>
<asrwt>0</asrwt>
<pdfrwt beam="1">  1       21 0.22444037E+00 0.48348193E+03</pdfrwt>
<pdfrwt beam="2">  1       21 0.26661218E-01 0.48348193E+03</pdfrwt>
<totfact> 0.10331234E+03</totfact>
</mgrwt>
</event>
<event>
 4    1  0.4690138E-002  0.4607172E+03  0.7818608E-02  0.1024573E+00
         21   -1    0    0  503  502  0.00000000000E+00  0.00000000000E+00  0.68962699120E+03  0.68962699120E+03  0.00000000000E+00 0.  1.
         21   -1    0    0  501  503 -0.00000000000E+00 -0.00000000000E+00 -0.45239633485E+03  0.45239633485E+03  0.00000000000E+00 0. -1.
    9000007    1    1    2  501    0  0.31120717015E+02 -0.22647705902E+03 -0.20421844080E+03  0.50394992693E+03  0.40000000000E+03 0. -1.
   -9000007    1    1    2    0  502 -0.31120717015E+02  0.22647705902E+03  0.44144909715E+03  0.63807339912E+03  0.40000000000E+03 0.  1.
<mgrwt>
<rscale>  2 0.46071722E+03</rscale>
<asrwt>0</asrwt>
<pdfrwt beam="1">  1       21 0.10609646E+00 0.46071722E+03</pdfrwt>
<pdfrwt beam="2">  1       21 0.69599436E-01 0.46071722E+03</pdfrwt>
<totfact> 0.11345402E+03</totfact>
</mgrwt>
</event>
<event>
 4    1  0.4690138E-002  0.4600804E+03  0.7818608E-02  0.1024758E+00
         21   -1    0    0  501  502  0.00000000000E+00  0.00000000000E+00  0.17484339381E+03  0.17484339381E+03  0.00000000000E+00 0.  1.
         21   -1    0    0  502  503 -0.00000000000E+00 -0.00000000000E+00 -0.12544031831E+04  0.12544031831E+04  0.00000000000E+00 0.  1.
    9000007    1    1    2  501    0 -0.18835655533E+03 -0.12726265538E+03 -0.67324523801E+03  0.81543431734E+03  0.40000000000E+03 0.  1.
   -9000007    1    1    2    0  503  0.18835655533E+03  0.12726265538E+03 -0.40631455124E+03  0.61381225953E+03  0.40000000000E+03 0.  1.
<mgrwt>
<rscale>  2 0.46008040E+03</rscale>
<asrwt>0</asrwt>
<pdfrwt beam="1">  1       21 0.26898983E-01 0.46008040E+03</pdfrwt>
<pdfrwt beam="2">  1       21 0.19298511E+00 0.46008040E+03</pdfrwt>
<totfact> 0.16497793E+03</totfact>
</mgrwt>
</event>
<event>
 4    1  0.4690138E-002  0.4092258E+03  0.7818608E-02  0.1040631E+00
         21   -1    0    0  503  502  0.00000000000E+00  0.00000000000E+00  0.36195524210E+03  0.36195524210E+03  0.00000000000E+00 0. -1.
         21   -1    0    0  501  503 -0.00000000000E+00 -0.00000000000E+00 -0.79175884922E+03  0.79175884922E+03  0.00000000000E+00 0. -1.
    9000007    1    1    2  501    0 -0.45208090081E+02  0.73634137400E+02 -0.58680375508E+03  0.71540506328E+03  0.40000000000E+03 0. -1.
   -9000007    1    1    2    0  502  0.45208090081E+02 -0.73634137400E+02  0.15700014796E+03  0.43830902804E+03  0.40000000000E+03 0. -1.
<mgrwt>
<rscale>  2 0.40922580E+03</rscale>
<asrwt>0</asrwt>
<pdfrwt beam="1">  1       21 0.55685423E-01 0.40922580E+03</pdfrwt>
<pdfrwt beam="2">  1       21 0.12180905E+00 0.40922580E+03</pdfrwt>
<totfact> 0.13421271E+03</totfact>
</mgrwt>
</event>
<event>
 4    1  0.4690138E-002  0.4997514E+03  0.7818608E-02  0.1013844E+00
         21   -1    0    0  503  502  0.00000000000E+00  0.00000000000E+00  0.60914109103E+03  0.60914109103E+03  0.00000000000E+00 0.  1.
         21   -1    0    0  501  503 -0.00000000000E+00 -0.00000000000E+00 -0.64962050976E+03  0.64962050976E+03  0.00000000000E+00 0. -1.
    9000007    1    1    2  501    0 -0.29701291841E+03 -0.39176135816E+02 -0.40248335147E+03  0.64167304099E+03  0.40000000000E+03 0. -1.
   -9000007    1    1    2    0  502  0.29701291841E+03  0.39176135816E+02  0.36200393274E+03  0.61708855980E+03  0.40000000000E+03 0.  1.
<mgrwt>
<rscale>  2 0.49975138E+03</rscale>
<asrwt>0</asrwt>
<pdfrwt beam="1">  1       21 0.93714014E-01 0.49975138E+03</pdfrwt>
<pdfrwt beam="2">  1       21 0.99941617E-01 0.49975138E+03</pdfrwt>
<totfact> 0.64875839E+02</totfact>
</mgrwt>
</event>
<event>
 4    1  0.4690138E-002  0.4971727E+03  0.7818608E-02  0.1014520E+00
         21   -1    0    0  503  502  0.00000000000E+00  0.00000000000E+00  0.17574481826E+03  0.17574481826E+03  0.00000000000E+00 0. -1.
         21   -1    0    0  501  503 -0.00000000000E+00 -0.00000000000E+00 -0.14203716843E+04  0.14203716843E+04  0.00000000000E+00 0.  1.
    9000007    1    1    2  501    0  0.28772436221E+03  0.66297660182E+02 -0.54337479626E+03  0.73650312801E+03  0.40000000000E+03 0. -1.
   -9000007    1    1    2    0  502 -0.28772436221E+03 -0.66297660182E+02 -0.70125206981E+03  0.85961337459E+03  0.40000000000E+03 0.  1.
<mgrwt>
<rscale>  2 0.49717269E+03</rscale>
<asrwt>0</asrwt>
<pdfrwt beam="1">  1       21 0.27037664E-01 0.49717269E+03</pdfrwt>
<pdfrwt beam="2">  1       21 0.21851872E+00 0.49717269E+03</pdfrwt>
<totfact> 0.10902283E+03</totfact>
</mgrwt>
</event>
<event>
 4    1  0.4690138E-002  0.4470083E+03  0.7818608E-02  0.1028618E+00
         21   -1    0    0  501  502  0.00000000000E+00  0.00000000000E+00  0.80582380410E+03  0.80582380410E+03  0.00000000000E+00 0.  1.
         21   -1    0    0  502  503 -0.00000000000E+00 -0.00000000000E+00 -0.67617581344E+03  0.67617581344E+03  0.00000000000E+00 0.  1.
    9000007    1    1    2  501    0 -0.11581966198E+03 -0.16248770733E+03  0.65450464265E+03  0.79258613184E+03  0.40000000000E+03 0.  1.
   -9000007    1    1    2    0  503  0.11581966198E+03  0.16248770733E+03 -0.52485665198E+03  0.68941348570E+03  0.40000000000E+03 0.  1.
<mgrwt>
<rscale>  2 0.44700833E+03</rscale>
<asrwt>0</asrwt>
<pdfrwt beam="1">  1       21 0.12397289E+00 0.44700833E+03</pdfrwt>
<pdfrwt beam="2">  1       21 0.10402705E+00 0.44700833E+03</pdfrwt>
<totfact> 0.30100119E+02</totfact>
</mgrwt>
</event>
<event>
 4    1  0.4690138E-002  0.4338802E+03  0.7818608E-02  0.1032641E+00
         21   -1    0    0  501  502  0.00000000000E+00  0.00000000000E+00  0.75746110431E+03  0.75746110431E+03  0.00000000000E+00 0.  1.
         21   -1    0    0  502  503 -0.00000000000E+00 -0.00000000000E+00 -0.51411614421E+03  0.51411614421E+03  0.00000000000E+00 0.  1.
    9000007    1    1    2  501    0  0.25693514212E+02  0.16610799408E+03  0.57863923758E+03  0.72323951056E+03  0.40000000000E+03 0.  1.
   -9000007    1    1    2    0  503 -0.25693514212E+02 -0.16610799408E+03 -0.33529427747E+03  0.54833773796E+03  0.40000000000E+03 0.  1.
<mgrwt>
<rscale>  2 0.43388019E+03</rscale>
<asrwt>0</asrwt>
<pdfrwt beam="1">  1       21 0.11653248E+00 0.43388019E+03</pdfrwt>
<pdfrwt beam="2">  1       21 0.79094791E-01 0.43388019E+03</pdfrwt>
<totfact> 0.67928452E+02</totfact>
</mgrwt>
</event>
<event>
 4    1  0.4690138E-002  0.4508459E+03  0.7818608E-02  0.1027470E+00
         21   -1    0    0  503  502  0.00000000000E+00  0.00000000000E+00  0.48185610896E+03  0.48185610896E+03  0.00000000000E+00 0. -1.
         21   -1    0    0  501  503 -0.00000000000E+00 -0.00000000000E+00 -0.63874195083E+03  0.63874195083E+03  0.00000000000E+00 0. -1.
    9000007    1    1    2  501    0  0.17022220307E+03 -0.11952601078E+03 -0.40495362956E+03  0.60601114492E+03  0.40000000000E+03 0.  1.
   -9000007    1    1    2    0  502 -0.17022220307E+03  0.11952601078E+03  0.24806778769E+03  0.51458691487E+03  0.40000000000E+03 0.  1.
<mgrwt>
<rscale>  2 0.45084594E+03</rscale>
<asrwt>0</asrwt>
<pdfrwt beam="1">  1       21 0.74131709E-01 0.45084594E+03</pdfrwt>
<pdfrwt beam="2">  1       21 0.98267993E-01 0.45084594E+03</pdfrwt>
<totfact> 0.11910523E+03</totfact>
</mgrwt>
</event>
<event>
 4    1  0.4690138E-002  0.4541499E+03  0.7818608E-02  0.1026492E+00
         21   -1    0    0  501  502  0.00000000000E+00  0.00000000000E+00  0.42742931686E+03  0.42742931686E+03  0.00000000000E+00 0. -1.
         21   -1    0    0  502  503 -0.00000000000E+00 -0.00000000000E+00 -0.51515180155E+03  0.51515180155E+03  0.00000000000E+00 0. -1.
    9000007    1    1    2  501    0 -0.21294152543E+03  0.30133411053E+02 -0.16243885734E+03  0.48232613250E+03  0.40000000000E+03 0. -1.
   -9000007    1    1    2    0  503  0.21294152543E+03 -0.30133411053E+02  0.74716372651E+02  0.46025498591E+03  0.40000000000E+03 0. -1.
<mgrwt>
<rscale>  2 0.45414988E+03</rscale>
<asrwt>0</asrwt>
<pdfrwt beam="1">  1       21 0.65758356E-01 0.45414988E+03</pdfrwt>
<pdfrwt beam="2">  1       21 0.79254123E-01 0.45414988E+03</pdfrwt>
<totfact> 0.25877893E+03</totfact>
</mgrwt>
</event>
<event>
 4    1  0.4690138E-002  0.5404540E+03  0.7818608E-02  0.1003728E+00
         21   -1    0    0  503  502  0.00000000000E+00  0.00000000000E+00  0.25019018372E+03  0.25019018372E+03  0.00000000000E+00 0.  1.
         21   -1    0    0  501  503 -0.00000000000E+00 -0.00000000000E+00 -0.15943833632E+04  0.15943833632E+04  0.00000000000E+00 0. -1.
    9000007    1    1    2  501    0  0.31374855380E+03 -0.18344576323E+03 -0.11493373265E+04  0.12700656649E+04  0.40000000000E+03 0. -1.
   -9000007    1    1    2    0  502 -0.31374855380E+03  0.18344576323E+03 -0.19485585295E+03  0.57450788201E+03  0.40000000000E+03 0.  1.
<mgrwt>
<rscale>  2 0.54045398E+03</rscale>
<asrwt>0</asrwt>
<pdfrwt beam="1">  1       21 0.38490798E-01 0.54045398E+03</pdfrwt>
<pdfrwt beam="2">  1       21 0.24528974E+00 0.54045398E+03</pdfrwt>
<totfact> 0.35637362E+02</totfact>
</mgrwt>
</event>
<event>
 4    1  0.4690138E-002  0.6058640E+03  0.7818608E-02  0.9893314E-01
         21   -1    0    0  503  502  0.00000000000E+00  0.00000000000E+00  0.74669698951E+03  0.74669698951E+03  0.00000000000E+00 0. -1.
         21   -1    0    0  501  503 -0.00000000000E+00 -0.00000000000E+00 -0.88939886026E+03  0.88939886026E+03  0.00000000000E+00 0. -1.
    9000007    1    1    2  501    0 -0.30733380895E+03 -0.33558477948E+03 -0.61844991435E+03  0.86576642976E+03  0.40000000000E+03 0. -1.
   -9000007    1    1    2    0  502  0.30733380895E+03  0.33558477948E+03  0.47574804360E+03  0.77032942001E+03  0.40000000000E+03 0. -1.
<mgrwt>
<rscale>  2 0.60586402E+03</rscale>
<asrwt>0</asrwt>
<pdfrwt beam="1">  1       21 0.11487646E+00 0.60586402E+03</pdfrwt>
<pdfrwt beam="2">  1       21 0.13683059E+00 0.60586402E+03</pdfrwt>
<totfact> 0.16987798E+02</totfact>
</mgrwt>
</event>
<event>
 4    1  0.4690138E-002  0.4111826E+03  0.7818608E-02  0.1039975E+00
         21   -1    0    0  501  502  0.00000000000E+00  0.00000000000E+00  0.20102261965E+03  0.20102261965E+03  0.00000000000E+00 0.  1.
         21   -1    0    0  502  503 -0.00000000000E+00 -0.00000000000E+00 -0.11024447273E+04  0.11024447273E+04  0.00000000000E+00 0.  1.
    9000007    1    1    2  501    0  0.50958633860E+01 -0.95105934950E+02 -0.13336296069E+03  0.43226934424E+03  0.40000000000E+03 0.  1.
   -9000007    1    1    2    0  503 -0.50958633860E+01  0.95105934950E+02 -0.76805914693E+03  0.87119800268E+03  0.40000000000E+03 0.  1.
<mgrwt>
<rscale>  2 0.41118257E+03</rscale>
<asrwt>0</asrwt>
<pdfrwt beam="1">  1       21 0.30926557E-01 0.41118257E+03</pdfrwt>
<pdfrwt beam="2">  1       21 0.16960688E+00 0.41118257E+03</pdfrwt>
<totfact> 0.18658723E+03</totfact>
</mgrwt>
</event>
<event>
 4    1  0.4690138E-002  0.4114293E+03  0.7818608E-02  0.1039892E+00
         21   -1    0    0  501  502  0.00000000000E+00  0.00000000000E+00  0.17142993119E+03  0.17142993119E+03  0.00000000000E+00 0. -1.
         21   -1    0    0  502  503 -0.00000000000E+00 -0.00000000000E+00 -0.11158324320E+04  0.11158324320E+04  0.00000000000E+00 0. -1.
    9000007    1    1    2  501    0  0.94245167504E+02  0.19797754230E+02 -0.25386109036E+03  0.48344550455E+03  0.40000000000E+03 0. -1.
   -9000007    1    1    2    0  503 -0.94245167504E+02 -0.19797754230E+02 -0.69054141042E+03  0.80381685861E+03  0.40000000000E+03 0. -1.
<mgrwt>
<rscale>  2 0.41142934E+03</rscale>
<asrwt>0</asrwt>
<pdfrwt beam="1">  1       21 0.26373835E-01 0.41142934E+03</pdfrwt>
<pdfrwt beam="2">  1       21 0.17166653E+00 0.41142934E+03</pdfrwt>
<totfact> 0.24678396E+03</totfact>
</mgrwt>
</event>
<event>
 4    1  0.4690138E-002  0.4186972E+03  0.7818608E-02  0.1037491E+00
         21   -1    0    0  503  502  0.00000000000E+00  0.00000000000E+00  0.43911649491E+03  0.43911649491E+03  0.00000000000E+00 0.  1.
         21   -1    0    0  501  503 -0.00000000000E+00 -0.00000000000E+00 -0.45367793469E+03  0.45367793469E+03  0.00000000000E+00 0. -1.
    9000007    1    1    2  501    0 -0.20472193074E+02  0.12201721767E+03  0.14736893108E+03  0.44387488546E+03  0.40000000000E+03 0.  1.
   -9000007    1    1    2    0  502  0.20472193074E+02 -0.12201721767E+03 -0.16193037086E+03  0.44891954413E+03  0.40000000000E+03 0. -1.
<mgrwt>
<rscale>  2 0.41869716E+03</rscale>
<asrwt>0</asrwt>
<pdfrwt beam="1">  1       21 0.67556384E-01 0.41869716E+03</pdfrwt>
<pdfrwt beam="2">  1       21 0.69796605E-01 0.41869716E+03</pdfrwt>
<totfact> 0.32964253E+03</totfact>
</mgrwt>
</event>
<event>
 4    1  0.4690138E-002  0.5167842E+03  0.7818608E-02  0.1009489E+00
         21   -1    0    0  503  502  0.00000000000E+00  0.00000000000E+00  0.17621495866E+04  0.17621495866E+04  0.00000000000E+00 0.  1.
         21   -1    0    0  501  503 -0.00000000000E+00 -0.00000000000E+00 -0.15167627503E+03  0.15167627503E+03  0.00000000000E+00 0.  1.
    9000007    1    1    2  501    0 -0.32272066774E+03 -0.54012008137E+02  0.77839108266E+03  0.93432253744E+03  0.40000000000E+03 0.  1.
   -9000007    1    1    2    0  502  0.32272066774E+03  0.54012008137E+02  0.83208222890E+03  0.97950332417E+03  0.40000000000E+03 0.  1.
<mgrwt>
<rscale>  2 0.51678422E+03</rscale>
<asrwt>0</asrwt>
<pdfrwt beam="1">  1       21 0.27109992E+00 0.51678422E+03</pdfrwt>
<pdfrwt beam="2">  1       21 0.23334813E-01 0.51678422E+03</pdfrwt>
<totfact> 0.67804859E+02</totfact>
</mgrwt>
</event>
<event>
 4    1  0.4690138E-002  0.7292816E+03  0.7818608E-02  0.9668427E-01
         21   -1    0    0  501  502  0.00000000000E+00  0.00000000000E+00  0.93536137704E+03  0.93536137704E+03  0.00000000000E+00 0.  1.
         21   -1    0    0  502  503 -0.00000000000E+00 -0.00000000000E+00 -0.59939911271E+03  0.59939911271E+03  0.00000000000E+00 0. -1.
    9000007    1    1    2  501    0  0.78583148084E+02  0.60471181771E+03  0.34191428104E+03  0.80545457304E+03  0.40000000000E+03 0.  1.
   -9000007    1    1    2    0  503 -0.78583148084E+02 -0.60471181771E+03 -0.59520167115E+01  0.72930591671E+03  0.40000000000E+03 0. -1.
<mgrwt>
<rscale>  2 0.72928163E+03</rscale>
<asrwt>0</asrwt>
<pdfrwt beam="1">  1       21 0.14390175E+00 0.72928163E+03</pdfrwt>
<pdfrwt beam="2">  1       21 0.92215248E-01 0.72928163E+03</pdfrwt>
<totfact> 0.24495044E+02</totfact>
</mgrwt>
</event>
<event>
 4    1  0.4690138E-002  0.6321334E+03  0.7818608E-02  0.9840894E-01
         21   -1    0    0  503  502  0.00000000000E+00  0.00000000000E+00  0.16359774591E+04  0.16359774591E+04  0.00000000000E+00 0.  1.
         21   -1    0    0  501  503 -0.00000000000E+00 -0.00000000000E+00 -0.38848440799E+03  0.38848440799E+03  0.00000000000E+00 0. -1.
    9000007    1    1    2  501    0 -0.38443828409E+03 -0.30298486250E+03  0.69775373049E+01  0.63217189688E+03  0.40000000000E+03 0. -1.
   -9000007    1    1    2    0  502  0.38443828409E+03  0.30298486250E+03  0.12405155138E+04  0.13922899702E+04  0.40000000000E+03 0.  1.
<mgrwt>
<rscale>  2 0.63213339E+03</rscale>
<asrwt>0</asrwt>
<pdfrwt beam="1">  1       21 0.25168884E+00 0.63213339E+03</pdfrwt>
<pdfrwt beam="2">  1       21 0.59766833E-01 0.63213339E+03</pdfrwt>
<totfact> 0.12258947E+02</totfact>
</mgrwt>
</event>
<event>
 4    1  0.4690138E-002  0.4526638E+03  0.7818608E-02  0.1026931E+00
         21   -1    0    0  503  502  0.00000000000E+00  0.00000000000E+00  0.11381743563E+04  0.11381743563E+04  0.00000000000E+00 0. -1.
         21   -1    0    0  501  503 -0.00000000000E+00 -0.00000000000E+00 -0.28173587517E+03  0.28173587517E+03  0.00000000000E+00 0.  1.
    9000007    1    1    2  501    0 -0.17255101855E+03  0.12300684180E+03  0.16547508156E+01  0.45266684806E+03  0.40000000000E+03 0.  1.
   -9000007    1    1    2    0  502  0.17255101855E+03 -0.12300684180E+03  0.85478373030E+03  0.96724338339E+03  0.40000000000E+03 0. -1.
<mgrwt>
<rscale>  2 0.45266382E+03</rscale>
<asrwt>0</asrwt>
<pdfrwt beam="1">  1       21 0.17510374E+00 0.45266382E+03</pdfrwt>
<pdfrwt beam="2">  1       21 0.43343981E-01 0.45266382E+03</pdfrwt>
<totfact> 0.84120014E+02</totfact>
</mgrwt>
</event>
<event>
 4    1  0.4690138E-002  0.4312328E+03  0.7818608E-02  0.1033471E+00
         21   -1    0    0  503  502  0.00000000000E+00  0.00000000000E+00  0.13509509262E+04  0.13509509262E+04  0.00000000000E+00 0.  1.
         21   -1    0    0  501  503 -0.00000000000E+00 -0.00000000000E+00 -0.88942918145E+03  0.88942918145E+03  0.00000000000E+00 0.  1.
    9000007    1    1    2  501    0  0.72764385165E+02 -0.14376038726E+03 -0.79910452144E+03  0.90803620020E+03  0.40000000000E+03 0.  1.
   -9000007    1    1    2    0  502 -0.72764385165E+02  0.14376038726E+03  0.12606262662E+04  0.13323439075E+04  0.40000000000E+03 0.  1.
<mgrwt>
<rscale>  2 0.43123277E+03</rscale>
<asrwt>0</asrwt>
<pdfrwt beam="1">  1       21 0.20783860E+00 0.43123277E+03</pdfrwt>
<pdfrwt beam="2">  1       21 0.13683526E+00 0.43123277E+03</pdfrwt>
<totfact> 0.35604273E+01</totfact>
</mgrwt>
</event>
<event>
 4    1  0.4690138E-002  0.4856342E+03  0.7818608E-02  0.1017598E+00
         21   -1    0    0  503  502  0.00000000000E+00  0.00000000000E+00  0.50621045704E+03  0.50621045704E+03  0.00000000000E+00 0. -1.
         21   -1    0    0  501  503 -0.00000000000E+00 -0.00000000000E+00 -0.57108342997E+03  0.57108342997E+03  0.00000000000E+00 0.  1.
    9000007    1    1    2  501    0  0.63361214716E+02  0.26800360327E+03 -0.26361092827E+03  0.55256791112E+03  0.40000000000E+03 0.  1.
   -9000007    1    1    2    0  502 -0.63361214716E+02 -0.26800360327E+03  0.19873795533E+03  0.52472597590E+03  0.40000000000E+03 0. -1.
<mgrwt>
<rscale>  2 0.48563420E+03</rscale>
<asrwt>0</asrwt>
<pdfrwt beam="1">  1       21 0.77878532E-01 0.48563420E+03</pdfrwt>
<pdfrwt beam="2">  1       21 0.87858989E-01 0.48563420E+03</pdfrwt>
<totfact> 0.13715146E+03</totfact>
</mgrwt>
</event>
<event>
 4    1  0.4690138E-002  0.6115966E+03  0.7818608E-02  0.9881635E-01
         21   -1    0    0  503  502  0.00000000000E+00  0.00000000000E+00  0.33675398144E+03  0.33675398144E+03  0.00000000000E+00 0.  1.
         21   -1    0    0  501  503 -0.00000000000E+00 -0.00000000000E+00 -0.11917186545E+04  0.11917186545E+04  0.00000000000E+00 0. -1.
    9000007    1    1    2  501    0 -0.27576965467E+02  0.46183321723E+03 -0.22828115928E+03  0.65281137953E+03  0.40000000000E+03 0.  1.
   -9000007    1    1    2    0  502  0.27576965467E+02 -0.46183321723E+03 -0.62668351381E+03  0.87566125645E+03  0.40000000000E+03 0. -1.
<mgrwt>
<rscale>  2 0.61159661E+03</rscale>
<asrwt>0</asrwt>
<pdfrwt beam="1">  1       21 0.51808305E-01 0.61159661E+03</pdfrwt>
<pdfrwt beam="2">  1       21 0.18334133E+00 0.61159661E+03</pdfrwt>
<totfact> 0.47325331E+02</totfact>
</mgrwt>
</event>
<event>
 4    1  0.4690138E-002  0.5141029E+03  0.7818608E-02  0.1010162E+00
         21   -1    0    0  503  502  0.00000000000E+00  0.00000000000E+00  0.86220068330E+03  0.86220068330E+03  0.00000000000E+00 0. -1.
         21   -1    0    0  501  503 -0.00000000000E+00 -0.00000000000E+00 -0.31514877767E+03  0.31514877767E+03  0.00000000000E+00 0. -1.
    9000007    1    1    2  501    0  0.30472601266E+03 -0.10697587205E+03  0.37080222222E+03  0.63387385811E+03  0.40000000000E+03 0. -1.
   -9000007    1    1    2    0  502 -0.30472601266E+03  0.10697587205E+03  0.17624968342E+03  0.54347560286E+03  0.40000000000E+03 0. -1.
<mgrwt>
<rscale>  2 0.51410289E+03</rscale>
<asrwt>0</asrwt>
<pdfrwt beam="1">  1       21 0.13264626E+00 0.51410289E+03</pdfrwt>
<pdfrwt beam="2">  1       21 0.48484428E-01 0.51410289E+03</pdfrwt>
<totfact> 0.13897738E+03</totfact>
</mgrwt>
</event>
<event>
 4    1  0.4690138E-002  0.4378004E+03  0.7818608E-02  0.1031424E+00
         21   -1    0    0  503  502  0.00000000000E+00  0.00000000000E+00  0.21844768741E+03  0.21844768741E+03  0.00000000000E+00 0.  1.
         21   -1    0    0  501  503 -0.00000000000E+00 -0.00000000000E+00 -0.14808910007E+04  0.14808910007E+04  0.00000000000E+00 0.  1.
    9000007    1    1    2  501    0 -0.17009631503E+03 -0.52311005497E+02 -0.11736202266E+04  0.12526187105E+04  0.40000000000E+03 0.  1.
   -9000007    1    1    2    0  502  0.17009631503E+03  0.52311005497E+02 -0.88823086746E+02  0.44671997764E+03  0.40000000000E+03 0.  1.
<mgrwt>
<rscale>  2 0.43780041E+03</rscale>
<asrwt>0</asrwt>
<pdfrwt beam="1">  1       21 0.33607338E-01 0.43780041E+03</pdfrwt>
<pdfrwt beam="2">  1       21 0.22782937E+00 0.43780041E+03</pdfrwt>
<totfact> 0.63439572E+02</totfact>
</mgrwt>
</event>
<event>
 4    1  0.4690138E-002  0.4210363E+03  0.7818608E-02  0.1036730E+00
         21   -1    0    0  503  502  0.00000000000E+00  0.00000000000E+00  0.73797096873E+03  0.73797096873E+03  0.00000000000E+00 0.  1.
         21   -1    0    0  501  503 -0.00000000000E+00 -0.00000000000E+00 -0.70194177685E+03  0.70194177685E+03  0.00000000000E+00 0.  1.
    9000007    1    1    2  501    0  0.13119335417E+03  0.77353336805E+01 -0.56589857372E+03  0.70534582107E+03  0.40000000000E+03 0.  1.
   -9000007    1    1    2    0  502 -0.13119335417E+03 -0.77353336805E+01  0.60192776560E+03  0.73456692450E+03  0.40000000000E+03 0.  1.
<mgrwt>
<rscale>  2 0.42103626E+03</rscale>
<asrwt>0</asrwt>
<pdfrwt beam="1">  1       21 0.11353399E+00 0.42103626E+03</pdfrwt>
<pdfrwt beam="2">  1       21 0.10799104E+00 0.42103626E+03</pdfrwt>
<totfact> 0.34731001E+02</totfact>
</mgrwt>
</event>
<event>
 4    1  0.4690138E-002  0.4294333E+03  0.7818608E-02  0.1034039E+00
         21   -1    0    0  501  502  0.00000000000E+00  0.00000000000E+00  0.26235080725E+03  0.26235080725E+03  0.00000000000E+00 0.  1.
         21   -1    0    0  502  503 -0.00000000000E+00 -0.00000000000E+00 -0.10048474138E+04  0.10048474138E+04  0.00000000000E+00 0. -1.
    9000007    1    1    2  501    0 -0.99474168923E+02 -0.12048986365E+03 -0.23942338863E+02  0.43010016637E+03  0.40000000000E+03 0.  1.
   -9000007    1    1    2    0  503  0.99474168923E+02  0.12048986365E+03 -0.71855426766E+03  0.83709805465E+03  0.40000000000E+03 0. -1.
<mgrwt>
<rscale>  2 0.42943325E+03</rscale>
<asrwt>0</asrwt>
<pdfrwt beam="1">  1       21 0.40361663E-01 0.42943325E+03</pdfrwt>
<pdfrwt beam="2">  1       21 0.15459191E+00 0.42943325E+03</pdfrwt>
<totfact> 0.13987052E+03</totfact>
</mgrwt>
</event>
<event>
 4    1  0.4690138E-002  0.4236442E+03  0.7818608E-02  0.1035887E+00
         21   -1    0    0  503  502  0.00000000000E+00  0.00000000000E+00  0.12070305567E+04  0.12070305567E+04  0.00000000000E+00 0.  1.
         21   -1    0    0  501  503 -0.00000000000E+00 -0.00000000000E+00 -0.24741954259E+03  0.24741954259E+03  0.00000000000E+00 0.  1.
    9000007    1    1    2  501    0  0.27623445973E+02  0.13678931131E+03  0.20423928330E+02  0.42413618957E+03  0.40000000000E+03 0.  1.
   -9000007    1    1    2    0  502 -0.27623445973E+02 -0.13678931131E+03  0.93918708582E+03  0.10303139098E+04  0.40000000000E+03 0.  1.
<mgrwt>
<rscale>  2 0.42364416E+03</rscale>
<asrwt>0</asrwt>
<pdfrwt beam="1">  1       21 0.18569701E+00 0.42364416E+03</pdfrwt>
<pdfrwt beam="2">  1       21 0.38064546E-01 0.42364416E+03</pdfrwt>
<totfact> 0.93886960E+02</totfact>
</mgrwt>
</event>
<event>
 4    1  0.4690138E-002  0.4129387E+03  0.7818608E-02  0.1039389E+00
         21   -1    0    0  501  502  0.00000000000E+00  0.00000000000E+00  0.13811086338E+04  0.13811086338E+04  0.00000000000E+00 0.  1.
         21   -1    0    0  502  503 -0.00000000000E+00 -0.00000000000E+00 -0.41893375375E+03  0.41893375375E+03  0.00000000000E+00 0.  1.
    9000007    1    1    2  501    0 -0.95945903433E+02  0.36231887460E+02  0.12369380231E+04  0.13040452596E+04  0.40000000000E+03 0.  1.
   -9000007    1    1    2    0  503  0.95945903433E+02 -0.36231887460E+02 -0.27476314312E+03  0.49599712789E+03  0.40000000000E+03 0.  1.
<mgrwt>
<rscale>  2 0.41293870E+03</rscale>
<asrwt>0</asrwt>
<pdfrwt beam="1">  1       21 0.21247825E+00 0.41293870E+03</pdfrwt>
<pdfrwt beam="2">  1       21 0.64451347E-01 0.41293870E+03</pdfrwt>
<totfact> 0.20450386E+02</totfact>
</mgrwt>
</event>
<event>
 4    1  0.4690138E-002  0.4251999E+03  0.7818608E-02  0.1035387E+00
         21   -1    0    0  501  502  0.00000000000E+00  0.00000000000E+00  0.31459080596E+03  0.31459080596E+03  0.00000000000E+00 0.  1.
         21   -1    0    0  502  503 -0.00000000000E+00 -0.00000000000E+00 -0.15934391564E+04  0.15934391564E+04  0.00000000000E+00 0.  1.
    9000007    1    1    2  501    0 -0.85143132861E+02  0.11638553315E+03  0.12339081065E+03  0.44274172782E+03  0.40000000000E+03 0.  1.
   -9000007    1    1    2    0  503  0.85143132861E+02 -0.11638553315E+03 -0.14022391611E+04  0.14652882345E+04  0.40000000000E+03 0.  1.
<mgrwt>
<rscale>  2 0.42519989E+03</rscale>
<asrwt>0</asrwt>
<pdfrwt beam="1">  1       21 0.48398585E-01 0.42519989E+03</pdfrwt>
<pdfrwt beam="2">  1       21 0.24514449E+00 0.42519989E+03</pdfrwt>
<totfact> 0.23498010E+02</totfact>
</mgrwt>
</event>
<event>
 4    1  0.4690138E-002  0.4888892E+03  0.7818608E-02  0.1016720E+00
         21   -1    0    0  501  502  0.00000000000E+00  0.00000000000E+00  0.20549326637E+04  0.20549326637E+04  0.00000000000E+00 0. -1.
         21   -1    0    0  502  503 -0.00000000000E+00 -0.00000000000E+00 -0.11857227181E+03  0.11857227181E+03  0.00000000000E+00 0.  1.
    9000007    1    1    2  501    0 -0.18514046295E+03 -0.21150814592E+03  0.81812557569E+03  0.95306985285E+03  0.40000000000E+03 0. -1.
   -9000007    1    1    2    0  503  0.18514046295E+03  0.21150814592E+03  0.11182348162E+04  0.12204350827E+04  0.40000000000E+03 0. -1.
<mgrwt>
<rscale>  2 0.48888924E+03</rscale>
<asrwt>0</asrwt>
<pdfrwt beam="1">  1       21 0.31614346E+00 0.48888924E+03</pdfrwt>
<pdfrwt beam="2">  1       21 0.18241889E-01 0.48888924E+03</pdfrwt>
<totfact> 0.58766972E+02</totfact>
</mgrwt>
</event>
<event>
 4    1  0.4690138E-002  0.4191557E+03  0.7818608E-02  0.1037341E+00
         21   -1    0    0  503  502  0.00000000000E+00  0.00000000000E+00  0.68788323369E+03  0.68788323369E+03  0.00000000000E+00 0.  1.
         21   -1    0    0  501  503 -0.00000000000E+00 -0.00000000000E+00 -0.25584808657E+03  0.25584808657E+03  0.00000000000E+00 0.  1.
    9000007    1    1    2  501    0 -0.71838729290E+02  0.10261913300E+03  0.19646700445E+03  0.46291551424E+03  0.40000000000E+03 0.  1.
   -9000007    1    1    2    0  502  0.71838729290E+02 -0.10261913300E+03  0.23556814267E+03  0.48081580603E+03  0.40000000000E+03 0.  1.
<mgrwt>
<rscale>  2 0.41915569E+03</rscale>
<asrwt>0</asrwt>
<pdfrwt beam="1">  1       21 0.10582819E+00 0.41915569E+03</pdfrwt>
<pdfrwt beam="2">  1       21 0.39361244E-01 0.41915569E+03</pdfrwt>
<totfact> 0.39396301E+03</totfact>
</mgrwt>
</event>
<event>
 4    1  0.4690138E-002  0.4672083E+03  0.7818608E-02  0.1022711E+00
         21   -1    0    0  501  502  0.00000000000E+00  0.00000000000E+00  0.13513379114E+04  0.13513379114E+04  0.00000000000E+00 0.  1.
         21   -1    0    0  502  503 -0.00000000000E+00 -0.00000000000E+00 -0.22251804058E+03  0.22251804058E+03  0.00000000000E+00 0. -1.
    9000007    1    1    2  501    0  0.79462178445E+02 -0.22796798119E+03  0.97638352473E+03  0.10824086223E+04  0.40000000000E+03 0.  1.
   -9000007    1    1    2    0  503 -0.79462178445E+02  0.22796798119E+03  0.15243634610E+03  0.49144732969E+03  0.40000000000E+03 0.  1.
<mgrwt>
<rscale>  2 0.46720835E+03</rscale>
<asrwt>0</asrwt>
<pdfrwt beam="1">  1       21 0.20789814E+00 0.46720835E+03</pdfrwt>
<pdfrwt beam="2">  1       21 0.34233546E-01 0.46720835E+03</pdfrwt>
<totfact> 0.80916630E+02</totfact>
</mgrwt>
</event>
<event>
 4    1  0.4690138E-002  0.4015950E+03  0.7818608E-02  0.1043229E+00
         21   -1    0    0  501  502  0.00000000000E+00  0.00000000000E+00  0.38973308519E+03  0.38973308519E+03  0.00000000000E+00 0. -1.
         21   -1    0    0  502  503 -0.00000000000E+00 -0.00000000000E+00 -0.50485246136E+03  0.50485246136E+03  0.00000000000E+00 0. -1.
    9000007    1    1    2  501    0  0.26378955734E+02 -0.24139816722E+02  0.13237857796E+03  0.42285064498E+03  0.40000000000E+03 0. -1.
   -9000007    1    1    2    0  503 -0.26378955734E+02  0.24139816722E+02 -0.24749795413E+03  0.47173490156E+03  0.40000000000E+03 0. -1.
<mgrwt>
<rscale>  2 0.40159504E+03</rscale>
<asrwt>0</asrwt>
<pdfrwt beam="1">  1       21 0.59958936E-01 0.40159504E+03</pdfrwt>
<pdfrwt beam="2">  1       21 0.77669609E-01 0.40159504E+03</pdfrwt>
<totfact> 0.33891631E+03</totfact>
</mgrwt>
</event>
<event>
 4    1  0.4690138E-002  0.4454328E+03  0.7818608E-02  0.1029093E+00
         21   -1    0    0  503  502  0.00000000000E+00  0.00000000000E+00  0.18898419184E+03  0.18898419184E+03  0.00000000000E+00 0. -1.
         21   -1    0    0  501  503 -0.00000000000E+00 -0.00000000000E+00 -0.18555910886E+04  0.18555910886E+04  0.00000000000E+00 0. -1.
    9000007    1    1    2  501    0  0.12962895318E+03 -0.14699223507E+03 -0.15069345450E+04  0.15713885915E+04  0.40000000000E+03 0. -1.
   -9000007    1    1    2    0  502 -0.12962895318E+03  0.14699223507E+03 -0.15967235181E+03  0.47318668896E+03  0.40000000000E+03 0. -1.
<mgrwt>
<rscale>  2 0.44543280E+03</rscale>
<asrwt>0</asrwt>
<pdfrwt beam="1">  1       21 0.29074491E-01 0.44543280E+03</pdfrwt>
<pdfrwt beam="2">  1       21 0.28547555E+00 0.44543280E+03</pdfrwt>
<totfact> 0.37436330E+02</totfact>
</mgrwt>
</event>
<event>
 4    1  0.4690138E-002  0.5034257E+03  0.7818608E-02  0.1012889E+00
         21   -1    0    0  503  502  0.00000000000E+00  0.00000000000E+00  0.47418700824E+03  0.47418700824E+03  0.00000000000E+00 0. -1.
         21   -1    0    0  501  503 -0.00000000000E+00 -0.00000000000E+00 -0.55884267694E+03  0.55884267694E+03  0.00000000000E+00 0. -1.
    9000007    1    1    2  501    0 -0.30105130127E+03 -0.52967216052E+02 -0.15020124451E+03  0.52535495223E+03  0.40000000000E+03 0. -1.
   -9000007    1    1    2    0  502  0.30105130127E+03  0.52967216052E+02  0.65545575810E+02  0.50767473296E+03  0.40000000000E+03 0. -1.
<mgrwt>
<rscale>  2 0.50342568E+03</rscale>
<asrwt>0</asrwt>
<pdfrwt beam="1">  1       21 0.72951847E-01 0.50342568E+03</pdfrwt>
<pdfrwt beam="2">  1       21 0.85975797E-01 0.50342568E+03</pdfrwt>
<totfact> 0.16657417E+03</totfact>
</mgrwt>
</event>
<event>
 4    1  0.4690138E-002  0.4306769E+03  0.7818608E-02  0.1033646E+00
         21   -1    0    0  503  502  0.00000000000E+00  0.00000000000E+00  0.73396213646E+03  0.73396213646E+03  0.00000000000E+00 0.  1.
         21   -1    0    0  501  503 -0.00000000000E+00 -0.00000000000E+00 -0.27086180782E+03  0.27086180782E+03  0.00000000000E+00 0.  1.
    9000007    1    1    2  501    0 -0.85318693002E+02 -0.13491967453E+03  0.10150425304E+03  0.44247679186E+03  0.40000000000E+03 0.  1.
   -9000007    1    1    2    0  502  0.85318693002E+02  0.13491967453E+03  0.36159607559E+03  0.56234715242E+03  0.40000000000E+03 0.  1.
<mgrwt>
<rscale>  2 0.43067691E+03</rscale>
<asrwt>0</asrwt>
<pdfrwt beam="1">  1       21 0.11291725E+00 0.43067691E+03</pdfrwt>
<pdfrwt beam="2">  1       21 0.41671048E-01 0.43067691E+03</pdfrwt>
<totfact> 0.29705386E+03</totfact>
</mgrwt>
</event>
<event>
 4    1  0.4690138E-002  0.4048416E+03  0.7818608E-02  0.1042116E+00
         21   -1    0    0  501  502  0.00000000000E+00  0.00000000000E+00  0.87522226621E+02  0.87522226621E+02  0.00000000000E+00 0.  1.
         21   -1    0    0  502  503 -0.00000000000E+00 -0.00000000000E+00 -0.19343081779E+04  0.19343081779E+04  0.00000000000E+00 0.  1.
    9000007    1    1    2  501    0 -0.62132472099E+02  0.60251162857E+01 -0.74287614230E+03  0.84602701429E+03  0.40000000000E+03 0.  1.
   -9000007    1    1    2    0  503  0.62132472099E+02 -0.60251162857E+01 -0.11039098090E+04  0.11758033903E+04  0.40000000000E+03 0.  1.
<mgrwt>
<rscale>  2 0.40484163E+03</rscale>
<asrwt>0</asrwt>
<pdfrwt beam="1">  1       21 0.13464958E-01 0.40484163E+03</pdfrwt>
<pdfrwt beam="2">  1       21 0.29758586E+00 0.40484163E+03</pdfrwt>
<totfact> 0.14011455E+03</totfact>
</mgrwt>
</event>
<event>
 4    1  0.4690138E-002  0.4439215E+03  0.7818608E-02  0.1029550E+00
         21   -1    0    0  501  502  0.00000000000E+00  0.00000000000E+00  0.14202863405E+04  0.14202863405E+04  0.00000000000E+00 0.  1.
         21   -1    0    0  502  503 -0.00000000000E+00 -0.00000000000E+00 -0.16107338067E+03  0.16107338067E+03  0.00000000000E+00 0.  1.
    9000007    1    1    2  501    0 -0.48691520933E+02  0.18626721739E+03  0.92395221038E+03  0.10250629383E+04  0.40000000000E+03 0.  1.
   -9000007    1    1    2    0  503  0.48691520933E+02 -0.18626721739E+03  0.33526074948E+03  0.55629678286E+03  0.40000000000E+03 0.  1.
<mgrwt>
<rscale>  2 0.44392155E+03</rscale>
<asrwt>0</asrwt>
<pdfrwt beam="1">  1       21 0.21850558E+00 0.44392155E+03</pdfrwt>
<pdfrwt beam="2">  1       21 0.24780521E-01 0.44392155E+03</pdfrwt>
<totfact> 0.13241270E+03</totfact>
</mgrwt>
</event>
<event>
 4    1  0.4690138E-002  0.4139614E+03  0.7818608E-02  0.1039050E+00
         21   -1    0    0  503  502  0.00000000000E+00  0.00000000000E+00  0.58367141477E+03  0.58367141477E+03  0.00000000000E+00 0. -1.
         21   -1    0    0  501  503 -0.00000000000E+00 -0.00000000000E+00 -0.43753770281E+03  0.43753770281E+03  0.00000000000E+00 0. -1.
    9000007    1    1    2  501    0  0.91901515754E+02  0.54019932950E+02 -0.21979924419E+03  0.46869579633E+03  0.40000000000E+03 0. -1.
   -9000007    1    1    2    0  502 -0.91901515754E+02 -0.54019932950E+02  0.36593295615E+03  0.55251332124E+03  0.40000000000E+03 0. -1.
<mgrwt>
<rscale>  2 0.41396140E+03</rscale>
<asrwt>0</asrwt>
<pdfrwt beam="1">  1       21 0.89795602E-01 0.41396140E+03</pdfrwt>
<pdfrwt beam="2">  1       21 0.67313493E-01 0.41396140E+03</pdfrwt>
<totfact> 0.18638387E+03</totfact>
</mgrwt>
</event>
<event>
 4    1  0.4690138E-002  0.4316498E+03  0.7818608E-02  0.1033340E+00
         21   -1    0    0  503  502  0.00000000000E+00  0.00000000000E+00  0.19240668637E+03  0.19240668637E+03  0.00000000000E+00 0.  1.
         21   -1    0    0  501  503 -0.00000000000E+00 -0.00000000000E+00 -0.10498953074E+04  0.10498953074E+04  0.00000000000E+00 0.  1.
    9000007    1    1    2  501    0  0.15504038849E+03 -0.47791741868E+02 -0.60182977014E+03  0.74062179611E+03  0.40000000000E+03 0. -1.
   -9000007    1    1    2    0  502 -0.15504038849E+03  0.47791741868E+02 -0.25565885085E+03  0.50168019761E+03  0.40000000000E+03 0. -1.
<mgrwt>
<rscale>  2 0.43164983E+03</rscale>
<asrwt>0</asrwt>
<pdfrwt beam="1">  1       21 0.29601028E-01 0.43164983E+03</pdfrwt>
<pdfrwt beam="2">  1       21 0.16152236E+00 0.43164983E+03</pdfrwt>
<totfact> 0.23148786E+03</totfact>
</mgrwt>
</event>
<event>
 4    1  0.4690138E-002  0.4444646E+03  0.7818608E-02  0.1029386E+00
         21   -1    0    0  503  502  0.00000000000E+00  0.00000000000E+00  0.92745537844E+03  0.92745537844E+03  0.00000000000E+00 0.  1.
         21   -1    0    0  501  503 -0.00000000000E+00 -0.00000000000E+00 -0.21303130124E+03  0.21303130124E+03  0.00000000000E+00 0.  1.
    9000007    1    1    2  501    0 -0.19327009073E+03 -0.13980235194E+02  0.36403087375E+03  0.57451479702E+03  0.40000000000E+03 0.  1.
   -9000007    1    1    2    0  502  0.19327009073E+03  0.13980235194E+02  0.35039320344E+03  0.56597188266E+03  0.40000000000E+03 0.  1.
<mgrwt>
<rscale>  2 0.44446459E+03</rscale>
<asrwt>0</asrwt>
<pdfrwt beam="1">  1       21 0.14268544E+00 0.44446459E+03</pdfrwt>
<pdfrwt beam="2">  1       21 0.32774047E-01 0.44446459E+03</pdfrwt>
<totfact> 0.26366038E+03</totfact>
</mgrwt>
</event>
<event>
 4    1  0.4690138E-002  0.4178931E+03  0.7818608E-02  0.1037754E+00
         21   -1    0    0  503  502  0.00000000000E+00  0.00000000000E+00  0.14131334990E+03  0.14131334990E+03  0.00000000000E+00 0.  1.
         21   -1    0    0  501  503 -0.00000000000E+00 -0.00000000000E+00 -0.13738681261E+04  0.13738681261E+04  0.00000000000E+00 0.  1.
    9000007    1    1    2  501    0 -0.77662798481E+02  0.92753031269E+02 -0.85644438624E+03  0.95295940197E+03  0.40000000000E+03 0.  1.
   -9000007    1    1    2    0  502  0.77662798481E+02 -0.92753031269E+02 -0.37611038995E+03  0.56222207401E+03  0.40000000000E+03 0.  1.
<mgrwt>
<rscale>  2 0.41789309E+03</rscale>
<asrwt>0</asrwt>
<pdfrwt beam="1">  1       21 0.21740514E-01 0.41789309E+03</pdfrwt>
<pdfrwt beam="2">  1       21 0.21136434E+00 0.41789309E+03</pdfrwt>
<totfact> 0.19183261E+03</totfact>
</mgrwt>
</event>
<event>
 4    1  0.4690138E-002  0.4471314E+03  0.7818608E-02  0.1028581E+00
         21   -1    0    0  501  502  0.00000000000E+00  0.00000000000E+00  0.41789911413E+03  0.41789911413E+03  0.00000000000E+00 0.  1.
         21   -1    0    0  502  503 -0.00000000000E+00 -0.00000000000E+00 -0.81006258758E+03  0.81006258758E+03  0.00000000000E+00 0.  1.
    9000007    1    1    2  501    0  0.12636844947E+03  0.15478203466E+03  0.19677866401E+03  0.48851643359E+03  0.40000000000E+03 0.  1.
   -9000007    1    1    2    0  503 -0.12636844947E+03 -0.15478203466E+03 -0.58894213746E+03  0.73944526813E+03  0.40000000000E+03 0.  1.
<mgrwt>
<rscale>  2 0.44713137E+03</rscale>
<asrwt>0</asrwt>
<pdfrwt beam="1">  1       21 0.64292172E-01 0.44713137E+03</pdfrwt>
<pdfrwt beam="2">  1       21 0.12462501E+00 0.44713137E+03</pdfrwt>
<totfact> 0.90922788E+02</totfact>
</mgrwt>
</event>
<event>
 4    1  0.4690138E-002  0.4005742E+03  0.7818608E-02  0.1043581E+00
         21   -1    0    0  501  502  0.00000000000E+00  0.00000000000E+00  0.40792539315E+03  0.40792539315E+03  0.00000000000E+00 0.  1.
         21   -1    0    0  502  503 -0.00000000000E+00 -0.00000000000E+00 -0.43562214370E+03  0.43562214370E+03  0.00000000000E+00 0.  1.
    9000007    1    1    2  501    0 -0.21441126580E+02 -0.23495414704E-01 -0.14522652847E+03  0.42608739366E+03  0.40000000000E+03 0.  1.
   -9000007    1    1    2    0  503  0.21441126580E+02  0.23495414704E-01  0.11752977792E+03  0.41746014320E+03  0.40000000000E+03 0.  1.
<mgrwt>
<rscale>  2 0.40057424E+03</rscale>
<asrwt>0</asrwt>
<pdfrwt beam="1">  1       21 0.62757753E-01 0.40057424E+03</pdfrwt>
<pdfrwt beam="2">  1       21 0.67018791E-01 0.40057424E+03</pdfrwt>
<totfact> 0.42802643E+03</totfact>
</mgrwt>
</event>
<event>
 4    1  0.4690138E-002  0.4388623E+03  0.7818608E-02  0.1031096E+00
         21   -1    0    0  503  502  0.00000000000E+00  0.00000000000E+00  0.66416357412E+03  0.66416357412E+03  0.00000000000E+00 0. -1.
         21   -1    0    0  501  503 -0.00000000000E+00 -0.00000000000E+00 -0.32213070990E+03  0.32213070990E+03  0.00000000000E+00 0.  1.
    9000007    1    1    2  501    0  0.17782551300E+03  0.31276942886E+02  0.32679031440E+03  0.54716731428E+03  0.40000000000E+03 0. -1.
   -9000007    1    1    2    0  502 -0.17782551300E+03 -0.31276942886E+02  0.15242549824E+02  0.43912696974E+03  0.40000000000E+03 0.  1.
<mgrwt>
<rscale>  2 0.43886235E+03</rscale>
<asrwt>0</asrwt>
<pdfrwt beam="1">  1       21 0.10217901E+00 0.43886235E+03</pdfrwt>
<pdfrwt beam="2">  1       21 0.49558571E-01 0.43886235E+03</pdfrwt>
<totfact> 0.26351777E+03</totfact>
</mgrwt>
</event>
<event>
 4    1  0.4690138E-002  0.5722423E+03  0.7818608E-02  0.9964729E-01
         21   -1    0    0  501  502  0.00000000000E+00  0.00000000000E+00  0.22098763594E+03  0.22098763594E+03  0.00000000000E+00 0.  1.
         21   -1    0    0  502  503 -0.00000000000E+00 -0.00000000000E+00 -0.16627261046E+04  0.16627261046E+04  0.00000000000E+00 0.  1.
    9000007    1    1    2  501    0  0.39387879240E+03  0.11099875934E+03 -0.41018753567E+03  0.70407033888E+03  0.40000000000E+03 0.  1.
   -9000007    1    1    2    0  503 -0.39387879240E+03 -0.11099875934E+03 -0.10315509330E+04  0.11796434016E+04  0.40000000000E+03 0.  1.
<mgrwt>
<rscale>  2 0.57224228E+03</rscale>
<asrwt>0</asrwt>
<pdfrwt beam="1">  1       21 0.33998099E-01 0.57224228E+03</pdfrwt>
<pdfrwt beam="2">  1       21 0.25580400E+00 0.57224228E+03</pdfrwt>
<totfact> 0.38972675E+02</totfact>
</mgrwt>
</event>
<event>
 4    1  0.4690138E-002  0.4649465E+03  0.7818608E-02  0.1023356E+00
         21   -1    0    0  503  502  0.00000000000E+00  0.00000000000E+00  0.19587383660E+04  0.19587383660E+04  0.00000000000E+00 0. -1.
         21   -1    0    0  501  503 -0.00000000000E+00 -0.00000000000E+00 -0.14715930307E+03  0.14715930307E+03  0.00000000000E+00 0. -1.
    9000007    1    1    2  501    0 -0.56926956320E+02  0.23007507887E+03  0.14322994153E+04  0.15058741100E+04  0.40000000000E+03 0. -1.
   -9000007    1    1    2    0  502  0.56926956320E+02 -0.23007507887E+03  0.37927964767E+03  0.60002355905E+03  0.40000000000E+03 0. -1.
<mgrwt>
<rscale>  2 0.46494647E+03</rscale>
<asrwt>0</asrwt>
<pdfrwt beam="1">  1       21 0.30134434E+00 0.46494647E+03</pdfrwt>
<pdfrwt beam="2">  1       21 0.22639894E-01 0.46494647E+03</pdfrwt>
<totfact> 0.48429152E+02</totfact>
</mgrwt>
</event>
<event>
 4    1  0.4690138E-002  0.4056969E+03  0.7818608E-02  0.1041825E+00
         21   -1    0    0  501  502  0.00000000000E+00  0.00000000000E+00  0.10725524249E+04  0.10725524249E+04  0.00000000000E+00 0. -1.
         21   -1    0    0  502  503 -0.00000000000E+00 -0.00000000000E+00 -0.34662642491E+03  0.34662642491E+03  0.00000000000E+00 0. -1.
    9000007    1    1    2  501    0  0.65876033927E+02  0.15821352875E+02  0.89268283929E+03  0.98054710168E+03  0.40000000000E+03 0. -1.
   -9000007    1    1    2    0  503 -0.65876033927E+02 -0.15821352875E+02 -0.16675683926E+03  0.43863174816E+03  0.40000000000E+03 0. -1.
<mgrwt>
<rscale>  2 0.40569689E+03</rscale>
<asrwt>0</asrwt>
<pdfrwt beam="1">  1       21 0.16500806E+00 0.40569689E+03</pdfrwt>
<pdfrwt beam="2">  1       21 0.53327143E-01 0.40569689E+03</pdfrwt>
<totfact> 0.65727036E+02</totfact>
</mgrwt>
</event>
<event>
 4    1  0.4690138E-002  0.5227287E+03  0.7818608E-02  0.1008011E+00
         21   -1    0    0  501  502  0.00000000000E+00  0.00000000000E+00  0.39399591441E+03  0.39399591441E+03  0.00000000000E+00 0. -1.
         21   -1    0    0  502  503 -0.00000000000E+00 -0.00000000000E+00 -0.69354981949E+03  0.69354981949E+03  0.00000000000E+00 0. -1.
    9000007    1    1    2  501    0  0.30706755219E+03  0.13767628697E+03 -0.14639758448E+03  0.54284205285E+03  0.40000000000E+03 0. -1.
   -9000007    1    1    2    0  503 -0.30706755219E+03 -0.13767628697E+03 -0.15315632061E+03  0.54470368105E+03  0.40000000000E+03 0. -1.
<mgrwt>
<rscale>  2 0.52272865E+03</rscale>
<asrwt>0</asrwt>
<pdfrwt beam="1">  1       21 0.60614756E-01 0.52272865E+03</pdfrwt>
<pdfrwt beam="2">  1       21 0.10669997E+00 0.52272865E+03</pdfrwt>
<totfact> 0.14878331E+03</totfact>
</mgrwt>
</event>
<event>
 4    1  0.4690138E-002  0.6138369E+03  0.7818608E-02  0.9877108E-01
         21   -1    0    0  501  502  0.00000000000E+00  0.00000000000E+00  0.62078681826E+03  0.62078681826E+03  0.00000000000E+00 0. -1.
         21   -1    0    0  502  503 -0.00000000000E+00 -0.00000000000E+00 -0.66232307006E+03  0.66232307006E+03  0.00000000000E+00 0. -1.
    9000007    1    1    2  501    0 -0.29041915320E+03 -0.36394016031E+03  0.16470897964E+03  0.63555076336E+03  0.40000000000E+03 0. -1.
   -9000007    1    1    2    0  503  0.29041915320E+03  0.36394016031E+03 -0.20624523144E+03  0.64755912496E+03  0.40000000000E+03 0. -1.
<mgrwt>
<rscale>  2 0.61383689E+03</rscale>
<asrwt>0</asrwt>
<pdfrwt beam="1">  1       21 0.95505664E-01 0.61383689E+03</pdfrwt>
<pdfrwt beam="2">  1       21 0.10189586E+00 0.61383689E+03</pdfrwt>
<totfact> 0.56792331E+02</totfact>
</mgrwt>
</event>
<event>
 4    1  0.4690138E-002  0.4937530E+03  0.7818608E-02  0.1015422E+00
         21   -1    0    0  503  502  0.00000000000E+00  0.00000000000E+00  0.43342837283E+03  0.43342837283E+03  0.00000000000E+00 0.  1.
         21   -1    0    0  501  503 -0.00000000000E+00 -0.00000000000E+00 -0.56532292072E+03  0.56532292072E+03  0.00000000000E+00 0. -1.
    9000007    1    1    2  501    0  0.21746120649E+03 -0.19105675831E+03 -0.30495171931E+02  0.49469386163E+03  0.40000000000E+03 0. -1.
   -9000007    1    1    2    0  502 -0.21746120649E+03  0.19105675831E+03 -0.10139937596E+03  0.50405743191E+03  0.40000000000E+03 0.  1.
<mgrwt>
<rscale>  2 0.49375304E+03</rscale>
<asrwt>0</asrwt>
<pdfrwt beam="1">  1       21 0.66681288E-01 0.49375304E+03</pdfrwt>
<pdfrwt beam="2">  1       21 0.86972757E-01 0.49375304E+03</pdfrwt>
<totfact> 0.19919788E+03</totfact>
</mgrwt>
</event>
<event>
 4    1  0.4690138E-002  0.4974823E+03  0.7818608E-02  0.1014438E+00
         21   -1    0    0  503  502  0.00000000000E+00  0.00000000000E+00  0.33490409520E+03  0.33490409520E+03  0.00000000000E+00 0. -1.
         21   -1    0    0  501  503 -0.00000000000E+00 -0.00000000000E+00 -0.94637179001E+03  0.94637179001E+03  0.00000000000E+00 0. -1.
    9000007    1    1    2  501    0 -0.28936513736E+03 -0.61289869091E+02 -0.60563199567E+03  0.78375936674E+03  0.40000000000E+03 0. -1.
   -9000007    1    1    2    0  502  0.28936513736E+03  0.61289869091E+02 -0.58356991441E+01  0.49751651847E+03  0.40000000000E+03 0. -1.
<mgrwt>
<rscale>  2 0.49748229E+03</rscale>
<asrwt>0</asrwt>
<pdfrwt beam="1">  1       21 0.51523707E-01 0.49748229E+03</pdfrwt>
<pdfrwt beam="2">  1       21 0.14559566E+00 0.49748229E+03</pdfrwt>
<totfact> 0.95852680E+02</totfact>
</mgrwt>
</event>
<event>
 4    1  0.4690138E-002  0.4897922E+03  0.7818608E-02  0.1016478E+00
         21   -1    0    0  501  502  0.00000000000E+00  0.00000000000E+00  0.17159752547E+03  0.17159752547E+03  0.00000000000E+00 0. -1.
         21   -1    0    0  502  503 -0.00000000000E+00 -0.00000000000E+00 -0.23988594634E+04  0.23988594634E+04  0.00000000000E+00 0.  1.
    9000007    1    1    2  501    0 -0.13120961686E+03  0.25036061835E+03 -0.28347322974E+03  0.56590942275E+03  0.40000000000E+03 0. -1.
   -9000007    1    1    2    0  503  0.13120961686E+03 -0.25036061835E+03 -0.19437887082E+04  0.20045475661E+04  0.40000000000E+03 0.  1.
<mgrwt>
<rscale>  2 0.48979220E+03</rscale>
<asrwt>0</asrwt>
<pdfrwt beam="1">  1       21 0.26399622E-01 0.48979220E+03</pdfrwt>
<pdfrwt beam="2">  1       21 0.36905526E+00 0.48979220E+03</pdfrwt>
<totfact> 0.13657533E+02</totfact>
</mgrwt>
</event>
<event>
 4    1  0.4690138E-002  0.4235339E+03  0.7818608E-02  0.1035922E+00
         21   -1    0    0  501  502  0.00000000000E+00  0.00000000000E+00  0.39275976670E+03  0.39275976670E+03  0.00000000000E+00 0.  1.
         21   -1    0    0  502  503 -0.00000000000E+00 -0.00000000000E+00 -0.68902639087E+03  0.68902639087E+03  0.00000000000E+00 0.  1.
    9000007    1    1    2  501    0 -0.10560415006E+03 -0.90712204503E+02  0.16593548352E+03  0.45487968217E+03  0.40000000000E+03 0.  1.
   -9000007    1    1    2    0  503  0.10560415006E+03  0.90712204503E+02 -0.46220210769E+03  0.62690647541E+03  0.40000000000E+03 0.  1.
<mgrwt>
<rscale>  2 0.42353387E+03</rscale>
<asrwt>0</asrwt>
<pdfrwt beam="1">  1       21 0.60424580E-01 0.42353387E+03</pdfrwt>
<pdfrwt beam="2">  1       21 0.10600406E+00 0.42353387E+03</pdfrwt>
<totfact> 0.15799457E+03</totfact>
</mgrwt>
</event>
<event>
 4    1  0.4690138E-002  0.4777626E+03  0.7818608E-02  0.1019752E+00
         21   -1    0    0  501  502  0.00000000000E+00  0.00000000000E+00  0.10785908492E+04  0.10785908492E+04  0.00000000000E+00 0. -1.
         21   -1    0    0  502  503 -0.00000000000E+00 -0.00000000000E+00 -0.22800857374E+03  0.22800857374E+03  0.00000000000E+00 0. -1.
    9000007    1    1    2  501    0  0.31464372175E+02 -0.25935902625E+03  0.25017053981E+03  0.53929807176E+03  0.40000000000E+03 0. -1.
   -9000007    1    1    2    0  503 -0.31464372175E+02  0.25935902625E+03  0.60041173565E+03  0.76730135118E+03  0.40000000000E+03 0. -1.
<mgrwt>
<rscale>  2 0.47776261E+03</rscale>
<asrwt>0</asrwt>
<pdfrwt beam="1">  1       21 0.16593705E+00 0.47776261E+03</pdfrwt>
<pdfrwt beam="2">  1       21 0.35078243E-01 0.47776261E+03</pdfrwt>
<totfact> 0.14988705E+03</totfact>
</mgrwt>
</event>
<event>
 4    1  0.4690138E-002  0.4132013E+03  0.7818608E-02  0.1039302E+00
         21   -1    0    0  503  502  0.00000000000E+00  0.00000000000E+00  0.50597598035E+03  0.50597598035E+03  0.00000000000E+00 0.  1.
         21   -1    0    0  501  503 -0.00000000000E+00 -0.00000000000E+00 -0.40834040935E+03  0.40834040935E+03  0.00000000000E+00 0.  1.
    9000007    1    1    2  501    0  0.17672707915E+02 -0.10209311303E+03 -0.14167871563E+03  0.43681596445E+03  0.40000000000E+03 0.  1.
   -9000007    1    1    2    0  502 -0.17672707915E+02  0.10209311303E+03  0.23931428663E+03  0.47750042525E+03  0.40000000000E+03 0.  1.
<mgrwt>
<rscale>  2 0.41320132E+03</rscale>
<asrwt>0</asrwt>
<pdfrwt beam="1">  1       21 0.77842459E-01 0.41320132E+03</pdfrwt>
<pdfrwt beam="2">  1       21 0.62821601E-01 0.41320132E+03</pdfrwt>
<totfact> 0.30299555E+03</totfact>
</mgrwt>
</event>
<event>
 4    1  0.4690138E-002  0.4496111E+03  0.7818608E-02  0.1027838E+00
         21   -1    0    0  503  502  0.00000000000E+00  0.00000000000E+00  0.93865828931E+03  0.93865828931E+03  0.00000000000E+00 0. -1.
         21   -1    0    0  501  503 -0.00000000000E+00 -0.00000000000E+00 -0.23673898018E+03  0.23673898018E+03  0.00000000000E+00 0. -1.
    9000007    1    1    2  501    0  0.11645832401E+03 -0.16907855348E+03  0.52756598305E+03  0.69316373603E+03  0.40000000000E+03 0. -1.
   -9000007    1    1    2    0  502 -0.11645832401E+03  0.16907855348E+03  0.17435332608E+03  0.48223353346E+03  0.40000000000E+03 0. -1.
<mgrwt>
<rscale>  2 0.44961105E+03</rscale>
<asrwt>0</asrwt>
<pdfrwt beam="1">  1       21 0.14440897E+00 0.44961105E+03</pdfrwt>
<pdfrwt beam="2">  1       21 0.36421382E-01 0.44961105E+03</pdfrwt>
<totfact> 0.20588063E+03</totfact>
</mgrwt>
</event>
<event>
 4    1  0.4690138E-002  0.4201290E+03  0.7818608E-02  0.1037024E+00
         21   -1    0    0  501  502  0.00000000000E+00  0.00000000000E+00  0.56246298431E+03  0.56246298431E+03  0.00000000000E+00 0.  1.
         21   -1    0    0  502  503 -0.00000000000E+00 -0.00000000000E+00 -0.41394422411E+03  0.41394422411E+03  0.00000000000E+00 0.  1.
    9000007    1    1    2  501    0  0.12724213395E+03 -0.17827800417E+02  0.31437149891E+03  0.52472643391E+03  0.40000000000E+03 0.  1.
   -9000007    1    1    2    0  503 -0.12724213395E+03  0.17827800417E+02 -0.16585273872E+03  0.45168077451E+03  0.40000000000E+03 0.  1.
<mgrwt>
<rscale>  2 0.42012902E+03</rscale>
<asrwt>0</asrwt>
<pdfrwt beam="1">  1       21 0.86532766E-01 0.42012902E+03</pdfrwt>
<pdfrwt beam="2">  1       21 0.63683727E-01 0.42012902E+03</pdfrwt>
<totfact> 0.22942307E+03</totfact>
</mgrwt>
</event>
<event>
 4    1  0.4690138E-002  0.4760897E+03  0.7818608E-02  0.1020215E+00
         21   -1    0    0  503  502  0.00000000000E+00  0.00000000000E+00  0.31420293721E+03  0.31420293721E+03  0.00000000000E+00 0. -1.
         21   -1    0    0  501  503 -0.00000000000E+00 -0.00000000000E+00 -0.72460505766E+03  0.72460505766E+03  0.00000000000E+00 0.  1.
    9000007    1    1    2  501    0  0.22971650494E+03 -0.11786328647E+03 -0.17057874148E+03  0.50572574977E+03  0.40000000000E+03 0. -1.
   -9000007    1    1    2    0  502 -0.22971650494E+03  0.11786328647E+03 -0.23982337896E+03  0.53308224509E+03  0.40000000000E+03 0. -1.
<mgrwt>
<rscale>  2 0.47608973E+03</rscale>
<asrwt>0</asrwt>
<pdfrwt beam="1">  1       21 0.48338914E-01 0.47608973E+03</pdfrwt>
<pdfrwt beam="2">  1       21 0.11147770E+00 0.47608973E+03</pdfrwt>
<totfact> 0.22103604E+03</totfact>
</mgrwt>
</event>
<event>
 4    1  0.4690138E-002  0.5891247E+03  0.7818608E-02  0.9928229E-01
         21   -1    0    0  501  502  0.00000000000E+00  0.00000000000E+00  0.49429024672E+03  0.49429024672E+03  0.00000000000E+00 0.  1.
         21   -1    0    0  502  503 -0.00000000000E+00 -0.00000000000E+00 -0.13502272036E+04  0.13502272036E+04  0.00000000000E+00 0.  1.
    9000007    1    1    2  501    0 -0.42741676517E+03 -0.66202591611E+02  0.21097343483E+03  0.62576166748E+03  0.40000000000E+03 0.  1.
   -9000007    1    1    2    0  503  0.42741676517E+03  0.66202591611E+02 -0.10669103917E+04  0.12187557828E+04  0.40000000000E+03 0.  1.
<mgrwt>
<rscale>  2 0.58912467E+03</rscale>
<asrwt>0</asrwt>
<pdfrwt beam="1">  1       21 0.76044655E-01 0.58912467E+03</pdfrwt>
<pdfrwt beam="2">  1       21 0.20772726E+00 0.58912467E+03</pdfrwt>
<totfact> 0.13854622E+02</totfact>
</mgrwt>
</event>
<event>
 4    1  0.4690138E-002  0.4043645E+03  0.7818608E-02  0.1042279E+00
         21   -1    0    0  503  502  0.00000000000E+00  0.00000000000E+00  0.10936986519E+04  0.10936986519E+04  0.00000000000E+00 0.  1.
         21   -1    0    0  501  503 -0.00000000000E+00 -0.00000000000E+00 -0.15213622912E+03  0.15213622912E+03  0.00000000000E+00 0.  1.
    9000007    1    1    2  501    0  0.26508118206E+02 -0.52990291095E+02  0.38882118514E+03  0.56097465655E+03  0.40000000000E+03 0.  1.
   -9000007    1    1    2    0  502 -0.26508118206E+02  0.52990291095E+02  0.55274123768E+03  0.68486022450E+03  0.40000000000E+03 0.  1.
<mgrwt>
<rscale>  2 0.40436450E+03</rscale>
<asrwt>0</asrwt>
<pdfrwt beam="1">  1       21 0.16826133E+00 0.40436450E+03</pdfrwt>
<pdfrwt beam="2">  1       21 0.23405574E-01 0.40436450E+03</pdfrwt>
<totfact> 0.33034792E+03</totfact>
</mgrwt>
</event>
<event>
 4    1  0.4690138E-002  0.6825899E+03  0.7818608E-02  0.9747478E-01
         21   -1    0    0  501  502  0.00000000000E+00  0.00000000000E+00  0.42743807705E+03  0.42743807705E+03  0.00000000000E+00 0.  1.
         21   -1    0    0  502  503 -0.00000000000E+00 -0.00000000000E+00 -0.15738593649E+04  0.15738593649E+04  0.00000000000E+00 0.  1.
    9000007    1    1    2  501    0 -0.48967120795E+03  0.25719863333E+03 -0.18411658824E+02  0.68283820782E+03  0.40000000000E+03 0.  1.
   -9000007    1    1    2    0  503  0.48967120795E+03 -0.25719863333E+03 -0.11280096290E+04  0.13184592341E+04  0.40000000000E+03 0.  1.
<mgrwt>
<rscale>  2 0.68258994E+03</rscale>
<asrwt>0</asrwt>
<pdfrwt beam="1">  1       21 0.65759704E-01 0.68258994E+03</pdfrwt>
<pdfrwt beam="2">  1       21 0.24213221E+00 0.68258994E+03</pdfrwt>
<totfact> 0.11151002E+02</totfact>
</mgrwt>
</event>
<event>
 4    1  0.4690138E-002  0.4696592E+03  0.7818608E-02  0.1022016E+00
         21   -1    0    0  501  502  0.00000000000E+00  0.00000000000E+00  0.55094131339E+03  0.55094131339E+03  0.00000000000E+00 0.  1.
         21   -1    0    0  502  503 -0.00000000000E+00 -0.00000000000E+00 -0.40037004569E+03  0.40037004569E+03  0.00000000000E+00 0.  1.
    9000007    1    1    2  501    0  0.17611491864E+03 -0.17193977906E+03  0.76100032251E+02  0.47578458056E+03  0.40000000000E+03 0.  1.
   -9000007    1    1    2    0  503 -0.17611491864E+03  0.17193977906E+03  0.74471235451E+02  0.47552677853E+03  0.40000000000E+03 0.  1.
<mgrwt>
<rscale>  2 0.46965919E+03</rscale>
<asrwt>0</asrwt>
<pdfrwt beam="1">  1       21 0.84760202E-01 0.46965919E+03</pdfrwt>
<pdfrwt beam="2">  1       21 0.61595392E-01 0.46965919E+03</pdfrwt>
<totfact> 0.25450657E+03</totfact>
</mgrwt>
</event>
<event>
 4    1  0.4690138E-002  0.6136343E+03  0.7818608E-02  0.9877516E-01
         21   -1    0    0  501  502  0.00000000000E+00  0.00000000000E+00  0.29770895142E+03  0.29770895142E+03  0.00000000000E+00 0.  1.
         21   -1    0    0  502  503 -0.00000000000E+00 -0.00000000000E+00 -0.12747867835E+04  0.12747867835E+04  0.00000000000E+00 0. -1.
    9000007    1    1    2  501    0 -0.44314974410E+03 -0.14200482036E+03 -0.41900384343E+03  0.74304191370E+03  0.40000000000E+03 0.  1.
   -9000007    1    1    2    0  503  0.44314974410E+03  0.14200482036E+03 -0.55807398861E+03  0.82945382118E+03  0.40000000000E+03 0. -1.
<mgrwt>
<rscale>  2 0.61363431E+03</rscale>
<asrwt>0</asrwt>
<pdfrwt beam="1">  1       21 0.45801377E-01 0.61363431E+03</pdfrwt>
<pdfrwt beam="2">  1       21 0.19612104E+00 0.61363431E+03</pdfrwt>
<totfact> 0.50160812E+02</totfact>
</mgrwt>
</event>
<event>
 4    1  0.4690138E-002  0.4716068E+03  0.7818608E-02  0.1021468E+00
         21   -1    0    0  503  502  0.00000000000E+00  0.00000000000E+00  0.18342301594E+04  0.18342301594E+04  0.00000000000E+00 0.  1.
         21   -1    0    0  501  503 -0.00000000000E+00 -0.00000000000E+00 -0.47703551173E+03  0.47703551173E+03  0.00000000000E+00 0.  1.
    9000007    1    1    2  501    0  0.20840707026E+03 -0.13776582356E+03 -0.31941172889E+03  0.56959352316E+03  0.40000000000E+03 0.  1.
   -9000007    1    1    2    0  502 -0.20840707026E+03  0.13776582356E+03  0.16766063766E+04  0.17416721480E+04  0.40000000000E+03 0.  1.
<mgrwt>
<rscale>  2 0.47160675E+03</rscale>
<asrwt>0</asrwt>
<pdfrwt beam="1">  1       21 0.28218925E+00 0.47160675E+03</pdfrwt>
<pdfrwt beam="2">  1       21 0.73390080E-01 0.47160675E+03</pdfrwt>
<totfact> 0.54616789E+01</totfact>
</mgrwt>
</event>
<event>
 4    1  0.4690138E-002  0.5457015E+03  0.7818608E-02  0.1002494E+00
         21   -1    0    0  503  502  0.00000000000E+00  0.00000000000E+00  0.89063645070E+03  0.89063645070E+03  0.00000000000E+00 0.  1.
         21   -1    0    0  501  503 -0.00000000000E+00 -0.00000000000E+00 -0.33435817682E+03  0.33435817682E+03  0.00000000000E+00 0.  1.
    9000007    1    1    2  501    0  0.36528807704E+03 -0.65990309900E+02  0.27677384537E+03  0.61187732570E+03  0.40000000000E+03 0.  1.
   -9000007    1    1    2    0  502 -0.36528807704E+03  0.65990309900E+02  0.27950442851E+03  0.61311730181E+03  0.40000000000E+03 0.  1.
<mgrwt>
<rscale>  2 0.54570148E+03</rscale>
<asrwt>0</asrwt>
<pdfrwt beam="1">  1       21 0.13702099E+00 0.54570148E+03</pdfrwt>
<pdfrwt beam="2">  1       21 0.51439720E-01 0.54570148E+03</pdfrwt>
<totfact> 0.11125055E+03</totfact>
</mgrwt>
</event>
<event>
 4    1  0.4690138E-002  0.4548323E+03  0.7818608E-02  0.1026291E+00
         21   -1    0    0  501  502  0.00000000000E+00  0.00000000000E+00  0.37940091179E+03  0.37940091179E+03  0.00000000000E+00 0. -1.
         21   -1    0    0  502  503 -0.00000000000E+00 -0.00000000000E+00 -0.55750501202E+03  0.55750501202E+03  0.00000000000E+00 0. -1.
    9000007    1    1    2  501    0 -0.21346463080E+03  0.36128301389E+02 -0.15847594595E+03  0.48165031736E+03  0.40000000000E+03 0. -1.
   -9000007    1    1    2    0  503  0.21346463080E+03 -0.36128301389E+02 -0.19628154276E+02  0.45525560645E+03  0.40000000000E+03 0. -1.
<mgrwt>
<rscale>  2 0.45483228E+03</rscale>
<asrwt>0</asrwt>
<pdfrwt beam="1">  1       21 0.58369371E-01 0.45483228E+03</pdfrwt>
<pdfrwt beam="2">  1       21 0.85770001E-01 0.45483228E+03</pdfrwt>
<totfact> 0.27999307E+03</totfact>
</mgrwt>
</event>
<event>
 4    1  0.4690138E-002  0.4112727E+03  0.7818608E-02  0.1039945E+00
         21   -1    0    0  503  502  0.00000000000E+00  0.00000000000E+00  0.12423318080E+04  0.12423318080E+04  0.00000000000E+00 0. -1.
         21   -1    0    0  501  503 -0.00000000000E+00 -0.00000000000E+00 -0.14448773792E+03  0.14448773792E+03  0.00000000000E+00 0. -1.
    9000007    1    1    2  501    0  0.20694441018E+02 -0.93364603212E+02  0.38236528364E+03  0.56155891868E+03  0.40000000000E+03 0. -1.
   -9000007    1    1    2    0  502 -0.20694441018E+02  0.93364603212E+02  0.71547878640E+03  0.82526062720E+03  0.40000000000E+03 0. -1.
<mgrwt>
<rscale>  2 0.41127267E+03</rscale>
<asrwt>0</asrwt>
<pdfrwt beam="1">  1       21 0.19112796E+00 0.41127267E+03</pdfrwt>
<pdfrwt beam="2">  1       21 0.22228884E-01 0.41127267E+03</pdfrwt>
<totfact> 0.25114766E+03</totfact>
</mgrwt>
</event>
<event>
 4    1  0.4690138E-002  0.4395623E+03  0.7818608E-02  0.1030881E+00
         21   -1    0    0  501  502  0.00000000000E+00  0.00000000000E+00  0.18760696482E+04  0.18760696482E+04  0.00000000000E+00 0. -1.
         21   -1    0    0  502  503 -0.00000000000E+00 -0.00000000000E+00 -0.15026679452E+03  0.15026679452E+03  0.00000000000E+00 0. -1.
    9000007    1    1    2  501    0  0.12199648249E+03 -0.13539511722E+03  0.14312013134E+04  0.14971814115E+04  0.40000000000E+03 0.  1.
   -9000007    1    1    2    0  503 -0.12199648249E+03  0.13539511722E+03  0.29460154029E+03  0.52915503121E+03  0.40000000000E+03 0.  1.
<mgrwt>
<rscale>  2 0.43956226E+03</rscale>
<asrwt>0</asrwt>
<pdfrwt beam="1">  1       21 0.28862608E+00 0.43956226E+03</pdfrwt>
<pdfrwt beam="2">  1       21 0.23117970E-01 0.43956226E+03</pdfrwt>
<totfact> 0.56271216E+02</totfact>
</mgrwt>
</event>
<event>
 4    1  0.4690138E-002  0.4476348E+03  0.7818608E-02  0.1028430E+00
         21   -1    0    0  503  502  0.00000000000E+00  0.00000000000E+00  0.11239555660E+03  0.11239555660E+03  0.00000000000E+00 0. -1.
         21   -1    0    0  501  503 -0.00000000000E+00 -0.00000000000E+00 -0.18159479294E+04  0.18159479294E+04  0.00000000000E+00 0.  1.
    9000007    1    1    2  501    0 -0.81486770761E+02  0.18367588259E+03 -0.98207490383E+03  0.10792812610E+04  0.40000000000E+03 0. -1.
   -9000007    1    1    2    0  502  0.81486770761E+02 -0.18367588259E+03 -0.72147746897E+03  0.84906222498E+03  0.40000000000E+03 0.  1.
<mgrwt>
<rscale>  2 0.44763481E+03</rscale>
<asrwt>0</asrwt>
<pdfrwt beam="1">  1       21 0.17291625E-01 0.44763481E+03</pdfrwt>
<pdfrwt beam="2">  1       21 0.27937660E+00 0.44763481E+03</pdfrwt>
<totfact> 0.11066814E+03</totfact>
</mgrwt>
</event>
<event>
 4    1  0.4690138E-002  0.4103867E+03  0.7818608E-02  0.1040241E+00
         21   -1    0    0  503  502  0.00000000000E+00  0.00000000000E+00  0.63508825497E+03  0.63508825497E+03  0.00000000000E+00 0. -1.
         21   -1    0    0  501  503 -0.00000000000E+00 -0.00000000000E+00 -0.31654623954E+03  0.31654623954E+03  0.00000000000E+00 0. -1.
    9000007    1    1    2  501    0 -0.83010023457E+02  0.39071606397E+02 -0.32388422103E+02  0.41166280413E+03  0.40000000000E+03 0. -1.
   -9000007    1    1    2    0  502  0.83010023457E+02 -0.39071606397E+02  0.35093043753E+03  0.53997169037E+03  0.40000000000E+03 0. -1.
<mgrwt>
<rscale>  2 0.41038671E+03</rscale>
<asrwt>0</asrwt>
<pdfrwt beam="1">  1       21 0.97705885E-01 0.41038671E+03</pdfrwt>
<pdfrwt beam="2">  1       21 0.48699422E-01 0.41038671E+03</pdfrwt>
<totfact> 0.30816499E+03</totfact>
</mgrwt>
</event>
<event>
 4    1  0.4690138E-002  0.4177828E+03  0.7818608E-02  0.1037790E+00
         21   -1    0    0  503  502  0.00000000000E+00  0.00000000000E+00  0.60882733411E+03  0.60882733411E+03  0.00000000000E+00 0.  1.
         21   -1    0    0  501  503 -0.00000000000E+00 -0.00000000000E+00 -0.38598073497E+03  0.38598073497E+03  0.00000000000E+00 0.  1.
    9000007    1    1    2  501    0 -0.84381840876E+02 -0.86151815946E+02 -0.14086030908E+03  0.44089007375E+03  0.40000000000E+03 0. -1.
   -9000007    1    1    2    0  502  0.84381840876E+02  0.86151815946E+02  0.36370690822E+03  0.55391799533E+03  0.40000000000E+03 0. -1.
<mgrwt>
<rscale>  2 0.41778276E+03</rscale>
<asrwt>0</asrwt>
<pdfrwt beam="1">  1       21 0.93665743E-01 0.41778276E+03</pdfrwt>
<pdfrwt beam="2">  1       21 0.59381652E-01 0.41778276E+03</pdfrwt>
<totfact> 0.22205138E+03</totfact>
</mgrwt>
</event>
<event>
 4    1  0.4690138E-002  0.4123538E+03  0.7818608E-02  0.1039584E+00
         21   -1    0    0  503  502  0.00000000000E+00  0.00000000000E+00  0.76011753941E+03  0.76011753941E+03  0.00000000000E+00 0.  1.
         21   -1    0    0  501  503 -0.00000000000E+00 -0.00000000000E+00 -0.22957559688E+03  0.22957559688E+03  0.00000000000E+00 0.  1.
    9000007    1    1    2  501    0 -0.88304207074E+02  0.47307620106E+02  0.18608240360E+03  0.45239618128E+03  0.40000000000E+03 0. -1.
   -9000007    1    1    2    0  502  0.88304207074E+02 -0.47307620106E+02  0.34445953893E+03  0.53729695501E+03  0.40000000000E+03 0. -1.
<mgrwt>
<rscale>  2 0.41235378E+03</rscale>
<asrwt>0</asrwt>
<pdfrwt beam="1">  1       21 0.11694116E+00 0.41235378E+03</pdfrwt>
<pdfrwt beam="2">  1       21 0.35319323E-01 0.41235378E+03</pdfrwt>
<totfact> 0.38442155E+03</totfact>
</mgrwt>
</event>
<event>
 4    1  0.4690138E-002  0.7092116E+03  0.7818608E-02  0.9701608E-01
         21   -1    0    0  503  502  0.00000000000E+00  0.00000000000E+00  0.37208421425E+03  0.37208421425E+03  0.00000000000E+00 0.  1.
         21   -1    0    0  501  503 -0.00000000000E+00 -0.00000000000E+00 -0.15464361437E+04  0.15464361437E+04  0.00000000000E+00 0.  1.
    9000007    1    1    2  501    0  0.54570469388E+03  0.21257332826E+03 -0.92749746439E+03  0.11675755133E+04  0.40000000000E+03 0.  1.
   -9000007    1    1    2    0  502 -0.54570469388E+03 -0.21257332826E+03 -0.24685446509E+03  0.75094484467E+03  0.40000000000E+03 0.  1.
<mgrwt>
<rscale>  2 0.70921156E+03</rscale>
<asrwt>0</asrwt>
<pdfrwt beam="1">  1       21 0.57243726E-01 0.70921156E+03</pdfrwt>
<pdfrwt beam="2">  1       21 0.23791325E+00 0.70921156E+03</pdfrwt>
<totfact> 0.15979960E+02</totfact>
</mgrwt>
</event>
<event>
 4    1  0.4690138E-002  0.4431144E+03  0.7818608E-02  0.1029796E+00
         21   -1    0    0  503  502  0.00000000000E+00  0.00000000000E+00  0.21331083587E+03  0.21331083587E+03  0.00000000000E+00 0. -1.
         21   -1    0    0  501  503 -0.00000000000E+00 -0.00000000000E+00 -0.92330357900E+03  0.92330357900E+03  0.00000000000E+00 0.  1.
    9000007    1    1    2  501    0  0.11049312355E+03 -0.15537585689E+03 -0.38637096492E+03  0.58790552795E+03  0.40000000000E+03 0. -1.
   -9000007    1    1    2    0  502 -0.11049312355E+03  0.15537585689E+03 -0.32362177821E+03  0.54870888692E+03  0.40000000000E+03 0. -1.
<mgrwt>
<rscale>  2 0.44311442E+03</rscale>
<asrwt>0</asrwt>
<pdfrwt beam="1">  1       21 0.32817052E-01 0.44311442E+03</pdfrwt>
<pdfrwt beam="2">  1       21 0.14204670E+00 0.44311442E+03</pdfrwt>
<totfact> 0.26627903E+03</totfact>
</mgrwt>
</event>
<event>
 4    1  0.4690138E-002  0.4429303E+03  0.7818608E-02  0.1029852E+00
         21   -1    0    0  501  502  0.00000000000E+00  0.00000000000E+00  0.58777478484E+03  0.58777478484E+03  0.00000000000E+00 0. -1.
         21   -1    0    0  502  503 -0.00000000000E+00 -0.00000000000E+00 -0.52215941959E+03  0.52215941959E+03  0.00000000000E+00 0. -1.
    9000007    1    1    2  501    0  0.81977195762E+02 -0.17165954030E+03 -0.30052877712E+03  0.53526143545E+03  0.40000000000E+03 0. -1.
   -9000007    1    1    2    0  503 -0.81977195762E+02  0.17165954030E+03  0.36614414238E+03  0.57467276897E+03  0.40000000000E+03 0. -1.
<mgrwt>
<rscale>  2 0.44293031E+03</rscale>
<asrwt>0</asrwt>
<pdfrwt beam="1">  1       21 0.90426890E-01 0.44293031E+03</pdfrwt>
<pdfrwt beam="2">  1       21 0.80332218E-01 0.44293031E+03</pdfrwt>
<totfact> 0.12125959E+03</totfact>
</mgrwt>
</event>
<event>
 4    1  0.4690138E-002  0.5881427E+03  0.7818608E-02  0.9930316E-01
         21   -1    0    0  503  502  0.00000000000E+00  0.00000000000E+00  0.62198767603E+03  0.62198767603E+03  0.00000000000E+00 0.  1.
         21   -1    0    0  501  503 -0.00000000000E+00 -0.00000000000E+00 -0.90873383901E+03  0.90873383901E+03  0.00000000000E+00 0. -1.
    9000007    1    1    2  501    0  0.13875739385E+03 -0.40823794644E+03 -0.62011746719E+03  0.85466806912E+03  0.40000000000E+03 0. -1.
   -9000007    1    1    2    0  502 -0.13875739385E+03  0.40823794644E+03  0.33337130422E+03  0.67605344592E+03  0.40000000000E+03 0.  1.
<mgrwt>
<rscale>  2 0.58814270E+03</rscale>
<asrwt>0</asrwt>
<pdfrwt beam="1">  1       21 0.95690412E-01 0.58814270E+03</pdfrwt>
<pdfrwt beam="2">  1       21 0.13980521E+00 0.58814270E+03</pdfrwt>
<totfact> 0.25373904E+02</totfact>
</mgrwt>
</event>
<event>
 4    1  0.4690138E-002  0.7045230E+03  0.7818608E-02  0.9709528E-01
         21   -1    0    0  503  502  0.00000000000E+00  0.00000000000E+00  0.24758799378E+04  0.24758799378E+04  0.00000000000E+00 0. -1.
         21   -1    0    0  501  503 -0.00000000000E+00 -0.00000000000E+00 -0.30398098458E+03  0.30398098458E+03  0.00000000000E+00 0. -1.
    9000007    1    1    2  501    0 -0.50465207602E+03 -0.28579517389E+03  0.27489110249E+03  0.75625241651E+03  0.40000000000E+03 0. -1.
   -9000007    1    1    2    0  502  0.50465207602E+03  0.28579517389E+03  0.18970078507E+04  0.20236085058E+04  0.40000000000E+03 0. -1.
<mgrwt>
<rscale>  2 0.70452296E+03</rscale>
<asrwt>0</asrwt>
<pdfrwt beam="1">  1       21 0.38090459E+00 0.70452296E+03</pdfrwt>
<pdfrwt beam="2">  1       21 0.46766307E-01 0.70452296E+03</pdfrwt>
<totfact> 0.32019091E+01</totfact>
</mgrwt>
</event>
<event>
 4    1  0.4690138E-002  0.4497637E+03  0.7818608E-02  0.1027793E+00
         21   -1    0    0  503  502  0.00000000000E+00  0.00000000000E+00  0.14026229204E+03  0.14026229204E+03  0.00000000000E+00 0. -1.
         21   -1    0    0  501  503 -0.00000000000E+00 -0.00000000000E+00 -0.19725240419E+04  0.19725240419E+04  0.00000000000E+00 0. -1.
    9000007    1    1    2  501    0  0.19222570500E+03  0.73052756747E+02 -0.14638800517E+04  0.15314151079E+04  0.40000000000E+03 0. -1.
   -9000007    1    1    2    0  502 -0.19222570500E+03 -0.73052756747E+02 -0.36838169815E+03  0.58137122604E+03  0.40000000000E+03 0. -1.
<mgrwt>
<rscale>  2 0.44976375E+03</rscale>
<asrwt>0</asrwt>
<pdfrwt beam="1">  1       21 0.21578815E-01 0.44976375E+03</pdfrwt>
<pdfrwt beam="2">  1       21 0.30346523E+00 0.44976375E+03</pdfrwt>
<totfact> 0.52016628E+02</totfact>
</mgrwt>
</event>
<event>
 4    1  0.4690138E-002  0.4267459E+03  0.7818608E-02  0.1034893E+00
         21   -1    0    0  503  502  0.00000000000E+00  0.00000000000E+00  0.70062461035E+03  0.70062461035E+03  0.00000000000E+00 0. -1.
         21   -1    0    0  501  503 -0.00000000000E+00 -0.00000000000E+00 -0.14354459352E+04  0.14354459352E+04  0.00000000000E+00 0.  1.
    9000007    1    1    2  501    0  0.60132730867E+02  0.13600036548E+03 -0.13339216194E+04  0.14005209500E+04  0.40000000000E+03 0.  1.
   -9000007    1    1    2    0  502 -0.60132730867E+02 -0.13600036548E+03  0.59910029449E+03  0.73554959560E+03  0.40000000000E+03 0. -1.
<mgrwt>
<rscale>  2 0.42674588E+03</rscale>
<asrwt>0</asrwt>
<pdfrwt beam="1">  1       21 0.10778840E+00 0.42674588E+03</pdfrwt>
<pdfrwt beam="2">  1       21 0.22083784E+00 0.42674588E+03</pdfrwt>
<totfact> 0.54015239E+01</totfact>
</mgrwt>
</event>
<event>
 4    1  0.4690138E-002  0.5049868E+03  0.7818608E-02  0.1012485E+00
         21   -1    0    0  503  502  0.00000000000E+00  0.00000000000E+00  0.36008127083E+03  0.36008127083E+03  0.00000000000E+00 0.  1.
         21   -1    0    0  501  503 -0.00000000000E+00 -0.00000000000E+00 -0.89748098478E+03  0.89748098478E+03  0.00000000000E+00 0.  1.
    9000007    1    1    2  501    0  0.11088650182E+03 -0.28760362956E+03 -0.55745760593E+03  0.75217727062E+03  0.40000000000E+03 0.  1.
   -9000007    1    1    2    0  502 -0.11088650182E+03  0.28760362956E+03  0.20057891979E+02  0.50538498499E+03  0.40000000000E+03 0.  1.
<mgrwt>
<rscale>  2 0.50498680E+03</rscale>
<asrwt>0</asrwt>
<pdfrwt beam="1">  1       21 0.55397118E-01 0.50498680E+03</pdfrwt>
<pdfrwt beam="2">  1       21 0.13807400E+00 0.50498680E+03</pdfrwt>
<totfact> 0.94262715E+02</totfact>
</mgrwt>
</event>
<event>
 4    1  0.4690138E-002  0.4925738E+03  0.7818608E-02  0.1015736E+00
         21   -1    0    0  501  502  0.00000000000E+00  0.00000000000E+00  0.93658292098E+03  0.93658292098E+03  0.00000000000E+00 0.  1.
         21   -1    0    0  502  503 -0.00000000000E+00 -0.00000000000E+00 -0.52962744302E+03  0.52962744302E+03  0.00000000000E+00 0. -1.
    9000007    1    1    2  501    0 -0.16356812964E+03  0.23637768311E+03  0.72746499948E+03  0.87854098799E+03  0.40000000000E+03 0.  1.
   -9000007    1    1    2    0  503  0.16356812964E+03 -0.23637768311E+03 -0.32050952152E+03  0.58766937600E+03  0.40000000000E+03 0. -1.
<mgrwt>
<rscale>  2 0.49257379E+03</rscale>
<asrwt>0</asrwt>
<pdfrwt beam="1">  1       21 0.14408968E+00 0.49257379E+03</pdfrwt>
<pdfrwt beam="2">  1       21 0.81481145E-01 0.49257379E+03</pdfrwt>
<totfact> 0.35577936E+02</totfact>
</mgrwt>
</event>
<event>
 4    1  0.4690138E-002  0.7880285E+03  0.7818608E-02  0.9577509E-01
         21   -1    0    0  501  502  0.00000000000E+00  0.00000000000E+00  0.44835719745E+03  0.44835719745E+03  0.00000000000E+00 0.  1.
         21   -1    0    0  502  503 -0.00000000000E+00 -0.00000000000E+00 -0.20200256826E+04  0.20200256826E+04  0.00000000000E+00 0. -1.
    9000007    1    1    2  501    0 -0.20371783882E+03  0.64767886823E+03 -0.93861587020E+02  0.79359868430E+03  0.40000000000E+03 0.  1.
   -9000007    1    1    2    0  503  0.20371783882E+03 -0.64767886823E+03 -0.14778068982E+04  0.16747841958E+04  0.40000000000E+03 0. -1.
<mgrwt>
<rscale>  2 0.78802847E+03</rscale>
<asrwt>0</asrwt>
<pdfrwt beam="1">  1       21 0.68978031E-01 0.78802847E+03</pdfrwt>
<pdfrwt beam="2">  1       21 0.31077318E+00 0.78802847E+03</pdfrwt>
<totfact> 0.36168518E+01</totfact>
</mgrwt>
</event>
<event>
 4    1  0.4690138E-002  0.4267262E+03  0.7818608E-02  0.1034899E+00
         21   -1    0    0  503  502  0.00000000000E+00  0.00000000000E+00  0.73607064980E+03  0.73607064980E+03  0.00000000000E+00 0. -1.
         21   -1    0    0  501  503 -0.00000000000E+00 -0.00000000000E+00 -0.90720927358E+03  0.90720927358E+03  0.00000000000E+00 0. -1.
    9000007    1    1    2  501    0 -0.14835674581E+03  0.92474046372E+01 -0.78628345597E+03  0.89461551051E+03  0.40000000000E+03 0. -1.
   -9000007    1    1    2    0  502  0.14835674581E+03 -0.92474046372E+01  0.61514483219E+03  0.74866441287E+03  0.40000000000E+03 0. -1.
<mgrwt>
<rscale>  2 0.42672619E+03</rscale>
<asrwt>0</asrwt>
<pdfrwt beam="1">  1       21 0.11324164E+00 0.42672619E+03</pdfrwt>
<pdfrwt beam="2">  1       21 0.13957066E+00 0.42672619E+03</pdfrwt>
<totfact> 0.18111428E+02</totfact>
</mgrwt>
</event>
<event>
 4    1  0.4690138E-002  0.5601818E+03  0.7818608E-02  0.9991643E-01
         21   -1    0    0  501  502  0.00000000000E+00  0.00000000000E+00  0.15669597434E+04  0.15669597434E+04  0.00000000000E+00 0. -1.
         21   -1    0    0  502  503 -0.00000000000E+00 -0.00000000000E+00 -0.29554030069E+03  0.29554030069E+03  0.00000000000E+00 0. -1.
    9000007    1    1    2  501    0  0.37360779436E+03  0.11925113909E+03  0.11644632811E+04  0.12921990370E+04  0.40000000000E+03 0. -1.
   -9000007    1    1    2    0  503 -0.37360779436E+03 -0.11925113909E+03  0.10695616161E+03  0.57030100709E+03  0.40000000000E+03 0. -1.
<mgrwt>
<rscale>  2 0.56018177E+03</rscale>
<asrwt>0</asrwt>
<pdfrwt beam="1">  1       21 0.24107073E+00 0.56018177E+03</pdfrwt>
<pdfrwt beam="2">  1       21 0.45467739E-01 0.56018177E+03</pdfrwt>
<totfact> 0.26534722E+02</totfact>
</mgrwt>
</event>
<event>
 4    1  0.4690138E-002  0.4069359E+03  0.7818608E-02  0.1041404E+00
         21   -1    0    0  501  502  0.00000000000E+00  0.00000000000E+00  0.54330045161E+03  0.54330045161E+03  0.00000000000E+00 0. -1.
         21   -1    0    0  502  503 -0.00000000000E+00 -0.00000000000E+00 -0.49302556826E+03  0.49302556826E+03  0.00000000000E+00 0. -1.
    9000007    1    1    2  501    0  0.74206423678E+02  0.94993377205E+01  0.34530212895E+03  0.53369503557E+03  0.40000000000E+03 0. -1.
   -9000007    1    1    2    0  503 -0.74206423678E+02 -0.94993377205E+01 -0.29502724561E+03  0.50263098430E+03  0.40000000000E+03 0. -1.
<mgrwt>
<rscale>  2 0.40693590E+03</rscale>
<asrwt>0</asrwt>
<pdfrwt beam="1">  1       21 0.83584685E-01 0.40693590E+03</pdfrwt>
<pdfrwt beam="2">  1       21 0.75850087E-01 0.40693590E+03</pdfrwt>
<totfact> 0.16892043E+03</totfact>
</mgrwt>
</event>
<event>
 4    1  0.4690138E-002  0.8044983E+03  0.7818608E-02  0.9553529E-01
         21   -1    0    0  503  502  0.00000000000E+00  0.00000000000E+00  0.24439134358E+04  0.24439134358E+04  0.00000000000E+00 0.  1.
         21   -1    0    0  501  503 -0.00000000000E+00 -0.00000000000E+00 -0.31140158779E+03  0.31140158779E+03  0.00000000000E+00 0. -1.
    9000007    1    1    2  501    0  0.65011663386E+03  0.25409813949E+03  0.53347436471E+03  0.96530430431E+03  0.40000000000E+03 0. -1.
   -9000007    1    1    2    0  502 -0.65011663386E+03 -0.25409813949E+03  0.15990374833E+04  0.17900107192E+04  0.40000000000E+03 0.  1.
<mgrwt>
<rscale>  2 0.80449829E+03</rscale>
<asrwt>0</asrwt>
<pdfrwt beam="1">  1       21 0.37598667E+00 0.80449829E+03</pdfrwt>
<pdfrwt beam="2">  1       21 0.47907938E-01 0.80449829E+03</pdfrwt>
<totfact> 0.31370948E+01</totfact>
</mgrwt>
</event>
<event>
 4    1  0.4690138E-002  0.4261609E+03  0.7818608E-02  0.1035080E+00
         21   -1    0    0  501  502  0.00000000000E+00  0.00000000000E+00  0.17078430750E+04  0.17078430750E+04  0.00000000000E+00 0.  1.
         21   -1    0    0  502  503 -0.00000000000E+00 -0.00000000000E+00 -0.13739049245E+03  0.13739049245E+03  0.00000000000E+00 0.  1.
    9000007    1    1    2  501    0  0.14638420728E+03  0.13592445714E+02  0.12238306305E+04  0.12959068265E+04  0.40000000000E+03 0. -1.
   -9000007    1    1    2    0  503 -0.14638420728E+03 -0.13592445714E+02  0.34662195205E+03  0.54932674099E+03  0.40000000000E+03 0. -1.
<mgrwt>
<rscale>  2 0.42616087E+03</rscale>
<asrwt>0</asrwt>
<pdfrwt beam="1">  1       21 0.26274507E+00 0.42616087E+03</pdfrwt>
<pdfrwt beam="2">  1       21 0.21137000E-01 0.42616087E+03</pdfrwt>
<totfact> 0.96441559E+02</totfact>
</mgrwt>
</event>
<event>
 4    1  0.4690138E-002  0.4307076E+03  0.7818608E-02  0.1033637E+00
         21   -1    0    0  501  502  0.00000000000E+00  0.00000000000E+00  0.41286617355E+03  0.41286617355E+03  0.00000000000E+00 0. -1.
         21   -1    0    0  502  503 -0.00000000000E+00 -0.00000000000E+00 -0.46320459455E+03  0.46320459455E+03  0.00000000000E+00 0. -1.
    9000007    1    1    2  501    0 -0.70228906194E+02  0.14344678077E+03 -0.10100732144E+03  0.44239298950E+03  0.40000000000E+03 0. -1.
   -9000007    1    1    2    0  503  0.70228906194E+02 -0.14344678077E+03  0.50668900434E+02  0.43367777860E+03  0.40000000000E+03 0. -1.
<mgrwt>
<rscale>  2 0.43070765E+03</rscale>
<asrwt>0</asrwt>
<pdfrwt beam="1">  1       21 0.63517873E-01 0.43070765E+03</pdfrwt>
<pdfrwt beam="2">  1       21 0.71262245E-01 0.43070765E+03</pdfrwt>
<totfact> 0.35917156E+03</totfact>
</mgrwt>
</event>
<event>
 4    1  0.4690138E-002  0.4493194E+03  0.7818608E-02  0.1027925E+00
         21   -1    0    0  503  502  0.00000000000E+00  0.00000000000E+00  0.59536141152E+03  0.59536141152E+03  0.00000000000E+00 0. -1.
         21   -1    0    0  501  503 -0.00000000000E+00 -0.00000000000E+00 -0.35569409402E+03  0.35569409402E+03  0.00000000000E+00 0. -1.
    9000007    1    1    2  501    0  0.17441569149E+03  0.10708459932E+03  0.17127911363E+02  0.44964576079E+03  0.40000000000E+03 0. -1.
   -9000007    1    1    2    0  502 -0.17441569149E+03 -0.10708459932E+03  0.22253940613E+03  0.50140974475E+03  0.40000000000E+03 0. -1.
<mgrwt>
<rscale>  2 0.44931942E+03</rscale>
<asrwt>0</asrwt>
<pdfrwt beam="1">  1       21 0.91594063E-01 0.44931942E+03</pdfrwt>
<pdfrwt beam="2">  1       21 0.54722168E-01 0.44931942E+03</pdfrwt>
<totfact> 0.27632345E+03</totfact>
</mgrwt>
</event>
<event>
 4    1  0.4690138E-002  0.4818380E+03  0.7818608E-02  0.1018631E+00
         21   -1    0    0  503  502  0.00000000000E+00  0.00000000000E+00  0.77060001665E+03  0.77060001665E+03  0.00000000000E+00 0.  1.
         21   -1    0    0  501  503 -0.00000000000E+00 -0.00000000000E+00 -0.37952626981E+03  0.37952626981E+03  0.00000000000E+00 0.  1.
    9000007    1    1    2  501    0 -0.26849330887E+03  0.88987243139E+01 -0.65571702386E+02  0.48627923291E+03  0.40000000000E+03 0.  1.
   -9000007    1    1    2    0  502  0.26849330887E+03 -0.88987243139E+01  0.45664544923E+03  0.66384705355E+03  0.40000000000E+03 0.  1.
<mgrwt>
<rscale>  2 0.48183799E+03</rscale>
<asrwt>0</asrwt>
<pdfrwt beam="1">  1       21 0.11855385E+00 0.48183799E+03</pdfrwt>
<pdfrwt beam="2">  1       21 0.58388657E-01 0.48183799E+03</pdfrwt>
<totfact> 0.12593576E+03</totfact>
</mgrwt>
</event>
<event>
 4    1  0.4690138E-002  0.4321774E+03  0.7818608E-02  0.1033174E+00
         21   -1    0    0  503  502  0.00000000000E+00  0.00000000000E+00  0.58067229445E+03  0.58067229445E+03  0.00000000000E+00 0. -1.
         21   -1    0    0  501  503 -0.00000000000E+00 -0.00000000000E+00 -0.14951394116E+04  0.14951394116E+04  0.00000000000E+00 0. -1.
    9000007    1    1    2  501    0  0.11566842255E+03  0.11575030317E+03 -0.13767413338E+04  0.14429809482E+04  0.40000000000E+03 0. -1.
   -9000007    1    1    2    0  502 -0.11566842255E+03 -0.11575030317E+03  0.46227421667E+03  0.63283075783E+03  0.40000000000E+03 0. -1.
<mgrwt>
<rscale>  2 0.43217741E+03</rscale>
<asrwt>0</asrwt>
<pdfrwt beam="1">  1       21 0.89334199E-01 0.43217741E+03</pdfrwt>
<pdfrwt beam="2">  1       21 0.23002145E+00 0.43217741E+03</pdfrwt>
<totfact> 0.74125141E+01</totfact>
</mgrwt>
</event>
<event>
 4    1  0.4690138E-002  0.8503475E+03  0.7818608E-02  0.9489871E-01
         21   -1    0    0  503  502  0.00000000000E+00  0.00000000000E+00  0.88835212488E+03  0.88835212488E+03  0.00000000000E+00 0. -1.
         21   -1    0    0  501  503 -0.00000000000E+00 -0.00000000000E+00 -0.88628216204E+03  0.88628216204E+03  0.00000000000E+00 0.  1.
    9000007    1    1    2  501    0  0.37913313079E+02 -0.74943542794E+03  0.25449079479E+03  0.88761277852E+03  0.40000000000E+03 0. -1.
   -9000007    1    1    2    0  502 -0.37913313079E+02  0.74943542794E+03 -0.25242083195E+03  0.88702150840E+03  0.40000000000E+03 0.  1.
<mgrwt>
<rscale>  2 0.85034751E+03</rscale>
<asrwt>0</asrwt>
<pdfrwt beam="1">  1       21 0.13666956E+00 0.85034751E+03</pdfrwt>
<pdfrwt beam="2">  1       21 0.13635110E+00 0.85034751E+03</pdfrwt>
<totfact> 0.10090063E+02</totfact>
</mgrwt>
</event>
<event>
 4    1  0.4690138E-002  0.4313559E+03  0.7818608E-02  0.1033432E+00
         21   -1    0    0  503  502  0.00000000000E+00  0.00000000000E+00  0.44226940520E+03  0.44226940520E+03  0.00000000000E+00 0. -1.
         21   -1    0    0  501  503 -0.00000000000E+00 -0.00000000000E+00 -0.42316653829E+03  0.42316653829E+03  0.00000000000E+00 0. -1.
    9000007    1    1    2  501    0  0.64026738505E+00 -0.16145442001E+03  0.42509023308E+02  0.43344544841E+03  0.40000000000E+03 0. -1.
   -9000007    1    1    2    0  502 -0.64026738505E+00  0.16145442001E+03 -0.23406156400E+02  0.43199049508E+03  0.40000000000E+03 0. -1.
<mgrwt>
<rscale>  2 0.43135593E+03</rscale>
<asrwt>0</asrwt>
<pdfrwt beam="1">  1       21 0.68041447E-01 0.43135593E+03</pdfrwt>
<pdfrwt beam="2">  1       21 0.65102545E-01 0.43135593E+03</pdfrwt>
<totfact> 0.37725168E+03</totfact>
</mgrwt>
</event>
<event>
 4    1  0.4690138E-002  0.4293738E+03  0.7818608E-02  0.1034058E+00
         21   -1    0    0  503  502  0.00000000000E+00  0.00000000000E+00  0.82310352134E+03  0.82310352134E+03  0.00000000000E+00 0.  1.
         21   -1    0    0  501  503 -0.00000000000E+00 -0.00000000000E+00 -0.25347097498E+03  0.25347097498E+03  0.00000000000E+00 0.  1.
    9000007    1    1    2  501    0 -0.15202907141E+03  0.35341908494E+02  0.10121899084E+03  0.44114303027E+03  0.40000000000E+03 0.  1.
   -9000007    1    1    2    0  502  0.15202907141E+03 -0.35341908494E+02  0.46841355552E+03  0.63543146605E+03  0.40000000000E+03 0.  1.
<mgrwt>
<rscale>  2 0.42937383E+03</rscale>
<asrwt>0</asrwt>
<pdfrwt beam="1">  1       21 0.12663131E+00 0.42937383E+03</pdfrwt>
<pdfrwt beam="2">  1       21 0.38995535E-01 0.42937383E+03</pdfrwt>
<totfact> 0.25488250E+03</totfact>
</mgrwt>
</event>
<event>
 4    1  0.4690138E-002  0.4078599E+03  0.7818608E-02  0.1041092E+00
         21   -1    0    0  501  502  0.00000000000E+00  0.00000000000E+00  0.50644419783E+03  0.50644419783E+03  0.00000000000E+00 0.  1.
         21   -1    0    0  502  503 -0.00000000000E+00 -0.00000000000E+00 -0.58099341212E+03  0.58099341212E+03  0.00000000000E+00 0.  1.
    9000007    1    1    2  501    0 -0.28981357396E+02 -0.74227665519E+02  0.32118735058E+03  0.51914446889E+03  0.40000000000E+03 0.  1.
   -9000007    1    1    2    0  503  0.28981357396E+02  0.74227665519E+02 -0.39573656486E+03  0.56829314106E+03  0.40000000000E+03 0.  1.
<mgrwt>
<rscale>  2 0.40785986E+03</rscale>
<asrwt>0</asrwt>
<pdfrwt beam="1">  1       21 0.77914492E-01 0.40785986E+03</pdfrwt>
<pdfrwt beam="2">  1       21 0.89383602E-01 0.40785986E+03</pdfrwt>
<totfact> 0.13570619E+03</totfact>
</mgrwt>
</event>
<event>
 4    1  0.4690138E-002  0.4507667E+03  0.7818608E-02  0.1027494E+00
         21   -1    0    0  501  502  0.00000000000E+00  0.00000000000E+00  0.13853159534E+03  0.13853159534E+03  0.00000000000E+00 0. -1.
         21   -1    0    0  502  503 -0.00000000000E+00 -0.00000000000E+00 -0.27006569951E+04  0.27006569951E+04  0.00000000000E+00 0.  1.
    9000007    1    1    2  501    0 -0.81101623021E+02 -0.19134565960E+03 -0.32150413897E+03  0.55367458501E+03  0.40000000000E+03 0. -1.
   -9000007    1    1    2    0  503  0.81101623021E+02  0.19134565960E+03 -0.22406212608E+04  0.22855140054E+04  0.40000000000E+03 0.  1.
<mgrwt>
<rscale>  2 0.45076672E+03</rscale>
<asrwt>0</asrwt>
<pdfrwt beam="1">  1       21 0.21312553E-01 0.45076672E+03</pdfrwt>
<pdfrwt beam="2">  1       21 0.41548570E+00 0.45076672E+03</pdfrwt>
<totfact> 0.10731884E+02</totfact>
</mgrwt>
</event>
<event>
 4    1  0.4690138E-002  0.6459228E+03  0.7818608E-02  0.9814460E-01
         21   -1    0    0  501  502  0.00000000000E+00  0.00000000000E+00  0.12101308400E+04  0.12101308400E+04  0.00000000000E+00 0. -1.
         21   -1    0    0  502  503 -0.00000000000E+00 -0.00000000000E+00 -0.69528052271E+03  0.69528052271E+03  0.00000000000E+00 0.  1.
    9000007    1    1    2  501    0 -0.48914216878E+03  0.13400066405E+03  0.93386557112E+03  0.11354827802E+04  0.40000000000E+03 0. -1.
   -9000007    1    1    2    0  503  0.48914216878E+03 -0.13400066405E+03 -0.41901525381E+03  0.76992858251E+03  0.40000000000E+03 0.  1.
<mgrwt>
<rscale>  2 0.64592278E+03</rscale>
<asrwt>0</asrwt>
<pdfrwt beam="1">  1       21 0.18617398E+00 0.64592278E+03</pdfrwt>
<pdfrwt beam="2">  1       21 0.10696623E+00 0.64592278E+03</pdfrwt>
<totfact> 0.83958436E+01</totfact>
</mgrwt>
</event>
<event>
 4    1  0.4690138E-002  0.5725470E+03  0.7818608E-02  0.9964058E-01
         21   -1    0    0  503  502  0.00000000000E+00  0.00000000000E+00  0.27533530167E+03  0.27533530167E+03  0.00000000000E+00 0.  1.
         21   -1    0    0  501  503 -0.00000000000E+00 -0.00000000000E+00 -0.12358130105E+04  0.12358130105E+04  0.00000000000E+00 0.  1.
    9000007    1    1    2  501    0 -0.31131664969E+03 -0.26625554336E+03 -0.33569333994E+03  0.66370180746E+03  0.40000000000E+03 0.  1.
   -9000007    1    1    2    0  502  0.31131664969E+03  0.26625554336E+03 -0.62478436889E+03  0.84744650472E+03  0.40000000000E+03 0.  1.
<mgrwt>
<rscale>  2 0.57254700E+03</rscale>
<asrwt>0</asrwt>
<pdfrwt beam="1">  1       21 0.42359278E-01 0.57254700E+03</pdfrwt>
<pdfrwt beam="2">  1       21 0.19012508E+00 0.57254700E+03</pdfrwt>
<totfact> 0.65940715E+02</totfact>
</mgrwt>
</event>
<event>
 4    1  0.4690138E-002  0.4441898E+03  0.7818608E-02  0.1029469E+00
         21   -1    0    0  501  502  0.00000000000E+00  0.00000000000E+00  0.89314380301E+03  0.89314380301E+03  0.00000000000E+00 0. -1.
         21   -1    0    0  502  503 -0.00000000000E+00 -0.00000000000E+00 -0.26038593600E+03  0.26038593600E+03  0.00000000000E+00 0. -1.
    9000007    1    1    2  501    0  0.17063735628E+00  0.19314388931E+03  0.54095065290E+03  0.69995156973E+03  0.40000000000E+03 0. -1.
   -9000007    1    1    2    0  503 -0.17063735628E+00 -0.19314388931E+03  0.91807214113E+02  0.45357816929E+03  0.40000000000E+03 0. -1.
<mgrwt>
<rscale>  2 0.44418981E+03</rscale>
<asrwt>0</asrwt>
<pdfrwt beam="1">  1       21 0.13740674E+00 0.44418981E+03</pdfrwt>
<pdfrwt beam="2">  1       21 0.40059375E-01 0.44418981E+03</pdfrwt>
<totfact> 0.19385924E+03</totfact>
</mgrwt>
</event>
<event>
 4    1  0.4690138E-002  0.5129708E+03  0.7818608E-02  0.1010448E+00
         21   -1    0    0  503  502  0.00000000000E+00  0.00000000000E+00  0.16668136875E+04  0.16668136875E+04  0.00000000000E+00 0.  1.
         21   -1    0    0  501  503 -0.00000000000E+00 -0.00000000000E+00 -0.16308136940E+03  0.16308136940E+03  0.00000000000E+00 0.  1.
    9000007    1    1    2  501    0  0.44986745891E+02  0.31798628804E+03  0.91543090174E+03  0.10493582908E+04  0.40000000000E+03 0.  1.
   -9000007    1    1    2    0  502 -0.44986745891E+02 -0.31798628804E+03  0.58830141635E+03  0.78053676605E+03  0.40000000000E+03 0.  1.
<mgrwt>
<rscale>  2 0.51297084E+03</rscale>
<asrwt>0</asrwt>
<pdfrwt beam="1">  1       21 0.25643286E+00 0.51297084E+03</pdfrwt>
<pdfrwt beam="2">  1       21 0.25089443E-01 0.51297084E+03</pdfrwt>
<totfact> 0.72516768E+02</totfact>
</mgrwt>
</event>
<event>
 4    1  0.4690138E-002  0.5015929E+03  0.7818608E-02  0.1013364E+00
         21   -1    0    0  503  502  0.00000000000E+00  0.00000000000E+00  0.42710580590E+03  0.42710580590E+03  0.00000000000E+00 0.  1.
         21   -1    0    0  501  503 -0.00000000000E+00 -0.00000000000E+00 -0.66644563851E+03  0.66644563851E+03  0.00000000000E+00 0.  1.
    9000007    1    1    2  501    0  0.28819404648E+03 -0.92410319228E+02 -0.30597610548E+03  0.58755157446E+03  0.40000000000E+03 0.  1.
   -9000007    1    1    2    0  502 -0.28819404648E+03  0.92410319228E+02  0.66636272869E+02  0.50599986995E+03  0.40000000000E+03 0.  1.
<mgrwt>
<rscale>  2 0.50159294E+03</rscale>
<asrwt>0</asrwt>
<pdfrwt beam="1">  1       21 0.65708586E-01 0.50159294E+03</pdfrwt>
<pdfrwt beam="2">  1       21 0.10253010E+00 0.50159294E+03</pdfrwt>
<totfact> 0.13826092E+03</totfact>
</mgrwt>
</event>
<event>
 4    1  0.4690138E-002  0.4928568E+03  0.7818608E-02  0.1015660E+00
         21   -1    0    0  503  502  0.00000000000E+00  0.00000000000E+00  0.24298895897E+04  0.24298895897E+04  0.00000000000E+00 0. -1.
         21   -1    0    0  501  503 -0.00000000000E+00 -0.00000000000E+00 -0.15856716383E+03  0.15856716383E+03  0.00000000000E+00 0. -1.
    9000007    1    1    2  501    0  0.22022516726E+03  0.18549594015E+03  0.34887800373E+03  0.60384081478E+03  0.40000000000E+03 0. -1.
   -9000007    1    1    2    0  502 -0.22022516726E+03 -0.18549594015E+03  0.19224444221E+04  0.19846159387E+04  0.40000000000E+03 0. -1.
<mgrwt>
<rscale>  2 0.49285684E+03</rscale>
<asrwt>0</asrwt>
<pdfrwt beam="1">  1       21 0.37382914E+00 0.49285684E+03</pdfrwt>
<pdfrwt beam="2">  1       21 0.24394950E-01 0.49285684E+03</pdfrwt>
<totfact> 0.14845681E+02</totfact>
</mgrwt>
</event>
<event>
 4    1  0.4690138E-002  0.4448550E+03  0.7818608E-02  0.1029268E+00
         21   -1    0    0  503  502  0.00000000000E+00  0.00000000000E+00  0.72089436188E+03  0.72089436188E+03  0.00000000000E+00 0. -1.
         21   -1    0    0  501  503 -0.00000000000E+00 -0.00000000000E+00 -0.29481201447E+03  0.29481201447E+03  0.00000000000E+00 0. -1.
    9000007    1    1    2  501    0  0.30241052210E+02 -0.19230561234E+03  0.34629718487E+03  0.56375323505E+03  0.40000000000E+03 0. -1.
   -9000007    1    1    2    0  502 -0.30241052210E+02  0.19230561234E+03  0.79785162536E+02  0.45195314131E+03  0.40000000000E+03 0. -1.
<mgrwt>
<rscale>  2 0.44485500E+03</rscale>
<asrwt>0</asrwt>
<pdfrwt beam="1">  1       21 0.11090682E+00 0.44485500E+03</pdfrwt>
<pdfrwt beam="2">  1       21 0.45355695E-01 0.44485500E+03</pdfrwt>
<totfact> 0.25897985E+03</totfact>
</mgrwt>
</event>
<event>
 4    1  0.4690138E-002  0.4565362E+03  0.7818608E-02  0.1025791E+00
         21   -1    0    0  503  502  0.00000000000E+00  0.00000000000E+00  0.18962202984E+04  0.18962202984E+04  0.00000000000E+00 0. -1.
         21   -1    0    0  501  503 -0.00000000000E+00 -0.00000000000E+00 -0.11790700075E+03  0.11790700075E+03  0.00000000000E+00 0. -1.
    9000007    1    1    2  501    0  0.48058057138E+02  0.21474573516E+03  0.62698689316E+03  0.77558872595E+03  0.40000000000E+03 0. -1.
   -9000007    1    1    2    0  502 -0.48058057138E+02 -0.21474573516E+03  0.11513264045E+04  0.12385385732E+04  0.40000000000E+03 0. -1.
<mgrwt>
<rscale>  2 0.45653621E+03</rscale>
<asrwt>0</asrwt>
<pdfrwt beam="1">  1       21 0.29172618E+00 0.45653621E+03</pdfrwt>
<pdfrwt beam="2">  1       21 0.18139540E-01 0.45653621E+03</pdfrwt>
<totfact> 0.84822087E+02</totfact>
</mgrwt>
</event>
<event>
 4    1  0.4690138E-002  0.4044283E+03  0.7818608E-02  0.1042257E+00
         21   -1    0    0  501  502  0.00000000000E+00  0.00000000000E+00  0.77863399266E+03  0.77863399266E+03  0.00000000000E+00 0.  1.
         21   -1    0    0  502  503 -0.00000000000E+00 -0.00000000000E+00 -0.59209973265E+03  0.59209973265E+03  0.00000000000E+00 0.  1.
    9000007    1    1    2  501    0 -0.59667010846E+02  0.14540305727E+01  0.64379356436E+03  0.76028443355E+03  0.40000000000E+03 0.  1.
   -9000007    1    1    2    0  503  0.59667010846E+02 -0.14540305727E+01 -0.45725930435E+03  0.61044929176E+03  0.40000000000E+03 0.  1.
<mgrwt>
<rscale>  2 0.40442832E+03</rscale>
<asrwt>0</asrwt>
<pdfrwt beam="1">  1       21 0.11978985E+00 0.40442832E+03</pdfrwt>
<pdfrwt beam="2">  1       21 0.91092266E-01 0.40442832E+03</pdfrwt>
<totfact> 0.46218545E+02</totfact>
</mgrwt>
</event>
<event>
 4    1  0.4690138E-002  0.4633629E+03  0.7818608E-02  0.1023810E+00
         21   -1    0    0  501  502  0.00000000000E+00  0.00000000000E+00  0.14121780741E+04  0.14121780741E+04  0.00000000000E+00 0. -1.
         21   -1    0    0  502  503 -0.00000000000E+00 -0.00000000000E+00 -0.30986176024E+03  0.30986176024E+03  0.00000000000E+00 0.  1.
    9000007    1    1    2  501    0  0.23334487023E+03  0.15978401222E+02  0.11656484146E+04  0.12543689107E+04  0.40000000000E+03 0. -1.
   -9000007    1    1    2    0  503 -0.23334487023E+03 -0.15978401222E+02 -0.63332100761E+02  0.46767092357E+03  0.40000000000E+03 0.  1.
<mgrwt>
<rscale>  2 0.46336286E+03</rscale>
<asrwt>0</asrwt>
<pdfrwt beam="1">  1       21 0.21725816E+00 0.46336286E+03</pdfrwt>
<pdfrwt beam="2">  1       21 0.47671041E-01 0.46336286E+03</pdfrwt>
<totfact> 0.35567650E+02</totfact>
</mgrwt>
</event>
<event>
 4    1  0.4690138E-002  0.4372750E+03  0.7818608E-02  0.1031586E+00
         21   -1    0    0  501  502  0.00000000000E+00  0.00000000000E+00  0.22420214909E+03  0.22420214909E+03  0.00000000000E+00 0.  1.
         21   -1    0    0  502  503 -0.00000000000E+00 -0.00000000000E+00 -0.91704637453E+03  0.91704637453E+03  0.00000000000E+00 0.  1.
    9000007    1    1    2  501    0  0.51930560127E+01  0.17658544106E+03 -0.19543801338E+03  0.47896284083E+03  0.40000000000E+03 0.  1.
   -9000007    1    1    2    0  503 -0.51930560127E+01 -0.17658544106E+03 -0.49740621207E+03  0.66228568279E+03  0.40000000000E+03 0.  1.
<mgrwt>
<rscale>  2 0.43727495E+03</rscale>
<asrwt>0</asrwt>
<pdfrwt beam="1">  1       21 0.34492638E-01 0.43727495E+03</pdfrwt>
<pdfrwt beam="2">  1       21 0.14108406E+00 0.43727495E+03</pdfrwt>
<totfact> 0.24584856E+03</totfact>
</mgrwt>
</event>
<event>
 4    1  0.4690138E-002  0.4093902E+03  0.7818608E-02  0.1040576E+00
         21   -1    0    0  503  502  0.00000000000E+00  0.00000000000E+00  0.11714922554E+03  0.11714922554E+03  0.00000000000E+00 0.  1.
         21   -1    0    0  501  503 -0.00000000000E+00 -0.00000000000E+00 -0.16147327495E+04  0.16147327495E+04  0.00000000000E+00 0.  1.
    9000007    1    1    2  501    0  0.42037047467E+02  0.76375754904E+02 -0.10411640190E+04  0.11187595290E+04  0.40000000000E+03 0.  1.
   -9000007    1    1    2    0  502 -0.42037047467E+02 -0.76375754904E+02 -0.45641950488E+03  0.61312244595E+03  0.40000000000E+03 0.  1.
<mgrwt>
<rscale>  2 0.40939024E+03</rscale>
<asrwt>0</asrwt>
<pdfrwt beam="1">  1       21 0.18022958E-01 0.40939024E+03</pdfrwt>
<pdfrwt beam="2">  1       21 0.24842042E+00 0.40939024E+03</pdfrwt>
<totfact> 0.16091483E+03</totfact>
</mgrwt>
</event>
<event>
 4    1  0.4690138E-002  0.4175974E+03  0.7818608E-02  0.1037851E+00
         21   -1    0    0  503  502  0.00000000000E+00  0.00000000000E+00  0.22667410894E+03  0.22667410894E+03  0.00000000000E+00 0. -1.
         21   -1    0    0  501  503 -0.00000000000E+00 -0.00000000000E+00 -0.92257913080E+03  0.92257913080E+03  0.00000000000E+00 0. -1.
    9000007    1    1    2  501    0  0.10742771809E+03  0.53356020396E+02 -0.58214907369E+03  0.71643919736E+03  0.40000000000E+03 0. -1.
   -9000007    1    1    2    0  502 -0.10742771809E+03 -0.53356020396E+02 -0.11375594818E+03  0.43281404237E+03  0.40000000000E+03 0. -1.
<mgrwt>
<rscale>  2 0.41759739E+03</rscale>
<asrwt>0</asrwt>
<pdfrwt beam="1">  1       21 0.34872939E-01 0.41759739E+03</pdfrwt>
<pdfrwt beam="2">  1       21 0.14193525E+00 0.41759739E+03</pdfrwt>
<totfact> 0.23851880E+03</totfact>
</mgrwt>
</event>
<event>
 4    1  0.4690138E-002  0.5359703E+03  0.7818608E-02  0.1004794E+00
         21   -1    0    0  503  502  0.00000000000E+00  0.00000000000E+00  0.10909259281E+04  0.10909259281E+04  0.00000000000E+00 0.  1.
         21   -1    0    0  501  503 -0.00000000000E+00 -0.00000000000E+00 -0.38482393840E+03  0.38482393840E+03  0.00000000000E+00 0.  1.
    9000007    1    1    2  501    0 -0.15043039171E+03 -0.32347317305E+03 -0.61563331606E+02  0.53949443021E+03  0.40000000000E+03 0.  1.
   -9000007    1    1    2    0  502  0.15043039171E+03  0.32347317305E+03  0.76766532126E+03  0.93625543625E+03  0.40000000000E+03 0.  1.
<mgrwt>
<rscale>  2 0.53597033E+03</rscale>
<asrwt>0</asrwt>
<pdfrwt beam="1">  1       21 0.16783476E+00 0.53597033E+03</pdfrwt>
<pdfrwt beam="2">  1       21 0.59203683E-01 0.53597033E+03</pdfrwt>
<totfact> 0.47115413E+02</totfact>
</mgrwt>
</event>
<event>
 4    1  0.4690138E-002  0.5488573E+03  0.7818608E-02  0.1001759E+00
         21   -1    0    0  501  502  0.00000000000E+00  0.00000000000E+00  0.25884992772E+03  0.25884992772E+03  0.00000000000E+00 0.  1.
         21   -1    0    0  502  503 -0.00000000000E+00 -0.00000000000E+00 -0.14237830167E+04  0.14237830167E+04  0.00000000000E+00 0. -1.
    9000007    1    1    2  501    0  0.24219426087E+03  0.28737835811E+03 -0.22294357409E+03  0.59240882669E+03  0.40000000000E+03 0.  1.
   -9000007    1    1    2    0  503 -0.24219426087E+03 -0.28737835811E+03 -0.94198951488E+03  0.10902241177E+04  0.40000000000E+03 0. -1.
<mgrwt>
<rscale>  2 0.54885734E+03</rscale>
<asrwt>0</asrwt>
<pdfrwt beam="1">  1       21 0.39823067E-01 0.54885734E+03</pdfrwt>
<pdfrwt beam="2">  1       21 0.21904354E+00 0.54885734E+03</pdfrwt>
<totfact> 0.48532958E+02</totfact>
</mgrwt>
</event>
<event>
 4    1  0.4690138E-002  0.4264620E+03  0.7818608E-02  0.1034983E+00
         21   -1    0    0  503  502  0.00000000000E+00  0.00000000000E+00  0.31182411263E+03  0.31182411263E+03  0.00000000000E+00 0.  1.
         21   -1    0    0  501  503 -0.00000000000E+00 -0.00000000000E+00 -0.58348769675E+03  0.58348769675E+03  0.00000000000E+00 0. -1.
    9000007    1    1    2  501    0 -0.13531379675E+03  0.59665556305E+02 -0.12669885080E+03  0.44488470528E+03  0.40000000000E+03 0. -1.
   -9000007    1    1    2    0  502  0.13531379675E+03 -0.59665556305E+02 -0.14496473333E+03  0.45042710410E+03  0.40000000000E+03 0.  1.
<mgrwt>
<rscale>  2 0.42646196E+03</rscale>
<asrwt>0</asrwt>
<pdfrwt beam="1">  1       21 0.47972940E-01 0.42646196E+03</pdfrwt>
<pdfrwt beam="2">  1       21 0.89767338E-01 0.42646196E+03</pdfrwt>
<totfact> 0.38702008E+03</totfact>
</mgrwt>
</event>
<event>
 4    1  0.4690138E-002  0.4219181E+03  0.7818608E-02  0.1036444E+00
         21   -1    0    0  503  502  0.00000000000E+00  0.00000000000E+00  0.14896521796E+03  0.14896521796E+03  0.00000000000E+00 0.  1.
         21   -1    0    0  501  503 -0.00000000000E+00 -0.00000000000E+00 -0.12218270632E+04  0.12218270632E+04  0.00000000000E+00 0.  1.
    9000007    1    1    2  501    0  0.85054019519E+02 -0.10383015503E+03 -0.63797262637E+03  0.76486858958E+03  0.40000000000E+03 0.  1.
   -9000007    1    1    2    0  502 -0.85054019519E+02  0.10383015503E+03 -0.43488921886E+03  0.60592369157E+03  0.40000000000E+03 0.  1.
<mgrwt>
<rscale>  2 0.42191811E+03</rscale>
<asrwt>0</asrwt>
<pdfrwt beam="1">  1       21 0.22917726E-01 0.42191811E+03</pdfrwt>
<pdfrwt beam="2">  1       21 0.18797339E+00 0.42191811E+03</pdfrwt>
<totfact> 0.24770709E+03</totfact>
</mgrwt>
</event>
<event>
 4    1  0.4690138E-002  0.4098157E+03  0.7818608E-02  0.1040433E+00
         21   -1    0    0  503  502  0.00000000000E+00  0.00000000000E+00  0.35824938273E+03  0.35824938273E+03  0.00000000000E+00 0.  1.
         21   -1    0    0  501  503 -0.00000000000E+00 -0.00000000000E+00 -0.11555174207E+04  0.11555174207E+04  0.00000000000E+00 0.  1.
    9000007    1    1    2  501    0  0.36749376344E+01 -0.89081001263E+02 -0.98211719162E+03  0.10641912930E+04  0.40000000000E+03 0.  1.
   -9000007    1    1    2    0  502 -0.36749376344E+01  0.89081001263E+02  0.18484915369E+03  0.44957551042E+03  0.40000000000E+03 0.  1.
<mgrwt>
<rscale>  2 0.40981573E+03</rscale>
<asrwt>0</asrwt>
<pdfrwt beam="1">  1       21 0.55115290E-01 0.40981573E+03</pdfrwt>
<pdfrwt beam="2">  1       21 0.17777191E+00 0.40981573E+03</pdfrwt>
<totfact> 0.49413276E+02</totfact>
</mgrwt>
</event>
<event>
 4    1  0.4690138E-002  0.5003159E+03  0.7818608E-02  0.1013697E+00
         21   -1    0    0  501  502  0.00000000000E+00  0.00000000000E+00  0.17616815641E+04  0.17616815641E+04  0.00000000000E+00 0. -1.
         21   -1    0    0  502  503 -0.00000000000E+00 -0.00000000000E+00 -0.15621791491E+03  0.15621791491E+03  0.00000000000E+00 0. -1.
    9000007    1    1    2  501    0  0.30042348820E+03 -0.78539371728E+01  0.10911226730E+04  0.12003602143E+04  0.40000000000E+03 0. -1.
   -9000007    1    1    2    0  503 -0.30042348820E+03  0.78539371728E+01  0.51434097624E+03  0.71753926473E+03  0.40000000000E+03 0. -1.
<mgrwt>
<rscale>  2 0.50031586E+03</rscale>
<asrwt>0</asrwt>
<pdfrwt beam="1">  1       21 0.27102792E+00 0.50031586E+03</pdfrwt>
<pdfrwt beam="2">  1       21 0.24033527E-01 0.50031586E+03</pdfrwt>
<totfact> 0.64583182E+02</totfact>
</mgrwt>
</event>
<event>
 4    1  0.4690138E-002  0.4027613E+03  0.7818608E-02  0.1042828E+00
         21   -1    0    0  501  502  0.00000000000E+00  0.00000000000E+00  0.45077922299E+03  0.45077922299E+03  0.00000000000E+00 0.  1.
         21   -1    0    0  502  503 -0.00000000000E+00 -0.00000000000E+00 -0.81135904648E+03  0.81135904648E+03  0.00000000000E+00 0.  1.
    9000007    1    1    2  501    0 -0.21996735885E+02 -0.41627034500E+02  0.29047015043E+03  0.49657786367E+03  0.40000000000E+03 0.  1.
   -9000007    1    1    2    0  503  0.21996735885E+02  0.41627034500E+02 -0.65104997392E+03  0.76556040580E+03  0.40000000000E+03 0.  1.
<mgrwt>
<rscale>  2 0.40276130E+03</rscale>
<asrwt>0</asrwt>
<pdfrwt beam="1">  1       21 0.69350650E-01 0.40276130E+03</pdfrwt>
<pdfrwt beam="2">  1       21 0.12482447E+00 0.40276130E+03</pdfrwt>
<totfact> 0.78035272E+02</totfact>
</mgrwt>
</event>
<event>
 4    1  0.4690138E-002  0.4581023E+03  0.7818608E-02  0.1025333E+00
         21   -1    0    0  501  502  0.00000000000E+00  0.00000000000E+00  0.56064923015E+03  0.56064923015E+03  0.00000000000E+00 0. -1.
         21   -1    0    0  502  503 -0.00000000000E+00 -0.00000000000E+00 -0.44948381997E+03  0.44948381997E+03  0.00000000000E+00 0. -1.
    9000007    1    1    2  501    0  0.11977760662E+03  0.18844378792E+03  0.26212979373E+03  0.52779708697E+03  0.40000000000E+03 0. -1.
   -9000007    1    1    2    0  503 -0.11977760662E+03 -0.18844378792E+03 -0.15096438355E+03  0.48233596316E+03  0.40000000000E+03 0. -1.
<mgrwt>
<rscale>  2 0.45810232E+03</rscale>
<asrwt>0</asrwt>
<pdfrwt beam="1">  1       21 0.86253728E-01 0.45810232E+03</pdfrwt>
<pdfrwt beam="2">  1       21 0.69151357E-01 0.45810232E+03</pdfrwt>
<totfact> 0.18961952E+03</totfact>
</mgrwt>
</event>
<event>
 4    1  0.4690138E-002  0.4442402E+03  0.7818608E-02  0.1029454E+00
         21   -1    0    0  503  502  0.00000000000E+00  0.00000000000E+00  0.15568114793E+03  0.15568114793E+03  0.00000000000E+00 0. -1.
         21   -1    0    0  501  503 -0.00000000000E+00 -0.00000000000E+00 -0.21628004791E+04  0.21628004791E+04  0.00000000000E+00 0. -1.
    9000007    1    1    2  501    0 -0.17618440939E+03  0.79425260023E+02 -0.17493440503E+04  0.18048695035E+04  0.40000000000E+03 0. -1.
   -9000007    1    1    2    0  502  0.17618440939E+03 -0.79425260023E+02 -0.25777528078E+03  0.51361212352E+03  0.40000000000E+03 0. -1.
<mgrwt>
<rscale>  2 0.44424016E+03</rscale>
<asrwt>0</asrwt>
<pdfrwt beam="1">  1       21 0.23950948E-01 0.44424016E+03</pdfrwt>
<pdfrwt beam="2">  1       21 0.33273851E+00 0.44424016E+03</pdfrwt>
<totfact> 0.28421869E+02</totfact>
</mgrwt>
</event>
<event>
 4    1  0.4690138E-002  0.4529734E+03  0.7818608E-02  0.1026839E+00
         21   -1    0    0  503  502  0.00000000000E+00  0.00000000000E+00  0.20402476949E+03  0.20402476949E+03  0.00000000000E+00 0. -1.
         21   -1    0    0  501  503 -0.00000000000E+00 -0.00000000000E+00 -0.15278481490E+04  0.15278481490E+04  0.00000000000E+00 0. -1.
    9000007    1    1    2  501    0  0.54664567689E+02 -0.20541839284E+03 -0.11681423750E+04  0.12528932673E+04  0.40000000000E+03 0. -1.
   -9000007    1    1    2    0  502 -0.54664567689E+02  0.20541839284E+03 -0.15568100455E+03  0.47897965119E+03  0.40000000000E+03 0. -1.
<mgrwt>
<rscale>  2 0.45297343E+03</rscale>
<asrwt>0</asrwt>
<pdfrwt beam="1">  1       21 0.31388426E-01 0.45297343E+03</pdfrwt>
<pdfrwt beam="2">  1       21 0.23505356E+00 0.45297343E+03</pdfrwt>
<totfact> 0.65031840E+02</totfact>
</mgrwt>
</event>
<event>
 4    1  0.4690138E-002  0.4532997E+03  0.7818608E-02  0.1026743E+00
         21   -1    0    0  501  502  0.00000000000E+00  0.00000000000E+00  0.18850333230E+03  0.18850333230E+03  0.00000000000E+00 0.  1.
         21   -1    0    0  502  503 -0.00000000000E+00 -0.00000000000E+00 -0.10942520419E+04  0.10942520419E+04  0.00000000000E+00 0.  1.
    9000007    1    1    2  501    0 -0.34697143158E+02 -0.21042037800E+03 -0.41319361976E+03  0.61335927044E+03  0.40000000000E+03 0.  1.
   -9000007    1    1    2    0  503  0.34697143158E+02  0.21042037800E+03 -0.49255508987E+03  0.66939610379E+03  0.40000000000E+03 0.  1.
<mgrwt>
<rscale>  2 0.45329971E+03</rscale>
<asrwt>0</asrwt>
<pdfrwt beam="1">  1       21 0.29000513E-01 0.45329971E+03</pdfrwt>
<pdfrwt beam="2">  1       21 0.16834646E+00 0.45329971E+03</pdfrwt>
<totfact> 0.21269917E+03</totfact>
</mgrwt>
</event>
<event>
 4    1  0.4690138E-002  0.5268828E+03  0.7818608E-02  0.1006991E+00
         21   -1    0    0  501  502  0.00000000000E+00  0.00000000000E+00  0.99852526781E+03  0.99852526781E+03  0.00000000000E+00 0. -1.
         21   -1    0    0  502  503 -0.00000000000E+00 -0.00000000000E+00 -0.27853866795E+03  0.27853866795E+03  0.00000000000E+00 0. -1.
    9000007    1    1    2  501    0  0.56488204898E+02  0.33825218124E+03  0.33231880781E+03  0.62292956699E+03  0.40000000000E+03 0. -1.
   -9000007    1    1    2    0  503 -0.56488204898E+02 -0.33825218124E+03  0.38766779205E+03  0.65413436876E+03  0.40000000000E+03 0. -1.
<mgrwt>
<rscale>  2 0.52688277E+03</rscale>
<asrwt>0</asrwt>
<pdfrwt beam="1">  1       21 0.15361927E+00 0.52688277E+03</pdfrwt>
<pdfrwt beam="2">  1       21 0.42852103E-01 0.52688277E+03</pdfrwt>
<totfact> 0.12096137E+03</totfact>
</mgrwt>
</event>
<event>
 4    1  0.4690138E-002  0.4618170E+03  0.7818608E-02  0.1024256E+00
         21   -1    0    0  501  502  0.00000000000E+00  0.00000000000E+00  0.16339898751E+03  0.16339898751E+03  0.00000000000E+00 0.  1.
         21   -1    0    0  502  503 -0.00000000000E+00 -0.00000000000E+00 -0.13171255618E+04  0.13171255618E+04  0.00000000000E+00 0.  1.
    9000007    1    1    2  501    0 -0.21741099631E+03 -0.77507221414E+02 -0.50654309134E+03  0.68546394075E+03  0.40000000000E+03 0.  1.
   -9000007    1    1    2    0  503  0.21741099631E+03  0.77507221414E+02 -0.64718348293E+03  0.79506060855E+03  0.40000000000E+03 0.  1.
<mgrwt>
<rscale>  2 0.46181697E+03</rscale>
<asrwt>0</asrwt>
<pdfrwt beam="1">  1       21 0.25138306E-01 0.46181697E+03</pdfrwt>
<pdfrwt beam="2">  1       21 0.20263470E+00 0.46181697E+03</pdfrwt>
<totfact> 0.16209333E+03</totfact>
</mgrwt>
</event>
<event>
 4    1  0.4690138E-002  0.5101914E+03  0.7818608E-02  0.1011153E+00
         21   -1    0    0  501  502  0.00000000000E+00  0.00000000000E+00  0.27529674230E+03  0.27529674230E+03  0.00000000000E+00 0. -1.
         21   -1    0    0  502  503 -0.00000000000E+00 -0.00000000000E+00 -0.13616297344E+04  0.13616297344E+04  0.00000000000E+00 0. -1.
    9000007    1    1    2  501    0  0.22785851530E+03  0.21994487282E+03 -0.90706792869E+02  0.51819202266E+03  0.40000000000E+03 0. -1.
   -9000007    1    1    2    0  503 -0.22785851530E+03 -0.21994487282E+03 -0.99562619927E+03  0.11187344541E+04  0.40000000000E+03 0. -1.
<mgrwt>
<rscale>  2 0.51019139E+03</rscale>
<asrwt>0</asrwt>
<pdfrwt beam="1">  1       21 0.42353345E-01 0.51019139E+03</pdfrwt>
<pdfrwt beam="2">  1       21 0.20948150E+00 0.51019139E+03</pdfrwt>
<totfact> 0.50098244E+02</totfact>
</mgrwt>
</event>
<event>
 4    1  0.4690138E-002  0.5693775E+03  0.7818608E-02  0.9971057E-01
         21   -1    0    0  503  502  0.00000000000E+00  0.00000000000E+00  0.62789163642E+03  0.62789163642E+03  0.00000000000E+00 0. -1.
         21   -1    0    0  501  503 -0.00000000000E+00 -0.00000000000E+00 -0.83808558604E+03  0.83808558604E+03  0.00000000000E+00 0. -1.
    9000007    1    1    2  501    0 -0.25833689355E+03 -0.31217435308E+03 -0.55927407908E+03  0.79810918603E+03  0.40000000000E+03 0. -1.
   -9000007    1    1    2    0  502  0.25833689355E+03  0.31217435308E+03  0.34908012946E+03  0.66786803643E+03  0.40000000000E+03 0. -1.
<mgrwt>
<rscale>  2 0.56937753E+03</rscale>
<asrwt>0</asrwt>
<pdfrwt beam="1">  1       21 0.96598713E-01 0.56937753E+03</pdfrwt>
<pdfrwt beam="2">  1       21 0.12893624E+00 0.56937753E+03</pdfrwt>
<totfact> 0.30926029E+02</totfact>
</mgrwt>
</event>
<event>
 4    1  0.4690138E-002  0.4260113E+03  0.7818608E-02  0.1035127E+00
         21   -1    0    0  503  502  0.00000000000E+00  0.00000000000E+00  0.43341306644E+03  0.43341306644E+03  0.00000000000E+00 0.  1.
         21   -1    0    0  501  503 -0.00000000000E+00 -0.00000000000E+00 -0.41882940909E+03  0.41882940909E+03  0.00000000000E+00 0.  1.
    9000007    1    1    2  501    0 -0.14623780352E+03 -0.10007379389E+02  0.92727459955E+00  0.42601232689E+03  0.40000000000E+03 0.  1.
   -9000007    1    1    2    0  502  0.14623780352E+03  0.10007379389E+02  0.13656382756E+02  0.42623014864E+03  0.40000000000E+03 0.  1.
<mgrwt>
<rscale>  2 0.42601132E+03</rscale>
<asrwt>0</asrwt>
<pdfrwt beam="1">  1       21 0.66678933E-01 0.42601132E+03</pdfrwt>
<pdfrwt beam="2">  1       21 0.64435294E-01 0.42601132E+03</pdfrwt>
<totfact> 0.40458253E+03</totfact>
</mgrwt>
</event>
<event>
 4    1  0.4690138E-002  0.4250776E+03  0.7818608E-02  0.1035426E+00
         21   -1    0    0  501  502  0.00000000000E+00  0.00000000000E+00  0.44398369843E+03  0.44398369843E+03  0.00000000000E+00 0.  1.
         21   -1    0    0  502  503 -0.00000000000E+00 -0.00000000000E+00 -0.49500254328E+03  0.49500254328E+03  0.00000000000E+00 0.  1.
    9000007    1    1    2  501    0 -0.68239046306E+02 -0.12662698229E+03  0.17247496792E+03  0.45873584408E+03  0.40000000000E+03 0.  1.
   -9000007    1    1    2    0  503  0.68239046306E+02  0.12662698229E+03 -0.22349381277E+03  0.48025039764E+03  0.40000000000E+03 0.  1.
<mgrwt>
<rscale>  2 0.42507759E+03</rscale>
<asrwt>0</asrwt>
<pdfrwt beam="1">  1       21 0.68305184E-01 0.42507759E+03</pdfrwt>
<pdfrwt beam="2">  1       21 0.76154238E-01 0.42507759E+03</pdfrwt>
<totfact> 0.26333878E+03</totfact>
</mgrwt>
</event>
<event>
 4    1  0.4690138E-002  0.4005155E+03  0.7818608E-02  0.1043601E+00
         21   -1    0    0  503  502  0.00000000000E+00  0.00000000000E+00  0.29426469354E+03  0.29426469354E+03  0.00000000000E+00 0.  1.
         21   -1    0    0  501  503 -0.00000000000E+00 -0.00000000000E+00 -0.54554306118E+03  0.54554306118E+03  0.00000000000E+00 0.  1.
    9000007    1    1    2  501    0 -0.11540448142E+01 -0.20281013492E+02 -0.13718684944E+03  0.42335904737E+03  0.40000000000E+03 0. -1.
   -9000007    1    1    2    0  502  0.11540448142E+01  0.20281013492E+02 -0.11409151821E+03  0.41644870735E+03  0.40000000000E+03 0. -1.
<mgrwt>
<rscale>  2 0.40051548E+03</rscale>
<asrwt>0</asrwt>
<pdfrwt beam="1">  1       21 0.45271492E-01 0.40051548E+03</pdfrwt>
<pdfrwt beam="2">  1       21 0.83929701E-01 0.40051548E+03</pdfrwt>
<totfact> 0.51671969E+03</totfact>
</mgrwt>
</event>
<event>
 4    1  0.4690138E-002  0.4772844E+03  0.7818608E-02  0.1019884E+00
         21   -1    0    0  503  502  0.00000000000E+00  0.00000000000E+00  0.26151505706E+03  0.26151505706E+03  0.00000000000E+00 0.  1.
         21   -1    0    0  501  503 -0.00000000000E+00 -0.00000000000E+00 -0.87212767359E+03  0.87212767359E+03  0.00000000000E+00 0.  1.
    9000007    1    1    2  501    0 -0.56508805978E+02  0.25417944203E+03 -0.32495574014E+03  0.57740511511E+03  0.40000000000E+03 0.  1.
   -9000007    1    1    2    0  502  0.56508805978E+02 -0.25417944203E+03 -0.28565687640E+03  0.55623761554E+03  0.40000000000E+03 0.  1.
<mgrwt>
<rscale>  2 0.47728444E+03</rscale>
<asrwt>0</asrwt>
<pdfrwt beam="1">  1       21 0.40233086E-01 0.47728444E+03</pdfrwt>
<pdfrwt beam="2">  1       21 0.13417349E+00 0.47728444E+03</pdfrwt>
<totfact> 0.20197040E+03</totfact>
</mgrwt>
</event>
<event>
 4    1  0.4690138E-002  0.4722032E+03  0.7818608E-02  0.1021300E+00
         21   -1    0    0  501  502  0.00000000000E+00  0.00000000000E+00  0.14724364961E+04  0.14724364961E+04  0.00000000000E+00 0. -1.
         21   -1    0    0  502  503 -0.00000000000E+00 -0.00000000000E+00 -0.43346360845E+03  0.43346360845E+03  0.00000000000E+00 0. -1.
    9000007    1    1    2  501    0  0.23049688716E+03  0.99232144231E+02  0.12881596667E+04  0.13719807434E+04  0.40000000000E+03 0. -1.
   -9000007    1    1    2    0  503 -0.23049688716E+03 -0.99232144231E+02 -0.24918677897E+03  0.53391936119E+03  0.40000000000E+03 0. -1.
<mgrwt>
<rscale>  2 0.47220317E+03</rscale>
<asrwt>0</asrwt>
<pdfrwt beam="1">  1       21 0.22652869E+00 0.47220317E+03</pdfrwt>
<pdfrwt beam="2">  1       21 0.66686710E-01 0.47220317E+03</pdfrwt>
<totfact> 0.14902953E+02</totfact>
</mgrwt>
</event>
<event>
 4    1  0.4690138E-002  0.4251644E+03  0.7818608E-02  0.1035398E+00
         21   -1    0    0  503  502  0.00000000000E+00  0.00000000000E+00  0.11803209070E+04  0.11803209070E+04  0.00000000000E+00 0. -1.
         21   -1    0    0  501  503 -0.00000000000E+00 -0.00000000000E+00 -0.16090751237E+03  0.16090751237E+03  0.00000000000E+00 0. -1.
    9000007    1    1    2  501    0 -0.68829226860E+02  0.12659886405E+03  0.36244855603E+03  0.55868926123E+03  0.40000000000E+03 0. -1.
   -9000007    1    1    2    0  502  0.68829226860E+02 -0.12659886405E+03  0.65696483856E+03  0.78253915810E+03  0.40000000000E+03 0. -1.
<mgrwt>
<rscale>  2 0.42516436E+03</rscale>
<asrwt>0</asrwt>
<pdfrwt beam="1">  1       21 0.18158783E+00 0.42516436E+03</pdfrwt>
<pdfrwt beam="2">  1       21 0.24755003E-01 0.42516436E+03</pdfrwt>
<totfact> 0.23594128E+03</totfact>
</mgrwt>
</event>
<event>
 4    1  0.4690138E-002  0.4252842E+03  0.7818608E-02  0.1035360E+00
         21   -1    0    0  503  502  0.00000000000E+00  0.00000000000E+00  0.24216049122E+03  0.24216049122E+03  0.00000000000E+00 0.  1.
         21   -1    0    0  501  503 -0.00000000000E+00 -0.00000000000E+00 -0.11620491520E+04  0.11620491520E+04  0.00000000000E+00 0.  1.
    9000007    1    1    2  501    0 -0.14041206193E+03  0.33927376694E+02 -0.87960511340E+03  0.97702188795E+03  0.40000000000E+03 0.  1.
   -9000007    1    1    2    0  502  0.14041206193E+03 -0.33927376694E+02 -0.40283547333E+02  0.42718775522E+03  0.40000000000E+03 0.  1.
<mgrwt>
<rscale>  2 0.42528416E+03</rscale>
<asrwt>0</asrwt>
<pdfrwt beam="1">  1       21 0.37255460E-01 0.42528416E+03</pdfrwt>
<pdfrwt beam="2">  1       21 0.17877679E+00 0.42528416E+03</pdfrwt>
<totfact> 0.10955744E+03</totfact>
</mgrwt>
</event>
<event>
 4    1  0.4690138E-002  0.4372142E+03  0.7818608E-02  0.1031605E+00
         21   -1    0    0  503  502  0.00000000000E+00  0.00000000000E+00  0.50404288399E+03  0.50404288399E+03  0.00000000000E+00 0.  1.
         21   -1    0    0  501  503 -0.00000000000E+00 -0.00000000000E+00 -0.38893773905E+03  0.38893773905E+03  0.00000000000E+00 0.  1.
    9000007    1    1    2  501    0 -0.16863631490E+03 -0.52135182594E+02  0.12803343912E+03  0.45557529070E+03  0.40000000000E+03 0.  1.
   -9000007    1    1    2    0  502  0.16863631490E+03  0.52135182594E+02 -0.12928294173E+02  0.43740533234E+03  0.40000000000E+03 0.  1.
<mgrwt>
<rscale>  2 0.43721423E+03</rscale>
<asrwt>0</asrwt>
<pdfrwt beam="1">  1       21 0.77545059E-01 0.43721423E+03</pdfrwt>
<pdfrwt beam="2">  1       21 0.59836575E-01 0.43721423E+03</pdfrwt>
<totfact> 0.33716343E+03</totfact>
</mgrwt>
</event>
<event>
 4    1  0.4690138E-002  0.4361603E+03  0.7818608E-02  0.1031931E+00
         21   -1    0    0  501  502  0.00000000000E+00  0.00000000000E+00  0.22804966440E+03  0.22804966440E+03  0.00000000000E+00 0.  1.
         21   -1    0    0  502  503 -0.00000000000E+00 -0.00000000000E+00 -0.11677765295E+04  0.11677765295E+04  0.00000000000E+00 0.  1.
    9000007    1    1    2  501    0 -0.70394262333E+02 -0.15899824028E+03 -0.96846573146E+02  0.44678300249E+03  0.40000000000E+03 0.  1.
   -9000007    1    1    2    0  503  0.70394262333E+02  0.15899824028E+03 -0.84288029192E+03  0.94904319137E+03  0.40000000000E+03 0.  1.
<mgrwt>
<rscale>  2 0.43616028E+03</rscale>
<asrwt>0</asrwt>
<pdfrwt beam="1">  1       21 0.35084564E-01 0.43616028E+03</pdfrwt>
<pdfrwt beam="2">  1       21 0.17965793E+00 0.43616028E+03</pdfrwt>
<totfact> 0.12139382E+03</totfact>
</mgrwt>
</event>
<event>
 4    1  0.4690138E-002  0.5477211E+03  0.7818608E-02  0.1002023E+00
         21   -1    0    0  501  502  0.00000000000E+00  0.00000000000E+00  0.97204844651E+03  0.97204844651E+03  0.00000000000E+00 0.  1.
         21   -1    0    0  502  503 -0.00000000000E+00 -0.00000000000E+00 -0.38247663902E+03  0.38247663902E+03  0.00000000000E+00 0.  1.
    9000007    1    1    2  501    0 -0.22677345773E+03 -0.29761085385E+03  0.59238716026E+03  0.80679673345E+03  0.40000000000E+03 0.  1.
   -9000007    1    1    2    0  503  0.22677345773E+03  0.29761085385E+03 -0.28153527759E+01  0.54772835208E+03  0.40000000000E+03 0.  1.
<mgrwt>
<rscale>  2 0.54772112E+03</rscale>
<asrwt>0</asrwt>
<pdfrwt beam="1">  1       21 0.14954591E+00 0.54772112E+03</pdfrwt>
<pdfrwt beam="2">  1       21 0.58842560E-01 0.54772112E+03</pdfrwt>
<totfact> 0.65606311E+02</totfact>
</mgrwt>
</event>
<event>
 4    1  0.4690138E-002  0.5643326E+03  0.7818608E-02  0.9982299E-01
         21   -1    0    0  501  502  0.00000000000E+00  0.00000000000E+00  0.24869186126E+03  0.24869186126E+03  0.00000000000E+00 0. -1.
         21   -1    0    0  502  503 -0.00000000000E+00 -0.00000000000E+00 -0.15118069804E+04  0.15118069804E+04  0.00000000000E+00 0.  1.
    9000007    1    1    2  501    0  0.27058168574E+03  0.29198773001E+03 -0.28730964538E+03  0.63325991146E+03  0.40000000000E+03 0.  1.
   -9000007    1    1    2    0  503 -0.27058168574E+03 -0.29198773001E+03 -0.97580547375E+03  0.11272389302E+04  0.40000000000E+03 0.  1.
<mgrwt>
<rscale>  2 0.56433260E+03</rscale>
<asrwt>0</asrwt>
<pdfrwt beam="1">  1       21 0.38260287E-01 0.56433260E+03</pdfrwt>
<pdfrwt beam="2">  1       21 0.23258569E+00 0.56433260E+03</pdfrwt>
<totfact> 0.42909848E+02</totfact>
</mgrwt>
</event>
<event>
 4    1  0.4690138E-002  0.4734589E+03  0.7818608E-02  0.1020948E+00
         21   -1    0    0  503  502  0.00000000000E+00  0.00000000000E+00  0.41930310303E+03  0.41930310303E+03  0.00000000000E+00 0.  1.
         21   -1    0    0  501  503 -0.00000000000E+00 -0.00000000000E+00 -0.59277983068E+03  0.59277983068E+03  0.00000000000E+00 0. -1.
    9000007    1    1    2  501    0  0.25260904472E+03 -0.18762014933E+02 -0.24526084875E+03  0.53321311557E+03  0.40000000000E+03 0. -1.
   -9000007    1    1    2    0  502 -0.25260904472E+03  0.18762014933E+02  0.71784121105E+02  0.47886981814E+03  0.40000000000E+03 0.  1.
<mgrwt>
<rscale>  2 0.47345891E+03</rscale>
<asrwt>0</asrwt>
<pdfrwt beam="1">  1       21 0.64508170E-01 0.47345891E+03</pdfrwt>
<pdfrwt beam="2">  1       21 0.91196897E-01 0.47345891E+03</pdfrwt>
<totfact> 0.19306616E+03</totfact>
</mgrwt>
</event>
<event>
 4    1  0.4690138E-002  0.4111161E+03  0.7818608E-02  0.1039997E+00
         21   -1    0    0  501  502  0.00000000000E+00  0.00000000000E+00  0.23257768210E+03  0.23257768210E+03  0.00000000000E+00 0.  1.
         21   -1    0    0  502  503 -0.00000000000E+00 -0.00000000000E+00 -0.11942909235E+04  0.11942909235E+04  0.00000000000E+00 0.  1.
    9000007    1    1    2  501    0  0.60754117010E+02 -0.72975186067E+02 -0.34453227947E+02  0.41255722686E+03  0.40000000000E+03 0.  1.
   -9000007    1    1    2    0  503 -0.60754117010E+02  0.72975186067E+02 -0.92726001348E+03  0.10143113788E+04  0.40000000000E+03 0.  1.
<mgrwt>
<rscale>  2 0.41111609E+03</rscale>
<asrwt>0</asrwt>
<pdfrwt beam="1">  1       21 0.35781181E-01 0.41111609E+03</pdfrwt>
<pdfrwt beam="2">  1       21 0.18373707E+00 0.41111609E+03</pdfrwt>
<totfact> 0.11051830E+03</totfact>
</mgrwt>
</event>
<event>
 4    1  0.4690138E-002  0.4320711E+03  0.7818608E-02  0.1033208E+00
         21   -1    0    0  501  502  0.00000000000E+00  0.00000000000E+00  0.10697846641E+04  0.10697846641E+04  0.00000000000E+00 0.  1.
         21   -1    0    0  502  503 -0.00000000000E+00 -0.00000000000E+00 -0.30630410587E+03  0.30630410587E+03  0.00000000000E+00 0.  1.
    9000007    1    1    2  501    0  0.57341068804E+02 -0.15296210945E+03  0.83306822319E+03  0.93844982262E+03  0.40000000000E+03 0.  1.
   -9000007    1    1    2    0  503 -0.57341068804E+02  0.15296210945E+03 -0.69587664983E+02  0.43763894733E+03  0.40000000000E+03 0.  1.
<mgrwt>
<rscale>  2 0.43207106E+03</rscale>
<asrwt>0</asrwt>
<pdfrwt beam="1">  1       21 0.16458225E+00 0.43207106E+03</pdfrwt>
<pdfrwt beam="2">  1       21 0.47123709E-01 0.43207106E+03</pdfrwt>
<totfact> 0.85009365E+02</totfact>
</mgrwt>
</event>
<event>
 4    1  0.4690138E-002  0.5293373E+03  0.7818608E-02  0.1006393E+00
         21   -1    0    0  503  502  0.00000000000E+00  0.00000000000E+00  0.20710981121E+03  0.20710981121E+03  0.00000000000E+00 0.  1.
         21   -1    0    0  501  503 -0.00000000000E+00 -0.00000000000E+00 -0.14529782689E+04  0.14529782689E+04  0.00000000000E+00 0.  1.
    9000007    1    1    2  501    0  0.31080204066E+03  0.15362325326E+03 -0.84078062782E+03  0.99353413456E+03  0.40000000000E+03 0.  1.
   -9000007    1    1    2    0  502 -0.31080204066E+03 -0.15362325326E+03 -0.40508782991E+03  0.66655394558E+03  0.40000000000E+03 0.  1.
<mgrwt>
<rscale>  2 0.52933733E+03</rscale>
<asrwt>0</asrwt>
<pdfrwt beam="1">  1       21 0.31863047E-01 0.52933733E+03</pdfrwt>
<pdfrwt beam="2">  1       21 0.22353513E+00 0.52933733E+03</pdfrwt>
<totfact> 0.72082472E+02</totfact>
</mgrwt>
</event>
<event>
 4    1  0.4690138E-002  0.4258109E+03  0.7818608E-02  0.1035192E+00
         21   -1    0    0  503  502  0.00000000000E+00  0.00000000000E+00  0.33772615481E+03  0.33772615481E+03  0.00000000000E+00 0.  1.
         21   -1    0    0  501  503 -0.00000000000E+00 -0.00000000000E+00 -0.57454181544E+03  0.57454181544E+03  0.00000000000E+00 0.  1.
    9000007    1    1    2  501    0  0.14028937020E+03  0.40420488936E+02 -0.23520757382E+03  0.48645403288E+03  0.40000000000E+03 0.  1.
   -9000007    1    1    2    0  502 -0.14028937020E+03 -0.40420488936E+02 -0.16080868056E+01  0.42581393737E+03  0.40000000000E+03 0.  1.
<mgrwt>
<rscale>  2 0.42581090E+03</rscale>
<asrwt>0</asrwt>
<pdfrwt beam="1">  1       21 0.51957870E-01 0.42581090E+03</pdfrwt>
<pdfrwt beam="2">  1       21 0.88391048E-01 0.42581090E+03</pdfrwt>
<totfact> 0.33888712E+03</totfact>
</mgrwt>
</event>
<event>
 4    1  0.4690138E-002  0.4046844E+03  0.7818608E-02  0.1042170E+00
         21   -1    0    0  501  502  0.00000000000E+00  0.00000000000E+00  0.15405622443E+03  0.15405622443E+03  0.00000000000E+00 0. -1.
         21   -1    0    0  502  503 -0.00000000000E+00 -0.00000000000E+00 -0.14920545858E+04  0.14920545858E+04  0.00000000000E+00 0. -1.
    9000007    1    1    2  501    0  0.11170888273E+02  0.60371091884E+02 -0.22766483985E+03  0.46432826404E+03  0.40000000000E+03 0. -1.
   -9000007    1    1    2    0  503 -0.11170888273E+02 -0.60371091884E+02 -0.11103335215E+04  0.11817825462E+04  0.40000000000E+03 0. -1.
<mgrwt>
<rscale>  2 0.40468439E+03</rscale>
<asrwt>0</asrwt>
<pdfrwt beam="1">  1       21 0.23700957E-01 0.40468439E+03</pdfrwt>
<pdfrwt beam="2">  1       21 0.22954687E+00 0.40468439E+03</pdfrwt>
<totfact> 0.12528113E+03</totfact>
</mgrwt>
</event>
<event>
 4    1  0.4690138E-002  0.4493763E+03  0.7818608E-02  0.1027908E+00
         21   -1    0    0  501  502  0.00000000000E+00  0.00000000000E+00  0.10333724748E+04  0.10333724748E+04  0.00000000000E+00 0. -1.
         21   -1    0    0  502  503 -0.00000000000E+00 -0.00000000000E+00 -0.33650413712E+03  0.33650413712E+03  0.00000000000E+00 0.  1.
    9000007    1    1    2  501    0  0.20247185971E+03 -0.30727731795E+02  0.79193988262E+03  0.91055358171E+03  0.40000000000E+03 0. -1.
   -9000007    1    1    2    0  503 -0.20247185971E+03  0.30727731795E+02 -0.95071544897E+02  0.45932303026E+03  0.40000000000E+03 0.  1.
<mgrwt>
<rscale>  2 0.44937629E+03</rscale>
<asrwt>0</asrwt>
<pdfrwt beam="1">  1       21 0.15898038E+00 0.44937629E+03</pdfrwt>
<pdfrwt beam="2">  1       21 0.51769868E-01 0.44937629E+03</pdfrwt>
<totfact> 0.76104263E+02</totfact>
</mgrwt>
</event>
<event>
 4    1  0.4690138E-002  0.7322397E+03  0.7818608E-02  0.9663633E-01
         21   -1    0    0  503  502  0.00000000000E+00  0.00000000000E+00  0.62074444181E+03  0.62074444181E+03  0.00000000000E+00 0. -1.
         21   -1    0    0  501  503 -0.00000000000E+00 -0.00000000000E+00 -0.86407292173E+03  0.86407292173E+03  0.00000000000E+00 0.  1.
    9000007    1    1    2  501    0 -0.57272568424E+02 -0.61065117377E+03 -0.13576386056E+03  0.74471929541E+03  0.40000000000E+03 0.  1.
   -9000007    1    1    2    0  502  0.57272568424E+02  0.61065117377E+03 -0.10756461936E+03  0.74009806814E+03  0.40000000000E+03 0. -1.
<mgrwt>
<rscale>  2 0.73223972E+03</rscale>
<asrwt>0</asrwt>
<pdfrwt beam="1">  1       21 0.95499145E-01 0.73223972E+03</pdfrwt>
<pdfrwt beam="2">  1       21 0.13293430E+00 0.73223972E+03</pdfrwt>
<totfact> 0.27826309E+02</totfact>
</mgrwt>
</event>
<event>
 4    1  0.4690138E-002  0.4578247E+03  0.7818608E-02  0.1025414E+00
         21   -1    0    0  503  502  0.00000000000E+00  0.00000000000E+00  0.12123563997E+04  0.12123563997E+04  0.00000000000E+00 0.  1.
         21   -1    0    0  501  503 -0.00000000000E+00 -0.00000000000E+00 -0.29331193503E+03  0.29331193503E+03  0.00000000000E+00 0.  1.
    9000007    1    1    2  501    0 -0.20298482888E+03  0.91654675955E+02 -0.22856953095E+02  0.45839487419E+03  0.40000000000E+03 0.  1.
   -9000007    1    1    2    0  502  0.20298482888E+03 -0.91654675955E+02  0.94190141781E+03  0.10472734606E+04  0.40000000000E+03 0.  1.
<mgrwt>
<rscale>  2 0.45782466E+03</rscale>
<asrwt>0</asrwt>
<pdfrwt beam="1">  1       21 0.18651637E+00 0.45782466E+03</pdfrwt>
<pdfrwt beam="2">  1       21 0.45124914E-01 0.45782466E+03</pdfrwt>
<totfact> 0.64122145E+02</totfact>
</mgrwt>
</event>
<event>
 4    1  0.4690138E-002  0.4291742E+03  0.7818608E-02  0.1034121E+00
         21   -1    0    0  503  502  0.00000000000E+00  0.00000000000E+00  0.99074810791E+02  0.99074810791E+02  0.00000000000E+00 0. -1.
         21   -1    0    0  501  503 -0.00000000000E+00 -0.00000000000E+00 -0.19482720137E+04  0.19482720137E+04  0.00000000000E+00 0. -1.
    9000007    1    1    2  501    0 -0.15218352005E+02 -0.15478660921E+03 -0.11435956857E+04  0.12214751676E+04  0.40000000000E+03 0. -1.
   -9000007    1    1    2    0  502  0.15218352005E+02  0.15478660921E+03 -0.70560151721E+03  0.82587165693E+03  0.40000000000E+03 0. -1.
<mgrwt>
<rscale>  2 0.42917420E+03</rscale>
<asrwt>0</asrwt>
<pdfrwt beam="1">  1       21 0.15242278E-01 0.42917420E+03</pdfrwt>
<pdfrwt beam="2">  1       21 0.29973416E+00 0.42917420E+03</pdfrwt>
<totfact> 0.10671805E+03</totfact>
</mgrwt>
</event>
<event>
 4    1  0.4690138E-002  0.4371629E+03  0.7818608E-02  0.1031621E+00
         21   -1    0    0  501  502  0.00000000000E+00  0.00000000000E+00  0.20903454458E+04  0.20903454458E+04  0.00000000000E+00 0. -1.
         21   -1    0    0  502  503 -0.00000000000E+00 -0.00000000000E+00 -0.13808942231E+03  0.13808942231E+03  0.00000000000E+00 0. -1.
    9000007    1    1    2  501    0  0.72460044428E+02 -0.16081327916E+03  0.16238360246E+04  0.16816524027E+04  0.40000000000E+03 0. -1.
   -9000007    1    1    2    0  503 -0.72460044428E+02  0.16081327916E+03  0.32841999893E+03  0.54678246542E+03  0.40000000000E+03 0. -1.
<mgrwt>
<rscale>  2 0.43716286E+03</rscale>
<asrwt>0</asrwt>
<pdfrwt beam="1">  1       21 0.32159158E+00 0.43716286E+03</pdfrwt>
<pdfrwt beam="2">  1       21 0.21244528E-01 0.43716286E+03</pdfrwt>
<totfact> 0.41997908E+02</totfact>
</mgrwt>
</event>
<event>
 4    1  0.4690138E-002  0.4959110E+03  0.7818608E-02  0.1014852E+00
         21   -1    0    0  503  502  0.00000000000E+00  0.00000000000E+00  0.52134992715E+03  0.52134992715E+03  0.00000000000E+00 0. -1.
         21   -1    0    0  501  503 -0.00000000000E+00 -0.00000000000E+00 -0.15739595615E+04  0.15739595615E+04  0.00000000000E+00 0. -1.
    9000007    1    1    2  501    0  0.20166076695E+03 -0.21274549068E+03 -0.14030244072E+04  0.14880877649E+04  0.40000000000E+03 0. -1.
   -9000007    1    1    2    0  502 -0.20166076695E+03  0.21274549068E+03  0.35041477289E+03  0.60722172375E+03  0.40000000000E+03 0. -1.
<mgrwt>
<rscale>  2 0.49591099E+03</rscale>
<asrwt>0</asrwt>
<pdfrwt beam="1">  1       21 0.80207680E-01 0.49591099E+03</pdfrwt>
<pdfrwt beam="2">  1       21 0.24214763E+00 0.49591099E+03</pdfrwt>
<totfact> 0.77113576E+01</totfact>
</mgrwt>
</event>
<event>
 4    1  0.4690138E-002  0.4566591E+03  0.7818608E-02  0.1025755E+00
         21   -1    0    0  503  502  0.00000000000E+00  0.00000000000E+00  0.15044676066E+03  0.15044676066E+03  0.00000000000E+00 0.  1.
         21   -1    0    0  501  503 -0.00000000000E+00 -0.00000000000E+00 -0.14909015520E+04  0.14909015520E+04  0.00000000000E+00 0.  1.
    9000007    1    1    2  501    0  0.22018982733E+03 -0.73464532133E+01 -0.45266440718E+03  0.64299502017E+03  0.40000000000E+03 0.  1.
   -9000007    1    1    2    0  502 -0.22018982733E+03  0.73464532133E+01 -0.88779038415E+03  0.99835329249E+03  0.40000000000E+03 0.  1.
<mgrwt>
<rscale>  2 0.45665910E+03</rscale>
<asrwt>0</asrwt>
<pdfrwt beam="1">  1       21 0.23145656E-01 0.45665910E+03</pdfrwt>
<pdfrwt beam="2">  1       21 0.22936946E+00 0.45665910E+03</pdfrwt>
<totfact> 0.12817021E+03</totfact>
</mgrwt>
</event>
<event>
 4    1  0.4690138E-002  0.4198510E+03  0.7818608E-02  0.1037115E+00
         21   -1    0    0  501  502  0.00000000000E+00  0.00000000000E+00  0.12406047986E+04  0.12406047986E+04  0.00000000000E+00 0.  1.
         21   -1    0    0  502  503 -0.00000000000E+00 -0.00000000000E+00 -0.23211667507E+03  0.23211667507E+03  0.00000000000E+00 0.  1.
    9000007    1    1    2  501    0 -0.46352196010E+02  0.11885419163E+03  0.45650144274E+02  0.42232544396E+03  0.40000000000E+03 0.  1.
   -9000007    1    1    2    0  503  0.46352196010E+02 -0.11885419163E+03  0.96283797924E+03  0.10503960297E+04  0.40000000000E+03 0.  1.
<mgrwt>
<rscale>  2 0.41985098E+03</rscale>
<asrwt>0</asrwt>
<pdfrwt beam="1">  1       21 0.19086227E+00 0.41985098E+03</pdfrwt>
<pdfrwt beam="2">  1       21 0.35710258E-01 0.41985098E+03</pdfrwt>
<totfact> 0.98720272E+02</totfact>
</mgrwt>
</event>
<event>
 4    1  0.4690138E-002  0.4405016E+03  0.7818608E-02  0.1030593E+00
         21   -1    0    0  503  502  0.00000000000E+00  0.00000000000E+00  0.12793433551E+04  0.12793433551E+04  0.00000000000E+00 0. -1.
         21   -1    0    0  501  503 -0.00000000000E+00 -0.00000000000E+00 -0.19001285117E+03  0.19001285117E+03  0.00000000000E+00 0. -1.
    9000007    1    1    2  501    0  0.16943007928E+03  0.73041877871E+02  0.21465182981E+03  0.49001742390E+03  0.40000000000E+03 0.  1.
   -9000007    1    1    2    0  502 -0.16943007928E+03 -0.73041877871E+02  0.87467867412E+03  0.97933878237E+03  0.40000000000E+03 0.  1.
<mgrwt>
<rscale>  2 0.44050161E+03</rscale>
<asrwt>0</asrwt>
<pdfrwt beam="1">  1       21 0.19682205E+00 0.44050161E+03</pdfrwt>
<pdfrwt beam="2">  1       21 0.29232747E-01 0.44050161E+03</pdfrwt>
<totfact> 0.13303377E+03</totfact>
</mgrwt>
</event>
<event>
 4    1  0.4690138E-002  0.4879900E+03  0.7818608E-02  0.1016962E+00
         21   -1    0    0  501  502  0.00000000000E+00  0.00000000000E+00  0.19744267993E+03  0.19744267993E+03  0.00000000000E+00 0.  1.
         21   -1    0    0  502  503 -0.00000000000E+00 -0.00000000000E+00 -0.13528789387E+04  0.13528789387E+04  0.00000000000E+00 0. -1.
    9000007    1    1    2  501    0 -0.27887939442E+03 -0.18986612538E+02 -0.32238641446E+03  0.58486511976E+03  0.40000000000E+03 0. -1.
   -9000007    1    1    2    0  503  0.27887939442E+03  0.18986612538E+02 -0.83304984430E+03  0.96545649885E+03  0.40000000000E+03 0. -1.
<mgrwt>
<rscale>  2 0.48798997E+03</rscale>
<asrwt>0</asrwt>
<pdfrwt beam="1">  1       21 0.30375797E-01 0.48798997E+03</pdfrwt>
<pdfrwt beam="2">  1       21 0.20813522E+00 0.48798997E+03</pdfrwt>
<totfact> 0.10153958E+03</totfact>
</mgrwt>
</event>
<event>
 4    1  0.4690138E-002  0.4064089E+03  0.7818608E-02  0.1041583E+00
         21   -1    0    0  501  502  0.00000000000E+00  0.00000000000E+00  0.14600814814E+04  0.14600814814E+04  0.00000000000E+00 0.  1.
         21   -1    0    0  502  503 -0.00000000000E+00 -0.00000000000E+00 -0.14303974774E+03  0.14303974774E+03  0.00000000000E+00 0.  1.
    9000007    1    1    2  501    0 -0.11566591610E+02 -0.70953678219E+02  0.10251003118E+04  0.11027233832E+04  0.40000000000E+03 0.  1.
   -9000007    1    1    2    0  503  0.11566591610E+02  0.70953678219E+02  0.29194142189E+03  0.50039784603E+03  0.40000000000E+03 0.  1.
<mgrwt>
<rscale>  2 0.40640892E+03</rscale>
<asrwt>0</asrwt>
<pdfrwt beam="1">  1       21 0.22462791E+00 0.40640892E+03</pdfrwt>
<pdfrwt beam="2">  1       21 0.22006116E-01 0.40640892E+03</pdfrwt>
<totfact> 0.15502752E+03</totfact>
</mgrwt>
</event>
<event>
 4    1  0.4690138E-002  0.4463116E+03  0.7818608E-02  0.1028828E+00
         21   -1    0    0  501  502  0.00000000000E+00  0.00000000000E+00  0.12926645437E+04  0.12926645437E+04  0.00000000000E+00 0.  1.
         21   -1    0    0  502  503 -0.00000000000E+00 -0.00000000000E+00 -0.15564147686E+03  0.15564147686E+03  0.00000000000E+00 0.  1.
    9000007    1    1    2  501    0  0.10600763606E+03 -0.16720182043E+03  0.49634449157E+03  0.66749675802E+03  0.40000000000E+03 0.  1.
   -9000007    1    1    2    0  503 -0.10600763606E+03  0.16720182043E+03  0.64067857531E+03  0.78080926257E+03  0.40000000000E+03 0.  1.
<mgrwt>
<rscale>  2 0.44631163E+03</rscale>
<asrwt>0</asrwt>
<pdfrwt beam="1">  1       21 0.19887146E+00 0.44631163E+03</pdfrwt>
<pdfrwt beam="2">  1       21 0.23944843E-01 0.44631163E+03</pdfrwt>
<totfact> 0.19000391E+03</totfact>
</mgrwt>
</event>
<event>
 4    1  0.4690138E-002  0.5385402E+03  0.7818608E-02  0.1004182E+00
         21   -1    0    0  503  502  0.00000000000E+00  0.00000000000E+00  0.61755264998E+03  0.61755264998E+03  0.00000000000E+00 0.  1.
         21   -1    0    0  501  503 -0.00000000000E+00 -0.00000000000E+00 -0.66493845529E+03  0.66493845529E+03  0.00000000000E+00 0.  1.
    9000007    1    1    2  501    0 -0.65107577029E+02  0.35466396950E+03 -0.37121823200E+03  0.65408600628E+03  0.40000000000E+03 0.  1.
   -9000007    1    1    2    0  502  0.65107577029E+02 -0.35466396950E+03  0.32383242669E+03  0.62840509898E+03  0.40000000000E+03 0.  1.
<mgrwt>
<rscale>  2 0.53854018E+03</rscale>
<asrwt>0</asrwt>
<pdfrwt beam="1">  1       21 0.95008100E-01 0.53854018E+03</pdfrwt>
<pdfrwt beam="2">  1       21 0.10229822E+00 0.53854018E+03</pdfrwt>
<totfact> 0.58434323E+02</totfact>
</mgrwt>
</event>
<event>
 4    1  0.4690138E-002  0.4152089E+03  0.7818608E-02  0.1038637E+00
         21   -1    0    0  501  502  0.00000000000E+00  0.00000000000E+00  0.57568160922E+03  0.57568160922E+03  0.00000000000E+00 0.  1.
         21   -1    0    0  502  503 -0.00000000000E+00 -0.00000000000E+00 -0.10952533149E+04  0.10952533149E+04  0.00000000000E+00 0.  1.
    9000007    1    1    2  501    0  0.49210707035E+02 -0.99883528807E+02  0.45236192152E+03  0.61402745953E+03  0.40000000000E+03 0.  1.
   -9000007    1    1    2    0  503 -0.49210707035E+02  0.99883528807E+02 -0.97193362721E+03  0.10569074646E+04  0.40000000000E+03 0.  1.
<mgrwt>
<rscale>  2 0.41520888E+03</rscale>
<asrwt>0</asrwt>
<pdfrwt beam="1">  1       21 0.88566402E-01 0.41520888E+03</pdfrwt>
<pdfrwt beam="2">  1       21 0.16850051E+00 0.41520888E+03</pdfrwt>
<totfact> 0.19757712E+02</totfact>
</mgrwt>
</event>
<event>
 4    1  0.4690138E-002  0.6139959E+03  0.7818608E-02  0.9876787E-01
         21   -1    0    0  503  502  0.00000000000E+00  0.00000000000E+00  0.72933309726E+03  0.72933309726E+03  0.00000000000E+00 0. -1.
         21   -1    0    0  501  503 -0.00000000000E+00 -0.00000000000E+00 -0.76197292541E+03  0.76197292541E+03  0.00000000000E+00 0.  1.
    9000007    1    1    2  501    0 -0.33262936575E+03  0.32611149866E+03 -0.43919901319E+03  0.75490845651E+03  0.40000000000E+03 0.  1.
   -9000007    1    1    2    0  502  0.33262936575E+03 -0.32611149866E+03  0.40655918504E+03  0.73639756617E+03  0.40000000000E+03 0. -1.
<mgrwt>
<rscale>  2 0.61399593E+03</rscale>
<asrwt>0</asrwt>
<pdfrwt beam="1">  1       21 0.11220509E+00 0.61399593E+03</pdfrwt>
<pdfrwt beam="2">  1       21 0.11722660E+00 0.61399593E+03</pdfrwt>
<totfact> 0.26870933E+02</totfact>
</mgrwt>
</event>
<event>
 4    1  0.4690138E-002  0.4053517E+03  0.7818608E-02  0.1041942E+00
         21   -1    0    0  503  502  0.00000000000E+00  0.00000000000E+00  0.46709595052E+03  0.46709595052E+03  0.00000000000E+00 0. -1.
         21   -1    0    0  501  503 -0.00000000000E+00 -0.00000000000E+00 -0.11788854388E+04  0.11788854388E+04  0.00000000000E+00 0. -1.
    9000007    1    1    2  501    0  0.55624846885E+02 -0.34868942922E+02 -0.10452488997E+04  0.11210955486E+04  0.40000000000E+03 0. -1.
   -9000007    1    1    2    0  502 -0.55624846885E+02  0.34868942922E+02  0.33345941139E+03  0.52488584075E+03  0.40000000000E+03 0. -1.
<mgrwt>
<rscale>  2 0.40535166E+03</rscale>
<asrwt>0</asrwt>
<pdfrwt beam="1">  1       21 0.71860917E-01 0.40535166E+03</pdfrwt>
<pdfrwt beam="2">  1       21 0.18136699E+00 0.40535166E+03</pdfrwt>
<totfact> 0.26034388E+02</totfact>
</mgrwt>
</event>
<event>
 4    1  0.4690138E-002  0.4938152E+03  0.7818608E-02  0.1015406E+00
         21   -1    0    0  503  502  0.00000000000E+00  0.00000000000E+00  0.10877170389E+03  0.10877170389E+03  0.00000000000E+00 0.  1.
         21   -1    0    0  501  503 -0.00000000000E+00 -0.00000000000E+00 -0.24315008318E+04  0.24315008318E+04  0.00000000000E+00 0.  1.
    9000007    1    1    2  501    0 -0.25177721977E+03  0.14304418358E+03 -0.80667126956E+03  0.94581813473E+03  0.40000000000E+03 0.  1.
   -9000007    1    1    2    0  502  0.25177721977E+03 -0.14304418358E+03 -0.15160578583E+04  0.15944544009E+04  0.40000000000E+03 0.  1.
<mgrwt>
<rscale>  2 0.49381515E+03</rscale>
<asrwt>0</asrwt>
<pdfrwt beam="1">  1       21 0.16734109E-01 0.49381515E+03</pdfrwt>
<pdfrwt beam="2">  1       21 0.37407704E+00 0.49381515E+03</pdfrwt>
<totfact> 0.30360478E+02</totfact>
</mgrwt>
</event>
<event>
 4    1  0.4690138E-002  0.4882708E+03  0.7818608E-02  0.1016887E+00
         21   -1    0    0  503  502  0.00000000000E+00  0.00000000000E+00  0.96050152412E+03  0.96050152412E+03  0.00000000000E+00 0. -1.
         21   -1    0    0  501  503 -0.00000000000E+00 -0.00000000000E+00 -0.24821383860E+03  0.24821383860E+03  0.00000000000E+00 0. -1.
    9000007    1    1    2  501    0  0.39902803613E+02  0.27715726782E+03  0.35760073201E+03  0.60521621622E+03  0.40000000000E+03 0. -1.
   -9000007    1    1    2    0  502 -0.39902803613E+02 -0.27715726782E+03  0.35468695351E+03  0.60349914650E+03  0.40000000000E+03 0. -1.
<mgrwt>
<rscale>  2 0.48827081E+03</rscale>
<asrwt>0</asrwt>
<pdfrwt beam="1">  1       21 0.14776946E+00 0.48827081E+03</pdfrwt>
<pdfrwt beam="2">  1       21 0.38186745E-01 0.48827081E+03</pdfrwt>
<totfact> 0.17308607E+03</totfact>
</mgrwt>
</event>
<event>
 4    1  0.4690138E-002  0.4893596E+03  0.7818608E-02  0.1016594E+00
         21   -1    0    0  501  502  0.00000000000E+00  0.00000000000E+00  0.61843388629E+03  0.61843388629E+03  0.00000000000E+00 0.  1.
         21   -1    0    0  502  503 -0.00000000000E+00 -0.00000000000E+00 -0.10184949470E+04  0.10184949470E+04  0.00000000000E+00 0.  1.
    9000007    1    1    2  501    0 -0.14718814157E+03 -0.24043388209E+03  0.44432871736E+03  0.66098472732E+03  0.40000000000E+03 0.  1.
   -9000007    1    1    2    0  503  0.14718814157E+03  0.24043388209E+03 -0.84438977803E+03  0.97594410594E+03  0.40000000000E+03 0.  1.
<mgrwt>
<rscale>  2 0.48935958E+03</rscale>
<asrwt>0</asrwt>
<pdfrwt beam="1">  1       21 0.95143676E-01 0.48935958E+03</pdfrwt>
<pdfrwt beam="2">  1       21 0.15669153E+00 0.48935958E+03</pdfrwt>
<totfact> 0.19654175E+02</totfact>
</mgrwt>
</event>
<event>
 4    1  0.4690138E-002  0.4053534E+03  0.7818608E-02  0.1041942E+00
         21   -1    0    0  503  502  0.00000000000E+00  0.00000000000E+00  0.11505342119E+04  0.11505342119E+04  0.00000000000E+00 0.  1.
         21   -1    0    0  501  503 -0.00000000000E+00 -0.00000000000E+00 -0.14521403429E+03  0.14521403429E+03  0.00000000000E+00 0.  1.
    9000007    1    1    2  501    0  0.43903735951E+02  0.48824941176E+02  0.41935488772E+03  0.58324088914E+03  0.40000000000E+03 0.  1.
   -9000007    1    1    2    0  502 -0.43903735951E+02 -0.48824941176E+02  0.58596528991E+03  0.71250735708E+03  0.40000000000E+03 0.  1.
<mgrwt>
<rscale>  2 0.40535344E+03</rscale>
<asrwt>0</asrwt>
<pdfrwt beam="1">  1       21 0.17700526E+00 0.40535344E+03</pdfrwt>
<pdfrwt beam="2">  1       21 0.22340621E-01 0.40535344E+03</pdfrwt>
<totfact> 0.31250344E+03</totfact>
</mgrwt>
</event>
<event>
 4    1  0.4690138E-002  0.4393838E+03  0.7818608E-02  0.1030936E+00
         21   -1    0    0  501  502  0.00000000000E+00  0.00000000000E+00  0.27951563017E+03  0.27951563017E+03  0.00000000000E+00 0. -1.
         21   -1    0    0  502  503 -0.00000000000E+00 -0.00000000000E+00 -0.74724285215E+03  0.74724285215E+03  0.00000000000E+00 0. -1.
    9000007    1    1    2  501    0  0.13674598327E+03  0.11982757785E+03 -0.92628697201E+02  0.44904141001E+03  0.40000000000E+03 0. -1.
   -9000007    1    1    2    0  503 -0.13674598327E+03 -0.11982757785E+03 -0.37509852478E+03  0.57771707232E+03  0.40000000000E+03 0. -1.
<mgrwt>
<rscale>  2 0.43938379E+03</rscale>
<asrwt>0</asrwt>
<pdfrwt beam="1">  1       21 0.43002406E-01 0.43938379E+03</pdfrwt>
<pdfrwt beam="2">  1       21 0.11496044E+00 0.43938379E+03</pdfrwt>
<totfact> 0.26523918E+03</totfact>
</mgrwt>
</event>
<event>
 4    1  0.4690138E-002  0.6391921E+03  0.7818608E-02  0.9827274E-01
         21   -1    0    0  501  502  0.00000000000E+00  0.00000000000E+00  0.10394851776E+04  0.10394851776E+04  0.00000000000E+00 0. -1.
         21   -1    0    0  502  503 -0.00000000000E+00 -0.00000000000E+00 -0.64844699317E+03  0.64844699317E+03  0.00000000000E+00 0.  1.
    9000007    1    1    2  501    0 -0.49661165936E+03  0.44083758534E+02  0.72518034762E+03  0.96667112016E+03  0.40000000000E+03 0. -1.
   -9000007    1    1    2    0  503  0.49661165936E+03 -0.44083758534E+02 -0.33414216316E+03  0.72126105065E+03  0.40000000000E+03 0.  1.
<mgrwt>
<rscale>  2 0.63919208E+03</rscale>
<asrwt>0</asrwt>
<pdfrwt beam="1">  1       21 0.15992080E+00 0.63919208E+03</pdfrwt>
<pdfrwt beam="2">  1       21 0.99761076E-01 0.63919208E+03</pdfrwt>
<totfact> 0.15562690E+02</totfact>
</mgrwt>
</event>
<event>
 4    1  0.4690138E-002  0.4169444E+03  0.7818608E-02  0.1038065E+00
         21   -1    0    0  503  502  0.00000000000E+00  0.00000000000E+00  0.34491676288E+03  0.34491676288E+03  0.00000000000E+00 0.  1.
         21   -1    0    0  501  503 -0.00000000000E+00 -0.00000000000E+00 -0.51330073686E+03  0.51330073686E+03  0.00000000000E+00 0. -1.
    9000007    1    1    2  501    0 -0.61702435120E+01  0.11749297599E+03 -0.14191207197E+03  0.44043354491E+03  0.40000000000E+03 0. -1.
   -9000007    1    1    2    0  502  0.61702435120E+01 -0.11749297599E+03 -0.26471902000E+02  0.41778395482E+03  0.40000000000E+03 0. -1.
<mgrwt>
<rscale>  2 0.41694445E+03</rscale>
<asrwt>0</asrwt>
<pdfrwt beam="1">  1       21 0.53064117E-01 0.41694445E+03</pdfrwt>
<pdfrwt beam="2">  1       21 0.78969344E-01 0.41694445E+03</pdfrwt>
<totfact> 0.42249233E+03</totfact>
</mgrwt>
</event>
<event>
 4    1  0.4690138E-002  0.4285775E+03  0.7818608E-02  0.1034310E+00
         21   -1    0    0  501  502  0.00000000000E+00  0.00000000000E+00  0.90730617383E+03  0.90730617383E+03  0.00000000000E+00 0. -1.
         21   -1    0    0  502  503 -0.00000000000E+00 -0.00000000000E+00 -0.20872200660E+03  0.20872200660E+03  0.00000000000E+00 0. -1.
    9000007    1    1    2  501    0 -0.32438971374E+02  0.15042070396E+03  0.44606916911E+03  0.61859225559E+03  0.40000000000E+03 0. -1.
   -9000007    1    1    2    0  503  0.32438971374E+02 -0.15042070396E+03  0.25251499812E+03  0.49743592484E+03  0.40000000000E+03 0. -1.
<mgrwt>
<rscale>  2 0.42857750E+03</rscale>
<asrwt>0</asrwt>
<pdfrwt beam="1">  1       21 0.13958556E+00 0.42857750E+03</pdfrwt>
<pdfrwt beam="2">  1       21 0.32111079E-01 0.42857750E+03</pdfrwt>
<totfact> 0.29304306E+03</totfact>
</mgrwt>
</event>
<event>
 4    1  0.4690138E-002  0.5504962E+03  0.7818608E-02  0.1001379E+00
         21   -1    0    0  503  502  0.00000000000E+00  0.00000000000E+00  0.14708322922E+04  0.14708322922E+04  0.00000000000E+00 0.  1.
         21   -1    0    0  501  503 -0.00000000000E+00 -0.00000000000E+00 -0.28570875358E+03  0.28570875358E+03  0.00000000000E+00 0.  1.
    9000007    1    1    2  501    0  0.34327303876E+03 -0.15877549900E+03  0.12877493552E+03  0.56535742875E+03  0.40000000000E+03 0.  1.
   -9000007    1    1    2    0  502 -0.34327303876E+03  0.15877549900E+03  0.10563486031E+04  0.11911836170E+04  0.40000000000E+03 0.  1.
<mgrwt>
<rscale>  2 0.55049617E+03</rscale>
<asrwt>0</asrwt>
<pdfrwt beam="1">  1       21 0.22628189E+00 0.55049617E+03</pdfrwt>
<pdfrwt beam="2">  1       21 0.43955194E-01 0.55049617E+03</pdfrwt>
<totfact> 0.35480489E+02</totfact>
</mgrwt>
</event>
<event>
 4    1  0.4690138E-002  0.4743724E+03  0.7818608E-02  0.1020693E+00
         21   -1    0    0  501  502  0.00000000000E+00  0.00000000000E+00  0.17735834450E+03  0.17735834450E+03  0.00000000000E+00 0.  1.
         21   -1    0    0  502  503 -0.00000000000E+00 -0.00000000000E+00 -0.17336184971E+04  0.17336184971E+04  0.00000000000E+00 0.  1.
    9000007    1    1    2  501    0 -0.12480576704E+02  0.25470267786E+03 -0.12728944195E+04  0.13584143043E+04  0.40000000000E+03 0.  1.
   -9000007    1    1    2    0  503  0.12480576704E+02 -0.25470267786E+03 -0.28336573304E+03  0.55256253724E+03  0.40000000000E+03 0.  1.
<mgrwt>
<rscale>  2 0.47437245E+03</rscale>
<asrwt>0</asrwt>
<pdfrwt beam="1">  1       21 0.27285900E-01 0.47437245E+03</pdfrwt>
<pdfrwt beam="2">  1       21 0.26671053E+00 0.47437245E+03</pdfrwt>
<totfact> 0.54233817E+02</totfact>
</mgrwt>
</event>
<event>
 4    1  0.4690138E-002  0.4413060E+03  0.7818608E-02  0.1030347E+00
         21   -1    0    0  501  502  0.00000000000E+00  0.00000000000E+00  0.87818626324E+02  0.87818626324E+02  0.00000000000E+00 0.  1.
         21   -1    0    0  502  503 -0.00000000000E+00 -0.00000000000E+00 -0.28746885385E+04  0.28746885385E+04  0.00000000000E+00 0.  1.
    9000007    1    1    2  501    0 -0.42283626923E+02 -0.18155748836E+03 -0.68527845144E+03  0.81508133502E+03  0.40000000000E+03 0.  1.
   -9000007    1    1    2    0  503  0.42283626923E+02  0.18155748836E+03 -0.21015914608E+04  0.21474258298E+04  0.40000000000E+03 0.  1.
<mgrwt>
<rscale>  2 0.44130605E+03</rscale>
<asrwt>0</asrwt>
<pdfrwt beam="1">  1       21 0.13510561E-01 0.44130605E+03</pdfrwt>
<pdfrwt beam="2">  1       21 0.44225968E+00 0.44130605E+03</pdfrwt>
<totfact> 0.16892725E+02</totfact>
</mgrwt>
</event>
<event>
 4    1  0.4690138E-002  0.4999222E+03  0.7818608E-02  0.1013799E+00
         21   -1    0    0  503  502  0.00000000000E+00  0.00000000000E+00  0.99189374072E+03  0.99189374072E+03  0.00000000000E+00 0. -1.
         21   -1    0    0  501  503 -0.00000000000E+00 -0.00000000000E+00 -0.32253215623E+03  0.32253215623E+03  0.00000000000E+00 0. -1.
    9000007    1    1    2  501    0  0.29777287504E+03 -0.35404865613E+02  0.27268030762E+02  0.50066529251E+03  0.40000000000E+03 0. -1.
   -9000007    1    1    2    0  502 -0.29777287504E+03  0.35404865613E+02  0.64209355373E+03  0.81376060445E+03  0.40000000000E+03 0. -1.
<mgrwt>
<rscale>  2 0.49992218E+03</rscale>
<asrwt>0</asrwt>
<pdfrwt beam="1">  1       21 0.15259903E+00 0.49992218E+03</pdfrwt>
<pdfrwt beam="2">  1       21 0.49620333E-01 0.49992218E+03</pdfrwt>
<totfact> 0.91332287E+02</totfact>
</mgrwt>
</event>
<event>
 4    1  0.4690138E-002  0.4644000E+03  0.7818608E-02  0.1023513E+00
         21   -1    0    0  501  502  0.00000000000E+00  0.00000000000E+00  0.11176824936E+03  0.11176824936E+03  0.00000000000E+00 0.  1.
         21   -1    0    0  502  503 -0.00000000000E+00 -0.00000000000E+00 -0.19945048044E+04  0.19945048044E+04  0.00000000000E+00 0. -1.
    9000007    1    1    2  501    0 -0.19430953134E+03  0.13383271818E+03 -0.75138113119E+03  0.88331251250E+03  0.40000000000E+03 0.  1.
   -9000007    1    1    2    0  503  0.19430953134E+03 -0.13383271818E+03 -0.11313554239E+04  0.12229605413E+04  0.40000000000E+03 0. -1.
<mgrwt>
<rscale>  2 0.46440003E+03</rscale>
<asrwt>0</asrwt>
<pdfrwt beam="1">  1       21 0.17195115E-01 0.46440003E+03</pdfrwt>
<pdfrwt beam="2">  1       21 0.30684690E+00 0.46440003E+03</pdfrwt>
<totfact> 0.75743799E+02</totfact>
</mgrwt>
</event>
<event>
 4    1  0.4690138E-002  0.5821357E+03  0.7818608E-02  0.9943178E-01
         21   -1    0    0  501  502  0.00000000000E+00  0.00000000000E+00  0.80147789905E+03  0.80147789905E+03  0.00000000000E+00 0.  1.
         21   -1    0    0  502  503 -0.00000000000E+00 -0.00000000000E+00 -0.72674698029E+03  0.72674698029E+03  0.00000000000E+00 0. -1.
    9000007    1    1    2  501    0 -0.31435815785E+03  0.28295048780E+03 -0.45677368533E+03  0.73994880199E+03  0.40000000000E+03 0. -1.
   -9000007    1    1    2    0  503  0.31435815785E+03 -0.28295048780E+03  0.53150460409E+03  0.78827607735E+03  0.40000000000E+03 0.  1.
<mgrwt>
<rscale>  2 0.58213575E+03</rscale>
<asrwt>0</asrwt>
<pdfrwt beam="1">  1       21 0.12330429E+00 0.58213575E+03</pdfrwt>
<pdfrwt beam="2">  1       21 0.11180723E+00 0.58213575E+03</pdfrwt>
<totfact> 0.24090015E+02</totfact>
</mgrwt>
</event>
<event>
 4    1  0.4690138E-002  0.4077361E+03  0.7818608E-02  0.1041133E+00
         21   -1    0    0  503  502  0.00000000000E+00  0.00000000000E+00  0.12333813539E+03  0.12333813539E+03  0.00000000000E+00 0. -1.
         21   -1    0    0  501  503 -0.00000000000E+00 -0.00000000000E+00 -0.13767800870E+04  0.13767800870E+04  0.00000000000E+00 0. -1.
    9000007    1    1    2  501    0 -0.66546336747E+02  0.42665533614E+02 -0.73533447287E+03  0.84081243430E+03  0.40000000000E+03 0.  1.
   -9000007    1    1    2    0  502  0.66546336747E+02 -0.42665533614E+02 -0.51810747879E+03  0.65930578813E+03  0.40000000000E+03 0.  1.
<mgrwt>
<rscale>  2 0.40773614E+03</rscale>
<asrwt>0</asrwt>
<pdfrwt beam="1">  1       21 0.18975100E-01 0.40773614E+03</pdfrwt>
<pdfrwt beam="2">  1       21 0.21181230E+00 0.40773614E+03</pdfrwt>
<totfact> 0.24804499E+03</totfact>
</mgrwt>
</event>
<event>
 4    1  0.4690138E-002  0.5864649E+03  0.7818608E-02  0.9933892E-01
         21   -1    0    0  503  502  0.00000000000E+00  0.00000000000E+00  0.20036950184E+04  0.20036950184E+04  0.00000000000E+00 0. -1.
         21   -1    0    0  501  503 -0.00000000000E+00 -0.00000000000E+00 -0.20900365490E+03  0.20900365490E+03  0.00000000000E+00 0. -1.
    9000007    1    1    2  501    0 -0.11542855907E+03 -0.41305848378E+03  0.42965133320E+03  0.72700848096E+03  0.40000000000E+03 0. -1.
   -9000007    1    1    2    0  502  0.11542855907E+03  0.41305848378E+03  0.13650400303E+04  0.14856901923E+04  0.40000000000E+03 0. -1.
<mgrwt>
<rscale>  2 0.58646489E+03</rscale>
<asrwt>0</asrwt>
<pdfrwt beam="1">  1       21 0.30826076E+00 0.58646489E+03</pdfrwt>
<pdfrwt beam="2">  1       21 0.32154410E-01 0.58646489E+03</pdfrwt>
<totfact> 0.20728469E+02</totfact>
</mgrwt>
</event>
<event>
 4    1  0.4690138E-002  0.4349268E+03  0.7818608E-02  0.1032315E+00
         21   -1    0    0  501  502  0.00000000000E+00  0.00000000000E+00  0.19392495060E+03  0.19392495060E+03  0.00000000000E+00 0.  1.
         21   -1    0    0  502  503 -0.00000000000E+00 -0.00000000000E+00 -0.11711629840E+04  0.11711629840E+04  0.00000000000E+00 0.  1.
    9000007    1    1    2  501    0 -0.22090781404E+02 -0.16933194470E+03 -0.76764696432E+03  0.88229426607E+03  0.40000000000E+03 0.  1.
   -9000007    1    1    2    0  503  0.22090781404E+02  0.16933194470E+03 -0.20959106905E+03  0.48279366850E+03  0.40000000000E+03 0.  1.
<mgrwt>
<rscale>  2 0.43492679E+03</rscale>
<asrwt>0</asrwt>
<pdfrwt beam="1">  1       21 0.29834608E-01 0.43492679E+03</pdfrwt>
<pdfrwt beam="2">  1       21 0.18017892E+00 0.43492679E+03</pdfrwt>
<totfact> 0.16664407E+03</totfact>
</mgrwt>
</event>
<event>
 4    1  0.4690138E-002  0.4516341E+03  0.7818608E-02  0.1027236E+00
         21   -1    0    0  503  502  0.00000000000E+00  0.00000000000E+00  0.81553517673E+03  0.81553517673E+03  0.00000000000E+00 0. -1.
         21   -1    0    0  501  503 -0.00000000000E+00 -0.00000000000E+00 -0.31733123604E+03  0.31733123604E+03  0.00000000000E+00 0. -1.
    9000007    1    1    2  501    0 -0.14010378526E+03  0.15602658903E+03 -0.11601059813E+02  0.45178308038E+03  0.40000000000E+03 0. -1.
   -9000007    1    1    2    0  502  0.14010378526E+03 -0.15602658903E+03  0.50980500050E+03  0.68108333239E+03  0.40000000000E+03 0. -1.
<mgrwt>
<rscale>  2 0.45163411E+03</rscale>
<asrwt>0</asrwt>
<pdfrwt beam="1">  1       21 0.12546695E+00 0.45163411E+03</pdfrwt>
<pdfrwt beam="2">  1       21 0.48820190E-01 0.45163411E+03</pdfrwt>
<totfact> 0.16196200E+03</totfact>
</mgrwt>
</event>
<event>
 4    1  0.4690138E-002  0.4006177E+03  0.7818608E-02  0.1043566E+00
         21   -1    0    0  503  502  0.00000000000E+00  0.00000000000E+00  0.11375443626E+04  0.11375443626E+04  0.00000000000E+00 0.  1.
         21   -1    0    0  501  503 -0.00000000000E+00 -0.00000000000E+00 -0.14380335667E+03  0.14380335667E+03  0.00000000000E+00 0. -1.
    9000007    1    1    2  501    0 -0.20811163960E+02 -0.78383939708E+01  0.58489786908E+03  0.70894291887E+03  0.40000000000E+03 0.  1.
   -9000007    1    1    2    0  502  0.20811163960E+02  0.78383939708E+01  0.40884313682E+03  0.57240480037E+03  0.40000000000E+03 0. -1.
<mgrwt>
<rscale>  2 0.40061770E+03</rscale>
<asrwt>0</asrwt>
<pdfrwt beam="1">  1       21 0.17500682E+00 0.40061770E+03</pdfrwt>
<pdfrwt beam="2">  1       21 0.22123594E-01 0.40061770E+03</pdfrwt>
<totfact> 0.32970543E+03</totfact>
</mgrwt>
</event>
<event>
 4    1  0.4690138E-002  0.4618070E+03  0.7818608E-02  0.1024258E+00
         21   -1    0    0  501  502  0.00000000000E+00  0.00000000000E+00  0.26489928933E+03  0.26489928933E+03  0.00000000000E+00 0.  1.
         21   -1    0    0  502  503 -0.00000000000E+00 -0.00000000000E+00 -0.80586914347E+03  0.80586914347E+03  0.00000000000E+00 0. -1.
    9000007    1    1    2  501    0  0.10328965730E+03 -0.20639024571E+03 -0.25375394126E+03  0.52693144671E+03  0.40000000000E+03 0. -1.
   -9000007    1    1    2    0  503 -0.10328965730E+03  0.20639024571E+03 -0.28721591288E+03  0.54383698609E+03  0.40000000000E+03 0.  1.
<mgrwt>
<rscale>  2 0.46180698E+03</rscale>
<asrwt>0</asrwt>
<pdfrwt beam="1">  1       21 0.40753737E-01 0.46180698E+03</pdfrwt>
<pdfrwt beam="2">  1       21 0.12397987E+00 0.46180698E+03</pdfrwt>
<totfact> 0.24277994E+03</totfact>
</mgrwt>
</event>
<event>
 4    1  0.4690138E-002  0.7568479E+03  0.7818608E-02  0.9624668E-01
         21   -1    0    0  503  502  0.00000000000E+00  0.00000000000E+00  0.55924941811E+03  0.55924941811E+03  0.00000000000E+00 0.  1.
         21   -1    0    0  501  503 -0.00000000000E+00 -0.00000000000E+00 -0.10335683019E+04  0.10335683019E+04  0.00000000000E+00 0.  1.
    9000007    1    1    2  501    0 -0.44399998775E+03  0.46441663112E+03 -0.31272411449E+03  0.81891096474E+03  0.40000000000E+03 0.  1.
   -9000007    1    1    2    0  502  0.44399998775E+03 -0.46441663112E+03 -0.16159476929E+03  0.77390675527E+03  0.40000000000E+03 0.  1.
<mgrwt>
<rscale>  2 0.75684793E+03</rscale>
<asrwt>0</asrwt>
<pdfrwt beam="1">  1       21 0.86038373E-01 0.75684793E+03</pdfrwt>
<pdfrwt beam="2">  1       21 0.15901051E+00 0.75684793E+03</pdfrwt>
<totfact> 0.21751925E+02</totfact>
</mgrwt>
</event>
<event>
 4    1  0.4690138E-002  0.4384172E+03  0.7818608E-02  0.1031234E+00
         21   -1    0    0  503  502  0.00000000000E+00  0.00000000000E+00  0.10662624021E+04  0.10662624021E+04  0.00000000000E+00 0. -1.
         21   -1    0    0  501  503 -0.00000000000E+00 -0.00000000000E+00 -0.22890556832E+03  0.22890556832E+03  0.00000000000E+00 0. -1.
    9000007    1    1    2  501    0  0.10240669021E+03  0.14738549286E+03  0.12016215963E+03  0.45458613959E+03  0.40000000000E+03 0. -1.
   -9000007    1    1    2    0  502 -0.10240669021E+03 -0.14738549286E+03  0.71719467416E+03  0.84058183084E+03  0.40000000000E+03 0. -1.
<mgrwt>
<rscale>  2 0.43841717E+03</rscale>
<asrwt>0</asrwt>
<pdfrwt beam="1">  1       21 0.16404037E+00 0.43841717E+03</pdfrwt>
<pdfrwt beam="2">  1       21 0.35216242E-01 0.43841717E+03</pdfrwt>
<totfact> 0.15610006E+03</totfact>
</mgrwt>
</event>
<event>
 4    1  0.4690138E-002  0.4114981E+03  0.7818608E-02  0.1039869E+00
         21   -1    0    0  503  502  0.00000000000E+00  0.00000000000E+00  0.98585252352E+03  0.98585252352E+03  0.00000000000E+00 0.  1.
         21   -1    0    0  501  503 -0.00000000000E+00 -0.00000000000E+00 -0.29998660626E+03  0.29998660626E+03  0.00000000000E+00 0.  1.
    9000007    1    1    2  501    0  0.96501659336E+02  0.42550395140E+01 -0.77400221658E+02  0.41871406703E+03  0.40000000000E+03 0.  1.
   -9000007    1    1    2    0  502 -0.96501659336E+02 -0.42550395140E+01  0.76326613892E+03  0.86712506274E+03  0.40000000000E+03 0.  1.
<mgrwt>
<rscale>  2 0.41149809E+03</rscale>
<asrwt>0</asrwt>
<pdfrwt beam="1">  1       21 0.15166962E+00 0.41149809E+03</pdfrwt>
<pdfrwt beam="2">  1       21 0.46151786E-01 0.41149809E+03</pdfrwt>
<totfact> 0.11239050E+03</totfact>
</mgrwt>
</event>
<event>
 4    1  0.4690138E-002  0.4184767E+03  0.7818608E-02  0.1037563E+00
         21   -1    0    0  501  502  0.00000000000E+00  0.00000000000E+00  0.71857829888E+03  0.71857829888E+03  0.00000000000E+00 0.  1.
         21   -1    0    0  502  503 -0.00000000000E+00 -0.00000000000E+00 -0.31460211066E+03  0.31460211066E+03  0.00000000000E+00 0.  1.
    9000007    1    1    2  501    0 -0.72999157224E+02 -0.98963880918E+02 -0.43241449206E+02  0.42070482480E+03  0.40000000000E+03 0.  1.
   -9000007    1    1    2    0  503  0.72999157224E+02  0.98963880918E+02  0.44721763742E+03  0.61247558474E+03  0.40000000000E+03 0.  1.
<mgrwt>
<rscale>  2 0.41847667E+03</rscale>
<asrwt>0</asrwt>
<pdfrwt beam="1">  1       21 0.11055051E+00 0.41847667E+03</pdfrwt>
<pdfrwt beam="2">  1       21 0.48400325E-01 0.41847667E+03</pdfrwt>
<totfact> 0.23001500E+03</totfact>
</mgrwt>
</event>
<event>
 4    1  0.4690138E-002  0.6066244E+03  0.7818608E-02  0.9891757E-01
         21   -1    0    0  501  502  0.00000000000E+00  0.00000000000E+00  0.66171264357E+03  0.66171264357E+03  0.00000000000E+00 0. -1.
         21   -1    0    0  502  503 -0.00000000000E+00 -0.00000000000E+00 -0.67896678235E+03  0.67896678235E+03  0.00000000000E+00 0.  1.
    9000007    1    1    2  501    0 -0.42788147293E+03 -0.15783089638E+03 -0.29376076360E+03  0.67400929738E+03  0.40000000000E+03 0. -1.
   -9000007    1    1    2    0  503  0.42788147293E+03  0.15783089638E+03  0.27650662482E+03  0.66667012854E+03  0.40000000000E+03 0. -1.
<mgrwt>
<rscale>  2 0.60662439E+03</rscale>
<asrwt>0</asrwt>
<pdfrwt beam="1">  1       21 0.10180195E+00 0.60662439E+03</pdfrwt>
<pdfrwt beam="2">  1       21 0.10445643E+00 0.60662439E+03</pdfrwt>
<totfact> 0.45813360E+02</totfact>
</mgrwt>
</event>
<event>
 4    1  0.4690138E-002  0.4141048E+03  0.7818608E-02  0.1039002E+00
         21   -1    0    0  503  502  0.00000000000E+00  0.00000000000E+00  0.32590435454E+03  0.32590435454E+03  0.00000000000E+00 0.  1.
         21   -1    0    0  501  503 -0.00000000000E+00 -0.00000000000E+00 -0.72049358908E+03  0.72049358908E+03  0.00000000000E+00 0.  1.
    9000007    1    1    2  501    0 -0.10233099107E+03  0.31798312221E+02 -0.46900664047E+03  0.62565964645E+03  0.40000000000E+03 0.  1.
   -9000007    1    1    2    0  502  0.10233099107E+03 -0.31798312221E+02  0.74417405929E+02  0.42073829716E+03  0.40000000000E+03 0.  1.
<mgrwt>
<rscale>  2 0.41410477E+03</rscale>
<asrwt>0</asrwt>
<pdfrwt beam="1">  1       21 0.50139132E-01 0.41410477E+03</pdfrwt>
<pdfrwt beam="2">  1       21 0.11084517E+00 0.41410477E+03</pdfrwt>
<totfact> 0.21241134E+03</totfact>
</mgrwt>
</event>
<event>
 4    1  0.4690138E-002  0.4196396E+03  0.7818608E-02  0.1037184E+00
         21   -1    0    0  503  502  0.00000000000E+00  0.00000000000E+00  0.12183688360E+04  0.12183688360E+04  0.00000000000E+00 0. -1.
         21   -1    0    0  501  503 -0.00000000000E+00 -0.00000000000E+00 -0.28882030684E+03  0.28882030684E+03  0.00000000000E+00 0. -1.
    9000007    1    1    2  501    0 -0.12506710959E+03 -0.21344866588E+02 -0.67866501151E+02  0.42509204557E+03  0.40000000000E+03 0. -1.
   -9000007    1    1    2    0  502  0.12506710959E+03  0.21344866588E+02  0.99741503032E+03  0.10820970973E+04  0.40000000000E+03 0. -1.
<mgrwt>
<rscale>  2 0.41963959E+03</rscale>
<asrwt>0</asrwt>
<pdfrwt beam="1">  1       21 0.18744136E+00 0.41963959E+03</pdfrwt>
<pdfrwt beam="2">  1       21 0.44433894E-01 0.41963959E+03</pdfrwt>
<totfact> 0.66474614E+02</totfact>
</mgrwt>
</event>
<event>
 4    1  0.4690138E-002  0.4696589E+03  0.7818608E-02  0.1022017E+00
         21   -1    0    0  503  502  0.00000000000E+00  0.00000000000E+00  0.12330242757E+04  0.12330242757E+04  0.00000000000E+00 0. -1.
         21   -1    0    0  501  503 -0.00000000000E+00 -0.00000000000E+00 -0.41108112129E+03  0.41108112129E+03  0.00000000000E+00 0.  1.
    9000007    1    1    2  501    0 -0.23432209703E+03  0.75316890006E+02 -0.20683971331E+03  0.51318821701E+03  0.40000000000E+03 0.  1.
   -9000007    1    1    2    0  502  0.23432209703E+03 -0.75316890006E+02  0.10287828677E+04  0.11309171800E+04  0.40000000000E+03 0. -1.
<mgrwt>
<rscale>  2 0.46965890E+03</rscale>
<asrwt>0</asrwt>
<pdfrwt beam="1">  1       21 0.18969604E+00 0.46965890E+03</pdfrwt>
<pdfrwt beam="2">  1       21 0.63243250E-01 0.46965890E+03</pdfrwt>
<totfact> 0.29319987E+02</totfact>
</mgrwt>
</event>
<event>
 4    1  0.4690138E-002  0.4157465E+03  0.7818608E-02  0.1038460E+00
         21   -1    0    0  501  502  0.00000000000E+00  0.00000000000E+00  0.92194185709E+03  0.92194185709E+03  0.00000000000E+00 0. -1.
         21   -1    0    0  502  503 -0.00000000000E+00 -0.00000000000E+00 -0.24540329305E+03  0.24540329305E+03  0.00000000000E+00 0.  1.
    9000007    1    1    2  501    0 -0.21198338729E+02  0.11133619951E+03  0.62183773538E+03  0.74801556671E+03  0.40000000000E+03 0. -1.
   -9000007    1    1    2    0  503  0.21198338729E+02 -0.11133619951E+03  0.54700828659E+02  0.41932958343E+03  0.40000000000E+03 0. -1.
<mgrwt>
<rscale>  2 0.41574646E+03</rscale>
<asrwt>0</asrwt>
<pdfrwt beam="1">  1       21 0.14183721E+00 0.41574646E+03</pdfrwt>
<pdfrwt beam="2">  1       21 0.37754353E-01 0.41574646E+03</pdfrwt>
<totfact> 0.20355408E+03</totfact>
</mgrwt>
</event>
<event>
 4    1  0.4690138E-002  0.5508585E+03  0.7818608E-02  0.1001295E+00
         21   -1    0    0  503  502  0.00000000000E+00  0.00000000000E+00  0.15090261369E+04  0.15090261369E+04  0.00000000000E+00 0. -1.
         21   -1    0    0  501  503 -0.00000000000E+00 -0.00000000000E+00 -0.22127420643E+03  0.22127420643E+03  0.00000000000E+00 0.  1.
    9000007    1    1    2  501    0 -0.34172397341E+03 -0.16330904626E+03  0.90519269194E+03  0.10596315058E+04  0.40000000000E+03 0.  1.
   -9000007    1    1    2    0  502  0.34172397341E+03  0.16330904626E+03  0.38255923849E+03  0.67066883747E+03  0.40000000000E+03 0.  1.
<mgrwt>
<rscale>  2 0.55085853E+03</rscale>
<asrwt>0</asrwt>
<pdfrwt beam="1">  1       21 0.23215786E+00 0.55085853E+03</pdfrwt>
<pdfrwt beam="2">  1       21 0.34042187E-01 0.55085853E+03</pdfrwt>
<totfact> 0.55105665E+02</totfact>
</mgrwt>
</event>
<event>
 4    1  0.4690138E-002  0.4679555E+03  0.7818608E-02  0.1022499E+00
         21   -1    0    0  503  502  0.00000000000E+00  0.00000000000E+00  0.18272068778E+03  0.18272068778E+03  0.00000000000E+00 0.  1.
         21   -1    0    0  501  503 -0.00000000000E+00 -0.00000000000E+00 -0.17956212881E+04  0.17956212881E+04  0.00000000000E+00 0.  1.
    9000007    1    1    2  501    0  0.50723065017E+02  0.23750693049E+03 -0.23600771660E+03  0.52410114830E+03  0.40000000000E+03 0.  1.
   -9000007    1    1    2    0  502 -0.50723065017E+02 -0.23750693049E+03 -0.13768928838E+04  0.14542408276E+04  0.40000000000E+03 0.  1.
<mgrwt>
<rscale>  2 0.46795552E+03</rscale>
<asrwt>0</asrwt>
<pdfrwt beam="1">  1       21 0.28110875E-01 0.46795552E+03</pdfrwt>
<pdfrwt beam="2">  1       21 0.27624943E+00 0.46795552E+03</pdfrwt>
<totfact> 0.44916405E+02</totfact>
</mgrwt>
</event>
<event>
 4    1  0.4690138E-002  0.4367724E+03  0.7818608E-02  0.1031742E+00
         21   -1    0    0  503  502  0.00000000000E+00  0.00000000000E+00  0.11349870377E+03  0.11349870377E+03  0.00000000000E+00 0.  1.
         21   -1    0    0  501  503 -0.00000000000E+00 -0.00000000000E+00 -0.17680290202E+04  0.17680290202E+04  0.00000000000E+00 0.  1.
    9000007    1    1    2  501    0  0.16566631933E+03  0.57661038188E+02 -0.10362108649E+04  0.11245012589E+04  0.40000000000E+03 0.  1.
   -9000007    1    1    2    0  502 -0.16566631933E+03 -0.57661038188E+02 -0.61831945146E+03  0.75702646502E+03  0.40000000000E+03 0.  1.
<mgrwt>
<rscale>  2 0.43677239E+03</rscale>
<asrwt>0</asrwt>
<pdfrwt beam="1">  1       21 0.17461340E-01 0.43677239E+03</pdfrwt>
<pdfrwt beam="2">  1       21 0.27200445E+00 0.43677239E+03</pdfrwt>
<totfact> 0.12105468E+03</totfact>
</mgrwt>
</event>
<event>
 4    1  0.4690138E-002  0.4159061E+03  0.7818608E-02  0.1038407E+00
         21   -1    0    0  503  502  0.00000000000E+00  0.00000000000E+00  0.70708399226E+03  0.70708399226E+03  0.00000000000E+00 0.  1.
         21   -1    0    0  501  503 -0.00000000000E+00 -0.00000000000E+00 -0.28957003687E+03  0.28957003687E+03  0.00000000000E+00 0.  1.
    9000007    1    1    2  501    0  0.64745121446E+02  0.93733329895E+02  0.12453675314E+02  0.41609249202E+03  0.40000000000E+03 0.  1.
   -9000007    1    1    2    0  502 -0.64745121446E+02 -0.93733329895E+02  0.40506028007E+03  0.58056153711E+03  0.40000000000E+03 0.  1.
<mgrwt>
<rscale>  2 0.41590608E+03</rscale>
<asrwt>0</asrwt>
<pdfrwt beam="1">  1       21 0.10878215E+00 0.41590608E+03</pdfrwt>
<pdfrwt beam="2">  1       21 0.44549236E-01 0.41590608E+03</pdfrwt>
<totfact> 0.28521815E+03</totfact>
</mgrwt>
</event>
<event>
 4    1  0.4690138E-002  0.4009005E+03  0.7818608E-02  0.1043468E+00
         21   -1    0    0  503  502  0.00000000000E+00  0.00000000000E+00  0.18644354953E+03  0.18644354953E+03  0.00000000000E+00 0.  1.
         21   -1    0    0  501  503 -0.00000000000E+00 -0.00000000000E+00 -0.18831732514E+04  0.18831732514E+04  0.00000000000E+00 0.  1.
    9000007    1    1    2  501    0 -0.26832318911E+02  0.10951177158E+01 -0.16103679350E+04  0.16595198278E+04  0.40000000000E+03 0.  1.
   -9000007    1    1    2    0  502  0.26832318911E+02 -0.10951177158E+01 -0.86361766855E+02  0.41009697316E+03  0.40000000000E+03 0.  1.
<mgrwt>
<rscale>  2 0.40090045E+03</rscale>
<asrwt>0</asrwt>
<pdfrwt beam="1">  1       21 0.28683623E-01 0.40090045E+03</pdfrwt>
<pdfrwt beam="2">  1       21 0.28971896E+00 0.40090045E+03</pdfrwt>
<totfact> 0.37261461E+02</totfact>
</mgrwt>
</event>
<event>
 4    1  0.4690138E-002  0.5447065E+03  0.7818608E-02  0.1002727E+00
         21   -1    0    0  503  502  0.00000000000E+00  0.00000000000E+00  0.43577268995E+03  0.43577268995E+03  0.00000000000E+00 0. -1.
         21   -1    0    0  501  503 -0.00000000000E+00 -0.00000000000E+00 -0.69154688110E+03  0.69154688110E+03  0.00000000000E+00 0.  1.
    9000007    1    1    2  501    0 -0.27903177952E+03 -0.24258293752E+03 -0.19791924273E+03  0.57954917151E+03  0.40000000000E+03 0.  1.
   -9000007    1    1    2    0  502  0.27903177952E+03  0.24258293752E+03 -0.57854948409E+02  0.54777039954E+03  0.40000000000E+03 0. -1.
<mgrwt>
<rscale>  2 0.54470654E+03</rscale>
<asrwt>0</asrwt>
<pdfrwt beam="1">  1       21 0.67041953E-01 0.54470654E+03</pdfrwt>
<pdfrwt beam="2">  1       21 0.10639183E+00 0.54470654E+03</pdfrwt>
<totfact> 0.11890411E+03</totfact>
</mgrwt>
</event>
<event>
 4    1  0.4690138E-002  0.4016797E+03  0.7818608E-02  0.1043200E+00
         21   -1    0    0  503  502  0.00000000000E+00  0.00000000000E+00  0.66083413474E+03  0.66083413474E+03  0.00000000000E+00 0.  1.
         21   -1    0    0  501  503 -0.00000000000E+00 -0.00000000000E+00 -0.26920933937E+03  0.26920933937E+03  0.00000000000E+00 0.  1.
    9000007    1    1    2  501    0  0.29349821953E+02 -0.22026367801E+02  0.33767293744E+03  0.52475669182E+03  0.40000000000E+03 0.  1.
   -9000007    1    1    2    0  502 -0.29349821953E+02  0.22026367801E+02  0.53951857933E+02  0.40528678229E+03  0.40000000000E+03 0.  1.
<mgrwt>
<rscale>  2 0.40167969E+03</rscale>
<asrwt>0</asrwt>
<pdfrwt beam="1">  1       21 0.10166679E+00 0.40167969E+03</pdfrwt>
<pdfrwt beam="2">  1       21 0.41416822E-01 0.40167969E+03</pdfrwt>
<totfact> 0.39399897E+03</totfact>
</mgrwt>
</event>
<event>
 4    1  0.4690138E-002  0.4106961E+03  0.7818608E-02  0.1040138E+00
         21   -1    0    0  501  502  0.00000000000E+00  0.00000000000E+00  0.19594094028E+03  0.19594094028E+03  0.00000000000E+00 0.  1.
         21   -1    0    0  502  503 -0.00000000000E+00 -0.00000000000E+00 -0.86403890957E+03  0.86403890957E+03  0.00000000000E+00 0.  1.
    9000007    1    1    2  501    0  0.90437770921E+02 -0.22188079267E+02 -0.36636111179E+03  0.55035603522E+03  0.40000000000E+03 0.  1.
   -9000007    1    1    2    0  503 -0.90437770921E+02  0.22188079267E+02 -0.30173685750E+03  0.50962381464E+03  0.40000000000E+03 0.  1.
<mgrwt>
<rscale>  2 0.41069612E+03</rscale>
<asrwt>0</asrwt>
<pdfrwt beam="1">  1       21 0.30144760E-01 0.41069612E+03</pdfrwt>
<pdfrwt beam="2">  1       21 0.13292906E+00 0.41069612E+03</pdfrwt>
<totfact> 0.38050834E+03</totfact>
</mgrwt>
</event>
<event>
 4    1  0.4690138E-002  0.4090203E+03  0.7818608E-02  0.1040700E+00
         21   -1    0    0  501  502  0.00000000000E+00  0.00000000000E+00  0.78913513281E+03  0.78913513281E+03  0.00000000000E+00 0. -1.
         21   -1    0    0  502  503 -0.00000000000E+00 -0.00000000000E+00 -0.21204757941E+03  0.21204757941E+03  0.00000000000E+00 0. -1.
    9000007    1    1    2  501    0  0.65642743704E+02  0.54668510031E+02  0.29594505328E+03  0.50485749509E+03  0.40000000000E+03 0.  1.
   -9000007    1    1    2    0  503 -0.65642743704E+02 -0.54668510031E+02  0.28114250012E+03  0.49632521713E+03  0.40000000000E+03 0.  1.
<mgrwt>
<rscale>  2 0.40902031E+03</rscale>
<asrwt>0</asrwt>
<pdfrwt beam="1">  1       21 0.12140540E+00 0.40902031E+03</pdfrwt>
<pdfrwt beam="2">  1       21 0.32622705E-01 0.40902031E+03</pdfrwt>
<totfact> 0.41079544E+03</totfact>
</mgrwt>
</event>
<event>
 4    1  0.4690138E-002  0.4040610E+03  0.7818608E-02  0.1042383E+00
         21   -1    0    0  503  502  0.00000000000E+00  0.00000000000E+00  0.32520371133E+03  0.32520371133E+03  0.00000000000E+00 0.  1.
         21   -1    0    0  501  503 -0.00000000000E+00 -0.00000000000E+00 -0.96575495142E+03  0.96575495142E+03  0.00000000000E+00 0.  1.
    9000007    1    1    2  501    0  0.44575329228E+02 -0.35753517831E+02 -0.76755040359E+03  0.86740930134E+03  0.40000000000E+03 0.  1.
   -9000007    1    1    2    0  502 -0.44575329228E+02  0.35753517831E+02  0.12699916350E+03  0.42354936140E+03  0.40000000000E+03 0.  1.
<mgrwt>
<rscale>  2 0.40406098E+03</rscale>
<asrwt>0</asrwt>
<pdfrwt beam="1">  1       21 0.50031341E-01 0.40406098E+03</pdfrwt>
<pdfrwt beam="2">  1       21 0.14857768E+00 0.40406098E+03</pdfrwt>
<totfact> 0.10058058E+03</totfact>
</mgrwt>
</event>
<event>
 4    1  0.4690138E-002  0.4204427E+03  0.7818608E-02  0.1036922E+00
         21   -1    0    0  501  502  0.00000000000E+00  0.00000000000E+00  0.28798383999E+03  0.28798383999E+03  0.00000000000E+00 0. -1.
         21   -1    0    0  502  503 -0.00000000000E+00 -0.00000000000E+00 -0.62627353208E+03  0.62627353208E+03  0.00000000000E+00 0. -1.
    9000007    1    1    2  501    0 -0.85171772356E+02 -0.97559556171E+02 -0.10469969523E+03  0.43328296065E+03  0.40000000000E+03 0. -1.
   -9000007    1    1    2    0  503  0.85171772356E+02  0.97559556171E+02 -0.23358999686E+03  0.48097441142E+03  0.40000000000E+03 0. -1.
<mgrwt>
<rscale>  2 0.42044274E+03</rscale>
<asrwt>0</asrwt>
<pdfrwt beam="1">  1       21 0.44305206E-01 0.42044274E+03</pdfrwt>
<pdfrwt beam="2">  1       21 0.96349774E-01 0.42044274E+03</pdfrwt>
<totfact> 0.38725571E+03</totfact>
</mgrwt>
</event>
<event>
 4    1  0.4690138E-002  0.4700658E+03  0.7818608E-02  0.1021902E+00
         21   -1    0    0  501  502  0.00000000000E+00  0.00000000000E+00  0.12544396229E+04  0.12544396229E+04  0.00000000000E+00 0.  1.
         21   -1    0    0  502  503 -0.00000000000E+00 -0.00000000000E+00 -0.40411835513E+03  0.40411835513E+03  0.00000000000E+00 0.  1.
    9000007    1    1    2  501    0  0.23031293799E+03  0.88982147329E+02  0.10480192532E+04  0.11486105637E+04  0.40000000000E+03 0.  1.
   -9000007    1    1    2    0  503 -0.23031293799E+03 -0.88982147329E+02 -0.19769798542E+03  0.50994741434E+03  0.40000000000E+03 0.  1.
<mgrwt>
<rscale>  2 0.47006582E+03</rscale>
<asrwt>0</asrwt>
<pdfrwt beam="1">  1       21 0.19299071E+00 0.47006582E+03</pdfrwt>
<pdfrwt beam="2">  1       21 0.62172055E-01 0.47006582E+03</pdfrwt>
<totfact> 0.28905679E+02</totfact>
</mgrwt>
</event>
<event>
 4    1  0.4690138E-002  0.5549434E+03  0.7818608E-02  0.1000356E+00
         21   -1    0    0  503  502  0.00000000000E+00  0.00000000000E+00  0.58918887382E+03  0.58918887382E+03  0.00000000000E+00 0.  1.
         21   -1    0    0  501  503 -0.00000000000E+00 -0.00000000000E+00 -0.14846852403E+04  0.14846852403E+04  0.00000000000E+00 0.  1.
    9000007    1    1    2  501    0 -0.27382246524E+03 -0.27015437012E+03 -0.12824321027E+04  0.13973525769E+04  0.40000000000E+03 0.  1.
   -9000007    1    1    2    0  502  0.27382246524E+03  0.27015437012E+03  0.38693573630E+03  0.67652153713E+03  0.40000000000E+03 0.  1.
<mgrwt>
<rscale>  2 0.55494335E+03</rscale>
<asrwt>0</asrwt>
<pdfrwt beam="1">  1       21 0.90644442E-01 0.55494335E+03</pdfrwt>
<pdfrwt beam="2">  1       21 0.22841311E+00 0.55494335E+03</pdfrwt>
<totfact> 0.68472996E+01</totfact>
</mgrwt>
</event>
<event>
 4    1  0.4690138E-002  0.4157574E+03  0.7818608E-02  0.1038456E+00
         21   -1    0    0  501  502  0.00000000000E+00  0.00000000000E+00  0.32755264180E+03  0.32755264180E+03  0.00000000000E+00 0. -1.
         21   -1    0    0  502  503 -0.00000000000E+00 -0.00000000000E+00 -0.67947230655E+03  0.67947230655E+03  0.00000000000E+00 0. -1.
    9000007    1    1    2  501    0 -0.10277335503E+03 -0.47873038025E+02  0.61998140287E+02  0.42035456423E+03  0.40000000000E+03 0. -1.
   -9000007    1    1    2    0  503  0.10277335503E+03  0.47873038025E+02 -0.41391780504E+03  0.58667038412E+03  0.40000000000E+03 0. -1.
<mgrwt>
<rscale>  2 0.41575737E+03</rscale>
<asrwt>0</asrwt>
<pdfrwt beam="1">  1       21 0.50392714E-01 0.41575737E+03</pdfrwt>
<pdfrwt beam="2">  1       21 0.10453420E+00 0.41575737E+03</pdfrwt>
<totfact> 0.24267691E+03</totfact>
</mgrwt>
</event>
<event>
 4    1  0.4690138E-002  0.5370770E+03  0.7818608E-02  0.1004530E+00
         21   -1    0    0  503  502  0.00000000000E+00  0.00000000000E+00  0.71996623923E+03  0.71996623923E+03  0.00000000000E+00 0.  1.
         21   -1    0    0  501  503 -0.00000000000E+00 -0.00000000000E+00 -0.47993130460E+03  0.47993130460E+03  0.00000000000E+00 0.  1.
    9000007    1    1    2  501    0  0.35839188870E+03 -0.26368254270E+01 -0.12383130869E+03  0.55116775282E+03  0.40000000000E+03 0.  1.
   -9000007    1    1    2    0  502 -0.35839188870E+03  0.26368254270E+01  0.36386624332E+03  0.64872979102E+03  0.40000000000E+03 0.  1.
<mgrwt>
<rscale>  2 0.53707700E+03</rscale>
<asrwt>0</asrwt>
<pdfrwt beam="1">  1       21 0.11076404E+00 0.53707700E+03</pdfrwt>
<pdfrwt beam="2">  1       21 0.73835586E-01 0.53707700E+03</pdfrwt>
<totfact> 0.86677819E+02</totfact>
</mgrwt>
</event>
<event>
 4    1  0.4690138E-002  0.4101282E+03  0.7818608E-02  0.1040328E+00
         21   -1    0    0  503  502  0.00000000000E+00  0.00000000000E+00  0.18084919423E+04  0.18084919423E+04  0.00000000000E+00 0. -1.
         21   -1    0    0  501  503 -0.00000000000E+00 -0.00000000000E+00 -0.25120704009E+03  0.25120704009E+03  0.00000000000E+00 0. -1.
    9000007    1    1    2  501    0 -0.57828926371E+02 -0.69720742054E+02 -0.38615318431E+02  0.41194211901E+03  0.40000000000E+03 0. -1.
   -9000007    1    1    2    0  502  0.57828926371E+02  0.69720742054E+02  0.15959002206E+04  0.16477568634E+04  0.40000000000E+03 0. -1.
<mgrwt>
<rscale>  2 0.41012823E+03</rscale>
<asrwt>0</asrwt>
<pdfrwt beam="1">  1       21 0.27822952E+00 0.41012823E+03</pdfrwt>
<pdfrwt beam="2">  1       21 0.38647238E-01 0.41012823E+03</pdfrwt>
<totfact> 0.23850269E+02</totfact>
</mgrwt>
</event>
<event>
 4    1  0.4690138E-002  0.4990819E+03  0.7818608E-02  0.1014019E+00
         21   -1    0    0  501  502  0.00000000000E+00  0.00000000000E+00  0.14614519278E+03  0.14614519278E+03  0.00000000000E+00 0.  1.
         21   -1    0    0  502  503 -0.00000000000E+00 -0.00000000000E+00 -0.17920216529E+04  0.17920216529E+04  0.00000000000E+00 0.  1.
    9000007    1    1    2  501    0  0.16512057491E+03 -0.24863221906E+03 -0.10372841973E+04  0.11511043787E+04  0.40000000000E+03 0.  1.
   -9000007    1    1    2    0  503 -0.16512057491E+03  0.24863221906E+03 -0.60859226278E+03  0.78706246698E+03  0.40000000000E+03 0.  1.
<mgrwt>
<rscale>  2 0.49908194E+03</rscale>
<asrwt>0</asrwt>
<pdfrwt beam="1">  1       21 0.22483876E-01 0.49908194E+03</pdfrwt>
<pdfrwt beam="2">  1       21 0.27569563E+00 0.49908194E+03</pdfrwt>
<totfact> 0.68872917E+02</totfact>
</mgrwt>
</event>
<event>
 4    1  0.4690138E-002  0.4390750E+03  0.7818608E-02  0.1031031E+00
         21   -1    0    0  501  502  0.00000000000E+00  0.00000000000E+00  0.16956554975E+04  0.16956554975E+04  0.00000000000E+00 0.  1.
         21   -1    0    0  502  503 -0.00000000000E+00 -0.00000000000E+00 -0.11686962218E+03  0.11686962218E+03  0.00000000000E+00 0.  1.
    9000007    1    1    2  501    0 -0.19818088584E+02  0.17998367223E+03  0.93876740985E+03  0.10363740293E+04  0.40000000000E+03 0.  1.
   -9000007    1    1    2    0  503  0.19818088584E+02 -0.17998367223E+03  0.64001846551E+03  0.77615109038E+03  0.40000000000E+03 0.  1.
<mgrwt>
<rscale>  2 0.43907503E+03</rscale>
<asrwt>0</asrwt>
<pdfrwt beam="1">  1       21 0.26087006E+00 0.43907503E+03</pdfrwt>
<pdfrwt beam="2">  1       21 0.17979943E-01 0.43907503E+03</pdfrwt>
<totfact> 0.13366631E+03</totfact>
</mgrwt>
</event>
<event>
 4    1  0.4690138E-002  0.4142989E+03  0.7818608E-02  0.1038938E+00
         21   -1    0    0  501  502  0.00000000000E+00  0.00000000000E+00  0.22503980616E+04  0.22503980616E+04  0.00000000000E+00 0.  1.
         21   -1    0    0  502  503 -0.00000000000E+00 -0.00000000000E+00 -0.10447422826E+03  0.10447422826E+03  0.00000000000E+00 0.  1.
    9000007    1    1    2  501    0  0.35903213384E+02 -0.10175714869E+03  0.46121696567E+03  0.61997148924E+03  0.40000000000E+03 0.  1.
   -9000007    1    1    2    0  503 -0.35903213384E+02  0.10175714869E+03  0.16847068676E+04  0.17349008006E+04  0.40000000000E+03 0.  1.
<mgrwt>
<rscale>  2 0.41429888E+03</rscale>
<asrwt>0</asrwt>
<pdfrwt beam="1">  1       21 0.34621505E+00 0.41429888E+03</pdfrwt>
<pdfrwt beam="2">  1       21 0.16072960E-01 0.41429888E+03</pdfrwt>
<totfact> 0.51143878E+02</totfact>
</mgrwt>
</event>
<event>
 4    1  0.4690138E-002  0.4162141E+03  0.7818608E-02  0.1038306E+00
         21   -1    0    0  503  502  0.00000000000E+00  0.00000000000E+00  0.39522187546E+03  0.39522187546E+03  0.00000000000E+00 0.  1.
         21   -1    0    0  501  503 -0.00000000000E+00 -0.00000000000E+00 -0.43839697849E+03  0.43839697849E+03  0.00000000000E+00 0.  1.
    9000007    1    1    2  501    0 -0.36927016249E+02 -0.10895199318E+03 -0.16108938142E+02  0.41652567656E+03  0.40000000000E+03 0.  1.
   -9000007    1    1    2    0  502  0.36927016249E+02  0.10895199318E+03 -0.27066164892E+02  0.41709317739E+03  0.40000000000E+03 0.  1.
<mgrwt>
<rscale>  2 0.41621406E+03</rscale>
<asrwt>0</asrwt>
<pdfrwt beam="1">  1       21 0.60803366E-01 0.41621406E+03</pdfrwt>
<pdfrwt beam="2">  1       21 0.67445689E-01 0.41621406E+03</pdfrwt>
<totfact> 0.44977234E+03</totfact>
</mgrwt>
</event>
<event>
 4    1  0.4690138E-002  0.4187482E+03  0.7818608E-02  0.1037475E+00
         21   -1    0    0  503  502  0.00000000000E+00  0.00000000000E+00  0.72459609531E+03  0.72459609531E+03  0.00000000000E+00 0. -1.
         21   -1    0    0  501  503 -0.00000000000E+00 -0.00000000000E+00 -0.58250281521E+03  0.58250281521E+03  0.00000000000E+00 0. -1.
    9000007    1    1    2  501    0  0.12240149359E+03 -0.19180777490E+02 -0.42863311770E+03  0.59922982023E+03  0.40000000000E+03 0. -1.
   -9000007    1    1    2    0  502 -0.12240149359E+03  0.19180777490E+02  0.57072639779E+03  0.70786909030E+03  0.40000000000E+03 0. -1.
<mgrwt>
<rscale>  2 0.41874817E+03</rscale>
<asrwt>0</asrwt>
<pdfrwt beam="1">  1       21 0.11147632E+00 0.41874817E+03</pdfrwt>
<pdfrwt beam="2">  1       21 0.89615818E-01 0.41874817E+03</pdfrwt>
<totfact> 0.57101075E+02</totfact>
</mgrwt>
</event>
<event>
 4    1  0.4690138E-002  0.4492045E+03  0.7818608E-02  0.1027960E+00
         21   -1    0    0  503  502  0.00000000000E+00  0.00000000000E+00  0.13829042291E+03  0.13829042291E+03  0.00000000000E+00 0.  1.
         21   -1    0    0  501  503 -0.00000000000E+00 -0.00000000000E+00 -0.14624501061E+04  0.14624501061E+04  0.00000000000E+00 0.  1.
    9000007    1    1    2  501    0 -0.63759458965E+02 -0.19421495692E+03 -0.62398671445E+03  0.76885898441E+03  0.40000000000E+03 0.  1.
   -9000007    1    1    2    0  502  0.63759458965E+02  0.19421495692E+03 -0.70017296871E+03  0.83188154458E+03  0.40000000000E+03 0.  1.
<mgrwt>
<rscale>  2 0.44920454E+03</rscale>
<asrwt>0</asrwt>
<pdfrwt beam="1">  1       21 0.21275448E-01 0.44920454E+03</pdfrwt>
<pdfrwt beam="2">  1       21 0.22499234E+00 0.44920454E+03</pdfrwt>
<totfact> 0.16117227E+03</totfact>
</mgrwt>
</event>
<event>
 4    1  0.4690138E-002  0.4776586E+03  0.7818608E-02  0.1019781E+00
         21   -1    0    0  501  502  0.00000000000E+00  0.00000000000E+00  0.58682056182E+03  0.58682056182E+03  0.00000000000E+00 0. -1.
         21   -1    0    0  502  503 -0.00000000000E+00 -0.00000000000E+00 -0.45114327499E+03  0.45114327499E+03  0.00000000000E+00 0. -1.
    9000007    1    1    2  501    0  0.21385380039E+02  0.26019299960E+03 -0.12508192329E+03  0.49376433554E+03  0.40000000000E+03 0. -1.
   -9000007    1    1    2    0  503 -0.21385380039E+02 -0.26019299960E+03  0.26075921011E+03  0.54419950127E+03  0.40000000000E+03 0. -1.
<mgrwt>
<rscale>  2 0.47765859E+03</rscale>
<asrwt>0</asrwt>
<pdfrwt beam="1">  1       21 0.90280086E-01 0.47765859E+03</pdfrwt>
<pdfrwt beam="2">  1       21 0.69406658E-01 0.47765859E+03</pdfrwt>
<totfact> 0.16764061E+03</totfact>
</mgrwt>
</event>
<event>
 4    1  0.4690138E-002  0.4852799E+03  0.7818608E-02  0.1017694E+00
         21   -1    0    0  503  502  0.00000000000E+00  0.00000000000E+00  0.11640278075E+04  0.11640278075E+04  0.00000000000E+00 0. -1.
         21   -1    0    0  501  503 -0.00000000000E+00 -0.00000000000E+00 -0.20317286953E+03  0.20317286953E+03  0.00000000000E+00 0. -1.
    9000007    1    1    2  501    0 -0.20356509654E+03 -0.18454760066E+03  0.43592464636E+03  0.65232420064E+03  0.40000000000E+03 0. -1.
   -9000007    1    1    2    0  502  0.20356509654E+03  0.18454760066E+03  0.52493029161E+03  0.71487647638E+03  0.40000000000E+03 0. -1.
<mgrwt>
<rscale>  2 0.48527988E+03</rscale>
<asrwt>0</asrwt>
<pdfrwt beam="1">  1       21 0.17908120E+00 0.48527988E+03</pdfrwt>
<pdfrwt beam="2">  1       21 0.31257365E-01 0.48527988E+03</pdfrwt>
<totfact> 0.15140389E+03</totfact>
</mgrwt>
</event>
<event>
 4    1  0.4690138E-002  0.5412930E+03  0.7818608E-02  0.1003530E+00
         21   -1    0    0  503  502  0.00000000000E+00  0.00000000000E+00  0.18831074710E+04  0.18831074710E+04  0.00000000000E+00 0. -1.
         21   -1    0    0  501  503 -0.00000000000E+00 -0.00000000000E+00 -0.15561181801E+03  0.15561181801E+03  0.00000000000E+00 0. -1.
    9000007    1    1    2  501    0 -0.29729488648E+03 -0.21121983533E+03  0.87500050091E+03  0.10288945257E+04  0.40000000000E+03 0. -1.
   -9000007    1    1    2    0  502  0.29729488648E+03  0.21121983533E+03  0.85249515210E+03  0.10098247634E+04  0.40000000000E+03 0. -1.
<mgrwt>
<rscale>  2 0.54129296E+03</rscale>
<asrwt>0</asrwt>
<pdfrwt beam="1">  1       21 0.28970883E+00 0.54129296E+03</pdfrwt>
<pdfrwt beam="2">  1       21 0.23940281E-01 0.54129296E+03</pdfrwt>
<totfact> 0.49181725E+02</totfact>
</mgrwt>
</event>
<event>
 4    1  0.4690138E-002  0.4620384E+03  0.7818608E-02  0.1024192E+00
         21   -1    0    0  503  502  0.00000000000E+00  0.00000000000E+00  0.51053286696E+03  0.51053286696E+03  0.00000000000E+00 0.  1.
         21   -1    0    0  501  503 -0.00000000000E+00 -0.00000000000E+00 -0.64566214121E+03  0.64566214121E+03  0.00000000000E+00 0.  1.
    9000007    1    1    2  501    0 -0.12059841462E+03  0.19732075415E+03 -0.41072764179E+03  0.61820437831E+03  0.40000000000E+03 0.  1.
   -9000007    1    1    2    0  502  0.12059841462E+03 -0.19732075415E+03  0.27559836754E+03  0.53799062986E+03  0.40000000000E+03 0.  1.
<mgrwt>
<rscale>  2 0.46203837E+03</rscale>
<asrwt>0</asrwt>
<pdfrwt beam="1">  1       21 0.78543518E-01 0.46203837E+03</pdfrwt>
<pdfrwt beam="2">  1       21 0.99332636E-01 0.46203837E+03</pdfrwt>
<totfact> 0.10119688E+03</totfact>
</mgrwt>
</event>
<event>
 4    1  0.4690138E-002  0.4026616E+03  0.7818608E-02  0.1042862E+00
         21   -1    0    0  503  502  0.00000000000E+00  0.00000000000E+00  0.22964081184E+03  0.22964081184E+03  0.00000000000E+00 0. -1.
         21   -1    0    0  501  503 -0.00000000000E+00 -0.00000000000E+00 -0.10389366593E+04  0.10389366593E+04  0.00000000000E+00 0. -1.
    9000007    1    1    2  501    0 -0.24994813271E+02  0.38879229194E+02 -0.76368978789E+03  0.86334143146E+03  0.40000000000E+03 0. -1.
   -9000007    1    1    2    0  502  0.24994813271E+02 -0.38879229194E+02 -0.45606059533E+02  0.40523603964E+03  0.40000000000E+03 0. -1.
<mgrwt>
<rscale>  2 0.40266156E+03</rscale>
<asrwt>0</asrwt>
<pdfrwt beam="1">  1       21 0.35329355E-01 0.40266156E+03</pdfrwt>
<pdfrwt beam="2">  1       21 0.15983641E+00 0.40266156E+03</pdfrwt>
<totfact> 0.16940474E+03</totfact>
</mgrwt>
</event>
<event>
 4    1  0.4690138E-002  0.4235461E+03  0.7818608E-02  0.1035918E+00
         21   -1    0    0  501  502  0.00000000000E+00  0.00000000000E+00  0.57063250137E+03  0.57063250137E+03  0.00000000000E+00 0. -1.
         21   -1    0    0  502  503 -0.00000000000E+00 -0.00000000000E+00 -0.42883115274E+03  0.42883115274E+03  0.00000000000E+00 0. -1.
    9000007    1    1    2  501    0  0.98082845463E+02  0.98848605837E+02  0.32907778959E+03  0.53636133627E+03  0.40000000000E+03 0. -1.
   -9000007    1    1    2    0  503 -0.98082845463E+02 -0.98848605837E+02 -0.18727644095E+03  0.46310231784E+03  0.40000000000E+03 0. -1.
<mgrwt>
<rscale>  2 0.42354609E+03</rscale>
<asrwt>0</asrwt>
<pdfrwt beam="1">  1       21 0.87789615E-01 0.42354609E+03</pdfrwt>
<pdfrwt beam="2">  1       21 0.65974024E-01 0.42354609E+03</pdfrwt>
<totfact> 0.20479117E+03</totfact>
</mgrwt>
</event>
<event>
 4    1  0.4690138E-002  0.4628834E+03  0.7818608E-02  0.1023948E+00
         21   -1    0    0  503  502  0.00000000000E+00  0.00000000000E+00  0.51949902765E+03  0.51949902765E+03  0.00000000000E+00 0.  1.
         21   -1    0    0  501  503 -0.00000000000E+00 -0.00000000000E+00 -0.42444680153E+03  0.42444680153E+03  0.00000000000E+00 0.  1.
    9000007    1    1    2  501    0 -0.86003326741E+02  0.21648192465E+03  0.12691510573E+03  0.47996712385E+03  0.40000000000E+03 0. -1.
   -9000007    1    1    2    0  502  0.86003326741E+02 -0.21648192465E+03 -0.31862879605E+02  0.46397870534E+03  0.40000000000E+03 0. -1.
<mgrwt>
<rscale>  2 0.46288335E+03</rscale>
<asrwt>0</asrwt>
<pdfrwt beam="1">  1       21 0.79922927E-01 0.46288335E+03</pdfrwt>
<pdfrwt beam="2">  1       21 0.65299508E-01 0.46288335E+03</pdfrwt>
<totfact> 0.25699515E+03</totfact>
</mgrwt>
</event>
<event>
 4    1  0.4690138E-002  0.5100294E+03  0.7818608E-02  0.1011194E+00
         21   -1    0    0  503  502  0.00000000000E+00  0.00000000000E+00  0.10193683779E+04  0.10193683779E+04  0.00000000000E+00 0.  1.
         21   -1    0    0  501  503 -0.00000000000E+00 -0.00000000000E+00 -0.36079462513E+03  0.36079462513E+03  0.00000000000E+00 0.  1.
    9000007    1    1    2  501    0  0.14962013567E+03 -0.27882584370E+03 -0.44063875717E+02  0.51192935182E+03  0.40000000000E+03 0.  1.
   -9000007    1    1    2    0  502 -0.14962013567E+03  0.27882584370E+03  0.70263762845E+03  0.86823365117E+03  0.40000000000E+03 0.  1.
<mgrwt>
<rscale>  2 0.51002945E+03</rscale>
<asrwt>0</asrwt>
<pdfrwt beam="1">  1       21 0.15682590E+00 0.51002945E+03</pdfrwt>
<pdfrwt beam="2">  1       21 0.55506866E-01 0.51002945E+03</pdfrwt>
<totfact> 0.66313733E+02</totfact>
</mgrwt>
</event>
<event>
 4    1  0.4690138E-002  0.4776366E+03  0.7818608E-02  0.1019787E+00
         21   -1    0    0  501  502  0.00000000000E+00  0.00000000000E+00  0.86550503301E+03  0.86550503301E+03  0.00000000000E+00 0. -1.
         21   -1    0    0  502  503 -0.00000000000E+00 -0.00000000000E+00 -0.29480197920E+03  0.29480197920E+03  0.00000000000E+00 0.  1.
    9000007    1    1    2  501    0  0.24318854850E+03  0.94847510926E+02  0.47412999360E+03  0.67300517924E+03  0.40000000000E+03 0.  1.
   -9000007    1    1    2    0  503 -0.24318854850E+03 -0.94847510926E+02  0.96573060214E+02  0.48730183296E+03  0.40000000000E+03 0.  1.
<mgrwt>
<rscale>  2 0.47763660E+03</rscale>
<asrwt>0</asrwt>
<pdfrwt beam="1">  1       21 0.13315462E+00 0.47763660E+03</pdfrwt>
<pdfrwt beam="2">  1       21 0.45354151E-01 0.47763660E+03</pdfrwt>
<totfact> 0.16052492E+03</totfact>
</mgrwt>
</event>
<event>
 4    1  0.4690138E-002  0.4375256E+03  0.7818608E-02  0.1031509E+00
         21   -1    0    0  501  502  0.00000000000E+00  0.00000000000E+00  0.30822716847E+03  0.30822716847E+03  0.00000000000E+00 0.  1.
         21   -1    0    0  502  503 -0.00000000000E+00 -0.00000000000E+00 -0.69353575276E+03  0.69353575276E+03  0.00000000000E+00 0.  1.
    9000007    1    1    2  501    0  0.15815611616E+03 -0.80095760590E+02 -0.30739702343E+02  0.43860416920E+03  0.40000000000E+03 0.  1.
   -9000007    1    1    2    0  503 -0.15815611616E+03  0.80095760590E+02 -0.35456888194E+03  0.56315875203E+03  0.40000000000E+03 0.  1.
<mgrwt>
<rscale>  2 0.43752564E+03</rscale>
<asrwt>0</asrwt>
<pdfrwt beam="1">  1       21 0.47419565E-01 0.43752564E+03</pdfrwt>
<pdfrwt beam="2">  1       21 0.10669781E+00 0.43752564E+03</pdfrwt>
<totfact> 0.26026104E+03</totfact>
</mgrwt>
</event>
<event>
 4    1  0.4690138E-002  0.4038892E+03  0.7818608E-02  0.1042441E+00
         21   -1    0    0  503  502  0.00000000000E+00  0.00000000000E+00  0.88693652978E+03  0.88693652978E+03  0.00000000000E+00 0. -1.
         21   -1    0    0  501  503 -0.00000000000E+00 -0.00000000000E+00 -0.44263981688E+03  0.44263981688E+03  0.00000000000E+00 0. -1.
    9000007    1    1    2  501    0 -0.46405117722E+02  0.31193400419E+02 -0.28609517008E+03  0.49495142138E+03  0.40000000000E+03 0. -1.
   -9000007    1    1    2    0  502  0.46405117722E+02 -0.31193400419E+02  0.73039188298E+03  0.83462492528E+03  0.40000000000E+03 0. -1.
<mgrwt>
<rscale>  2 0.40388917E+03</rscale>
<asrwt>0</asrwt>
<pdfrwt beam="1">  1       21 0.13645177E+00 0.40388917E+03</pdfrwt>
<pdfrwt beam="2">  1       21 0.68098434E-01 0.40388917E+03</pdfrwt>
<totfact> 0.64512304E+02</totfact>
</mgrwt>
</event>
<event>
 4    1  0.4690138E-002  0.4407022E+03  0.7818608E-02  0.1030532E+00
         21   -1    0    0  503  502  0.00000000000E+00  0.00000000000E+00  0.31056201897E+03  0.31056201897E+03  0.00000000000E+00 0. -1.
         21   -1    0    0  501  503 -0.00000000000E+00 -0.00000000000E+00 -0.69914629858E+03  0.69914629858E+03  0.00000000000E+00 0. -1.
    9000007    1    1    2  501    0 -0.17177727045E+03 -0.68636802506E+02 -0.35828268475E+03  0.56796560063E+03  0.40000000000E+03 0.  1.
   -9000007    1    1    2    0  502  0.17177727045E+03  0.68636802506E+02 -0.30301594865E+02  0.44174271692E+03  0.40000000000E+03 0.  1.
<mgrwt>
<rscale>  2 0.44070221E+03</rscale>
<asrwt>0</asrwt>
<pdfrwt beam="1">  1       21 0.47778773E-01 0.44070221E+03</pdfrwt>
<pdfrwt beam="2">  1       21 0.10756097E+00 0.44070221E+03</pdfrwt>
<totfact> 0.25080424E+03</totfact>
</mgrwt>
</event>
<event>
 4    1  0.4690138E-002  0.4768995E+03  0.7818608E-02  0.1019991E+00
         21   -1    0    0  501  502  0.00000000000E+00  0.00000000000E+00  0.41731368455E+03  0.41731368455E+03  0.00000000000E+00 0.  1.
         21   -1    0    0  502  503 -0.00000000000E+00 -0.00000000000E+00 -0.74621163914E+03  0.74621163914E+03  0.00000000000E+00 0.  1.
    9000007    1    1    2  501    0 -0.22687290078E+03  0.12633996239E+03  0.13764966785E+03  0.49636733400E+03  0.40000000000E+03 0.  1.
   -9000007    1    1    2    0  503  0.22687290078E+03 -0.12633996239E+03 -0.46654762244E+03  0.66715798969E+03  0.40000000000E+03 0.  1.
<mgrwt>
<rscale>  2 0.47689946E+03</rscale>
<asrwt>0</asrwt>
<pdfrwt beam="1">  1       21 0.64202106E-01 0.47689946E+03</pdfrwt>
<pdfrwt beam="2">  1       21 0.11480179E+00 0.47689946E+03</pdfrwt>
<totfact> 0.11099067E+03</totfact>
</mgrwt>
</event>
<event>
 4    1  0.4690138E-002  0.6156592E+03  0.7818608E-02  0.9873440E-01
         21   -1    0    0  501  502  0.00000000000E+00  0.00000000000E+00  0.38728091031E+03  0.38728091031E+03  0.00000000000E+00 0. -1.
         21   -1    0    0  502  503 -0.00000000000E+00 -0.00000000000E+00 -0.10097850680E+04  0.10097850680E+04  0.00000000000E+00 0. -1.
    9000007    1    1    2  501    0 -0.41113089458E+03 -0.22362396854E+03 -0.43378923873E+03  0.75313305294E+03  0.40000000000E+03 0. -1.
   -9000007    1    1    2    0  503  0.41113089458E+03  0.22362396854E+03 -0.18871491900E+03  0.64393292542E+03  0.40000000000E+03 0. -1.
<mgrwt>
<rscale>  2 0.61565923E+03</rscale>
<asrwt>0</asrwt>
<pdfrwt beam="1">  1       21 0.59581678E-01 0.61565923E+03</pdfrwt>
<pdfrwt beam="2">  1       21 0.15535155E+00 0.61565923E+03</pdfrwt>
<totfact> 0.56145210E+02</totfact>
</mgrwt>
</event>
<event>
 4    1  0.4690138E-002  0.4878566E+03  0.7818608E-02  0.1016998E+00
         21   -1    0    0  501  502  0.00000000000E+00  0.00000000000E+00  0.91897444123E+03  0.91897444123E+03  0.00000000000E+00 0. -1.
         21   -1    0    0  502  503 -0.00000000000E+00 -0.00000000000E+00 -0.28106339667E+03  0.28106339667E+03  0.00000000000E+00 0. -1.
    9000007    1    1    2  501    0  0.27594085722E+03  0.43135775957E+02  0.48711043966E+03  0.68940599960E+03  0.40000000000E+03 0. -1.
   -9000007    1    1    2    0  503 -0.27594085722E+03 -0.43135775957E+02  0.15080060490E+03  0.51063183830E+03  0.40000000000E+03 0. -1.
<mgrwt>
<rscale>  2 0.48785659E+03</rscale>
<asrwt>0</asrwt>
<pdfrwt beam="1">  1       21 0.14138068E+00 0.48785659E+03</pdfrwt>
<pdfrwt beam="2">  1       21 0.43240523E-01 0.48785659E+03</pdfrwt>
<totfact> 0.15079340E+03</totfact>
</mgrwt>
</event>
<event>
 4    1  0.4690138E-002  0.4148478E+03  0.7818608E-02  0.1038756E+00
         21   -1    0    0  503  502  0.00000000000E+00  0.00000000000E+00  0.61381722632E+03  0.61381722632E+03  0.00000000000E+00 0.  1.
         21   -1    0    0  501  503 -0.00000000000E+00 -0.00000000000E+00 -0.37543017172E+03  0.37543017172E+03  0.00000000000E+00 0.  1.
    9000007    1    1    2  501    0 -0.17973379133E+02  0.10851570065E+03 -0.12969182980E+03  0.43464775435E+03  0.40000000000E+03 0.  1.
   -9000007    1    1    2    0  502  0.17973379133E+02 -0.10851570065E+03  0.36807888440E+03  0.55459964369E+03  0.40000000000E+03 0.  1.
<mgrwt>
<rscale>  2 0.41484780E+03</rscale>
<asrwt>0</asrwt>
<pdfrwt beam="1">  1       21 0.94433419E-01 0.41484780E+03</pdfrwt>
<pdfrwt beam="2">  1       21 0.57758488E-01 0.41484780E+03</pdfrwt>
<totfact> 0.23159556E+03</totfact>
</mgrwt>
</event>
<event>
 4    1  0.4690138E-002  0.4719524E+03  0.7818608E-02  0.1021371E+00
         21   -1    0    0  503  502  0.00000000000E+00  0.00000000000E+00  0.88937586453E+03  0.88937586453E+03  0.00000000000E+00 0.  1.
         21   -1    0    0  501  503 -0.00000000000E+00 -0.00000000000E+00 -0.94658091259E+03  0.94658091259E+03  0.00000000000E+00 0. -1.
    9000007    1    1    2  501    0  0.24324954742E+03  0.59739189202E+02 -0.81583105284E+03  0.94250698661E+03  0.40000000000E+03 0. -1.
   -9000007    1    1    2    0  502 -0.24324954742E+03 -0.59739189202E+02  0.75862600477E+03  0.89344979051E+03  0.40000000000E+03 0.  1.
<mgrwt>
<rscale>  2 0.47195245E+03</rscale>
<asrwt>0</asrwt>
<pdfrwt beam="1">  1       21 0.13682706E+00 0.47195245E+03</pdfrwt>
<pdfrwt beam="2">  1       21 0.14562783E+00 0.47195245E+03</pdfrwt>
<totfact> 0.97121855E+01</totfact>
</mgrwt>
</event>
<event>
 4    1  0.4690138E-002  0.4284892E+03  0.7818608E-02  0.1034338E+00
         21   -1    0    0  501  502  0.00000000000E+00  0.00000000000E+00  0.66213996703E+03  0.66213996703E+03  0.00000000000E+00 0. -1.
         21   -1    0    0  502  503 -0.00000000000E+00 -0.00000000000E+00 -0.51535766259E+03  0.51535766259E+03  0.00000000000E+00 0. -1.
    9000007    1    1    2  501    0 -0.61765266340E+02  0.14066988015E+03  0.47354629180E+03  0.63863060824E+03  0.40000000000E+03 0. -1.
   -9000007    1    1    2    0  503  0.61765266340E+02 -0.14066988015E+03 -0.32676398735E+03  0.53886702139E+03  0.40000000000E+03 0. -1.
<mgrwt>
<rscale>  2 0.42848916E+03</rscale>
<asrwt>0</asrwt>
<pdfrwt beam="1">  1       21 0.10186769E+00 0.42848916E+03</pdfrwt>
<pdfrwt beam="2">  1       21 0.79285794E-01 0.42848916E+03</pdfrwt>
<totfact> 0.94449772E+02</totfact>
</mgrwt>
</event>
<event>
 4    1  0.4690138E-002  0.5463024E+03  0.7818608E-02  0.1002353E+00
         21   -1    0    0  503  502  0.00000000000E+00  0.00000000000E+00  0.74480587166E+03  0.74480587166E+03  0.00000000000E+00 0.  1.
         21   -1    0    0  501  503 -0.00000000000E+00 -0.00000000000E+00 -0.43011734140E+03  0.43011734140E+03  0.00000000000E+00 0.  1.
    9000007    1    1    2  501    0 -0.71906686098E+02  0.36506944176E+03  0.31096943947E+03  0.62860819363E+03  0.40000000000E+03 0.  1.
   -9000007    1    1    2    0  502  0.71906686098E+02 -0.36506944176E+03  0.37190907880E+01  0.54631501943E+03  0.40000000000E+03 0.  1.
<mgrwt>
<rscale>  2 0.54630236E+03</rscale>
<asrwt>0</asrwt>
<pdfrwt beam="1">  1       21 0.11458552E+00 0.54630236E+03</pdfrwt>
<pdfrwt beam="2">  1       21 0.66171899E-01 0.54630236E+03</pdfrwt>
<totfact> 0.10168426E+03</totfact>
</mgrwt>
</event>
<event>
 4    1  0.4690138E-002  0.4239761E+03  0.7818608E-02  0.1035780E+00
         21   -1    0    0  503  502  0.00000000000E+00  0.00000000000E+00  0.18786252694E+03  0.18786252694E+03  0.00000000000E+00 0.  1.
         21   -1    0    0  501  503 -0.00000000000E+00 -0.00000000000E+00 -0.19925521683E+04  0.19925521683E+04  0.00000000000E+00 0.  1.
    9000007    1    1    2  501    0 -0.11083542904E+02  0.14011730035E+03 -0.16883444075E+04  0.17407649298E+04  0.40000000000E+03 0.  1.
   -9000007    1    1    2    0  502  0.11083542904E+02 -0.14011730035E+03 -0.11634523393E+03  0.43964976543E+03  0.40000000000E+03 0.  1.
<mgrwt>
<rscale>  2 0.42397606E+03</rscale>
<asrwt>0</asrwt>
<pdfrwt beam="1">  1       21 0.28901925E-01 0.42397606E+03</pdfrwt>
<pdfrwt beam="2">  1       21 0.30654651E+00 0.42397606E+03</pdfrwt>
<totfact> 0.28674904E+02</totfact>
</mgrwt>
</event>
<event>
 4    1  0.4690138E-002  0.5310667E+03  0.7818608E-02  0.1005974E+00
         21   -1    0    0  503  502  0.00000000000E+00  0.00000000000E+00  0.13968199258E+04  0.13968199258E+04  0.00000000000E+00 0. -1.
         21   -1    0    0  501  503 -0.00000000000E+00 -0.00000000000E+00 -0.20192741415E+03  0.20192741415E+03  0.00000000000E+00 0. -1.
    9000007    1    1    2  501    0  0.15929641354E+03 -0.31089630735E+03  0.59001523203E+03  0.79381977508E+03  0.40000000000E+03 0.  1.
   -9000007    1    1    2    0  502 -0.15929641354E+03  0.31089630735E+03  0.60487727966E+03  0.80492756490E+03  0.40000000000E+03 0.  1.
<mgrwt>
<rscale>  2 0.53106672E+03</rscale>
<asrwt>0</asrwt>
<pdfrwt beam="1">  1       21 0.21489537E+00 0.53106672E+03</pdfrwt>
<pdfrwt beam="2">  1       21 0.31065757E-01 0.53106672E+03</pdfrwt>
<totfact> 0.86164464E+02</totfact>
</mgrwt>
</event>
<event>
 4    1  0.4690138E-002  0.4640859E+03  0.7818608E-02  0.1023603E+00
         21   -1    0    0  503  502  0.00000000000E+00  0.00000000000E+00  0.24779970044E+03  0.24779970044E+03  0.00000000000E+00 0. -1.
         21   -1    0    0  501  503 -0.00000000000E+00 -0.00000000000E+00 -0.88944274703E+03  0.88944274703E+03  0.00000000000E+00 0.  1.
    9000007    1    1    2  501    0  0.22691301822E+03  0.62339353704E+02 -0.23493827996E+03  0.52016507788E+03  0.40000000000E+03 0. -1.
   -9000007    1    1    2    0  502 -0.22691301822E+03 -0.62339353704E+02 -0.40670476664E+03  0.61707736959E+03  0.40000000000E+03 0.  1.
<mgrwt>
<rscale>  2 0.46408589E+03</rscale>
<asrwt>0</asrwt>
<pdfrwt beam="1">  1       21 0.38123031E-01 0.46408589E+03</pdfrwt>
<pdfrwt beam="2">  1       21 0.13683735E+00 0.46408589E+03</pdfrwt>
<totfact> 0.21533131E+03</totfact>
</mgrwt>
</event>
<event>
 4    1  0.4690138E-002  0.4247453E+03  0.7818608E-02  0.1035533E+00
         21   -1    0    0  501  502  0.00000000000E+00  0.00000000000E+00  0.47388736693E+03  0.47388736693E+03  0.00000000000E+00 0.  1.
         21   -1    0    0  502  503 -0.00000000000E+00 -0.00000000000E+00 -0.38631536132E+03  0.38631536132E+03  0.00000000000E+00 0.  1.
    9000007    1    1    2  501    0 -0.13217989445E+03 -0.54194220989E+02 -0.80724905720E+01  0.42482196646E+03  0.40000000000E+03 0. -1.
   -9000007    1    1    2    0  503  0.13217989445E+03  0.54194220989E+02  0.95644496177E+02  0.43538076179E+03  0.40000000000E+03 0. -1.
<mgrwt>
<rscale>  2 0.42474526E+03</rscale>
<asrwt>0</asrwt>
<pdfrwt beam="1">  1       21 0.72905749E-01 0.42474526E+03</pdfrwt>
<pdfrwt beam="2">  1       21 0.59433133E-01 0.42474526E+03</pdfrwt>
<totfact> 0.39563492E+03</totfact>
</mgrwt>
</event>
<event>
 4    1  0.4690138E-002  0.4106267E+03  0.7818608E-02  0.1040161E+00
         21   -1    0    0  503  502  0.00000000000E+00  0.00000000000E+00  0.37948779925E+03  0.37948779925E+03  0.00000000000E+00 0. -1.
         21   -1    0    0  501  503 -0.00000000000E+00 -0.00000000000E+00 -0.53977217469E+03  0.53977217469E+03  0.00000000000E+00 0. -1.
    9000007    1    1    2  501    0  0.45526311610E+01  0.92701252998E+02  0.11314125148E+03  0.42592862259E+03  0.40000000000E+03 0. -1.
   -9000007    1    1    2    0  502 -0.45526311610E+01 -0.92701252998E+02 -0.27342562693E+03  0.49333135134E+03  0.40000000000E+03 0. -1.
<mgrwt>
<rscale>  2 0.41062665E+03</rscale>
<asrwt>0</asrwt>
<pdfrwt beam="1">  1       21 0.58382739E-01 0.41062665E+03</pdfrwt>
<pdfrwt beam="2">  1       21 0.83041872E-01 0.41062665E+03</pdfrwt>
<totfact> 0.30675602E+03</totfact>
</mgrwt>
</event>
<event>
 4    1  0.4690138E-002  0.4071828E+03  0.7818608E-02  0.1041321E+00
         21   -1    0    0  503  502  0.00000000000E+00  0.00000000000E+00  0.41633103562E+03  0.41633103562E+03  0.00000000000E+00 0. -1.
         21   -1    0    0  501  503 -0.00000000000E+00 -0.00000000000E+00 -0.54261897586E+03  0.54261897586E+03  0.00000000000E+00 0. -1.
    9000007    1    1    2  501    0  0.72687962446E+02  0.22678856247E+02 -0.31047406816E+03  0.51204688985E+03  0.40000000000E+03 0. -1.
   -9000007    1    1    2    0  502 -0.72687962446E+02 -0.22678856247E+02  0.18418612792E+03  0.44690312163E+03  0.40000000000E+03 0. -1.
<mgrwt>
<rscale>  2 0.40718285E+03</rscale>
<asrwt>0</asrwt>
<pdfrwt beam="1">  1       21 0.64050929E-01 0.40718285E+03</pdfrwt>
<pdfrwt beam="2">  1       21 0.83479842E-01 0.40718285E+03</pdfrwt>
<totfact> 0.24761744E+03</totfact>
</mgrwt>
</event>
<event>
 4    1  0.4690138E-002  0.4541388E+03  0.7818608E-02  0.1026495E+00
         21   -1    0    0  503  502  0.00000000000E+00  0.00000000000E+00  0.66729776683E+03  0.66729776683E+03  0.00000000000E+00 0.  1.
         21   -1    0    0  501  503 -0.00000000000E+00 -0.00000000000E+00 -0.35396870215E+03  0.35396870215E+03  0.00000000000E+00 0.  1.
    9000007    1    1    2  501    0  0.65128560554E+02  0.20493982293E+03  0.33852616171E+03  0.56642918585E+03  0.40000000000E+03 0. -1.
   -9000007    1    1    2    0  502 -0.65128560554E+02 -0.20493982293E+03 -0.25197097030E+02  0.45483728312E+03  0.40000000000E+03 0. -1.
<mgrwt>
<rscale>  2 0.45413881E+03</rscale>
<asrwt>0</asrwt>
<pdfrwt beam="1">  1       21 0.10266119E+00 0.45413881E+03</pdfrwt>
<pdfrwt beam="2">  1       21 0.54456723E-01 0.45413881E+03</pdfrwt>
<totfact> 0.21171951E+03</totfact>
</mgrwt>
</event>
<event>
 4    1  0.4690138E-002  0.4093298E+03  0.7818608E-02  0.1040596E+00
         21   -1    0    0  503  502  0.00000000000E+00  0.00000000000E+00  0.97132455034E+03  0.97132455034E+03  0.00000000000E+00 0.  1.
         21   -1    0    0  501  503 -0.00000000000E+00 -0.00000000000E+00 -0.29634446037E+03  0.29634446037E+03  0.00000000000E+00 0.  1.
    9000007    1    1    2  501    0 -0.36563270628E+02 -0.78829231656E+02 -0.72261305003E+02  0.41565925555E+03  0.40000000000E+03 0.  1.
   -9000007    1    1    2    0  502  0.36563270628E+02  0.78829231656E+02  0.74724139497E+03  0.85200975516E+03  0.40000000000E+03 0.  1.
<mgrwt>
<rscale>  2 0.40932984E+03</rscale>
<asrwt>0</asrwt>
<pdfrwt beam="1">  1       21 0.14943455E+00 0.40932984E+03</pdfrwt>
<pdfrwt beam="2">  1       21 0.45591456E-01 0.40932984E+03</pdfrwt>
<totfact> 0.12015847E+03</totfact>
</mgrwt>
</event>
<event>
 4    1  0.4690138E-002  0.4184812E+03  0.7818608E-02  0.1037562E+00
         21   -1    0    0  503  502  0.00000000000E+00  0.00000000000E+00  0.26676053333E+03  0.26676053333E+03  0.00000000000E+00 0.  1.
         21   -1    0    0  501  503 -0.00000000000E+00 -0.00000000000E+00 -0.74529156582E+03  0.74529156582E+03  0.00000000000E+00 0.  1.
    9000007    1    1    2  501    0 -0.21752900161E+02  0.12105098525E+03 -0.41393288061E+03  0.58861444031E+03  0.40000000000E+03 0.  1.
   -9000007    1    1    2    0  502  0.21752900161E+02 -0.12105098525E+03 -0.64598151885E+02  0.42343765884E+03  0.40000000000E+03 0.  1.
<mgrwt>
<rscale>  2 0.41848122E+03</rscale>
<asrwt>0</asrwt>
<pdfrwt beam="1">  1       21 0.41040082E-01 0.41848122E+03</pdfrwt>
<pdfrwt beam="2">  1       21 0.11466024E+00 0.41848122E+03</pdfrwt>
<totfact> 0.29647269E+03</totfact>
</mgrwt>
</event>
<event>
 4    1  0.4690138E-002  0.4009303E+03  0.7818608E-02  0.1043458E+00
         21   -1    0    0  503  502  0.00000000000E+00  0.00000000000E+00  0.42473230452E+03  0.42473230452E+03  0.00000000000E+00 0.  1.
         21   -1    0    0  501  503 -0.00000000000E+00 -0.00000000000E+00 -0.59707002455E+03  0.59707002455E+03  0.00000000000E+00 0.  1.
    9000007    1    1    2  501    0 -0.27112700248E+02 -0.31602802184E+01 -0.39531027827E+03  0.56304111928E+03  0.40000000000E+03 0.  1.
   -9000007    1    1    2    0  502  0.27112700248E+02  0.31602802184E+01  0.22297255824E+03  0.45876120980E+03  0.40000000000E+03 0.  1.
<mgrwt>
<rscale>  2 0.40093028E+03</rscale>
<asrwt>0</asrwt>
<pdfrwt beam="1">  1       21 0.65343431E-01 0.40093028E+03</pdfrwt>
<pdfrwt beam="2">  1       21 0.91856927E-01 0.40093028E+03</pdfrwt>
<totfact> 0.18974907E+03</totfact>
</mgrwt>
</event>
<event>
 4    1  0.4690138E-002  0.4852467E+03  0.7818608E-02  0.1017703E+00
         21   -1    0    0  501  502  0.00000000000E+00  0.00000000000E+00  0.61147247862E+03  0.61147247862E+03  0.00000000000E+00 0. -1.
         21   -1    0    0  502  503 -0.00000000000E+00 -0.00000000000E+00 -0.43860026436E+03  0.43860026436E+03  0.00000000000E+00 0. -1.
    9000007    1    1    2  501    0 -0.27254708451E+03  0.34387244783E+02  0.26984632774E+03  0.55523097579E+03  0.40000000000E+03 0. -1.
   -9000007    1    1    2    0  503  0.27254708451E+03 -0.34387244783E+02 -0.96974113478E+02  0.49484176720E+03  0.40000000000E+03 0. -1.
<mgrwt>
<rscale>  2 0.48524674E+03</rscale>
<asrwt>0</asrwt>
<pdfrwt beam="1">  1       21 0.94072690E-01 0.48524674E+03</pdfrwt>
<pdfrwt beam="2">  1       21 0.67476963E-01 0.48524674E+03</pdfrwt>
<totfact> 0.16146113E+03</totfact>
</mgrwt>
</event>
<event>
 4    1  0.4690138E-002  0.5039653E+03  0.7818608E-02  0.1012749E+00
         21   -1    0    0  501  502  0.00000000000E+00  0.00000000000E+00  0.77436308043E+03  0.77436308043E+03  0.00000000000E+00 0. -1.
         21   -1    0    0  502  503 -0.00000000000E+00 -0.00000000000E+00 -0.33144452045E+03  0.33144452045E+03  0.00000000000E+00 0. -1.
    9000007    1    1    2  501    0 -0.77833183933E+02  0.29651817469E+03  0.27793032438E+03  0.57552263001E+03  0.40000000000E+03 0. -1.
   -9000007    1    1    2    0  503  0.77833183933E+02 -0.29651817469E+03  0.16498823560E+03  0.53028497087E+03  0.40000000000E+03 0. -1.
<mgrwt>
<rscale>  2 0.50396531E+03</rscale>
<asrwt>0</asrwt>
<pdfrwt beam="1">  1       21 0.11913278E+00 0.50396531E+03</pdfrwt>
<pdfrwt beam="2">  1       21 0.50991465E-01 0.50396531E+03</pdfrwt>
<totfact> 0.16534956E+03</totfact>
</mgrwt>
</event>
<event>
 4    1  0.4690138E-002  0.5248472E+03  0.7818608E-02  0.1007489E+00
         21   -1    0    0  501  502  0.00000000000E+00  0.00000000000E+00  0.92600763024E+03  0.92600763024E+03  0.00000000000E+00 0.  1.
         21   -1    0    0  502  503 -0.00000000000E+00 -0.00000000000E+00 -0.67031626810E+03  0.67031626810E+03  0.00000000000E+00 0.  1.
    9000007    1    1    2  501    0 -0.64077178420E+02 -0.33370455425E+03  0.72311406557E+03  0.89350913042E+03  0.40000000000E+03 0.  1.
   -9000007    1    1    2    0  503  0.64077178420E+02  0.33370455425E+03 -0.46742270343E+03  0.70281476792E+03  0.40000000000E+03 0.  1.
<mgrwt>
<rscale>  2 0.52484723E+03</rscale>
<asrwt>0</asrwt>
<pdfrwt beam="1">  1       21 0.14246271E+00 0.52484723E+03</pdfrwt>
<pdfrwt beam="2">  1       21 0.10312558E+00 0.52484723E+03</pdfrwt>
<totfact> 0.20613563E+02</totfact>
</mgrwt>
</event>
<event>
 4    1  0.4690138E-002  0.4249330E+03  0.7818608E-02  0.1035473E+00
         21   -1    0    0  503  502  0.00000000000E+00  0.00000000000E+00  0.14222648303E+04  0.14222648303E+04  0.00000000000E+00 0. -1.
         21   -1    0    0  501  503 -0.00000000000E+00 -0.00000000000E+00 -0.13737287579E+03  0.13737287579E+03  0.00000000000E+00 0. -1.
    9000007    1    1    2  501    0  0.10317406216E+03 -0.99615123726E+02  0.42772824422E+03  0.60292579218E+03  0.40000000000E+03 0. -1.
   -9000007    1    1    2    0  502 -0.10317406216E+03  0.99615123726E+02  0.85716371029E+03  0.95671191391E+03  0.40000000000E+03 0. -1.
<mgrwt>
<rscale>  2 0.42493301E+03</rscale>
<asrwt>0</asrwt>
<pdfrwt beam="1">  1       21 0.21880996E+00 0.42493301E+03</pdfrwt>
<pdfrwt beam="2">  1       21 0.21134290E-01 0.42493301E+03</pdfrwt>
<totfact> 0.18073637E+03</totfact>
</mgrwt>
</event>
<event>
 4    1  0.4690138E-002  0.4091093E+03  0.7818608E-02  0.1040670E+00
         21   -1    0    0  501  502  0.00000000000E+00  0.00000000000E+00  0.23929775258E+03  0.23929775258E+03  0.00000000000E+00 0.  1.
         21   -1    0    0  502  503 -0.00000000000E+00 -0.00000000000E+00 -0.14275497053E+04  0.14275497053E+04  0.00000000000E+00 0.  1.
    9000007    1    1    2  501    0  0.44817664463E+02 -0.73224058788E+02  0.10887666118E+01  0.40911070781E+03  0.40000000000E+03 0.  1.
   -9000007    1    1    2    0  503 -0.44817664463E+02  0.73224058788E+02 -0.11893407194E+04  0.12577367501E+04  0.40000000000E+03 0.  1.
<mgrwt>
<rscale>  2 0.40910926E+03</rscale>
<asrwt>0</asrwt>
<pdfrwt beam="1">  1       21 0.36815039E-01 0.40910926E+03</pdfrwt>
<pdfrwt beam="2">  1       21 0.21962303E+00 0.40910926E+03</pdfrwt>
<totfact> 0.60373225E+02</totfact>
</mgrwt>
</event>
<event>
 4    1  0.4690138E-002  0.4350830E+03  0.7818608E-02  0.1032266E+00
         21   -1    0    0  503  502  0.00000000000E+00  0.00000000000E+00  0.86019598136E+03  0.86019598136E+03  0.00000000000E+00 0.  1.
         21   -1    0    0  501  503 -0.00000000000E+00 -0.00000000000E+00 -0.62309796791E+03  0.62309796791E+03  0.00000000000E+00 0.  1.
    9000007    1    1    2  501    0 -0.77995497014E+02 -0.15236125288E+03 -0.47792354475E+03  0.64630346089E+03  0.40000000000E+03 0.  1.
   -9000007    1    1    2    0  502  0.77995497014E+02  0.15236125288E+03  0.71502155820E+03  0.83699048838E+03  0.40000000000E+03 0.  1.
<mgrwt>
<rscale>  2 0.43508304E+03</rscale>
<asrwt>0</asrwt>
<pdfrwt beam="1">  1       21 0.13233784E+00 0.43508304E+03</pdfrwt>
<pdfrwt beam="2">  1       21 0.95861225E-01 0.43508304E+03</pdfrwt>
<totfact> 0.31192511E+02</totfact>
</mgrwt>
</event>
<event>
 4    1  0.4690138E-002  0.4832815E+03  0.7818608E-02  0.1018237E+00
         21   -1    0    0  501  502  0.00000000000E+00  0.00000000000E+00  0.48054453853E+03  0.48054453853E+03  0.00000000000E+00 0. -1.
         21   -1    0    0  502  503 -0.00000000000E+00 -0.00000000000E+00 -0.50807348533E+03  0.50807348533E+03  0.00000000000E+00 0.  1.
    9000007    1    1    2  501    0  0.22011586463E+03  0.15846135538E+03 -0.11671670532E+03  0.49717580825E+03  0.40000000000E+03 0.  1.
   -9000007    1    1    2    0  503 -0.22011586463E+03 -0.15846135538E+03  0.89187758518E+02  0.49144221561E+03  0.40000000000E+03 0. -1.
<mgrwt>
<rscale>  2 0.48328149E+03</rscale>
<asrwt>0</asrwt>
<pdfrwt beam="1">  1       21 0.73929929E-01 0.48328149E+03</pdfrwt>
<pdfrwt beam="2">  1       21 0.78165151E-01 0.48328149E+03</pdfrwt>
<totfact> 0.20310004E+03</totfact>
</mgrwt>
</event>
<event>
 4    1  0.4690138E-002  0.4039779E+03  0.7818608E-02  0.1042411E+00
         21   -1    0    0  501  502  0.00000000000E+00  0.00000000000E+00  0.33774872911E+03  0.33774872911E+03  0.00000000000E+00 0.  1.
         21   -1    0    0  502  503 -0.00000000000E+00 -0.00000000000E+00 -0.11312974261E+04  0.11312974261E+04  0.00000000000E+00 0.  1.
    9000007    1    1    2  501    0  0.56061813897E+02 -0.74300944238E+01  0.15918012645E+03  0.43420783726E+03  0.40000000000E+03 0.  1.
   -9000007    1    1    2    0  503 -0.56061813897E+02  0.74300944238E+01 -0.95272882341E+03  0.10348383179E+04  0.40000000000E+03 0.  1.
<mgrwt>
<rscale>  2 0.40397789E+03</rscale>
<asrwt>0</asrwt>
<pdfrwt beam="1">  1       21 0.51961343E-01 0.40397789E+03</pdfrwt>
<pdfrwt beam="2">  1       21 0.17404576E+00 0.40397789E+03</pdfrwt>
<totfact> 0.59789764E+02</totfact>
</mgrwt>
</event>
<event>
 4    1  0.4690138E-002  0.4178346E+03  0.7818608E-02  0.1037773E+00
         21   -1    0    0  503  502  0.00000000000E+00  0.00000000000E+00  0.52238290397E+03  0.52238290397E+03  0.00000000000E+00 0.  1.
         21   -1    0    0  501  503 -0.00000000000E+00 -0.00000000000E+00 -0.39044132770E+03  0.39044132770E+03  0.00000000000E+00 0.  1.
    9000007    1    1    2  501    0 -0.12063626435E+03 -0.57149050002E+01 -0.10723688469E+03  0.43137630655E+03  0.40000000000E+03 0.  1.
   -9000007    1    1    2    0  502  0.12063626435E+03  0.57149050002E+01  0.23917846095E+03  0.48144792512E+03  0.40000000000E+03 0.  1.
<mgrwt>
<rscale>  2 0.41783462E+03</rscale>
<asrwt>0</asrwt>
<pdfrwt beam="1">  1       21 0.80366601E-01 0.41783462E+03</pdfrwt>
<pdfrwt beam="2">  1       21 0.60067896E-01 0.41783462E+03</pdfrwt>
<totfact> 0.31013364E+03</totfact>
</mgrwt>
</event>
<event>
 4    1  0.4690138E-002  0.4030196E+03  0.7818608E-02  0.1042739E+00
         21   -1    0    0  501  502  0.00000000000E+00  0.00000000000E+00  0.47319965013E+03  0.47319965013E+03  0.00000000000E+00 0. -1.
         21   -1    0    0  502  503 -0.00000000000E+00 -0.00000000000E+00 -0.41341584660E+03  0.41341584660E+03  0.00000000000E+00 0. -1.
    9000007    1    1    2  501    0 -0.33934714921E+02 -0.35682663211E+02  0.21252561223E+03  0.45562259951E+03  0.40000000000E+03 0. -1.
   -9000007    1    1    2    0  503  0.33934714921E+02  0.35682663211E+02 -0.15274180870E+03  0.43099289722E+03  0.40000000000E+03 0. -1.
<mgrwt>
<rscale>  2 0.40301962E+03</rscale>
<asrwt>0</asrwt>
<pdfrwt beam="1">  1       21 0.72799946E-01 0.40301962E+03</pdfrwt>
<pdfrwt beam="2">  1       21 0.63602438E-01 0.40301962E+03</pdfrwt>
<totfact> 0.34480237E+03</totfact>
</mgrwt>
</event>
<event>
 4    1  0.4690138E-002  0.4539133E+03  0.7818608E-02  0.1026561E+00
         21   -1    0    0  503  502  0.00000000000E+00  0.00000000000E+00  0.10953217638E+04  0.10953217638E+04  0.00000000000E+00 0.  1.
         21   -1    0    0  501  503 -0.00000000000E+00 -0.00000000000E+00 -0.26849763940E+03  0.26849763940E+03  0.00000000000E+00 0.  1.
    9000007    1    1    2  501    0 -0.55786700120E+01  0.21449051323E+03  0.40281919167E+02  0.45569719643E+03  0.40000000000E+03 0.  1.
   -9000007    1    1    2    0  502  0.55786700120E+01 -0.21449051323E+03  0.78654220526E+03  0.90812220679E+03  0.40000000000E+03 0.  1.
<mgrwt>
<rscale>  2 0.45391332E+03</rscale>
<asrwt>0</asrwt>
<pdfrwt beam="1">  1       21 0.16851104E+00 0.45391332E+03</pdfrwt>
<pdfrwt beam="2">  1       21 0.41307330E-01 0.45391332E+03</pdfrwt>
<totfact> 0.10369635E+03</totfact>
</mgrwt>
</event>
<event>
 4    1  0.4690138E-002  0.5414642E+03  0.7818608E-02  0.1003489E+00
         21   -1    0    0  503  502  0.00000000000E+00  0.00000000000E+00  0.39506600204E+03  0.39506600204E+03  0.00000000000E+00 0.  1.
         21   -1    0    0  501  503 -0.00000000000E+00 -0.00000000000E+00 -0.11309495562E+04  0.11309495562E+04  0.00000000000E+00 0. -1.
    9000007    1    1    2  501    0 -0.24806401331E+03 -0.26767099447E+03  0.79453127814E+02  0.54726256541E+03  0.40000000000E+03 0.  1.
   -9000007    1    1    2    0  502  0.24806401331E+03  0.26767099447E+03 -0.81533668198E+03  0.97875299283E+03  0.40000000000E+03 0. -1.
<mgrwt>
<rscale>  2 0.54146423E+03</rscale>
<asrwt>0</asrwt>
<pdfrwt beam="1">  1       21 0.60779386E-01 0.54146423E+03</pdfrwt>
<pdfrwt beam="2">  1       21 0.17399224E+00 0.54146423E+03</pdfrwt>
<totfact> 0.40010871E+02</totfact>
</mgrwt>
</event>
<event>
 4    1  0.4690138E-002  0.7739806E+03  0.7818608E-02  0.9598462E-01
         21   -1    0    0  503  502  0.00000000000E+00  0.00000000000E+00  0.37917120820E+03  0.37917120820E+03  0.00000000000E+00 0. -1.
         21   -1    0    0  501  503 -0.00000000000E+00 -0.00000000000E+00 -0.16595900944E+04  0.16595900944E+04  0.00000000000E+00 0.  1.
    9000007    1    1    2  501    0  0.16118346403E+03 -0.64270205720E+03 -0.86361048520E+03  0.11596849199E+04  0.40000000000E+03 0.  1.
   -9000007    1    1    2    0  502 -0.16118346403E+03  0.64270205720E+03 -0.41680840102E+03  0.87907638267E+03  0.40000000000E+03 0. -1.
<mgrwt>
<rscale>  2 0.77398065E+03</rscale>
<asrwt>0</asrwt>
<pdfrwt beam="1">  1       21 0.58334032E-01 0.77398065E+03</pdfrwt>
<pdfrwt beam="2">  1       21 0.25532155E+00 0.77398065E+03</pdfrwt>
<totfact> 0.11652121E+02</totfact>
</mgrwt>
</event>
<event>
 4    1  0.4690138E-002  0.5135711E+03  0.7818608E-02  0.1010296E+00
         21   -1    0    0  501  502  0.00000000000E+00  0.00000000000E+00  0.10007780488E+04  0.10007780488E+04  0.00000000000E+00 0.  1.
         21   -1    0    0  502  503 -0.00000000000E+00 -0.00000000000E+00 -0.29566812148E+03  0.29566812148E+03  0.00000000000E+00 0. -1.
    9000007    1    1    2  501    0 -0.31919499607E+03 -0.43241492394E+02  0.56620149289E+03  0.76442095912E+03  0.40000000000E+03 0.  1.
   -9000007    1    1    2    0  503  0.31919499607E+03  0.43241492394E+02  0.13890843445E+03  0.53202521119E+03  0.40000000000E+03 0. -1.
<mgrwt>
<rscale>  2 0.51357110E+03</rscale>
<asrwt>0</asrwt>
<pdfrwt beam="1">  1       21 0.15396585E+00 0.51357110E+03</pdfrwt>
<pdfrwt beam="2">  1       21 0.45487404E-01 0.51357110E+03</pdfrwt>
<totfact> 0.10659139E+03</totfact>
</mgrwt>
</event>
<event>
 4    1  0.4690138E-002  0.5293195E+03  0.7818608E-02  0.1006397E+00
         21   -1    0    0  501  502  0.00000000000E+00  0.00000000000E+00  0.70251489867E+03  0.70251489867E+03  0.00000000000E+00 0.  1.
         21   -1    0    0  502  503 -0.00000000000E+00 -0.00000000000E+00 -0.42060941897E+03  0.42060941897E+03  0.00000000000E+00 0. -1.
    9000007    1    1    2  501    0 -0.33102175362E+03  0.10297467693E+03  0.26875838680E+03  0.59364152140E+03  0.40000000000E+03 0.  1.
   -9000007    1    1    2    0  503  0.33102175362E+03 -0.10297467693E+03  0.13147092899E+02  0.52948279624E+03  0.40000000000E+03 0. -1.
<mgrwt>
<rscale>  2 0.52931955E+03</rscale>
<asrwt>0</asrwt>
<pdfrwt beam="1">  1       21 0.10807922E+00 0.52931955E+03</pdfrwt>
<pdfrwt beam="2">  1       21 0.64709141E-01 0.52931955E+03</pdfrwt>
<totfact> 0.12441002E+03</totfact>
</mgrwt>
</event>
<event>
 4    1  0.4690138E-002  0.5904088E+03  0.7818608E-02  0.9925507E-01
         21   -1    0    0  503  502  0.00000000000E+00  0.00000000000E+00  0.12068982127E+04  0.12068982127E+04  0.00000000000E+00 0. -1.
         21   -1    0    0  501  503 -0.00000000000E+00 -0.00000000000E+00 -0.29535082800E+03  0.29535082800E+03  0.00000000000E+00 0. -1.
    9000007    1    1    2  501    0 -0.40403140843E+03 -0.15918915242E+03  0.56742284856E+03  0.81887194011E+03  0.40000000000E+03 0.  1.
   -9000007    1    1    2    0  502  0.40403140843E+03  0.15918915242E+03  0.34412453615E+03  0.68337710060E+03  0.40000000000E+03 0.  1.
<mgrwt>
<rscale>  2 0.59040881E+03</rscale>
<asrwt>0</asrwt>
<pdfrwt beam="1">  1       21 0.18567665E+00 0.59040881E+03</pdfrwt>
<pdfrwt beam="2">  1       21 0.45438590E-01 0.59040881E+03</pdfrwt>
<totfact> 0.60713379E+02</totfact>
</mgrwt>
</event>
<event>
 4    1  0.4690138E-002  0.4008428E+03  0.7818608E-02  0.1043488E+00
         21   -1    0    0  501  502  0.00000000000E+00  0.00000000000E+00  0.72262469190E+03  0.72262469190E+03  0.00000000000E+00 0. -1.
         21   -1    0    0  502  503 -0.00000000000E+00 -0.00000000000E+00 -0.33691656311E+03  0.33691656311E+03  0.00000000000E+00 0. -1.
    9000007    1    1    2  501    0  0.14682277607E+02  0.21433919952E+02  0.50178205407E+03  0.64223065326E+03  0.40000000000E+03 0. -1.
   -9000007    1    1    2    0  503 -0.14682277607E+02 -0.21433919952E+02 -0.11607392528E+03  0.41731060175E+03  0.40000000000E+03 0. -1.
<mgrwt>
<rscale>  2 0.40084284E+03</rscale>
<asrwt>0</asrwt>
<pdfrwt beam="1">  1       21 0.11117303E+00 0.40084284E+03</pdfrwt>
<pdfrwt beam="2">  1       21 0.51833317E-01 0.40084284E+03</pdfrwt>
<totfact> 0.19756943E+03</totfact>
</mgrwt>
</event>
<event>
 4    1  0.4690138E-002  0.4700880E+03  0.7818608E-02  0.1021895E+00
         21   -1    0    0  501  502  0.00000000000E+00  0.00000000000E+00  0.36903445299E+03  0.36903445299E+03  0.00000000000E+00 0. -1.
         21   -1    0    0  502  503 -0.00000000000E+00 -0.00000000000E+00 -0.86674653108E+03  0.86674653108E+03  0.00000000000E+00 0. -1.
    9000007    1    1    2  501    0  0.21511934294E+03  0.12126976979E+03  0.94685183246E+02  0.47952890705E+03  0.40000000000E+03 0. -1.
   -9000007    1    1    2    0  503 -0.21511934294E+03 -0.12126976979E+03 -0.59239726133E+03  0.75625207703E+03  0.40000000000E+03 0. -1.
<mgrwt>
<rscale>  2 0.47008796E+03</rscale>
<asrwt>0</asrwt>
<pdfrwt beam="1">  1       21 0.56774531E-01 0.47008796E+03</pdfrwt>
<pdfrwt beam="2">  1       21 0.13334562E+00 0.47008796E+03</pdfrwt>
<totfact> 0.99305445E+02</totfact>
</mgrwt>
</event>
<event>
 4    1  0.4690138E-002  0.5666143E+03  0.7818608E-02  0.9977199E-01
         21   -1    0    0  501  502  0.00000000000E+00  0.00000000000E+00  0.25382882864E+04  0.25382882864E+04  0.00000000000E+00 0.  1.
         21   -1    0    0  502  503 -0.00000000000E+00 -0.00000000000E+00 -0.17657356929E+03  0.17657356929E+03  0.00000000000E+00 0.  1.
    9000007    1    1    2  501    0 -0.19461400443E+03  0.35096604617E+03  0.45787053220E+03  0.72848967085E+03  0.40000000000E+03 0.  1.
   -9000007    1    1    2    0  503  0.19461400443E+03 -0.35096604617E+03  0.19038441849E+04  0.19863721848E+04  0.40000000000E+03 0.  1.
<mgrwt>
<rscale>  2 0.56661431E+03</rscale>
<asrwt>0</asrwt>
<pdfrwt beam="1">  1       21 0.39050587E+00 0.56661431E+03</pdfrwt>
<pdfrwt beam="2">  1       21 0.27165166E-01 0.56661431E+03</pdfrwt>
<totfact> 0.90399663E+01</totfact>
</mgrwt>
</event>
<event>
 4    1  0.4690138E-002  0.4745085E+03  0.7818608E-02  0.1020655E+00
         21   -1    0    0  501  502  0.00000000000E+00  0.00000000000E+00  0.22199606785E+04  0.22199606785E+04  0.00000000000E+00 0.  1.
         21   -1    0    0  502  503 -0.00000000000E+00 -0.00000000000E+00 -0.19485031047E+03  0.19485031047E+03  0.00000000000E+00 0.  1.
    9000007    1    1    2  501    0  0.21334231156E+03 -0.14015477620E+03  0.18486126646E+04  0.19085405647E+04  0.40000000000E+03 0.  1.
   -9000007    1    1    2    0  503 -0.21334231156E+03  0.14015477620E+03  0.17649770338E+03  0.50627042427E+03  0.40000000000E+03 0.  1.
<mgrwt>
<rscale>  2 0.47450849E+03</rscale>
<asrwt>0</asrwt>
<pdfrwt beam="1">  1       21 0.34153239E+00 0.47450849E+03</pdfrwt>
<pdfrwt beam="2">  1       21 0.29976972E-01 0.47450849E+03</pdfrwt>
<totfact> 0.15871812E+02</totfact>
</mgrwt>
</event>
<event>
 4    1  0.4690138E-002  0.4886244E+03  0.7818608E-02  0.1016791E+00
         21   -1    0    0  501  502  0.00000000000E+00  0.00000000000E+00  0.72753067478E+03  0.72753067478E+03  0.00000000000E+00 0.  1.
         21   -1    0    0  502  503 -0.00000000000E+00 -0.00000000000E+00 -0.37198728674E+03  0.37198728674E+03  0.00000000000E+00 0. -1.
    9000007    1    1    2  501    0 -0.34791661610E+02  0.27846609881E+03  0.36645367900E+03  0.61077174686E+03  0.40000000000E+03 0.  1.
   -9000007    1    1    2    0  503  0.34791661610E+02 -0.27846609881E+03 -0.10910290958E+02  0.48874621467E+03  0.40000000000E+03 0. -1.
<mgrwt>
<rscale>  2 0.48862442E+03</rscale>
<asrwt>0</asrwt>
<pdfrwt beam="1">  1       21 0.11192780E+00 0.48862442E+03</pdfrwt>
<pdfrwt beam="2">  1       21 0.57228814E-01 0.48862442E+03</pdfrwt>
<totfact> 0.15160150E+03</totfact>
</mgrwt>
</event>
<event>
 4    1  0.4690138E-002  0.4333470E+03  0.7818608E-02  0.1032808E+00
         21   -1    0    0  503  502  0.00000000000E+00  0.00000000000E+00  0.60567210027E+03  0.60567210027E+03  0.00000000000E+00 0.  1.
         21   -1    0    0  501  503 -0.00000000000E+00 -0.00000000000E+00 -0.43483860369E+03  0.43483860369E+03  0.00000000000E+00 0.  1.
    9000007    1    1    2  501    0 -0.64912354904E+02  0.15354467248E+03 -0.19328343623E+03  0.47449769966E+03  0.40000000000E+03 0.  1.
   -9000007    1    1    2    0  502  0.64912354904E+02 -0.15354467248E+03  0.36411693282E+03  0.56601300430E+03  0.40000000000E+03 0.  1.
<mgrwt>
<rscale>  2 0.43334695E+03</rscale>
<asrwt>0</asrwt>
<pdfrwt beam="1">  1       21 0.93180323E-01 0.43334695E+03</pdfrwt>
<pdfrwt beam="2">  1       21 0.66898247E-01 0.43334695E+03</pdfrwt>
<totfact> 0.17173859E+03</totfact>
</mgrwt>
</event>
<event>
 4    1  0.4690138E-002  0.4124454E+03  0.7818608E-02  0.1039554E+00
         21   -1    0    0  501  502  0.00000000000E+00  0.00000000000E+00  0.20841321616E+03  0.20841321616E+03  0.00000000000E+00 0. -1.
         21   -1    0    0  502  503 -0.00000000000E+00 -0.00000000000E+00 -0.92736315452E+03  0.92736315452E+03  0.00000000000E+00 0. -1.
    9000007    1    1    2  501    0 -0.63845767466E+02 -0.77684585836E+02 -0.55607244935E+03  0.69233499538E+03  0.40000000000E+03 0.  1.
   -9000007    1    1    2    0  503  0.63845767466E+02  0.77684585836E+02 -0.16287748902E+03  0.44344137530E+03  0.40000000000E+03 0.  1.
<mgrwt>
<rscale>  2 0.41244536E+03</rscale>
<asrwt>0</asrwt>
<pdfrwt beam="1">  1       21 0.32063571E-01 0.41244536E+03</pdfrwt>
<pdfrwt beam="2">  1       21 0.14267126E+00 0.41244536E+03</pdfrwt>
<totfact> 0.27908341E+03</totfact>
</mgrwt>
</event>
<event>
 4    1  0.4690138E-002  0.5946073E+03  0.7818608E-02  0.9916658E-01
         21   -1    0    0  501  502  0.00000000000E+00  0.00000000000E+00  0.53186535840E+03  0.53186535840E+03  0.00000000000E+00 0.  1.
         21   -1    0    0  502  503 -0.00000000000E+00 -0.00000000000E+00 -0.66929418130E+03  0.66929418130E+03  0.00000000000E+00 0. -1.
    9000007    1    1    2  501    0 -0.80128609860E+02  0.43259369294E+03 -0.11819718480E+03  0.60624126532E+03  0.40000000000E+03 0. -1.
   -9000007    1    1    2    0  503  0.80128609860E+02 -0.43259369294E+03 -0.19231638103E+02  0.59491827438E+03  0.40000000000E+03 0.  1.
<mgrwt>
<rscale>  2 0.59460735E+03</rscale>
<asrwt>0</asrwt>
<pdfrwt beam="1">  1       21 0.81825441E-01 0.59460735E+03</pdfrwt>
<pdfrwt beam="2">  1       21 0.10296833E+00 0.59460735E+03</pdfrwt>
<totfact> 0.80401419E+02</totfact>
</mgrwt>
</event>
<event>
 4    1  0.4690138E-002  0.5807956E+03  0.7818608E-02  0.9946070E-01
         21   -1    0    0  501  502  0.00000000000E+00  0.00000000000E+00  0.45317536612E+03  0.45317536612E+03  0.00000000000E+00 0. -1.
         21   -1    0    0  502  503 -0.00000000000E+00 -0.00000000000E+00 -0.97524656432E+03  0.97524656432E+03  0.00000000000E+00 0.  1.
    9000007    1    1    2  501    0 -0.14853931028E+02  0.42083598334E+03  0.86478866367E+02  0.58719856818E+03  0.40000000000E+03 0. -1.
   -9000007    1    1    2    0  503  0.14853931028E+02 -0.42083598334E+03 -0.60855006457E+03  0.84122336227E+03  0.40000000000E+03 0.  1.
<mgrwt>
<rscale>  2 0.58079563E+03</rscale>
<asrwt>0</asrwt>
<pdfrwt beam="1">  1       21 0.69719288E-01 0.58079563E+03</pdfrwt>
<pdfrwt beam="2">  1       21 0.15003793E+00 0.58079563E+03</pdfrwt>
<totfact> 0.44027388E+02</totfact>
</mgrwt>
</event>
<event>
 4    1  0.4690138E-002  0.5372815E+03  0.7818608E-02  0.1004481E+00
         21   -1    0    0  501  502  0.00000000000E+00  0.00000000000E+00  0.73270465526E+03  0.73270465526E+03  0.00000000000E+00 0. -1.
         21   -1    0    0  502  503 -0.00000000000E+00 -0.00000000000E+00 -0.42646180342E+03  0.42646180342E+03  0.00000000000E+00 0. -1.
    9000007    1    1    2  501    0 -0.24302592376E+03  0.26383675908E+03  0.31307415574E+03  0.62184150879E+03  0.40000000000E+03 0. -1.
   -9000007    1    1    2    0  503  0.24302592376E+03 -0.26383675908E+03 -0.68313039036E+01  0.53732494989E+03  0.40000000000E+03 0. -1.
<mgrwt>
<rscale>  2 0.53728152E+03</rscale>
<asrwt>0</asrwt>
<pdfrwt beam="1">  1       21 0.11272379E+00 0.53728152E+03</pdfrwt>
<pdfrwt beam="2">  1       21 0.65609508E-01 0.53728152E+03</pdfrwt>
<totfact> 0.10832092E+03</totfact>
</mgrwt>
</event>
<event>
 4    1  0.4690138E-002  0.5057741E+03  0.7818608E-02  0.1012283E+00
         21   -1    0    0  503  502  0.00000000000E+00  0.00000000000E+00  0.30454867243E+03  0.30454867243E+03  0.00000000000E+00 0. -1.
         21   -1    0    0  501  503 -0.00000000000E+00 -0.00000000000E+00 -0.93462234985E+03  0.93462234985E+03  0.00000000000E+00 0.  1.
    9000007    1    1    2  501    0  0.24244742821E+03  0.19242318336E+03 -0.51222523181E+03  0.71984868204E+03  0.40000000000E+03 0.  1.
   -9000007    1    1    2    0  502 -0.24244742821E+03 -0.19242318336E+03 -0.11784844561E+03  0.51932234024E+03  0.40000000000E+03 0. -1.
<mgrwt>
<rscale>  2 0.50577410E+03</rscale>
<asrwt>0</asrwt>
<pdfrwt beam="1">  1       21 0.46853643E-01 0.50577410E+03</pdfrwt>
<pdfrwt beam="2">  1       21 0.14378805E+00 0.50577410E+03</pdfrwt>
<totfact> 0.12096508E+03</totfact>
</mgrwt>
</event>
<event>
 4    1  0.4690138E-002  0.6329454E+03  0.7818608E-02  0.9839318E-01
         21   -1    0    0  501  502  0.00000000000E+00  0.00000000000E+00  0.50299695128E+03  0.50299695128E+03  0.00000000000E+00 0.  1.
         21   -1    0    0  502  503 -0.00000000000E+00 -0.00000000000E+00 -0.86609260170E+03  0.86609260170E+03  0.00000000000E+00 0.  1.
    9000007    1    1    2  501    0 -0.33053079091E+03  0.36244905731E+03  0.12544153167E+02  0.63306972654E+03  0.40000000000E+03 0.  1.
   -9000007    1    1    2    0  503  0.33053079091E+03 -0.36244905731E+03 -0.37563980358E+03  0.73601982644E+03  0.40000000000E+03 0.  1.
<mgrwt>
<rscale>  2 0.63294543E+03</rscale>
<asrwt>0</asrwt>
<pdfrwt beam="1">  1       21 0.77384147E-01 0.63294543E+03</pdfrwt>
<pdfrwt beam="2">  1       21 0.13324502E+00 0.63294543E+03</pdfrwt>
<totfact> 0.46908893E+02</totfact>
</mgrwt>
</event>
<event>
 4    1  0.4690138E-002  0.4626952E+03  0.7818608E-02  0.1024002E+00
         21   -1    0    0  503  502  0.00000000000E+00  0.00000000000E+00  0.35310492072E+04  0.35310492072E+04  0.00000000000E+00 0.  1.
         21   -1    0    0  501  503 -0.00000000000E+00 -0.00000000000E+00 -0.12961084772E+03  0.12961084772E+03  0.00000000000E+00 0. -1.
    9000007    1    1    2  501    0  0.13655723887E+03  0.18825252150E+03  0.36543548073E+03  0.58960154504E+03  0.40000000000E+03 0. -1.
   -9000007    1    1    2    0  502 -0.13655723887E+03 -0.18825252150E+03  0.30360028787E+04  0.30710585099E+04  0.40000000000E+03 0.  1.
<mgrwt>
<rscale>  2 0.46269525E+03</rscale>
<asrwt>0</asrwt>
<pdfrwt beam="1">  1       21 0.54323827E+00 0.46269525E+03</pdfrwt>
<pdfrwt beam="2">  1       21 0.19940133E-01 0.46269525E+03</pdfrwt>
<totfact> 0.15475062E+01</totfact>
</mgrwt>
</event>
<event>
 4    1  0.4690138E-002  0.4057142E+03  0.7818608E-02  0.1041819E+00
         21   -1    0    0  501  502  0.00000000000E+00  0.00000000000E+00  0.22749100301E+03  0.22749100301E+03  0.00000000000E+00 0.  1.
         21   -1    0    0  502  503 -0.00000000000E+00 -0.00000000000E+00 -0.13175111143E+04  0.13175111143E+04  0.00000000000E+00 0.  1.
    9000007    1    1    2  501    0  0.46037373402E+02  0.49845413827E+02 -0.26333877571E+02  0.40656792561E+03  0.40000000000E+03 0.  1.
   -9000007    1    1    2    0  503 -0.46037373402E+02 -0.49845413827E+02 -0.10636862337E+04  0.11384341917E+04  0.40000000000E+03 0.  1.
<mgrwt>
<rscale>  2 0.40571419E+03</rscale>
<asrwt>0</asrwt>
<pdfrwt beam="1">  1       21 0.34998616E-01 0.40571419E+03</pdfrwt>
<pdfrwt beam="2">  1       21 0.20269402E+00 0.40571419E+03</pdfrwt>
<totfact> 0.86271733E+02</totfact>
</mgrwt>
</event>
<event>
 4    1  0.4690138E-002  0.4706250E+03  0.7818608E-02  0.1021744E+00
         21   -1    0    0  503  502  0.00000000000E+00  0.00000000000E+00  0.91849732399E+03  0.91849732399E+03  0.00000000000E+00 0. -1.
         21   -1    0    0  501  503 -0.00000000000E+00 -0.00000000000E+00 -0.25295750439E+03  0.25295750439E+03  0.00000000000E+00 0. -1.
    9000007    1    1    2  501    0 -0.23966599710E+03  0.63624824546E+02  0.20617817018E+03  0.51380672079E+03  0.40000000000E+03 0. -1.
   -9000007    1    1    2    0  502  0.23966599710E+03 -0.63624824546E+02  0.45936164942E+03  0.65764810759E+03  0.40000000000E+03 0. -1.
<mgrwt>
<rscale>  2 0.47062502E+03</rscale>
<asrwt>0</asrwt>
<pdfrwt beam="1">  1       21 0.14130728E+00 0.47062502E+03</pdfrwt>
<pdfrwt beam="2">  1       21 0.38916540E-01 0.47062502E+03</pdfrwt>
<totfact> 0.18904086E+03</totfact>
</mgrwt>
</event>
<event>
 4    1  0.4690138E-002  0.5134623E+03  0.7818608E-02  0.1010324E+00
         21   -1    0    0  503  502  0.00000000000E+00  0.00000000000E+00  0.21124319083E+03  0.21124319083E+03  0.00000000000E+00 0.  1.
         21   -1    0    0  501  503 -0.00000000000E+00 -0.00000000000E+00 -0.14621663176E+04  0.14621663176E+04  0.00000000000E+00 0.  1.
    9000007    1    1    2  501    0  0.31604997031E+02 -0.32038204817E+03 -0.30528341952E+03  0.59736211703E+03  0.40000000000E+03 0.  1.
   -9000007    1    1    2    0  502 -0.31604997031E+02  0.32038204817E+03 -0.94563970724E+03  0.10760473914E+04  0.40000000000E+03 0.  1.
<mgrwt>
<rscale>  2 0.51346230E+03</rscale>
<asrwt>0</asrwt>
<pdfrwt beam="1">  1       21 0.32498952E-01 0.51346230E+03</pdfrwt>
<pdfrwt beam="2">  1       21 0.22494867E+00 0.51346230E+03</pdfrwt>
<totfact> 0.68301043E+02</totfact>
</mgrwt>
</event>
<event>
 4    1  0.4690138E-002  0.4662649E+03  0.7818608E-02  0.1022980E+00
         21   -1    0    0  503  502  0.00000000000E+00  0.00000000000E+00  0.10755831978E+04  0.10755831978E+04  0.00000000000E+00 0.  1.
         21   -1    0    0  501  503 -0.00000000000E+00 -0.00000000000E+00 -0.29167701553E+03  0.29167701553E+03  0.00000000000E+00 0.  1.
    9000007    1    1    2  501    0  0.63950619667E+02  0.23089671404E+03  0.13156436387E+02  0.46645049698E+03  0.40000000000E+03 0.  1.
   -9000007    1    1    2    0  502 -0.63950619667E+02 -0.23089671404E+03  0.77074974589E+03  0.90080971637E+03  0.40000000000E+03 0.  1.
<mgrwt>
<rscale>  2 0.46626492E+03</rscale>
<asrwt>0</asrwt>
<pdfrwt beam="1">  1       21 0.16547434E+00 0.46626492E+03</pdfrwt>
<pdfrwt beam="2">  1       21 0.44873387E-01 0.46626492E+03</pdfrwt>
<totfact> 0.91390899E+02</totfact>
</mgrwt>
</event>
<event>
 4    1  0.4690138E-002  0.4804879E+03  0.7818608E-02  0.1019001E+00
         21   -1    0    0  503  502  0.00000000000E+00  0.00000000000E+00  0.35327502459E+03  0.35327502459E+03  0.00000000000E+00 0. -1.
         21   -1    0    0  501  503 -0.00000000000E+00 -0.00000000000E+00 -0.74438694258E+03  0.74438694258E+03  0.00000000000E+00 0. -1.
    9000007    1    1    2  501    0 -0.20894299277E+03 -0.16495885730E+03 -0.38732001216E+03  0.61715912912E+03  0.40000000000E+03 0.  1.
   -9000007    1    1    2    0  502  0.20894299277E+03  0.16495885730E+03 -0.37919058296E+01  0.48050283806E+03  0.40000000000E+03 0.  1.
<mgrwt>
<rscale>  2 0.48048788E+03</rscale>
<asrwt>0</asrwt>
<pdfrwt beam="1">  1       21 0.54350004E-01 0.48048788E+03</pdfrwt>
<pdfrwt beam="2">  1       21 0.11452107E+00 0.48048788E+03</pdfrwt>
<totfact> 0.16058978E+03</totfact>
</mgrwt>
</event>
<event>
 4    1  0.4690138E-002  0.4026910E+03  0.7818608E-02  0.1042852E+00
         21   -1    0    0  503  502  0.00000000000E+00  0.00000000000E+00  0.49940838580E+03  0.49940838580E+03  0.00000000000E+00 0. -1.
         21   -1    0    0  501  503 -0.00000000000E+00 -0.00000000000E+00 -0.33456349908E+03  0.33456349908E+03  0.00000000000E+00 0. -1.
    9000007    1    1    2  501    0 -0.20387920003E+02 -0.41765850252E+02  0.15400427584E+03  0.43113497945E+03  0.40000000000E+03 0. -1.
   -9000007    1    1    2    0  502  0.20387920003E+02  0.41765850252E+02  0.10840610889E+02  0.40283690543E+03  0.40000000000E+03 0. -1.
<mgrwt>
<rscale>  2 0.40269101E+03</rscale>
<asrwt>0</asrwt>
<pdfrwt beam="1">  1       21 0.76832059E-01 0.40269101E+03</pdfrwt>
<pdfrwt beam="2">  1       21 0.51471308E-01 0.40269101E+03</pdfrwt>
<totfact> 0.48273852E+03</totfact>
</mgrwt>
</event>
<event>
 4    1  0.4690138E-002  0.4049350E+03  0.7818608E-02  0.1042084E+00
         21   -1    0    0  503  502  0.00000000000E+00  0.00000000000E+00  0.40881564605E+03  0.40881564605E+03  0.00000000000E+00 0. -1.
         21   -1    0    0  501  503 -0.00000000000E+00 -0.00000000000E+00 -0.49215871170E+03  0.49215871170E+03  0.00000000000E+00 0. -1.
    9000007    1    1    2  501    0  0.59474284066E+02 -0.20861249597E+02 -0.23545264360E+03  0.46841256343E+03  0.40000000000E+03 0. -1.
   -9000007    1    1    2    0  502 -0.59474284066E+02  0.20861249597E+02  0.15210957796E+03  0.43256179432E+03  0.40000000000E+03 0. -1.
<mgrwt>
<rscale>  2 0.40493503E+03</rscale>
<asrwt>0</asrwt>
<pdfrwt beam="1">  1       21 0.62894715E-01 0.40493503E+03</pdfrwt>
<pdfrwt beam="2">  1       21 0.75716725E-01 0.40493503E+03</pdfrwt>
<totfact> 0.32301083E+03</totfact>
</mgrwt>
</event>
<event>
 4    1  0.4690138E-002  0.5065396E+03  0.7818608E-02  0.1012086E+00
         21   -1    0    0  503  502  0.00000000000E+00  0.00000000000E+00  0.10363941726E+04  0.10363941726E+04  0.00000000000E+00 0.  1.
         21   -1    0    0  501  503 -0.00000000000E+00 -0.00000000000E+00 -0.32156413666E+03  0.32156413666E+03  0.00000000000E+00 0.  1.
    9000007    1    1    2  501    0 -0.28078094948E+03  0.13320816258E+03  0.68311288755E+03  0.85042670072E+03  0.40000000000E+03 0.  1.
   -9000007    1    1    2    0  502  0.28078094948E+03 -0.13320816258E+03  0.31717148399E+02  0.50753160854E+03  0.40000000000E+03 0.  1.
<mgrwt>
<rscale>  2 0.50653959E+03</rscale>
<asrwt>0</asrwt>
<pdfrwt beam="1">  1       21 0.15944526E+00 0.50653959E+03</pdfrwt>
<pdfrwt beam="2">  1       21 0.49471406E-01 0.50653959E+03</pdfrwt>
<totfact> 0.81196519E+02</totfact>
</mgrwt>
</event>
<event>
 4    1  0.4690138E-002  0.4078250E+03  0.7818608E-02  0.1041103E+00
         21   -1    0    0  501  502  0.00000000000E+00  0.00000000000E+00  0.22406232911E+04  0.22406232911E+04  0.00000000000E+00 0.  1.
         21   -1    0    0  502  503 -0.00000000000E+00 -0.00000000000E+00 -0.82807213113E+02  0.82807213113E+02  0.00000000000E+00 0. -1.
    9000007    1    1    2  501    0 -0.62761106690E+02  0.48808844462E+02  0.14527956262E+04  0.15089520838E+04  0.40000000000E+03 0.  1.
   -9000007    1    1    2    0  503  0.62761106690E+02 -0.48808844462E+02  0.70502045174E+03  0.81447842033E+03  0.40000000000E+03 0. -1.
<mgrwt>
<rscale>  2 0.40782504E+03</rscale>
<asrwt>0</asrwt>
<pdfrwt beam="1">  1       21 0.34471123E+00 0.40782504E+03</pdfrwt>
<pdfrwt beam="2">  1       21 0.12739573E-01 0.40782504E+03</pdfrwt>
<totfact> 0.80537070E+02</totfact>
</mgrwt>
</event>
<event>
 4    1  0.4690138E-002  0.4102765E+03  0.7818608E-02  0.1040278E+00
         21   -1    0    0  503  502  0.00000000000E+00  0.00000000000E+00  0.29623681225E+04  0.29623681225E+04  0.00000000000E+00 0. -1.
         21   -1    0    0  501  503 -0.00000000000E+00 -0.00000000000E+00 -0.10562559614E+03  0.10562559614E+03  0.00000000000E+00 0. -1.
    9000007    1    1    2  501    0 -0.27244202837E+02  0.87089481468E+02  0.38565275206E+03  0.56307625553E+03  0.40000000000E+03 0. -1.
   -9000007    1    1    2    0  502  0.27244202837E+02 -0.87089481468E+02  0.24710897743E+04  0.25049174631E+04  0.40000000000E+03 0. -1.
<mgrwt>
<rscale>  2 0.41027652E+03</rscale>
<asrwt>0</asrwt>
<pdfrwt beam="1">  1       21 0.45574888E+00 0.41027652E+03</pdfrwt>
<pdfrwt beam="2">  1       21 0.16250094E-01 0.41027652E+03</pdfrwt>
<totfact> 0.99541878E+01</totfact>
</mgrwt>
</event>
<event>
 4    1  0.4690138E-002  0.6257919E+03  0.7818608E-02  0.9853295E-01
         21   -1    0    0  503  502  0.00000000000E+00  0.00000000000E+00  0.45852017138E+03  0.45852017138E+03  0.00000000000E+00 0. -1.
         21   -1    0    0  501  503 -0.00000000000E+00 -0.00000000000E+00 -0.98573526980E+03  0.98573526980E+03  0.00000000000E+00 0. -1.
    9000007    1    1    2  501    0  0.43048715906E+03  0.21516585248E+03 -0.52751006536E+03  0.81846344283E+03  0.40000000000E+03 0. -1.
   -9000007    1    1    2    0  502 -0.43048715906E+03 -0.21516585248E+03  0.29496694212E+00  0.62579199835E+03  0.40000000000E+03 0. -1.
<mgrwt>
<rscale>  2 0.62579193E+03</rscale>
<asrwt>0</asrwt>
<pdfrwt beam="1">  1       21 0.70541566E-01 0.62579193E+03</pdfrwt>
<pdfrwt beam="2">  1       21 0.15165158E+00 0.62579193E+03</pdfrwt>
<totfact> 0.40995783E+02</totfact>
</mgrwt>
</event>
<event>
 4    1  0.4690138E-002  0.4338986E+03  0.7818608E-02  0.1032635E+00
         21   -1    0    0  501  502  0.00000000000E+00  0.00000000000E+00  0.68954522112E+03  0.68954522112E+03  0.00000000000E+00 0.  1.
         21   -1    0    0  502  503 -0.00000000000E+00 -0.00000000000E+00 -0.51559850306E+03  0.51559850306E+03  0.00000000000E+00 0.  1.
    9000007    1    1    2  501    0  0.12151800102E+03  0.11619556147E+03  0.50027609370E+03  0.66222670061E+03  0.40000000000E+03 0.  1.
   -9000007    1    1    2    0  503 -0.12151800102E+03 -0.11619556147E+03 -0.32632937564E+03  0.54291702357E+03  0.40000000000E+03 0.  1.
<mgrwt>
<rscale>  2 0.43389864E+03</rscale>
<asrwt>0</asrwt>
<pdfrwt beam="1">  1       21 0.10608388E+00 0.43389864E+03</pdfrwt>
<pdfrwt beam="2">  1       21 0.79322847E-01 0.43389864E+03</pdfrwt>
<totfact> 0.85210820E+02</totfact>
</mgrwt>
</event>
<event>
 4    1  0.4690138E-002  0.5426537E+03  0.7818608E-02  0.1003209E+00
         21   -1    0    0  503  502  0.00000000000E+00  0.00000000000E+00  0.22326909292E+03  0.22326909292E+03  0.00000000000E+00 0. -1.
         21   -1    0    0  501  503 -0.00000000000E+00 -0.00000000000E+00 -0.13233127272E+04  0.13233127272E+04  0.00000000000E+00 0. -1.
    9000007    1    1    2  501    0  0.35270922538E+03  0.10034547138E+03 -0.59459909082E+03  0.80499757148E+03  0.40000000000E+03 0. -1.
   -9000007    1    1    2    0  502 -0.35270922538E+03 -0.10034547138E+03 -0.50544454342E+03  0.74158424860E+03  0.40000000000E+03 0. -1.
<mgrwt>
<rscale>  2 0.54265368E+03</rscale>
<asrwt>0</asrwt>
<pdfrwt beam="1">  1       21 0.34349092E-01 0.54265368E+03</pdfrwt>
<pdfrwt beam="2">  1       21 0.20358657E+00 0.54265368E+03</pdfrwt>
<totfact> 0.83154752E+02</totfact>
</mgrwt>
</event>
<event>
 4    1  0.4690138E-002  0.4213991E+03  0.7818608E-02  0.1036612E+00
         21   -1    0    0  501  502  0.00000000000E+00  0.00000000000E+00  0.27285027252E+03  0.27285027252E+03  0.00000000000E+00 0.  1.
         21   -1    0    0  502  503 -0.00000000000E+00 -0.00000000000E+00 -0.65905642922E+03  0.65905642922E+03  0.00000000000E+00 0. -1.
    9000007    1    1    2  501    0 -0.12828039460E+03  0.33486514965E+02 -0.24518345150E+03  0.48753679986E+03  0.40000000000E+03 0. -1.
   -9000007    1    1    2    0  503  0.12828039460E+03 -0.33486514965E+02 -0.14102270520E+03  0.44436990189E+03  0.40000000000E+03 0.  1.
<mgrwt>
<rscale>  2 0.42139911E+03</rscale>
<asrwt>0</asrwt>
<pdfrwt beam="1">  1       21 0.41976965E-01 0.42139911E+03</pdfrwt>
<pdfrwt beam="2">  1       21 0.10139330E+00 0.42139911E+03</pdfrwt>
<totfact> 0.38284470E+03</totfact>
</mgrwt>
</event>
<event>
 4    1  0.4690138E-002  0.4398844E+03  0.7818608E-02  0.1030782E+00
         21   -1    0    0  501  502  0.00000000000E+00  0.00000000000E+00  0.52334730610E+03  0.52334730610E+03  0.00000000000E+00 0.  1.
         21   -1    0    0  502  503 -0.00000000000E+00 -0.00000000000E+00 -0.39830801961E+03  0.39830801961E+03  0.00000000000E+00 0. -1.
    9000007    1    1    2  501    0 -0.16151600064E+03 -0.86086219439E+02  0.18595220603E+03  0.47757353211E+03  0.40000000000E+03 0.  1.
   -9000007    1    1    2    0  503  0.16151600064E+03  0.86086219439E+02 -0.60912919551E+02  0.44408179360E+03  0.40000000000E+03 0. -1.
<mgrwt>
<rscale>  2 0.43988437E+03</rscale>
<asrwt>0</asrwt>
<pdfrwt beam="1">  1       21 0.80514971E-01 0.43988437E+03</pdfrwt>
<pdfrwt beam="2">  1       21 0.61278156E-01 0.43988437E+03</pdfrwt>
<totfact> 0.29318861E+03</totfact>
</mgrwt>
</event>
<event>
 4    1  0.4690138E-002  0.5706235E+03  0.7818608E-02  0.9968300E-01
         21   -1    0    0  501  502  0.00000000000E+00  0.00000000000E+00  0.99175872434E+03  0.99175872434E+03  0.00000000000E+00 0.  1.
         21   -1    0    0  502  503 -0.00000000000E+00 -0.00000000000E+00 -0.34529213536E+03  0.34529213536E+03  0.00000000000E+00 0.  1.
    9000007    1    1    2  501    0  0.36004620793E+03 -0.18967837463E+03  0.17500456329E+03  0.59685656134E+03  0.40000000000E+03 0.  1.
   -9000007    1    1    2    0  503 -0.36004620793E+03  0.18967837463E+03  0.47146202569E+03  0.74019429835E+03  0.40000000000E+03 0.  1.
<mgrwt>
<rscale>  2 0.57062348E+03</rscale>
<asrwt>0</asrwt>
<pdfrwt beam="1">  1       21 0.15257826E+00 0.57062348E+03</pdfrwt>
<pdfrwt beam="2">  1       21 0.53121867E-01 0.57062348E+03</pdfrwt>
<totfact> 0.76940334E+02</totfact>
</mgrwt>
</event>
<event>
 4    1  0.4690138E-002  0.4368173E+03  0.7818608E-02  0.1031728E+00
         21   -1    0    0  501  502  0.00000000000E+00  0.00000000000E+00  0.17319121996E+03  0.17319121996E+03  0.00000000000E+00 0.  1.
         21   -1    0    0  502  503 -0.00000000000E+00 -0.00000000000E+00 -0.11723394863E+04  0.11723394863E+04  0.00000000000E+00 0. -1.
    9000007    1    1    2  501    0  0.38084120727E+02 -0.17134456078E+03 -0.66468633624E+03  0.79537241865E+03  0.40000000000E+03 0. -1.
   -9000007    1    1    2    0  503 -0.38084120727E+02  0.17134456078E+03 -0.33446193015E+03  0.55015828766E+03  0.40000000000E+03 0.  1.
<mgrwt>
<rscale>  2 0.43681731E+03</rscale>
<asrwt>0</asrwt>
<pdfrwt beam="1">  1       21 0.26644803E-01 0.43681731E+03</pdfrwt>
<pdfrwt beam="2">  1       21 0.18035992E+00 0.43681731E+03</pdfrwt>
<totfact> 0.20747998E+03</totfact>
</mgrwt>
</event>
<event>
 4    1  0.4690138E-002  0.4305266E+03  0.7818608E-02  0.1033694E+00
         21   -1    0    0  503  502  0.00000000000E+00  0.00000000000E+00  0.39243063631E+03  0.39243063631E+03  0.00000000000E+00 0. -1.
         21   -1    0    0  501  503 -0.00000000000E+00 -0.00000000000E+00 -0.47238883646E+03  0.47238883646E+03  0.00000000000E+00 0. -1.
    9000007    1    1    2  501    0 -0.12309132847E+03  0.10100333592E+03 -0.45168791191E+02  0.43288955717E+03  0.40000000000E+03 0. -1.
   -9000007    1    1    2    0  502  0.12309132847E+03 -0.10100333592E+03 -0.34789408962E+02  0.43192991560E+03  0.40000000000E+03 0. -1.
<mgrwt>
<rscale>  2 0.43052660E+03</rscale>
<asrwt>0</asrwt>
<pdfrwt beam="1">  1       21 0.60373944E-01 0.43052660E+03</pdfrwt>
<pdfrwt beam="2">  1       21 0.72675206E-01 0.43052660E+03</pdfrwt>
<totfact> 0.38422404E+03</totfact>
</mgrwt>
</event>
<event>
 4    1  0.4690138E-002  0.4076732E+03  0.7818608E-02  0.1041155E+00
         21   -1    0    0  503  502  0.00000000000E+00  0.00000000000E+00  0.21346656178E+03  0.21346656178E+03  0.00000000000E+00 0.  1.
         21   -1    0    0  501  503 -0.00000000000E+00 -0.00000000000E+00 -0.79955065760E+03  0.79955065760E+03  0.00000000000E+00 0.  1.
    9000007    1    1    2  501    0 -0.26199669621E+02 -0.74236063320E+02 -0.21098162452E+03  0.45903231005E+03  0.40000000000E+03 0.  1.
   -9000007    1    1    2    0  502  0.26199669621E+02  0.74236063320E+02 -0.37510247130E+03  0.55398490933E+03  0.40000000000E+03 0.  1.
<mgrwt>
<rscale>  2 0.40767317E+03</rscale>
<asrwt>0</asrwt>
<pdfrwt beam="1">  1       21 0.32841010E-01 0.40767317E+03</pdfrwt>
<pdfrwt beam="2">  1       21 0.12300779E+00 0.40767317E+03</pdfrwt>
<totfact> 0.39221689E+03</totfact>
</mgrwt>
</event>
<event>
 4    1  0.4690138E-002  0.5393315E+03  0.7818608E-02  0.1003994E+00
         21   -1    0    0  503  502  0.00000000000E+00  0.00000000000E+00  0.64193913465E+03  0.64193913465E+03  0.00000000000E+00 0. -1.
         21   -1    0    0  501  503 -0.00000000000E+00 -0.00000000000E+00 -0.60863259102E+03  0.60863259102E+03  0.00000000000E+00 0. -1.
    9000007    1    1    2  501    0 -0.26486162855E+03 -0.24642801185E+03 -0.29941237126E+03  0.61686806966E+03  0.40000000000E+03 0. -1.
   -9000007    1    1    2    0  502  0.26486162855E+03  0.24642801185E+03  0.33271891490E+03  0.63370365601E+03  0.40000000000E+03 0. -1.
<mgrwt>
<rscale>  2 0.53933148E+03</rscale>
<asrwt>0</asrwt>
<pdfrwt beam="1">  1       21 0.98759866E-01 0.53933148E+03</pdfrwt>
<pdfrwt beam="2">  1       21 0.93635784E-01 0.53933148E+03</pdfrwt>
<totfact> 0.65938956E+02</totfact>
</mgrwt>
</event>
<event>
 4    1  0.4690138E-002  0.4518031E+03  0.7818608E-02  0.1027186E+00
         21   -1    0    0  501  502  0.00000000000E+00  0.00000000000E+00  0.99331980695E+03  0.99331980695E+03  0.00000000000E+00 0. -1.
         21   -1    0    0  502  503 -0.00000000000E+00 -0.00000000000E+00 -0.23178886256E+03  0.23178886256E+03  0.00000000000E+00 0. -1.
    9000007    1    1    2  501    0 -0.13144820559E+03  0.16385190659E+03  0.58706286140E+03  0.74078936364E+03  0.40000000000E+03 0. -1.
   -9000007    1    1    2    0  503  0.13144820559E+03 -0.16385190659E+03  0.17446808299E+03  0.48431930586E+03  0.40000000000E+03 0. -1.
<mgrwt>
<rscale>  2 0.45180314E+03</rscale>
<asrwt>0</asrwt>
<pdfrwt beam="1">  1       21 0.15281843E+00 0.45180314E+03</pdfrwt>
<pdfrwt beam="2">  1       21 0.35659826E-01 0.45180314E+03</pdfrwt>
<totfact> 0.18421294E+03</totfact>
</mgrwt>
</event>
<event>
 4    1  0.4690138E-002  0.4068736E+03  0.7818608E-02  0.1041425E+00
         21   -1    0    0  503  502  0.00000000000E+00  0.00000000000E+00  0.47611012089E+03  0.47611012089E+03  0.00000000000E+00 0.  1.
         21   -1    0    0  501  503 -0.00000000000E+00 -0.00000000000E+00 -0.37027897652E+03  0.37027897652E+03  0.00000000000E+00 0.  1.
    9000007    1    1    2  501    0  0.56411800243E+02 -0.48619207099E+02  0.15740552730E+03  0.43625980623E+03  0.40000000000E+03 0.  1.
   -9000007    1    1    2    0  502 -0.56411800243E+02  0.48619207099E+02 -0.51574382930E+02  0.41012929118E+03  0.40000000000E+03 0.  1.
<mgrwt>
<rscale>  2 0.40687359E+03</rscale>
<asrwt>0</asrwt>
<pdfrwt beam="1">  1       21 0.73247711E-01 0.40687359E+03</pdfrwt>
<pdfrwt beam="2">  1       21 0.56965996E-01 0.40687359E+03</pdfrwt>
<totfact> 0.43211699E+03</totfact>
</mgrwt>
</event>
<event>
 4    1  0.4690138E-002  0.4052430E+03  0.7818608E-02  0.1041979E+00
         21   -1    0    0  501  502  0.00000000000E+00  0.00000000000E+00  0.76617197248E+02  0.76617197248E+02  0.00000000000E+00 0. -1.
         21   -1    0    0  502  503 -0.00000000000E+00 -0.00000000000E+00 -0.29643755776E+04  0.29643755776E+04  0.00000000000E+00 0. -1.
    9000007    1    1    2  501    0 -0.17361416207E+02 -0.62613855849E+02 -0.64371008040E+03  0.76064747507E+03  0.40000000000E+03 0. -1.
   -9000007    1    1    2    0  503  0.17361416207E+02  0.62613855849E+02 -0.22440482999E+04  0.22803452997E+04  0.40000000000E+03 0. -1.
<mgrwt>
<rscale>  2 0.40524303E+03</rscale>
<asrwt>0</asrwt>
<pdfrwt beam="1">  1       21 0.11787262E-01 0.40524303E+03</pdfrwt>
<pdfrwt beam="2">  1       21 0.45605776E+00 0.40524303E+03</pdfrwt>
<totfact> 0.17954936E+02</totfact>
</mgrwt>
</event>
<event>
 4    1  0.4690138E-002  0.5011713E+03  0.7818608E-02  0.1013474E+00
         21   -1    0    0  501  502  0.00000000000E+00  0.00000000000E+00  0.13115902453E+04  0.13115902453E+04  0.00000000000E+00 0. -1.
         21   -1    0    0  502  503 -0.00000000000E+00 -0.00000000000E+00 -0.26524116578E+03  0.26524116578E+03  0.00000000000E+00 0. -1.
    9000007    1    1    2  501    0  0.19564420171E+03 -0.22999131080E+03  0.93887718386E+03  0.10642664249E+04  0.40000000000E+03 0. -1.
   -9000007    1    1    2    0  503 -0.19564420171E+03  0.22999131080E+03  0.10747189562E+03  0.51256498618E+03  0.40000000000E+03 0. -1.
<mgrwt>
<rscale>  2 0.50117128E+03</rscale>
<asrwt>0</asrwt>
<pdfrwt beam="1">  1       21 0.20178311E+00 0.50117128E+03</pdfrwt>
<pdfrwt beam="2">  1       21 0.40806334E-01 0.50117128E+03</pdfrwt>
<totfact> 0.61087098E+02</totfact>
</mgrwt>
</event>
<event>
 4    1  0.4690138E-002  0.5337066E+03  0.7818608E-02  0.1005337E+00
         21   -1    0    0  501  502  0.00000000000E+00  0.00000000000E+00  0.49595687540E+03  0.49595687540E+03  0.00000000000E+00 0. -1.
         21   -1    0    0  502  503 -0.00000000000E+00 -0.00000000000E+00 -0.60314922934E+03  0.60314922934E+03  0.00000000000E+00 0. -1.
    9000007    1    1    2  501    0 -0.34072549248E+03  0.93535280565E+02 -0.17372341473E+03  0.56126868322E+03  0.40000000000E+03 0. -1.
   -9000007    1    1    2    0  503  0.34072549248E+03 -0.93535280565E+02  0.66531060780E+02  0.53783742152E+03  0.40000000000E+03 0. -1.
<mgrwt>
<rscale>  2 0.53370658E+03</rscale>
<asrwt>0</asrwt>
<pdfrwt beam="1">  1       21 0.76301057E-01 0.53370658E+03</pdfrwt>
<pdfrwt beam="2">  1       21 0.92792189E-01 0.53370658E+03</pdfrwt>
<totfact> 0.12416611E+03</totfact>
</mgrwt>
</event>
<event>
 4    1  0.4690138E-002  0.4197263E+03  0.7818608E-02  0.1037155E+00
         21   -1    0    0  501  502  0.00000000000E+00  0.00000000000E+00  0.45092358774E+03  0.45092358774E+03  0.00000000000E+00 0.  1.
         21   -1    0    0  502  503 -0.00000000000E+00 -0.00000000000E+00 -0.70880518027E+03  0.70880518027E+03  0.00000000000E+00 0.  1.
    9000007    1    1    2  501    0 -0.39201734238E+02  0.12096842662E+03  0.25952877575E+03  0.49348284838E+03  0.40000000000E+03 0.  1.
   -9000007    1    1    2    0  503  0.39201734238E+02 -0.12096842662E+03 -0.51741036829E+03  0.66624591963E+03  0.40000000000E+03 0.  1.
<mgrwt>
<rscale>  2 0.41972626E+03</rscale>
<asrwt>0</asrwt>
<pdfrwt beam="1">  1       21 0.69372860E-01 0.41972626E+03</pdfrwt>
<pdfrwt beam="2">  1       21 0.10904695E+00 0.41972626E+03</pdfrwt>
<totfact> 0.10864691E+03</totfact>
</mgrwt>
</event>
<event>
 4    1  0.4690138E-002  0.4849075E+03  0.7818608E-02  0.1017795E+00
         21   -1    0    0  503  502  0.00000000000E+00  0.00000000000E+00  0.96446303020E+03  0.96446303020E+03  0.00000000000E+00 0.  1.
         21   -1    0    0  501  503 -0.00000000000E+00 -0.00000000000E+00 -0.26524379342E+03  0.26524379342E+03  0.00000000000E+00 0.  1.
    9000007    1    1    2  501    0  0.19984671991E+03  0.18760741888E+03  0.52443662094E+03  0.71426117384E+03  0.40000000000E+03 0.  1.
   -9000007    1    1    2    0  502 -0.19984671991E+03 -0.18760741888E+03  0.17478261584E+03  0.51544564978E+03  0.40000000000E+03 0.  1.
<mgrwt>
<rscale>  2 0.48490747E+03</rscale>
<asrwt>0</asrwt>
<pdfrwt beam="1">  1       21 0.14837893E+00 0.48490747E+03</pdfrwt>
<pdfrwt beam="2">  1       21 0.40806738E-01 0.48490747E+03</pdfrwt>
<totfact> 0.14948851E+03</totfact>
</mgrwt>
</event>
<event>
 4    1  0.4690138E-002  0.4680117E+03  0.7818608E-02  0.1022483E+00
         21   -1    0    0  503  502  0.00000000000E+00  0.00000000000E+00  0.30114219498E+04  0.30114219498E+04  0.00000000000E+00 0.  1.
         21   -1    0    0  501  503 -0.00000000000E+00 -0.00000000000E+00 -0.10635817550E+03  0.10635817550E+03  0.00000000000E+00 0.  1.
    9000007    1    1    2  501    0 -0.20964058351E+03 -0.12282405563E+03  0.57603325742E+03  0.74219218302E+03  0.40000000000E+03 0.  1.
   -9000007    1    1    2    0  502  0.20964058351E+03  0.12282405563E+03  0.23290305169E+04  0.23755879423E+04  0.40000000000E+03 0.  1.
<mgrwt>
<rscale>  2 0.46801167E+03</rscale>
<asrwt>0</asrwt>
<pdfrwt beam="1">  1       21 0.46329562E+00 0.46801167E+03</pdfrwt>
<pdfrwt beam="2">  1       21 0.16362799E-01 0.46801167E+03</pdfrwt>
<totfact> 0.83649852E+01</totfact>
</mgrwt>
</event>
<event>
 4    1  0.4690138E-002  0.4951488E+03  0.7818608E-02  0.1015053E+00
         21   -1    0    0  501  502  0.00000000000E+00  0.00000000000E+00  0.23523497501E+03  0.23523497501E+03  0.00000000000E+00 0. -1.
         21   -1    0    0  502  503 -0.00000000000E+00 -0.00000000000E+00 -0.10441714836E+04  0.10441714836E+04  0.00000000000E+00 0.  1.
    9000007    1    1    2  501    0  0.82294540738E+02  0.27999991587E+03 -0.37698686858E+03  0.62232744067E+03  0.40000000000E+03 0. -1.
   -9000007    1    1    2    0  503 -0.82294540738E+02 -0.27999991587E+03 -0.43194964000E+03  0.65707901794E+03  0.40000000000E+03 0. -1.
<mgrwt>
<rscale>  2 0.49514881E+03</rscale>
<asrwt>0</asrwt>
<pdfrwt beam="1">  1       21 0.36189997E-01 0.49514881E+03</pdfrwt>
<pdfrwt beam="2">  1       21 0.16064176E+00 0.49514881E+03</pdfrwt>
<totfact> 0.15308889E+03</totfact>
</mgrwt>
</event>
<event>
 4    1  0.4690138E-002  0.4437838E+03  0.7818608E-02  0.1029592E+00
         21   -1    0    0  501  502  0.00000000000E+00  0.00000000000E+00  0.20835715439E+03  0.20835715439E+03  0.00000000000E+00 0.  1.
         21   -1    0    0  502  503 -0.00000000000E+00 -0.00000000000E+00 -0.12765035394E+04  0.12765035394E+04  0.00000000000E+00 0.  1.
    9000007    1    1    2  501    0 -0.56186965777E+02  0.18381267738E+03 -0.15585505776E+03  0.47035611457E+03  0.40000000000E+03 0.  1.
   -9000007    1    1    2    0  503  0.56186965777E+02 -0.18381267738E+03 -0.91229132730E+03  0.10145045793E+04  0.40000000000E+03 0.  1.
<mgrwt>
<rscale>  2 0.44378382E+03</rscale>
<asrwt>0</asrwt>
<pdfrwt beam="1">  1       21 0.32054947E-01 0.44378382E+03</pdfrwt>
<pdfrwt beam="2">  1       21 0.19638516E+00 0.44378382E+03</pdfrwt>
<totfact> 0.11131785E+03</totfact>
</mgrwt>
</event>
<event>
 4    1  0.4690138E-002  0.4786922E+03  0.7818608E-02  0.1019495E+00
         21   -1    0    0  501  502  0.00000000000E+00  0.00000000000E+00  0.85469510435E+03  0.85469510435E+03  0.00000000000E+00 0.  1.
         21   -1    0    0  502  503 -0.00000000000E+00 -0.00000000000E+00 -0.37647028493E+03  0.37647028493E+03  0.00000000000E+00 0. -1.
    9000007    1    1    2  501    0 -0.17345429397E+03 -0.19763555315E+03  0.56938339571E+03  0.74387072484E+03  0.40000000000E+03 0. -1.
   -9000007    1    1    2    0  503  0.17345429397E+03  0.19763555315E+03 -0.91158576289E+02  0.48729466445E+03  0.40000000000E+03 0. -1.
<mgrwt>
<rscale>  2 0.47869218E+03</rscale>
<asrwt>0</asrwt>
<pdfrwt beam="1">  1       21 0.13149155E+00 0.47869218E+03</pdfrwt>
<pdfrwt beam="2">  1       21 0.57918506E-01 0.47869218E+03</pdfrwt>
<totfact> 0.98282491E+02</totfact>
</mgrwt>
</event>
<event>
 4    1  0.4690138E-002  0.4189437E+03  0.7818608E-02  0.1037411E+00
         21   -1    0    0  503  502  0.00000000000E+00  0.00000000000E+00  0.13358849184E+04  0.13358849184E+04  0.00000000000E+00 0.  1.
         21   -1    0    0  501  503 -0.00000000000E+00 -0.00000000000E+00 -0.16969220662E+03  0.16969220662E+03  0.00000000000E+00 0.  1.
    9000007    1    1    2  501    0  0.77265197959E+02 -0.97692992213E+02  0.22542160612E+03  0.47574019385E+03  0.40000000000E+03 0.  1.
   -9000007    1    1    2    0  502 -0.77265197959E+02  0.97692992213E+02  0.94077110564E+03  0.10298369311E+04  0.40000000000E+03 0.  1.
<mgrwt>
<rscale>  2 0.41894371E+03</rscale>
<asrwt>0</asrwt>
<pdfrwt beam="1">  1       21 0.20552075E+00 0.41894371E+03</pdfrwt>
<pdfrwt beam="2">  1       21 0.26106494E-01 0.41894371E+03</pdfrwt>
<totfact> 0.14693551E+03</totfact>
</mgrwt>
</event>
<event>
 4    1  0.4690138E-002  0.4275093E+03  0.7818608E-02  0.1034650E+00
         21   -1    0    0  501  502  0.00000000000E+00  0.00000000000E+00  0.15000969726E+04  0.15000969726E+04  0.00000000000E+00 0. -1.
         21   -1    0    0  502  503 -0.00000000000E+00 -0.00000000000E+00 -0.17931705555E+03  0.17931705555E+03  0.00000000000E+00 0. -1.
    9000007    1    1    2  501    0  0.90557966383E+02 -0.12067908127E+03  0.11358165299E+04  0.12136075871E+04  0.40000000000E+03 0. -1.
   -9000007    1    1    2    0  503 -0.90557966383E+02  0.12067908127E+03  0.18496338718E+03  0.46580644105E+03  0.40000000000E+03 0. -1.
<mgrwt>
<rscale>  2 0.42750928E+03</rscale>
<asrwt>0</asrwt>
<pdfrwt beam="1">  1       21 0.23078414E+00 0.42750928E+03</pdfrwt>
<pdfrwt beam="2">  1       21 0.27587240E-01 0.42750928E+03</pdfrwt>
<totfact> 0.90482435E+02</totfact>
</mgrwt>
</event>
<event>
 4    1  0.4690138E-002  0.1059569E+04  0.7818608E-02  0.9245520E-01
         21   -1    0    0  503  502  0.00000000000E+00  0.00000000000E+00  0.10081925583E+04  0.10081925583E+04  0.00000000000E+00 0. -1.
         21   -1    0    0  501  503 -0.00000000000E+00 -0.00000000000E+00 -0.15503945832E+04  0.15503945832E+04  0.00000000000E+00 0.  1.
    9000007    1    1    2  501    0 -0.97741123755E+03  0.85752049444E+02 -0.95015766321E+03  0.14231956036E+04  0.40000000000E+03 0.  1.
   -9000007    1    1    2    0  502  0.97741123755E+03 -0.85752049444E+02  0.40795563834E+03  0.11353915378E+04  0.40000000000E+03 0. -1.
<mgrwt>
<rscale>  2 0.10595688E+04</rscale>
<asrwt>0</asrwt>
<pdfrwt beam="1">  1       21 0.15510655E+00 0.10595688E+04</pdfrwt>
<pdfrwt beam="2">  1       21 0.23852224E+00 0.10595688E+04</pdfrwt>
<totfact> 0.12281784E+01</totfact>
</mgrwt>
</event>
<event>
 4    1  0.4690138E-002  0.4228986E+03  0.7818608E-02  0.1036127E+00
         21   -1    0    0  501  502  0.00000000000E+00  0.00000000000E+00  0.11379807198E+03  0.11379807198E+03  0.00000000000E+00 0. -1.
         21   -1    0    0  502  503 -0.00000000000E+00 -0.00000000000E+00 -0.16138544266E+04  0.16138544266E+04  0.00000000000E+00 0. -1.
    9000007    1    1    2  501    0 -0.49619963362E+02  0.12798876649E+03 -0.61022697368E+03  0.74244206812E+03  0.40000000000E+03 0. -1.
   -9000007    1    1    2    0  503  0.49619963362E+02 -0.12798876649E+03 -0.88982938092E+03  0.98521043045E+03  0.40000000000E+03 0. -1.
<mgrwt>
<rscale>  2 0.42289865E+03</rscale>
<asrwt>0</asrwt>
<pdfrwt beam="1">  1       21 0.17507398E-01 0.42289865E+03</pdfrwt>
<pdfrwt beam="2">  1       21 0.24828527E+00 0.42289865E+03</pdfrwt>
<totfact> 0.16909572E+03</totfact>
</mgrwt>
</event>
<event>
 4    1  0.4690138E-002  0.4768448E+03  0.7818608E-02  0.1020006E+00
         21   -1    0    0  501  502  0.00000000000E+00  0.00000000000E+00  0.44106255549E+03  0.44106255549E+03  0.00000000000E+00 0. -1.
         21   -1    0    0  502  503 -0.00000000000E+00 -0.00000000000E+00 -0.51602168859E+03  0.51602168859E+03  0.00000000000E+00 0. -1.
    9000007    1    1    2  501    0  0.24014763957E+03 -0.98539813503E+02 -0.22707989981E+02  0.47738520761E+03  0.40000000000E+03 0.  1.
   -9000007    1    1    2    0  503 -0.24014763957E+03  0.98539813503E+02 -0.52251143119E+02  0.47969903647E+03  0.40000000000E+03 0.  1.
<mgrwt>
<rscale>  2 0.47684482E+03</rscale>
<asrwt>0</asrwt>
<pdfrwt beam="1">  1       21 0.67855778E-01 0.47684482E+03</pdfrwt>
<pdfrwt beam="2">  1       21 0.79387952E-01 0.47684482E+03</pdfrwt>
<totfact> 0.23839230E+03</totfact>
</mgrwt>
</event>
<event>
 4    1  0.4690138E-002  0.4171710E+03  0.7818608E-02  0.1037991E+00
         21   -1    0    0  503  502  0.00000000000E+00  0.00000000000E+00  0.41165707758E+03  0.41165707758E+03  0.00000000000E+00 0.  1.
         21   -1    0    0  501  503 -0.00000000000E+00 -0.00000000000E+00 -0.51626045429E+03  0.51626045429E+03  0.00000000000E+00 0.  1.
    9000007    1    1    2  501    0 -0.88583234461E+02  0.78642647375E+02 -0.24975052709E+03  0.48621701039E+03  0.40000000000E+03 0.  1.
   -9000007    1    1    2    0  502  0.88583234461E+02 -0.78642647375E+02  0.14514715037E+03  0.44170052148E+03  0.40000000000E+03 0.  1.
<mgrwt>
<rscale>  2 0.41717101E+03</rscale>
<asrwt>0</asrwt>
<pdfrwt beam="1">  1       21 0.63331858E-01 0.41717101E+03</pdfrwt>
<pdfrwt beam="2">  1       21 0.79424685E-01 0.41717101E+03</pdfrwt>
<totfact> 0.28375438E+03</totfact>
</mgrwt>
</event>
<event>
 4    1  0.4690138E-002  0.4106048E+03  0.7818608E-02  0.1040168E+00
         21   -1    0    0  501  502  0.00000000000E+00  0.00000000000E+00  0.47073021029E+03  0.47073021029E+03  0.00000000000E+00 0. -1.
         21   -1    0    0  502  503 -0.00000000000E+00 -0.00000000000E+00 -0.51990460148E+03  0.51990460148E+03  0.00000000000E+00 0. -1.
    9000007    1    1    2  501    0 -0.56805170377E+02 -0.73276433124E+02  0.25168551840E+03  0.48160342940E+03  0.40000000000E+03 0. -1.
   -9000007    1    1    2    0  503  0.56805170377E+02  0.73276433124E+02 -0.30085990960E+03  0.50903138237E+03  0.40000000000E+03 0. -1.
<mgrwt>
<rscale>  2 0.41060475E+03</rscale>
<asrwt>0</asrwt>
<pdfrwt beam="1">  1       21 0.72420032E-01 0.41060475E+03</pdfrwt>
<pdfrwt beam="2">  1       21 0.79985323E-01 0.41060475E+03</pdfrwt>
<totfact> 0.20744674E+03</totfact>
</mgrwt>
</event>
<event>
 4    1  0.4690138E-002  0.5919426E+03  0.7818608E-02  0.9922265E-01
         21   -1    0    0  503  502  0.00000000000E+00  0.00000000000E+00  0.12644144343E+04  0.12644144343E+04  0.00000000000E+00 0.  1.
         21   -1    0    0  501  503 -0.00000000000E+00 -0.00000000000E+00 -0.69560040242E+03  0.69560040242E+03  0.00000000000E+00 0. -1.
    9000007    1    1    2  501    0  0.23795839147E+03  0.36574836608E+03 -0.47572037617E+03  0.75941157462E+03  0.40000000000E+03 0. -1.
   -9000007    1    1    2    0  502 -0.23795839147E+03 -0.36574836608E+03  0.10445344080E+04  0.12006032621E+04  0.40000000000E+03 0.  1.
<mgrwt>
<rscale>  2 0.59194262E+03</rscale>
<asrwt>0</asrwt>
<pdfrwt beam="1">  1       21 0.19452530E+00 0.59194262E+03</pdfrwt>
<pdfrwt beam="2">  1       21 0.10701545E+00 0.59194262E+03</pdfrwt>
<totfact> 0.75041676E+01</totfact>
</mgrwt>
</event>
<event>
 4    1  0.4690138E-002  0.4082465E+03  0.7818608E-02  0.1040961E+00
         21   -1    0    0  503  502  0.00000000000E+00  0.00000000000E+00  0.47797170325E+03  0.47797170325E+03  0.00000000000E+00 0. -1.
         21   -1    0    0  501  503 -0.00000000000E+00 -0.00000000000E+00 -0.59916114450E+03  0.59916114450E+03  0.00000000000E+00 0. -1.
    9000007    1    1    2  501    0  0.74676441802E+02  0.32994988932E+02 -0.40880690958E+03  0.57774417312E+03  0.40000000000E+03 0. -1.
   -9000007    1    1    2    0  502 -0.74676441802E+02 -0.32994988932E+02  0.28761746834E+03  0.49938867463E+03  0.40000000000E+03 0. -1.
<mgrwt>
<rscale>  2 0.40824654E+03</rscale>
<asrwt>0</asrwt>
<pdfrwt beam="1">  1       21 0.73534108E-01 0.40824654E+03</pdfrwt>
<pdfrwt beam="2">  1       21 0.92178638E-01 0.40824654E+03</pdfrwt>
<totfact> 0.14393523E+03</totfact>
</mgrwt>
</event>
<event>
 4    1  0.4690138E-002  0.4657651E+03  0.7818608E-02  0.1023122E+00
         21   -1    0    0  501  502  0.00000000000E+00  0.00000000000E+00  0.11453229538E+04  0.11453229538E+04  0.00000000000E+00 0. -1.
         21   -1    0    0  502  503 -0.00000000000E+00 -0.00000000000E+00 -0.22173626849E+03  0.22173626849E+03  0.00000000000E+00 0. -1.
    9000007    1    1    2  501    0 -0.16297421910E+03 -0.17428862414E+03  0.72277378122E+03  0.85984827698E+03  0.40000000000E+03 0. -1.
   -9000007    1    1    2    0  503  0.16297421910E+03  0.17428862414E+03  0.20081290409E+03  0.50721094531E+03  0.40000000000E+03 0. -1.
<mgrwt>
<rscale>  2 0.46576509E+03</rscale>
<asrwt>0</asrwt>
<pdfrwt beam="1">  1       21 0.17620353E+00 0.46576509E+03</pdfrwt>
<pdfrwt beam="2">  1       21 0.34113272E-01 0.46576509E+03</pdfrwt>
<totfact> 0.13421400E+03</totfact>
</mgrwt>
</event>
<event>
 4    1  0.4690138E-002  0.4341135E+03  0.7818608E-02  0.1032568E+00
         21   -1    0    0  501  502  0.00000000000E+00  0.00000000000E+00  0.58343258106E+03  0.58343258106E+03  0.00000000000E+00 0. -1.
         21   -1    0    0  502  503 -0.00000000000E+00 -0.00000000000E+00 -0.38973813381E+03  0.38973813381E+03  0.00000000000E+00 0. -1.
    9000007    1    1    2  501    0 -0.30731427625E+01  0.16865658863E+03  0.29818601584E+03  0.52665870271E+03  0.40000000000E+03 0. -1.
   -9000007    1    1    2    0  503  0.30731427625E+01 -0.16865658863E+03 -0.10449156859E+03  0.44651201216E+03  0.40000000000E+03 0. -1.
<mgrwt>
<rscale>  2 0.43411345E+03</rscale>
<asrwt>0</asrwt>
<pdfrwt beam="1">  1       21 0.89758859E-01 0.43411345E+03</pdfrwt>
<pdfrwt beam="2">  1       21 0.59959713E-01 0.43411345E+03</pdfrwt>
<totfact> 0.23902162E+03</totfact>
</mgrwt>
</event>
<event>
 4    1  0.4690138E-002  0.4703488E+03  0.7818608E-02  0.1021822E+00
         21   -1    0    0  503  502  0.00000000000E+00  0.00000000000E+00  0.62521529451E+03  0.62521529451E+03  0.00000000000E+00 0.  1.
         21   -1    0    0  501  503 -0.00000000000E+00 -0.00000000000E+00 -0.37567804623E+03  0.37567804623E+03  0.00000000000E+00 0.  1.
    9000007    1    1    2  501    0  0.13059813986E+02  0.24709805676E+03  0.41185197201E+01  0.47036684684E+03  0.40000000000E+03 0.  1.
   -9000007    1    1    2    0  502 -0.13059813986E+02 -0.24709805676E+03  0.24541872856E+03  0.53052649390E+03  0.40000000000E+03 0.  1.
<mgrwt>
<rscale>  2 0.47034882E+03</rscale>
<asrwt>0</asrwt>
<pdfrwt beam="1">  1       21 0.96186969E-01 0.47034882E+03</pdfrwt>
<pdfrwt beam="2">  1       21 0.57796622E-01 0.47034882E+03</pdfrwt>
<totfact> 0.21669613E+03</totfact>
</mgrwt>
</event>
<event>
 4    1  0.4690138E-002  0.4384067E+03  0.7818608E-02  0.1031237E+00
         21   -1    0    0  503  502  0.00000000000E+00  0.00000000000E+00  0.46182360278E+03  0.46182360278E+03  0.00000000000E+00 0.  1.
         21   -1    0    0  501  503 -0.00000000000E+00 -0.00000000000E+00 -0.41640561950E+03  0.41640561950E+03  0.00000000000E+00 0.  1.
    9000007    1    1    2  501    0 -0.90256173127E+01 -0.17921768754E+03  0.12423806154E+02  0.43858270857E+03  0.40000000000E+03 0.  1.
   -9000007    1    1    2    0  502  0.90256173127E+01  0.17921768754E+03  0.32994177120E+02  0.43964651371E+03  0.40000000000E+03 0.  1.
<mgrwt>
<rscale>  2 0.43840671E+03</rscale>
<asrwt>0</asrwt>
<pdfrwt beam="1">  1       21 0.71049785E-01 0.43840671E+03</pdfrwt>
<pdfrwt beam="2">  1       21 0.64062403E-01 0.43840671E+03</pdfrwt>
<totfact> 0.35386009E+03</totfact>
</mgrwt>
</event>
<event>
 4    1  0.4690138E-002  0.5127200E+03  0.7818608E-02  0.1010511E+00
         21   -1    0    0  503  502  0.00000000000E+00  0.00000000000E+00  0.16785520887E+04  0.16785520887E+04  0.00000000000E+00 0. -1.
         21   -1    0    0  501  503 -0.00000000000E+00 -0.00000000000E+00 -0.27857286215E+03  0.27857286215E+03  0.00000000000E+00 0. -1.
    9000007    1    1    2  501    0  0.27899029420E+03  0.15825996171E+03  0.52505714047E+02  0.51540144523E+03  0.40000000000E+03 0. -1.
   -9000007    1    1    2    0  502 -0.27899029420E+03 -0.15825996171E+03  0.13474735125E+04  0.14417235056E+04  0.40000000000E+03 0. -1.
<mgrwt>
<rscale>  2 0.51272000E+03</rscale>
<asrwt>0</asrwt>
<pdfrwt beam="1">  1       21 0.25823878E+00 0.51272000E+03</pdfrwt>
<pdfrwt beam="2">  1       21 0.42857365E-01 0.51272000E+03</pdfrwt>
<totfact> 0.24033407E+02</totfact>
</mgrwt>
</event>
<event>
 4    1  0.4690138E-002  0.5678093E+03  0.7818608E-02  0.9974538E-01
         21   -1    0    0  501  502  0.00000000000E+00  0.00000000000E+00  0.37952687914E+03  0.37952687914E+03  0.00000000000E+00 0.  1.
         21   -1    0    0  502  503 -0.00000000000E+00 -0.00000000000E+00 -0.89781204829E+03  0.89781204829E+03  0.00000000000E+00 0. -1.
    9000007    1    1    2  501    0  0.15346458468E+03  0.37263397393E+03 -0.40729835895E+03  0.69878423743E+03  0.40000000000E+03 0. -1.
   -9000007    1    1    2    0  503 -0.15346458468E+03 -0.37263397393E+03 -0.11098681020E+03  0.57855469000E+03  0.40000000000E+03 0.  1.
<mgrwt>
<rscale>  2 0.56780935E+03</rscale>
<asrwt>0</asrwt>
<pdfrwt beam="1">  1       21 0.58388751E-01 0.56780935E+03</pdfrwt>
<pdfrwt beam="2">  1       21 0.13812493E+00 0.56780935E+03</pdfrwt>
<totfact> 0.82119342E+02</totfact>
</mgrwt>
</event>
<event>
 4    1  0.4690138E-002  0.4103175E+03  0.7818608E-02  0.1040265E+00
         21   -1    0    0  501  502  0.00000000000E+00  0.00000000000E+00  0.26383195051E+03  0.26383195051E+03  0.00000000000E+00 0.  1.
         21   -1    0    0  502  503 -0.00000000000E+00 -0.00000000000E+00 -0.66852051113E+03  0.66852051113E+03  0.00000000000E+00 0.  1.
    9000007    1    1    2  501    0 -0.84210868470E+02  0.35622622517E+02 -0.10295833996E+03  0.42303765952E+03  0.40000000000E+03 0.  1.
   -9000007    1    1    2    0  503  0.84210868470E+02 -0.35622622517E+02 -0.30173022066E+03  0.50931480213E+03  0.40000000000E+03 0.  1.
<mgrwt>
<rscale>  2 0.41031749E+03</rscale>
<asrwt>0</asrwt>
<pdfrwt beam="1">  1       21 0.40589531E-01 0.41031749E+03</pdfrwt>
<pdfrwt beam="2">  1       21 0.10284931E+00 0.41031749E+03</pdfrwt>
<totfact> 0.39797081E+03</totfact>
</mgrwt>
</event>
<event>
 4    1  0.4690138E-002  0.7005674E+03  0.7818608E-02  0.9716262E-01
         21   -1    0    0  501  502  0.00000000000E+00  0.00000000000E+00  0.21846654566E+04  0.21846654566E+04  0.00000000000E+00 0. -1.
         21   -1    0    0  502  503 -0.00000000000E+00 -0.00000000000E+00 -0.37000912840E+03  0.37000912840E+03  0.00000000000E+00 0.  1.
    9000007    1    1    2  501    0  0.14244907433E+03 -0.55722786486E+03  0.17079252517E+04  0.18460236449E+04  0.40000000000E+03 0. -1.
   -9000007    1    1    2    0  503 -0.14244907433E+03  0.55722786486E+03  0.10673107646E+03  0.70865094005E+03  0.40000000000E+03 0.  1.
<mgrwt>
<rscale>  2 0.70056736E+03</rscale>
<asrwt>0</asrwt>
<pdfrwt beam="1">  1       21 0.33610237E+00 0.70056736E+03</pdfrwt>
<pdfrwt beam="2">  1       21 0.56924483E-01 0.70056736E+03</pdfrwt>
<totfact> 0.40126131E+01</totfact>
</mgrwt>
</event>
<event>
 4    1  0.4690138E-002  0.5423421E+03  0.7818608E-02  0.1003282E+00
         21   -1    0    0  501  502  0.00000000000E+00  0.00000000000E+00  0.43558128002E+03  0.43558128002E+03  0.00000000000E+00 0. -1.
         21   -1    0    0  502  503 -0.00000000000E+00 -0.00000000000E+00 -0.73983907522E+03  0.73983907522E+03  0.00000000000E+00 0.  1.
    9000007    1    1    2  501    0  0.26728376524E+03  0.25038840111E+03  0.21493970850E+02  0.54276786323E+03  0.40000000000E+03 0.  1.
   -9000007    1    1    2    0  503 -0.26728376524E+03 -0.25038840111E+03 -0.32575176605E+03  0.63265249202E+03  0.40000000000E+03 0. -1.
<mgrwt>
<rscale>  2 0.54234211E+03</rscale>
<asrwt>0</asrwt>
<pdfrwt beam="1">  1       21 0.67012505E-01 0.54234211E+03</pdfrwt>
<pdfrwt beam="2">  1       21 0.11382139E+00 0.54234211E+03</pdfrwt>
<totfact> 0.10065671E+03</totfact>
</mgrwt>
</event>
<event>
 4    1  0.4690138E-002  0.4515748E+03  0.7818608E-02  0.1027253E+00
         21   -1    0    0  501  502  0.00000000000E+00  0.00000000000E+00  0.25869076874E+03  0.25869076874E+03  0.00000000000E+00 0.  1.
         21   -1    0    0  502  503 -0.00000000000E+00 -0.00000000000E+00 -0.80203456828E+03  0.80203456828E+03  0.00000000000E+00 0.  1.
    9000007    1    1    2  501    0 -0.20448888132E+03 -0.45870031398E+02 -0.20220775222E+03  0.49478049418E+03  0.40000000000E+03 0.  1.
   -9000007    1    1    2    0  503  0.20448888132E+03  0.45870031398E+02 -0.34113604732E+03  0.56594484284E+03  0.40000000000E+03 0.  1.
<mgrwt>
<rscale>  2 0.45157476E+03</rscale>
<asrwt>0</asrwt>
<pdfrwt beam="1">  1       21 0.39798580E-01 0.45157476E+03</pdfrwt>
<pdfrwt beam="2">  1       21 0.12338993E+00 0.45157476E+03</pdfrwt>
<totfact> 0.25907302E+03</totfact>
</mgrwt>
</event>
<event>
 4    1  0.4690138E-002  0.4129897E+03  0.7818608E-02  0.1039372E+00
         21   -1    0    0  501  502  0.00000000000E+00  0.00000000000E+00  0.79807591509E+03  0.79807591509E+03  0.00000000000E+00 0. -1.
         21   -1    0    0  502  503 -0.00000000000E+00 -0.00000000000E+00 -0.29402719732E+03  0.29402719732E+03  0.00000000000E+00 0. -1.
    9000007    1    1    2  501    0  0.18198364255E+01 -0.10274825434E+03  0.53740965623E+03  0.67776814190E+03  0.40000000000E+03 0. -1.
   -9000007    1    1    2    0  503 -0.18198364255E+01  0.10274825434E+03 -0.33360938450E+02  0.41433497051E+03  0.40000000000E+03 0. -1.
<mgrwt>
<rscale>  2 0.41298973E+03</rscale>
<asrwt>0</asrwt>
<pdfrwt beam="1">  1       21 0.12278091E+00 0.41298973E+03</pdfrwt>
<pdfrwt beam="2">  1       21 0.45234954E-01 0.41298973E+03</pdfrwt>
<totfact> 0.20420694E+03</totfact>
</mgrwt>
</event>
<event>
 4    1  0.4690138E-002  0.4219675E+03  0.7818608E-02  0.1036428E+00
         21   -1    0    0  501  502  0.00000000000E+00  0.00000000000E+00  0.58105657324E+03  0.58105657324E+03  0.00000000000E+00 0.  1.
         21   -1    0    0  502  503 -0.00000000000E+00 -0.00000000000E+00 -0.33568591224E+03  0.33568591224E+03  0.00000000000E+00 0.  1.
    9000007    1    1    2  501    0  0.12049733009E+03 -0.59472451763E+02  0.25799038534E+03  0.49458630997E+03  0.40000000000E+03 0. -1.
   -9000007    1    1    2    0  503 -0.12049733009E+03  0.59472451763E+02 -0.12619724340E+02  0.42215617551E+03  0.40000000000E+03 0. -1.
<mgrwt>
<rscale>  2 0.42196751E+03</rscale>
<asrwt>0</asrwt>
<pdfrwt beam="1">  1       21 0.89393319E-01 0.42196751E+03</pdfrwt>
<pdfrwt beam="2">  1       21 0.51643986E-01 0.42196751E+03</pdfrwt>
<totfact> 0.33476791E+03</totfact>
</mgrwt>
</event>
<event>
 4    1  0.4690138E-002  0.5831830E+03  0.7818608E-02  0.9940924E-01
         21   -1    0    0  503  502  0.00000000000E+00  0.00000000000E+00  0.10597999305E+04  0.10597999305E+04  0.00000000000E+00 0.  1.
         21   -1    0    0  501  503 -0.00000000000E+00 -0.00000000000E+00 -0.38987995363E+03  0.38987995363E+03  0.00000000000E+00 0. -1.
    9000007    1    1    2  501    0  0.34346823875E+02  0.42299256423E+03  0.30099854570E+02  0.58395925795E+03  0.40000000000E+03 0. -1.
   -9000007    1    1    2    0  502 -0.34346823875E+02 -0.42299256423E+03  0.63982012232E+03  0.86572062620E+03  0.40000000000E+03 0.  1.
<mgrwt>
<rscale>  2 0.58318300E+03</rscale>
<asrwt>0</asrwt>
<pdfrwt beam="1">  1       21 0.16304614E+00 0.58318300E+03</pdfrwt>
<pdfrwt beam="2">  1       21 0.59981532E-01 0.58318300E+03</pdfrwt>
<totfact> 0.48833167E+02</totfact>
</mgrwt>
</event>
<event>
 4    1  0.4690138E-002  0.4028461E+03  0.7818608E-02  0.1042799E+00
         21   -1    0    0  503  502  0.00000000000E+00  0.00000000000E+00  0.21735277541E+03  0.21735277541E+03  0.00000000000E+00 0.  1.
         21   -1    0    0  501  503 -0.00000000000E+00 -0.00000000000E+00 -0.93668561408E+03  0.93668561408E+03  0.00000000000E+00 0.  1.
    9000007    1    1    2  501    0  0.47531653669E+02 -0.50689031767E+01 -0.61957385778E+03  0.73902416546E+03  0.40000000000E+03 0. -1.
   -9000007    1    1    2    0  502 -0.47531653669E+02  0.50689031767E+01 -0.99758980895E+02  0.41501422403E+03  0.40000000000E+03 0. -1.
<mgrwt>
<rscale>  2 0.40284606E+03</rscale>
<asrwt>0</asrwt>
<pdfrwt beam="1">  1       21 0.33438889E-01 0.40284606E+03</pdfrwt>
<pdfrwt beam="2">  1       21 0.14410548E+00 0.40284606E+03</pdfrwt>
<totfact> 0.25082034E+03</totfact>
</mgrwt>
</event>
<event>
 4    1  0.4690138E-002  0.4194010E+03  0.7818608E-02  0.1037261E+00
         21   -1    0    0  501  502  0.00000000000E+00  0.00000000000E+00  0.34621361435E+03  0.34621361435E+03  0.00000000000E+00 0. -1.
         21   -1    0    0  502  503 -0.00000000000E+00 -0.00000000000E+00 -0.74439680489E+03  0.74439680489E+03  0.00000000000E+00 0. -1.
    9000007    1    1    2  501    0  0.12608349150E+03  0.37274499919E+00  0.10816651151E+03  0.43312490113E+03  0.40000000000E+03 0. -1.
   -9000007    1    1    2    0  503 -0.12608349150E+03 -0.37274499919E+00 -0.50634970204E+03  0.65748551811E+03  0.40000000000E+03 0. -1.
<mgrwt>
<rscale>  2 0.41940098E+03</rscale>
<asrwt>0</asrwt>
<pdfrwt beam="1">  1       21 0.53263633E-01 0.41940098E+03</pdfrwt>
<pdfrwt beam="2">  1       21 0.11452258E+00 0.41940098E+03</pdfrwt>
<totfact> 0.17177164E+03</totfact>
</mgrwt>
</event>
<event>
 4    1  0.4690138E-002  0.4212557E+03  0.7818608E-02  0.1036658E+00
         21   -1    0    0  503  502  0.00000000000E+00  0.00000000000E+00  0.20596497196E+03  0.20596497196E+03  0.00000000000E+00 0. -1.
         21   -1    0    0  501  503 -0.00000000000E+00 -0.00000000000E+00 -0.96504929606E+03  0.96504929606E+03  0.00000000000E+00 0. -1.
    9000007    1    1    2  501    0 -0.49733219811E+02 -0.12240497502E+03 -0.57125547881E+03  0.70978108817E+03  0.40000000000E+03 0. -1.
   -9000007    1    1    2    0  502  0.49733219811E+02  0.12240497502E+03 -0.18782884529E+03  0.46123317984E+03  0.40000000000E+03 0. -1.
<mgrwt>
<rscale>  2 0.42125571E+03</rscale>
<asrwt>0</asrwt>
<pdfrwt beam="1">  1       21 0.31686919E-01 0.42125571E+03</pdfrwt>
<pdfrwt beam="2">  1       21 0.14846912E+00 0.42125571E+03</pdfrwt>
<totfact> 0.25584519E+03</totfact>
</mgrwt>
</event>
<event>
 4    1  0.4690138E-002  0.4132731E+03  0.7818608E-02  0.1039278E+00
         21   -1    0    0  503  502  0.00000000000E+00  0.00000000000E+00  0.36797476797E+03  0.36797476797E+03  0.00000000000E+00 0. -1.
         21   -1    0    0  501  503 -0.00000000000E+00 -0.00000000000E+00 -0.11195550713E+04  0.11195550713E+04  0.00000000000E+00 0. -1.
    9000007    1    1    2  501    0 -0.14710596219E+02 -0.10285081404E+03 -0.94486393179E+03  0.10312916858E+04  0.40000000000E+03 0. -1.
   -9000007    1    1    2    0  502  0.14710596219E+02  0.10285081404E+03  0.19328362852E+03  0.45623815343E+03  0.40000000000E+03 0. -1.
<mgrwt>
<rscale>  2 0.41327314E+03</rscale>
<asrwt>0</asrwt>
<pdfrwt beam="1">  1       21 0.56611503E-01 0.41327314E+03</pdfrwt>
<pdfrwt beam="2">  1       21 0.17223924E+00 0.41327314E+03</pdfrwt>
<totfact> 0.50986001E+02</totfact>
</mgrwt>
</event>
<event>
 4    1  0.4690138E-002  0.6981080E+03  0.7818608E-02  0.9720473E-01
         21   -1    0    0  503  502  0.00000000000E+00  0.00000000000E+00  0.16078423593E+04  0.16078423593E+04  0.00000000000E+00 0.  1.
         21   -1    0    0  501  503 -0.00000000000E+00 -0.00000000000E+00 -0.63563972613E+03  0.63563972613E+03  0.00000000000E+00 0.  1.
    9000007    1    1    2  501    0  0.15186726467E+03  0.55162592020E+03 -0.32523633627E+03  0.77015160608E+03  0.40000000000E+03 0.  1.
   -9000007    1    1    2    0  502 -0.15186726467E+03 -0.55162592020E+03  0.12974389694E+04  0.14733304793E+04  0.40000000000E+03 0.  1.
<mgrwt>
<rscale>  2 0.69810803E+03</rscale>
<asrwt>0</asrwt>
<pdfrwt beam="1">  1       21 0.24736036E+00 0.69810803E+03</pdfrwt>
<pdfrwt beam="2">  1       21 0.97790728E-01 0.69810803E+03</pdfrwt>
<totfact> 0.40633784E+01</totfact>
</mgrwt>
</event>
<event>
 4    1  0.4690138E-002  0.4667291E+03  0.7818608E-02  0.1022847E+00
         21   -1    0    0  501  502  0.00000000000E+00  0.00000000000E+00  0.35206863391E+03  0.35206863391E+03  0.00000000000E+00 0. -1.
         21   -1    0    0  502  503 -0.00000000000E+00 -0.00000000000E+00 -0.70147895138E+03  0.70147895138E+03  0.00000000000E+00 0.  1.
    9000007    1    1    2  501    0 -0.22423743533E+03  0.86911504841E+02  0.62177377725E+01  0.46677049750E+03  0.40000000000E+03 0. -1.
   -9000007    1    1    2    0  503  0.22423743533E+03 -0.86911504841E+02 -0.35562805524E+03  0.58677708779E+03  0.40000000000E+03 0. -1.
<mgrwt>
<rscale>  2 0.46672908E+03</rscale>
<asrwt>0</asrwt>
<pdfrwt beam="1">  1       21 0.54164405E-01 0.46672908E+03</pdfrwt>
<pdfrwt beam="2">  1       21 0.10791984E+00 0.46672908E+03</pdfrwt>
<totfact> 0.18850438E+03</totfact>
</mgrwt>
</event>
<event>
 4    1  0.4690138E-002  0.5083964E+03  0.7818608E-02  0.1011610E+00
         21   -1    0    0  503  502  0.00000000000E+00  0.00000000000E+00  0.23007374472E+03  0.23007374472E+03  0.00000000000E+00 0. -1.
         21   -1    0    0  501  503 -0.00000000000E+00 -0.00000000000E+00 -0.11342120830E+04  0.11342120830E+04  0.00000000000E+00 0. -1.
    9000007    1    1    2  501    0 -0.14547191473E+02  0.31345693256E+03 -0.51864339468E+03  0.72626292773E+03  0.40000000000E+03 0. -1.
   -9000007    1    1    2    0  502  0.14547191473E+02 -0.31345693256E+03 -0.38549494356E+03  0.63802289995E+03  0.40000000000E+03 0. -1.
<mgrwt>
<rscale>  2 0.50839637E+03</rscale>
<asrwt>0</asrwt>
<pdfrwt beam="1">  1       21 0.35395961E-01 0.50839637E+03</pdfrwt>
<pdfrwt beam="2">  1       21 0.17449416E+00 0.50839637E+03</pdfrwt>
<totfact> 0.12596684E+03</totfact>
</mgrwt>
</event>
<event>
 4    1  0.4690138E-002  0.4723978E+03  0.7818608E-02  0.1021246E+00
         21   -1    0    0  503  502  0.00000000000E+00  0.00000000000E+00  0.77120971222E+03  0.77120971222E+03  0.00000000000E+00 0.  1.
         21   -1    0    0  501  503 -0.00000000000E+00 -0.00000000000E+00 -0.34046245803E+03  0.34046245803E+03  0.00000000000E+00 0. -1.
    9000007    1    1    2  501    0 -0.18417355591E+03 -0.17099642347E+03  0.36154795535E-01  0.47239779513E+03  0.40000000000E+03 0. -1.
   -9000007    1    1    2    0  502  0.18417355591E+03  0.17099642347E+03  0.43071109940E+03  0.63927437512E+03  0.40000000000E+03 0.  1.
<mgrwt>
<rscale>  2 0.47239779E+03</rscale>
<asrwt>0</asrwt>
<pdfrwt beam="1">  1       21 0.11864765E+00 0.47239779E+03</pdfrwt>
<pdfrwt beam="2">  1       21 0.52378840E-01 0.47239779E+03</pdfrwt>
<totfact> 0.15955311E+03</totfact>
</mgrwt>
</event>
<event>
 4    1  0.4690138E-002  0.5056360E+03  0.7818608E-02  0.1012318E+00
         21   -1    0    0  503  502  0.00000000000E+00  0.00000000000E+00  0.14989332192E+03  0.14989332192E+03  0.00000000000E+00 0.  1.
         21   -1    0    0  501  503 -0.00000000000E+00 -0.00000000000E+00 -0.29611294305E+04  0.29611294305E+04  0.00000000000E+00 0.  1.
    9000007    1    1    2  501    0 -0.30405619605E+03 -0.56723782454E+02 -0.24184718109E+04  0.24707637803E+04  0.40000000000E+03 0.  1.
   -9000007    1    1    2    0  502  0.30405619605E+03  0.56723782454E+02 -0.39276429765E+03  0.64025897210E+03  0.40000000000E+03 0.  1.
<mgrwt>
<rscale>  2 0.50563599E+03</rscale>
<asrwt>0</asrwt>
<pdfrwt beam="1">  1       21 0.23060514E-01 0.50563599E+03</pdfrwt>
<pdfrwt beam="2">  1       21 0.45555832E+00 0.50563599E+03</pdfrwt>
<totfact> 0.47979447E+01</totfact>
</mgrwt>
</event>
<event>
 4    1  0.4690138E-002  0.5344262E+03  0.7818608E-02  0.1005164E+00
         21   -1    0    0  501  502  0.00000000000E+00  0.00000000000E+00  0.32018909359E+03  0.32018909359E+03  0.00000000000E+00 0. -1.
         21   -1    0    0  502  503 -0.00000000000E+00 -0.00000000000E+00 -0.12913564704E+04  0.12913564704E+04  0.00000000000E+00 0. -1.
    9000007    1    1    2  501    0 -0.35433087434E+03 -0.78077444064E+01 -0.37493565654E+02  0.53573976598E+03  0.40000000000E+03 0. -1.
   -9000007    1    1    2    0  503  0.35433087434E+03  0.78077444064E+01 -0.93367381120E+03  0.10758057980E+04  0.40000000000E+03 0. -1.
<mgrwt>
<rscale>  2 0.53442617E+03</rscale>
<asrwt>0</asrwt>
<pdfrwt beam="1">  1       21 0.49259861E-01 0.53442617E+03</pdfrwt>
<pdfrwt beam="2">  1       21 0.19867023E+00 0.53442617E+03</pdfrwt>
<totfact> 0.42566449E+02</totfact>
</mgrwt>
</event>
<event>
 4    1  0.4690138E-002  0.4608261E+03  0.7818608E-02  0.1024542E+00
         21   -1    0    0  501  502  0.00000000000E+00  0.00000000000E+00  0.74695963322E+03  0.74695963322E+03  0.00000000000E+00 0.  1.
         21   -1    0    0  502  503 -0.00000000000E+00 -0.00000000000E+00 -0.36605427295E+03  0.36605427295E+03  0.00000000000E+00 0. -1.
    9000007    1    1    2  501    0  0.11225971111E+03 -0.19939519390E+03  0.45345093279E+03  0.64651251692E+03  0.40000000000E+03 0.  1.
   -9000007    1    1    2    0  503 -0.11225971111E+03  0.19939519390E+03 -0.72545572521E+02  0.46650138926E+03  0.40000000000E+03 0. -1.
<mgrwt>
<rscale>  2 0.46082609E+03</rscale>
<asrwt>0</asrwt>
<pdfrwt beam="1">  1       21 0.11491687E+00 0.46082609E+03</pdfrwt>
<pdfrwt beam="2">  1       21 0.56316042E-01 0.46082609E+03</pdfrwt>
<totfact> 0.14853230E+03</totfact>
</mgrwt>
</event>
<event>
 4    1  0.4690138E-002  0.4523345E+03  0.7818608E-02  0.1027028E+00
         21   -1    0    0  503  502  0.00000000000E+00  0.00000000000E+00  0.11233964903E+04  0.11233964903E+04  0.00000000000E+00 0. -1.
         21   -1    0    0  501  503 -0.00000000000E+00 -0.00000000000E+00 -0.18517152641E+03  0.18517152641E+03  0.00000000000E+00 0.  1.
    9000007    1    1    2  501    0 -0.10001463668E+03 -0.18602045074E+03  0.38528687840E+03  0.59418222316E+03  0.40000000000E+03 0.  1.
   -9000007    1    1    2    0  502  0.10001463668E+03  0.18602045074E+03  0.55293808547E+03  0.71438579354E+03  0.40000000000E+03 0. -1.
<mgrwt>
<rscale>  2 0.45233454E+03</rscale>
<asrwt>0</asrwt>
<pdfrwt beam="1">  1       21 0.17283023E+00 0.45233454E+03</pdfrwt>
<pdfrwt beam="2">  1       21 0.28487928E-01 0.45233454E+03</pdfrwt>
<totfact> 0.20450601E+03</totfact>
</mgrwt>
</event>
<event>
 4    1  0.4690138E-002  0.4001240E+03  0.7818608E-02  0.1043737E+00
         21   -1    0    0  501  502  0.00000000000E+00  0.00000000000E+00  0.96983909486E+02  0.96983909486E+02  0.00000000000E+00 0.  1.
         21   -1    0    0  502  503 -0.00000000000E+00 -0.00000000000E+00 -0.21698667097E+04  0.21698667097E+04  0.00000000000E+00 0.  1.
    9000007    1    1    2  501    0  0.79720551891E+01  0.59748593566E+01 -0.48207657488E+03  0.62649587122E+03  0.40000000000E+03 0.  1.
   -9000007    1    1    2    0  503 -0.79720551891E+01 -0.59748593566E+01 -0.15908062253E+04  0.16403547479E+04  0.40000000000E+03 0.  1.
<mgrwt>
<rscale>  2 0.40012405E+03</rscale>
<asrwt>0</asrwt>
<pdfrwt beam="1">  1       21 0.14920603E-01 0.40012405E+03</pdfrwt>
<pdfrwt beam="2">  1       21 0.33382561E+00 0.40012405E+03</pdfrwt>
<totfact> 0.70484301E+02</totfact>
</mgrwt>
</event>
<event>
 4    1  0.4690138E-002  0.4180159E+03  0.7818608E-02  0.1037714E+00
         21   -1    0    0  503  502  0.00000000000E+00  0.00000000000E+00  0.97703412503E+03  0.97703412503E+03  0.00000000000E+00 0.  1.
         21   -1    0    0  501  503 -0.00000000000E+00 -0.00000000000E+00 -0.22421618451E+03  0.22421618451E+03  0.00000000000E+00 0.  1.
    9000007    1    1    2  501    0  0.32673425716E+02  0.11691775160E+03  0.10622359707E+03  0.43130124735E+03  0.40000000000E+03 0.  1.
   -9000007    1    1    2    0  502 -0.32673425716E+02 -0.11691775160E+03  0.64659434346E+03  0.76994906220E+03  0.40000000000E+03 0.  1.
<mgrwt>
<rscale>  2 0.41801592E+03</rscale>
<asrwt>0</asrwt>
<pdfrwt beam="1">  1       21 0.15031294E+00 0.41801592E+03</pdfrwt>
<pdfrwt beam="2">  1       21 0.34494798E-01 0.41801592E+03</pdfrwt>
<totfact> 0.20895892E+03</totfact>
</mgrwt>
</event>
<event>
 4    1  0.4690138E-002  0.4302704E+03  0.7818608E-02  0.1033775E+00
         21   -1    0    0  501  502  0.00000000000E+00  0.00000000000E+00  0.11102921195E+04  0.11102921195E+04  0.00000000000E+00 0.  1.
         21   -1    0    0  502  503 -0.00000000000E+00 -0.00000000000E+00 -0.49333560557E+03  0.49333560557E+03  0.00000000000E+00 0.  1.
    9000007    1    1    2  501    0  0.10511217618E+03  0.11867623925E+03  0.96086630275E+03  0.10528041941E+04  0.40000000000E+03 0.  1.
   -9000007    1    1    2    0  503 -0.10511217618E+03 -0.11867623925E+03 -0.34390978887E+03  0.55082353093E+03  0.40000000000E+03 0.  1.
<mgrwt>
<rscale>  2 0.43027040E+03</rscale>
<asrwt>0</asrwt>
<pdfrwt beam="1">  1       21 0.17081417E+00 0.43027040E+03</pdfrwt>
<pdfrwt beam="2">  1       21 0.75897786E-01 0.43027040E+03</pdfrwt>
<totfact> 0.26966992E+02</totfact>
</mgrwt>
</event>
<event>
 4    1  0.4690138E-002  0.4633137E+03  0.7818608E-02  0.1023825E+00
         21   -1    0    0  503  502  0.00000000000E+00  0.00000000000E+00  0.13695829134E+04  0.13695829134E+04  0.00000000000E+00 0. -1.
         21   -1    0    0  501  503 -0.00000000000E+00 -0.00000000000E+00 -0.16219664259E+03  0.16219664259E+03  0.00000000000E+00 0.  1.
    9000007    1    1    2  501    0 -0.13185857117E+03  0.19306190030E+03  0.74425417777E+03  0.87668344416E+03  0.40000000000E+03 0. -1.
   -9000007    1    1    2    0  502  0.13185857117E+03 -0.19306190030E+03  0.46313209306E+03  0.65509611185E+03  0.40000000000E+03 0.  1.
<mgrwt>
<rscale>  2 0.46331370E+03</rscale>
<asrwt>0</asrwt>
<pdfrwt beam="1">  1       21 0.21070506E+00 0.46331370E+03</pdfrwt>
<pdfrwt beam="2">  1       21 0.24953331E-01 0.46331370E+03</pdfrwt>
<totfact> 0.14544436E+03</totfact>
</mgrwt>
</event>
<event>
 4    1  0.4690138E-002  0.5443182E+03  0.7818608E-02  0.1002818E+00
         21   -1    0    0  501  502  0.00000000000E+00  0.00000000000E+00  0.41238845926E+03  0.41238845926E+03  0.00000000000E+00 0. -1.
         21   -1    0    0  502  503 -0.00000000000E+00 -0.00000000000E+00 -0.76755766763E+03  0.76755766763E+03  0.00000000000E+00 0. -1.
    9000007    1    1    2  501    0 -0.35546772910E+03 -0.99624445559E+02 -0.28363065596E+02  0.54505669437E+03  0.40000000000E+03 0. -1.
   -9000007    1    1    2    0  503  0.35546772910E+03  0.99624445559E+02 -0.32680614278E+03  0.63488943253E+03  0.40000000000E+03 0. -1.
<mgrwt>
<rscale>  2 0.54431823E+03</rscale>
<asrwt>0</asrwt>
<pdfrwt beam="1">  1       21 0.63444378E-01 0.54431823E+03</pdfrwt>
<pdfrwt beam="2">  1       21 0.11808580E+00 0.54431823E+03</pdfrwt>
<totfact> 0.10360804E+03</totfact>
</mgrwt>
</event>
<event>
 4    1  0.4690138E-002  0.5830330E+03  0.7818608E-02  0.9941246E-01
         21   -1    0    0  503  502  0.00000000000E+00  0.00000000000E+00  0.61951159129E+03  0.61951159129E+03  0.00000000000E+00 0. -1.
         21   -1    0    0  501  503 -0.00000000000E+00 -0.00000000000E+00 -0.57466072234E+03  0.57466072234E+03  0.00000000000E+00 0. -1.
    9000007    1    1    2  501    0 -0.14117071952E+03 -0.39999792056E+03  0.14932770716E+03  0.60185236780E+03  0.40000000000E+03 0. -1.
   -9000007    1    1    2    0  502  0.14117071952E+03  0.39999792056E+03 -0.10447683821E+03  0.59231994583E+03  0.40000000000E+03 0. -1.
<mgrwt>
<rscale>  2 0.58303303E+03</rscale>
<asrwt>0</asrwt>
<pdfrwt beam="1">  1       21 0.95309476E-01 0.58303303E+03</pdfrwt>
<pdfrwt beam="2">  1       21 0.88409342E-01 0.58303303E+03</pdfrwt>
<totfact> 0.81217470E+02</totfact>
</mgrwt>
</event>
<event>
 4    1  0.4690138E-002  0.5543105E+03  0.7818608E-02  0.1000501E+00
         21   -1    0    0  503  502  0.00000000000E+00  0.00000000000E+00  0.50438719349E+03  0.50438719349E+03  0.00000000000E+00 0. -1.
         21   -1    0    0  501  503 -0.00000000000E+00 -0.00000000000E+00 -0.63448088896E+03  0.63448088896E+03  0.00000000000E+00 0. -1.
    9000007    1    1    2  501    0  0.31663087035E+03 -0.21680648464E+03  0.48674867160E+02  0.55644353041E+03  0.40000000000E+03 0. -1.
   -9000007    1    1    2    0  502 -0.31663087035E+03  0.21680648464E+03 -0.17876856263E+03  0.58242455204E+03  0.40000000000E+03 0. -1.
<mgrwt>
<rscale>  2 0.55431053E+03</rscale>
<asrwt>0</asrwt>
<pdfrwt beam="1">  1       21 0.77598029E-01 0.55431053E+03</pdfrwt>
<pdfrwt beam="2">  1       21 0.97612445E-01 0.55431053E+03</pdfrwt>
<totfact> 0.10500249E+03</totfact>
</mgrwt>
</event>
<event>
 4    1  0.4690138E-002  0.4250377E+03  0.7818608E-02  0.1035439E+00
         21   -1    0    0  501  502  0.00000000000E+00  0.00000000000E+00  0.10932425673E+04  0.10932425673E+04  0.00000000000E+00 0. -1.
         21   -1    0    0  502  503 -0.00000000000E+00 -0.00000000000E+00 -0.26035859495E+03  0.26035859495E+03  0.00000000000E+00 0.  1.
    9000007    1    1    2  501    0 -0.89491711403E+02  0.11246473698E+03  0.82550221634E+03  0.92849932292E+03  0.40000000000E+03 0. -1.
   -9000007    1    1    2    0  503  0.89491711403E+02 -0.11246473698E+03  0.73817559948E+01  0.42510183932E+03  0.40000000000E+03 0.  1.
<mgrwt>
<rscale>  2 0.42503774E+03</rscale>
<asrwt>0</asrwt>
<pdfrwt beam="1">  1       21 0.16819116E+00 0.42503774E+03</pdfrwt>
<pdfrwt beam="2">  1       21 0.40055169E-01 0.42503774E+03</pdfrwt>
<totfact> 0.11253469E+03</totfact>
</mgrwt>
</event>
<event>
 4    1  0.4690138E-002  0.4246626E+03  0.7818608E-02  0.1035559E+00
         21   -1    0    0  501  502  0.00000000000E+00  0.00000000000E+00  0.12023357949E+04  0.12023357949E+04  0.00000000000E+00 0. -1.
         21   -1    0    0  502  503 -0.00000000000E+00 -0.00000000000E+00 -0.15072505228E+03  0.15072505228E+03  0.00000000000E+00 0. -1.
    9000007    1    1    2  501    0  0.13841194513E+03 -0.34358055456E+02  0.47856051321E+03  0.63981130604E+03  0.40000000000E+03 0. -1.
   -9000007    1    1    2    0  503 -0.13841194513E+03  0.34358055456E+02  0.57305022941E+03  0.71324954116E+03  0.40000000000E+03 0. -1.
<mgrwt>
<rscale>  2 0.42466262E+03</rscale>
<asrwt>0</asrwt>
<pdfrwt beam="1">  1       21 0.18497473E+00 0.42466262E+03</pdfrwt>
<pdfrwt beam="2">  1       21 0.23188470E-01 0.42466262E+03</pdfrwt>
<totfact> 0.25366326E+03</totfact>
</mgrwt>
</event>
<event>
 4    1  0.4690138E-002  0.4997093E+03  0.7818608E-02  0.1013855E+00
         21   -1    0    0  503  502  0.00000000000E+00  0.00000000000E+00  0.10919068329E+04  0.10919068329E+04  0.00000000000E+00 0. -1.
         21   -1    0    0  501  503 -0.00000000000E+00 -0.00000000000E+00 -0.53524467242E+03  0.53524467242E+03  0.00000000000E+00 0. -1.
    9000007    1    1    2  501    0  0.17209561452E+03  0.24513765633E+03 -0.33737722693E+03  0.60293678303E+03  0.40000000000E+03 0. -1.
   -9000007    1    1    2    0  502 -0.17209561452E+03 -0.24513765633E+03  0.89403938737E+03  0.10242147222E+04  0.40000000000E+03 0. -1.
<mgrwt>
<rscale>  2 0.49970929E+03</rscale>
<asrwt>0</asrwt>
<pdfrwt beam="1">  1       21 0.16798567E+00 0.49970929E+03</pdfrwt>
<pdfrwt beam="2">  1       21 0.82345335E-01 0.49970929E+03</pdfrwt>
<totfact> 0.22640382E+02</totfact>
</mgrwt>
</event>
<event>
 4    1  0.4690138E-002  0.4288575E+03  0.7818608E-02  0.1034221E+00
         21   -1    0    0  501  502  0.00000000000E+00  0.00000000000E+00  0.56457503373E+03  0.56457503373E+03  0.00000000000E+00 0. -1.
         21   -1    0    0  502  503 -0.00000000000E+00 -0.00000000000E+00 -0.43537130534E+03  0.43537130534E+03  0.00000000000E+00 0. -1.
    9000007    1    1    2  501    0  0.14281096611E+03 -0.59361435102E+02  0.31546375202E+03  0.53238720012E+03  0.40000000000E+03 0. -1.
   -9000007    1    1    2    0  503 -0.14281096611E+03  0.59361435102E+02 -0.18626002362E+03  0.46755913895E+03  0.40000000000E+03 0. -1.
<mgrwt>
<rscale>  2 0.42885750E+03</rscale>
<asrwt>0</asrwt>
<pdfrwt beam="1">  1       21 0.86857698E-01 0.42885750E+03</pdfrwt>
<pdfrwt beam="2">  1       21 0.66980200E-01 0.42885750E+03</pdfrwt>
<totfact> 0.20260323E+03</totfact>
</mgrwt>
</event>
<event>
 4    1  0.4690138E-002  0.6606318E+03  0.7818608E-02  0.9787031E-01
         21   -1    0    0  503  502  0.00000000000E+00  0.00000000000E+00  0.66815472578E+03  0.66815472578E+03  0.00000000000E+00 0.  1.
         21   -1    0    0  501  503 -0.00000000000E+00 -0.00000000000E+00 -0.70457691421E+03  0.70457691421E+03  0.00000000000E+00 0. -1.
    9000007    1    1    2  501    0  0.48042441647E+03 -0.21360411536E+03 -0.20356546562E+03  0.69128376000E+03  0.40000000000E+03 0.  1.
   -9000007    1    1    2    0  502 -0.48042441647E+03  0.21360411536E+03  0.16714327718E+03  0.68144787999E+03  0.40000000000E+03 0. -1.
<mgrwt>
<rscale>  2 0.66063177E+03</rscale>
<asrwt>0</asrwt>
<pdfrwt beam="1">  1       21 0.10279303E+00 0.66063177E+03</pdfrwt>
<pdfrwt beam="2">  1       21 0.10839645E+00 0.66063177E+03</pdfrwt>
<totfact> 0.40102629E+02</totfact>
</mgrwt>
</event>
<event>
 4    1  0.4690138E-002  0.4251347E+03  0.7818608E-02  0.1035408E+00
         21   -1    0    0  501  502  0.00000000000E+00  0.00000000000E+00  0.11818698508E+04  0.11818698508E+04  0.00000000000E+00 0.  1.
         21   -1    0    0  502  503 -0.00000000000E+00 -0.00000000000E+00 -0.24488980094E+03  0.24488980094E+03  0.00000000000E+00 0.  1.
    9000007    1    1    2  501    0  0.23918100834E+02  0.14201219523E+03  0.90565173081E+03  0.10004721868E+04  0.40000000000E+03 0.  1.
   -9000007    1    1    2    0  503 -0.23918100834E+02 -0.14201219523E+03  0.31328319043E+02  0.42628746488E+03  0.40000000000E+03 0.  1.
<mgrwt>
<rscale>  2 0.42513473E+03</rscale>
<asrwt>0</asrwt>
<pdfrwt beam="1">  1       21 0.18182613E+00 0.42513473E+03</pdfrwt>
<pdfrwt beam="2">  1       21 0.37675355E-01 0.42513473E+03</pdfrwt>
<totfact> 0.10193290E+03</totfact>
</mgrwt>
</event>
<event>
 4    1  0.4690138E-002  0.4478047E+03  0.7818608E-02  0.1028379E+00
         21   -1    0    0  501  502  0.00000000000E+00  0.00000000000E+00  0.45828882556E+03  0.45828882556E+03  0.00000000000E+00 0.  1.
         21   -1    0    0  502  503 -0.00000000000E+00 -0.00000000000E+00 -0.43816298712E+03  0.43816298712E+03  0.00000000000E+00 0. -1.
    9000007    1    1    2  501    0  0.18674977041E+03 -0.75190510174E+02  0.26683702578E+02  0.44859905211E+03  0.40000000000E+03 0.  1.
   -9000007    1    1    2    0  503 -0.18674977041E+03  0.75190510174E+02 -0.65578641306E+01  0.44785276057E+03  0.40000000000E+03 0.  1.
<mgrwt>
<rscale>  2 0.44780474E+03</rscale>
<asrwt>0</asrwt>
<pdfrwt beam="1">  1       21 0.70505974E-01 0.44780474E+03</pdfrwt>
<pdfrwt beam="2">  1       21 0.67409690E-01 0.44780474E+03</pdfrwt>
<totfact> 0.32039544E+03</totfact>
</mgrwt>
</event>
<event>
 4    1  0.4690138E-002  0.4623476E+03  0.7818608E-02  0.1024103E+00
         21   -1    0    0  501  502  0.00000000000E+00  0.00000000000E+00  0.34738957519E+03  0.34738957519E+03  0.00000000000E+00 0.  1.
         21   -1    0    0  502  503 -0.00000000000E+00 -0.00000000000E+00 -0.64219172950E+03  0.64219172950E+03  0.00000000000E+00 0.  1.
    9000007    1    1    2  501    0  0.22991400400E+03 -0.30081182875E+02 -0.24856231475E+03  0.52492718649E+03  0.40000000000E+03 0.  1.
   -9000007    1    1    2    0  503 -0.22991400400E+03  0.30081182875E+02 -0.46239839554E+02  0.46465411820E+03  0.40000000000E+03 0.  1.
<mgrwt>
<rscale>  2 0.46234763E+03</rscale>
<asrwt>0</asrwt>
<pdfrwt beam="1">  1       21 0.53444550E-01 0.46234763E+03</pdfrwt>
<pdfrwt beam="2">  1       21 0.98798728E-01 0.46234763E+03</pdfrwt>
<totfact> 0.24132573E+03</totfact>
</mgrwt>
</event>
<event>
 4    1  0.4690138E-002  0.6430926E+03  0.7818608E-02  0.9819827E-01
         21   -1    0    0  503  502  0.00000000000E+00  0.00000000000E+00  0.32298912412E+03  0.32298912412E+03  0.00000000000E+00 0. -1.
         21   -1    0    0  501  503 -0.00000000000E+00 -0.00000000000E+00 -0.12932808073E+04  0.12932808073E+04  0.00000000000E+00 0. -1.
    9000007    1    1    2  501    0  0.49179850608E+03  0.10817756199E+03 -0.40461992698E+03  0.75979302498E+03  0.40000000000E+03 0. -1.
   -9000007    1    1    2    0  502 -0.49179850608E+03 -0.10817756199E+03 -0.56567175619E+03  0.85647690643E+03  0.40000000000E+03 0. -1.
<mgrwt>
<rscale>  2 0.64309265E+03</rscale>
<asrwt>0</asrwt>
<pdfrwt beam="1">  1       21 0.49690635E-01 0.64309265E+03</pdfrwt>
<pdfrwt beam="2">  1       21 0.19896628E+00 0.64309265E+03</pdfrwt>
<totfact> 0.39933684E+02</totfact>
</mgrwt>
</event>
<event>
 4    1  0.4690138E-002  0.5964264E+03  0.7818608E-02  0.9912848E-01
         21   -1    0    0  501  502  0.00000000000E+00  0.00000000000E+00  0.71043569145E+03  0.71043569145E+03  0.00000000000E+00 0. -1.
         21   -1    0    0  502  503 -0.00000000000E+00 -0.00000000000E+00 -0.55893296686E+03  0.55893296686E+03  0.00000000000E+00 0.  1.
    9000007    1    1    2  501    0 -0.42813656648E+03  0.11146105681E+03  0.28059069976E+03  0.65913248102E+03  0.40000000000E+03 0. -1.
   -9000007    1    1    2    0  503  0.42813656648E+03 -0.11146105681E+03 -0.12908797517E+03  0.61023617729E+03  0.40000000000E+03 0.  1.
<mgrwt>
<rscale>  2 0.59642643E+03</rscale>
<asrwt>0</asrwt>
<pdfrwt beam="1">  1       21 0.10929780E+00 0.59642643E+03</pdfrwt>
<pdfrwt beam="2">  1       21 0.85989687E-01 0.59642643E+03</pdfrwt>
<totfact> 0.61659854E+02</totfact>
</mgrwt>
</event>
<event>
 4    1  0.4690138E-002  0.4351440E+03  0.7818608E-02  0.1032247E+00
         21   -1    0    0  503  502  0.00000000000E+00  0.00000000000E+00  0.39300895258E+03  0.39300895258E+03  0.00000000000E+00 0.  1.
         21   -1    0    0  501  503 -0.00000000000E+00 -0.00000000000E+00 -0.10610315384E+04  0.10610315384E+04  0.00000000000E+00 0.  1.
    9000007    1    1    2  501    0  0.37501382643E+02  0.16716432987E+03 -0.87117892841E+03  0.97380849872E+03  0.40000000000E+03 0.  1.
   -9000007    1    1    2    0  502 -0.37501382643E+02 -0.16716432987E+03  0.20315634257E+03  0.48023199228E+03  0.40000000000E+03 0.  1.
<mgrwt>
<rscale>  2 0.43514396E+03</rscale>
<asrwt>0</asrwt>
<pdfrwt beam="1">  1       21 0.60462916E-01 0.43514396E+03</pdfrwt>
<pdfrwt beam="2">  1       21 0.16323562E+00 0.43514396E+03</pdfrwt>
<totfact> 0.50854774E+02</totfact>
</mgrwt>
</event>
<event>
 4    1  0.4690138E-002  0.4046835E+03  0.7818608E-02  0.1042170E+00
         21   -1    0    0  501  502  0.00000000000E+00  0.00000000000E+00  0.73409222603E+03  0.73409222603E+03  0.00000000000E+00 0.  1.
         21   -1    0    0  502  503 -0.00000000000E+00 -0.00000000000E+00 -0.25823714783E+03  0.25823714783E+03  0.00000000000E+00 0.  1.
    9000007    1    1    2  501    0 -0.61229585508E+02  0.44344127556E+01  0.42097376022E+03  0.58394146364E+03  0.40000000000E+03 0.  1.
   -9000007    1    1    2    0  503  0.61229585508E+02 -0.44344127556E+01  0.54881317974E+02  0.40838791023E+03  0.40000000000E+03 0.  1.
<mgrwt>
<rscale>  2 0.40468349E+03</rscale>
<asrwt>0</asrwt>
<pdfrwt beam="1">  1       21 0.11293726E+00 0.40468349E+03</pdfrwt>
<pdfrwt beam="2">  1       21 0.39728792E-01 0.40468349E+03</pdfrwt>
<totfact> 0.33095590E+03</totfact>
</mgrwt>
</event>
<event>
 4    1  0.4690138E-002  0.4295433E+03  0.7818608E-02  0.1034004E+00
         21   -1    0    0  501  502  0.00000000000E+00  0.00000000000E+00  0.36822747338E+03  0.36822747338E+03  0.00000000000E+00 0. -1.
         21   -1    0    0  502  503 -0.00000000000E+00 -0.00000000000E+00 -0.50571347043E+03  0.50571347043E+03  0.00000000000E+00 0.  1.
    9000007    1    1    2  501    0 -0.13163652304E+03  0.84730507605E+02 -0.26867484302E+02  0.43038273064E+03  0.40000000000E+03 0. -1.
   -9000007    1    1    2    0  503  0.13163652304E+03 -0.84730507605E+02 -0.11061851275E+03  0.44355821318E+03  0.40000000000E+03 0.  1.
<mgrwt>
<rscale>  2 0.42954328E+03</rscale>
<asrwt>0</asrwt>
<pdfrwt beam="1">  1       21 0.56650381E-01 0.42954328E+03</pdfrwt>
<pdfrwt beam="2">  1       21 0.77802072E-01 0.42954328E+03</pdfrwt>
<totfact> 0.37801422E+03</totfact>
</mgrwt>
</event>
<event>
 4    1  0.4690138E-002  0.4726429E+03  0.7818608E-02  0.1021177E+00
         21   -1    0    0  503  502  0.00000000000E+00  0.00000000000E+00  0.76245354702E+03  0.76245354702E+03  0.00000000000E+00 0. -1.
         21   -1    0    0  501  503 -0.00000000000E+00 -0.00000000000E+00 -0.29364701895E+03  0.29364701895E+03  0.00000000000E+00 0. -1.
    9000007    1    1    2  501    0 -0.75601816788E+02 -0.24015766526E+03  0.25937905701E+03  0.53913711994E+03  0.40000000000E+03 0. -1.
   -9000007    1    1    2    0  502  0.75601816788E+02  0.24015766526E+03  0.20942747106E+03  0.51696344602E+03  0.40000000000E+03 0. -1.
<mgrwt>
<rscale>  2 0.47264293E+03</rscale>
<asrwt>0</asrwt>
<pdfrwt beam="1">  1       21 0.11730055E+00 0.47264293E+03</pdfrwt>
<pdfrwt beam="2">  1       21 0.45176465E-01 0.47264293E+03</pdfrwt>
<totfact> 0.22471577E+03</totfact>
</mgrwt>
</event>
<event>
 4    1  0.4690138E-002  0.4249380E+03  0.7818608E-02  0.1035471E+00
         21   -1    0    0  501  502  0.00000000000E+00  0.00000000000E+00  0.22622807194E+03  0.22622807194E+03  0.00000000000E+00 0. -1.
         21   -1    0    0  502  503 -0.00000000000E+00 -0.00000000000E+00 -0.79947149637E+03  0.79947149637E+03  0.00000000000E+00 0. -1.
    9000007    1    1    2  501    0 -0.14010587959E+03 -0.30702567174E+02 -0.26606489745E+03  0.50136098251E+03  0.40000000000E+03 0.  1.
   -9000007    1    1    2    0  503  0.14010587959E+03  0.30702567174E+02 -0.30717852698E+03  0.52433858581E+03  0.40000000000E+03 0.  1.
<mgrwt>
<rscale>  2 0.42493800E+03</rscale>
<asrwt>0</asrwt>
<pdfrwt beam="1">  1       21 0.34804319E-01 0.42493800E+03</pdfrwt>
<pdfrwt beam="2">  1       21 0.12299561E+00 0.42493800E+03</pdfrwt>
<totfact> 0.34675973E+03</totfact>
</mgrwt>
</event>
<event>
 4    1  0.4690138E-002  0.4856795E+03  0.7818608E-02  0.1017586E+00
         21   -1    0    0  503  502  0.00000000000E+00  0.00000000000E+00  0.54710345206E+03  0.54710345206E+03  0.00000000000E+00 0.  1.
         21   -1    0    0  501  503 -0.00000000000E+00 -0.00000000000E+00 -0.59640938959E+03  0.59640938959E+03  0.00000000000E+00 0.  1.
    9000007    1    1    2  501    0  0.21102773474E+03 -0.17706446657E+03 -0.32562059342E+03  0.58473352992E+03  0.40000000000E+03 0.  1.
   -9000007    1    1    2    0  502 -0.21102773474E+03  0.17706446657E+03  0.27631465589E+03  0.55877931172E+03  0.40000000000E+03 0.  1.
<mgrwt>
<rscale>  2 0.48567945E+03</rscale>
<asrwt>0</asrwt>
<pdfrwt beam="1">  1       21 0.84169762E-01 0.48567945E+03</pdfrwt>
<pdfrwt beam="2">  1       21 0.91755291E-01 0.48567945E+03</pdfrwt>
<totfact> 0.10332618E+03</totfact>
</mgrwt>
</event>
<event>
 4    1  0.4690138E-002  0.4054988E+03  0.7818608E-02  0.1041892E+00
         21   -1    0    0  501  502  0.00000000000E+00  0.00000000000E+00  0.25558372222E+04  0.25558372222E+04  0.00000000000E+00 0. -1.
         21   -1    0    0  502  503 -0.00000000000E+00 -0.00000000000E+00 -0.80099332022E+02  0.80099332022E+02  0.00000000000E+00 0. -1.
    9000007    1    1    2  501    0 -0.51686081386E+02  0.41926406708E+02  0.18225662094E+04  0.18671306495E+04  0.40000000000E+03 0. -1.
   -9000007    1    1    2    0  503  0.51686081386E+02 -0.41926406708E+02  0.65317168076E+03  0.76880590472E+03  0.40000000000E+03 0. -1.
<mgrwt>
<rscale>  2 0.40549880E+03</rscale>
<asrwt>0</asrwt>
<pdfrwt beam="1">  1       21 0.39320566E+00 0.40549880E+03</pdfrwt>
<pdfrwt beam="2">  1       21 0.12322976E-01 0.40549880E+03</pdfrwt>
<totfact> 0.42842084E+02</totfact>
</mgrwt>
</event>
<event>
 4    1  0.4690138E-002  0.6024884E+03  0.7818608E-02  0.9900257E-01
         21   -1    0    0  503  502  0.00000000000E+00  0.00000000000E+00  0.51541371599E+03  0.51541371599E+03  0.00000000000E+00 0.  1.
         21   -1    0    0  501  503 -0.00000000000E+00 -0.00000000000E+00 -0.73920203512E+03  0.73920203512E+03  0.00000000000E+00 0. -1.
    9000007    1    1    2  501    0  0.93049597057E+02 -0.44083332239E+03 -0.24825480878E+03  0.65163079710E+03  0.40000000000E+03 0.  1.
   -9000007    1    1    2    0  502 -0.93049597057E+02  0.44083332239E+03  0.24466489660E+02  0.60298495401E+03  0.40000000000E+03 0.  1.
<mgrwt>
<rscale>  2 0.60248838E+03</rscale>
<asrwt>0</asrwt>
<pdfrwt beam="1">  1       21 0.79294418E-01 0.60248838E+03</pdfrwt>
<pdfrwt beam="2">  1       21 0.11372339E+00 0.60248838E+03</pdfrwt>
<totfact> 0.67358923E+02</totfact>
</mgrwt>
</event>
<event>
 4    1  0.4690138E-002  0.5050714E+03  0.7818608E-02  0.1012464E+00
         21   -1    0    0  503  502  0.00000000000E+00  0.00000000000E+00  0.51871982247E+03  0.51871982247E+03  0.00000000000E+00 0.  1.
         21   -1    0    0  501  503 -0.00000000000E+00 -0.00000000000E+00 -0.64670176665E+03  0.64670176665E+03  0.00000000000E+00 0.  1.
    9000007    1    1    2  501    0 -0.28594583887E+03  0.11546471953E+03 -0.34919412014E+03  0.61403066517E+03  0.40000000000E+03 0.  1.
   -9000007    1    1    2    0  502  0.28594583887E+03 -0.11546471953E+03  0.22121217597E+03  0.55139092395E+03  0.40000000000E+03 0.  1.
<mgrwt>
<rscale>  2 0.50507141E+03</rscale>
<asrwt>0</asrwt>
<pdfrwt beam="1">  1       21 0.79803050E-01 0.50507141E+03</pdfrwt>
<pdfrwt beam="2">  1       21 0.99492579E-01 0.50507141E+03</pdfrwt>
<totfact> 0.95571101E+02</totfact>
</mgrwt>
</event>
<event>
 4    1  0.4690138E-002  0.4106266E+03  0.7818608E-02  0.1040161E+00
         21   -1    0    0  501  502  0.00000000000E+00  0.00000000000E+00  0.21460395708E+04  0.21460395708E+04  0.00000000000E+00 0. -1.
         21   -1    0    0  502  503 -0.00000000000E+00 -0.00000000000E+00 -0.83132298539E+02  0.83132298539E+02  0.00000000000E+00 0. -1.
    9000007    1    1    2  501    0 -0.16677111393E+01  0.92797819030E+02  0.77034393272E+03  0.87295131087E+03  0.40000000000E+03 0. -1.
   -9000007    1    1    2    0  503  0.16677111393E+01 -0.92797819030E+02  0.12925633395E+04  0.13562205585E+04  0.40000000000E+03 0. -1.
<mgrwt>
<rscale>  2 0.41062661E+03</rscale>
<asrwt>0</asrwt>
<pdfrwt beam="1">  1       21 0.33015989E+00 0.41062661E+03</pdfrwt>
<pdfrwt beam="2">  1       21 0.12789586E-01 0.41062661E+03</pdfrwt>
<totfact> 0.97797768E+02</totfact>
</mgrwt>
</event>
<event>
 4    1  0.4690138E-002  0.8042116E+03  0.7818608E-02  0.9553941E-01
         21   -1    0    0  503  502  0.00000000000E+00  0.00000000000E+00  0.92859670675E+03  0.92859670675E+03  0.00000000000E+00 0. -1.
         21   -1    0    0  501  503 -0.00000000000E+00 -0.00000000000E+00 -0.12386341056E+04  0.12386341056E+04  0.00000000000E+00 0. -1.
    9000007    1    1    2  501    0  0.61484042831E+03  0.32973851302E+03 -0.87192421496E+03  0.11861737124E+04  0.40000000000E+03 0. -1.
   -9000007    1    1    2    0  502 -0.61484042831E+03 -0.32973851302E+03  0.56188681613E+03  0.98105709997E+03  0.40000000000E+03 0. -1.
<mgrwt>
<rscale>  2 0.80421156E+03</rscale>
<asrwt>0</asrwt>
<pdfrwt beam="1">  1       21 0.14286103E+00 0.80421156E+03</pdfrwt>
<pdfrwt beam="2">  1       21 0.19055909E+00 0.80421156E+03</pdfrwt>
<totfact> 0.34858344E+01</totfact>
</mgrwt>
</event>
<event>
 4    1  0.4690138E-002  0.4045609E+03  0.7818608E-02  0.1042212E+00
         21   -1    0    0  501  502  0.00000000000E+00  0.00000000000E+00  0.27897005992E+03  0.27897005992E+03  0.00000000000E+00 0.  1.
         21   -1    0    0  502  503 -0.00000000000E+00 -0.00000000000E+00 -0.62766640310E+03  0.62766640310E+03  0.00000000000E+00 0.  1.
    9000007    1    1    2  501    0 -0.26672697905E+02  0.54388344932E+02 -0.58525218170E+02  0.40877221779E+03  0.40000000000E+03 0.  1.
   -9000007    1    1    2    0  503  0.26672697905E+02 -0.54388344932E+02 -0.29017112501E+03  0.49786424522E+03  0.40000000000E+03 0.  1.
<mgrwt>
<rscale>  2 0.40456090E+03</rscale>
<asrwt>0</asrwt>
<pdfrwt beam="1">  1       21 0.42918471E-01 0.40456090E+03</pdfrwt>
<pdfrwt beam="2">  1       21 0.96564062E-01 0.40456090E+03</pdfrwt>
<totfact> 0.41401916E+03</totfact>
</mgrwt>
</event>
<event>
 4    1  0.4690138E-002  0.4393373E+03  0.7818608E-02  0.1030950E+00
         21   -1    0    0  501  502  0.00000000000E+00  0.00000000000E+00  0.14828255725E+04  0.14828255725E+04  0.00000000000E+00 0. -1.
         21   -1    0    0  502  503 -0.00000000000E+00 -0.00000000000E+00 -0.14490477430E+03  0.14490477430E+03  0.00000000000E+00 0. -1.
    9000007    1    1    2  501    0 -0.16981062202E+03 -0.64665299438E+02  0.92850039436E+03  0.10271953225E+04  0.40000000000E+03 0.  1.
   -9000007    1    1    2    0  503  0.16981062202E+03  0.64665299438E+02  0.40942040389E+03  0.60053502431E+03  0.40000000000E+03 0.  1.
<mgrwt>
<rscale>  2 0.43933728E+03</rscale>
<asrwt>0</asrwt>
<pdfrwt beam="1">  1       21 0.22812700E+00 0.43933728E+03</pdfrwt>
<pdfrwt beam="2">  1       21 0.22293043E-01 0.43933728E+03</pdfrwt>
<totfact> 0.14143524E+03</totfact>
</mgrwt>
</event>
<event>
 4    1  0.4690138E-002  0.4094133E+03  0.7818608E-02  0.1040568E+00
         21   -1    0    0  503  502  0.00000000000E+00  0.00000000000E+00  0.15918775470E+04  0.15918775470E+04  0.00000000000E+00 0. -1.
         21   -1    0    0  501  503 -0.00000000000E+00 -0.00000000000E+00 -0.28358339670E+03  0.28358339670E+03  0.00000000000E+00 0. -1.
    9000007    1    1    2  501    0 -0.84786015385E+02 -0.20751211254E+02 -0.89380755483E+02  0.41905632154E+03  0.40000000000E+03 0. -1.
   -9000007    1    1    2    0  502  0.84786015385E+02  0.20751211254E+02  0.13976749058E+04  0.14564046221E+04  0.40000000000E+03 0. -1.
<mgrwt>
<rscale>  2 0.40941334E+03</rscale>
<asrwt>0</asrwt>
<pdfrwt beam="1">  1       21 0.24490423E+00 0.40941334E+03</pdfrwt>
<pdfrwt beam="2">  1       21 0.43628216E-01 0.40941334E+03</pdfrwt>
<totfact> 0.29588090E+02</totfact>
</mgrwt>
</event>
<event>
 4    1  0.4690138E-002  0.5823756E+03  0.7818608E-02  0.9942661E-01
         21   -1    0    0  501  502  0.00000000000E+00  0.00000000000E+00  0.20627159653E+03  0.20627159653E+03  0.00000000000E+00 0. -1.
         21   -1    0    0  502  503 -0.00000000000E+00 -0.00000000000E+00 -0.17842459184E+04  0.17842459184E+04  0.00000000000E+00 0. -1.
    9000007    1    1    2  501    0  0.21580688745E+03  0.36412734230E+03 -0.51020056309E+03  0.77425186384E+03  0.40000000000E+03 0. -1.
   -9000007    1    1    2    0  503 -0.21580688745E+03 -0.36412734230E+03 -0.10677737588E+04  0.12162656511E+04  0.40000000000E+03 0. -1.
<mgrwt>
<rscale>  2 0.58237560E+03</rscale>
<asrwt>0</asrwt>
<pdfrwt beam="1">  1       21 0.31734092E-01 0.58237560E+03</pdfrwt>
<pdfrwt beam="2">  1       21 0.27449937E+00 0.58237560E+03</pdfrwt>
<totfact> 0.34235917E+02</totfact>
</mgrwt>
</event>
<event>
 4    1  0.4690138E-002  0.5182198E+03  0.7818608E-02  0.1009130E+00
         21   -1    0    0  501  502  0.00000000000E+00  0.00000000000E+00  0.27544558473E+04  0.27544558473E+04  0.00000000000E+00 0.  1.
         21   -1    0    0  502  503 -0.00000000000E+00 -0.00000000000E+00 -0.97505264925E+02  0.97505264925E+02  0.00000000000E+00 0.  1.
    9000007    1    1    2  501    0 -0.32021549972E+03 -0.77548757395E+02  0.13414314148E+04  0.14380507698E+04  0.40000000000E+03 0.  1.
   -9000007    1    1    2    0  503  0.32021549972E+03  0.77548757395E+02  0.13155191676E+04  0.14139103424E+04  0.40000000000E+03 0.  1.
<mgrwt>
<rscale>  2 0.51821981E+03</rscale>
<asrwt>0</asrwt>
<pdfrwt beam="1">  1       21 0.42376238E+00 0.51821981E+03</pdfrwt>
<pdfrwt beam="2">  1       21 0.15000812E-01 0.51821981E+03</pdfrwt>
<totfact> 0.17590653E+02</totfact>
</mgrwt>
</event>
<event>
 4    1  0.4690138E-002  0.4131088E+03  0.7818608E-02  0.1039333E+00
         21   -1    0    0  503  502  0.00000000000E+00  0.00000000000E+00  0.12190606678E+04  0.12190606678E+04  0.00000000000E+00 0.  1.
         21   -1    0    0  501  503 -0.00000000000E+00 -0.00000000000E+00 -0.24161008157E+03  0.24161008157E+03  0.00000000000E+00 0.  1.
    9000007    1    1    2  501    0 -0.89867056311E+02  0.50820980964E+02  0.15083411052E+02  0.41338404566E+03  0.40000000000E+03 0.  1.
   -9000007    1    1    2    0  502  0.89867056311E+02 -0.50820980964E+02  0.96236717518E+03  0.10472867037E+04  0.40000000000E+03 0.  1.
<mgrwt>
<rscale>  2 0.41310877E+03</rscale>
<asrwt>0</asrwt>
<pdfrwt beam="1">  1       21 0.18754779E+00 0.41310877E+03</pdfrwt>
<pdfrwt beam="2">  1       21 0.37170783E-01 0.41310877E+03</pdfrwt>
<totfact> 0.96187199E+02</totfact>
</mgrwt>
</event>
<event>
 4    1  0.4690138E-002  0.4521116E+03  0.7818608E-02  0.1027094E+00
         21   -1    0    0  503  502  0.00000000000E+00  0.00000000000E+00  0.65455085783E+02  0.65455085783E+02  0.00000000000E+00 0.  1.
         21   -1    0    0  501  503 -0.00000000000E+00 -0.00000000000E+00 -0.37101456450E+04  0.37101456450E+04  0.00000000000E+00 0. -1.
    9000007    1    1    2  501    0  0.20951980717E+03  0.22501532497E+02 -0.25734451898E+04  0.26128576336E+04  0.40000000000E+03 0. -1.
   -9000007    1    1    2    0  502 -0.20951980717E+03 -0.22501532497E+02 -0.10712453695E+04  0.11627430973E+04  0.40000000000E+03 0.  1.
<mgrwt>
<rscale>  2 0.45211157E+03</rscale>
<asrwt>0</asrwt>
<pdfrwt beam="1">  1       21 0.10070012E-01 0.45211157E+03</pdfrwt>
<pdfrwt beam="2">  1       21 0.57079170E+00 0.45211157E+03</pdfrwt>
<totfact> 0.34171215E+01</totfact>
</mgrwt>
</event>
<event>
 4    1  0.4690138E-002  0.4271543E+03  0.7818608E-02  0.1034763E+00
         21   -1    0    0  501  502  0.00000000000E+00  0.00000000000E+00  0.44716995369E+03  0.44716995369E+03  0.00000000000E+00 0. -1.
         21   -1    0    0  502  503 -0.00000000000E+00 -0.00000000000E+00 -0.44693786100E+03  0.44693786100E+03  0.00000000000E+00 0. -1.
    9000007    1    1    2  501    0 -0.14785277505E+03  0.24502674598E+02  0.13201130642E+03  0.44708814475E+03  0.40000000000E+03 0. -1.
   -9000007    1    1    2    0  503  0.14785277505E+03 -0.24502674598E+02 -0.13177921372E+03  0.44701966995E+03  0.40000000000E+03 0. -1.
<mgrwt>
<rscale>  2 0.42715433E+03</rscale>
<asrwt>0</asrwt>
<pdfrwt beam="1">  1       21 0.68795377E-01 0.42715433E+03</pdfrwt>
<pdfrwt beam="2">  1       21 0.68759671E-01 0.42715433E+03</pdfrwt>
<totfact> 0.32629446E+03</totfact>
</mgrwt>
</event>
<event>
 4    1  0.4690138E-002  0.5437235E+03  0.7818608E-02  0.1002957E+00
         21   -1    0    0  501  502  0.00000000000E+00  0.00000000000E+00  0.15615443747E+04  0.15615443747E+04  0.00000000000E+00 0.  1.
         21   -1    0    0  502  503 -0.00000000000E+00 -0.00000000000E+00 -0.23042501908E+03  0.23042501908E+03  0.00000000000E+00 0. -1.
    9000007    1    1    2  501    0 -0.35062141891E+03  0.11269365889E+03  0.10439768393E+04  0.11770823596E+04  0.40000000000E+03 0.  1.
   -9000007    1    1    2    0  503  0.35062141891E+03 -0.11269365889E+03  0.28714251627E+03  0.61488703418E+03  0.40000000000E+03 0. -1.
<mgrwt>
<rscale>  2 0.54372350E+03</rscale>
<asrwt>0</asrwt>
<pdfrwt beam="1">  1       21 0.24023759E+00 0.54372350E+03</pdfrwt>
<pdfrwt beam="2">  1       21 0.35450004E-01 0.54372350E+03</pdfrwt>
<totfact> 0.45279948E+02</totfact>
</mgrwt>
</event>
<event>
 4    1  0.4690138E-002  0.4109780E+03  0.7818608E-02  0.1040043E+00
         21   -1    0    0  501  502  0.00000000000E+00  0.00000000000E+00  0.97201099404E+03  0.97201099404E+03  0.00000000000E+00 0.  1.
         21   -1    0    0  502  503 -0.00000000000E+00 -0.00000000000E+00 -0.31160082427E+03  0.31160082427E+03  0.00000000000E+00 0.  1.
    9000007    1    1    2  501    0 -0.55856049868E+01 -0.94189601346E+02  0.75706287735E+03  0.86142154619E+03  0.40000000000E+03 0.  1.
   -9000007    1    1    2    0  503  0.55856049868E+01  0.94189601346E+02 -0.96652707578E+02  0.42219027211E+03  0.40000000000E+03 0.  1.
<mgrwt>
<rscale>  2 0.41097796E+03</rscale>
<asrwt>0</asrwt>
<pdfrwt beam="1">  1       21 0.14954015E+00 0.41097796E+03</pdfrwt>
<pdfrwt beam="2">  1       21 0.47938589E-01 0.41097796E+03</pdfrwt>
<totfact> 0.10783628E+03</totfact>
</mgrwt>
</event>
<event>
 4    1  0.4690138E-002  0.4414185E+03  0.7818608E-02  0.1030312E+00
         21   -1    0    0  501  502  0.00000000000E+00  0.00000000000E+00  0.13952267321E+03  0.13952267321E+03  0.00000000000E+00 0. -1.
         21   -1    0    0  502  503 -0.00000000000E+00 -0.00000000000E+00 -0.15360572851E+04  0.15360572851E+04  0.00000000000E+00 0. -1.
    9000007    1    1    2  501    0 -0.13531004591E+03 -0.12861374177E+03 -0.44578505108E+03  0.62735525411E+03  0.40000000000E+03 0. -1.
   -9000007    1    1    2    0  503  0.13531004591E+03  0.12861374177E+03 -0.95074956082E+03  0.10482247042E+04  0.40000000000E+03 0. -1.
<mgrwt>
<rscale>  2 0.44141851E+03</rscale>
<asrwt>0</asrwt>
<pdfrwt beam="1">  1       21 0.21465028E-01 0.44141851E+03</pdfrwt>
<pdfrwt beam="2">  1       21 0.23631650E+00 0.44141851E+03</pdfrwt>
<totfact> 0.13499815E+03</totfact>
</mgrwt>
</event>
<event>
 4    1  0.4690138E-002  0.6211257E+03  0.7818608E-02  0.9862521E-01
         21   -1    0    0  503  502  0.00000000000E+00  0.00000000000E+00  0.29308033538E+03  0.29308033538E+03  0.00000000000E+00 0. -1.
         21   -1    0    0  501  503 -0.00000000000E+00 -0.00000000000E+00 -0.15570269448E+04  0.15570269448E+04  0.00000000000E+00 0.  1.
    9000007    1    1    2  501    0  0.21606219923E+03 -0.42321886661E+03 -0.99566525201E+03  0.11735188013E+04  0.40000000000E+03 0.  1.
   -9000007    1    1    2    0  502 -0.21606219923E+03  0.42321886661E+03 -0.26828135739E+03  0.67658847885E+03  0.40000000000E+03 0. -1.
<mgrwt>
<rscale>  2 0.62112566E+03</rscale>
<asrwt>0</asrwt>
<pdfrwt beam="1">  1       21 0.45089282E-01 0.62112566E+03</pdfrwt>
<pdfrwt beam="2">  1       21 0.23954261E+00 0.62112566E+03</pdfrwt>
<totfact> 0.26928860E+02</totfact>
</mgrwt>
</event>
<event>
 4    1  0.4690138E-002  0.5173307E+03  0.7818608E-02  0.1009352E+00
         21   -1    0    0  501  502  0.00000000000E+00  0.00000000000E+00  0.12203459501E+04  0.12203459501E+04  0.00000000000E+00 0. -1.
         21   -1    0    0  502  503 -0.00000000000E+00 -0.00000000000E+00 -0.21999827603E+03  0.21999827603E+03  0.00000000000E+00 0.  1.
    9000007    1    1    2  501    0  0.27494993403E+03  0.17897930893E+03  0.45981998127E+03  0.69214555870E+03  0.40000000000E+03 0. -1.
   -9000007    1    1    2    0  503 -0.27494993403E+03 -0.17897930893E+03  0.54052769276E+03  0.74819866740E+03  0.40000000000E+03 0. -1.
<mgrwt>
<rscale>  2 0.51733071E+03</rscale>
<asrwt>0</asrwt>
<pdfrwt beam="1">  1       21 0.18774553E+00 0.51733071E+03</pdfrwt>
<pdfrwt beam="2">  1       21 0.33845889E-01 0.51733071E+03</pdfrwt>
<totfact> 0.11081780E+03</totfact>
</mgrwt>
</event>
<event>
 4    1  0.4690138E-002  0.4149136E+03  0.7818608E-02  0.1038735E+00
         21   -1    0    0  501  502  0.00000000000E+00  0.00000000000E+00  0.18891549682E+04  0.18891549682E+04  0.00000000000E+00 0.  1.
         21   -1    0    0  502  503 -0.00000000000E+00 -0.00000000000E+00 -0.27967432759E+03  0.27967432759E+03  0.00000000000E+00 0.  1.
    9000007    1    1    2  501    0 -0.10120249724E+03 -0.43718779759E+02  0.16951279357E+04  0.17451681855E+04  0.40000000000E+03 0.  1.
   -9000007    1    1    2    0  503  0.10120249724E+03  0.43718779759E+02 -0.85647295184E+02  0.42366111023E+03  0.40000000000E+03 0.  1.
<mgrwt>
<rscale>  2 0.41491358E+03</rscale>
<asrwt>0</asrwt>
<pdfrwt beam="1">  1       21 0.29063922E+00 0.41491358E+03</pdfrwt>
<pdfrwt beam="2">  1       21 0.43026821E-01 0.41491358E+03</pdfrwt>
<totfact> 0.16053977E+02</totfact>
</mgrwt>
</event>
<event>
 4    1  0.4690138E-002  0.4060341E+03  0.7818608E-02  0.1041710E+00
         21   -1    0    0  503  502  0.00000000000E+00  0.00000000000E+00  0.94904350823E+03  0.94904350823E+03  0.00000000000E+00 0.  1.
         21   -1    0    0  501  503 -0.00000000000E+00 -0.00000000000E+00 -0.18229331386E+03  0.18229331386E+03  0.00000000000E+00 0.  1.
    9000007    1    1    2  501    0  0.53030399023E+01  0.69538049583E+02  0.26067007703E+03  0.48250653014E+03  0.40000000000E+03 0.  1.
   -9000007    1    1    2    0  502 -0.53030399023E+01 -0.69538049583E+02  0.50608011734E+03  0.64883029194E+03  0.40000000000E+03 0.  1.
<mgrwt>
<rscale>  2 0.40603407E+03</rscale>
<asrwt>0</asrwt>
<pdfrwt beam="1">  1       21 0.14600669E+00 0.40603407E+03</pdfrwt>
<pdfrwt beam="2">  1       21 0.28045126E-01 0.40603407E+03</pdfrwt>
<totfact> 0.34303685E+03</totfact>
</mgrwt>
</event>
<event>
 4    1  0.4690138E-002  0.4430695E+03  0.7818608E-02  0.1029809E+00
         21   -1    0    0  503  502  0.00000000000E+00  0.00000000000E+00  0.60152978704E+03  0.60152978704E+03  0.00000000000E+00 0.  1.
         21   -1    0    0  501  503 -0.00000000000E+00 -0.00000000000E+00 -0.56215739210E+03  0.56215739210E+03  0.00000000000E+00 0. -1.
    9000007    1    1    2  501    0 -0.18317031022E+03 -0.52528692130E+02 -0.35715110465E+03  0.56909361058E+03  0.40000000000E+03 0. -1.
   -9000007    1    1    2    0  502  0.18317031022E+03  0.52528692130E+02  0.39652349959E+03  0.59459356856E+03  0.40000000000E+03 0.  1.
<mgrwt>
<rscale>  2 0.44306955E+03</rscale>
<asrwt>0</asrwt>
<pdfrwt beam="1">  1       21 0.92543044E-01 0.44306955E+03</pdfrwt>
<pdfrwt beam="2">  1       21 0.86485753E-01 0.44306955E+03</pdfrwt>
<totfact> 0.96640211E+02</totfact>
</mgrwt>
</event>
<event>
 4    1  0.4690138E-002  0.5640495E+03  0.7818608E-02  0.9982933E-01
         21   -1    0    0  503  502  0.00000000000E+00  0.00000000000E+00  0.97425889032E+03  0.97425889032E+03  0.00000000000E+00 0.  1.
         21   -1    0    0  501  503 -0.00000000000E+00 -0.00000000000E+00 -0.39873317759E+03  0.39873317759E+03  0.00000000000E+00 0.  1.
    9000007    1    1    2  501    0 -0.61361611492E+02 -0.39292063272E+03  0.57983576919E+03  0.80892607215E+03  0.40000000000E+03 0.  1.
   -9000007    1    1    2    0  502  0.61361611492E+02  0.39292063272E+03 -0.43100564525E+01  0.56406599576E+03  0.40000000000E+03 0.  1.
<mgrwt>
<rscale>  2 0.56404953E+03</rscale>
<asrwt>0</asrwt>
<pdfrwt beam="1">  1       21 0.14988598E+00 0.56404953E+03</pdfrwt>
<pdfrwt beam="2">  1       21 0.61343566E-01 0.56404953E+03</pdfrwt>
<totfact> 0.59138869E+02</totfact>
</mgrwt>
</event>
<event>
 4    1  0.4690138E-002  0.4327778E+03  0.7818608E-02  0.1032986E+00
         21   -1    0    0  501  502  0.00000000000E+00  0.00000000000E+00  0.11929243879E+04  0.11929243879E+04  0.00000000000E+00 0.  1.
         21   -1    0    0  502  503 -0.00000000000E+00 -0.00000000000E+00 -0.17025745322E+03  0.17025745322E+03  0.00000000000E+00 0.  1.
    9000007    1    1    2  501    0  0.11852447890E+03  0.11510233022E+03  0.32118264969E+03  0.53893867275E+03  0.40000000000E+03 0.  1.
   -9000007    1    1    2    0  503 -0.11852447890E+03 -0.11510233022E+03  0.70148428502E+03  0.82424316840E+03  0.40000000000E+03 0.  1.
<mgrwt>
<rscale>  2 0.43277777E+03</rscale>
<asrwt>0</asrwt>
<pdfrwt beam="1">  1       21 0.18352682E+00 0.43277777E+03</pdfrwt>
<pdfrwt beam="2">  1       21 0.26193455E-01 0.43277777E+03</pdfrwt>
<totfact> 0.20420914E+03</totfact>
</mgrwt>
</event>
<event>
 4    1  0.4690138E-002  0.4236675E+03  0.7818608E-02  0.1035879E+00
         21   -1    0    0  501  502  0.00000000000E+00  0.00000000000E+00  0.15344577451E+04  0.15344577451E+04  0.00000000000E+00 0.  1.
         21   -1    0    0  502  503 -0.00000000000E+00 -0.00000000000E+00 -0.45556136967E+03  0.45556136967E+03  0.00000000000E+00 0.  1.
    9000007    1    1    2  501    0  0.69188442449E+02 -0.12127281398E+03  0.13972523502E+04  0.14600713223E+04  0.40000000000E+03 0.  1.
   -9000007    1    1    2    0  503 -0.69188442449E+02  0.12127281398E+03 -0.31835597485E+03  0.52994779243E+03  0.40000000000E+03 0.  1.
<mgrwt>
<rscale>  2 0.42366748E+03</rscale>
<asrwt>0</asrwt>
<pdfrwt beam="1">  1       21 0.23607042E+00 0.42366748E+03</pdfrwt>
<pdfrwt beam="2">  1       21 0.70086365E-01 0.42366748E+03</pdfrwt>
<totfact> 0.11945847E+02</totfact>
</mgrwt>
</event>
<event>
 4    1  0.4690138E-002  0.4275371E+03  0.7818608E-02  0.1034641E+00
         21   -1    0    0  501  502  0.00000000000E+00  0.00000000000E+00  0.35276034156E+03  0.35276034156E+03  0.00000000000E+00 0. -1.
         21   -1    0    0  502  503 -0.00000000000E+00 -0.00000000000E+00 -0.72002774144E+03  0.72002774144E+03  0.00000000000E+00 0. -1.
    9000007    1    1    2  501    0  0.14596298938E+03 -0.38506536560E+02  0.10037900209E+03  0.43916271664E+03  0.40000000000E+03 0.  1.
   -9000007    1    1    2    0  503 -0.14596298938E+03  0.38506536560E+02 -0.46764640196E+03  0.63362536636E+03  0.40000000000E+03 0.  1.
<mgrwt>
<rscale>  2 0.42753707E+03</rscale>
<asrwt>0</asrwt>
<pdfrwt beam="1">  1       21 0.54270822E-01 0.42753707E+03</pdfrwt>
<pdfrwt beam="2">  1       21 0.11077350E+00 0.42753707E+03</pdfrwt>
<totfact> 0.17864133E+03</totfact>
</mgrwt>
</event>
<event>
 4    1  0.4690138E-002  0.6095718E+03  0.7818608E-02  0.9885744E-01
         21   -1    0    0  501  502  0.00000000000E+00  0.00000000000E+00  0.65824688130E+03  0.65824688130E+03  0.00000000000E+00 0.  1.
         21   -1    0    0  502  503 -0.00000000000E+00 -0.00000000000E+00 -0.60502064955E+03  0.60502064955E+03  0.00000000000E+00 0.  1.
    9000007    1    1    2  501    0  0.29155601796E+03 -0.35577088234E+03 -0.13685725673E+03  0.62474614129E+03  0.40000000000E+03 0.  1.
   -9000007    1    1    2    0  503 -0.29155601796E+03  0.35577088234E+03  0.19008348849E+03  0.63852138956E+03  0.40000000000E+03 0.  1.
<mgrwt>
<rscale>  2 0.60957184E+03</rscale>
<asrwt>0</asrwt>
<pdfrwt beam="1">  1       21 0.10126875E+00 0.60957184E+03</pdfrwt>
<pdfrwt beam="2">  1       21 0.93080100E-01 0.60957184E+03</pdfrwt>
<totfact> 0.61435447E+02</totfact>
</mgrwt>
</event>
<event>
 4    1  0.4690138E-002  0.4375071E+03  0.7818608E-02  0.1031514E+00
         21   -1    0    0  501  502  0.00000000000E+00  0.00000000000E+00  0.32403288765E+03  0.32403288765E+03  0.00000000000E+00 0.  1.
         21   -1    0    0  502  503 -0.00000000000E+00 -0.00000000000E+00 -0.66287115578E+03  0.66287115578E+03  0.00000000000E+00 0.  1.
    9000007    1    1    2  501    0 -0.17721999726E+03  0.23506020973E+01 -0.66191406040E+01  0.43755715716E+03  0.40000000000E+03 0.  1.
   -9000007    1    1    2    0  503  0.17721999726E+03 -0.23506020973E+01 -0.33221912752E+03  0.54934688627E+03  0.40000000000E+03 0.  1.
<mgrwt>
<rscale>  2 0.43750709E+03</rscale>
<asrwt>0</asrwt>
<pdfrwt beam="1">  1       21 0.49851214E-01 0.43750709E+03</pdfrwt>
<pdfrwt beam="2">  1       21 0.10198018E+00 0.43750709E+03</pdfrwt>
<totfact> 0.26161813E+03</totfact>
</mgrwt>
</event>
<event>
 4    1  0.4690138E-002  0.4848695E+03  0.7818608E-02  0.1017805E+00
         21   -1    0    0  503  502  0.00000000000E+00  0.00000000000E+00  0.57778463290E+03  0.57778463290E+03  0.00000000000E+00 0.  1.
         21   -1    0    0  501  503 -0.00000000000E+00 -0.00000000000E+00 -0.41050433600E+03  0.41050433600E+03  0.00000000000E+00 0. -1.
    9000007    1    1    2  501    0 -0.74786884703E+02  0.26363868101E+03  0.37313572288E+02  0.48630313070E+03  0.40000000000E+03 0. -1.
   -9000007    1    1    2    0  502  0.74786884703E+02 -0.26363868101E+03  0.12996672461E+03  0.50198583820E+03  0.40000000000E+03 0. -1.
<mgrwt>
<rscale>  2 0.48486950E+03</rscale>
<asrwt>0</asrwt>
<pdfrwt beam="1">  1       21 0.88889943E-01 0.48486950E+03</pdfrwt>
<pdfrwt beam="2">  1       21 0.63154513E-01 0.48486950E+03</pdfrwt>
<totfact> 0.21418312E+03</totfact>
</mgrwt>
</event>
<event>
 4    1  0.4690138E-002  0.7571053E+03  0.7818608E-02  0.9624269E-01
         21   -1    0    0  501  502  0.00000000000E+00  0.00000000000E+00  0.59787571611E+03  0.59787571611E+03  0.00000000000E+00 0. -1.
         21   -1    0    0  502  503 -0.00000000000E+00 -0.00000000000E+00 -0.11131519496E+04  0.11131519496E+04  0.00000000000E+00 0.  1.
    9000007    1    1    2  501    0  0.52570082455E+03  0.36992854845E+03  0.60992585127E+02  0.75955815007E+03  0.40000000000E+03 0.  1.
   -9000007    1    1    2    0  503 -0.52570082455E+03 -0.36992854845E+03 -0.57626881863E+03  0.95146951565E+03  0.40000000000E+03 0.  1.
<mgrwt>
<rscale>  2 0.75710533E+03</rscale>
<asrwt>0</asrwt>
<pdfrwt beam="1">  1       21 0.91980879E-01 0.75710533E+03</pdfrwt>
<pdfrwt beam="2">  1       21 0.17125415E+00 0.75710533E+03</pdfrwt>
<totfact> 0.14985033E+02</totfact>
</mgrwt>
</event>
<event>
 4    1  0.4690138E-002  0.4905363E+03  0.7818608E-02  0.1016279E+00
         21   -1    0    0  503  502  0.00000000000E+00  0.00000000000E+00  0.37672104954E+03  0.37672104954E+03  0.00000000000E+00 0.  1.
         21   -1    0    0  501  503 -0.00000000000E+00 -0.00000000000E+00 -0.71869374276E+03  0.71869374276E+03  0.00000000000E+00 0.  1.
    9000007    1    1    2  501    0  0.28390420711E+03  0.49268459925E+01 -0.35367130123E+03  0.60473900316E+03  0.40000000000E+03 0.  1.
   -9000007    1    1    2    0  502 -0.28390420711E+03 -0.49268459925E+01  0.11698608006E+02  0.49067578915E+03  0.40000000000E+03 0.  1.
<mgrwt>
<rscale>  2 0.49053631E+03</rscale>
<asrwt>0</asrwt>
<pdfrwt beam="1">  1       21 0.57957085E-01 0.49053631E+03</pdfrwt>
<pdfrwt beam="2">  1       21 0.11056827E+00 0.49053631E+03</pdfrwt>
<totfact> 0.15193211E+03</totfact>
</mgrwt>
</event>
<event>
 4    1  0.4690138E-002  0.4525417E+03  0.7818608E-02  0.1026967E+00
         21   -1    0    0  501  502  0.00000000000E+00  0.00000000000E+00  0.24227983061E+03  0.24227983061E+03  0.00000000000E+00 0. -1.
         21   -1    0    0  502  503 -0.00000000000E+00 -0.00000000000E+00 -0.15671702754E+04  0.15671702754E+04  0.00000000000E+00 0. -1.
    9000007    1    1    2  501    0 -0.18028266502E+03 -0.11086988098E+03 -0.48408247396E+02  0.45512342088E+03  0.40000000000E+03 0. -1.
   -9000007    1    1    2    0  503  0.18028266502E+03  0.11086988098E+03 -0.12764821974E+04  0.13543266852E+04  0.40000000000E+03 0. -1.
<mgrwt>
<rscale>  2 0.45254168E+03</rscale>
<asrwt>0</asrwt>
<pdfrwt beam="1">  1       21 0.37273820E-01 0.45254168E+03</pdfrwt>
<pdfrwt beam="2">  1       21 0.24110312E+00 0.45254168E+03</pdfrwt>
<totfact> 0.42161390E+02</totfact>
</mgrwt>
</event>
<event>
 4    1  0.4690138E-002  0.4888849E+03  0.7818608E-02  0.1016722E+00
         21   -1    0    0  503  502  0.00000000000E+00  0.00000000000E+00  0.28154141950E+03  0.28154141950E+03  0.00000000000E+00 0. -1.
         21   -1    0    0  501  503 -0.00000000000E+00 -0.00000000000E+00 -0.86470454783E+03  0.86470454783E+03  0.00000000000E+00 0. -1.
    9000007    1    1    2  501    0  0.14636899692E+03 -0.23996781047E+03 -0.36899530049E+03  0.61250793065E+03  0.40000000000E+03 0. -1.
   -9000007    1    1    2    0  502 -0.14636899692E+03  0.23996781047E+03 -0.21416782784E+03  0.53373803669E+03  0.40000000000E+03 0. -1.
<mgrwt>
<rscale>  2 0.48888489E+03</rscale>
<asrwt>0</asrwt>
<pdfrwt beam="1">  1       21 0.43314064E-01 0.48888489E+03</pdfrwt>
<pdfrwt beam="2">  1       21 0.13303147E+00 0.48888489E+03</pdfrwt>
<totfact> 0.17645066E+03</totfact>
</mgrwt>
</event>
<event>
 4    1  0.4690138E-002  0.4334166E+03  0.7818608E-02  0.1032786E+00
         21   -1    0    0  503  502  0.00000000000E+00  0.00000000000E+00  0.20734645449E+04  0.20734645449E+04  0.00000000000E+00 0. -1.
         21   -1    0    0  501  503 -0.00000000000E+00 -0.00000000000E+00 -0.15343132383E+03  0.15343132383E+03  0.00000000000E+00 0. -1.
    9000007    1    1    2  501    0  0.13933155195E+03 -0.91851433875E+02  0.24747395017E+03  0.49909249973E+03  0.40000000000E+03 0. -1.
   -9000007    1    1    2    0  502 -0.13933155195E+03  0.91851433875E+02  0.16725592709E+04  0.17278033690E+04  0.40000000000E+03 0. -1.
<mgrwt>
<rscale>  2 0.43341662E+03</rscale>
<asrwt>0</asrwt>
<pdfrwt beam="1">  1       21 0.31899453E+00 0.43341662E+03</pdfrwt>
<pdfrwt beam="2">  1       21 0.23604821E-01 0.43341662E+03</pdfrwt>
<totfact> 0.35636392E+02</totfact>
</mgrwt>
</event>
<event>
 4    1  0.4690138E-002  0.4190582E+03  0.7818608E-02  0.1037373E+00
         21   -1    0    0  501  502  0.00000000000E+00  0.00000000000E+00  0.23521412310E+03  0.23521412310E+03  0.00000000000E+00 0.  1.
         21   -1    0    0  502  503 -0.00000000000E+00 -0.00000000000E+00 -0.74726398041E+03  0.74726398041E+03  0.00000000000E+00 0.  1.
    9000007    1    1    2  501    0 -0.12216034855E+03 -0.26203087468E+02 -0.24132978644E+03  0.48358020883E+03  0.40000000000E+03 0.  1.
   -9000007    1    1    2    0  503  0.12216034855E+03  0.26203087468E+02 -0.27072007086E+03  0.49889789468E+03  0.40000000000E+03 0.  1.
<mgrwt>
<rscale>  2 0.41905817E+03</rscale>
<asrwt>0</asrwt>
<pdfrwt beam="1">  1       21 0.36186788E-01 0.41905817E+03</pdfrwt>
<pdfrwt beam="2">  1       21 0.11496369E+00 0.41905817E+03</pdfrwt>
<totfact> 0.38095324E+03</totfact>
</mgrwt>
</event>
<event>
 4    1  0.4690138E-002  0.5269302E+03  0.7818608E-02  0.1006979E+00
         21   -1    0    0  503  502  0.00000000000E+00  0.00000000000E+00  0.72334611188E+03  0.72334611188E+03  0.00000000000E+00 0. -1.
         21   -1    0    0  501  503 -0.00000000000E+00 -0.00000000000E+00 -0.69367634536E+03  0.69367634536E+03  0.00000000000E+00 0. -1.
    9000007    1    1    2  501    0 -0.29626095834E+03  0.17287254532E+03 -0.45867426129E+03  0.69859684392E+03  0.40000000000E+03 0. -1.
   -9000007    1    1    2    0  502  0.29626095834E+03 -0.17287254532E+03  0.48834402782E+03  0.71842561332E+03  0.40000000000E+03 0. -1.
<mgrwt>
<rscale>  2 0.52693023E+03</rscale>
<asrwt>0</asrwt>
<pdfrwt beam="1">  1       21 0.11128402E+00 0.52693023E+03</pdfrwt>
<pdfrwt beam="2">  1       21 0.10671944E+00 0.52693023E+03</pdfrwt>
<totfact> 0.35848675E+02</totfact>
</mgrwt>
</event>
<event>
 4    1  0.4690138E-002  0.4464133E+03  0.7818608E-02  0.1028797E+00
         21   -1    0    0  503  502  0.00000000000E+00  0.00000000000E+00  0.17046268587E+04  0.17046268587E+04  0.00000000000E+00 0.  1.
         21   -1    0    0  501  503 -0.00000000000E+00 -0.00000000000E+00 -0.15687640020E+03  0.15687640020E+03  0.00000000000E+00 0.  1.
    9000007    1    1    2  501    0  0.11944882661E+03  0.15816696118E+03  0.30407584149E+03  0.54013602654E+03  0.40000000000E+03 0.  1.
   -9000007    1    1    2    0  502 -0.11944882661E+03 -0.15816696118E+03  0.12436746170E+04  0.13213672324E+04  0.40000000000E+03 0.  1.
<mgrwt>
<rscale>  2 0.44641327E+03</rscale>
<asrwt>0</asrwt>
<pdfrwt beam="1">  1       21 0.26225027E+00 0.44641327E+03</pdfrwt>
<pdfrwt beam="2">  1       21 0.24134832E-01 0.44641327E+03</pdfrwt>
<totfact> 0.74428437E+02</totfact>
</mgrwt>
</event>
<event>
 4    1  0.4690138E-002  0.5755292E+03  0.7818608E-02  0.9957517E-01
         21   -1    0    0  503  502  0.00000000000E+00  0.00000000000E+00  0.55385284556E+03  0.55385284556E+03  0.00000000000E+00 0.  1.
         21   -1    0    0  501  503 -0.00000000000E+00 -0.00000000000E+00 -0.66911244770E+03  0.66911244770E+03  0.00000000000E+00 0.  1.
    9000007    1    1    2  501    0 -0.28255752890E+03 -0.30231621403E+03 -0.25690018939E+03  0.63026308611E+03  0.40000000000E+03 0.  1.
   -9000007    1    1    2    0  502  0.28255752890E+03  0.30231621403E+03  0.14164058725E+03  0.59270220715E+03  0.40000000000E+03 0.  1.
<mgrwt>
<rscale>  2 0.57552919E+03</rscale>
<asrwt>0</asrwt>
<pdfrwt beam="1">  1       21 0.85208130E-01 0.57552919E+03</pdfrwt>
<pdfrwt beam="2">  1       21 0.10294038E+00 0.57552919E+03</pdfrwt>
<totfact> 0.73616809E+02</totfact>
</mgrwt>
</event>
<event>
 4    1  0.4690138E-002  0.7232745E+03  0.7818608E-02  0.9678237E-01
         21   -1    0    0  503  502  0.00000000000E+00  0.00000000000E+00  0.18949576321E+04  0.18949576321E+04  0.00000000000E+00 0.  1.
         21   -1    0    0  501  503 -0.00000000000E+00 -0.00000000000E+00 -0.33581729649E+03  0.33581729649E+03  0.00000000000E+00 0.  1.
    9000007    1    1    2  501    0  0.28230782538E+03 -0.53237984515E+03  0.30906757482E+03  0.78654228977E+03  0.40000000000E+03 0.  1.
   -9000007    1    1    2    0  502 -0.28230782538E+03  0.53237984515E+03  0.12500727608E+04  0.14442326388E+04  0.40000000000E+03 0.  1.
<mgrwt>
<rscale>  2 0.72327450E+03</rscale>
<asrwt>0</asrwt>
<pdfrwt beam="1">  1       21 0.29153194E+00 0.72327450E+03</pdfrwt>
<pdfrwt beam="2">  1       21 0.51664201E-01 0.72327450E+03</pdfrwt>
<totfact> 0.92279231E+01</totfact>
</mgrwt>
</event>
<event>
 4    1  0.4690138E-002  0.4139085E+03  0.7818608E-02  0.1039067E+00
         21   -1    0    0  501  502  0.00000000000E+00  0.00000000000E+00  0.86006943221E+03  0.86006943221E+03  0.00000000000E+00 0. -1.
         21   -1    0    0  502  503 -0.00000000000E+00 -0.00000000000E+00 -0.41309737859E+03  0.41309737859E+03  0.00000000000E+00 0. -1.
    9000007    1    1    2  501    0  0.85088354264E+02 -0.63876448204E+02  0.68156297491E+03  0.79740097657E+03  0.40000000000E+03 0. -1.
   -9000007    1    1    2    0  503 -0.85088354264E+02  0.63876448204E+02 -0.23459092130E+03  0.47576583423E+03  0.40000000000E+03 0. -1.
<mgrwt>
<rscale>  2 0.41390848E+03</rscale>
<asrwt>0</asrwt>
<pdfrwt beam="1">  1       21 0.13231837E+00 0.41390848E+03</pdfrwt>
<pdfrwt beam="2">  1       21 0.63553443E-01 0.41390848E+03</pdfrwt>
<totfact> 0.81096516E+02</totfact>
</mgrwt>
</event>
<event>
 4    1  0.4690138E-002  0.4198941E+03  0.7818608E-02  0.1037101E+00
         21   -1    0    0  501  502  0.00000000000E+00  0.00000000000E+00  0.38821374741E+03  0.38821374741E+03  0.00000000000E+00 0. -1.
         21   -1    0    0  502  503 -0.00000000000E+00 -0.00000000000E+00 -0.55898443997E+03  0.55898443997E+03  0.00000000000E+00 0. -1.
    9000007    1    1    2  501    0  0.10652603696E+03  0.70450435690E+02  0.11970385134E+03  0.43662349051E+03  0.40000000000E+03 0. -1.
   -9000007    1    1    2    0  503 -0.10652603696E+03 -0.70450435690E+02 -0.29047454390E+03  0.51057469688E+03  0.40000000000E+03 0. -1.
<mgrwt>
<rscale>  2 0.41989411E+03</rscale>
<asrwt>0</asrwt>
<pdfrwt beam="1">  1       21 0.59725192E-01 0.41989411E+03</pdfrwt>
<pdfrwt beam="2">  1       21 0.85997606E-01 0.41989411E+03</pdfrwt>
<totfact> 0.26808365E+03</totfact>
</mgrwt>
</event>
<event>
 4    1  0.4690138E-002  0.4523187E+03  0.7818608E-02  0.1027033E+00
         21   -1    0    0  501  502  0.00000000000E+00  0.00000000000E+00  0.12924702647E+04  0.12924702647E+04  0.00000000000E+00 0.  1.
         21   -1    0    0  502  503 -0.00000000000E+00 -0.00000000000E+00 -0.15905248785E+03  0.15905248785E+03  0.00000000000E+00 0.  1.
    9000007    1    1    2  501    0 -0.13097572877E+03 -0.16564286103E+03  0.51663927306E+03  0.68666464698E+03  0.40000000000E+03 0.  1.
   -9000007    1    1    2    0  503  0.13097572877E+03  0.16564286103E+03  0.61677850380E+03  0.76485810559E+03  0.40000000000E+03 0.  1.
<mgrwt>
<rscale>  2 0.45231869E+03</rscale>
<asrwt>0</asrwt>
<pdfrwt beam="1">  1       21 0.19884157E+00 0.45231869E+03</pdfrwt>
<pdfrwt beam="2">  1       21 0.24469614E-01 0.45231869E+03</pdfrwt>
<totfact> 0.18179422E+03</totfact>
</mgrwt>
</event>
<event>
 4    1  0.4690138E-002  0.4002119E+03  0.7818608E-02  0.1043706E+00
         21   -1    0    0  503  502  0.00000000000E+00  0.00000000000E+00  0.10354700292E+04  0.10354700292E+04  0.00000000000E+00 0.  1.
         21   -1    0    0  501  503 -0.00000000000E+00 -0.00000000000E+00 -0.16055666875E+03  0.16055666875E+03  0.00000000000E+00 0.  1.
    9000007    1    1    2  501    0  0.31374760142E+01  0.12638532160E+02  0.32307600579E+03  0.51434198912E+03  0.40000000000E+03 0. -1.
   -9000007    1    1    2    0  502 -0.31374760142E+01 -0.12638532160E+02  0.55183735467E+03  0.68168470883E+03  0.40000000000E+03 0. -1.
<mgrwt>
<rscale>  2 0.40021191E+03</rscale>
<asrwt>0</asrwt>
<pdfrwt beam="1">  1       21 0.15930308E+00 0.40021191E+03</pdfrwt>
<pdfrwt beam="2">  1       21 0.24701027E-01 0.40021191E+03</pdfrwt>
<totfact> 0.34752902E+03</totfact>
</mgrwt>
</event>
<event>
 4    1  0.4690138E-002  0.4597858E+03  0.7818608E-02  0.1024843E+00
         21   -1    0    0  501  502  0.00000000000E+00  0.00000000000E+00  0.77525063582E+03  0.77525063582E+03  0.00000000000E+00 0. -1.
         21   -1    0    0  502  503 -0.00000000000E+00 -0.00000000000E+00 -0.40301607432E+03  0.40301607432E+03  0.00000000000E+00 0. -1.
    9000007    1    1    2  501    0 -0.40604018598E+02 -0.22305662216E+03  0.52113549020E+03  0.69497132471E+03  0.40000000000E+03 0. -1.
   -9000007    1    1    2    0  503  0.40604018598E+02  0.22305662216E+03 -0.14890092869E+03  0.48329538543E+03  0.40000000000E+03 0. -1.
<mgrwt>
<rscale>  2 0.45978576E+03</rscale>
<asrwt>0</asrwt>
<pdfrwt beam="1">  1       21 0.11926933E+00 0.45978576E+03</pdfrwt>
<pdfrwt beam="2">  1       21 0.62002473E-01 0.45978576E+03</pdfrwt>
<totfact> 0.10964955E+03</totfact>
</mgrwt>
</event>
<event>
 4    1  0.4690138E-002  0.4093427E+03  0.7818608E-02  0.1040592E+00
         21   -1    0    0  501  502  0.00000000000E+00  0.00000000000E+00  0.32676478094E+04  0.32676478094E+04  0.00000000000E+00 0. -1.
         21   -1    0    0  502  503 -0.00000000000E+00 -0.00000000000E+00 -0.45799269324E+03  0.45799269324E+03  0.00000000000E+00 0. -1.
    9000007    1    1    2  501    0 -0.48791530512E+02 -0.71977745809E+02  0.31602680939E+04  0.31866684538E+04  0.40000000000E+03 0. -1.
   -9000007    1    1    2    0  503  0.48791530512E+02  0.71977745809E+02 -0.35061297768E+03  0.53897204887E+03  0.40000000000E+03 0. -1.
<mgrwt>
<rscale>  2 0.40934266E+03</rscale>
<asrwt>0</asrwt>
<pdfrwt beam="1">  1       21 0.50271503E+00 0.40934266E+03</pdfrwt>
<pdfrwt beam="2">  1       21 0.70460416E-01 0.40934266E+03</pdfrwt>
<totfact> 0.23976373E+00</totfact>
</mgrwt>
</event>
<event>
 4    1  0.4690138E-002  0.6518147E+03  0.7818608E-02  0.9803380E-01
         21   -1    0    0  501  502  0.00000000000E+00  0.00000000000E+00  0.82273570629E+03  0.82273570629E+03  0.00000000000E+00 0. -1.
         21   -1    0    0  502  503 -0.00000000000E+00 -0.00000000000E+00 -0.64176013455E+03  0.64176013455E+03  0.00000000000E+00 0.  1.
    9000007    1    1    2  501    0  0.41453153147E+03 -0.30500157589E+03  0.41411725845E+03  0.77224054259E+03  0.40000000000E+03 0. -1.
   -9000007    1    1    2    0  503 -0.41453153147E+03  0.30500157589E+03 -0.23314168670E+03  0.69225529825E+03  0.40000000000E+03 0.  1.
<mgrwt>
<rscale>  2 0.65181466E+03</rscale>
<asrwt>0</asrwt>
<pdfrwt beam="1">  1       21 0.12657473E+00 0.65181466E+03</pdfrwt>
<pdfrwt beam="2">  1       21 0.98732327E-01 0.65181466E+03</pdfrwt>
<totfact> 0.29909839E+02</totfact>
</mgrwt>
</event>
<event>
 4    1  0.4690138E-002  0.4056489E+03  0.7818608E-02  0.1041841E+00
         21   -1    0    0  503  502  0.00000000000E+00  0.00000000000E+00  0.31277080118E+04  0.31277080118E+04  0.00000000000E+00 0. -1.
         21   -1    0    0  501  503 -0.00000000000E+00 -0.00000000000E+00 -0.53005362000E+02  0.53005362000E+02  0.00000000000E+00 0. -1.
    9000007    1    1    2  501    0 -0.96784170191E+01  0.66763660509E+02  0.16745724147E+04  0.17230043036E+04  0.40000000000E+03 0.  1.
   -9000007    1    1    2    0  502  0.96784170191E+01 -0.66763660509E+02  0.14001302350E+04  0.14577090701E+04  0.40000000000E+03 0.  1.
<mgrwt>
<rscale>  2 0.40564893E+03</rscale>
<asrwt>0</asrwt>
<pdfrwt beam="1">  1       21 0.48118571E+00 0.40564893E+03</pdfrwt>
<pdfrwt beam="2">  1       21 0.81546735E-02 0.40564893E+03</pdfrwt>
<totfact> 0.23318924E+02</totfact>
</mgrwt>
</event>
<event>
 4    1  0.4690138E-002  0.6017372E+03  0.7818608E-02  0.9901808E-01
         21   -1    0    0  503  502  0.00000000000E+00  0.00000000000E+00  0.42782079250E+03  0.42782079250E+03  0.00000000000E+00 0. -1.
         21   -1    0    0  501  503 -0.00000000000E+00 -0.00000000000E+00 -0.94832173818E+03  0.94832173818E+03  0.00000000000E+00 0. -1.
    9000007    1    1    2  501    0 -0.54864387854E+02  0.44618113660E+03 -0.48587567855E+03  0.77340990601E+03  0.40000000000E+03 0. -1.
   -9000007    1    1    2    0  502  0.54864387854E+02 -0.44618113660E+03 -0.34625267128E+02  0.60273262466E+03  0.40000000000E+03 0. -1.
<mgrwt>
<rscale>  2 0.60173724E+03</rscale>
<asrwt>0</asrwt>
<pdfrwt beam="1">  1       21 0.65818584E-01 0.60173724E+03</pdfrwt>
<pdfrwt beam="2">  1       21 0.14589565E+00 0.60173724E+03</pdfrwt>
<totfact> 0.53711605E+02</totfact>
</mgrwt>
</event>
<event>
 4    1  0.4690138E-002  0.6121577E+03  0.7818608E-02  0.9880499E-01
         21   -1    0    0  503  502  0.00000000000E+00  0.00000000000E+00  0.10104759865E+04  0.10104759865E+04  0.00000000000E+00 0.  1.
         21   -1    0    0  501  503 -0.00000000000E+00 -0.00000000000E+00 -0.40133511788E+03  0.40133511788E+03  0.00000000000E+00 0. -1.
    9000007    1    1    2  501    0 -0.30284957074E+03  0.35074085523E+03  0.11002415738E+03  0.62196649848E+03  0.40000000000E+03 0. -1.
   -9000007    1    1    2    0  502  0.30284957074E+03 -0.35074085523E+03  0.49911671121E+03  0.78984460588E+03  0.40000000000E+03 0.  1.
<mgrwt>
<rscale>  2 0.61215767E+03</rscale>
<asrwt>0</asrwt>
<pdfrwt beam="1">  1       21 0.15545784E+00 0.61215767E+03</pdfrwt>
<pdfrwt beam="2">  1       21 0.61743865E-01 0.61215767E+03</pdfrwt>
<totfact> 0.51850190E+02</totfact>
</mgrwt>
</event>
<event>
 4    1  0.4690138E-002  0.5224355E+03  0.7818608E-02  0.1008083E+00
         21   -1    0    0  501  502  0.00000000000E+00  0.00000000000E+00  0.87415946906E+03  0.87415946906E+03  0.00000000000E+00 0.  1.
         21   -1    0    0  502  503 -0.00000000000E+00 -0.00000000000E+00 -0.48344116565E+03  0.48344116565E+03  0.00000000000E+00 0. -1.
    9000007    1    1    2  501    0 -0.33429079254E+03  0.34475317659E+02  0.59931710421E+03  0.79505966625E+03  0.40000000000E+03 0.  1.
   -9000007    1    1    2    0  503  0.33429079254E+03 -0.34475317659E+02 -0.20859880080E+03  0.56254096846E+03  0.40000000000E+03 0. -1.
<mgrwt>
<rscale>  2 0.52243553E+03</rscale>
<asrwt>0</asrwt>
<pdfrwt beam="1">  1       21 0.13448607E+00 0.52243553E+03</pdfrwt>
<pdfrwt beam="2">  1       21 0.74375564E-01 0.52243553E+03</pdfrwt>
<totfact> 0.52123903E+02</totfact>
</mgrwt>
</event>
<event>
 4    1  0.4690138E-002  0.6738819E+03  0.7818608E-02  0.9762971E-01
         21   -1    0    0  501  502  0.00000000000E+00  0.00000000000E+00  0.85033050207E+03  0.85033050207E+03  0.00000000000E+00 0. -1.
         21   -1    0    0  502  503 -0.00000000000E+00 -0.00000000000E+00 -0.57425355379E+03  0.57425355379E+03  0.00000000000E+00 0.  1.
    9000007    1    1    2  501    0  0.26438330668E+03 -0.47351686952E+03  0.32651302900E+03  0.74881741211E+03  0.40000000000E+03 0. -1.
   -9000007    1    1    2    0  503 -0.26438330668E+03  0.47351686952E+03 -0.50436080710E+02  0.67576664375E+03  0.40000000000E+03 0.  1.
<mgrwt>
<rscale>  2 0.67388186E+03</rscale>
<asrwt>0</asrwt>
<pdfrwt beam="1">  1       21 0.13082008E+00 0.67388186E+03</pdfrwt>
<pdfrwt beam="2">  1       21 0.88346701E-01 0.67388186E+03</pdfrwt>
<totfact> 0.35619068E+02</totfact>
</mgrwt>
</event>
<event>
 4    1  0.4690138E-002  0.4216384E+03  0.7818608E-02  0.1036534E+00
         21   -1    0    0  501  502  0.00000000000E+00  0.00000000000E+00  0.21933566773E+04  0.21933566773E+04  0.00000000000E+00 0.  1.
         21   -1    0    0  502  503 -0.00000000000E+00 -0.00000000000E+00 -0.14598365403E+03  0.14598365403E+03  0.00000000000E+00 0.  1.
    9000007    1    1    2  501    0  0.30599718182E+01  0.13330263576E+03  0.18037589616E+04  0.18523836935E+04  0.40000000000E+03 0.  1.
   -9000007    1    1    2    0  503 -0.30599718182E+01 -0.13330263576E+03  0.24361406160E+03  0.48695663784E+03  0.40000000000E+03 0.  1.
<mgrwt>
<rscale>  2 0.42163842E+03</rscale>
<asrwt>0</asrwt>
<pdfrwt beam="1">  1       21 0.33743947E+00 0.42163842E+03</pdfrwt>
<pdfrwt beam="2">  1       21 0.22459025E-01 0.42163842E+03</pdfrwt>
<totfact> 0.30570778E+02</totfact>
</mgrwt>
</event>
<event>
 4    1  0.4690138E-002  0.4346284E+03  0.7818608E-02  0.1032408E+00
         21   -1    0    0  501  502  0.00000000000E+00  0.00000000000E+00  0.14760869261E+03  0.14760869261E+03  0.00000000000E+00 0. -1.
         21   -1    0    0  502  503 -0.00000000000E+00 -0.00000000000E+00 -0.18288447394E+04  0.18288447394E+04  0.00000000000E+00 0. -1.
    9000007    1    1    2  501    0 -0.13616494572E+03 -0.10178879990E+03 -0.29912506881E+03  0.52761506709E+03  0.40000000000E+03 0. -1.
   -9000007    1    1    2    0  503  0.13616494572E+03  0.10178879990E+03 -0.13821109780E+04  0.14488383649E+04  0.40000000000E+03 0. -1.
<mgrwt>
<rscale>  2 0.43462841E+03</rscale>
<asrwt>0</asrwt>
<pdfrwt beam="1">  1       21 0.22709030E-01 0.43462841E+03</pdfrwt>
<pdfrwt beam="2">  1       21 0.28136072E+00 0.43462841E+03</pdfrwt>
<totfact> 0.64583080E+02</totfact>
</mgrwt>
</event>
<event>
 4    1  0.4690138E-002  0.4095917E+03  0.7818608E-02  0.1040508E+00
         21   -1    0    0  501  502  0.00000000000E+00  0.00000000000E+00  0.59296435191E+03  0.59296435191E+03  0.00000000000E+00 0.  1.
         21   -1    0    0  502  503 -0.00000000000E+00 -0.00000000000E+00 -0.41773149780E+03  0.41773149780E+03  0.00000000000E+00 0.  1.
    9000007    1    1    2  501    0 -0.88056212319E+02 -0.33880059649E+01  0.37469101217E+03  0.55512046414E+03  0.40000000000E+03 0.  1.
   -9000007    1    1    2    0  503  0.88056212319E+02  0.33880059649E+01 -0.19945815806E+03  0.45557538556E+03  0.40000000000E+03 0.  1.
<mgrwt>
<rscale>  2 0.40959172E+03</rscale>
<asrwt>0</asrwt>
<pdfrwt beam="1">  1       21 0.91225285E-01 0.40959172E+03</pdfrwt>
<pdfrwt beam="2">  1       21 0.64266384E-01 0.40959172E+03</pdfrwt>
<totfact> 0.19937308E+03</totfact>
</mgrwt>
</event>
<event>
 4    1  0.4690138E-002  0.4682720E+03  0.7818608E-02  0.1022409E+00
         21   -1    0    0  501  502  0.00000000000E+00  0.00000000000E+00  0.10650189305E+04  0.10650189305E+04  0.00000000000E+00 0. -1.
         21   -1    0    0  502  503 -0.00000000000E+00 -0.00000000000E+00 -0.21118591577E+03  0.21118591577E+03  0.00000000000E+00 0. -1.
    9000007    1    1    2  501    0  0.24197749261E+03  0.26935440659E+02  0.32588515525E+03  0.57050833413E+03  0.40000000000E+03 0. -1.
   -9000007    1    1    2    0  503 -0.24197749261E+03 -0.26935440659E+02  0.52794785943E+03  0.70569651209E+03  0.40000000000E+03 0. -1.
<mgrwt>
<rscale>  2 0.46827196E+03</rscale>
<asrwt>0</asrwt>
<pdfrwt beam="1">  1       21 0.16384906E+00 0.46827196E+03</pdfrwt>
<pdfrwt beam="2">  1       21 0.32490141E-01 0.46827196E+03</pdfrwt>
<totfact> 0.18198928E+03</totfact>
</mgrwt>
</event>
<event>
 4    1  0.4690138E-002  0.4005968E+03  0.7818608E-02  0.1043573E+00
         21   -1    0    0  503  502  0.00000000000E+00  0.00000000000E+00  0.83310610533E+03  0.83310610533E+03  0.00000000000E+00 0. -1.
         21   -1    0    0  501  503 -0.00000000000E+00 -0.00000000000E+00 -0.24605817356E+03  0.24605817356E+03  0.00000000000E+00 0. -1.
    9000007    1    1    2  501    0 -0.97357034595E+01  0.19570444439E+02  0.42080342114E+02  0.40280087067E+03  0.40000000000E+03 0. -1.
   -9000007    1    1    2    0  502  0.97357034595E+01 -0.19570444439E+02  0.54496758965E+03  0.67636340823E+03  0.40000000000E+03 0. -1.
<mgrwt>
<rscale>  2 0.40059679E+03</rscale>
<asrwt>0</asrwt>
<pdfrwt beam="1">  1       21 0.12817017E+00 0.40059679E+03</pdfrwt>
<pdfrwt beam="2">  1       21 0.37855104E-01 0.40059679E+03</pdfrwt>
<totfact> 0.26561983E+03</totfact>
</mgrwt>
</event>
<event>
 4    1  0.4690138E-002  0.5294374E+03  0.7818608E-02  0.1006369E+00
         21   -1    0    0  501  502  0.00000000000E+00  0.00000000000E+00  0.36170406846E+03  0.36170406846E+03  0.00000000000E+00 0. -1.
         21   -1    0    0  502  503 -0.00000000000E+00 -0.00000000000E+00 -0.92488723362E+03  0.92488723362E+03  0.00000000000E+00 0.  1.
    9000007    1    1    2  501    0 -0.33312290064E+03  0.96608038983E+02 -0.22582308290E+02  0.52991880583E+03  0.40000000000E+03 0. -1.
   -9000007    1    1    2    0  503  0.33312290064E+03 -0.96608038983E+02 -0.54060085687E+03  0.75667249625E+03  0.40000000000E+03 0.  1.
<mgrwt>
<rscale>  2 0.52943742E+03</rscale>
<asrwt>0</asrwt>
<pdfrwt beam="1">  1       21 0.55646780E-01 0.52943742E+03</pdfrwt>
<pdfrwt beam="2">  1       21 0.14229034E+00 0.52943742E+03</pdfrwt>
<totfact> 0.85362165E+02</totfact>
</mgrwt>
</event>
<event>
 4    1  0.4690138E-002  0.5161953E+03  0.7818608E-02  0.1009636E+00
         21   -1    0    0  503  502  0.00000000000E+00  0.00000000000E+00  0.65552028383E+03  0.65552028383E+03  0.00000000000E+00 0.  1.
         21   -1    0    0  501  503 -0.00000000000E+00 -0.00000000000E+00 -0.42178862291E+03  0.42178862291E+03  0.00000000000E+00 0. -1.
    9000007    1    1    2  501    0  0.22242081182E+03 -0.23871857297E+03  0.21947692545E+03  0.56091683467E+03  0.40000000000E+03 0.  1.
   -9000007    1    1    2    0  502 -0.22242081182E+03  0.23871857297E+03  0.14254735475E+02  0.51639207207E+03  0.40000000000E+03 0.  1.
<mgrwt>
<rscale>  2 0.51619529E+03</rscale>
<asrwt>0</asrwt>
<pdfrwt beam="1">  1       21 0.10084927E+00 0.51619529E+03</pdfrwt>
<pdfrwt beam="2">  1       21 0.64890558E-01 0.51619529E+03</pdfrwt>
<totfact> 0.14732517E+03</totfact>
</mgrwt>
</event>
<event>
 4    1  0.4690138E-002  0.5597276E+03  0.7818608E-02  0.9992671E-01
         21   -1    0    0  501  502  0.00000000000E+00  0.00000000000E+00  0.10619051660E+04  0.10619051660E+04  0.00000000000E+00 0. -1.
         21   -1    0    0  502  503 -0.00000000000E+00 -0.00000000000E+00 -0.31420162497E+03  0.31420162497E+03  0.00000000000E+00 0.  1.
    9000007    1    1    2  501    0 -0.29678485920E+02  0.39040264656E+03  0.54380719922E+03  0.78039817330E+03  0.40000000000E+03 0.  1.
   -9000007    1    1    2    0  503  0.29678485920E+02 -0.39040264656E+03  0.20389634183E+03  0.59570861768E+03  0.40000000000E+03 0. -1.
<mgrwt>
<rscale>  2 0.55972765E+03</rscale>
<asrwt>0</asrwt>
<pdfrwt beam="1">  1       21 0.16337002E+00 0.55972765E+03</pdfrwt>
<pdfrwt beam="2">  1       21 0.48338712E-01 0.55972765E+03</pdfrwt>
<totfact> 0.78109038E+02</totfact>
</mgrwt>
</event>
<event>
 4    1  0.4690138E-002  0.4420261E+03  0.7818608E-02  0.1030127E+00
         21   -1    0    0  503  502  0.00000000000E+00  0.00000000000E+00  0.14789223451E+03  0.14789223451E+03  0.00000000000E+00 0.  1.
         21   -1    0    0  501  503 -0.00000000000E+00 -0.00000000000E+00 -0.23506976497E+04  0.23506976497E+04  0.00000000000E+00 0.  1.
    9000007    1    1    2  501    0 -0.15582405690E+03  0.10538467627E+03 -0.19281844987E+04  0.19782018420E+04  0.40000000000E+03 0.  1.
   -9000007    1    1    2    0  502  0.15582405690E+03 -0.10538467627E+03 -0.27462091651E+03  0.52038804222E+03  0.40000000000E+03 0.  1.
<mgrwt>
<rscale>  2 0.44202609E+03</rscale>
<asrwt>0</asrwt>
<pdfrwt beam="1">  1       21 0.22752651E-01 0.44202609E+03</pdfrwt>
<pdfrwt beam="2">  1       21 0.36164580E+00 0.44202609E+03</pdfrwt>
<totfact> 0.20909562E+02</totfact>
</mgrwt>
</event>
<event>
 4    1  0.4690138E-002  0.4138604E+03  0.7818608E-02  0.1039083E+00
         21   -1    0    0  503  502  0.00000000000E+00  0.00000000000E+00  0.69399133638E+03  0.69399133638E+03  0.00000000000E+00 0. -1.
         21   -1    0    0  501  503 -0.00000000000E+00 -0.00000000000E+00 -0.24857880078E+03  0.24857880078E+03  0.00000000000E+00 0. -1.
    9000007    1    1    2  501    0  0.80327941409E+02  0.69482813625E+02  0.18289368779E+03  0.45247159092E+03  0.40000000000E+03 0. -1.
   -9000007    1    1    2    0  502 -0.80327941409E+02 -0.69482813625E+02  0.26251884782E+03  0.49009854623E+03  0.40000000000E+03 0. -1.
<mgrwt>
<rscale>  2 0.41386041E+03</rscale>
<asrwt>0</asrwt>
<pdfrwt beam="1">  1       21 0.10676790E+00 0.41386041E+03</pdfrwt>
<pdfrwt beam="2">  1       21 0.38242893E-01 0.41386041E+03</pdfrwt>
<totfact> 0.40971842E+03</totfact>
</mgrwt>
</event>
<event>
 4    1  0.4690138E-002  0.6198919E+03  0.7818608E-02  0.9864975E-01
         21   -1    0    0  501  502  0.00000000000E+00  0.00000000000E+00  0.19076121081E+03  0.19076121081E+03  0.00000000000E+00 0.  1.
         21   -1    0    0  502  503 -0.00000000000E+00 -0.00000000000E+00 -0.20372165675E+04  0.20372165675E+04  0.00000000000E+00 0. -1.
    9000007    1    1    2  501    0  0.24744392119E+03 -0.40377895268E+03 -0.80528817847E+03  0.10162455349E+04  0.40000000000E+03 0. -1.
   -9000007    1    1    2    0  503 -0.24744392119E+03  0.40377895268E+03 -0.10411671782E+04  0.12117322434E+04  0.40000000000E+03 0.  1.
<mgrwt>
<rscale>  2 0.61989188E+03</rscale>
<asrwt>0</asrwt>
<pdfrwt beam="1">  1       21 0.29347878E-01 0.61989188E+03</pdfrwt>
<pdfrwt beam="2">  1       21 0.31341794E+00 0.61989188E+03</pdfrwt>
<totfact> 0.22815080E+02</totfact>
</mgrwt>
</event>
<event>
 4    1  0.4690138E-002  0.5205875E+03  0.7818608E-02  0.1008541E+00
         21   -1    0    0  503  502  0.00000000000E+00  0.00000000000E+00  0.92595503734E+03  0.92595503734E+03  0.00000000000E+00 0. -1.
         21   -1    0    0  501  503 -0.00000000000E+00 -0.00000000000E+00 -0.32055678363E+03  0.32055678363E+03  0.00000000000E+00 0. -1.
    9000007    1    1    2  501    0 -0.23420936693E+03 -0.23697539907E+03  0.11891360306E+03  0.53399607893E+03  0.40000000000E+03 0. -1.
   -9000007    1    1    2    0  502  0.23420936693E+03  0.23697539907E+03  0.48648465066E+03  0.71251574203E+03  0.40000000000E+03 0. -1.
<mgrwt>
<rscale>  2 0.52058752E+03</rscale>
<asrwt>0</asrwt>
<pdfrwt beam="1">  1       21 0.14245462E+00 0.52058752E+03</pdfrwt>
<pdfrwt beam="2">  1       21 0.49316429E-01 0.52058752E+03</pdfrwt>
<totfact> 0.11067388E+03</totfact>
</mgrwt>
</event>
<event>
 4    1  0.4690138E-002  0.5568692E+03  0.7818608E-02  0.9999164E-01
         21   -1    0    0  503  502  0.00000000000E+00  0.00000000000E+00  0.59326246726E+03  0.59326246726E+03  0.00000000000E+00 0.  1.
         21   -1    0    0  501  503 -0.00000000000E+00 -0.00000000000E+00 -0.64084877410E+03  0.64084877410E+03  0.00000000000E+00 0.  1.
    9000007    1    1    2  501    0  0.30904345716E+03 -0.23365664506E+03 -0.28873201753E+03  0.62727144375E+03  0.40000000000E+03 0.  1.
   -9000007    1    1    2    0  502 -0.30904345716E+03  0.23365664506E+03  0.24114571068E+03  0.60683979762E+03  0.40000000000E+03 0.  1.
<mgrwt>
<rscale>  2 0.55686918E+03</rscale>
<asrwt>0</asrwt>
<pdfrwt beam="1">  1       21 0.91271149E-01 0.55686918E+03</pdfrwt>
<pdfrwt beam="2">  1       21 0.98592119E-01 0.55686918E+03</pdfrwt>
<totfact> 0.69962092E+02</totfact>
</mgrwt>
</event>
<event>
 4    1  0.4690138E-002  0.5171319E+03  0.7818608E-02  0.1009402E+00
         21   -1    0    0  503  502  0.00000000000E+00  0.00000000000E+00  0.91700546000E+03  0.91700546000E+03  0.00000000000E+00 0.  1.
         21   -1    0    0  501  503 -0.00000000000E+00 -0.00000000000E+00 -0.52585241384E+03  0.52585241384E+03  0.00000000000E+00 0.  1.
    9000007    1    1    2  501    0  0.30684504724E+03 -0.11520188303E+03 -0.28590187203E+03  0.59090205390E+03  0.40000000000E+03 0.  1.
   -9000007    1    1    2    0  502 -0.30684504724E+03  0.11520188303E+03  0.67705491819E+03  0.85195581993E+03  0.40000000000E+03 0.  1.
<mgrwt>
<rscale>  2 0.51713186E+03</rscale>
<asrwt>0</asrwt>
<pdfrwt beam="1">  1       21 0.14107776E+00 0.51713186E+03</pdfrwt>
<pdfrwt beam="2">  1       21 0.80900371E-01 0.51713186E+03</pdfrwt>
<totfact> 0.37897138E+02</totfact>
</mgrwt>
</event>
<event>
 4    1  0.4690138E-002  0.4530366E+03  0.7818608E-02  0.1026820E+00
         21   -1    0    0  503  502  0.00000000000E+00  0.00000000000E+00  0.23631226666E+04  0.23631226666E+04  0.00000000000E+00 0.  1.
         21   -1    0    0  501  503 -0.00000000000E+00 -0.00000000000E+00 -0.12829654656E+03  0.12829654656E+03  0.00000000000E+00 0.  1.
    9000007    1    1    2  501    0  0.40069211238E+02  0.20889383498E+03  0.40939802388E+03  0.61061355859E+03  0.40000000000E+03 0.  1.
   -9000007    1    1    2    0  502 -0.40069211238E+02 -0.20889383498E+03  0.18254280962E+04  0.18808056546E+04  0.40000000000E+03 0.  1.
<mgrwt>
<rscale>  2 0.45303662E+03</rscale>
<asrwt>0</asrwt>
<pdfrwt beam="1">  1       21 0.36355730E+00 0.45303662E+03</pdfrwt>
<pdfrwt beam="2">  1       21 0.19737932E-01 0.45303662E+03</pdfrwt>
<totfact> 0.26517818E+02</totfact>
</mgrwt>
</event>
<event>
 4    1  0.4690138E-002  0.4011721E+03  0.7818608E-02  0.1043375E+00
         21   -1    0    0  503  502  0.00000000000E+00  0.00000000000E+00  0.50448956029E+03  0.50448956029E+03  0.00000000000E+00 0.  1.
         21   -1    0    0  501  503 -0.00000000000E+00 -0.00000000000E+00 -0.33287188457E+03  0.33287188457E+03  0.00000000000E+00 0.  1.
    9000007    1    1    2  501    0  0.26512616656E+02 -0.15365495574E+02  0.38097060670E+00  0.40117223537E+03  0.40000000000E+03 0.  1.
   -9000007    1    1    2    0  502 -0.26512616656E+02  0.15365495574E+02  0.17123670510E+03  0.43618920949E+03  0.40000000000E+03 0.  1.
<mgrwt>
<rscale>  2 0.40117205E+03</rscale>
<asrwt>0</asrwt>
<pdfrwt beam="1">  1       21 0.77613779E-01 0.40117205E+03</pdfrwt>
<pdfrwt beam="2">  1       21 0.51211059E-01 0.40117205E+03</pdfrwt>
<totfact> 0.47708122E+03</totfact>
</mgrwt>
</event>
<event>
 4    1  0.4690138E-002  0.4675188E+03  0.7818608E-02  0.1022623E+00
         21   -1    0    0  503  502  0.00000000000E+00  0.00000000000E+00  0.65581476269E+03  0.65581476269E+03  0.00000000000E+00 0. -1.
         21   -1    0    0  501  503 -0.00000000000E+00 -0.00000000000E+00 -0.36764903986E+03  0.36764903986E+03  0.00000000000E+00 0.  1.
    9000007    1    1    2  501    0  0.13112190117E+03  0.20342280527E+03 -0.12366002084E+02  0.46768227321E+03  0.40000000000E+03 0.  1.
   -9000007    1    1    2    0  502 -0.13112190117E+03 -0.20342280527E+03  0.30053172492E+03  0.55578152934E+03  0.40000000000E+03 0. -1.
<mgrwt>
<rscale>  2 0.46751876E+03</rscale>
<asrwt>0</asrwt>
<pdfrwt beam="1">  1       21 0.10089458E+00 0.46751876E+03</pdfrwt>
<pdfrwt beam="2">  1       21 0.56561391E-01 0.46751876E+03</pdfrwt>
<totfact> 0.20251206E+03</totfact>
</mgrwt>
</event>
<event>
 4    1  0.4690138E-002  0.4784807E+03  0.7818608E-02  0.1019554E+00
         21   -1    0    0  501  502  0.00000000000E+00  0.00000000000E+00  0.32357615590E+03  0.32357615590E+03  0.00000000000E+00 0. -1.
         21   -1    0    0  502  503 -0.00000000000E+00 -0.00000000000E+00 -0.85178643523E+03  0.85178643523E+03  0.00000000000E+00 0. -1.
    9000007    1    1    2  501    0 -0.55447712815E+02 -0.25665029490E+03 -0.22266569305E+02  0.47899856246E+03  0.40000000000E+03 0. -1.
   -9000007    1    1    2    0  503  0.55447712815E+02  0.25665029490E+03 -0.50594371002E+03  0.69636402868E+03  0.40000000000E+03 0. -1.
<mgrwt>
<rscale>  2 0.47848074E+03</rscale>
<asrwt>0</asrwt>
<pdfrwt beam="1">  1       21 0.49780948E-01 0.47848074E+03</pdfrwt>
<pdfrwt beam="2">  1       21 0.13104406E+00 0.47848074E+03</pdfrwt>
<totfact> 0.13740323E+03</totfact>
</mgrwt>
</event>
<event>
 4    1  0.4690138E-002  0.4128692E+03  0.7818608E-02  0.1039412E+00
         21   -1    0    0  501  502  0.00000000000E+00  0.00000000000E+00  0.17158528528E+03  0.17158528528E+03  0.00000000000E+00 0.  1.
         21   -1    0    0  502  503 -0.00000000000E+00 -0.00000000000E+00 -0.12243444118E+04  0.12243444118E+04  0.00000000000E+00 0.  1.
    9000007    1    1    2  501    0  0.10226185153E+03 -0.18787061372E+01 -0.22327632580E+03  0.46937547175E+03  0.40000000000E+03 0.  1.
   -9000007    1    1    2    0  503 -0.10226185153E+03  0.18787061372E+01 -0.82948280076E+03  0.92655422538E+03  0.40000000000E+03 0.  1.
<mgrwt>
<rscale>  2 0.41286925E+03</rscale>
<asrwt>0</asrwt>
<pdfrwt beam="1">  1       21 0.26397737E-01 0.41286925E+03</pdfrwt>
<pdfrwt beam="2">  1       21 0.18836068E+00 0.41286925E+03</pdfrwt>
<totfact> 0.18790958E+03</totfact>
</mgrwt>
</event>
<event>
 4    1  0.4690138E-002  0.4129663E+03  0.7818608E-02  0.1039380E+00
         21   -1    0    0  503  502  0.00000000000E+00  0.00000000000E+00  0.18149721617E+03  0.18149721617E+03  0.00000000000E+00 0. -1.
         21   -1    0    0  501  503 -0.00000000000E+00 -0.00000000000E+00 -0.14375897983E+04  0.14375897983E+04  0.00000000000E+00 0. -1.
    9000007    1    1    2  501    0 -0.67691643705E+02  0.77194599605E+02 -0.11044965816E+04  0.11791750776E+04  0.40000000000E+03 0. -1.
   -9000007    1    1    2    0  502  0.67691643705E+02 -0.77194599605E+02 -0.15159600053E+03  0.43991193688E+03  0.40000000000E+03 0. -1.
<mgrwt>
<rscale>  2 0.41296630E+03</rscale>
<asrwt>0</asrwt>
<pdfrwt beam="1">  1       21 0.27922650E-01 0.41296630E+03</pdfrwt>
<pdfrwt beam="2">  1       21 0.22116765E+00 0.41296630E+03</pdfrwt>
<totfact> 0.10236456E+03</totfact>
</mgrwt>
</event>
<event>
 4    1  0.4690138E-002  0.5904043E+03  0.7818608E-02  0.9925517E-01
         21   -1    0    0  503  502  0.00000000000E+00  0.00000000000E+00  0.22151627826E+04  0.22151627826E+04  0.00000000000E+00 0.  1.
         21   -1    0    0  501  503 -0.00000000000E+00 -0.00000000000E+00 -0.15900293507E+03  0.15900293507E+03  0.00000000000E+00 0. -1.
    9000007    1    1    2  501    0 -0.35269968308E+03  0.25333800568E+03  0.90739955612E+03  0.10825669337E+04  0.40000000000E+03 0.  1.
   -9000007    1    1    2    0  502  0.35269968308E+03 -0.25333800568E+03  0.11487602914E+04  0.12915987840E+04  0.40000000000E+03 0. -1.
<mgrwt>
<rscale>  2 0.59040428E+03</rscale>
<asrwt>0</asrwt>
<pdfrwt beam="1">  1       21 0.34079425E+00 0.59040428E+03</pdfrwt>
<pdfrwt beam="2">  1       21 0.24461992E-01 0.59040428E+03</pdfrwt>
<totfact> 0.22493739E+02</totfact>
</mgrwt>
</event>
<event>
 4    1  0.4690138E-002  0.4564456E+03  0.7818608E-02  0.1025817E+00
         21   -1    0    0  501  502  0.00000000000E+00  0.00000000000E+00  0.10099357414E+04  0.10099357414E+04  0.00000000000E+00 0.  1.
         21   -1    0    0  502  503 -0.00000000000E+00 -0.00000000000E+00 -0.32002295503E+03  0.32002295503E+03  0.00000000000E+00 0. -1.
    9000007    1    1    2  501    0 -0.72537400129E+02  0.20755943879E+03  0.74137604450E+03  0.87062106247E+03  0.40000000000E+03 0.  1.
   -9000007    1    1    2    0  503  0.72537400129E+02 -0.20755943879E+03 -0.51463258114E+02  0.45933763397E+03  0.40000000000E+03 0. -1.
<mgrwt>
<rscale>  2 0.45644561E+03</rscale>
<asrwt>0</asrwt>
<pdfrwt beam="1">  1       21 0.15537473E+00 0.45644561E+03</pdfrwt>
<pdfrwt beam="2">  1       21 0.49234301E-01 0.45644561E+03</pdfrwt>
<totfact> 0.89975861E+02</totfact>
</mgrwt>
</event>
<event>
 4    1  0.4690138E-002  0.7062506E+03  0.7818608E-02  0.9706602E-01
         21   -1    0    0  503  502  0.00000000000E+00  0.00000000000E+00  0.63476415523E+03  0.63476415523E+03  0.00000000000E+00 0.  1.
         21   -1    0    0  501  503 -0.00000000000E+00 -0.00000000000E+00 -0.78589837794E+03  0.78589837794E+03  0.00000000000E+00 0. -1.
    9000007    1    1    2  501    0 -0.54374961925E+03  0.20766868440E+03 -0.67141406486E+02  0.70943491553E+03  0.40000000000E+03 0. -1.
   -9000007    1    1    2    0  502  0.54374961925E+03 -0.20766868440E+03 -0.83992816219E+02  0.71122761763E+03  0.40000000000E+03 0.  1.
<mgrwt>
<rscale>  2 0.70625061E+03</rscale>
<asrwt>0</asrwt>
<pdfrwt beam="1">  1       21 0.97656024E-01 0.70625061E+03</pdfrwt>
<pdfrwt beam="2">  1       21 0.12090744E+00 0.70625061E+03</pdfrwt>
<totfact> 0.34026322E+02</totfact>
</mgrwt>
</event>
<event>
 4    1  0.4690138E-002  0.4116784E+03  0.7818608E-02  0.1039809E+00
         21   -1    0    0  501  502  0.00000000000E+00  0.00000000000E+00  0.31283010109E+04  0.31283010109E+04  0.00000000000E+00 0. -1.
         21   -1    0    0  502  503 -0.00000000000E+00 -0.00000000000E+00 -0.56992150480E+02  0.56992150480E+02  0.00000000000E+00 0. -1.
    9000007    1    1    2  501    0 -0.91929853139E+02 -0.32062346823E+02  0.18896790782E+04  0.19340026139E+04  0.40000000000E+03 0. -1.
   -9000007    1    1    2    0  503  0.91929853139E+02  0.32062346823E+02  0.11816297822E+04  0.12512905474E+04  0.40000000000E+03 0. -1.
<mgrwt>
<rscale>  2 0.41167838E+03</rscale>
<asrwt>0</asrwt>
<pdfrwt beam="1">  1       21 0.48127694E+00 0.41167838E+03</pdfrwt>
<pdfrwt beam="2">  1       21 0.87680256E-02 0.41167838E+03</pdfrwt>
<totfact> 0.20377726E+02</totfact>
</mgrwt>
</event>
<event>
 4    1  0.4690138E-002  0.5535705E+03  0.7818608E-02  0.1000671E+00
         21   -1    0    0  501  502  0.00000000000E+00  0.00000000000E+00  0.13542066975E+04  0.13542066975E+04  0.00000000000E+00 0. -1.
         21   -1    0    0  502  503 -0.00000000000E+00 -0.00000000000E+00 -0.24015195070E+03  0.24015195070E+03  0.00000000000E+00 0.  1.
    9000007    1    1    2  501    0  0.31382597290E+03 -0.21898303609E+03  0.74856815503E+03  0.93101804176E+03  0.40000000000E+03 0. -1.
   -9000007    1    1    2    0  503 -0.31382597290E+03  0.21898303609E+03  0.36548659173E+03  0.66334060640E+03  0.40000000000E+03 0.  1.
<mgrwt>
<rscale>  2 0.55357051E+03</rscale>
<asrwt>0</asrwt>
<pdfrwt beam="1">  1       21 0.20833949E+00 0.55357051E+03</pdfrwt>
<pdfrwt beam="2">  1       21 0.36946455E-01 0.55357051E+03</pdfrwt>
<totfact> 0.66387853E+02</totfact>
</mgrwt>
</event>
<event>
 4    1  0.4690138E-002  0.7218464E+03  0.7818608E-02  0.9680585E-01
         21   -1    0    0  503  502  0.00000000000E+00  0.00000000000E+00  0.66522197450E+03  0.66522197450E+03  0.00000000000E+00 0.  1.
         21   -1    0    0  501  503 -0.00000000000E+00 -0.00000000000E+00 -0.10256980601E+04  0.10256980601E+04  0.00000000000E+00 0. -1.
    9000007    1    1    2  501    0  0.47219725284E+03  0.37160725500E+03 -0.59125164300E+03  0.93308129491E+03  0.40000000000E+03 0.  1.
   -9000007    1    1    2    0  502 -0.47219725284E+03 -0.37160725500E+03  0.23077555736E+03  0.75783873973E+03  0.40000000000E+03 0.  1.
<mgrwt>
<rscale>  2 0.72184638E+03</rscale>
<asrwt>0</asrwt>
<pdfrwt beam="1">  1       21 0.10234184E+00 0.72184638E+03</pdfrwt>
<pdfrwt beam="2">  1       21 0.15779970E+00 0.72184638E+03</pdfrwt>
<totfact> 0.14752500E+02</totfact>
</mgrwt>
</event>
<event>
 4    1  0.4690138E-002  0.4882962E+03  0.7818608E-02  0.1016880E+00
         21   -1    0    0  501  502  0.00000000000E+00  0.00000000000E+00  0.86744153903E+03  0.86744153903E+03  0.00000000000E+00 0.  1.
         21   -1    0    0  502  503 -0.00000000000E+00 -0.00000000000E+00 -0.32146122603E+03  0.32146122603E+03  0.00000000000E+00 0. -1.
    9000007    1    1    2  501    0 -0.74526869371E+02  0.26996093003E+03  0.49930174204E+03  0.69838054641E+03  0.40000000000E+03 0.  1.
   -9000007    1    1    2    0  503  0.74526869371E+02 -0.26996093003E+03  0.46678570954E+02  0.49052221865E+03  0.40000000000E+03 0. -1.
<mgrwt>
<rscale>  2 0.48829618E+03</rscale>
<asrwt>0</asrwt>
<pdfrwt beam="1">  1       21 0.13345254E+00 0.48829618E+03</pdfrwt>
<pdfrwt beam="2">  1       21 0.49455574E-01 0.48829618E+03</pdfrwt>
<totfact> 0.13236859E+03</totfact>
</mgrwt>
</event>
<event>
 4    1  0.4690138E-002  0.4152141E+03  0.7818608E-02  0.1038635E+00
         21   -1    0    0  503  502  0.00000000000E+00  0.00000000000E+00  0.62552973793E+03  0.62552973793E+03  0.00000000000E+00 0. -1.
         21   -1    0    0  501  503 -0.00000000000E+00 -0.00000000000E+00 -0.37559695959E+03  0.37559695959E+03  0.00000000000E+00 0. -1.
    9000007    1    1    2  501    0 -0.98835706762E+02 -0.51324640539E+02 -0.13330011356E+03  0.43608672983E+03  0.40000000000E+03 0. -1.
   -9000007    1    1    2    0  502  0.98835706762E+02  0.51324640539E+02  0.38323289190E+03  0.56503996769E+03  0.40000000000E+03 0. -1.
<mgrwt>
<rscale>  2 0.41521406E+03</rscale>
<asrwt>0</asrwt>
<pdfrwt beam="1">  1       21 0.96235344E-01 0.41521406E+03</pdfrwt>
<pdfrwt beam="2">  1       21 0.57784148E-01 0.41521406E+03</pdfrwt>
<totfact> 0.22110430E+03</totfact>
</mgrwt>
</event>
<event>
 4    1  0.4690138E-002  0.4240578E+03  0.7818608E-02  0.1035754E+00
         21   -1    0    0  503  502  0.00000000000E+00  0.00000000000E+00  0.74342368549E+03  0.74342368549E+03  0.00000000000E+00 0. -1.
         21   -1    0    0  501  503 -0.00000000000E+00 -0.00000000000E+00 -0.26325827634E+03  0.26325827634E+03  0.00000000000E+00 0. -1.
    9000007    1    1    2  501    0  0.13820663668E+03 -0.26906722099E+02  0.96672722330E+02  0.43493753731E+03  0.40000000000E+03 0. -1.
   -9000007    1    1    2    0  502 -0.13820663668E+03  0.26906722099E+02  0.38349268683E+03  0.57174442452E+03  0.40000000000E+03 0. -1.
<mgrwt>
<rscale>  2 0.42405783E+03</rscale>
<asrwt>0</asrwt>
<pdfrwt beam="1">  1       21 0.11437287E+00 0.42405783E+03</pdfrwt>
<pdfrwt beam="2">  1       21 0.40501274E-01 0.42405783E+03</pdfrwt>
<totfact> 0.30592346E+03</totfact>
</mgrwt>
</event>
<event>
 4    1  0.4690138E-002  0.4366486E+03  0.7818608E-02  0.1031780E+00
         21   -1    0    0  503  502  0.00000000000E+00  0.00000000000E+00  0.65580928726E+03  0.65580928726E+03  0.00000000000E+00 0.  1.
         21   -1    0    0  501  503 -0.00000000000E+00 -0.00000000000E+00 -0.29149455127E+03  0.29149455127E+03  0.00000000000E+00 0.  1.
    9000007    1    1    2  501    0  0.17310209829E+03  0.26412827772E+02  0.15786449684E+03  0.46430935083E+03  0.40000000000E+03 0.  1.
   -9000007    1    1    2    0  502 -0.17310209829E+03 -0.26412827772E+02  0.20645023915E+03  0.48299448770E+03  0.40000000000E+03 0.  1.
<mgrwt>
<rscale>  2 0.43664857E+03</rscale>
<asrwt>0</asrwt>
<pdfrwt beam="1">  1       21 0.10089374E+00 0.43664857E+03</pdfrwt>
<pdfrwt beam="2">  1       21 0.44845316E-01 0.43664857E+03</pdfrwt>
<totfact> 0.33579180E+03</totfact>
</mgrwt>
</event>
<event>
 4    1  0.4690138E-002  0.4108300E+03  0.7818608E-02  0.1040093E+00
         21   -1    0    0  501  502  0.00000000000E+00  0.00000000000E+00  0.79608103785E+03  0.79608103785E+03  0.00000000000E+00 0.  1.
         21   -1    0    0  502  503 -0.00000000000E+00 -0.00000000000E+00 -0.22327218953E+03  0.22327218953E+03  0.00000000000E+00 0.  1.
    9000007    1    1    2  501    0 -0.53936570285E+02 -0.76629674017E+02  0.17196148465E+03  0.44536727850E+03  0.40000000000E+03 0.  1.
   -9000007    1    1    2    0  503  0.53936570285E+02  0.76629674017E+02  0.40084736367E+03  0.57398594888E+03  0.40000000000E+03 0.  1.
<mgrwt>
<rscale>  2 0.41082997E+03</rscale>
<asrwt>0</asrwt>
<pdfrwt beam="1">  1       21 0.12247400E+00 0.41082997E+03</pdfrwt>
<pdfrwt beam="2">  1       21 0.34349568E-01 0.41082997E+03</pdfrwt>
<totfact> 0.36192165E+03</totfact>
</mgrwt>
</event>
<event>
 4    1  0.4690138E-002  0.6002073E+03  0.7818608E-02  0.9904976E-01
         21   -1    0    0  501  502  0.00000000000E+00  0.00000000000E+00  0.15831118081E+04  0.15831118081E+04  0.00000000000E+00 0. -1.
         21   -1    0    0  502  503 -0.00000000000E+00 -0.00000000000E+00 -0.24345203820E+03  0.24345203820E+03  0.00000000000E+00 0.  1.
    9000007    1    1    2  501    0  0.21908381541E+03 -0.39019365678E+03  0.90318830130E+03  0.10844343759E+04  0.40000000000E+03 0. -1.
   -9000007    1    1    2    0  503 -0.21908381541E+03  0.39019365678E+03  0.43647146859E+03  0.74212947041E+03  0.40000000000E+03 0.  1.
<mgrwt>
<rscale>  2 0.60020730E+03</rscale>
<asrwt>0</asrwt>
<pdfrwt beam="1">  1       21 0.24355566E+00 0.60020730E+03</pdfrwt>
<pdfrwt beam="2">  1       21 0.37454161E-01 0.60020730E+03</pdfrwt>
<totfact> 0.37687090E+02</totfact>
</mgrwt>
</event>
<event>
 4    1  0.4690138E-002  0.4499966E+03  0.7818608E-02  0.1027723E+00
         21   -1    0    0  503  502  0.00000000000E+00  0.00000000000E+00  0.14253254107E+03  0.14253254107E+03  0.00000000000E+00 0.  1.
         21   -1    0    0  501  503 -0.00000000000E+00 -0.00000000000E+00 -0.20494669907E+04  0.20494669907E+04  0.00000000000E+00 0.  1.
    9000007    1    1    2  501    0 -0.20610394850E+03 -0.42593993556E+01 -0.15605283799E+04  0.16241138520E+04  0.40000000000E+03 0.  1.
   -9000007    1    1    2    0  502  0.20610394850E+03  0.42593993556E+01 -0.34640606981E+03  0.56788567975E+03  0.40000000000E+03 0.  1.
<mgrwt>
<rscale>  2 0.44999664E+03</rscale>
<asrwt>0</asrwt>
<pdfrwt beam="1">  1       21 0.21928082E-01 0.44999664E+03</pdfrwt>
<pdfrwt beam="2">  1       21 0.31530263E+00 0.44999664E+03</pdfrwt>
<totfact> 0.42799590E+02</totfact>
</mgrwt>
</event>
<event>
 4    1  0.4690138E-002  0.6366996E+03  0.7818608E-02  0.9832062E-01
         21   -1    0    0  503  502  0.00000000000E+00  0.00000000000E+00  0.18283424585E+04  0.18283424585E+04  0.00000000000E+00 0.  1.
         21   -1    0    0  501  503 -0.00000000000E+00 -0.00000000000E+00 -0.23346302226E+03  0.23346302226E+03  0.00000000000E+00 0.  1.
    9000007    1    1    2  501    0  0.26579210957E+03 -0.41802019719E+03  0.56626759796E+03  0.85208293215E+03  0.40000000000E+03 0.  1.
   -9000007    1    1    2    0  502 -0.26579210957E+03  0.41802019719E+03  0.10286118383E+04  0.12097225486E+04  0.40000000000E+03 0.  1.
<mgrwt>
<rscale>  2 0.63669956E+03</rscale>
<asrwt>0</asrwt>
<pdfrwt beam="1">  1       21 0.28128345E+00 0.63669956E+03</pdfrwt>
<pdfrwt beam="2">  1       21 0.35917389E-01 0.63669956E+03</pdfrwt>
<totfact> 0.23674599E+02</totfact>
</mgrwt>
</event>
<event>
 4    1  0.4690138E-002  0.4506047E+03  0.7818608E-02  0.1027542E+00
         21   -1    0    0  501  502  0.00000000000E+00  0.00000000000E+00  0.11533307587E+03  0.11533307587E+03  0.00000000000E+00 0.  1.
         21   -1    0    0  502  503 -0.00000000000E+00 -0.00000000000E+00 -0.17742155000E+04  0.17742155000E+04  0.00000000000E+00 0.  1.
    9000007    1    1    2  501    0 -0.17869475959E+03 -0.10541727034E+03 -0.74639317322E+03  0.87186431687E+03  0.40000000000E+03 0.  1.
   -9000007    1    1    2    0  503  0.17869475959E+03  0.10541727034E+03 -0.91248925095E+03  0.10176842590E+04  0.40000000000E+03 0.  1.
<mgrwt>
<rscale>  2 0.45060472E+03</rscale>
<asrwt>0</asrwt>
<pdfrwt beam="1">  1       21 0.17743551E-01 0.45060472E+03</pdfrwt>
<pdfrwt beam="2">  1       21 0.27295622E+00 0.45060472E+03</pdfrwt>
<totfact> 0.11509315E+03</totfact>
</mgrwt>
</event>
<event>
 4    1  0.4690138E-002  0.5690897E+03  0.7818608E-02  0.9971695E-01
         21   -1    0    0  501  502  0.00000000000E+00  0.00000000000E+00  0.43511719566E+03  0.43511719566E+03  0.00000000000E+00 0.  1.
         21   -1    0    0  502  503 -0.00000000000E+00 -0.00000000000E+00 -0.95962453708E+03  0.95962453708E+03  0.00000000000E+00 0. -1.
    9000007    1    1    2  501    0  0.66534902960E+02 -0.39929454861E+03  0.68076013754E+02  0.57314690395E+03  0.40000000000E+03 0.  1.
   -9000007    1    1    2    0  503 -0.66534902960E+02  0.39929454861E+03 -0.59258335517E+03  0.82159482879E+03  0.40000000000E+03 0. -1.
<mgrwt>
<rscale>  2 0.56908965E+03</rscale>
<asrwt>0</asrwt>
<pdfrwt beam="1">  1       21 0.66941107E-01 0.56908965E+03</pdfrwt>
<pdfrwt beam="2">  1       21 0.14763454E+00 0.56908965E+03</pdfrwt>
<totfact> 0.50643174E+02</totfact>
</mgrwt>
</event>
<event>
 4    1  0.4690138E-002  0.6201942E+03  0.7818608E-02  0.9864373E-01
         21   -1    0    0  503  502  0.00000000000E+00  0.00000000000E+00  0.17993165967E+04  0.17993165967E+04  0.00000000000E+00 0.  1.
         21   -1    0    0  501  503 -0.00000000000E+00 -0.00000000000E+00 -0.26237826556E+03  0.26237826556E+03  0.00000000000E+00 0.  1.
    9000007    1    1    2  501    0 -0.29634810766E+03  0.36989011356E+03  0.32477565820E+03  0.70008579844E+03  0.40000000000E+03 0.  1.
   -9000007    1    1    2    0  502  0.29634810766E+03 -0.36989011356E+03  0.12121626729E+04  0.13616090638E+04  0.40000000000E+03 0.  1.
<mgrwt>
<rscale>  2 0.62019424E+03</rscale>
<asrwt>0</asrwt>
<pdfrwt beam="1">  1       21 0.27681793E+00 0.62019424E+03</pdfrwt>
<pdfrwt beam="2">  1       21 0.40365888E-01 0.62019424E+03</pdfrwt>
<totfact> 0.19954040E+02</totfact>
</mgrwt>
</event>
<event>
 4    1  0.4690138E-002  0.7461308E+03  0.7818608E-02  0.9641440E-01
         21   -1    0    0  503  502  0.00000000000E+00  0.00000000000E+00  0.77941222424E+03  0.77941222424E+03  0.00000000000E+00 0. -1.
         21   -1    0    0  501  503 -0.00000000000E+00 -0.00000000000E+00 -0.74528497447E+03  0.74528497447E+03  0.00000000000E+00 0.  1.
    9000007    1    1    2  501    0  0.58404299852E+03 -0.23580713189E+03  0.17257924708E+03  0.76582950067E+03  0.40000000000E+03 0. -1.
   -9000007    1    1    2    0  502 -0.58404299852E+03  0.23580713189E+03 -0.13845199731E+03  0.75886769804E+03  0.40000000000E+03 0.  1.
<mgrwt>
<rscale>  2 0.74613084E+03</rscale>
<asrwt>0</asrwt>
<pdfrwt beam="1">  1       21 0.11990957E+00 0.74613084E+03</pdfrwt>
<pdfrwt beam="2">  1       21 0.11465923E+00 0.74613084E+03</pdfrwt>
<totfact> 0.23033775E+02</totfact>
</mgrwt>
</event>
<event>
 4    1  0.4690138E-002  0.4465973E+03  0.7818608E-02  0.1028742E+00
         21   -1    0    0  501  502  0.00000000000E+00  0.00000000000E+00  0.10005444013E+04  0.10005444013E+04  0.00000000000E+00 0.  1.
         21   -1    0    0  502  503 -0.00000000000E+00 -0.00000000000E+00 -0.41360607158E+03  0.41360607158E+03  0.00000000000E+00 0. -1.
    9000007    1    1    2  501    0  0.18823859763E+03  0.63367213031E+02  0.80238764039E+03  0.91830011367E+03  0.40000000000E+03 0.  1.
   -9000007    1    1    2    0  503 -0.18823859763E+03 -0.63367213031E+02 -0.21544931062E+03  0.49585035926E+03  0.40000000000E+03 0. -1.
<mgrwt>
<rscale>  2 0.44659733E+03</rscale>
<asrwt>0</asrwt>
<pdfrwt beam="1">  1       21 0.15392991E+00 0.44659733E+03</pdfrwt>
<pdfrwt beam="2">  1       21 0.63631703E-01 0.44659733E+03</pdfrwt>
<totfact> 0.53187042E+02</totfact>
</mgrwt>
</event>
<event>
 4    1  0.4690138E-002  0.4987090E+03  0.7818608E-02  0.1014116E+00
         21   -1    0    0  501  502  0.00000000000E+00  0.00000000000E+00  0.15544381600E+03  0.15544381600E+03  0.00000000000E+00 0. -1.
         21   -1    0    0  502  503 -0.00000000000E+00 -0.00000000000E+00 -0.16066871628E+04  0.16066871628E+04  0.00000000000E+00 0. -1.
    9000007    1    1    2  501    0  0.29416628926E+03  0.46656942395E+02 -0.78244730658E+03  0.92786554176E+03  0.40000000000E+03 0. -1.
   -9000007    1    1    2    0  503 -0.29416628926E+03 -0.46656942395E+02 -0.66879604022E+03  0.83426543703E+03  0.40000000000E+03 0. -1.
<mgrwt>
<rscale>  2 0.49870901E+03</rscale>
<asrwt>0</asrwt>
<pdfrwt beam="1">  1       21 0.23914433E-01 0.49870901E+03</pdfrwt>
<pdfrwt beam="2">  1       21 0.24718264E+00 0.49870901E+03</pdfrwt>
<totfact> 0.91360920E+02</totfact>
</mgrwt>
</event>
<event>
 4    1  0.4690138E-002  0.4143014E+03  0.7818608E-02  0.1038937E+00
         21   -1    0    0  503  502  0.00000000000E+00  0.00000000000E+00  0.22142705101E+03  0.22142705101E+03  0.00000000000E+00 0.  1.
         21   -1    0    0  501  503 -0.00000000000E+00 -0.00000000000E+00 -0.97514463437E+03  0.97514463437E+03  0.00000000000E+00 0.  1.
    9000007    1    1    2  501    0 -0.30389653406E+02 -0.10354759469E+03 -0.64778543568E+03  0.76894187432E+03  0.40000000000E+03 0.  1.
   -9000007    1    1    2    0  502  0.30389653406E+02  0.10354759469E+03 -0.10593214767E+03  0.42762981106E+03  0.40000000000E+03 0.  1.
<mgrwt>
<rscale>  2 0.41430138E+03</rscale>
<asrwt>0</asrwt>
<pdfrwt beam="1">  1       21 0.34065699E-01 0.41430138E+03</pdfrwt>
<pdfrwt beam="2">  1       21 0.15002226E+00 0.41430138E+03</pdfrwt>
<totfact> 0.21576250E+03</totfact>
</mgrwt>
</event>
<event>
 4    1  0.4690138E-002  0.5824442E+03  0.7818608E-02  0.9942513E-01
         21   -1    0    0  503  502  0.00000000000E+00  0.00000000000E+00  0.65689060720E+03  0.65689060720E+03  0.00000000000E+00 0. -1.
         21   -1    0    0  501  503 -0.00000000000E+00 -0.00000000000E+00 -0.12495947075E+04  0.12495947075E+04  0.00000000000E+00 0.  1.
    9000007    1    1    2  501    0 -0.39847273664E+03  0.14304093892E+03 -0.10265123329E+04  0.11802409930E+04  0.40000000000E+03 0.  1.
   -9000007    1    1    2    0  502  0.39847273664E+03 -0.14304093892E+03  0.43380823260E+03  0.72624432165E+03  0.40000000000E+03 0. -1.
<mgrwt>
<rscale>  2 0.58244419E+03</rscale>
<asrwt>0</asrwt>
<pdfrwt beam="1">  1       21 0.10106009E+00 0.58244419E+03</pdfrwt>
<pdfrwt beam="2">  1       21 0.19224534E+00 0.58244419E+03</pdfrwt>
<totfact> 0.90009281E+01</totfact>
</mgrwt>
</event>
