<event>
 4    1  0.1086582E+000  0.1726618E+03  0.7546771E-02  0.1175100E+00
         21   -1    0    0  503  502  0.00000000000E+00  0.00000000000E+00  0.12181114732E+03  0.12181114732E+03  0.00000000000E+00 0. -1.
         21   -1    0    0  501  503 -0.00000000000E+00 -0.00000000000E+00 -0.24521738927E+03  0.24521738927E+03  0.00000000000E+00 0. -1.
          6    1    1    2  501    0  0.68676567374E+01  0.13450821205E+02 -0.53608028472E+02  0.18079245011E+03  0.17200000000E+03 0. -1.
         -6    1    1    2    0  502 -0.68676567374E+01 -0.13450821205E+02 -0.69798213482E+02  0.18623608647E+03  0.17200000000E+03 0. -1.
<mgrwt>
<rscale>  2 0.17266178E+03</rscale>
<asrwt>0</asrwt>
<pdfrwt beam="1">  1       21 0.30452787E-01 0.17266178E+03</pdfrwt>
<pdfrwt beam="2">  1       21 0.61304347E-01 0.17266178E+03</pdfrwt>
<totfact> 0.25899620E+04</totfact>
</mgrwt>
</event>
<event>
 4    1  0.1086582E+000  0.1786637E+03  0.7546771E-02  0.1169103E+00
         21   -1    0    0  503  502  0.00000000000E+00  0.00000000000E+00  0.11608346983E+03  0.11608346983E+03  0.00000000000E+00 0. -1.
         21   -1    0    0  501  503 -0.00000000000E+00 -0.00000000000E+00 -0.33701386128E+03  0.33701386128E+03  0.00000000000E+00 0. -1.
          6    1    1    2  501    0  0.89596740227E+01  0.47501991305E+02 -0.20766145459E+03  0.27394158987E+03  0.17200000000E+03 0. -1.
         -6    1    1    2    0  502 -0.89596740227E+01 -0.47501991305E+02 -0.13268936858E+02  0.17915574125E+03  0.17200000000E+03 0. -1.
<mgrwt>
<rscale>  2 0.17866369E+03</rscale>
<asrwt>0</asrwt>
<pdfrwt beam="1">  1       21 0.29020868E-01 0.17866369E+03</pdfrwt>
<pdfrwt beam="2">  1       21 0.84253465E-01 0.17866369E+03</pdfrwt>
<totfact> 0.14026072E+04</totfact>
</mgrwt>
</event>
<event>
 4    1  0.1086582E+000  0.2092441E+03  0.7546771E-02  0.1142166E+00
         21   -1    0    0  501  502  0.00000000000E+00  0.00000000000E+00  0.11006449933E+03  0.11006449933E+03  0.00000000000E+00 0. -1.
         21   -1    0    0  502  503 -0.00000000000E+00 -0.00000000000E+00 -0.41622250082E+03  0.41622250082E+03  0.00000000000E+00 0. -1.
          6    1    1    2  501    0  0.25007081902E+02 -0.11650636284E+03 -0.97710174838E+02  0.23093368095E+03  0.17200000000E+03 0. -1.
         -6    1    1    2    0  503 -0.25007081902E+02  0.11650636284E+03 -0.20844782666E+03  0.29535331921E+03  0.17200000000E+03 0. -1.
<mgrwt>
<rscale>  2 0.20924408E+03</rscale>
<asrwt>0</asrwt>
<pdfrwt beam="1">  1       21 0.27516125E-01 0.20924408E+03</pdfrwt>
<pdfrwt beam="2">  1       21 0.10405562E+00 0.20924408E+03</pdfrwt>
<totfact> 0.92980182E+03</totfact>
</mgrwt>
</event>
<event>
 4    1  0.1086582E+000  0.1933737E+03  0.7546771E-02  0.1155453E+00
         21   -1    0    0  503  502  0.00000000000E+00  0.00000000000E+00  0.58503420314E+02  0.58503420314E+02  0.00000000000E+00 0.  1.
         21   -1    0    0  501  503 -0.00000000000E+00 -0.00000000000E+00 -0.69035677948E+03  0.69035677948E+03  0.00000000000E+00 0. -1.
          6    1    1    2  501    0  0.63501735604E+02 -0.61456534287E+02 -0.41788703935E+03  0.46045950276E+03  0.17200000000E+03 0. -1.
         -6    1    1    2    0  502 -0.63501735604E+02  0.61456534287E+02 -0.21396631982E+03  0.28840069703E+03  0.17200000000E+03 0. -1.
<mgrwt>
<rscale>  2 0.19337367E+03</rscale>
<asrwt>0</asrwt>
<pdfrwt beam="1">  1       21 0.14625855E-01 0.19337367E+03</pdfrwt>
<pdfrwt beam="2">  1       21 0.17258919E+00 0.19337367E+03</pdfrwt>
<totfact> 0.84015847E+03</totfact>
</mgrwt>
</event>
<event>
 4    1  0.1086582E+000  0.1874872E+03  0.7546771E-02  0.1160747E+00
         21   -1    0    0  501  502  0.00000000000E+00  0.00000000000E+00  0.29198973563E+03  0.29198973563E+03  0.00000000000E+00 0.  1.
         21   -1    0    0  502  503 -0.00000000000E+00 -0.00000000000E+00 -0.16569622002E+03  0.16569622002E+03  0.00000000000E+00 0.  1.
          6    1    1    2  501    0 -0.26538827606E+02  0.69736200814E+02  0.18281526000E+03  0.26186421360E+03  0.17200000000E+03 0.  1.
         -6    1    1    2    0  503  0.26538827606E+02 -0.69736200814E+02 -0.56521744385E+02  0.19582174206E+03  0.17200000000E+03 0.  1.
<mgrwt>
<rscale>  2 0.18748719E+03</rscale>
<asrwt>0</asrwt>
<pdfrwt beam="1">  1       21 0.72997433E-01 0.18748719E+03</pdfrwt>
<pdfrwt beam="2">  1       21 0.41424055E-01 0.18748719E+03</pdfrwt>
<totfact> 0.95103443E+03</totfact>
</mgrwt>
</event>
<event>
 4    1  0.1086582E+000  0.1917914E+03  0.7546771E-02  0.1156856E+00
         21   -1    0    0  503  502  0.00000000000E+00  0.00000000000E+00  0.98199980593E+02  0.98199980593E+02  0.00000000000E+00 0. -1.
         21   -1    0    0  501  503 -0.00000000000E+00 -0.00000000000E+00 -0.38330818314E+03  0.38330818314E+03  0.00000000000E+00 0. -1.
          6    1    1    2  501    0  0.70974972525E+02  0.46502441355E+02 -0.17888006847E+03  0.26226323164E+03  0.17200000000E+03 0. -1.
         -6    1    1    2    0  502 -0.70974972525E+02 -0.46502441355E+02 -0.10622813408E+03  0.21924493209E+03  0.17200000000E+03 0. -1.
<mgrwt>
<rscale>  2 0.19179135E+03</rscale>
<asrwt>0</asrwt>
<pdfrwt beam="1">  1       21 0.24549995E-01 0.19179135E+03</pdfrwt>
<pdfrwt beam="2">  1       21 0.95827045E-01 0.19179135E+03</pdfrwt>
<totfact> 0.14242396E+04</totfact>
</mgrwt>
</event>
<event>
 4    1  0.1086582E+000  0.1931802E+03  0.7546771E-02  0.1155624E+00
         21   -1    0    0  501  502  0.00000000000E+00  0.00000000000E+00  0.50193515370E+03  0.50193515370E+03  0.00000000000E+00 0.  1.
         21   -1    0    0  502  503 -0.00000000000E+00 -0.00000000000E+00 -0.76214363821E+02  0.76214363821E+02  0.00000000000E+00 0. -1.
          6    1    1    2  501    0 -0.55611075706E+02 -0.68132210896E+02  0.25807972145E+03  0.32237204055E+03  0.17200000000E+03 0.  1.
         -6    1    1    2    0  503  0.55611075706E+02  0.68132210896E+02  0.16764106842E+03  0.25577747697E+03  0.17200000000E+03 0. -1.
<mgrwt>
<rscale>  2 0.19318020E+03</rscale>
<asrwt>0</asrwt>
<pdfrwt beam="1">  1       21 0.12548378E+00 0.19318020E+03</pdfrwt>
<pdfrwt beam="2">  1       21 0.19053592E-01 0.19318020E+03</pdfrwt>
<totfact> 0.11932631E+04</totfact>
</mgrwt>
</event>
<event>
 4    1  0.1086582E+000  0.1975819E+03  0.7546771E-02  0.1151795E+00
         21   -1    0    0  503  502  0.00000000000E+00  0.00000000000E+00  0.12818743025E+04  0.12818743025E+04  0.00000000000E+00 0.  1.
         21   -1    0    0  501  503 -0.00000000000E+00 -0.00000000000E+00 -0.49327142759E+02  0.49327142759E+02  0.00000000000E+00 0.  1.
          6    1    1    2  501    0 -0.86696766386E+02  0.44025777704E+02  0.20456554626E+03  0.28440404555E+03  0.17200000000E+03 0.  1.
         -6    1    1    2    0  502  0.86696766386E+02 -0.44025777704E+02  0.10279816135E+04  0.10467973998E+04  0.17200000000E+03 0.  1.
<mgrwt>
<rscale>  2 0.19758188E+03</rscale>
<asrwt>0</asrwt>
<pdfrwt beam="1">  1       21 0.32046847E+00 0.19758188E+03</pdfrwt>
<pdfrwt beam="2">  1       21 0.12331790E-01 0.19758188E+03</pdfrwt>
<totfact> 0.14439970E+03</totfact>
</mgrwt>
</event>
<event>
 4    1  0.1086582E+000  0.1852748E+03  0.7546771E-02  0.1162793E+00
         21   -1    0    0  503  502  0.00000000000E+00  0.00000000000E+00  0.46607596285E+03  0.46607596285E+03  0.00000000000E+00 0. -1.
         21   -1    0    0  501  503 -0.00000000000E+00 -0.00000000000E+00 -0.12938655334E+03  0.12938655334E+03  0.00000000000E+00 0. -1.
          6    1    1    2  501    0  0.38667537862E+02 -0.56987631121E+02 -0.27065673496E+02  0.18724133963E+03  0.17200000000E+03 0. -1.
         -6    1    1    2    0  502 -0.38667537862E+02  0.56987631121E+02  0.36375508300E+03  0.40822117656E+03  0.17200000000E+03 0. -1.
<mgrwt>
<rscale>  2 0.18527485E+03</rscale>
<asrwt>0</asrwt>
<pdfrwt beam="1">  1       21 0.11651899E+00 0.18527485E+03</pdfrwt>
<pdfrwt beam="2">  1       21 0.32346639E-01 0.18527485E+03</pdfrwt>
<totfact> 0.52521467E+03</totfact>
</mgrwt>
</event>
<event>
 4    1  0.1086582E+000  0.1979705E+03  0.7546771E-02  0.1151463E+00
         21   -1    0    0  501  502  0.00000000000E+00  0.00000000000E+00  0.48429468765E+03  0.48429468765E+03  0.00000000000E+00 0. -1.
         21   -1    0    0  502  503 -0.00000000000E+00 -0.00000000000E+00 -0.32711684892E+03  0.32711684892E+03  0.00000000000E+00 0.  1.
          6    1    1    2  501    0  0.71952522725E+02  0.66567010110E+02  0.43055039608E+03  0.47388392664E+03  0.17200000000E+03 0. -1.
         -6    1    1    2    0  503 -0.71952522725E+02 -0.66567010110E+02 -0.27337255734E+03  0.33752760994E+03  0.17200000000E+03 0.  1.
<mgrwt>
<rscale>  2 0.19797053E+03</rscale>
<asrwt>0</asrwt>
<pdfrwt beam="1">  1       21 0.12107367E+00 0.19797053E+03</pdfrwt>
<pdfrwt beam="2">  1       21 0.81779213E-01 0.19797053E+03</pdfrwt>
<totfact> 0.67207897E+02</totfact>
</mgrwt>
</event>
<event>
 4    1  0.1086582E+000  0.1727924E+03  0.7546771E-02  0.1174967E+00
         21   -1    0    0  503  502  0.00000000000E+00  0.00000000000E+00  0.16124514734E+03  0.16124514734E+03  0.00000000000E+00 0.  1.
         21   -1    0    0  501  503 -0.00000000000E+00 -0.00000000000E+00 -0.19555608265E+03  0.19555608265E+03  0.00000000000E+00 0.  1.
          6    1    1    2  501    0  0.92346072663E+01 -0.13708590134E+02 -0.58276048085E+02  0.18235487708E+03  0.17200000000E+03 0.  1.
         -6    1    1    2    0  502 -0.92346072663E+01  0.13708590134E+02  0.23965112775E+02  0.17444635291E+03  0.17200000000E+03 0.  1.
<mgrwt>
<rscale>  2 0.17279237E+03</rscale>
<asrwt>0</asrwt>
<pdfrwt beam="1">  1       21 0.40311287E-01 0.17279237E+03</pdfrwt>
<pdfrwt beam="2">  1       21 0.48889020E-01 0.17279237E+03</pdfrwt>
<totfact> 0.23951965E+04</totfact>
</mgrwt>
</event>
<event>
 4    1  0.1086582E+000  0.1745910E+03  0.7546771E-02  0.1173143E+00
         21   -1    0    0  503  502  0.00000000000E+00  0.00000000000E+00  0.25206162403E+03  0.25206162403E+03  0.00000000000E+00 0.  1.
         21   -1    0    0  501  503 -0.00000000000E+00 -0.00000000000E+00 -0.23797577212E+03  0.23797577212E+03  0.00000000000E+00 0.  1.
          6    1    1    2  501    0  0.24689467267E+02  0.16983556375E+02 -0.16479113659E+03  0.24007942369E+03  0.17200000000E+03 0.  1.
         -6    1    1    2    0  502 -0.24689467267E+02 -0.16983556375E+02  0.17887698850E+03  0.24995797246E+03  0.17200000000E+03 0.  1.
<mgrwt>
<rscale>  2 0.17459098E+03</rscale>
<asrwt>0</asrwt>
<pdfrwt beam="1">  1       21 0.63015406E-01 0.17459098E+03</pdfrwt>
<pdfrwt beam="2">  1       21 0.59493943E-01 0.17459098E+03</pdfrwt>
<totfact> 0.62376972E+03</totfact>
</mgrwt>
</event>
<event>
 4    1  0.1086582E+000  0.2565052E+03  0.7546771E-02  0.1109261E+00
         21   -1    0    0  503  502  0.00000000000E+00  0.00000000000E+00  0.22361923954E+03  0.22361923954E+03  0.00000000000E+00 0.  1.
         21   -1    0    0  501  503 -0.00000000000E+00 -0.00000000000E+00 -0.30151870961E+03  0.30151870961E+03  0.00000000000E+00 0.  1.
          6    1    1    2  501    0  0.65322125399E+02 -0.17872860520E+03  0.18813371362E+01  0.25651205393E+03  0.17200000000E+03 0.  1.
         -6    1    1    2    0  502 -0.65322125399E+02  0.17872860520E+03 -0.79780807204E+02  0.26862589522E+03  0.17200000000E+03 0.  1.
<mgrwt>
<rscale>  2 0.25650515E+03</rscale>
<asrwt>0</asrwt>
<pdfrwt beam="1">  1       21 0.55904810E-01 0.25650515E+03</pdfrwt>
<pdfrwt beam="2">  1       21 0.75379677E-01 0.25650515E+03</pdfrwt>
<totfact> 0.45287671E+03</totfact>
</mgrwt>
</event>
<event>
 4    1  0.1086582E+000  0.2106853E+03  0.7546771E-02  0.1141024E+00
         21   -1    0    0  503  502  0.00000000000E+00  0.00000000000E+00  0.42650299755E+03  0.42650299755E+03  0.00000000000E+00 0.  1.
         21   -1    0    0  501  503 -0.00000000000E+00 -0.00000000000E+00 -0.12522965976E+03  0.12522965976E+03  0.00000000000E+00 0.  1.
          6    1    1    2  501    0  0.12065834293E+03 -0.15679869648E+02  0.26401974834E+03  0.33777910170E+03  0.17200000000E+03 0.  1.
         -6    1    1    2    0  502 -0.12065834293E+03  0.15679869648E+02  0.37253589448E+02  0.21395355561E+03  0.17200000000E+03 0.  1.
<mgrwt>
<rscale>  2 0.21068530E+03</rscale>
<asrwt>0</asrwt>
<pdfrwt beam="1">  1       21 0.10662575E+00 0.21068530E+03</pdfrwt>
<pdfrwt beam="2">  1       21 0.31307416E-01 0.21068530E+03</pdfrwt>
<totfact> 0.68109310E+03</totfact>
</mgrwt>
</event>
<event>
 4    1  0.1086582E+000  0.2514304E+03  0.7546771E-02  0.1112404E+00
         21   -1    0    0  503  502  0.00000000000E+00  0.00000000000E+00  0.15598717608E+03  0.15598717608E+03  0.00000000000E+00 0. -1.
         21   -1    0    0  501  503 -0.00000000000E+00 -0.00000000000E+00 -0.62468036642E+03  0.62468036642E+03  0.00000000000E+00 0. -1.
          6    1    1    2  501    0 -0.16324788131E+03  0.83566555496E+02 -0.46567755450E+03  0.52921907063E+03  0.17200000000E+03 0. -1.
         -6    1    1    2    0  502  0.16324788131E+03 -0.83566555496E+02 -0.30156358471E+01  0.25144847188E+03  0.17200000000E+03 0. -1.
<mgrwt>
<rscale>  2 0.25143039E+03</rscale>
<asrwt>0</asrwt>
<pdfrwt beam="1">  1       21 0.38996795E-01 0.25143039E+03</pdfrwt>
<pdfrwt beam="2">  1       21 0.15617009E+00 0.25143039E+03</pdfrwt>
<totfact> 0.16169029E+03</totfact>
</mgrwt>
</event>
<event>
 4    1  0.1086582E+000  0.1993791E+03  0.7546771E-02  0.1150264E+00
         21   -1    0    0  501  502  0.00000000000E+00  0.00000000000E+00  0.12273842995E+03  0.12273842995E+03  0.00000000000E+00 0. -1.
         21   -1    0    0  502  503 -0.00000000000E+00 -0.00000000000E+00 -0.40672514129E+03  0.40672514129E+03  0.00000000000E+00 0.  1.
          6    1    1    2  501    0 -0.22116651284E+02 -0.98381342310E+02 -0.22512170896E+02  0.20064603813E+03  0.17200000000E+03 0. -1.
         -6    1    1    2    0  503  0.22116651284E+02  0.98381342310E+02 -0.26147454044E+03  0.32881753311E+03  0.17200000000E+03 0.  1.
<mgrwt>
<rscale>  2 0.19937912E+03</rscale>
<asrwt>0</asrwt>
<pdfrwt beam="1">  1       21 0.30684608E-01 0.19937912E+03</pdfrwt>
<pdfrwt beam="2">  1       21 0.10168128E+00 0.19937912E+03</pdfrwt>
<totfact> 0.80058505E+03</totfact>
</mgrwt>
</event>
<event>
 4    1  0.1086582E+000  0.2053887E+03  0.7546771E-02  0.1145271E+00
         21   -1    0    0  503  502  0.00000000000E+00  0.00000000000E+00  0.51703286707E+03  0.51703286707E+03  0.00000000000E+00 0. -1.
         21   -1    0    0  501  503 -0.00000000000E+00 -0.00000000000E+00 -0.13612620999E+03  0.13612620999E+03  0.00000000000E+00 0. -1.
          6    1    1    2  501    0  0.35820916658E+02 -0.10638310848E+03 -0.16256997142E+02  0.20603105056E+03  0.17200000000E+03 0. -1.
         -6    1    1    2    0  502 -0.35820916658E+02  0.10638310848E+03  0.39716365422E+03  0.44712802649E+03  0.17200000000E+03 0. -1.
<mgrwt>
<rscale>  2 0.20538867E+03</rscale>
<asrwt>0</asrwt>
<pdfrwt beam="1">  1       21 0.12925821E+00 0.20538867E+03</pdfrwt>
<pdfrwt beam="2">  1       21 0.34031554E-01 0.20538867E+03</pdfrwt>
<totfact> 0.36090269E+03</totfact>
</mgrwt>
</event>
<event>
 4    1  0.1086582E+000  0.2464908E+03  0.7546771E-02  0.1115543E+00
         21   -1    0    0  501  502  0.00000000000E+00  0.00000000000E+00  0.21567665319E+03  0.21567665319E+03  0.00000000000E+00 0.  1.
         21   -1    0    0  502  503 -0.00000000000E+00 -0.00000000000E+00 -0.34313554139E+03  0.34313554139E+03  0.00000000000E+00 0. -1.
          6    1    1    2  501    0  0.17654700609E+03 -0.22067321450E+01  0.54489375748E+02  0.25244169049E+03  0.17200000000E+03 0.  1.
         -6    1    1    2    0  503 -0.17654700609E+03  0.22067321450E+01 -0.18194826394E+03  0.30637050409E+03  0.17200000000E+03 0. -1.
<mgrwt>
<rscale>  2 0.24649080E+03</rscale>
<asrwt>0</asrwt>
<pdfrwt beam="1">  1       21 0.53919164E-01 0.24649080E+03</pdfrwt>
<pdfrwt beam="2">  1       21 0.85783885E-01 0.24649080E+03</pdfrwt>
<totfact> 0.36660370E+03</totfact>
</mgrwt>
</event>
<event>
 4    1  0.1086582E+000  0.1825794E+03  0.7546771E-02  0.1165330E+00
         21   -1    0    0  501  502  0.00000000000E+00  0.00000000000E+00  0.24622379598E+02  0.24622379598E+02  0.00000000000E+00 0. -1.
         21   -1    0    0  502  503 -0.00000000000E+00 -0.00000000000E+00 -0.14389483188E+04  0.14389483188E+04  0.00000000000E+00 0. -1.
          6    1    1    2  501    0 -0.50203633677E+02  0.35083481031E+02 -0.88511216061E+03  0.90374708427E+03  0.17200000000E+03 0. -1.
         -6    1    1    2    0  503  0.50203633677E+02 -0.35083481031E+02 -0.52921377856E+03  0.55982361409E+03  0.17200000000E+03 0. -1.
<mgrwt>
<rscale>  2 0.18257945E+03</rscale>
<asrwt>0</asrwt>
<pdfrwt beam="1">  1       21 0.61555949E-02 0.18257945E+03</pdfrwt>
<pdfrwt beam="2">  1       21 0.35973708E+00 0.18257945E+03</pdfrwt>
<totfact> 0.29305343E+03</totfact>
</mgrwt>
</event>
<event>
 4    1  0.1086582E+000  0.1958218E+03  0.7546771E-02  0.1153313E+00
         21   -1    0    0  503  502  0.00000000000E+00  0.00000000000E+00  0.24657331084E+03  0.24657331084E+03  0.00000000000E+00 0. -1.
         21   -1    0    0  501  503 -0.00000000000E+00 -0.00000000000E+00 -0.35044808006E+03  0.35044808006E+03  0.00000000000E+00 0. -1.
          6    1    1    2  501    0 -0.35172249601E+02  0.86747224369E+02 -0.27457030445E+03  0.33724623076E+03  0.17200000000E+03 0. -1.
         -6    1    1    2    0  502  0.35172249601E+02 -0.86747224369E+02  0.17069553523E+03  0.25977516014E+03  0.17200000000E+03 0. -1.
<mgrwt>
<rscale>  2 0.19582178E+03</rscale>
<asrwt>0</asrwt>
<pdfrwt beam="1">  1       21 0.61643328E-01 0.19582178E+03</pdfrwt>
<pdfrwt beam="2">  1       21 0.87612020E-01 0.19582178E+03</pdfrwt>
<totfact> 0.27255373E+03</totfact>
</mgrwt>
</event>
<event>
 4    1  0.1086582E+000  0.2257400E+03  0.7546771E-02  0.1129675E+00
         21   -1    0    0  501  502  0.00000000000E+00  0.00000000000E+00  0.10433917055E+03  0.10433917055E+03  0.00000000000E+00 0. -1.
         21   -1    0    0  502  503 -0.00000000000E+00 -0.00000000000E+00 -0.85418492410E+03  0.85418492410E+03  0.00000000000E+00 0. -1.
          6    1    1    2  501    0 -0.95921794828E+02  0.11033377260E+03 -0.61295418663E+02  0.23391378850E+03  0.17200000000E+03 0. -1.
         -6    1    1    2    0  503  0.95921794828E+02 -0.11033377260E+03 -0.68855033489E+03  0.72461030615E+03  0.17200000000E+03 0. -1.
<mgrwt>
<rscale>  2 0.22573997E+03</rscale>
<asrwt>0</asrwt>
<pdfrwt beam="1">  1       21 0.26084793E-01 0.22573997E+03</pdfrwt>
<pdfrwt beam="2">  1       21 0.21354622E+00 0.22573997E+03</pdfrwt>
<totfact> 0.14878341E+03</totfact>
</mgrwt>
</event>
<event>
 4    1  0.1086582E+000  0.2915460E+03  0.7546771E-02  0.1089545E+00
         21   -1    0    0  501  502  0.00000000000E+00  0.00000000000E+00  0.30070598759E+03  0.30070598759E+03  0.00000000000E+00 0.  1.
         21   -1    0    0  502  503 -0.00000000000E+00 -0.00000000000E+00 -0.28363042938E+03  0.28363042938E+03  0.00000000000E+00 0. -1.
          6    1    1    2  501    0 -0.19693661588E+03 -0.12896147225E+03  0.25582557406E+02  0.29266629331E+03  0.17200000000E+03 0.  1.
         -6    1    1    2    0  503  0.19693661588E+03  0.12896147225E+03 -0.85069992038E+01  0.29167012366E+03  0.17200000000E+03 0. -1.
<mgrwt>
<rscale>  2 0.29154604E+03</rscale>
<asrwt>0</asrwt>
<pdfrwt beam="1">  1       21 0.75176497E-01 0.29154604E+03</pdfrwt>
<pdfrwt beam="2">  1       21 0.70907607E-01 0.29154604E+03</pdfrwt>
<totfact> 0.26549268E+03</totfact>
</mgrwt>
</event>
<event>
 4    1  0.1086582E+000  0.1745163E+03  0.7546771E-02  0.1173218E+00
         21   -1    0    0  501  502  0.00000000000E+00  0.00000000000E+00  0.36423448045E+03  0.36423448045E+03  0.00000000000E+00 0. -1.
         21   -1    0    0  502  503 -0.00000000000E+00 -0.00000000000E+00 -0.11981668864E+03  0.11981668864E+03  0.00000000000E+00 0. -1.
          6    1    1    2  501    0 -0.22352570337E+02 -0.19294831919E+02  0.25524190962E+03  0.30919954781E+03  0.17200000000E+03 0. -1.
         -6    1    1    2    0  503  0.22352570337E+02  0.19294831919E+02 -0.10824117815E+02  0.17485162128E+03  0.17200000000E+03 0. -1.
<mgrwt>
<rscale>  2 0.17451627E+03</rscale>
<asrwt>0</asrwt>
<pdfrwt beam="1">  1       21 0.91058618E-01 0.17451627E+03</pdfrwt>
<pdfrwt beam="2">  1       21 0.29954173E-01 0.17451627E+03</pdfrwt>
<totfact> 0.11068199E+04</totfact>
</mgrwt>
</event>
<event>
 4    1  0.1086582E+000  0.2741900E+03  0.7546771E-02  0.1098905E+00
         21   -1    0    0  501  502  0.00000000000E+00  0.00000000000E+00  0.37313540471E+03  0.37313540471E+03  0.00000000000E+00 0.  1.
         21   -1    0    0  502  503 -0.00000000000E+00 -0.00000000000E+00 -0.20279539311E+03  0.20279539311E+03  0.00000000000E+00 0. -1.
          6    1    1    2  501    0 -0.49059434690E+02 -0.20782046343E+03  0.10834191733E+03  0.29481883285E+03  0.17200000000E+03 0. -1.
         -6    1    1    2    0  503  0.49059434690E+02  0.20782046343E+03  0.61998094269E+02  0.28111196496E+03  0.17200000000E+03 0.  1.
<mgrwt>
<rscale>  2 0.27419003E+03</rscale>
<asrwt>0</asrwt>
<pdfrwt beam="1">  1       21 0.93283850E-01 0.27419003E+03</pdfrwt>
<pdfrwt beam="2">  1       21 0.50698849E-01 0.27419003E+03</pdfrwt>
<totfact> 0.33753221E+03</totfact>
</mgrwt>
</event>
<event>
 4    1  0.1086582E+000  0.1832081E+03  0.7546771E-02  0.1164734E+00
         21   -1    0    0  501  502  0.00000000000E+00  0.00000000000E+00  0.10903442622E+03  0.10903442622E+03  0.00000000000E+00 0.  1.
         21   -1    0    0  502  503 -0.00000000000E+00 -0.00000000000E+00 -0.54596770480E+03  0.54596770480E+03  0.00000000000E+00 0.  1.
          6    1    1    2  501    0 -0.20945488837E+02  0.59518707750E+02 -0.21778880910E+01  0.18322099572E+03  0.17200000000E+03 0.  1.
         -6    1    1    2    0  503  0.20945488837E+02 -0.59518707750E+02 -0.43475539048E+03  0.47178113530E+03  0.17200000000E+03 0.  1.
<mgrwt>
<rscale>  2 0.18320805E+03</rscale>
<asrwt>0</asrwt>
<pdfrwt beam="1">  1       21 0.27258607E-01 0.18320805E+03</pdfrwt>
<pdfrwt beam="2">  1       21 0.13649192E+00 0.18320805E+03</pdfrwt>
<totfact> 0.49404228E+03</totfact>
</mgrwt>
</event>
<event>
 4    1  0.1086582E+000  0.2114426E+03  0.7546771E-02  0.1140429E+00
         21   -1    0    0  501  502  0.00000000000E+00  0.00000000000E+00  0.22721380966E+03  0.22721380966E+03  0.00000000000E+00 0.  1.
         21   -1    0    0  502  503 -0.00000000000E+00 -0.00000000000E+00 -0.26489366652E+03  0.26489366652E+03  0.00000000000E+00 0.  1.
          6    1    1    2  501    0  0.15160144693E+02  0.12204162925E+03 -0.14362292794E+03  0.25560816632E+03  0.17200000000E+03 0.  1.
         -6    1    1    2    0  503 -0.15160144693E+02 -0.12204162925E+03  0.10594307108E+03  0.23649930987E+03  0.17200000000E+03 0.  1.
<mgrwt>
<rscale>  2 0.21144264E+03</rscale>
<asrwt>0</asrwt>
<pdfrwt beam="1">  1       21 0.56803453E-01 0.21144264E+03</pdfrwt>
<pdfrwt beam="2">  1       21 0.66223416E-01 0.21144264E+03</pdfrwt>
<totfact> 0.60112653E+03</totfact>
</mgrwt>
</event>
<event>
 4    1  0.1086582E+000  0.2447180E+03  0.7546771E-02  0.1116689E+00
         21   -1    0    0  501  502  0.00000000000E+00  0.00000000000E+00  0.44016632949E+03  0.44016632949E+03  0.00000000000E+00 0.  1.
         21   -1    0    0  502  503 -0.00000000000E+00 -0.00000000000E+00 -0.20314938119E+03  0.20314938119E+03  0.00000000000E+00 0. -1.
          6    1    1    2  501    0 -0.17105760701E+03 -0.32283364542E+02  0.30336246024E+03  0.38976364995E+03  0.17200000000E+03 0.  1.
         -6    1    1    2    0  503  0.17105760701E+03  0.32283364542E+02 -0.66345511941E+02  0.25355206072E+03  0.17200000000E+03 0. -1.
<mgrwt>
<rscale>  2 0.24471804E+03</rscale>
<asrwt>0</asrwt>
<pdfrwt beam="1">  1       21 0.11004158E+00 0.24471804E+03</pdfrwt>
<pdfrwt beam="2">  1       21 0.50787346E-01 0.24471804E+03</pdfrwt>
<totfact> 0.23065046E+03</totfact>
</mgrwt>
</event>
<event>
 4    1  0.1086582E+000  0.1750455E+03  0.7546771E-02  0.1172686E+00
         21   -1    0    0  503  502  0.00000000000E+00  0.00000000000E+00  0.11398813834E+03  0.11398813834E+03  0.00000000000E+00 0.  1.
         21   -1    0    0  501  503 -0.00000000000E+00 -0.00000000000E+00 -0.40019752776E+03  0.40019752776E+03  0.00000000000E+00 0.  1.
          6    1    1    2  501    0 -0.23922719871E+02  0.22014080743E+02 -0.29041504077E+03  0.33908968162E+03  0.17200000000E+03 0.  1.
         -6    1    1    2    0  502  0.23922719871E+02 -0.22014080743E+02  0.42056513520E+01  0.17509598448E+03  0.17200000000E+03 0.  1.
<mgrwt>
<rscale>  2 0.17504547E+03</rscale>
<asrwt>0</asrwt>
<pdfrwt beam="1">  1       21 0.28497035E-01 0.17504547E+03</pdfrwt>
<pdfrwt beam="2">  1       21 0.10004938E+00 0.17504547E+03</pdfrwt>
<totfact> 0.97797472E+03</totfact>
</mgrwt>
</event>
<event>
 4    1  0.1086582E+000  0.2372748E+03  0.7546771E-02  0.1121622E+00
         21   -1    0    0  503  502  0.00000000000E+00  0.00000000000E+00  0.22049142314E+03  0.22049142314E+03  0.00000000000E+00 0. -1.
         21   -1    0    0  501  503 -0.00000000000E+00 -0.00000000000E+00 -0.88333756906E+03  0.88333756906E+03  0.00000000000E+00 0. -1.
          6    1    1    2  501    0 -0.14943447680E+03 -0.66216888567E+02 -0.79678291869E+03  0.83136174961E+03  0.17200000000E+03 0. -1.
         -6    1    1    2    0  502  0.14943447680E+03  0.66216888567E+02  0.13393677277E+03  0.27246724260E+03  0.17200000000E+03 0. -1.
<mgrwt>
<rscale>  2 0.23727482E+03</rscale>
<asrwt>0</asrwt>
<pdfrwt beam="1">  1       21 0.55122857E-01 0.23727482E+03</pdfrwt>
<pdfrwt beam="2">  1       21 0.22083439E+00 0.23727482E+03</pdfrwt>
<totfact> 0.29241431E+02</totfact>
</mgrwt>
</event>
<event>
 4    1  0.1086582E+000  0.2579196E+03  0.7546771E-02  0.1108400E+00
         21   -1    0    0  503  502  0.00000000000E+00  0.00000000000E+00  0.30990390084E+03  0.30990390084E+03  0.00000000000E+00 0. -1.
         21   -1    0    0  501  503 -0.00000000000E+00 -0.00000000000E+00 -0.21472912050E+03  0.21472912050E+03  0.00000000000E+00 0. -1.
          6    1    1    2  501    0  0.18186354233E+03 -0.62162458109E+02  0.52450640995E+02  0.26319876323E+03  0.17200000000E+03 0. -1.
         -6    1    1    2    0  502 -0.18186354233E+03  0.62162458109E+02  0.42724139349E+02  0.26143425810E+03  0.17200000000E+03 0. -1.
<mgrwt>
<rscale>  2 0.25791960E+03</rscale>
<asrwt>0</asrwt>
<pdfrwt beam="1">  1       21 0.77475975E-01 0.25791960E+03</pdfrwt>
<pdfrwt beam="2">  1       21 0.53682280E-01 0.25791960E+03</pdfrwt>
<totfact> 0.46369110E+03</totfact>
</mgrwt>
</event>
<event>
 4    1  0.1086582E+000  0.1927150E+03  0.7546771E-02  0.1156035E+00
         21   -1    0    0  503  502  0.00000000000E+00  0.00000000000E+00  0.38783897670E+03  0.38783897670E+03  0.00000000000E+00 0.  1.
         21   -1    0    0  501  503 -0.00000000000E+00 -0.00000000000E+00 -0.22195391598E+03  0.22195391598E+03  0.00000000000E+00 0. -1.
          6    1    1    2  501    0 -0.43143847478E+02  0.75456446106E+02 -0.14695902612E+03  0.24235515714E+03  0.17200000000E+03 0. -1.
         -6    1    1    2    0  502  0.43143847478E+02 -0.75456446106E+02  0.31284408684E+03  0.36743773555E+03  0.17200000000E+03 0.  1.
<mgrwt>
<rscale>  2 0.19271499E+03</rscale>
<asrwt>0</asrwt>
<pdfrwt beam="1">  1       21 0.96959743E-01 0.19271499E+03</pdfrwt>
<pdfrwt beam="2">  1       21 0.55488480E-01 0.19271499E+03</pdfrwt>
<totfact> 0.27032190E+03</totfact>
</mgrwt>
</event>
<event>
 4    1  0.1086582E+000  0.1876809E+03  0.7546771E-02  0.1160570E+00
         21   -1    0    0  501  502  0.00000000000E+00  0.00000000000E+00  0.33806512571E+03  0.33806512571E+03  0.00000000000E+00 0.  1.
         21   -1    0    0  502  503 -0.00000000000E+00 -0.00000000000E+00 -0.10632884274E+03  0.10632884274E+03  0.00000000000E+00 0.  1.
          6    1    1    2  501    0 -0.67069945931E+02  0.33789757798E+02  0.84378664160E+02  0.20577629685E+03  0.17200000000E+03 0.  1.
         -6    1    1    2    0  503  0.67069945931E+02 -0.33789757798E+02  0.14735761881E+03  0.23861767160E+03  0.17200000000E+03 0.  1.
<mgrwt>
<rscale>  2 0.18768091E+03</rscale>
<asrwt>0</asrwt>
<pdfrwt beam="1">  1       21 0.84516279E-01 0.18768091E+03</pdfrwt>
<pdfrwt beam="2">  1       21 0.26582211E-01 0.18768091E+03</pdfrwt>
<totfact> 0.16400289E+04</totfact>
</mgrwt>
</event>
<event>
 4    1  0.1086582E+000  0.3638312E+03  0.7546771E-02  0.1057077E+00
         21   -1    0    0  501  502  0.00000000000E+00  0.00000000000E+00  0.31865950867E+03  0.31865950867E+03  0.00000000000E+00 0. -1.
         21   -1    0    0  502  503 -0.00000000000E+00 -0.00000000000E+00 -0.44826435643E+03  0.44826435643E+03  0.00000000000E+00 0.  1.
          6    1    1    2  501    0  0.31208584354E+03  0.73427282872E+02  0.39016534189E+02  0.36591724413E+03  0.17200000000E+03 0. -1.
         -6    1    1    2    0  503 -0.31208584354E+03 -0.73427282872E+02 -0.16862138195E+03  0.40100662097E+03  0.17200000000E+03 0.  1.
<mgrwt>
<rscale>  2 0.36383120E+03</rscale>
<asrwt>0</asrwt>
<pdfrwt beam="1">  1       21 0.79664877E-01 0.36383120E+03</pdfrwt>
<pdfrwt beam="2">  1       21 0.11206609E+00 0.36383120E+03</pdfrwt>
<totfact> 0.76248250E+02</totfact>
</mgrwt>
</event>
<event>
 4    1  0.1086582E+000  0.4233198E+03  0.7546771E-02  0.1035991E+00
         21   -1    0    0  501  502  0.00000000000E+00  0.00000000000E+00  0.48286443423E+03  0.48286443423E+03  0.00000000000E+00 0. -1.
         21   -1    0    0  502  503 -0.00000000000E+00 -0.00000000000E+00 -0.40468445690E+03  0.40468445690E+03  0.00000000000E+00 0.  1.
          6    1    1    2  501    0  0.32548926389E+03 -0.20897947806E+03  0.16689761763E+03  0.45503241415E+03  0.17200000000E+03 0. -1.
         -6    1    1    2    0  503 -0.32548926389E+03  0.20897947806E+03 -0.88717640299E+02  0.43251647698E+03  0.17200000000E+03 0.  1.
<mgrwt>
<rscale>  2 0.42331984E+03</rscale>
<asrwt>0</asrwt>
<pdfrwt beam="1">  1       21 0.12071611E+00 0.42331984E+03</pdfrwt>
<pdfrwt beam="2">  1       21 0.10117111E+00 0.42331984E+03</pdfrwt>
<totfact> 0.34898631E+02</totfact>
</mgrwt>
</event>
<event>
 4    1  0.1086582E+000  0.1866113E+03  0.7546771E-02  0.1161554E+00
         21   -1    0    0  503  502  0.00000000000E+00  0.00000000000E+00  0.68421790458E+03  0.68421790458E+03  0.00000000000E+00 0. -1.
         21   -1    0    0  501  503 -0.00000000000E+00 -0.00000000000E+00 -0.53540038107E+02  0.53540038107E+02  0.00000000000E+00 0. -1.
          6    1    1    2  501    0 -0.63811357101E+02  0.34174111605E+02  0.23336007740E+03  0.29879873648E+03  0.17200000000E+03 0. -1.
         -6    1    1    2    0  502  0.63811357101E+02 -0.34174111605E+02  0.39731778908E+03  0.43895920621E+03  0.17200000000E+03 0. -1.
<mgrwt>
<rscale>  2 0.18661125E+03</rscale>
<asrwt>0</asrwt>
<pdfrwt beam="1">  1       21 0.17105445E+00 0.18661125E+03</pdfrwt>
<pdfrwt beam="2">  1       21 0.13385012E-01 0.18661125E+03</pdfrwt>
<totfact> 0.10165147E+04</totfact>
</mgrwt>
</event>
<event>
 4    1  0.1086582E+000  0.2350215E+03  0.7546771E-02  0.1123154E+00
         21   -1    0    0  501  502  0.00000000000E+00  0.00000000000E+00  0.72551997933E+03  0.72551997933E+03  0.00000000000E+00 0. -1.
         21   -1    0    0  502  503 -0.00000000000E+00 -0.00000000000E+00 -0.14126925225E+03  0.14126925225E+03  0.00000000000E+00 0.  1.
          6    1    1    2  501    0  0.13946558874E+03 -0.78742993229E+02  0.58641517168E+03  0.63175775658E+03  0.17200000000E+03 0. -1.
         -6    1    1    2    0  503 -0.13946558874E+03  0.78742993229E+02 -0.21644445998E+01  0.23503147501E+03  0.17200000000E+03 0.  1.
<mgrwt>
<rscale>  2 0.23502151E+03</rscale>
<asrwt>0</asrwt>
<pdfrwt beam="1">  1       21 0.18137998E+00 0.23502151E+03</pdfrwt>
<pdfrwt beam="2">  1       21 0.35317315E-01 0.23502151E+03</pdfrwt>
<totfact> 0.13205751E+03</totfact>
</mgrwt>
</event>
<event>
 4    1  0.1086582E+000  0.2020568E+03  0.7546771E-02  0.1148015E+00
         21   -1    0    0  503  502  0.00000000000E+00  0.00000000000E+00  0.39364608159E+03  0.39364608159E+03  0.00000000000E+00 0. -1.
         21   -1    0    0  501  503 -0.00000000000E+00 -0.00000000000E+00 -0.10371935175E+03  0.10371935175E+03  0.00000000000E+00 0. -1.
          6    1    1    2  501    0  0.10362873272E+03 -0.22450548742E+02  0.14332366551E+03  0.24772689494E+03  0.17200000000E+03 0. -1.
         -6    1    1    2    0  502 -0.10362873272E+03  0.22450548742E+02  0.14660306433E+03  0.24963853840E+03  0.17200000000E+03 0. -1.
<mgrwt>
<rscale>  2 0.20205678E+03</rscale>
<asrwt>0</asrwt>
<pdfrwt beam="1">  1       21 0.98411517E-01 0.20205678E+03</pdfrwt>
<pdfrwt beam="2">  1       21 0.25929839E-01 0.20205678E+03</pdfrwt>
<totfact> 0.11966269E+04</totfact>
</mgrwt>
</event>
<event>
 4    1  0.1086582E+000  0.2228589E+03  0.7546771E-02  0.1131769E+00
         21   -1    0    0  503  502  0.00000000000E+00  0.00000000000E+00  0.14844143761E+03  0.14844143761E+03  0.00000000000E+00 0. -1.
         21   -1    0    0  501  503 -0.00000000000E+00 -0.00000000000E+00 -0.60558718243E+03  0.60558718243E+03  0.00000000000E+00 0. -1.
          6    1    1    2  501    0 -0.13021305715E+03 -0.55916582939E+02 -0.48077969475E+03  0.52992001225E+03  0.17200000000E+03 0. -1.
         -6    1    1    2    0  502  0.13021305715E+03  0.55916582939E+02  0.23633949920E+02  0.22410860779E+03  0.17200000000E+03 0. -1.
<mgrwt>
<rscale>  2 0.22285893E+03</rscale>
<asrwt>0</asrwt>
<pdfrwt beam="1">  1       21 0.37110360E-01 0.22285893E+03</pdfrwt>
<pdfrwt beam="2">  1       21 0.15139679E+00 0.22285893E+03</pdfrwt>
<totfact> 0.19870476E+03</totfact>
</mgrwt>
</event>
<event>
 4    1  0.1086582E+000  0.2320766E+03  0.7546771E-02  0.1125187E+00
         21   -1    0    0  503  502  0.00000000000E+00  0.00000000000E+00  0.61699143954E+03  0.61699143954E+03  0.00000000000E+00 0.  1.
         21   -1    0    0  501  503 -0.00000000000E+00 -0.00000000000E+00 -0.15784889177E+03  0.15784889177E+03  0.00000000000E+00 0. -1.
          6    1    1    2  501    0  0.13980507261E+03 -0.68775723292E+02 -0.29444062318E+02  0.23393698136E+03  0.17200000000E+03 0. -1.
         -6    1    1    2    0  502 -0.13980507261E+03  0.68775723292E+02  0.48858661009E+03  0.54090334996E+03  0.17200000000E+03 0.  1.
<mgrwt>
<rscale>  2 0.23207662E+03</rscale>
<asrwt>0</asrwt>
<pdfrwt beam="1">  1       21 0.15424785E+00 0.23207662E+03</pdfrwt>
<pdfrwt beam="2">  1       21 0.39462225E-01 0.23207662E+03</pdfrwt>
<totfact> 0.16573554E+03</totfact>
</mgrwt>
</event>
<event>
 4    1  0.1086582E+000  0.1967343E+03  0.7546771E-02  0.1152524E+00
         21   -1    0    0  501  502  0.00000000000E+00  0.00000000000E+00  0.28736516231E+02  0.28736516231E+02  0.00000000000E+00 0. -1.
         21   -1    0    0  502  503 -0.00000000000E+00 -0.00000000000E+00 -0.14283238291E+04  0.14283238291E+04  0.00000000000E+00 0. -1.
          6    1    1    2  501    0  0.42039178022E+02  0.85750225585E+02 -0.52581897384E+03  0.56141783631E+03  0.17200000000E+03 0. -1.
         -6    1    1    2    0  503 -0.42039178022E+02 -0.85750225585E+02 -0.87376833904E+03  0.89564250903E+03  0.17200000000E+03 0. -1.
<mgrwt>
<rscale>  2 0.19673432E+03</rscale>
<asrwt>0</asrwt>
<pdfrwt beam="1">  1       21 0.71841293E-02 0.19673432E+03</pdfrwt>
<pdfrwt beam="2">  1       21 0.35708095E+00 0.19673432E+03</pdfrwt>
<totfact> 0.22836019E+03</totfact>
</mgrwt>
</event>
<event>
 4    1  0.1086582E+000  0.1771635E+03  0.7546771E-02  0.1170577E+00
         21   -1    0    0  501  502  0.00000000000E+00  0.00000000000E+00  0.12871193125E+04  0.12871193125E+04  0.00000000000E+00 0.  1.
         21   -1    0    0  502  503 -0.00000000000E+00 -0.00000000000E+00 -0.14856107633E+03  0.14856107633E+03  0.00000000000E+00 0.  1.
          6    1    1    2  501    0 -0.30865382566E+02  0.29159046599E+02  0.12255656884E+04  0.12383045580E+04  0.17200000000E+03 0.  1.
         -6    1    1    2    0  503  0.30865382566E+02 -0.29159046599E+02 -0.87007452238E+02  0.19737583080E+03  0.17200000000E+03 0.  1.
<mgrwt>
<rscale>  2 0.17716355E+03</rscale>
<asrwt>0</asrwt>
<pdfrwt beam="1">  1       21 0.32177979E+00 0.17716355E+03</pdfrwt>
<pdfrwt beam="2">  1       21 0.37140273E-01 0.17716355E+03</pdfrwt>
<totfact> 0.18346532E+02</totfact>
</mgrwt>
</event>
<event>
 4    1  0.1086582E+000  0.2081128E+03  0.7546771E-02  0.1143069E+00
         21   -1    0    0  501  502  0.00000000000E+00  0.00000000000E+00  0.44956866499E+03  0.44956866499E+03  0.00000000000E+00 0. -1.
         21   -1    0    0  502  503 -0.00000000000E+00 -0.00000000000E+00 -0.10058337394E+03  0.10058337394E+03  0.00000000000E+00 0.  1.
          6    1    1    2  501    0  0.82349894183E+02 -0.83339205337E+02  0.23099988887E+03  0.31092101389E+03  0.17200000000E+03 0.  1.
         -6    1    1    2    0  503 -0.82349894183E+02  0.83339205337E+02  0.11798540218E+03  0.23923102505E+03  0.17200000000E+03 0. -1.
<mgrwt>
<rscale>  2 0.20811278E+03</rscale>
<asrwt>0</asrwt>
<pdfrwt beam="1">  1       21 0.11239216E+00 0.20811278E+03</pdfrwt>
<pdfrwt beam="2">  1       21 0.25145845E-01 0.20811278E+03</pdfrwt>
<totfact> 0.91833679E+03</totfact>
</mgrwt>
</event>
<event>
 4    1  0.1086582E+000  0.3780723E+03  0.7546771E-02  0.1051649E+00
         21   -1    0    0  501  502  0.00000000000E+00  0.00000000000E+00  0.60954445487E+03  0.60954445487E+03  0.00000000000E+00 0.  1.
         21   -1    0    0  502  503 -0.00000000000E+00 -0.00000000000E+00 -0.24322013202E+03  0.24322013202E+03  0.00000000000E+00 0.  1.
          6    1    1    2  501    0  0.24303555192E+03 -0.23299873244E+03  0.26389308591E+03  0.46106208867E+03  0.17200000000E+03 0.  1.
         -6    1    1    2    0  503 -0.24303555192E+03  0.23299873244E+03  0.10243123694E+03  0.39170249822E+03  0.17200000000E+03 0.  1.
<mgrwt>
<rscale>  2 0.37807233E+03</rscale>
<asrwt>0</asrwt>
<pdfrwt beam="1">  1       21 0.15238611E+00 0.37807233E+03</pdfrwt>
<pdfrwt beam="2">  1       21 0.60805034E-01 0.37807233E+03</pdfrwt>
<totfact> 0.62548075E+02</totfact>
</mgrwt>
</event>
<event>
 4    1  0.1086582E+000  0.1939003E+03  0.7546771E-02  0.1154990E+00
         21   -1    0    0  501  502  0.00000000000E+00  0.00000000000E+00  0.28212831311E+03  0.28212831311E+03  0.00000000000E+00 0. -1.
         21   -1    0    0  502  503 -0.00000000000E+00 -0.00000000000E+00 -0.14900252846E+03  0.14900252846E+03  0.00000000000E+00 0. -1.
          6    1    1    2  501    0  0.44086243275E+02 -0.77908480670E+02  0.13662368778E+03  0.23719898876E+03  0.17200000000E+03 0. -1.
         -6    1    1    2    0  503 -0.44086243275E+02  0.77908480670E+02 -0.34979031278E+01  0.19393185281E+03  0.17200000000E+03 0. -1.
<mgrwt>
<rscale>  2 0.19390030E+03</rscale>
<asrwt>0</asrwt>
<pdfrwt beam="1">  1       21 0.70532077E-01 0.19390030E+03</pdfrwt>
<pdfrwt beam="2">  1       21 0.37250633E-01 0.19390030E+03</pdfrwt>
<totfact> 0.12655379E+04</totfact>
</mgrwt>
</event>
<event>
 4    1  0.1086582E+000  0.2013442E+03  0.7546771E-02  0.1148610E+00
         21   -1    0    0  503  502  0.00000000000E+00  0.00000000000E+00  0.12111225867E+04  0.12111225867E+04  0.00000000000E+00 0. -1.
         21   -1    0    0  501  503 -0.00000000000E+00 -0.00000000000E+00 -0.99339216107E+02  0.99339216107E+02  0.00000000000E+00 0.  1.
          6    1    1    2  501    0 -0.96691897837E+02 -0.40076877255E+02  0.22352247497E+02  0.20258110022E+03  0.17200000000E+03 0.  1.
         -6    1    1    2    0  502  0.96691897837E+02  0.40076877255E+02  0.10894311231E+04  0.11078807026E+04  0.17200000000E+03 0. -1.
<mgrwt>
<rscale>  2 0.20134418E+03</rscale>
<asrwt>0</asrwt>
<pdfrwt beam="1">  1       21 0.30278060E+00 0.20134418E+03</pdfrwt>
<pdfrwt beam="2">  1       21 0.24834808E-01 0.20134418E+03</pdfrwt>
<totfact> 0.49851609E+02</totfact>
</mgrwt>
</event>
<event>
 4    1  0.1086582E+000  0.1756974E+03  0.7546771E-02  0.1172033E+00
         21   -1    0    0  503  502  0.00000000000E+00  0.00000000000E+00  0.12918521099E+03  0.12918521099E+03  0.00000000000E+00 0. -1.
         21   -1    0    0  501  503 -0.00000000000E+00 -0.00000000000E+00 -0.27765625465E+03  0.27765625465E+03  0.00000000000E+00 0. -1.
          6    1    1    2  501    0 -0.11969578900E+02 -0.33797821988E+02 -0.15018051782E+03  0.23113578590E+03  0.17200000000E+03 0. -1.
         -6    1    1    2    0  502  0.11969578900E+02  0.33797821988E+02  0.17094741713E+01  0.17570567974E+03  0.17200000000E+03 0. -1.
<mgrwt>
<rscale>  2 0.17569736E+03</rscale>
<asrwt>0</asrwt>
<pdfrwt beam="1">  1       21 0.32296303E-01 0.17569736E+03</pdfrwt>
<pdfrwt beam="2">  1       21 0.69414063E-01 0.17569736E+03</pdfrwt>
<totfact> 0.17595443E+04</totfact>
</mgrwt>
</event>
<event>
 4    1  0.1086582E+000  0.2864085E+03  0.7546771E-02  0.1092239E+00
         21   -1    0    0  501  502  0.00000000000E+00  0.00000000000E+00  0.16437450246E+03  0.16437450246E+03  0.00000000000E+00 0. -1.
         21   -1    0    0  502  503 -0.00000000000E+00 -0.00000000000E+00 -0.78483931653E+03  0.78483931653E+03  0.00000000000E+00 0. -1.
          6    1    1    2  501    0  0.97056118110E+02 -0.20742701337E+03 -0.23832808045E+02  0.28739843194E+03  0.17200000000E+03 0. -1.
         -6    1    1    2    0  503 -0.97056118110E+02  0.20742701337E+03 -0.59663200602E+03  0.66181538706E+03  0.17200000000E+03 0. -1.
<mgrwt>
<rscale>  2 0.28640855E+03</rscale>
<asrwt>0</asrwt>
<pdfrwt beam="1">  1       21 0.41093626E-01 0.28640855E+03</pdfrwt>
<pdfrwt beam="2">  1       21 0.19620982E+00 0.28640855E+03</pdfrwt>
<totfact> 0.74103464E+02</totfact>
</mgrwt>
</event>
<event>
 4    1  0.1086582E+000  0.2843208E+03  0.7546771E-02  0.1093352E+00
         21   -1    0    0  501  502  0.00000000000E+00  0.00000000000E+00  0.55666808969E+03  0.55666808969E+03  0.00000000000E+00 0.  1.
         21   -1    0    0  502  503 -0.00000000000E+00 -0.00000000000E+00 -0.14625350561E+03  0.14625350561E+03  0.00000000000E+00 0. -1.
          6    1    1    2  501    0  0.22447123645E+03  0.29444312169E+02  0.23477863298E+03  0.36872660606E+03  0.17200000000E+03 0.  1.
         -6    1    1    2    0  503 -0.22447123645E+03 -0.29444312169E+02  0.17563595109E+03  0.33419498924E+03  0.17200000000E+03 0. -1.
<mgrwt>
<rscale>  2 0.28432078E+03</rscale>
<asrwt>0</asrwt>
<pdfrwt beam="1">  1       21 0.13916702E+00 0.28432078E+03</pdfrwt>
<pdfrwt beam="2">  1       21 0.36563378E-01 0.28432078E+03</pdfrwt>
<totfact> 0.24438135E+03</totfact>
</mgrwt>
</event>
<event>
 4    1  0.1086582E+000  0.2875665E+03  0.7546771E-02  0.1091627E+00
         21   -1    0    0  501  502  0.00000000000E+00  0.00000000000E+00  0.39795929483E+03  0.39795929483E+03  0.00000000000E+00 0. -1.
         21   -1    0    0  502  503 -0.00000000000E+00 -0.00000000000E+00 -0.21028641538E+03  0.21028641538E+03  0.00000000000E+00 0. -1.
          6    1    1    2  501    0 -0.22647289198E+03 -0.42667797189E+02  0.60742853855E+02  0.29391190179E+03  0.17200000000E+03 0. -1.
         -6    1    1    2    0  503  0.22647289198E+03  0.42667797189E+02  0.12693002559E+03  0.31433380842E+03  0.17200000000E+03 0. -1.
<mgrwt>
<rscale>  2 0.28756653E+03</rscale>
<asrwt>0</asrwt>
<pdfrwt beam="1">  1       21 0.99489823E-01 0.28756653E+03</pdfrwt>
<pdfrwt beam="2">  1       21 0.52571604E-01 0.28756653E+03</pdfrwt>
<totfact> 0.26615654E+03</totfact>
</mgrwt>
</event>
<event>
 4    1  0.1086582E+000  0.1734588E+03  0.7546771E-02  0.1174288E+00
         21   -1    0    0  503  502  0.00000000000E+00  0.00000000000E+00  0.45634940283E+03  0.45634940283E+03  0.00000000000E+00 0. -1.
         21   -1    0    0  501  503 -0.00000000000E+00 -0.00000000000E+00 -0.26150769221E+03  0.26150769221E+03  0.00000000000E+00 0. -1.
          6    1    1    2  501    0 -0.14310201360E+02 -0.17296658152E+02 -0.21298033789E+03  0.27467905012E+03  0.17200000000E+03 0. -1.
         -6    1    1    2    0  502  0.14310201360E+02  0.17296658152E+02  0.40782204851E+03  0.44317804492E+03  0.17200000000E+03 0. -1.
<mgrwt>
<rscale>  2 0.17345880E+03</rscale>
<asrwt>0</asrwt>
<pdfrwt beam="1">  1       21 0.11408735E+00 0.17345880E+03</pdfrwt>
<pdfrwt beam="2">  1       21 0.65376924E-01 0.17345880E+03</pdfrwt>
<totfact> 0.13119516E+03</totfact>
</mgrwt>
</event>
<event>
 4    1  0.1086582E+000  0.1777141E+03  0.7546771E-02  0.1170034E+00
         21   -1    0    0  501  502  0.00000000000E+00  0.00000000000E+00  0.56113547795E+03  0.56113547795E+03  0.00000000000E+00 0.  1.
         21   -1    0    0  502  503 -0.00000000000E+00 -0.00000000000E+00 -0.12861702631E+03  0.12861702631E+03  0.00000000000E+00 0.  1.
          6    1    1    2  501    0  0.24396838715E+02 -0.37458055391E+02  0.47489332732E+03  0.50705619411E+03  0.17200000000E+03 0.  1.
         -6    1    1    2    0  503 -0.24396838715E+02  0.37458055391E+02 -0.42374875676E+02  0.18269631015E+03  0.17200000000E+03 0.  1.
<mgrwt>
<rscale>  2 0.17771413E+03</rscale>
<asrwt>0</asrwt>
<pdfrwt beam="1">  1       21 0.14028386E+00 0.17771413E+03</pdfrwt>
<pdfrwt beam="2">  1       21 0.32154258E-01 0.17771413E+03</pdfrwt>
<totfact> 0.33569219E+03</totfact>
</mgrwt>
</event>
<event>
 4    1  0.1086582E+000  0.1801848E+03  0.7546771E-02  0.1167624E+00
         21   -1    0    0  503  502  0.00000000000E+00  0.00000000000E+00  0.21413714757E+02  0.21413714757E+02  0.00000000000E+00 0. -1.
         21   -1    0    0  501  503 -0.00000000000E+00 -0.00000000000E+00 -0.19311411507E+04  0.19311411507E+04  0.00000000000E+00 0. -1.
          6    1    1    2  501    0 -0.46335058037E+02  0.27122519860E+02 -0.14074294078E+04  0.14189165256E+04  0.17200000000E+03 0. -1.
         -6    1    1    2    0  502  0.46335058037E+02 -0.27122519860E+02 -0.50229802813E+03  0.53363833985E+03  0.17200000000E+03 0. -1.
<mgrwt>
<rscale>  2 0.18018482E+03</rscale>
<asrwt>0</asrwt>
<pdfrwt beam="1">  1       21 0.53534284E-02 0.18018482E+03</pdfrwt>
<pdfrwt beam="2">  1       21 0.48278532E+00 0.18018482E+03</pdfrwt>
<totfact> 0.61114595E+02</totfact>
</mgrwt>
</event>
<event>
 4    1  0.1086582E+000  0.1726470E+03  0.7546771E-02  0.1175115E+00
         21   -1    0    0  503  502  0.00000000000E+00  0.00000000000E+00  0.58594588504E+03  0.58594588504E+03  0.00000000000E+00 0. -1.
         21   -1    0    0  501  503 -0.00000000000E+00 -0.00000000000E+00 -0.33235227510E+03  0.33235227510E+03  0.00000000000E+00 0. -1.
          6    1    1    2  501    0 -0.56815690668E+01  0.13809394855E+02 -0.29575506897E+03  0.34245881567E+03  0.17200000000E+03 0. -1.
         -6    1    1    2    0  502  0.56815690668E+01 -0.13809394855E+02  0.54934867891E+03  0.57583934447E+03  0.17200000000E+03 0. -1.
<mgrwt>
<rscale>  2 0.17264698E+03</rscale>
<asrwt>0</asrwt>
<pdfrwt beam="1">  1       21 0.14648647E+00 0.17264698E+03</pdfrwt>
<pdfrwt beam="2">  1       21 0.83088070E-01 0.17264698E+03</pdfrwt>
<totfact> 0.41144187E+02</totfact>
</mgrwt>
</event>
<event>
 4    1  0.1086582E+000  0.2149325E+03  0.7546771E-02  0.1137718E+00
         21   -1    0    0  501  502  0.00000000000E+00  0.00000000000E+00  0.38394775198E+02  0.38394775198E+02  0.00000000000E+00 0. -1.
         21   -1    0    0  502  503 -0.00000000000E+00 -0.00000000000E+00 -0.12150897652E+04  0.12150897652E+04  0.00000000000E+00 0. -1.
          6    1    1    2  501    0 -0.45811702865E+01  0.12880597642E+03 -0.52630783496E+03  0.56850321356E+03  0.17200000000E+03 0. -1.
         -6    1    1    2    0  503  0.45811702865E+01 -0.12880597642E+03 -0.65038715504E+03  0.68498132685E+03  0.17200000000E+03 0. -1.
<mgrwt>
<rscale>  2 0.21493247E+03</rscale>
<asrwt>0</asrwt>
<pdfrwt beam="1">  1       21 0.95986939E-02 0.21493247E+03</pdfrwt>
<pdfrwt beam="2">  1       21 0.30377244E+00 0.21493247E+03</pdfrwt>
<totfact> 0.27587615E+03</totfact>
</mgrwt>
</event>
<event>
 4    1  0.1086582E+000  0.1870948E+03  0.7546771E-02  0.1161108E+00
         21   -1    0    0  501  502  0.00000000000E+00  0.00000000000E+00  0.12719121049E+03  0.12719121049E+03  0.00000000000E+00 0.  1.
         21   -1    0    0  502  503 -0.00000000000E+00 -0.00000000000E+00 -0.27560968797E+03  0.27560968797E+03  0.00000000000E+00 0.  1.
          6    1    1    2  501    0 -0.61329286794E+02  0.40732982228E+02 -0.81866459001E+02  0.20422187534E+03  0.17200000000E+03 0.  1.
         -6    1    1    2    0  503  0.61329286794E+02 -0.40732982228E+02 -0.66552018476E+02  0.19857902312E+03  0.17200000000E+03 0.  1.
<mgrwt>
<rscale>  2 0.18709478E+03</rscale>
<asrwt>0</asrwt>
<pdfrwt beam="1">  1       21 0.31797803E-01 0.18709478E+03</pdfrwt>
<pdfrwt beam="2">  1       21 0.68902422E-01 0.18709478E+03</pdfrwt>
<totfact> 0.18306606E+04</totfact>
</mgrwt>
</event>
<event>
 4    1  0.1086582E+000  0.2270700E+03  0.7546771E-02  0.1128719E+00
         21   -1    0    0  503  502  0.00000000000E+00  0.00000000000E+00  0.13708139468E+04  0.13708139468E+04  0.00000000000E+00 0. -1.
         21   -1    0    0  501  503 -0.00000000000E+00 -0.00000000000E+00 -0.43164301682E+02  0.43164301682E+02  0.00000000000E+00 0.  1.
          6    1    1    2  501    0  0.94762914673E+02 -0.11400338132E+03  0.41028999251E+03  0.46893353356E+03  0.17200000000E+03 0.  1.
         -6    1    1    2    0  502 -0.94762914673E+02  0.11400338132E+03  0.91735965259E+03  0.94504471490E+03  0.17200000000E+03 0.  1.
<mgrwt>
<rscale>  2 0.22706999E+03</rscale>
<asrwt>0</asrwt>
<pdfrwt beam="1">  1       21 0.34270334E+00 0.22706999E+03</pdfrwt>
<pdfrwt beam="2">  1       21 0.10791080E-01 0.22706999E+03</pdfrwt>
<totfact> 0.13083175E+03</totfact>
</mgrwt>
</event>
<event>
 4    1  0.1086582E+000  0.2000215E+03  0.7546771E-02  0.1149721E+00
         21   -1    0    0  501  502  0.00000000000E+00  0.00000000000E+00  0.10610647760E+03  0.10610647760E+03  0.00000000000E+00 0.  1.
         21   -1    0    0  502  503 -0.00000000000E+00 -0.00000000000E+00 -0.46190722552E+03  0.46190722552E+03  0.00000000000E+00 0. -1.
          6    1    1    2  501    0  0.35888574563E+02  0.95585521238E+02 -0.56178537433E+02  0.20776094369E+03  0.17200000000E+03 0.  1.
         -6    1    1    2    0  503 -0.35888574563E+02 -0.95585521238E+02 -0.29962221049E+03  0.36025275943E+03  0.17200000000E+03 0. -1.
<mgrwt>
<rscale>  2 0.20002145E+03</rscale>
<asrwt>0</asrwt>
<pdfrwt beam="1">  1       21 0.26526620E-01 0.20002145E+03</pdfrwt>
<pdfrwt beam="2">  1       21 0.11547680E+00 0.20002145E+03</pdfrwt>
<totfact> 0.78042777E+03</totfact>
</mgrwt>
</event>
<event>
 4    1  0.1086582E+000  0.2715698E+03  0.7546771E-02  0.1100384E+00
         21   -1    0    0  501  502  0.00000000000E+00  0.00000000000E+00  0.56345673633E+03  0.56345673633E+03  0.00000000000E+00 0.  1.
         21   -1    0    0  502  503 -0.00000000000E+00 -0.00000000000E+00 -0.13423399462E+03  0.13423399462E+03  0.00000000000E+00 0. -1.
          6    1    1    2  501    0  0.12905638649E+03  0.16586328588E+03  0.26968096618E+03  0.38272444920E+03  0.17200000000E+03 0. -1.
         -6    1    1    2    0  503 -0.12905638649E+03 -0.16586328588E+03  0.15954177553E+03  0.31496628175E+03  0.17200000000E+03 0.  1.
<mgrwt>
<rscale>  2 0.27156984E+03</rscale>
<asrwt>0</asrwt>
<pdfrwt beam="1">  1       21 0.14086418E+00 0.27156984E+03</pdfrwt>
<pdfrwt beam="2">  1       21 0.33558500E-01 0.27156984E+03</pdfrwt>
<totfact> 0.28341172E+03</totfact>
</mgrwt>
</event>
<event>
 4    1  0.1086582E+000  0.2596606E+03  0.7546771E-02  0.1107347E+00
         21   -1    0    0  501  502  0.00000000000E+00  0.00000000000E+00  0.31521694496E+03  0.31521694496E+03  0.00000000000E+00 0.  1.
         21   -1    0    0  502  503 -0.00000000000E+00 -0.00000000000E+00 -0.26210504426E+03  0.26210504426E+03  0.00000000000E+00 0. -1.
          6    1    1    2  501    0 -0.17555338627E+03  0.83789272082E+02  0.15035428984E+03  0.30005007252E+03  0.17200000000E+03 0.  1.
         -6    1    1    2    0  503  0.17555338627E+03 -0.83789272082E+02 -0.97242389145E+02  0.27727191670E+03  0.17200000000E+03 0. -1.
<mgrwt>
<rscale>  2 0.25966061E+03</rscale>
<asrwt>0</asrwt>
<pdfrwt beam="1">  1       21 0.78804236E-01 0.25966061E+03</pdfrwt>
<pdfrwt beam="2">  1       21 0.65526261E-01 0.25966061E+03</pdfrwt>
<totfact> 0.28978337E+03</totfact>
</mgrwt>
</event>
<event>
 4    1  0.1086582E+000  0.1858440E+03  0.7546771E-02  0.1162264E+00
         21   -1    0    0  501  502  0.00000000000E+00  0.00000000000E+00  0.74842831388E+02  0.74842831388E+02  0.00000000000E+00 0. -1.
         21   -1    0    0  502  503 -0.00000000000E+00 -0.00000000000E+00 -0.50893599368E+03  0.50893599368E+03  0.00000000000E+00 0. -1.
          6    1    1    2  501    0 -0.57771348899E+02 -0.40205211896E+02 -0.12790881171E+03  0.22560729583E+03  0.17200000000E+03 0. -1.
         -6    1    1    2    0  503  0.57771348899E+02  0.40205211896E+02 -0.30618435059E+03  0.35817152924E+03  0.17200000000E+03 0. -1.
<mgrwt>
<rscale>  2 0.18584399E+03</rscale>
<asrwt>0</asrwt>
<pdfrwt beam="1">  1       21 0.18710708E-01 0.18584399E+03</pdfrwt>
<pdfrwt beam="2">  1       21 0.12723400E+00 0.18584399E+03</pdfrwt>
<totfact> 0.11981897E+04</totfact>
</mgrwt>
</event>
<event>
 4    1  0.1086582E+000  0.1863961E+03  0.7546771E-02  0.1161753E+00
         21   -1    0    0  503  502  0.00000000000E+00  0.00000000000E+00  0.57033670240E+03  0.57033670240E+03  0.00000000000E+00 0.  1.
         21   -1    0    0  501  503 -0.00000000000E+00 -0.00000000000E+00 -0.93320897655E+02  0.93320897655E+02  0.00000000000E+00 0.  1.
          6    1    1    2  501    0 -0.61738102826E+02  0.36713788312E+02  0.42975027312E+02  0.19128603861E+03  0.17200000000E+03 0.  1.
         -6    1    1    2    0  502  0.61738102826E+02 -0.36713788312E+02  0.43404077743E+03  0.47237156145E+03  0.17200000000E+03 0.  1.
<mgrwt>
<rscale>  2 0.18639607E+03</rscale>
<asrwt>0</asrwt>
<pdfrwt beam="1">  1       21 0.14258417E+00 0.18639607E+03</pdfrwt>
<pdfrwt beam="2">  1       21 0.23330226E-01 0.18639607E+03</pdfrwt>
<totfact> 0.59258548E+03</totfact>
</mgrwt>
</event>
<event>
 4    1  0.1086582E+000  0.2498262E+03  0.7546771E-02  0.1113415E+00
         21   -1    0    0  503  502  0.00000000000E+00  0.00000000000E+00  0.58356013302E+02  0.58356013302E+02  0.00000000000E+00 0.  1.
         21   -1    0    0  501  503 -0.00000000000E+00 -0.00000000000E+00 -0.10863694410E+04  0.10863694410E+04  0.00000000000E+00 0. -1.
          6    1    1    2  501    0  0.17727021300E+03  0.37475651084E+02 -0.58527964749E+03  0.63636893278E+03  0.17200000000E+03 0. -1.
         -6    1    1    2    0  502 -0.17727021300E+03 -0.37475651084E+02 -0.44273378024E+03  0.50835652156E+03  0.17200000000E+03 0.  1.
<mgrwt>
<rscale>  2 0.24982625E+03</rscale>
<asrwt>0</asrwt>
<pdfrwt beam="1">  1       21 0.14589004E-01 0.24982625E+03</pdfrwt>
<pdfrwt beam="2">  1       21 0.27159235E+00 0.24982625E+03</pdfrwt>
<totfact> 0.19323017E+03</totfact>
</mgrwt>
</event>
<event>
 4    1  0.1086582E+000  0.2419994E+03  0.7546771E-02  0.1118468E+00
         21   -1    0    0  503  502  0.00000000000E+00  0.00000000000E+00  0.76888293737E+02  0.76888293737E+02  0.00000000000E+00 0. -1.
         21   -1    0    0  501  503 -0.00000000000E+00 -0.00000000000E+00 -0.99148221574E+03  0.99148221574E+03  0.00000000000E+00 0. -1.
          6    1    1    2  501    0 -0.10336178756E+03  0.13526283205E+03 -0.71447489237E+03  0.75434611730E+03  0.17200000000E+03 0. -1.
         -6    1    1    2    0  502  0.10336178756E+03 -0.13526283205E+03 -0.20011902964E+03  0.31402439218E+03  0.17200000000E+03 0. -1.
<mgrwt>
<rscale>  2 0.24199937E+03</rscale>
<asrwt>0</asrwt>
<pdfrwt beam="1">  1       21 0.19222074E-01 0.24199937E+03</pdfrwt>
<pdfrwt beam="2">  1       21 0.24787055E+00 0.24199937E+03</pdfrwt>
<totfact> 0.16147629E+03</totfact>
</mgrwt>
</event>
<event>
 4    1  0.1086582E+000  0.2523548E+03  0.7546771E-02  0.1111826E+00
         21   -1    0    0  503  502  0.00000000000E+00  0.00000000000E+00  0.15364676129E+03  0.15364676129E+03  0.00000000000E+00 0. -1.
         21   -1    0    0  501  503 -0.00000000000E+00 -0.00000000000E+00 -0.75031629071E+03  0.75031629071E+03  0.00000000000E+00 0.  1.
          6    1    1    2  501    0  0.18069370485E+03  0.38062176300E+02 -0.60072285880E+03  0.65157570344E+03  0.17200000000E+03 0.  1.
         -6    1    1    2    0  502 -0.18069370485E+03 -0.38062176300E+02  0.40533293796E+01  0.25238734856E+03  0.17200000000E+03 0. -1.
<mgrwt>
<rscale>  2 0.25235480E+03</rscale>
<asrwt>0</asrwt>
<pdfrwt beam="1">  1       21 0.38411691E-01 0.25235480E+03</pdfrwt>
<pdfrwt beam="2">  1       21 0.18757907E+00 0.25235480E+03</pdfrwt>
<totfact> 0.99775784E+02</totfact>
</mgrwt>
</event>
<event>
 4    1  0.1086582E+000  0.1939484E+03  0.7546771E-02  0.1154948E+00
         21   -1    0    0  501  502  0.00000000000E+00  0.00000000000E+00  0.29551107748E+03  0.29551107748E+03  0.00000000000E+00 0.  1.
         21   -1    0    0  502  503 -0.00000000000E+00 -0.00000000000E+00 -0.14457761616E+03  0.14457761616E+03  0.00000000000E+00 0.  1.
          6    1    1    2  501    0  0.87883432627E+02 -0.17564244235E+02 -0.62026499167E+00  0.19394943963E+03  0.17200000000E+03 0.  1.
         -6    1    1    2    0  503 -0.87883432627E+02  0.17564244235E+02  0.15155372631E+03  0.24613925401E+03  0.17200000000E+03 0.  1.
<mgrwt>
<rscale>  2 0.19394845E+03</rscale>
<asrwt>0</asrwt>
<pdfrwt beam="1">  1       21 0.73877768E-01 0.19394845E+03</pdfrwt>
<pdfrwt beam="2">  1       21 0.36144405E-01 0.19394845E+03</pdfrwt>
<totfact> 0.12127558E+04</totfact>
</mgrwt>
</event>
<event>
 4    1  0.1086582E+000  0.1841493E+03  0.7546771E-02  0.1163847E+00
         21   -1    0    0  503  502  0.00000000000E+00  0.00000000000E+00  0.44687066689E+03  0.44687066689E+03  0.00000000000E+00 0.  1.
         21   -1    0    0  501  503 -0.00000000000E+00 -0.00000000000E+00 -0.12175511931E+03  0.12175511931E+03  0.00000000000E+00 0.  1.
          6    1    1    2  501    0  0.51450971999E+02 -0.40984835234E+02 -0.11950483438E+02  0.18453664485E+03  0.17200000000E+03 0.  1.
         -6    1    1    2    0  502 -0.51450971999E+02  0.40984835234E+02  0.33706603102E+03  0.38408914135E+03  0.17200000000E+03 0.  1.
<mgrwt>
<rscale>  2 0.18414929E+03</rscale>
<asrwt>0</asrwt>
<pdfrwt beam="1">  1       21 0.11171766E+00 0.18414929E+03</pdfrwt>
<pdfrwt beam="2">  1       21 0.30438781E-01 0.18414929E+03</pdfrwt>
<totfact> 0.65589136E+03</totfact>
</mgrwt>
</event>
<event>
 4    1  0.1086582E+000  0.1722080E+03  0.7546771E-02  0.1175565E+00
         21   -1    0    0  503  502  0.00000000000E+00  0.00000000000E+00  0.17998906936E+03  0.17998906936E+03  0.00000000000E+00 0. -1.
         21   -1    0    0  501  503 -0.00000000000E+00 -0.00000000000E+00 -0.22899700146E+03  0.22899700146E+03  0.00000000000E+00 0. -1.
          6    1    1    2  501    0 -0.51305856984E+01  0.67295149026E+01 -0.13280803992E+03  0.21747088253E+03  0.17200000000E+03 0.  1.
         -6    1    1    2    0  502  0.51305856984E+01 -0.67295149026E+01  0.83800107814E+02  0.19151518830E+03  0.17200000000E+03 0.  1.
<mgrwt>
<rscale>  2 0.17220804E+03</rscale>
<asrwt>0</asrwt>
<pdfrwt beam="1">  1       21 0.44997268E-01 0.17220804E+03</pdfrwt>
<pdfrwt beam="2">  1       21 0.57249250E-01 0.17220804E+03</pdfrwt>
<totfact> 0.13761723E+04</totfact>
</mgrwt>
</event>
<event>
 4    1  0.1086582E+000  0.2320086E+03  0.7546771E-02  0.1125234E+00
         21   -1    0    0  501  502  0.00000000000E+00  0.00000000000E+00  0.81555131432E+02  0.81555131432E+02  0.00000000000E+00 0.  1.
         21   -1    0    0  502  503 -0.00000000000E+00 -0.00000000000E+00 -0.13099281825E+04  0.13099281825E+04  0.00000000000E+00 0. -1.
          6    1    1    2  501    0 -0.11581527451E+03 -0.10407118777E+03 -0.12412525571E+03  0.26312557655E+03  0.17200000000E+03 0.  1.
         -6    1    1    2    0  503  0.11581527451E+03  0.10407118777E+03 -0.11042477953E+04  0.11283577374E+04  0.17200000000E+03 0. -1.
<mgrwt>
<rscale>  2 0.23200860E+03</rscale>
<asrwt>0</asrwt>
<pdfrwt beam="1">  1       21 0.20388783E-01 0.23200860E+03</pdfrwt>
<pdfrwt beam="2">  1       21 0.32748204E+00 0.23200860E+03</pdfrwt>
<totfact> 0.49952708E+02</totfact>
</mgrwt>
</event>
<event>
 4    1  0.1086582E+000  0.2018143E+03  0.7546771E-02  0.1148217E+00
         21   -1    0    0  503  502  0.00000000000E+00  0.00000000000E+00  0.54892221285E+03  0.54892221285E+03  0.00000000000E+00 0. -1.
         21   -1    0    0  501  503 -0.00000000000E+00 -0.00000000000E+00 -0.12597125334E+03  0.12597125334E+03  0.00000000000E+00 0.  1.
          6    1    1    2  501    0  0.40962557384E+02 -0.97298897360E+02 -0.48569602740E+01  0.20187272376E+03  0.17200000000E+03 0.  1.
         -6    1    1    2    0  502 -0.40962557384E+02  0.97298897360E+02  0.42780791979E+03  0.47302074243E+03  0.17200000000E+03 0. -1.
<mgrwt>
<rscale>  2 0.20181429E+03</rscale>
<asrwt>0</asrwt>
<pdfrwt beam="1">  1       21 0.13723055E+00 0.20181429E+03</pdfrwt>
<pdfrwt beam="2">  1       21 0.31492815E-01 0.20181429E+03</pdfrwt>
<totfact> 0.36223644E+03</totfact>
</mgrwt>
</event>
<event>
 4    1  0.1086582E+000  0.2342447E+03  0.7546771E-02  0.1123687E+00
         21   -1    0    0  503  502  0.00000000000E+00  0.00000000000E+00  0.18932985267E+03  0.18932985267E+03  0.00000000000E+00 0. -1.
         21   -1    0    0  501  503 -0.00000000000E+00 -0.00000000000E+00 -0.29413795344E+03  0.29413795344E+03  0.00000000000E+00 0. -1.
          6    1    1    2  501    0  0.75595216363E+02 -0.13989976045E+03 -0.81710687285E+02  0.24808711399E+03  0.17200000000E+03 0. -1.
         -6    1    1    2    0  502 -0.75595216363E+02  0.13989976045E+03 -0.23097413488E+02  0.23538069212E+03  0.17200000000E+03 0. -1.
<mgrwt>
<rscale>  2 0.23424470E+03</rscale>
<asrwt>0</asrwt>
<pdfrwt beam="1">  1       21 0.47332463E-01 0.23424470E+03</pdfrwt>
<pdfrwt beam="2">  1       21 0.73534488E-01 0.23424470E+03</pdfrwt>
<totfact> 0.68927579E+03</totfact>
</mgrwt>
</event>
<event>
 4    1  0.1086582E+000  0.1773076E+03  0.7546771E-02  0.1170435E+00
         21   -1    0    0  501  502  0.00000000000E+00  0.00000000000E+00  0.37050588424E+03  0.37050588424E+03  0.00000000000E+00 0.  1.
         21   -1    0    0  502  503 -0.00000000000E+00 -0.00000000000E+00 -0.10895800975E+03  0.10895800975E+03  0.00000000000E+00 0.  1.
          6    1    1    2  501    0 -0.58514765779E+00  0.43053765501E+02  0.24353619555E+03  0.30124383423E+03  0.17200000000E+03 0.  1.
         -6    1    1    2    0  503  0.58514765779E+00 -0.43053765501E+02  0.18011678943E+02  0.17822005976E+03  0.17200000000E+03 0.  1.
<mgrwt>
<rscale>  2 0.17730756E+03</rscale>
<asrwt>0</asrwt>
<pdfrwt beam="1">  1       21 0.92626468E-01 0.17730756E+03</pdfrwt>
<pdfrwt beam="2">  1       21 0.27239503E-01 0.17730756E+03</pdfrwt>
<totfact> 0.12758816E+04</totfact>
</mgrwt>
</event>
<event>
 4    1  0.1086582E+000  0.1795411E+03  0.7546771E-02  0.1168248E+00
         21   -1    0    0  501  502  0.00000000000E+00  0.00000000000E+00  0.13088655171E+03  0.13088655171E+03  0.00000000000E+00 0. -1.
         21   -1    0    0  502  503 -0.00000000000E+00 -0.00000000000E+00 -0.49133955265E+03  0.49133955265E+03  0.00000000000E+00 0. -1.
          6    1    1    2  501    0  0.11510185567E+02 -0.50184749873E+02  0.39489391412E+02  0.18383254751E+03  0.17200000000E+03 0. -1.
         -6    1    1    2    0  503 -0.11510185567E+02  0.50184749873E+02 -0.39994239235E+03  0.43839355685E+03  0.17200000000E+03 0. -1.
<mgrwt>
<rscale>  2 0.17954106E+03</rscale>
<asrwt>0</asrwt>
<pdfrwt beam="1">  1       21 0.32721638E-01 0.17954106E+03</pdfrwt>
<pdfrwt beam="2">  1       21 0.12283489E+00 0.17954106E+03</pdfrwt>
<totfact> 0.45290664E+03</totfact>
</mgrwt>
</event>
<event>
 4    1  0.1086582E+000  0.1844151E+03  0.7546771E-02  0.1163597E+00
         21   -1    0    0  501  502  0.00000000000E+00  0.00000000000E+00  0.17121504029E+03  0.17121504029E+03  0.00000000000E+00 0.  1.
         21   -1    0    0  502  503 -0.00000000000E+00 -0.00000000000E+00 -0.22732570324E+03  0.22732570324E+03  0.00000000000E+00 0. -1.
          6    1    1    2  501    0  0.23382674298E+02 -0.62275019146E+02  0.42740143932E+02  0.18930305695E+03  0.17200000000E+03 0.  1.
         -6    1    1    2    0  503 -0.23382674298E+02  0.62275019146E+02 -0.98850806883E+02  0.20923768659E+03  0.17200000000E+03 0. -1.
<mgrwt>
<rscale>  2 0.18441510E+03</rscale>
<asrwt>0</asrwt>
<pdfrwt beam="1">  1       21 0.42803760E-01 0.18441510E+03</pdfrwt>
<pdfrwt beam="2">  1       21 0.56831426E-01 0.18441510E+03</pdfrwt>
<totfact> 0.15354697E+04</totfact>
</mgrwt>
</event>
<event>
 4    1  0.1086582E+000  0.2588975E+03  0.7546771E-02  0.1107807E+00
         21   -1    0    0  501  502  0.00000000000E+00  0.00000000000E+00  0.20010178297E+03  0.20010178297E+03  0.00000000000E+00 0. -1.
         21   -1    0    0  502  503 -0.00000000000E+00 -0.00000000000E+00 -0.38080833580E+03  0.38080833580E+03  0.00000000000E+00 0.  1.
          6    1    1    2  501    0 -0.19227299080E+03 -0.21794782924E+02  0.10419766757E+02  0.25910709580E+03  0.17200000000E+03 0. -1.
         -6    1    1    2    0  503  0.19227299080E+03  0.21794782924E+02 -0.19112631959E+03  0.32180302297E+03  0.17200000000E+03 0.  1.
<mgrwt>
<rscale>  2 0.25889750E+03</rscale>
<asrwt>0</asrwt>
<pdfrwt beam="1">  1       21 0.50025446E-01 0.25889750E+03</pdfrwt>
<pdfrwt beam="2">  1       21 0.95202083E-01 0.25889750E+03</pdfrwt>
<totfact> 0.33404904E+03</totfact>
</mgrwt>
</event>
<event>
 4    1  0.1086582E+000  0.1892535E+03  0.7546771E-02  0.1159136E+00
         21   -1    0    0  501  502  0.00000000000E+00  0.00000000000E+00  0.35096296769E+02  0.35096296769E+02  0.00000000000E+00 0.  1.
         21   -1    0    0  502  503 -0.00000000000E+00 -0.00000000000E+00 -0.11330822218E+04  0.11330822218E+04  0.00000000000E+00 0.  1.
          6    1    1    2  501    0  0.10257116456E+02  0.78279537370E+02 -0.73307934309E+03  0.75711440197E+03  0.17200000000E+03 0.  1.
         -6    1    1    2    0  503 -0.10257116456E+02 -0.78279537370E+02 -0.36490658194E+03  0.41106411660E+03  0.17200000000E+03 0.  1.
<mgrwt>
<rscale>  2 0.18925352E+03</rscale>
<asrwt>0</asrwt>
<pdfrwt beam="1">  1       21 0.87740740E-02 0.18925352E+03</pdfrwt>
<pdfrwt beam="2">  1       21 0.28327056E+00 0.18925352E+03</pdfrwt>
<totfact> 0.43690363E+03</totfact>
</mgrwt>
</event>
<event>
 4    1  0.1086582E+000  0.2173518E+03  0.7546771E-02  0.1135873E+00
         21   -1    0    0  503  502  0.00000000000E+00  0.00000000000E+00  0.34151887771E+03  0.34151887771E+03  0.00000000000E+00 0. -1.
         21   -1    0    0  501  503 -0.00000000000E+00 -0.00000000000E+00 -0.24037715809E+03  0.24037715809E+03  0.00000000000E+00 0.  1.
          6    1    1    2  501    0 -0.13388188305E+02 -0.13220652133E+03 -0.13900034399E+03  0.25799787498E+03  0.17200000000E+03 0. -1.
         -6    1    1    2    0  502  0.13388188305E+02  0.13220652133E+03  0.24014206361E+03  0.32389816082E+03  0.17200000000E+03 0. -1.
<mgrwt>
<rscale>  2 0.21735181E+03</rscale>
<asrwt>0</asrwt>
<pdfrwt beam="1">  1       21 0.85379719E-01 0.21735181E+03</pdfrwt>
<pdfrwt beam="2">  1       21 0.60094290E-01 0.21735181E+03</pdfrwt>
<totfact> 0.30014098E+03</totfact>
</mgrwt>
</event>
<event>
 4    1  0.1086582E+000  0.1866907E+03  0.7546771E-02  0.1161480E+00
         21   -1    0    0  501  502  0.00000000000E+00  0.00000000000E+00  0.57256333685E+03  0.57256333685E+03  0.00000000000E+00 0. -1.
         21   -1    0    0  502  503 -0.00000000000E+00 -0.00000000000E+00 -0.96034478592E+02  0.96034478592E+02  0.00000000000E+00 0. -1.
          6    1    1    2  501    0  0.41638006676E+02 -0.59461854725E+02  0.44054642039E+03  0.47847109033E+03  0.17200000000E+03 0. -1.
         -6    1    1    2    0  503 -0.41638006676E+02  0.59461854725E+02  0.35982437875E+02  0.19012672511E+03  0.17200000000E+03 0. -1.
<mgrwt>
<rscale>  2 0.18669075E+03</rscale>
<asrwt>0</asrwt>
<pdfrwt beam="1">  1       21 0.14314082E+00 0.18669075E+03</pdfrwt>
<pdfrwt beam="2">  1       21 0.24008621E-01 0.18669075E+03</pdfrwt>
<totfact> 0.55544326E+03</totfact>
</mgrwt>
</event>
<event>
 4    1  0.1086582E+000  0.1896473E+03  0.7546771E-02  0.1158780E+00
         21   -1    0    0  501  502  0.00000000000E+00  0.00000000000E+00  0.38408925256E+03  0.38408925256E+03  0.00000000000E+00 0. -1.
         21   -1    0    0  502  503 -0.00000000000E+00 -0.00000000000E+00 -0.97935219048E+02  0.97935219048E+02  0.00000000000E+00 0. -1.
          6    1    1    2  501    0  0.69928063515E+02  0.38628643971E+02  0.92603472494E+02  0.21104859469E+03  0.17200000000E+03 0. -1.
         -6    1    1    2    0  503 -0.69928063515E+02 -0.38628643971E+02  0.19355056102E+03  0.27097587692E+03  0.17200000000E+03 0. -1.
<mgrwt>
<rscale>  2 0.18964732E+03</rscale>
<asrwt>0</asrwt>
<pdfrwt beam="1">  1       21 0.96022309E-01 0.18964732E+03</pdfrwt>
<pdfrwt beam="2">  1       21 0.24483806E-01 0.18964732E+03</pdfrwt>
<totfact> 0.14267250E+04</totfact>
</mgrwt>
</event>
<event>
 4    1  0.1086582E+000  0.2487259E+03  0.7546771E-02  0.1114113E+00
         21   -1    0    0  501  502  0.00000000000E+00  0.00000000000E+00  0.13029575063E+04  0.13029575063E+04  0.00000000000E+00 0. -1.
         21   -1    0    0  502  503 -0.00000000000E+00 -0.00000000000E+00 -0.55922289591E+02  0.55922289591E+02  0.00000000000E+00 0.  1.
          6    1    1    2  501    0  0.13450585448E+03  0.11911656660E+03  0.88750644308E+03  0.92170074745E+03  0.17200000000E+03 0. -1.
         -6    1    1    2    0  503 -0.13450585448E+03 -0.11911656660E+03  0.35952877358E+03  0.43717904840E+03  0.17200000000E+03 0.  1.
<mgrwt>
<rscale>  2 0.24872592E+03</rscale>
<asrwt>0</asrwt>
<pdfrwt beam="1">  1       21 0.32573928E+00 0.24872592E+03</pdfrwt>
<pdfrwt beam="2">  1       21 0.13980577E-01 0.24872592E+03</pdfrwt>
<totfact> 0.10081020E+03</totfact>
</mgrwt>
</event>
<event>
 4    1  0.1086582E+000  0.1934184E+03  0.7546771E-02  0.1155414E+00
         21   -1    0    0  501  502  0.00000000000E+00  0.00000000000E+00  0.58724366346E+03  0.58724366346E+03  0.00000000000E+00 0.  1.
         21   -1    0    0  502  503 -0.00000000000E+00 -0.00000000000E+00 -0.64737279256E+02  0.64737279256E+02  0.00000000000E+00 0.  1.
          6    1    1    2  501    0  0.88148825199E+02  0.75143179570E+01  0.30240705736E+03  0.35897173802E+03  0.17200000000E+03 0.  1.
         -6    1    1    2    0  503 -0.88148825199E+02 -0.75143179570E+01  0.22009932685E+03  0.29300920470E+03  0.17200000000E+03 0.  1.
<mgrwt>
<rscale>  2 0.19341841E+03</rscale>
<asrwt>0</asrwt>
<pdfrwt beam="1">  1       21 0.14681090E+00 0.19341841E+03</pdfrwt>
<pdfrwt beam="2">  1       21 0.16184322E-01 0.19341841E+03</pdfrwt>
<totfact> 0.10792336E+04</totfact>
</mgrwt>
</event>
<event>
 4    1  0.1086582E+000  0.2421594E+03  0.7546771E-02  0.1118363E+00
         21   -1    0    0  501  502  0.00000000000E+00  0.00000000000E+00  0.14893453649E+03  0.14893453649E+03  0.00000000000E+00 0.  1.
         21   -1    0    0  502  503 -0.00000000000E+00 -0.00000000000E+00 -0.39391985909E+03  0.39391985909E+03  0.00000000000E+00 0.  1.
          6    1    1    2  501    0 -0.26816569836E+02 -0.16833907220E+03 -0.12832625581E+03  0.27405984670E+03  0.17200000000E+03 0.  1.
         -6    1    1    2    0  503  0.26816569836E+02  0.16833907220E+03 -0.11665906679E+03  0.26879454889E+03  0.17200000000E+03 0.  1.
<mgrwt>
<rscale>  2 0.24215939E+03</rscale>
<asrwt>0</asrwt>
<pdfrwt beam="1">  1       21 0.37233634E-01 0.24215939E+03</pdfrwt>
<pdfrwt beam="2">  1       21 0.98479964E-01 0.24215939E+03</pdfrwt>
<totfact> 0.57171784E+03</totfact>
</mgrwt>
</event>
<event>
 4    1  0.1086582E+000  0.2363176E+03  0.7546771E-02  0.1122271E+00
         21   -1    0    0  501  502  0.00000000000E+00  0.00000000000E+00  0.12808903367E+04  0.12808903367E+04  0.00000000000E+00 0. -1.
         21   -1    0    0  502  503 -0.00000000000E+00 -0.00000000000E+00 -0.73132115208E+02  0.73132115208E+02  0.00000000000E+00 0. -1.
          6    1    1    2  501    0  0.86431030160E+02  0.13708279562E+03  0.10341021742E+04  0.10607607282E+04  0.17200000000E+03 0. -1.
         -6    1    1    2    0  503 -0.86431030160E+02 -0.13708279562E+03  0.17365604731E+03  0.29326172371E+03  0.17200000000E+03 0. -1.
<mgrwt>
<rscale>  2 0.23631762E+03</rscale>
<asrwt>0</asrwt>
<pdfrwt beam="1">  1       21 0.32022251E+00 0.23631762E+03</pdfrwt>
<pdfrwt beam="2">  1       21 0.18283033E-01 0.23631762E+03</pdfrwt>
<totfact> 0.67205843E+02</totfact>
</mgrwt>
</event>
<event>
 4    1  0.1086582E+000  0.2080059E+03  0.7546771E-02  0.1143155E+00
         21   -1    0    0  501  502  0.00000000000E+00  0.00000000000E+00  0.60025676271E+03  0.60025676271E+03  0.00000000000E+00 0. -1.
         21   -1    0    0  502  503 -0.00000000000E+00 -0.00000000000E+00 -0.79578140664E+02  0.79578140664E+02  0.00000000000E+00 0. -1.
          6    1    1    2  501    0 -0.11697209379E+03  0.45999648603E-02  0.36468034382E+03  0.41983118503E+03  0.17200000000E+03 0.  1.
         -6    1    1    2    0  503  0.11697209379E+03 -0.45999648603E-02  0.15599827822E+03  0.26000371835E+03  0.17200000000E+03 0.  1.
<mgrwt>
<rscale>  2 0.20800594E+03</rscale>
<asrwt>0</asrwt>
<pdfrwt beam="1">  1       21 0.15006418E+00 0.20800594E+03</pdfrwt>
<pdfrwt beam="2">  1       21 0.19894537E-01 0.20800594E+03</pdfrwt>
<totfact> 0.68759849E+03</totfact>
</mgrwt>
</event>
<event>
 4    1  0.1086582E+000  0.1773513E+03  0.7546771E-02  0.1170391E+00
         21   -1    0    0  503  502  0.00000000000E+00  0.00000000000E+00  0.66204506026E+02  0.66204506026E+02  0.00000000000E+00 0. -1.
         21   -1    0    0  501  503 -0.00000000000E+00 -0.00000000000E+00 -0.86559107377E+03  0.86559107377E+03  0.00000000000E+00 0. -1.
          6    1    1    2  501    0  0.43029129529E+02  0.42407914118E+01 -0.86766963609E+02  0.19743858861E+03  0.17200000000E+03 0. -1.
         -6    1    1    2    0  502 -0.43029129529E+02 -0.42407914118E+01 -0.71261960413E+03  0.73435699118E+03  0.17200000000E+03 0. -1.
<mgrwt>
<rscale>  2 0.17735132E+03</rscale>
<asrwt>0</asrwt>
<pdfrwt beam="1">  1       21 0.16551127E-01 0.17735132E+03</pdfrwt>
<pdfrwt beam="2">  1       21 0.21639776E+00 0.17735132E+03</pdfrwt>
<totfact> 0.35248694E+03</totfact>
</mgrwt>
</event>
<event>
 4    1  0.1086582E+000  0.1810076E+03  0.7546771E-02  0.1166831E+00
         21   -1    0    0  503  502  0.00000000000E+00  0.00000000000E+00  0.21712893635E+03  0.21712893635E+03  0.00000000000E+00 0. -1.
         21   -1    0    0  501  503 -0.00000000000E+00 -0.00000000000E+00 -0.24298045123E+03  0.24298045123E+03  0.00000000000E+00 0. -1.
          6    1    1    2  501    0 -0.23944764034E+02  0.51052938070E+02 -0.15455079446E+03  0.23801197927E+03  0.17200000000E+03 0. -1.
         -6    1    1    2    0  502  0.23944764034E+02 -0.51052938070E+02  0.12869927958E+03  0.22209740830E+03  0.17200000000E+03 0. -1.
<mgrwt>
<rscale>  2 0.18100761E+03</rscale>
<asrwt>0</asrwt>
<pdfrwt beam="1">  1       21 0.54282234E-01 0.18100761E+03</pdfrwt>
<pdfrwt beam="2">  1       21 0.60745113E-01 0.18100761E+03</pdfrwt>
<totfact> 0.81606131E+03</totfact>
</mgrwt>
</event>
<event>
 4    1  0.1086582E+000  0.1885990E+03  0.7546771E-02  0.1159731E+00
         21   -1    0    0  501  502  0.00000000000E+00  0.00000000000E+00  0.27625079472E+03  0.27625079472E+03  0.00000000000E+00 0.  1.
         21   -1    0    0  502  503 -0.00000000000E+00 -0.00000000000E+00 -0.13791146319E+03  0.13791146319E+03  0.00000000000E+00 0. -1.
          6    1    1    2  501    0  0.82020706120E+00  0.77362129324E+02  0.12251873913E+03  0.22490089647E+03  0.17200000000E+03 0.  1.
         -6    1    1    2    0  503 -0.82020706120E+00 -0.77362129324E+02  0.15820592393E+02  0.18926136145E+03  0.17200000000E+03 0. -1.
<mgrwt>
<rscale>  2 0.18859897E+03</rscale>
<asrwt>0</asrwt>
<pdfrwt beam="1">  1       21 0.69062698E-01 0.18859897E+03</pdfrwt>
<pdfrwt beam="2">  1       21 0.34477866E-01 0.18859897E+03</pdfrwt>
<totfact> 0.15514764E+04</totfact>
</mgrwt>
</event>
<event>
 4    1  0.1086582E+000  0.2336277E+03  0.7546771E-02  0.1124112E+00
         21   -1    0    0  501  502  0.00000000000E+00  0.00000000000E+00  0.64245685515E+03  0.64245685515E+03  0.00000000000E+00 0. -1.
         21   -1    0    0  502  503 -0.00000000000E+00 -0.00000000000E+00 -0.95054431884E+02  0.95054431884E+02  0.00000000000E+00 0.  1.
          6    1    1    2  501    0  0.15133614410E+03  0.45774298274E+02  0.39388178205E+03  0.45795717390E+03  0.17200000000E+03 0. -1.
         -6    1    1    2    0  503 -0.15133614410E+03 -0.45774298274E+02  0.15352064122E+03  0.27955411314E+03  0.17200000000E+03 0.  1.
<mgrwt>
<rscale>  2 0.23362773E+03</rscale>
<asrwt>0</asrwt>
<pdfrwt beam="1">  1       21 0.16061420E+00 0.23362773E+03</pdfrwt>
<pdfrwt beam="2">  1       21 0.23763610E-01 0.23362773E+03</pdfrwt>
<totfact> 0.40173815E+03</totfact>
</mgrwt>
</event>
<event>
 4    1  0.1086582E+000  0.2056284E+03  0.7546771E-02  0.1145075E+00
         21   -1    0    0  503  502  0.00000000000E+00  0.00000000000E+00  0.33334545891E+02  0.33334545891E+02  0.00000000000E+00 0.  1.
         21   -1    0    0  501  503 -0.00000000000E+00 -0.00000000000E+00 -0.12740129334E+04  0.12740129334E+04  0.00000000000E+00 0. -1.
          6    1    1    2  501    0 -0.11265694525E+03 -0.27300207680E+01 -0.57712578868E+03  0.61266403215E+03  0.17200000000E+03 0. -1.
         -6    1    1    2    0  502  0.11265694525E+03  0.27300207680E+01 -0.66355259887E+03  0.69468344719E+03  0.17200000000E+03 0. -1.
<mgrwt>
<rscale>  2 0.20562840E+03</rscale>
<asrwt>0</asrwt>
<pdfrwt beam="1">  1       21 0.83336371E-02 0.20562840E+03</pdfrwt>
<pdfrwt beam="2">  1       21 0.31850321E+00 0.20562840E+03</pdfrwt>
<totfact> 0.29366706E+03</totfact>
</mgrwt>
</event>
<event>
 4    1  0.1086582E+000  0.1761806E+03  0.7546771E-02  0.1171551E+00
         21   -1    0    0  503  502  0.00000000000E+00  0.00000000000E+00  0.18580453027E+03  0.18580453027E+03  0.00000000000E+00 0. -1.
         21   -1    0    0  501  503 -0.00000000000E+00 -0.00000000000E+00 -0.23608025214E+03  0.23608025214E+03  0.00000000000E+00 0. -1.
          6    1    1    2  501    0 -0.28881108745E+02 -0.24929803662E+02 -0.13919891911E+03  0.22453496974E+03  0.17200000000E+03 0. -1.
         -6    1    1    2    0  502  0.28881108745E+02  0.24929803662E+02  0.88923197244E+02  0.19734981267E+03  0.17200000000E+03 0. -1.
<mgrwt>
<rscale>  2 0.17618063E+03</rscale>
<asrwt>0</asrwt>
<pdfrwt beam="1">  1       21 0.46451133E-01 0.17618063E+03</pdfrwt>
<pdfrwt beam="2">  1       21 0.59020063E-01 0.17618063E+03</pdfrwt>
<totfact> 0.12048611E+04</totfact>
</mgrwt>
</event>
<event>
 4    1  0.1086582E+000  0.2373823E+03  0.7546771E-02  0.1121549E+00
         21   -1    0    0  501  502  0.00000000000E+00  0.00000000000E+00  0.25858531013E+03  0.25858531013E+03  0.00000000000E+00 0. -1.
         21   -1    0    0  502  503 -0.00000000000E+00 -0.00000000000E+00 -0.30617203972E+03  0.30617203972E+03  0.00000000000E+00 0.  1.
          6    1    1    2  501    0 -0.12966275292E+02  0.16308960187E+03  0.12781281874E+03  0.26960426400E+03  0.17200000000E+03 0. -1.
         -6    1    1    2    0  503  0.12966275292E+02 -0.16308960187E+03 -0.17539954833E+03  0.29515308585E+03  0.17200000000E+03 0.  1.
<mgrwt>
<rscale>  2 0.23738227E+03</rscale>
<asrwt>0</asrwt>
<pdfrwt beam="1">  1       21 0.64646328E-01 0.23738227E+03</pdfrwt>
<pdfrwt beam="2">  1       21 0.76543009E-01 0.23738227E+03</pdfrwt>
<totfact> 0.32360769E+03</totfact>
</mgrwt>
</event>
<event>
 4    1  0.1086582E+000  0.2385920E+03  0.7546771E-02  0.1120734E+00
         21   -1    0    0  501  502  0.00000000000E+00  0.00000000000E+00  0.32050091993E+03  0.32050091993E+03  0.00000000000E+00 0. -1.
         21   -1    0    0  502  503 -0.00000000000E+00 -0.00000000000E+00 -0.20143171110E+03  0.20143171110E+03  0.00000000000E+00 0.  1.
          6    1    1    2  501    0  0.15071987553E+03 -0.68012188739E+02 -0.30198142790E+02  0.24049546050E+03  0.17200000000E+03 0.  1.
         -6    1    1    2    0  503 -0.15071987553E+03  0.68012188739E+02  0.14926735162E+03  0.28143717053E+03  0.17200000000E+03 0. -1.
<mgrwt>
<rscale>  2 0.23859199E+03</rscale>
<asrwt>0</asrwt>
<pdfrwt beam="1">  1       21 0.80125229E-01 0.23859199E+03</pdfrwt>
<pdfrwt beam="2">  1       21 0.50357928E-01 0.23859199E+03</pdfrwt>
<totfact> 0.49766884E+03</totfact>
</mgrwt>
</event>
<event>
 4    1  0.1086582E+000  0.3187907E+03  0.7546771E-02  0.1076207E+00
         21   -1    0    0  501  502  0.00000000000E+00  0.00000000000E+00  0.12347215037E+04  0.12347215037E+04  0.00000000000E+00 0.  1.
         21   -1    0    0  502  503 -0.00000000000E+00 -0.00000000000E+00 -0.12528817663E+03  0.12528817663E+03  0.00000000000E+00 0.  1.
          6    1    1    2  501    0 -0.21746210395E+02 -0.26752680120E+03  0.95299889972E+03  0.10049051646E+04  0.17200000000E+03 0.  1.
         -6    1    1    2    0  503  0.21746210395E+02  0.26752680120E+03  0.15643442738E+03  0.35510451574E+03  0.17200000000E+03 0.  1.
<mgrwt>
<rscale>  2 0.31879066E+03</rscale>
<asrwt>0</asrwt>
<pdfrwt beam="1">  1       21 0.30868034E+00 0.31879066E+03</pdfrwt>
<pdfrwt beam="2">  1       21 0.31322048E-01 0.31879066E+03</pdfrwt>
<totfact> 0.25719004E+02</totfact>
</mgrwt>
</event>
<event>
 4    1  0.1086582E+000  0.1805599E+03  0.7546771E-02  0.1167262E+00
         21   -1    0    0  503  502  0.00000000000E+00  0.00000000000E+00  0.17425488386E+03  0.17425488386E+03  0.00000000000E+00 0. -1.
         21   -1    0    0  501  503 -0.00000000000E+00 -0.00000000000E+00 -0.21285070825E+03  0.21285070825E+03  0.00000000000E+00 0. -1.
          6    1    1    2  501    0  0.52807973472E+02  0.15139142279E+02 -0.86628930879E+02  0.20026594158E+03  0.17200000000E+03 0. -1.
         -6    1    1    2    0  502 -0.52807973472E+02 -0.15139142279E+02  0.48033106488E+02  0.18683965053E+03  0.17200000000E+03 0. -1.
<mgrwt>
<rscale>  2 0.18055990E+03</rscale>
<asrwt>0</asrwt>
<pdfrwt beam="1">  1       21 0.43563721E-01 0.18055990E+03</pdfrwt>
<pdfrwt beam="2">  1       21 0.53212677E-01 0.18055990E+03</pdfrwt>
<totfact> 0.17063986E+04</totfact>
</mgrwt>
</event>
<event>
 4    1  0.1086582E+000  0.2789075E+03  0.7546771E-02  0.1096287E+00
         21   -1    0    0  501  502  0.00000000000E+00  0.00000000000E+00  0.16065540134E+03  0.16065540134E+03  0.00000000000E+00 0. -1.
         21   -1    0    0  502  503 -0.00000000000E+00 -0.00000000000E+00 -0.18059098929E+04  0.18059098929E+04  0.00000000000E+00 0. -1.
          6    1    1    2  501    0  0.72713233398E+02 -0.20716704713E+03  0.18570985759E+02  0.27952509948E+03  0.17200000000E+03 0. -1.
         -6    1    1    2    0  503 -0.72713233398E+02  0.20716704713E+03 -0.16638254773E+04  0.16870401947E+04  0.17200000000E+03 0. -1.
<mgrwt>
<rscale>  2 0.27890751E+03</rscale>
<asrwt>0</asrwt>
<pdfrwt beam="1">  1       21 0.40163851E-01 0.27890751E+03</pdfrwt>
<pdfrwt beam="2">  1       21 0.45147746E+00 0.27890751E+03</pdfrwt>
<totfact> 0.21013945E+01</totfact>
</mgrwt>
</event>
<event>
 4    1  0.1086582E+000  0.1954645E+03  0.7546771E-02  0.1153623E+00
         21   -1    0    0  503  502  0.00000000000E+00  0.00000000000E+00  0.48697900702E+02  0.48697900702E+02  0.00000000000E+00 0.  1.
         21   -1    0    0  501  503 -0.00000000000E+00 -0.00000000000E+00 -0.12919466802E+04  0.12919466802E+04  0.00000000000E+00 0. -1.
          6    1    1    2  501    0 -0.52741746818E+02 -0.76424417071E+02 -0.10417036716E+04  0.10598834477E+04  0.17200000000E+03 0. -1.
         -6    1    1    2    0  502  0.52741746818E+02  0.76424417071E+02 -0.20154510795E+03  0.28076113321E+03  0.17200000000E+03 0.  1.
<mgrwt>
<rscale>  2 0.19546453E+03</rscale>
<asrwt>0</asrwt>
<pdfrwt beam="1">  1       21 0.12174475E-01 0.19546453E+03</pdfrwt>
<pdfrwt beam="2">  1       21 0.32298668E+00 0.19546453E+03</pdfrwt>
<totfact> 0.14327719E+03</totfact>
</mgrwt>
</event>
<event>
 4    1  0.1086582E+000  0.2121064E+03  0.7546771E-02  0.1139909E+00
         21   -1    0    0  501  502  0.00000000000E+00  0.00000000000E+00  0.72030067110E+02  0.72030067110E+02  0.00000000000E+00 0.  1.
         21   -1    0    0  502  503 -0.00000000000E+00 -0.00000000000E+00 -0.64199015531E+03  0.64199015531E+03  0.00000000000E+00 0.  1.
          6    1    1    2  501    0  0.11772580010E+03 -0.39316179929E+02 -0.22620187681E+03  0.31009097872E+03  0.17200000000E+03 0.  1.
         -6    1    1    2    0  503 -0.11772580010E+03  0.39316179929E+02 -0.34375821139E+03  0.40392924370E+03  0.17200000000E+03 0.  1.
<mgrwt>
<rscale>  2 0.21210640E+03</rscale>
<asrwt>0</asrwt>
<pdfrwt beam="1">  1       21 0.18007517E-01 0.21210640E+03</pdfrwt>
<pdfrwt beam="2">  1       21 0.16049754E+00 0.21210640E+03</pdfrwt>
<totfact> 0.68939835E+03</totfact>
</mgrwt>
</event>
<event>
 4    1  0.1086582E+000  0.2004774E+03  0.7546771E-02  0.1149337E+00
         21   -1    0    0  501  502  0.00000000000E+00  0.00000000000E+00  0.28765476336E+03  0.28765476336E+03  0.00000000000E+00 0. -1.
         21   -1    0    0  502  503 -0.00000000000E+00 -0.00000000000E+00 -0.57995173355E+03  0.57995173355E+03  0.00000000000E+00 0. -1.
          6    1    1    2  501    0  0.40381890986E+02 -0.94744354669E+02  0.23180419828E+03  0.30647084071E+03  0.17200000000E+03 0. -1.
         -6    1    1    2    0  503 -0.40381890986E+02  0.94744354669E+02 -0.52410116848E+03  0.56113565620E+03  0.17200000000E+03 0. -1.
<mgrwt>
<rscale>  2 0.20047740E+03</rscale>
<asrwt>0</asrwt>
<pdfrwt beam="1">  1       21 0.71913691E-01 0.20047740E+03</pdfrwt>
<pdfrwt beam="2">  1       21 0.14498793E+00 0.20047740E+03</pdfrwt>
<totfact> 0.56545251E+02</totfact>
</mgrwt>
</event>
<event>
 4    1  0.1086582E+000  0.2220555E+03  0.7546771E-02  0.1132360E+00
         21   -1    0    0  503  502  0.00000000000E+00  0.00000000000E+00  0.24528197011E+03  0.24528197011E+03  0.00000000000E+00 0.  1.
         21   -1    0    0  501  503 -0.00000000000E+00 -0.00000000000E+00 -0.21390474408E+03  0.21390474408E+03  0.00000000000E+00 0.  1.
          6    1    1    2  501    0 -0.44840509255E+02  0.13309388369E+03 -0.40642019842E+02  0.22574416255E+03  0.17200000000E+03 0.  1.
         -6    1    1    2    0  502  0.44840509255E+02 -0.13309388369E+03  0.72019245872E+02  0.23344255165E+03  0.17200000000E+03 0.  1.
<mgrwt>
<rscale>  2 0.22205552E+03</rscale>
<asrwt>0</asrwt>
<pdfrwt beam="1">  1       21 0.61320492E-01 0.22205552E+03</pdfrwt>
<pdfrwt beam="2">  1       21 0.53476186E-01 0.22205552E+03</pdfrwt>
<totfact> 0.80195021E+03</totfact>
</mgrwt>
</event>
<event>
 4    1  0.1086582E+000  0.1730227E+03  0.7546771E-02  0.1174732E+00
         21   -1    0    0  503  502  0.00000000000E+00  0.00000000000E+00  0.22062570011E+03  0.22062570011E+03  0.00000000000E+00 0.  1.
         21   -1    0    0  501  503 -0.00000000000E+00 -0.00000000000E+00 -0.56165280254E+03  0.56165280254E+03  0.00000000000E+00 0.  1.
          6    1    1    2  501    0 -0.45399535426E+01  0.18227634462E+02 -0.51114356417E+03  0.53963376565E+03  0.17200000000E+03 0.  1.
         -6    1    1    2    0  502  0.45399535426E+01 -0.18227634462E+02  0.17011646175E+03  0.24264473700E+03  0.17200000000E+03 0.  1.
<mgrwt>
<rscale>  2 0.17302271E+03</rscale>
<asrwt>0</asrwt>
<pdfrwt beam="1">  1       21 0.55156426E-01 0.17302271E+03</pdfrwt>
<pdfrwt beam="2">  1       21 0.14041320E+00 0.17302271E+03</pdfrwt>
<totfact> 0.11243848E+03</totfact>
</mgrwt>
</event>
<event>
 4    1  0.1086582E+000  0.1731149E+03  0.7546771E-02  0.1174638E+00
         21   -1    0    0  503  502  0.00000000000E+00  0.00000000000E+00  0.22638642611E+03  0.22638642611E+03  0.00000000000E+00 0. -1.
         21   -1    0    0  501  503 -0.00000000000E+00 -0.00000000000E+00 -0.13258789709E+03  0.13258789709E+03  0.00000000000E+00 0. -1.
          6    1    1    2  501    0  0.69931451641E+01 -0.18326504128E+02  0.54026957398E+02  0.18134959873E+03  0.17200000000E+03 0.  1.
         -6    1    1    2    0  502 -0.69931451641E+01  0.18326504128E+02  0.39771571624E+02  0.17762472447E+03  0.17200000000E+03 0.  1.
<mgrwt>
<rscale>  2 0.17311489E+03</rscale>
<asrwt>0</asrwt>
<pdfrwt beam="1">  1       21 0.56596606E-01 0.17311489E+03</pdfrwt>
<pdfrwt beam="2">  1       21 0.33146975E-01 0.17311489E+03</pdfrwt>
<totfact> 0.26013776E+04</totfact>
</mgrwt>
</event>
<event>
 4    1  0.1086582E+000  0.1907871E+03  0.7546771E-02  0.1157753E+00
         21   -1    0    0  503  502  0.00000000000E+00  0.00000000000E+00  0.60315634343E+02  0.60315634343E+02  0.00000000000E+00 0. -1.
         21   -1    0    0  501  503 -0.00000000000E+00 -0.00000000000E+00 -0.10571046687E+04  0.10571046687E+04  0.00000000000E+00 0. -1.
          6    1    1    2  501    0 -0.30635590103E+02  0.76662754501E+02 -0.86438721486E+03  0.88519205516E+03  0.17200000000E+03 0. -1.
         -6    1    1    2    0  502  0.30635590103E+02 -0.76662754501E+02 -0.13240181950E+03  0.23222824789E+03  0.17200000000E+03 0. -1.
<mgrwt>
<rscale>  2 0.19078710E+03</rscale>
<asrwt>0</asrwt>
<pdfrwt beam="1">  1       21 0.15078909E-01 0.19078710E+03</pdfrwt>
<pdfrwt beam="2">  1       21 0.26427616E+00 0.19078710E+03</pdfrwt>
<totfact> 0.21368676E+03</totfact>
</mgrwt>
</event>
<event>
 4    1  0.1086582E+000  0.1805807E+03  0.7546771E-02  0.1167242E+00
         21   -1    0    0  501  502  0.00000000000E+00  0.00000000000E+00  0.18192827096E+03  0.18192827096E+03  0.00000000000E+00 0.  1.
         21   -1    0    0  502  503 -0.00000000000E+00 -0.00000000000E+00 -0.18225559423E+03  0.18225559423E+03  0.00000000000E+00 0.  1.
          6    1    1    2  501    0  0.47842471135E+01  0.54795086337E+02  0.23246914311E+02  0.18207089150E+03  0.17200000000E+03 0. -1.
         -6    1    1    2    0  503 -0.47842471135E+01 -0.54795086337E+02 -0.23574237586E+02  0.18211297369E+03  0.17200000000E+03 0. -1.
<mgrwt>
<rscale>  2 0.18058070E+03</rscale>
<asrwt>0</asrwt>
<pdfrwt beam="1">  1       21 0.45482068E-01 0.18058070E+03</pdfrwt>
<pdfrwt beam="2">  1       21 0.45563899E-01 0.18058070E+03</pdfrwt>
<totfact> 0.21564978E+04</totfact>
</mgrwt>
</event>
<event>
 4    1  0.1086582E+000  0.1748834E+03  0.7546771E-02  0.1172849E+00
         21   -1    0    0  503  502  0.00000000000E+00  0.00000000000E+00  0.15201602182E+04  0.15201602182E+04  0.00000000000E+00 0.  1.
         21   -1    0    0  501  503 -0.00000000000E+00 -0.00000000000E+00 -0.22923705499E+02  0.22923705499E+02  0.00000000000E+00 0. -1.
          6    1    1    2  501    0 -0.28794272384E+02  0.13080931240E+02  0.47874814285E+03  0.50969010700E+03  0.17200000000E+03 0. -1.
         -6    1    1    2    0  502  0.28794272384E+02 -0.13080931240E+02  0.10184883698E+04  0.10333938167E+04  0.17200000000E+03 0.  1.
<mgrwt>
<rscale>  2 0.17488345E+03</rscale>
<asrwt>0</asrwt>
<pdfrwt beam="1">  1       21 0.38003971E+00 0.17488345E+03</pdfrwt>
<pdfrwt beam="2">  1       21 0.57309315E-02 0.17488345E+03</pdfrwt>
<totfact> 0.25308338E+03</totfact>
</mgrwt>
</event>
<event>
 4    1  0.1086582E+000  0.1828300E+03  0.7546771E-02  0.1165092E+00
         21   -1    0    0  501  502  0.00000000000E+00  0.00000000000E+00  0.33898333457E+03  0.33898333457E+03  0.00000000000E+00 0.  1.
         21   -1    0    0  502  503 -0.00000000000E+00 -0.00000000000E+00 -0.10110489836E+03  0.10110489836E+03  0.00000000000E+00 0.  1.
          6    1    1    2  501    0 -0.58626270311E+02 -0.20143619862E+02  0.84366160517E+02  0.20135653461E+03  0.17200000000E+03 0.  1.
         -6    1    1    2    0  503  0.58626270311E+02  0.20143619862E+02  0.15351227569E+03  0.23873169831E+03  0.17200000000E+03 0.  1.
<mgrwt>
<rscale>  2 0.18282999E+03</rscale>
<asrwt>0</asrwt>
<pdfrwt beam="1">  1       21 0.84745831E-01 0.18282999E+03</pdfrwt>
<pdfrwt beam="2">  1       21 0.25276225E-01 0.18282999E+03</pdfrwt>
<totfact> 0.18003971E+04</totfact>
</mgrwt>
</event>
<event>
 4    1  0.1086582E+000  0.1981301E+03  0.7546771E-02  0.1151326E+00
         21   -1    0    0  503  502  0.00000000000E+00  0.00000000000E+00  0.35978584902E+03  0.35978584902E+03  0.00000000000E+00 0.  1.
         21   -1    0    0  501  503 -0.00000000000E+00 -0.00000000000E+00 -0.34372280409E+03  0.34372280409E+03  0.00000000000E+00 0.  1.
          6    1    1    2  501    0 -0.55533695449E+02 -0.81163706866E+02 -0.28258005963E+03  0.34511886176E+03  0.17200000000E+03 0.  1.
         -6    1    1    2    0  502  0.55533695449E+02  0.81163706866E+02  0.29864310456E+03  0.35838979135E+03  0.17200000000E+03 0.  1.
<mgrwt>
<rscale>  2 0.19813011E+03</rscale>
<asrwt>0</asrwt>
<pdfrwt beam="1">  1       21 0.89946462E-01 0.19813011E+03</pdfrwt>
<pdfrwt beam="2">  1       21 0.85930701E-01 0.19813011E+03</pdfrwt>
<totfact> 0.12230138E+03</totfact>
</mgrwt>
</event>
<event>
 4    1  0.1086582E+000  0.1775325E+03  0.7546771E-02  0.1170213E+00
         21   -1    0    0  503  502  0.00000000000E+00  0.00000000000E+00  0.32420217347E+03  0.32420217347E+03  0.00000000000E+00 0. -1.
         21   -1    0    0  501  503 -0.00000000000E+00 -0.00000000000E+00 -0.24083920075E+03  0.24083920075E+03  0.00000000000E+00 0. -1.
          6    1    1    2  501    0 -0.16219165502E+02  0.40874498965E+02 -0.17649014440E+03  0.25033289249E+03  0.17200000000E+03 0.  1.
         -6    1    1    2    0  502  0.16219165502E+02 -0.40874498965E+02  0.25985311711E+03  0.31470848172E+03  0.17200000000E+03 0.  1.
<mgrwt>
<rscale>  2 0.17753249E+03</rscale>
<asrwt>0</asrwt>
<pdfrwt beam="1">  1       21 0.81050543E-01 0.17753249E+03</pdfrwt>
<pdfrwt beam="2">  1       21 0.60209801E-01 0.17753249E+03</pdfrwt>
<totfact> 0.34788247E+03</totfact>
</mgrwt>
</event>
<event>
 4    1  0.1086582E+000  0.2201852E+03  0.7546771E-02  0.1133745E+00
         21   -1    0    0  501  502  0.00000000000E+00  0.00000000000E+00  0.50571429885E+03  0.50571429885E+03  0.00000000000E+00 0.  1.
         21   -1    0    0  502  503 -0.00000000000E+00 -0.00000000000E+00 -0.11321440549E+03  0.11321440549E+03  0.00000000000E+00 0.  1.
          6    1    1    2  501    0 -0.13387399381E+03  0.31229690102E+02  0.31738544444E+03  0.38628365239E+03  0.17200000000E+03 0.  1.
         -6    1    1    2    0  503  0.13387399381E+03 -0.31229690102E+02  0.75114448917E+02  0.23264505195E+03  0.17200000000E+03 0.  1.
<mgrwt>
<rscale>  2 0.22018524E+03</rscale>
<asrwt>0</asrwt>
<pdfrwt beam="1">  1       21 0.12642857E+00 0.22018524E+03</pdfrwt>
<pdfrwt beam="2">  1       21 0.28303603E-01 0.22018524E+03</pdfrwt>
<totfact> 0.54152823E+03</totfact>
</mgrwt>
</event>
<event>
 4    1  0.1086582E+000  0.2105332E+03  0.7546771E-02  0.1141144E+00
         21   -1    0    0  503  502  0.00000000000E+00  0.00000000000E+00  0.91721157617E+03  0.91721157617E+03  0.00000000000E+00 0.  1.
         21   -1    0    0  501  503 -0.00000000000E+00 -0.00000000000E+00 -0.50672687148E+02  0.50672687148E+02  0.00000000000E+00 0.  1.
          6    1    1    2  501    0  0.45747924715E+02 -0.11246041409E+03  0.32910252762E+03  0.39068234032E+03  0.17200000000E+03 0.  1.
         -6    1    1    2    0  502 -0.45747924715E+02  0.11246041409E+03  0.53743636141E+03  0.57720192300E+03  0.17200000000E+03 0.  1.
<mgrwt>
<rscale>  2 0.21053317E+03</rscale>
<asrwt>0</asrwt>
<pdfrwt beam="1">  1       21 0.22930284E+00 0.21053317E+03</pdfrwt>
<pdfrwt beam="2">  1       21 0.12668175E-01 0.21053317E+03</pdfrwt>
<totfact> 0.46214336E+03</totfact>
</mgrwt>
</event>
<event>
 4    1  0.1086582E+000  0.2070093E+03  0.7546771E-02  0.1143956E+00
         21   -1    0    0  503  502  0.00000000000E+00  0.00000000000E+00  0.98879078026E+03  0.98879078026E+03  0.00000000000E+00 0.  1.
         21   -1    0    0  501  503 -0.00000000000E+00 -0.00000000000E+00 -0.80506334807E+02  0.80506334807E+02  0.00000000000E+00 0. -1.
          6    1    1    2  501    0 -0.11518586260E+03 -0.10266820462E+01  0.90866606638E+02  0.22607427368E+03  0.17200000000E+03 0. -1.
         -6    1    1    2    0  502  0.11518586260E+03  0.10266820462E+01  0.81741783882E+03  0.84322284139E+03  0.17200000000E+03 0. -1.
<mgrwt>
<rscale>  2 0.20700927E+03</rscale>
<asrwt>0</asrwt>
<pdfrwt beam="1">  1       21 0.24719766E+00 0.20700927E+03</pdfrwt>
<pdfrwt beam="2">  1       21 0.20126587E-01 0.20700927E+03</pdfrwt>
<totfact> 0.15500152E+03</totfact>
</mgrwt>
</event>
<event>
 4    1  0.1086582E+000  0.2434440E+03  0.7546771E-02  0.1117520E+00
         21   -1    0    0  503  502  0.00000000000E+00  0.00000000000E+00  0.24316050205E+03  0.24316050205E+03  0.00000000000E+00 0. -1.
         21   -1    0    0  501  503 -0.00000000000E+00 -0.00000000000E+00 -0.29232338616E+03  0.29232338616E+03  0.00000000000E+00 0.  1.
          6    1    1    2  501    0 -0.17184749641E+03  0.12224235006E+02  0.84583372655E+02  0.25771950038E+03  0.17200000000E+03 0. -1.
         -6    1    1    2    0  502  0.17184749641E+03 -0.12224235006E+02 -0.13374625677E+03  0.27776438783E+03  0.17200000000E+03 0.  1.
<mgrwt>
<rscale>  2 0.24344403E+03</rscale>
<asrwt>0</asrwt>
<pdfrwt beam="1">  1       21 0.60790125E-01 0.24344403E+03</pdfrwt>
<pdfrwt beam="2">  1       21 0.73080847E-01 0.24344403E+03</pdfrwt>
<totfact> 0.40877403E+03</totfact>
</mgrwt>
</event>
<event>
 4    1  0.1086582E+000  0.1907590E+03  0.7546771E-02  0.1157779E+00
         21   -1    0    0  501  502  0.00000000000E+00  0.00000000000E+00  0.10688805254E+04  0.10688805254E+04  0.00000000000E+00 0.  1.
         21   -1    0    0  502  503 -0.00000000000E+00 -0.00000000000E+00 -0.58785741213E+02  0.58785741213E+02  0.00000000000E+00 0.  1.
          6    1    1    2  501    0 -0.73751426084E+02  0.36955715100E+02  0.87083541822E+03  0.89148377627E+03  0.17200000000E+03 0.  1.
         -6    1    1    2    0  503  0.73751426084E+02 -0.36955715100E+02  0.13925936593E+03  0.23618249031E+03  0.17200000000E+03 0.  1.
<mgrwt>
<rscale>  2 0.19075900E+03</rscale>
<asrwt>0</asrwt>
<pdfrwt beam="1">  1       21 0.26722007E+00 0.19075900E+03</pdfrwt>
<pdfrwt beam="2">  1       21 0.14696439E-01 0.19075900E+03</pdfrwt>
<totfact> 0.21528256E+03</totfact>
</mgrwt>
</event>
<event>
 4    1  0.1086582E+000  0.1830944E+03  0.7546771E-02  0.1164841E+00
         21   -1    0    0  503  502  0.00000000000E+00  0.00000000000E+00  0.13226454220E+03  0.13226454220E+03  0.00000000000E+00 0.  1.
         21   -1    0    0  501  503 -0.00000000000E+00 -0.00000000000E+00 -0.38355527289E+03  0.38355527289E+03  0.00000000000E+00 0.  1.
          6    1    1    2  501    0 -0.29278655325E+02  0.55518653220E+02 -0.27585142720E+03  0.33108544275E+03  0.17200000000E+03 0.  1.
         -6    1    1    2    0  502  0.29278655325E+02 -0.55518653220E+02  0.24560696503E+02  0.18473437234E+03  0.17200000000E+03 0.  1.
<mgrwt>
<rscale>  2 0.18309440E+03</rscale>
<asrwt>0</asrwt>
<pdfrwt beam="1">  1       21 0.33066136E-01 0.18309440E+03</pdfrwt>
<pdfrwt beam="2">  1       21 0.95888818E-01 0.18309440E+03</pdfrwt>
<totfact> 0.80373185E+03</totfact>
</mgrwt>
</event>
<event>
 4    1  0.1086582E+000  0.2792011E+03  0.7546771E-02  0.1096126E+00
         21   -1    0    0  503  502  0.00000000000E+00  0.00000000000E+00  0.12995326985E+03  0.12995326985E+03  0.00000000000E+00 0. -1.
         21   -1    0    0  501  503 -0.00000000000E+00 -0.00000000000E+00 -0.64968532874E+03  0.64968532874E+03  0.00000000000E+00 0. -1.
          6    1    1    2  501    0 -0.15562813202E+03  0.15540001071E+03 -0.36782365239E+03  0.46178730825E+03  0.17200000000E+03 0. -1.
         -6    1    1    2    0  502  0.15562813202E+03 -0.15540001071E+03 -0.15190840650E+03  0.31785129034E+03  0.17200000000E+03 0. -1.
<mgrwt>
<rscale>  2 0.27920114E+03</rscale>
<asrwt>0</asrwt>
<pdfrwt beam="1">  1       21 0.32488318E-01 0.27920114E+03</pdfrwt>
<pdfrwt beam="2">  1       21 0.16242133E+00 0.27920114E+03</pdfrwt>
<totfact> 0.20529695E+03</totfact>
</mgrwt>
</event>
<event>
 4    1  0.1086582E+000  0.2320765E+03  0.7546771E-02  0.1125187E+00
         21   -1    0    0  501  502  0.00000000000E+00  0.00000000000E+00  0.46077176863E+03  0.46077176863E+03  0.00000000000E+00 0. -1.
         21   -1    0    0  502  503 -0.00000000000E+00 -0.00000000000E+00 -0.13570346884E+03  0.13570346884E+03  0.00000000000E+00 0. -1.
          6    1    1    2  501    0 -0.14016995542E+03 -0.68028476818E+02  0.27358053949E+03  0.35875590817E+03  0.17200000000E+03 0. -1.
         -6    1    1    2    0  503  0.14016995542E+03  0.68028476818E+02  0.51487760305E+02  0.23771932930E+03  0.17200000000E+03 0. -1.
<mgrwt>
<rscale>  2 0.23207647E+03</rscale>
<asrwt>0</asrwt>
<pdfrwt beam="1">  1       21 0.11519294E+00 0.23207647E+03</pdfrwt>
<pdfrwt beam="2">  1       21 0.33925868E-01 0.23207647E+03</pdfrwt>
<totfact> 0.47428288E+03</totfact>
</mgrwt>
</event>
<event>
 4    1  0.1086582E+000  0.2074836E+03  0.7546771E-02  0.1143574E+00
         21   -1    0    0  501  502  0.00000000000E+00  0.00000000000E+00  0.19858405481E+03  0.19858405481E+03  0.00000000000E+00 0.  1.
         21   -1    0    0  502  503 -0.00000000000E+00 -0.00000000000E+00 -0.22479421355E+03  0.22479421355E+03  0.00000000000E+00 0. -1.
          6    1    1    2  501    0  0.52431000714E+02 -0.10352023992E+03  0.26860128670E+02  0.20921500047E+03  0.17200000000E+03 0.  1.
         -6    1    1    2    0  503 -0.52431000714E+02  0.10352023992E+03 -0.53070287407E+02  0.21416326789E+03  0.17200000000E+03 0. -1.
<mgrwt>
<rscale>  2 0.20748361E+03</rscale>
<asrwt>0</asrwt>
<pdfrwt beam="1">  1       21 0.49646014E-01 0.20748361E+03</pdfrwt>
<pdfrwt beam="2">  1       21 0.56198553E-01 0.20748361E+03</pdfrwt>
<totfact> 0.11410582E+04</totfact>
</mgrwt>
</event>
<event>
 4    1  0.1086582E+000  0.1825164E+03  0.7546771E-02  0.1165390E+00
         21   -1    0    0  503  502  0.00000000000E+00  0.00000000000E+00  0.57472612753E+03  0.57472612753E+03  0.00000000000E+00 0.  1.
         21   -1    0    0  501  503 -0.00000000000E+00 -0.00000000000E+00 -0.60482678247E+02  0.60482678247E+02  0.00000000000E+00 0.  1.
          6    1    1    2  501    0 -0.37748071533E+02 -0.47993086564E+02  0.19228320468E+03  0.26511334192E+03  0.17200000000E+03 0. -1.
         -6    1    1    2    0  502  0.37748071533E+02  0.47993086564E+02  0.32196024461E+03  0.37009546386E+03  0.17200000000E+03 0. -1.
<mgrwt>
<rscale>  2 0.18251645E+03</rscale>
<asrwt>0</asrwt>
<pdfrwt beam="1">  1       21 0.14368152E+00 0.18251645E+03</pdfrwt>
<pdfrwt beam="2">  1       21 0.15120671E-01 0.18251645E+03</pdfrwt>
<totfact> 0.13027904E+04</totfact>
</mgrwt>
</event>
<event>
 4    1  0.1086582E+000  0.2108687E+03  0.7546771E-02  0.1140880E+00
         21   -1    0    0  501  502  0.00000000000E+00  0.00000000000E+00  0.30820171124E+03  0.30820171124E+03  0.00000000000E+00 0.  1.
         21   -1    0    0  502  503 -0.00000000000E+00 -0.00000000000E+00 -0.20388574688E+03  0.20388574688E+03  0.00000000000E+00 0. -1.
          6    1    1    2  501    0  0.59540819179E+02 -0.10647307837E+03  0.19060546885E+03  0.28424649571E+03  0.17200000000E+03 0.  1.
         -6    1    1    2    0  503 -0.59540819179E+02  0.10647307837E+03 -0.86289504492E+02  0.22784096241E+03  0.17200000000E+03 0. -1.
<mgrwt>
<rscale>  2 0.21086874E+03</rscale>
<asrwt>0</asrwt>
<pdfrwt beam="1">  1       21 0.77050427E-01 0.21086874E+03</pdfrwt>
<pdfrwt beam="2">  1       21 0.50971437E-01 0.21086874E+03</pdfrwt>
<totfact> 0.54035472E+03</totfact>
</mgrwt>
</event>
<event>
 4    1  0.1086582E+000  0.2627023E+03  0.7546771E-02  0.1105530E+00
         21   -1    0    0  501  502  0.00000000000E+00  0.00000000000E+00  0.25907139229E+03  0.25907139229E+03  0.00000000000E+00 0. -1.
         21   -1    0    0  502  503 -0.00000000000E+00 -0.00000000000E+00 -0.52098325263E+03  0.52098325263E+03  0.00000000000E+00 0.  1.
          6    1    1    2  501    0 -0.13679184347E+03 -0.14393220432E+03  0.14169793955E+03  0.29848081003E+03  0.17200000000E+03 0. -1.
         -6    1    1    2    0  503  0.13679184347E+03  0.14393220432E+03 -0.40360979990E+03  0.48157383489E+03  0.17200000000E+03 0.  1.
<mgrwt>
<rscale>  2 0.26270228E+03</rscale>
<asrwt>0</asrwt>
<pdfrwt beam="1">  1       21 0.64767849E-01 0.26270228E+03</pdfrwt>
<pdfrwt beam="2">  1       21 0.13024581E+00 0.26270228E+03</pdfrwt>
<totfact> 0.88704935E+02</totfact>
</mgrwt>
</event>
<event>
 4    1  0.1086582E+000  0.1749201E+03  0.7546771E-02  0.1172812E+00
         21   -1    0    0  501  502  0.00000000000E+00  0.00000000000E+00  0.34013416900E+02  0.34013416900E+02  0.00000000000E+00 0. -1.
         21   -1    0    0  502  503 -0.00000000000E+00 -0.00000000000E+00 -0.92030316176E+03  0.92030316176E+03  0.00000000000E+00 0. -1.
          6    1    1    2  501    0  0.26379288665E+02  0.17809450141E+02 -0.37150500377E+03  0.41062514683E+03  0.17200000000E+03 0.  1.
         -6    1    1    2    0  503 -0.26379288665E+02 -0.17809450141E+02 -0.51478474109E+03  0.54369143183E+03  0.17200000000E+03 0.  1.
<mgrwt>
<rscale>  2 0.17492011E+03</rscale>
<asrwt>0</asrwt>
<pdfrwt beam="1">  1       21 0.85033540E-02 0.17492011E+03</pdfrwt>
<pdfrwt beam="2">  1       21 0.23007580E+00 0.17492011E+03</pdfrwt>
<totfact> 0.95847370E+03</totfact>
</mgrwt>
</event>
<event>
 4    1  0.1086582E+000  0.1867197E+03  0.7546771E-02  0.1161454E+00
         21   -1    0    0  503  502  0.00000000000E+00  0.00000000000E+00  0.15773527175E+03  0.15773527175E+03  0.00000000000E+00 0.  1.
         21   -1    0    0  501  503 -0.00000000000E+00 -0.00000000000E+00 -0.50309412748E+03  0.50309412748E+03  0.00000000000E+00 0.  1.
          6    1    1    2  501    0  0.64359275414E+02 -0.33736337893E+02 -0.42008445471E+03  0.45971209025E+03  0.17200000000E+03 0.  1.
         -6    1    1    2    0  502 -0.64359275414E+02  0.33736337893E+02  0.74725598983E+02  0.20111730898E+03  0.17200000000E+03 0.  1.
<mgrwt>
<rscale>  2 0.18671973E+03</rscale>
<asrwt>0</asrwt>
<pdfrwt beam="1">  1       21 0.39433819E-01 0.18671973E+03</pdfrwt>
<pdfrwt beam="2">  1       21 0.12577353E+00 0.18671973E+03</pdfrwt>
<totfact> 0.29273696E+03</totfact>
</mgrwt>
</event>
<event>
 4    1  0.1086582E+000  0.2151148E+03  0.7546771E-02  0.1137578E+00
         21   -1    0    0  503  502  0.00000000000E+00  0.00000000000E+00  0.22253515822E+03  0.22253515822E+03  0.00000000000E+00 0. -1.
         21   -1    0    0  501  503 -0.00000000000E+00 -0.00000000000E+00 -0.67451738793E+03  0.67451738793E+03  0.00000000000E+00 0. -1.
          6    1    1    2  501    0 -0.11108687390E+03 -0.65955071094E+02 -0.59902845967E+03  0.63648209751E+03  0.17200000000E+03 0. -1.
         -6    1    1    2    0  502  0.11108687390E+03  0.65955071094E+02  0.14704622997E+03  0.26057044864E+03  0.17200000000E+03 0. -1.
<mgrwt>
<rscale>  2 0.21511477E+03</rscale>
<asrwt>0</asrwt>
<pdfrwt beam="1">  1       21 0.55633790E-01 0.21511477E+03</pdfrwt>
<pdfrwt beam="2">  1       21 0.16862935E+00 0.21511477E+03</pdfrwt>
<totfact> 0.64819244E+02</totfact>
</mgrwt>
</event>
<event>
 4    1  0.1086582E+000  0.2298754E+03  0.7546771E-02  0.1126727E+00
         21   -1    0    0  501  502  0.00000000000E+00  0.00000000000E+00  0.93166298409E+02  0.93166298409E+02  0.00000000000E+00 0.  1.
         21   -1    0    0  502  503 -0.00000000000E+00 -0.00000000000E+00 -0.12426786940E+04  0.12426786940E+04  0.00000000000E+00 0.  1.
          6    1    1    2  501    0 -0.15174739274E+03  0.15212839163E+02 -0.82312377707E+02  0.24416803477E+03  0.17200000000E+03 0.  1.
         -6    1    1    2    0  503  0.15174739274E+03 -0.15212839163E+02 -0.10672000179E+04  0.10916769577E+04  0.17200000000E+03 0.  1.
<mgrwt>
<rscale>  2 0.22987540E+03</rscale>
<asrwt>0</asrwt>
<pdfrwt beam="1">  1       21 0.23291575E-01 0.22987540E+03</pdfrwt>
<pdfrwt beam="2">  1       21 0.31066967E+00 0.22987540E+03</pdfrwt>
<totfact> 0.48825325E+02</totfact>
</mgrwt>
</event>
<event>
 4    1  0.1086582E+000  0.1860196E+03  0.7546771E-02  0.1162101E+00
         21   -1    0    0  503  502  0.00000000000E+00  0.00000000000E+00  0.53264700709E+03  0.53264700709E+03  0.00000000000E+00 0.  1.
         21   -1    0    0  501  503 -0.00000000000E+00 -0.00000000000E+00 -0.10636951025E+03  0.10636951025E+03  0.00000000000E+00 0.  1.
          6    1    1    2  501    0 -0.56060399997E+02  0.43318907991E+02  0.13796899397E+02  0.18653056230E+03  0.17200000000E+03 0.  1.
         -6    1    1    2    0  502  0.56060399997E+02 -0.43318907991E+02  0.41248059745E+03  0.45248595504E+03  0.17200000000E+03 0.  1.
<mgrwt>
<rscale>  2 0.18601961E+03</rscale>
<asrwt>0</asrwt>
<pdfrwt beam="1">  1       21 0.13316174E+00 0.18601961E+03</pdfrwt>
<pdfrwt beam="2">  1       21 0.26592379E-01 0.18601961E+03</pdfrwt>
<totfact> 0.55035672E+03</totfact>
</mgrwt>
</event>
<event>
 4    1  0.1086582E+000  0.2055685E+03  0.7546771E-02  0.1145124E+00
         21   -1    0    0  503  502  0.00000000000E+00  0.00000000000E+00  0.38282747812E+03  0.38282747812E+03  0.00000000000E+00 0. -1.
         21   -1    0    0  501  503 -0.00000000000E+00 -0.00000000000E+00 -0.13036213372E+03  0.13036213372E+03  0.00000000000E+00 0. -1.
          6    1    1    2  501    0 -0.46283110824E+02 -0.10262694191E+03  0.25785296495E+02  0.20717938379E+03  0.17200000000E+03 0. -1.
         -6    1    1    2    0  502  0.46283110824E+02  0.10262694191E+03  0.22668004790E+03  0.30601022805E+03  0.17200000000E+03 0. -1.
<mgrwt>
<rscale>  2 0.20556852E+03</rscale>
<asrwt>0</asrwt>
<pdfrwt beam="1">  1       21 0.95706867E-01 0.20556852E+03</pdfrwt>
<pdfrwt beam="2">  1       21 0.32590534E-01 0.20556852E+03</pdfrwt>
<totfact> 0.81720324E+03</totfact>
</mgrwt>
</event>
<event>
 4    1  0.1086582E+000  0.2186639E+03  0.7546771E-02  0.1134883E+00
         21   -1    0    0  503  502  0.00000000000E+00  0.00000000000E+00  0.62818466470E+02  0.62818466470E+02  0.00000000000E+00 0. -1.
         21   -1    0    0  501  503 -0.00000000000E+00 -0.00000000000E+00 -0.76141458912E+03  0.76141458912E+03  0.00000000000E+00 0.  1.
          6    1    1    2  501    0  0.46621246565E+02 -0.12671365017E+03 -0.35706912502E+03  0.41870305685E+03  0.17200000000E+03 0.  1.
         -6    1    1    2    0  502 -0.46621246565E+02  0.12671365017E+03 -0.34152699764E+03  0.40552999875E+03  0.17200000000E+03 0. -1.
<mgrwt>
<rscale>  2 0.21866387E+03</rscale>
<asrwt>0</asrwt>
<pdfrwt beam="1">  1       21 0.15704617E-01 0.21866387E+03</pdfrwt>
<pdfrwt beam="2">  1       21 0.19035365E+00 0.21866387E+03</pdfrwt>
<totfact> 0.54726814E+03</totfact>
</mgrwt>
</event>
<event>
 4    1  0.1086582E+000  0.2295572E+03  0.7546771E-02  0.1126952E+00
         21   -1    0    0  503  502  0.00000000000E+00  0.00000000000E+00  0.33828746692E+03  0.33828746692E+03  0.00000000000E+00 0.  1.
         21   -1    0    0  501  503 -0.00000000000E+00 -0.00000000000E+00 -0.69605854781E+03  0.69605854781E+03  0.00000000000E+00 0.  1.
          6    1    1    2  501    0 -0.52347469731E+01 -0.15193789028E+03 -0.63452788660E+03  0.67477563971E+03  0.17200000000E+03 0.  1.
         -6    1    1    2    0  502  0.52347469731E+01  0.15193789028E+03  0.27675680571E+03  0.35957037501E+03  0.17200000000E+03 0.  1.
<mgrwt>
<rscale>  2 0.22955724E+03</rscale>
<asrwt>0</asrwt>
<pdfrwt beam="1">  1       21 0.84571868E-01 0.22955724E+03</pdfrwt>
<pdfrwt beam="2">  1       21 0.17401463E+00 0.22955724E+03</pdfrwt>
<totfact> 0.23206308E+02</totfact>
</mgrwt>
</event>
<event>
 4    1  0.1086582E+000  0.1982374E+03  0.7546771E-02  0.1151235E+00
         21   -1    0    0  503  502  0.00000000000E+00  0.00000000000E+00  0.31482759586E+03  0.31482759586E+03  0.00000000000E+00 0.  1.
         21   -1    0    0  501  503 -0.00000000000E+00 -0.00000000000E+00 -0.15003684301E+03  0.15003684301E+03  0.00000000000E+00 0.  1.
          6    1    1    2  501    0 -0.98497402582E+02 -0.35104925423E+01  0.17767667713E+03  0.26620868406E+03  0.17200000000E+03 0. -1.
         -6    1    1    2    0  502  0.98497402582E+02  0.35104925423E+01 -0.12885924290E+02  0.19865575481E+03  0.17200000000E+03 0. -1.
<mgrwt>
<rscale>  2 0.19823739E+03</rscale>
<asrwt>0</asrwt>
<pdfrwt beam="1">  1       21 0.78706898E-01 0.19823739E+03</pdfrwt>
<pdfrwt beam="2">  1       21 0.37509211E-01 0.19823739E+03</pdfrwt>
<totfact> 0.97429611E+03</totfact>
</mgrwt>
</event>
<event>
 4    1  0.1086582E+000  0.1889849E+03  0.7546771E-02  0.1159380E+00
         21   -1    0    0  503  502  0.00000000000E+00  0.00000000000E+00  0.86368824223E+03  0.86368824223E+03  0.00000000000E+00 0. -1.
         21   -1    0    0  501  503 -0.00000000000E+00 -0.00000000000E+00 -0.45934345706E+02  0.45934345706E+02  0.00000000000E+00 0. -1.
          6    1    1    2  501    0  0.12404212749E+02 -0.77313856100E+02  0.26522779476E+03  0.32567020120E+03  0.17200000000E+03 0. -1.
         -6    1    1    2    0  502 -0.12404212749E+02  0.77313856100E+02  0.55252610177E+03  0.58395238674E+03  0.17200000000E+03 0. -1.
<mgrwt>
<rscale>  2 0.18898491E+03</rscale>
<asrwt>0</asrwt>
<pdfrwt beam="1">  1       21 0.21592201E+00 0.18898491E+03</pdfrwt>
<pdfrwt beam="2">  1       21 0.11483589E-01 0.18898491E+03</pdfrwt>
<totfact> 0.67893952E+03</totfact>
</mgrwt>
</event>
<event>
 4    1  0.1086582E+000  0.2044975E+03  0.7546771E-02  0.1145999E+00
         21   -1    0    0  501  502  0.00000000000E+00  0.00000000000E+00  0.36806526280E+02  0.36806526280E+02  0.00000000000E+00 0. -1.
         21   -1    0    0  502  503 -0.00000000000E+00 -0.00000000000E+00 -0.13833679720E+04  0.13833679720E+04  0.00000000000E+00 0.  1.
          6    1    1    2  501    0 -0.78842790540E+02  0.77582473947E+02 -0.37312454272E+03  0.42548930687E+03  0.17200000000E+03 0. -1.
         -6    1    1    2    0  503  0.78842790540E+02 -0.77582473947E+02 -0.97343690303E+03  0.99468519144E+03  0.17200000000E+03 0.  1.
<mgrwt>
<rscale>  2 0.20449750E+03</rscale>
<asrwt>0</asrwt>
<pdfrwt beam="1">  1       21 0.92016314E-02 0.20449750E+03</pdfrwt>
<pdfrwt beam="2">  1       21 0.34584200E+00 0.20449750E+03</pdfrwt>
<totfact> 0.17108049E+03</totfact>
</mgrwt>
</event>
<event>
 4    1  0.1086582E+000  0.3166525E+03  0.7546771E-02  0.1077200E+00
         21   -1    0    0  503  502  0.00000000000E+00  0.00000000000E+00  0.17120695483E+03  0.17120695483E+03  0.00000000000E+00 0. -1.
         21   -1    0    0  501  503 -0.00000000000E+00 -0.00000000000E+00 -0.62900986547E+03  0.62900986547E+03  0.00000000000E+00 0.  1.
          6    1    1    2  501    0 -0.30730698956E+02  0.26408417278E+03 -0.12386263849E+03  0.34001585166E+03  0.17200000000E+03 0. -1.
         -6    1    1    2    0  502  0.30730698956E+02 -0.26408417278E+03 -0.33394027216E+03  0.46020096864E+03  0.17200000000E+03 0.  1.
<mgrwt>
<rscale>  2 0.31665253E+03</rscale>
<asrwt>0</asrwt>
<pdfrwt beam="1">  1       21 0.42801739E-01 0.31665253E+03</pdfrwt>
<pdfrwt beam="2">  1       21 0.15725246E+00 0.31665253E+03</pdfrwt>
<totfact> 0.12539305E+03</totfact>
</mgrwt>
</event>
<event>
 4    1  0.1086582E+000  0.1967841E+03  0.7546771E-02  0.1152481E+00
         21   -1    0    0  503  502  0.00000000000E+00  0.00000000000E+00  0.94193185865E+02  0.94193185865E+02  0.00000000000E+00 0. -1.
         21   -1    0    0  501  503 -0.00000000000E+00 -0.00000000000E+00 -0.51108329949E+03  0.51108329949E+03  0.00000000000E+00 0. -1.
          6    1    1    2  501    0 -0.80216867400E+02 -0.52011721642E+02 -0.74596016455E+02  0.21044840383E+03  0.17200000000E+03 0. -1.
         -6    1    1    2    0  502  0.80216867400E+02  0.52011721642E+02 -0.34229409717E+03  0.39482808153E+03  0.17200000000E+03 0. -1.
<mgrwt>
<rscale>  2 0.19678406E+03</rscale>
<asrwt>0</asrwt>
<pdfrwt beam="1">  1       21 0.23548297E-01 0.19678406E+03</pdfrwt>
<pdfrwt beam="2">  1       21 0.12777082E+00 0.19678406E+03</pdfrwt>
<totfact> 0.76393809E+03</totfact>
</mgrwt>
</event>
<event>
 4    1  0.1086582E+000  0.2082641E+03  0.7546771E-02  0.1142948E+00
         21   -1    0    0  501  502  0.00000000000E+00  0.00000000000E+00  0.12349033138E+04  0.12349033138E+04  0.00000000000E+00 0. -1.
         21   -1    0    0  502  503 -0.00000000000E+00 -0.00000000000E+00 -0.35326611374E+02  0.35326611374E+02  0.00000000000E+00 0. -1.
          6    1    1    2  501    0 -0.11351335805E+03  0.30077754873E+02  0.64796293596E+03  0.68060996185E+03  0.17200000000E+03 0. -1.
         -6    1    1    2    0  503  0.11351335805E+03 -0.30077754873E+02  0.55161376649E+03  0.58961996334E+03  0.17200000000E+03 0. -1.
<mgrwt>
<rscale>  2 0.20826414E+03</rscale>
<asrwt>0</asrwt>
<pdfrwt beam="1">  1       21 0.30872568E+00 0.20826414E+03</pdfrwt>
<pdfrwt beam="2">  1       21 0.88316570E-02 0.20826414E+03</pdfrwt>
<totfact> 0.30131911E+03</totfact>
</mgrwt>
</event>
<event>
 4    1  0.1086582E+000  0.2198058E+03  0.7546771E-02  0.1134028E+00
         21   -1    0    0  501  502  0.00000000000E+00  0.00000000000E+00  0.21211093304E+03  0.21211093304E+03  0.00000000000E+00 0.  1.
         21   -1    0    0  502  503 -0.00000000000E+00 -0.00000000000E+00 -0.36262674310E+03  0.36262674310E+03  0.00000000000E+00 0. -1.
          6    1    1    2  501    0  0.87899450306E+01  0.13657717964E+03  0.99980901049E+02  0.24147623011E+03  0.17200000000E+03 0.  1.
         -6    1    1    2    0  503 -0.87899450306E+01 -0.13657717964E+03 -0.25049671111E+03  0.33326144603E+03  0.17200000000E+03 0. -1.
<mgrwt>
<rscale>  2 0.21980580E+03</rscale>
<asrwt>0</asrwt>
<pdfrwt beam="1">  1       21 0.53027733E-01 0.21980580E+03</pdfrwt>
<pdfrwt beam="2">  1       21 0.90656685E-01 0.21980580E+03</pdfrwt>
<totfact> 0.34050011E+03</totfact>
</mgrwt>
</event>
<event>
 4    1  0.1086582E+000  0.2319339E+03  0.7546771E-02  0.1125286E+00
         21   -1    0    0  501  502  0.00000000000E+00  0.00000000000E+00  0.80716336310E+02  0.80716336310E+02  0.00000000000E+00 0.  1.
         21   -1    0    0  502  503 -0.00000000000E+00 -0.00000000000E+00 -0.12853941116E+04  0.12853941116E+04  0.00000000000E+00 0.  1.
          6    1    1    2  501    0  0.71197523763E+02  0.13834820478E+03 -0.12835479181E+03  0.26508162089E+03  0.17200000000E+03 0.  1.
         -6    1    1    2    0  503 -0.71197523763E+02 -0.13834820478E+03 -0.10763229834E+04  0.11010288270E+04  0.17200000000E+03 0.  1.
<mgrwt>
<rscale>  2 0.23193386E+03</rscale>
<asrwt>0</asrwt>
<pdfrwt beam="1">  1       21 0.20179085E-01 0.23193386E+03</pdfrwt>
<pdfrwt beam="2">  1       21 0.32134852E+00 0.23193386E+03</pdfrwt>
<totfact> 0.55331339E+02</totfact>
</mgrwt>
</event>
<event>
 4    1  0.1086582E+000  0.2233647E+03  0.7546771E-02  0.1131399E+00
         21   -1    0    0  501  502  0.00000000000E+00  0.00000000000E+00  0.24975507758E+03  0.24975507758E+03  0.00000000000E+00 0. -1.
         21   -1    0    0  502  503 -0.00000000000E+00 -0.00000000000E+00 -0.35774683695E+03  0.35774683695E+03  0.00000000000E+00 0.  1.
          6    1    1    2  501    0  0.13200329420E+03  0.53693021203E+02  0.14785756082E+03  0.26786875237E+03  0.17200000000E+03 0. -1.
         -6    1    1    2    0  503 -0.13200329420E+03 -0.53693021203E+02 -0.25584932018E+03  0.33963316216E+03  0.17200000000E+03 0.  1.
<mgrwt>
<rscale>  2 0.22336475E+03</rscale>
<asrwt>0</asrwt>
<pdfrwt beam="1">  1       21 0.62438770E-01 0.22336475E+03</pdfrwt>
<pdfrwt beam="2">  1       21 0.89436709E-01 0.22336475E+03</pdfrwt>
<totfact> 0.24704821E+03</totfact>
</mgrwt>
</event>
<event>
 4    1  0.1086582E+000  0.2117409E+03  0.7546771E-02  0.1140195E+00
         21   -1    0    0  501  502  0.00000000000E+00  0.00000000000E+00  0.27387447395E+03  0.27387447395E+03  0.00000000000E+00 0. -1.
         21   -1    0    0  502  503 -0.00000000000E+00 -0.00000000000E+00 -0.58165662586E+03  0.58165662586E+03  0.00000000000E+00 0.  1.
          6    1    1    2  501    0  0.11784347557E+03  0.36920464468E+02  0.20871599048E+03  0.29731560691E+03  0.17200000000E+03 0. -1.
         -6    1    1    2    0  503 -0.11784347557E+03 -0.36920464468E+02 -0.51649814239E+03  0.55821549291E+03  0.17200000000E+03 0.  1.
<mgrwt>
<rscale>  2 0.21174089E+03</rscale>
<asrwt>0</asrwt>
<pdfrwt beam="1">  1       21 0.68468619E-01 0.21174089E+03</pdfrwt>
<pdfrwt beam="2">  1       21 0.14541416E+00 0.21174089E+03</pdfrwt>
<totfact> 0.61796478E+02</totfact>
</mgrwt>
</event>
<event>
 4    1  0.1086582E+000  0.2376787E+03  0.7546771E-02  0.1121349E+00
         21   -1    0    0  501  502  0.00000000000E+00  0.00000000000E+00  0.10268294305E+04  0.10268294305E+04  0.00000000000E+00 0. -1.
         21   -1    0    0  502  503 -0.00000000000E+00 -0.00000000000E+00 -0.75582733629E+02  0.75582733629E+02  0.00000000000E+00 0.  1.
          6    1    1    2  501    0  0.15671047759E+03 -0.48466522245E+02  0.76316073053E+03  0.79931563114E+03  0.17200000000E+03 0. -1.
         -6    1    1    2    0  503 -0.15671047759E+03  0.48466522245E+02  0.18808596630E+03  0.30309653294E+03  0.17200000000E+03 0.  1.
<mgrwt>
<rscale>  2 0.23767873E+03</rscale>
<asrwt>0</asrwt>
<pdfrwt beam="1">  1       21 0.25670731E+00 0.23767873E+03</pdfrwt>
<pdfrwt beam="2">  1       21 0.18895687E-01 0.23767873E+03</pdfrwt>
<totfact> 0.14834787E+03</totfact>
</mgrwt>
</event>
<event>
 4    1  0.1086582E+000  0.1728115E+03  0.7546771E-02  0.1174947E+00
         21   -1    0    0  503  502  0.00000000000E+00  0.00000000000E+00  0.68562456756E+02  0.68562456756E+02  0.00000000000E+00 0.  1.
         21   -1    0    0  501  503 -0.00000000000E+00 -0.00000000000E+00 -0.62380637920E+03  0.62380637920E+03  0.00000000000E+00 0.  1.
          6    1    1    2  501    0  0.16438299566E+02  0.30999756159E+01 -0.46778804980E+03  0.49868776512E+03  0.17200000000E+03 0.  1.
         -6    1    1    2    0  502 -0.16438299566E+02 -0.30999756159E+01 -0.87455872643E+02  0.19368107084E+03  0.17200000000E+03 0.  1.
<mgrwt>
<rscale>  2 0.17281154E+03</rscale>
<asrwt>0</asrwt>
<pdfrwt beam="1">  1       21 0.17140614E-01 0.17281154E+03</pdfrwt>
<pdfrwt beam="2">  1       21 0.15595159E+00 0.17281154E+03</pdfrwt>
<totfact> 0.84199218E+03</totfact>
</mgrwt>
</event>
<event>
 4    1  0.1086582E+000  0.1806032E+03  0.7546771E-02  0.1167221E+00
         21   -1    0    0  503  502  0.00000000000E+00  0.00000000000E+00  0.20330265953E+03  0.20330265953E+03  0.00000000000E+00 0. -1.
         21   -1    0    0  501  503 -0.00000000000E+00 -0.00000000000E+00 -0.21665067120E+03  0.21665067120E+03  0.00000000000E+00 0. -1.
          6    1    1    2  501    0 -0.52078926523E+02 -0.17925254428E+02 -0.11363047039E+03  0.21337622439E+03  0.17200000000E+03 0. -1.
         -6    1    1    2    0  502  0.52078926523E+02  0.17925254428E+02  0.10028245873E+03  0.20657710634E+03  0.17200000000E+03 0. -1.
<mgrwt>
<rscale>  2 0.18060324E+03</rscale>
<asrwt>0</asrwt>
<pdfrwt beam="1">  1       21 0.50825665E-01 0.18060324E+03</pdfrwt>
<pdfrwt beam="2">  1       21 0.54162668E-01 0.18060324E+03</pdfrwt>
<totfact> 0.11960090E+04</totfact>
</mgrwt>
</event>
<event>
 4    1  0.1086582E+000  0.2047755E+03  0.7546771E-02  0.1145771E+00
         21   -1    0    0  501  502  0.00000000000E+00  0.00000000000E+00  0.42038717710E+02  0.42038717710E+02  0.00000000000E+00 0.  1.
         21   -1    0    0  502  503 -0.00000000000E+00 -0.00000000000E+00 -0.10313864072E+04  0.10313864072E+04  0.00000000000E+00 0.  1.
          6    1    1    2  501    0  0.81236953110E+02 -0.75825874466E+02 -0.39736830481E+03  0.44702860698E+03  0.17200000000E+03 0.  1.
         -6    1    1    2    0  503 -0.81236953110E+02  0.75825874466E+02 -0.59197938466E+03  0.62639651791E+03  0.17200000000E+03 0.  1.
<mgrwt>
<rscale>  2 0.20477550E+03</rscale>
<asrwt>0</asrwt>
<pdfrwt beam="1">  1       21 0.10509680E-01 0.20477550E+03</pdfrwt>
<pdfrwt beam="2">  1       21 0.25784659E+00 0.20477550E+03</pdfrwt>
<totfact> 0.43886648E+03</totfact>
</mgrwt>
</event>
<event>
 4    1  0.1086582E+000  0.2923212E+03  0.7546771E-02  0.1089143E+00
         21   -1    0    0  501  502  0.00000000000E+00  0.00000000000E+00  0.24997404014E+03  0.24997404014E+03  0.00000000000E+00 0. -1.
         21   -1    0    0  502  503 -0.00000000000E+00 -0.00000000000E+00 -0.37119670958E+03  0.37119670958E+03  0.00000000000E+00 0.  1.
          6    1    1    2  501    0  0.23607786978E+03 -0.11615675586E+02  0.26729250942E+02  0.29354069117E+03  0.17200000000E+03 0. -1.
         -6    1    1    2    0  503 -0.23607786978E+03  0.11615675586E+02 -0.14795192038E+03  0.32763005855E+03  0.17200000000E+03 0.  1.
<mgrwt>
<rscale>  2 0.29232120E+03</rscale>
<asrwt>0</asrwt>
<pdfrwt beam="1">  1       21 0.62493511E-01 0.29232120E+03</pdfrwt>
<pdfrwt beam="2">  1       21 0.92799177E-01 0.29232120E+03</pdfrwt>
<totfact> 0.21582590E+03</totfact>
</mgrwt>
</event>
<event>
 4    1  0.1086582E+000  0.2117337E+03  0.7546771E-02  0.1140200E+00
         21   -1    0    0  503  502  0.00000000000E+00  0.00000000000E+00  0.13629560671E+04  0.13629560671E+04  0.00000000000E+00 0.  1.
         21   -1    0    0  501  503 -0.00000000000E+00 -0.00000000000E+00 -0.37221928113E+02  0.37221928113E+02  0.00000000000E+00 0. -1.
          6    1    1    2  501    0  0.21833913125E+02 -0.12153365575E+03  0.42410530073E+03  0.47402157689E+03  0.17200000000E+03 0. -1.
         -6    1    1    2    0  502 -0.21833913125E+02  0.12153365575E+03  0.90162883826E+03  0.92615641834E+03  0.17200000000E+03 0.  1.
<mgrwt>
<rscale>  2 0.21173368E+03</rscale>
<asrwt>0</asrwt>
<pdfrwt beam="1">  1       21 0.34073885E+00 0.21173368E+03</pdfrwt>
<pdfrwt beam="2">  1       21 0.93054866E-02 0.21173368E+03</pdfrwt>
<totfact> 0.17809228E+03</totfact>
</mgrwt>
</event>
<event>
 4    1  0.1086582E+000  0.1850145E+03  0.7546771E-02  0.1163036E+00
         21   -1    0    0  501  502  0.00000000000E+00  0.00000000000E+00  0.41737044039E+03  0.41737044039E+03  0.00000000000E+00 0.  1.
         21   -1    0    0  502  503 -0.00000000000E+00 -0.00000000000E+00 -0.11239096104E+03  0.11239096104E+03  0.00000000000E+00 0.  1.
          6    1    1    2  501    0  0.68156466695E+02 -0.10311303748E+01  0.14783298894E+02  0.18560418397E+03  0.17200000000E+03 0.  1.
         -6    1    1    2    0  503 -0.68156466695E+02  0.10311303748E+01  0.29019618045E+03  0.34415721746E+03  0.17200000000E+03 0.  1.
<mgrwt>
<rscale>  2 0.18501451E+03</rscale>
<asrwt>0</asrwt>
<pdfrwt beam="1">  1       21 0.10434261E+00 0.18501451E+03</pdfrwt>
<pdfrwt beam="2">  1       21 0.28097741E-01 0.18501451E+03</pdfrwt>
<totfact> 0.90255983E+03</totfact>
</mgrwt>
</event>
<event>
 4    1  0.1086582E+000  0.1964748E+03  0.7546771E-02  0.1152748E+00
         21   -1    0    0  501  502  0.00000000000E+00  0.00000000000E+00  0.63230437802E+03  0.63230437802E+03  0.00000000000E+00 0. -1.
         21   -1    0    0  502  503 -0.00000000000E+00 -0.00000000000E+00 -0.69832009201E+02  0.69832009201E+02  0.00000000000E+00 0. -1.
          6    1    1    2  501    0  0.26162285256E+02 -0.91290092977E+02  0.40573199798E+03  0.45080017794E+03  0.17200000000E+03 0. -1.
         -6    1    1    2    0  503 -0.26162285256E+02  0.91290092977E+02  0.15674037084E+03  0.25133620928E+03  0.17200000000E+03 0. -1.
<mgrwt>
<rscale>  2 0.19647480E+03</rscale>
<asrwt>0</asrwt>
<pdfrwt beam="1">  1       21 0.15807608E+00 0.19647480E+03</pdfrwt>
<pdfrwt beam="2">  1       21 0.17458004E-01 0.19647480E+03</pdfrwt>
<totfact> 0.77008471E+03</totfact>
</mgrwt>
</event>
<event>
 4    1  0.1086582E+000  0.1960300E+03  0.7546771E-02  0.1153132E+00
         21   -1    0    0  503  502  0.00000000000E+00  0.00000000000E+00  0.30746179453E+02  0.30746179453E+02  0.00000000000E+00 0.  1.
         21   -1    0    0  501  503 -0.00000000000E+00 -0.00000000000E+00 -0.13638469729E+04  0.13638469729E+04  0.00000000000E+00 0.  1.
          6    1    1    2  501    0  0.38858061947E+02 -0.85637605849E+02 -0.46494418331E+03  0.50457986692E+03  0.17200000000E+03 0.  1.
         -6    1    1    2    0  502 -0.38858061947E+02  0.85637605849E+02 -0.86815661018E+03  0.89001328547E+03  0.17200000000E+03 0.  1.
<mgrwt>
<rscale>  2 0.19602997E+03</rscale>
<asrwt>0</asrwt>
<pdfrwt beam="1">  1       21 0.76865447E-02 0.19602997E+03</pdfrwt>
<pdfrwt beam="2">  1       21 0.34096175E+00 0.19602997E+03</pdfrwt>
<totfact> 0.25309468E+03</totfact>
</mgrwt>
</event>
<event>
 4    1  0.1086582E+000  0.2141946E+03  0.7546771E-02  0.1138287E+00
         21   -1    0    0  501  502  0.00000000000E+00  0.00000000000E+00  0.45564170376E+03  0.45564170376E+03  0.00000000000E+00 0. -1.
         21   -1    0    0  502  503 -0.00000000000E+00 -0.00000000000E+00 -0.19688421627E+03  0.19688421627E+03  0.00000000000E+00 0.  1.
          6    1    1    2  501    0  0.85393658964E+02  0.94885526557E+02  0.35743025377E+03  0.41669620403E+03  0.17200000000E+03 0. -1.
         -6    1    1    2    0  503 -0.85393658964E+02 -0.94885526557E+02 -0.98672766281E+02  0.23582971600E+03  0.17200000000E+03 0.  1.
<mgrwt>
<rscale>  2 0.21419463E+03</rscale>
<asrwt>0</asrwt>
<pdfrwt beam="1">  1       21 0.11391042E+00 0.21419463E+03</pdfrwt>
<pdfrwt beam="2">  1       21 0.49221055E-01 0.21419463E+03</pdfrwt>
<totfact> 0.23181611E+03</totfact>
</mgrwt>
</event>
<event>
 4    1  0.1086582E+000  0.1853294E+03  0.7546771E-02  0.1162743E+00
         21   -1    0    0  501  502  0.00000000000E+00  0.00000000000E+00  0.99933277117E+02  0.99933277117E+02  0.00000000000E+00 0.  1.
         21   -1    0    0  502  503 -0.00000000000E+00 -0.00000000000E+00 -0.36842270479E+03  0.36842270479E+03  0.00000000000E+00 0.  1.
          6    1    1    2  501    0  0.10451429970E+02  0.68218439976E+02 -0.19490826823E+03  0.26895393837E+03  0.17200000000E+03 0.  1.
         -6    1    1    2    0  503 -0.10451429970E+02 -0.68218439976E+02 -0.73581159444E+02  0.19940204354E+03  0.17200000000E+03 0.  1.
<mgrwt>
<rscale>  2 0.18532940E+03</rscale>
<asrwt>0</asrwt>
<pdfrwt beam="1">  1       21 0.24983320E-01 0.18532940E+03</pdfrwt>
<pdfrwt beam="2">  1       21 0.92105675E-01 0.18532940E+03</pdfrwt>
<totfact> 0.15172304E+04</totfact>
</mgrwt>
</event>
<event>
 4    1  0.1086582E+000  0.2312783E+03  0.7546771E-02  0.1125743E+00
         21   -1    0    0  501  502  0.00000000000E+00  0.00000000000E+00  0.63073241208E+03  0.63073241208E+03  0.00000000000E+00 0. -1.
         21   -1    0    0  502  503 -0.00000000000E+00 -0.00000000000E+00 -0.74256017918E+03  0.74256017918E+03  0.00000000000E+00 0.  1.
          6    1    1    2  501    0 -0.11917933154E+03  0.98498463410E+02  0.59033407368E+03  0.63402206500E+03  0.17200000000E+03 0. -1.
         -6    1    1    2    0  503  0.11917933154E+03 -0.98498463410E+02 -0.70216184077E+03  0.73927052626E+03  0.17200000000E+03 0.  1.
<mgrwt>
<rscale>  2 0.23127832E+03</rscale>
<asrwt>0</asrwt>
<pdfrwt beam="1">  1       21 0.15768310E+00 0.23127832E+03</pdfrwt>
<pdfrwt beam="2">  1       21 0.18564004E+00 0.23127832E+03</pdfrwt>
<totfact> 0.41236099E+01</totfact>
</mgrwt>
</event>
<event>
 4    1  0.1086582E+000  0.2012046E+03  0.7546771E-02  0.1148727E+00
         21   -1    0    0  503  502  0.00000000000E+00  0.00000000000E+00  0.52933996209E+03  0.52933996209E+03  0.00000000000E+00 0.  1.
         21   -1    0    0  501  503 -0.00000000000E+00 -0.00000000000E+00 -0.77235774672E+02  0.77235774672E+02  0.00000000000E+00 0. -1.
          6    1    1    2  501    0 -0.64691304395E+02  0.81940962529E+02  0.25607729013E+03  0.32566680016E+03  0.17200000000E+03 0. -1.
         -6    1    1    2    0  502  0.64691304395E+02 -0.81940962529E+02  0.19602689729E+03  0.28090893661E+03  0.17200000000E+03 0.  1.
<mgrwt>
<rscale>  2 0.20120459E+03</rscale>
<asrwt>0</asrwt>
<pdfrwt beam="1">  1       21 0.13233498E+00 0.20120459E+03</pdfrwt>
<pdfrwt beam="2">  1       21 0.19308945E-01 0.20120459E+03</pdfrwt>
<totfact> 0.10121400E+04</totfact>
</mgrwt>
</event>
<event>
 4    1  0.1086582E+000  0.2481773E+03  0.7546771E-02  0.1114462E+00
         21   -1    0    0  503  502  0.00000000000E+00  0.00000000000E+00  0.14207956710E+03  0.14207956710E+03  0.00000000000E+00 0. -1.
         21   -1    0    0  501  503 -0.00000000000E+00 -0.00000000000E+00 -0.45734483973E+03  0.45734483973E+03  0.00000000000E+00 0. -1.
          6    1    1    2  501    0 -0.62378489817E+02 -0.16768089770E+03 -0.89202123106E+02  0.26372140264E+03  0.17200000000E+03 0. -1.
         -6    1    1    2    0  502  0.62378489817E+02  0.16768089770E+03 -0.22606314952E+03  0.33570300419E+03  0.17200000000E+03 0. -1.
<mgrwt>
<rscale>  2 0.24817727E+03</rscale>
<asrwt>0</asrwt>
<pdfrwt beam="1">  1       21 0.35519892E-01 0.24817727E+03</pdfrwt>
<pdfrwt beam="2">  1       21 0.11433621E+00 0.24817727E+03</pdfrwt>
<totfact> 0.43608713E+03</totfact>
</mgrwt>
</event>
<event>
 4    1  0.1086582E+000  0.1945353E+03  0.7546771E-02  0.1154433E+00
         21   -1    0    0  501  502  0.00000000000E+00  0.00000000000E+00  0.47083607935E+02  0.47083607935E+02  0.00000000000E+00 0. -1.
         21   -1    0    0  502  503 -0.00000000000E+00 -0.00000000000E+00 -0.82604042684E+03  0.82604042684E+03  0.00000000000E+00 0. -1.
          6    1    1    2  501    0 -0.76052319447E+02 -0.49759527871E+02 -0.46117486644E+03  0.50052594672E+03  0.17200000000E+03 0. -1.
         -6    1    1    2    0  503  0.76052319447E+02  0.49759527871E+02 -0.31778195247E+03  0.37259808806E+03  0.17200000000E+03 0. -1.
<mgrwt>
<rscale>  2 0.19453526E+03</rscale>
<asrwt>0</asrwt>
<pdfrwt beam="1">  1       21 0.11770902E-01 0.19453526E+03</pdfrwt>
<pdfrwt beam="2">  1       21 0.20651010E+00 0.19453526E+03</pdfrwt>
<totfact> 0.74010394E+03</totfact>
</mgrwt>
</event>
<event>
 4    1  0.1086582E+000  0.1948106E+03  0.7546771E-02  0.1154193E+00
         21   -1    0    0  501  502  0.00000000000E+00  0.00000000000E+00  0.52232473398E+03  0.52232473398E+03  0.00000000000E+00 0. -1.
         21   -1    0    0  502  503 -0.00000000000E+00 -0.00000000000E+00 -0.93350492375E+02  0.93350492375E+02  0.00000000000E+00 0.  1.
          6    1    1    2  501    0  0.78730858040E+02  0.46568482746E+02  0.69553965285E+02  0.20685484205E+03  0.17200000000E+03 0.  1.
         -6    1    1    2    0  503 -0.78730858040E+02 -0.46568482746E+02  0.35942027632E+03  0.40882038431E+03  0.17200000000E+03 0. -1.
<mgrwt>
<rscale>  2 0.19481060E+03</rscale>
<asrwt>0</asrwt>
<pdfrwt beam="1">  1       21 0.13058118E+00 0.19481060E+03</pdfrwt>
<pdfrwt beam="2">  1       21 0.23337625E-01 0.19481060E+03</pdfrwt>
<totfact> 0.73673021E+03</totfact>
</mgrwt>
</event>
<event>
 4    1  0.1086582E+000  0.3105376E+03  0.7546771E-02  0.1080088E+00
         21   -1    0    0  501  502  0.00000000000E+00  0.00000000000E+00  0.46878298423E+03  0.46878298423E+03  0.00000000000E+00 0. -1.
         21   -1    0    0  502  503 -0.00000000000E+00 -0.00000000000E+00 -0.20971520431E+03  0.20971520431E+03  0.00000000000E+00 0.  1.
          6    1    1    2  501    0  0.68495390177E+02 -0.24931499179E+03  0.17641401796E+03  0.35714911359E+03  0.17200000000E+03 0.  1.
         -6    1    1    2    0  503 -0.68495390177E+02  0.24931499179E+03  0.82653761958E+02  0.32134907495E+03  0.17200000000E+03 0. -1.
<mgrwt>
<rscale>  2 0.31053757E+03</rscale>
<asrwt>0</asrwt>
<pdfrwt beam="1">  1       21 0.11719574E+00 0.31053757E+03</pdfrwt>
<pdfrwt beam="2">  1       21 0.52428802E-01 0.31053757E+03</pdfrwt>
<totfact> 0.17700035E+03</totfact>
</mgrwt>
</event>
<event>
 4    1  0.1086582E+000  0.2007859E+03  0.7546771E-02  0.1149078E+00
         21   -1    0    0  503  502  0.00000000000E+00  0.00000000000E+00  0.34034746470E+03  0.34034746470E+03  0.00000000000E+00 0. -1.
         21   -1    0    0  501  503 -0.00000000000E+00 -0.00000000000E+00 -0.26242514197E+03  0.26242514197E+03  0.00000000000E+00 0. -1.
          6    1    1    2  501    0 -0.54794752789E+02  0.87911897464E+02 -0.18427315769E+03  0.27252809634E+03  0.17200000000E+03 0. -1.
         -6    1    1    2    0  502  0.54794752789E+02 -0.87911897464E+02  0.26219548042E+03  0.33024451033E+03  0.17200000000E+03 0. -1.
<mgrwt>
<rscale>  2 0.20078587E+03</rscale>
<asrwt>0</asrwt>
<pdfrwt beam="1">  1       21 0.85086866E-01 0.20078587E+03</pdfrwt>
<pdfrwt beam="2">  1       21 0.65606286E-01 0.20078587E+03</pdfrwt>
<totfact> 0.25353004E+03</totfact>
</mgrwt>
</event>
<event>
 4    1  0.1086582E+000  0.2496363E+03  0.7546771E-02  0.1113535E+00
         21   -1    0    0  503  502  0.00000000000E+00  0.00000000000E+00  0.14345537963E+03  0.14345537963E+03  0.00000000000E+00 0.  1.
         21   -1    0    0  501  503 -0.00000000000E+00 -0.00000000000E+00 -0.45740750722E+03  0.45740750722E+03  0.00000000000E+00 0. -1.
          6    1    1    2  501    0 -0.67030335263E+02  0.16805124111E+03 -0.89609399017E+02  0.26523221877E+03  0.17200000000E+03 0.  1.
         -6    1    1    2    0  502  0.67030335263E+02 -0.16805124111E+03 -0.22434272858E+03  0.33563066807E+03  0.17200000000E+03 0. -1.
<mgrwt>
<rscale>  2 0.24963631E+03</rscale>
<asrwt>0</asrwt>
<pdfrwt beam="1">  1       21 0.35863845E-01 0.24963631E+03</pdfrwt>
<pdfrwt beam="2">  1       21 0.11435188E+00 0.24963631E+03</pdfrwt>
<totfact> 0.42720561E+03</totfact>
</mgrwt>
</event>
<event>
 4    1  0.1086582E+000  0.1722247E+03  0.7546771E-02  0.1175547E+00
         21   -1    0    0  503  502  0.00000000000E+00  0.00000000000E+00  0.23056549571E+03  0.23056549571E+03  0.00000000000E+00 0. -1.
         21   -1    0    0  501  503 -0.00000000000E+00 -0.00000000000E+00 -0.29727118189E+03  0.29727118189E+03  0.00000000000E+00 0. -1.
          6    1    1    2  501    0 -0.75233116386E+01 -0.45552967132E+01 -0.23212440745E+03  0.28903821803E+03  0.17200000000E+03 0. -1.
         -6    1    1    2    0  502  0.75233116386E+01  0.45552967132E+01  0.16541872128E+03  0.23879845957E+03  0.17200000000E+03 0. -1.
<mgrwt>
<rscale>  2 0.17222471E+03</rscale>
<asrwt>0</asrwt>
<pdfrwt beam="1">  1       21 0.57641374E-01 0.17222471E+03</pdfrwt>
<pdfrwt beam="2">  1       21 0.74317795E-01 0.17222471E+03</pdfrwt>
<totfact> 0.46587774E+03</totfact>
</mgrwt>
</event>
<event>
 4    1  0.1086582E+000  0.1834325E+03  0.7546771E-02  0.1164522E+00
         21   -1    0    0  501  502  0.00000000000E+00  0.00000000000E+00  0.43264688170E+02  0.43264688170E+02  0.00000000000E+00 0.  1.
         21   -1    0    0  502  503 -0.00000000000E+00 -0.00000000000E+00 -0.81527209778E+03  0.81527209778E+03  0.00000000000E+00 0.  1.
          6    1    1    2  501    0 -0.62413149221E+02  0.12964560368E+02 -0.29386563104E+03  0.34641664240E+03  0.17200000000E+03 0.  1.
         -6    1    1    2    0  503  0.62413149221E+02 -0.12964560368E+02 -0.47814177856E+03  0.51212014355E+03  0.17200000000E+03 0.  1.
<mgrwt>
<rscale>  2 0.18343250E+03</rscale>
<asrwt>0</asrwt>
<pdfrwt beam="1">  1       21 0.10816173E-01 0.18343250E+03</pdfrwt>
<pdfrwt beam="2">  1       21 0.20381801E+00 0.18343250E+03</pdfrwt>
<totfact> 0.90365809E+03</totfact>
</mgrwt>
</event>
<event>
 4    1  0.1086582E+000  0.2283571E+03  0.7546771E-02  0.1127802E+00
         21   -1    0    0  501  502  0.00000000000E+00  0.00000000000E+00  0.17071057426E+03  0.17071057426E+03  0.00000000000E+00 0.  1.
         21   -1    0    0  502  503 -0.00000000000E+00 -0.00000000000E+00 -0.35157060322E+03  0.35157060322E+03  0.00000000000E+00 0. -1.
          6    1    1    2  501    0  0.14089352306E+03 -0.52076460705E+02 -0.18499314948E+03  0.29388672640E+03  0.17200000000E+03 0. -1.
         -6    1    1    2    0  503 -0.14089352306E+03  0.52076460705E+02  0.41331205226E+01  0.22839445108E+03  0.17200000000E+03 0.  1.
<mgrwt>
<rscale>  2 0.22835705E+03</rscale>
<asrwt>0</asrwt>
<pdfrwt beam="1">  1       21 0.42677644E-01 0.22835705E+03</pdfrwt>
<pdfrwt beam="2">  1       21 0.87892650E-01 0.22835705E+03</pdfrwt>
<totfact> 0.57099127E+03</totfact>
</mgrwt>
</event>
<event>
 4    1  0.1086582E+000  0.1793481E+03  0.7546771E-02  0.1168435E+00
         21   -1    0    0  501  502  0.00000000000E+00  0.00000000000E+00  0.21032571568E+03  0.21032571568E+03  0.00000000000E+00 0.  1.
         21   -1    0    0  502  503 -0.00000000000E+00 -0.00000000000E+00 -0.24569374378E+03  0.24569374378E+03  0.00000000000E+00 0.  1.
          6    1    1    2  501    0  0.17213720377E+02  0.47806163485E+02 -0.15778411743E+03  0.23887563532E+03  0.17200000000E+03 0.  1.
         -6    1    1    2    0  503 -0.17213720377E+02 -0.47806163485E+02  0.12241608933E+03  0.21714382414E+03  0.17200000000E+03 0.  1.
<mgrwt>
<rscale>  2 0.17934810E+03</rscale>
<asrwt>0</asrwt>
<pdfrwt beam="1">  1       21 0.52581429E-01 0.17934810E+03</pdfrwt>
<pdfrwt beam="2">  1       21 0.61423436E-01 0.17934810E+03</pdfrwt>
<totfact> 0.85300643E+03</totfact>
</mgrwt>
</event>
<event>
 4    1  0.1086582E+000  0.2142073E+03  0.7546771E-02  0.1138277E+00
         21   -1    0    0  501  502  0.00000000000E+00  0.00000000000E+00  0.66474910504E+03  0.66474910504E+03  0.00000000000E+00 0.  1.
         21   -1    0    0  502  503 -0.00000000000E+00 -0.00000000000E+00 -0.10070180452E+03  0.10070180452E+03  0.00000000000E+00 0. -1.
          6    1    1    2  501    0 -0.24258857192E+02 -0.12534866845E+03  0.49667544150E+03  0.54089858109E+03  0.17200000000E+03 0.  1.
         -6    1    1    2    0  503  0.24258857192E+02  0.12534866845E+03  0.67371859017E+02  0.22455232847E+03  0.17200000000E+03 0. -1.
<mgrwt>
<rscale>  2 0.21420733E+03</rscale>
<asrwt>0</asrwt>
<pdfrwt beam="1">  1       21 0.16618726E+00 0.21420733E+03</pdfrwt>
<pdfrwt beam="2">  1       21 0.25175453E-01 0.21420733E+03</pdfrwt>
<totfact> 0.33292337E+03</totfact>
</mgrwt>
</event>
<event>
 4    1  0.1086582E+000  0.1808259E+03  0.7546771E-02  0.1167006E+00
         21   -1    0    0  501  502  0.00000000000E+00  0.00000000000E+00  0.48934384544E+03  0.48934384544E+03  0.00000000000E+00 0.  1.
         21   -1    0    0  502  503 -0.00000000000E+00 -0.00000000000E+00 -0.76533474892E+02  0.76533474892E+02  0.00000000000E+00 0.  1.
          6    1    1    2  501    0  0.14864263118E+02  0.53787009951E+02  0.10560707745E+03  0.20940593011E+03  0.17200000000E+03 0.  1.
         -6    1    1    2    0  503 -0.14864263118E+02 -0.53787009951E+02  0.30720329310E+03  0.35647139022E+03  0.17200000000E+03 0.  1.
<mgrwt>
<rscale>  2 0.18082585E+03</rscale>
<asrwt>0</asrwt>
<pdfrwt beam="1">  1       21 0.12233595E+00 0.18082585E+03</pdfrwt>
<pdfrwt beam="2">  1       21 0.19133370E-01 0.18082585E+03</pdfrwt>
<totfact> 0.12724707E+04</totfact>
</mgrwt>
</event>
<event>
 4    1  0.1086582E+000  0.1983632E+03  0.7546771E-02  0.1151127E+00
         21   -1    0    0  501  502  0.00000000000E+00  0.00000000000E+00  0.32667543526E+02  0.32667543526E+02  0.00000000000E+00 0.  1.
         21   -1    0    0  502  503 -0.00000000000E+00 -0.00000000000E+00 -0.12074482070E+04  0.12074482070E+04  0.00000000000E+00 0.  1.
          6    1    1    2  501    0  0.97844619101E+02  0.13798872550E+02 -0.55673879058E+03  0.59102120038E+03  0.17200000000E+03 0. -1.
         -6    1    1    2    0  503 -0.97844619101E+02 -0.13798872550E+02 -0.61804187291E+03  0.64909455015E+03  0.17200000000E+03 0. -1.
<mgrwt>
<rscale>  2 0.19836325E+03</rscale>
<asrwt>0</asrwt>
<pdfrwt beam="1">  1       21 0.81668865E-02 0.19836325E+03</pdfrwt>
<pdfrwt beam="2">  1       21 0.30186203E+00 0.19836325E+03</pdfrwt>
<totfact> 0.38294611E+03</totfact>
</mgrwt>
</event>
<event>
 4    1  0.1086582E+000  0.1757063E+03  0.7546771E-02  0.1172024E+00
         21   -1    0    0  503  502  0.00000000000E+00  0.00000000000E+00  0.99544974868E+02  0.99544974868E+02  0.00000000000E+00 0.  1.
         21   -1    0    0  501  503 -0.00000000000E+00 -0.00000000000E+00 -0.37284105093E+03  0.37284105093E+03  0.00000000000E+00 0.  1.
          6    1    1    2  501    0 -0.19442160001E+02 -0.30177660230E+02 -0.23350909316E+03  0.29223139008E+03  0.17200000000E+03 0.  1.
         -6    1    1    2    0  502  0.19442160001E+02  0.30177660230E+02 -0.39786982910E+02  0.18015463572E+03  0.17200000000E+03 0.  1.
<mgrwt>
<rscale>  2 0.17570626E+03</rscale>
<asrwt>0</asrwt>
<pdfrwt beam="1">  1       21 0.24886244E-01 0.17570626E+03</pdfrwt>
<pdfrwt beam="2">  1       21 0.93210262E-01 0.17570626E+03</pdfrwt>
<totfact> 0.14963121E+04</totfact>
</mgrwt>
</event>
<event>
 4    1  0.1086582E+000  0.1782444E+03  0.7546771E-02  0.1169513E+00
         21   -1    0    0  503  502  0.00000000000E+00  0.00000000000E+00  0.11104740745E+03  0.11104740745E+03  0.00000000000E+00 0. -1.
         21   -1    0    0  501  503 -0.00000000000E+00 -0.00000000000E+00 -0.48069423155E+03  0.48069423155E+03  0.00000000000E+00 0. -1.
          6    1    1    2  501    0 -0.20840450598E+02  0.41865927713E+02 -0.37307058807E+03  0.41346432007E+03  0.17200000000E+03 0. -1.
         -6    1    1    2    0  502  0.20840450598E+02 -0.41865927713E+02  0.34237639757E+01  0.17827731893E+03  0.17200000000E+03 0. -1.
<mgrwt>
<rscale>  2 0.17824444E+03</rscale>
<asrwt>0</asrwt>
<pdfrwt beam="1">  1       21 0.27761852E-01 0.17824444E+03</pdfrwt>
<pdfrwt beam="2">  1       21 0.12017356E+00 0.17824444E+03</pdfrwt>
<totfact> 0.65922985E+03</totfact>
</mgrwt>
</event>
<event>
 4    1  0.1086582E+000  0.2840120E+03  0.7546771E-02  0.1093518E+00
         21   -1    0    0  503  502  0.00000000000E+00  0.00000000000E+00  0.67402379870E+02  0.67402379870E+02  0.00000000000E+00 0.  1.
         21   -1    0    0  501  503 -0.00000000000E+00 -0.00000000000E+00 -0.12978236031E+04  0.12978236031E+04  0.00000000000E+00 0. -1.
          6    1    1    2  501    0 -0.18882529335E+03  0.12419270416E+03 -0.42470104460E+03  0.51091466651E+03  0.17200000000E+03 0.  1.
         -6    1    1    2    0  502  0.18882529335E+03 -0.12419270416E+03 -0.80572017868E+03  0.85431131650E+03  0.17200000000E+03 0. -1.
<mgrwt>
<rscale>  2 0.28401201E+03</rscale>
<asrwt>0</asrwt>
<pdfrwt beam="1">  1       21 0.16850596E-01 0.28401201E+03</pdfrwt>
<pdfrwt beam="2">  1       21 0.32445589E+00 0.28401201E+03</pdfrwt>
<totfact> 0.70188050E+02</totfact>
</mgrwt>
</event>
<event>
 4    1  0.1086582E+000  0.2168142E+03  0.7546771E-02  0.1136281E+00
         21   -1    0    0  501  502  0.00000000000E+00  0.00000000000E+00  0.92559059536E+02  0.92559059536E+02  0.00000000000E+00 0. -1.
         21   -1    0    0  502  503 -0.00000000000E+00 -0.00000000000E+00 -0.72443646520E+03  0.72443646520E+03  0.00000000000E+00 0.  1.
          6    1    1    2  501    0 -0.64198179283E+01  0.13184529460E+03 -0.53928590549E+03  0.58123806107E+03  0.17200000000E+03 0.  1.
         -6    1    1    2    0  503  0.64198179283E+01 -0.13184529460E+03 -0.92591500168E+02  0.23575746367E+03  0.17200000000E+03 0. -1.
<mgrwt>
<rscale>  2 0.21681420E+03</rscale>
<asrwt>0</asrwt>
<pdfrwt beam="1">  1       21 0.23139765E-01 0.21681420E+03</pdfrwt>
<pdfrwt beam="2">  1       21 0.18110911E+00 0.21681420E+03</pdfrwt>
<totfact> 0.30689925E+03</totfact>
</mgrwt>
</event>
<event>
 4    1  0.1086582E+000  0.2061155E+03  0.7546771E-02  0.1144680E+00
         21   -1    0    0  503  502  0.00000000000E+00  0.00000000000E+00  0.71618659389E+03  0.71618659389E+03  0.00000000000E+00 0.  1.
         21   -1    0    0  501  503 -0.00000000000E+00 -0.00000000000E+00 -0.10321331869E+03  0.10321331869E+03  0.00000000000E+00 0. -1.
          6    1    1    2  501    0 -0.76934149400E+02  0.83550788485E+02  0.39308241186E+02  0.20983025384E+03  0.17200000000E+03 0. -1.
         -6    1    1    2    0  502  0.76934149400E+02 -0.83550788485E+02  0.57366503402E+03  0.60956965874E+03  0.17200000000E+03 0.  1.
<mgrwt>
<rscale>  2 0.20611550E+03</rscale>
<asrwt>0</asrwt>
<pdfrwt beam="1">  1       21 0.17904663E+00 0.20611550E+03</pdfrwt>
<pdfrwt beam="2">  1       21 0.25803332E-01 0.20611550E+03</pdfrwt>
<totfact> 0.25998700E+03</totfact>
</mgrwt>
</event>
<event>
 4    1  0.1086582E+000  0.1868803E+03  0.7546771E-02  0.1161306E+00
         21   -1    0    0  503  502  0.00000000000E+00  0.00000000000E+00  0.42421160817E+03  0.42421160817E+03  0.00000000000E+00 0.  1.
         21   -1    0    0  501  503 -0.00000000000E+00 -0.00000000000E+00 -0.15756489224E+03  0.15756489224E+03  0.00000000000E+00 0. -1.
          6    1    1    2  501    0  0.67252395882E+02  0.28589667185E+02 -0.67684716848E+02  0.19875984181E+03  0.17200000000E+03 0. -1.
         -6    1    1    2    0  502 -0.67252395882E+02 -0.28589667185E+02  0.33433143278E+03  0.38301665860E+03  0.17200000000E+03 0.  1.
<mgrwt>
<rscale>  2 0.18688032E+03</rscale>
<asrwt>0</asrwt>
<pdfrwt beam="1">  1       21 0.10605290E+00 0.18688032E+03</pdfrwt>
<pdfrwt beam="2">  1       21 0.39391224E-01 0.18688032E+03</pdfrwt>
<totfact> 0.44526480E+03</totfact>
</mgrwt>
</event>
<event>
 4    1  0.1086582E+000  0.2274626E+03  0.7546771E-02  0.1128439E+00
         21   -1    0    0  501  502  0.00000000000E+00  0.00000000000E+00  0.18362875979E+03  0.18362875979E+03  0.00000000000E+00 0. -1.
         21   -1    0    0  502  503 -0.00000000000E+00 -0.00000000000E+00 -0.47361800460E+03  0.47361800460E+03  0.00000000000E+00 0.  1.
          6    1    1    2  501    0 -0.57306538520E+02  0.13737240387E+03  0.64163368039E+02  0.23633906681E+03  0.17200000000E+03 0. -1.
         -6    1    1    2    0  503  0.57306538520E+02 -0.13737240387E+03 -0.35415261284E+03  0.42090769758E+03  0.17200000000E+03 0.  1.
<mgrwt>
<rscale>  2 0.22746256E+03</rscale>
<asrwt>0</asrwt>
<pdfrwt beam="1">  1       21 0.45907190E-01 0.22746256E+03</pdfrwt>
<pdfrwt beam="2">  1       21 0.11840450E+00 0.22746256E+03</pdfrwt>
<totfact> 0.24103932E+03</totfact>
</mgrwt>
</event>
<event>
 4    1  0.1086582E+000  0.1819241E+03  0.7546771E-02  0.1165954E+00
         21   -1    0    0  503  502  0.00000000000E+00  0.00000000000E+00  0.16675221142E+03  0.16675221142E+03  0.00000000000E+00 0. -1.
         21   -1    0    0  501  503 -0.00000000000E+00 -0.00000000000E+00 -0.44185833940E+03  0.44185833940E+03  0.00000000000E+00 0. -1.
          6    1    1    2  501    0 -0.43076922558E+02 -0.40703196602E+02 -0.36339894030E+03  0.40639286569E+03  0.17200000000E+03 0. -1.
         -6    1    1    2    0  502  0.43076922558E+02  0.40703196602E+02  0.88292812330E+02  0.20221768513E+03  0.17200000000E+03 0. -1.
<mgrwt>
<rscale>  2 0.18192408E+03</rscale>
<asrwt>0</asrwt>
<pdfrwt beam="1">  1       21 0.41688053E-01 0.18192408E+03</pdfrwt>
<pdfrwt beam="2">  1       21 0.11046458E+00 0.18192408E+03</pdfrwt>
<totfact> 0.36142055E+03</totfact>
</mgrwt>
</event>
<event>
 4    1  0.1086582E+000  0.1927480E+03  0.7546771E-02  0.1156006E+00
         21   -1    0    0  503  502  0.00000000000E+00  0.00000000000E+00  0.12406599559E+03  0.12406599559E+03  0.00000000000E+00 0.  1.
         21   -1    0    0  501  503 -0.00000000000E+00 -0.00000000000E+00 -0.73822831942E+03  0.73822831942E+03  0.00000000000E+00 0.  1.
          6    1    1    2  501    0 -0.35041755191E+02 -0.79623221813E+02 -0.63947417052E+03  0.66789145587E+03  0.17200000000E+03 0.  1.
         -6    1    1    2    0  502  0.35041755191E+02  0.79623221813E+02  0.25311846691E+02  0.19440285914E+03  0.17200000000E+03 0.  1.
<mgrwt>
<rscale>  2 0.19274798E+03</rscale>
<asrwt>0</asrwt>
<pdfrwt beam="1">  1       21 0.31016499E-01 0.19274798E+03</pdfrwt>
<pdfrwt beam="2">  1       21 0.18455708E+00 0.19274798E+03</pdfrwt>
<totfact> 0.16924691E+03</totfact>
</mgrwt>
</event>
<event>
 4    1  0.1086582E+000  0.1957945E+03  0.7546771E-02  0.1153336E+00
         21   -1    0    0  503  502  0.00000000000E+00  0.00000000000E+00  0.25218778350E+03  0.25218778350E+03  0.00000000000E+00 0.  1.
         21   -1    0    0  501  503 -0.00000000000E+00 -0.00000000000E+00 -0.21087851782E+03  0.21087851782E+03  0.00000000000E+00 0.  1.
          6    1    1    2  501    0 -0.60855195883E+02  0.71050198290E+02 -0.10167520791E+03  0.22062033779E+03  0.17200000000E+03 0.  1.
         -6    1    1    2    0  502  0.60855195883E+02 -0.71050198290E+02  0.14298447360E+03  0.24244596353E+03  0.17200000000E+03 0.  1.
<mgrwt>
<rscale>  2 0.19579450E+03</rscale>
<asrwt>0</asrwt>
<pdfrwt beam="1">  1       21 0.63046946E-01 0.19579450E+03</pdfrwt>
<pdfrwt beam="2">  1       21 0.52719630E-01 0.19579450E+03</pdfrwt>
<totfact> 0.79243527E+03</totfact>
</mgrwt>
</event>
<event>
 4    1  0.1086582E+000  0.2422609E+03  0.7546771E-02  0.1118296E+00
         21   -1    0    0  501  502  0.00000000000E+00  0.00000000000E+00  0.12703770838E+03  0.12703770838E+03  0.00000000000E+00 0.  1.
         21   -1    0    0  502  503 -0.00000000000E+00 -0.00000000000E+00 -0.84679455193E+03  0.84679455193E+03  0.00000000000E+00 0.  1.
          6    1    1    2  501    0  0.16048297499E+03  0.57892789032E+02 -0.31643863156E+02  0.24431883750E+03  0.17200000000E+03 0.  1.
         -6    1    1    2    0  503 -0.16048297499E+03 -0.57892789032E+02 -0.68811298039E+03  0.72951342282E+03  0.17200000000E+03 0.  1.
<mgrwt>
<rscale>  2 0.24226093E+03</rscale>
<asrwt>0</asrwt>
<pdfrwt beam="1">  1       21 0.31759428E-01 0.24226093E+03</pdfrwt>
<pdfrwt beam="2">  1       21 0.21169863E+00 0.24226093E+03</pdfrwt>
<totfact> 0.10252951E+03</totfact>
</mgrwt>
</event>
<event>
 4    1  0.1086582E+000  0.1803276E+03  0.7546771E-02  0.1167486E+00
         21   -1    0    0  503  502  0.00000000000E+00  0.00000000000E+00  0.65427451399E+03  0.65427451399E+03  0.00000000000E+00 0.  1.
         21   -1    0    0  501  503 -0.00000000000E+00 -0.00000000000E+00 -0.99695029902E+02  0.99695029902E+02  0.00000000000E+00 0.  1.
          6    1    1    2  501    0 -0.37827521609E+02  0.38770164293E+02  0.54424990712E+03  0.57334632504E+03  0.17200000000E+03 0.  1.
         -6    1    1    2    0  502  0.37827521609E+02 -0.38770164293E+02  0.10329576969E+02  0.18062321886E+03  0.17200000000E+03 0.  1.
<mgrwt>
<rscale>  2 0.18032761E+03</rscale>
<asrwt>0</asrwt>
<pdfrwt beam="1">  1       21 0.16356862E+00 0.18032761E+03</pdfrwt>
<pdfrwt beam="2">  1       21 0.24923759E-01 0.18032761E+03</pdfrwt>
<totfact> 0.36536902E+03</totfact>
</mgrwt>
</event>
<event>
 4    1  0.1086582E+000  0.3654347E+03  0.7546771E-02  0.1056452E+00
         21   -1    0    0  503  502  0.00000000000E+00  0.00000000000E+00  0.38446783261E+03  0.38446783261E+03  0.00000000000E+00 0. -1.
         21   -1    0    0  501  503 -0.00000000000E+00 -0.00000000000E+00 -0.48133459697E+03  0.48133459697E+03  0.00000000000E+00 0.  1.
          6    1    1    2  501    0  0.20175868896E+03  0.25149937876E+03 -0.27683690622E+03  0.45845520908E+03  0.17200000000E+03 0.  1.
         -6    1    1    2    0  502 -0.20175868896E+03 -0.25149937876E+03  0.17997014186E+03  0.40734722050E+03  0.17200000000E+03 0. -1.
<mgrwt>
<rscale>  2 0.36543468E+03</rscale>
<asrwt>0</asrwt>
<pdfrwt beam="1">  1       21 0.96116959E-01 0.36543468E+03</pdfrwt>
<pdfrwt beam="2">  1       21 0.12033365E+00 0.36543468E+03</pdfrwt>
<totfact> 0.41087436E+02</totfact>
</mgrwt>
</event>
<event>
 4    1  0.1086582E+000  0.2044490E+03  0.7546771E-02  0.1146039E+00
         21   -1    0    0  501  502  0.00000000000E+00  0.00000000000E+00  0.28847220708E+03  0.28847220708E+03  0.00000000000E+00 0.  1.
         21   -1    0    0  502  503 -0.00000000000E+00 -0.00000000000E+00 -0.14622787317E+03  0.14622787317E+03  0.00000000000E+00 0. -1.
          6    1    1    2  501    0  0.79626657425E+02  0.76648591706E+02  0.50404403340E+02  0.21057068898E+03  0.17200000000E+03 0.  1.
         -6    1    1    2    0  503 -0.79626657425E+02 -0.76648591706E+02  0.91839930566E+02  0.22412939127E+03  0.17200000000E+03 0.  1.
<mgrwt>
<rscale>  2 0.20444904E+03</rscale>
<asrwt>0</asrwt>
<pdfrwt beam="1">  1       21 0.72118051E-01 0.20444904E+03</pdfrwt>
<pdfrwt beam="2">  1       21 0.36556969E-01 0.20444904E+03</pdfrwt>
<totfact> 0.12421060E+04</totfact>
</mgrwt>
</event>
<event>
 4    1  0.1086582E+000  0.1944547E+03  0.7546771E-02  0.1154504E+00
         21   -1    0    0  501  502  0.00000000000E+00  0.00000000000E+00  0.38289676888E+03  0.38289676888E+03  0.00000000000E+00 0.  1.
         21   -1    0    0  502  503 -0.00000000000E+00 -0.00000000000E+00 -0.20723285293E+03  0.20723285293E+03  0.00000000000E+00 0.  1.
          6    1    1    2  501    0  0.24999163498E+02  0.87199068082E+02  0.30131353712E+03  0.35861188394E+03  0.17200000000E+03 0.  1.
         -6    1    1    2    0  503 -0.24999163498E+02 -0.87199068082E+02 -0.12564962117E+03  0.23151773787E+03  0.17200000000E+03 0.  1.
<mgrwt>
<rscale>  2 0.19445471E+03</rscale>
<asrwt>0</asrwt>
<pdfrwt beam="1">  1       21 0.95724191E-01 0.19445471E+03</pdfrwt>
<pdfrwt beam="2">  1       21 0.51808214E-01 0.19445471E+03</pdfrwt>
<totfact> 0.32145343E+03</totfact>
</mgrwt>
</event>
<event>
 4    1  0.1086582E+000  0.2632842E+03  0.7546771E-02  0.1105186E+00
         21   -1    0    0  501  502  0.00000000000E+00  0.00000000000E+00  0.16987361939E+03  0.16987361939E+03  0.00000000000E+00 0.  1.
         21   -1    0    0  502  503 -0.00000000000E+00 -0.00000000000E+00 -0.70201301072E+03  0.70201301072E+03  0.00000000000E+00 0. -1.
          6    1    1    2  501    0  0.17080433299E+03 -0.10276407212E+03  0.16026113878E+02  0.26377151289E+03  0.17200000000E+03 0.  1.
         -6    1    1    2    0  503 -0.17080433299E+03  0.10276407212E+03 -0.54816550521E+03  0.60811511722E+03  0.17200000000E+03 0. -1.
<mgrwt>
<rscale>  2 0.26328421E+03</rscale>
<asrwt>0</asrwt>
<pdfrwt beam="1">  1       21 0.42468405E-01 0.26328421E+03</pdfrwt>
<pdfrwt beam="2">  1       21 0.17550325E+00 0.26328421E+03</pdfrwt>
<totfact> 0.97521609E+02</totfact>
</mgrwt>
</event>
<event>
 4    1  0.1086582E+000  0.2085446E+03  0.7546771E-02  0.1142724E+00
         21   -1    0    0  503  502  0.00000000000E+00  0.00000000000E+00  0.42641556716E+02  0.42641556716E+02  0.00000000000E+00 0. -1.
         21   -1    0    0  501  503 -0.00000000000E+00 -0.00000000000E+00 -0.11175734759E+04  0.11175734759E+04  0.00000000000E+00 0. -1.
          6    1    1    2  501    0 -0.10306602265E+03  0.57308354362E+02 -0.70894884019E+03  0.73898532496E+03  0.17200000000E+03 0. -1.
         -6    1    1    2    0  502  0.10306602265E+03 -0.57308354362E+02 -0.36598307903E+03  0.42122970769E+03  0.17200000000E+03 0. -1.
<mgrwt>
<rscale>  2 0.20854461E+03</rscale>
<asrwt>0</asrwt>
<pdfrwt beam="1">  1       21 0.10660389E-01 0.20854461E+03</pdfrwt>
<pdfrwt beam="2">  1       21 0.27939337E+00 0.20854461E+03</pdfrwt>
<totfact> 0.31929697E+03</totfact>
</mgrwt>
</event>
<event>
 4    1  0.1086582E+000  0.2810486E+03  0.7546771E-02  0.1095118E+00
         21   -1    0    0  501  502  0.00000000000E+00  0.00000000000E+00  0.14588598885E+03  0.14588598885E+03  0.00000000000E+00 0. -1.
         21   -1    0    0  502  503 -0.00000000000E+00 -0.00000000000E+00 -0.58604248561E+03  0.58604248561E+03  0.00000000000E+00 0.  1.
          6    1    1    2  501    0 -0.18145870018E+03  0.12836289211E+03 -0.11911556197E+03  0.30524876583E+03  0.17200000000E+03 0.  1.
         -6    1    1    2    0  503  0.18145870018E+03 -0.12836289211E+03 -0.32104093479E+03  0.42667970862E+03  0.17200000000E+03 0.  1.
<mgrwt>
<rscale>  2 0.28104856E+03</rscale>
<asrwt>0</asrwt>
<pdfrwt beam="1">  1       21 0.36471497E-01 0.28104856E+03</pdfrwt>
<pdfrwt beam="2">  1       21 0.14651062E+00 0.28104856E+03</pdfrwt>
<totfact> 0.21494058E+03</totfact>
</mgrwt>
</event>
<event>
 4    1  0.1086582E+000  0.2293283E+03  0.7546771E-02  0.1127113E+00
         21   -1    0    0  501  502  0.00000000000E+00  0.00000000000E+00  0.99603089120E+03  0.99603089120E+03  0.00000000000E+00 0. -1.
         21   -1    0    0  502  503 -0.00000000000E+00 -0.00000000000E+00 -0.30250715695E+03  0.30250715695E+03  0.00000000000E+00 0. -1.
          6    1    1    2  501    0  0.14137192027E+03 -0.54967760532E+02  0.93665241951E+03  0.96431801265E+03  0.17200000000E+03 0. -1.
         -6    1    1    2    0  503 -0.14137192027E+03  0.54967760532E+02 -0.24312868525E+03  0.33422003550E+03  0.17200000000E+03 0. -1.
<mgrwt>
<rscale>  2 0.22932831E+03</rscale>
<asrwt>0</asrwt>
<pdfrwt beam="1">  1       21 0.24900772E+00 0.22932831E+03</pdfrwt>
<pdfrwt beam="2">  1       21 0.75626791E-01 0.22932831E+03</pdfrwt>
<totfact> 0.99841236E+01</totfact>
</mgrwt>
</event>
<event>
 4    1  0.1086582E+000  0.1975065E+03  0.7546771E-02  0.1151860E+00
         21   -1    0    0  503  502  0.00000000000E+00  0.00000000000E+00  0.90886095539E+03  0.90886095539E+03  0.00000000000E+00 0. -1.
         21   -1    0    0  501  503 -0.00000000000E+00 -0.00000000000E+00 -0.17294951649E+03  0.17294951649E+03  0.00000000000E+00 0. -1.
          6    1    1    2  501    0  0.64669350668E+02  0.72406310136E+02 -0.10105372618E+03  0.22185728349E+03  0.17200000000E+03 0. -1.
         -6    1    1    2    0  502 -0.64669350668E+02 -0.72406310136E+02  0.83696516507E+03  0.85995318838E+03  0.17200000000E+03 0. -1.
<mgrwt>
<rscale>  2 0.19750645E+03</rscale>
<asrwt>0</asrwt>
<pdfrwt beam="1">  1       21 0.22721523E+00 0.19750645E+03</pdfrwt>
<pdfrwt beam="2">  1       21 0.43237382E-01 0.19750645E+03</pdfrwt>
<totfact> 0.46465410E+02</totfact>
</mgrwt>
</event>
<event>
 4    1  0.1086582E+000  0.1724846E+03  0.7546771E-02  0.1175281E+00
         21   -1    0    0  501  502  0.00000000000E+00  0.00000000000E+00  0.30757703914E+03  0.30757703914E+03  0.00000000000E+00 0.  1.
         21   -1    0    0  502  503 -0.00000000000E+00 -0.00000000000E+00 -0.10908045007E+03  0.10908045007E+03  0.00000000000E+00 0.  1.
          6    1    1    2  501    0 -0.12693405605E+02 -0.24090156157E+01  0.29139201845E+02  0.17492861111E+03  0.17200000000E+03 0.  1.
         -6    1    1    2    0  503  0.12693405605E+02  0.24090156157E+01  0.16935738722E+03  0.24172887810E+03  0.17200000000E+03 0.  1.
<mgrwt>
<rscale>  2 0.17248457E+03</rscale>
<asrwt>0</asrwt>
<pdfrwt beam="1">  1       21 0.76894258E-01 0.17248457E+03</pdfrwt>
<pdfrwt beam="2">  1       21 0.27270113E-01 0.17248457E+03</pdfrwt>
<totfact> 0.19519536E+04</totfact>
</mgrwt>
</event>
<event>
 4    1  0.1086582E+000  0.2638498E+03  0.7546771E-02  0.1104852E+00
         21   -1    0    0  503  502  0.00000000000E+00  0.00000000000E+00  0.17193415394E+03  0.17193415394E+03  0.00000000000E+00 0.  1.
         21   -1    0    0  501  503 -0.00000000000E+00 -0.00000000000E+00 -0.64025686832E+03  0.64025686832E+03  0.00000000000E+00 0. -1.
          6    1    1    2  501    0  0.60326676413E+02  0.19077050265E+03 -0.48037467095E+03  0.54806616121E+03  0.17200000000E+03 0. -1.
         -6    1    1    2    0  502 -0.60326676413E+02 -0.19077050265E+03  0.12051956577E+02  0.26412486105E+03  0.17200000000E+03 0.  1.
<mgrwt>
<rscale>  2 0.26384975E+03</rscale>
<asrwt>0</asrwt>
<pdfrwt beam="1">  1       21 0.42983539E-01 0.26384975E+03</pdfrwt>
<pdfrwt beam="2">  1       21 0.16006422E+00 0.26384975E+03</pdfrwt>
<totfact> 0.12279357E+03</totfact>
</mgrwt>
</event>
<event>
 4    1  0.1086582E+000  0.2263518E+03  0.7546771E-02  0.1129234E+00
         21   -1    0    0  503  502  0.00000000000E+00  0.00000000000E+00  0.27398523243E+03  0.27398523243E+03  0.00000000000E+00 0. -1.
         21   -1    0    0  501  503 -0.00000000000E+00 -0.00000000000E+00 -0.18752523918E+03  0.18752523918E+03  0.00000000000E+00 0. -1.
          6    1    1    2  501    0  0.14399045302E+03 -0.30296957331E+02  0.31014127280E+02  0.22846669839E+03  0.17200000000E+03 0. -1.
         -6    1    1    2    0  502 -0.14399045302E+03  0.30296957331E+02  0.55445865966E+02  0.23304377322E+03  0.17200000000E+03 0. -1.
<mgrwt>
<rscale>  2 0.22635184E+03</rscale>
<asrwt>0</asrwt>
<pdfrwt beam="1">  1       21 0.68496308E-01 0.22635184E+03</pdfrwt>
<pdfrwt beam="2">  1       21 0.46881310E-01 0.22635184E+03</pdfrwt>
<totfact> 0.82728356E+03</totfact>
</mgrwt>
</event>
<event>
 4    1  0.1086582E+000  0.1947457E+03  0.7546771E-02  0.1154249E+00
         21   -1    0    0  501  502  0.00000000000E+00  0.00000000000E+00  0.60810387243E+02  0.60810387243E+02  0.00000000000E+00 0.  1.
         21   -1    0    0  502  503 -0.00000000000E+00 -0.00000000000E+00 -0.63452206189E+03  0.63452206189E+03  0.00000000000E+00 0.  1.
          6    1    1    2  501    0  0.77691805698E+02 -0.48019473016E+02 -0.33231334975E+03  0.38517275200E+03  0.17200000000E+03 0.  1.
         -6    1    1    2    0  503 -0.77691805698E+02  0.48019473016E+02 -0.24139832489E+03  0.31015969713E+03  0.17200000000E+03 0.  1.
<mgrwt>
<rscale>  2 0.19474570E+03</rscale>
<asrwt>0</asrwt>
<pdfrwt beam="1">  1       21 0.15202597E-01 0.19474570E+03</pdfrwt>
<pdfrwt beam="2">  1       21 0.15863052E+00 0.19474570E+03</pdfrwt>
<totfact> 0.98451722E+03</totfact>
</mgrwt>
</event>
<event>
 4    1  0.1086582E+000  0.2862073E+03  0.7546771E-02  0.1092346E+00
         21   -1    0    0  503  502  0.00000000000E+00  0.00000000000E+00  0.94729025825E+02  0.94729025825E+02  0.00000000000E+00 0.  1.
         21   -1    0    0  501  503 -0.00000000000E+00 -0.00000000000E+00 -0.97136566746E+03  0.97136566746E+03  0.00000000000E+00 0.  1.
          6    1    1    2  501    0  0.18870669242E+03  0.12930745929E+03 -0.61493599575E+03  0.67827790297E+03  0.17200000000E+03 0.  1.
         -6    1    1    2    0  502 -0.18870669242E+03 -0.12930745929E+03 -0.26170064589E+03  0.38781679032E+03  0.17200000000E+03 0.  1.
<mgrwt>
<rscale>  2 0.28620733E+03</rscale>
<asrwt>0</asrwt>
<pdfrwt beam="1">  1       21 0.23682257E-01 0.28620733E+03</pdfrwt>
<pdfrwt beam="2">  1       21 0.24284141E+00 0.28620733E+03</pdfrwt>
<totfact> 0.11221632E+03</totfact>
</mgrwt>
</event>
<event>
 4    1  0.1086582E+000  0.2250342E+03  0.7546771E-02  0.1130185E+00
         21   -1    0    0  501  502  0.00000000000E+00  0.00000000000E+00  0.49029736406E+03  0.49029736406E+03  0.00000000000E+00 0. -1.
         21   -1    0    0  502  503 -0.00000000000E+00 -0.00000000000E+00 -0.13121899707E+03  0.13121899707E+03  0.00000000000E+00 0.  1.
          6    1    1    2  501    0 -0.14393782739E+03  0.18392681189E+02  0.32291976861E+03  0.39359568828E+03  0.17200000000E+03 0.  1.
         -6    1    1    2    0  503  0.14393782739E+03 -0.18392681189E+02  0.36158598377E+02  0.22792067285E+03  0.17200000000E+03 0. -1.
<mgrwt>
<rscale>  2 0.22503419E+03</rscale>
<asrwt>0</asrwt>
<pdfrwt beam="1">  1       21 0.12257434E+00 0.22503419E+03</pdfrwt>
<pdfrwt beam="2">  1       21 0.32804750E-01 0.22503419E+03</pdfrwt>
<totfact> 0.43678553E+03</totfact>
</mgrwt>
</event>
<event>
 4    1  0.1086582E+000  0.2418304E+03  0.7546771E-02  0.1118579E+00
         21   -1    0    0  501  502  0.00000000000E+00  0.00000000000E+00  0.16745396029E+03  0.16745396029E+03  0.00000000000E+00 0. -1.
         21   -1    0    0  502  503 -0.00000000000E+00 -0.00000000000E+00 -0.40737720870E+03  0.40737720870E+03  0.00000000000E+00 0.  1.
          6    1    1    2  501    0  0.24132207608E+02 -0.16827227571E+03 -0.11386003546E+02  0.24209825132E+03  0.17200000000E+03 0. -1.
         -6    1    1    2    0  503 -0.24132207608E+02  0.16827227571E+03 -0.22853724486E+03  0.33273291767E+03  0.17200000000E+03 0.  1.
<mgrwt>
<rscale>  2 0.24183036E+03</rscale>
<asrwt>0</asrwt>
<pdfrwt beam="1">  1       21 0.41863490E-01 0.24183036E+03</pdfrwt>
<pdfrwt beam="2">  1       21 0.10184430E+00 0.24183036E+03</pdfrwt>
<totfact> 0.41609346E+03</totfact>
</mgrwt>
</event>
<event>
 4    1  0.1086582E+000  0.2033744E+03  0.7546771E-02  0.1146923E+00
         21   -1    0    0  503  502  0.00000000000E+00  0.00000000000E+00  0.61238842339E+03  0.61238842339E+03  0.00000000000E+00 0. -1.
         21   -1    0    0  501  503 -0.00000000000E+00 -0.00000000000E+00 -0.94128978127E+02  0.94128978127E+02  0.00000000000E+00 0. -1.
          6    1    1    2  501    0 -0.10023864192E+03  0.41585600152E+02  0.71381324904E+02  0.21553756290E+03  0.17200000000E+03 0. -1.
         -6    1    1    2    0  502  0.10023864192E+03 -0.41585600152E+02  0.44687812036E+03  0.49097983862E+03  0.17200000000E+03 0. -1.
<mgrwt>
<rscale>  2 0.20337440E+03</rscale>
<asrwt>0</asrwt>
<pdfrwt beam="1">  1       21 0.15309709E+00 0.20337440E+03</pdfrwt>
<pdfrwt beam="2">  1       21 0.23532246E-01 0.20337440E+03</pdfrwt>
<totfact> 0.47696331E+03</totfact>
</mgrwt>
</event>
<event>
 4    1  0.1086582E+000  0.1800144E+03  0.7546771E-02  0.1167789E+00
         21   -1    0    0  501  502  0.00000000000E+00  0.00000000000E+00  0.69473813666E+02  0.69473813666E+02  0.00000000000E+00 0. -1.
         21   -1    0    0  502  503 -0.00000000000E+00 -0.00000000000E+00 -0.19710861216E+04  0.19710861216E+04  0.00000000000E+00 0. -1.
          6    1    1    2  501    0  0.39037113406E+02 -0.36017974504E+02 -0.59382594106E+02  0.18955601598E+03  0.17200000000E+03 0. -1.
         -6    1    1    2    0  503 -0.39037113406E+02  0.36017974504E+02 -0.18422297139E+04  0.18510039193E+04  0.17200000000E+03 0. -1.
<mgrwt>
<rscale>  2 0.18001442E+03</rscale>
<asrwt>0</asrwt>
<pdfrwt beam="1">  1       21 0.17368455E-01 0.18001442E+03</pdfrwt>
<pdfrwt beam="2">  1       21 0.49277148E+00 0.18001442E+03</pdfrwt>
<totfact> 0.65471860E+01</totfact>
</mgrwt>
</event>
<event>
 4    1  0.1086582E+000  0.1736423E+03  0.7546771E-02  0.1174102E+00
         21   -1    0    0  503  502  0.00000000000E+00  0.00000000000E+00  0.10695372210E+04  0.10695372210E+04  0.00000000000E+00 0. -1.
         21   -1    0    0  501  503 -0.00000000000E+00 -0.00000000000E+00 -0.31621836199E+02  0.31621836199E+02  0.00000000000E+00 0. -1.
          6    1    1    2  501    0 -0.20442030626E+02  0.12238222951E+02  0.33761203429E+03  0.37964922812E+03  0.17200000000E+03 0.  1.
         -6    1    1    2    0  502  0.20442030626E+02 -0.12238222951E+02  0.70030335054E+03  0.72150982910E+03  0.17200000000E+03 0.  1.
<mgrwt>
<rscale>  2 0.17364231E+03</rscale>
<asrwt>0</asrwt>
<pdfrwt beam="1">  1       21 0.26738418E+00 0.17364231E+03</pdfrwt>
<pdfrwt beam="2">  1       21 0.79054626E-02 0.17364231E+03</pdfrwt>
<totfact> 0.65845138E+03</totfact>
</mgrwt>
</event>
<event>
 4    1  0.1086582E+000  0.1747628E+03  0.7546771E-02  0.1172970E+00
         21   -1    0    0  501  502  0.00000000000E+00  0.00000000000E+00  0.46928637918E+03  0.46928637918E+03  0.00000000000E+00 0.  1.
         21   -1    0    0  502  503 -0.00000000000E+00 -0.00000000000E+00 -0.15415002050E+03  0.15415002050E+03  0.00000000000E+00 0.  1.
          6    1    1    2  501    0 -0.59793641278E+01  0.30369275988E+02  0.39451535054E+03  0.43149091245E+03  0.17200000000E+03 0.  1.
         -6    1    1    2    0  503  0.59793641278E+01 -0.30369275988E+02 -0.79378991850E+02  0.19194548723E+03  0.17200000000E+03 0.  1.
<mgrwt>
<rscale>  2 0.17476283E+03</rscale>
<asrwt>0</asrwt>
<pdfrwt beam="1">  1       21 0.11732159E+00 0.17476283E+03</pdfrwt>
<pdfrwt beam="2">  1       21 0.38537506E-01 0.17476283E+03</pdfrwt>
<totfact> 0.36822208E+03</totfact>
</mgrwt>
</event>
<event>
 4    1  0.1086582E+000  0.2436232E+03  0.7546771E-02  0.1117402E+00
         21   -1    0    0  501  502  0.00000000000E+00  0.00000000000E+00  0.49020413713E+03  0.49020413713E+03  0.00000000000E+00 0.  1.
         21   -1    0    0  502  503 -0.00000000000E+00 -0.00000000000E+00 -0.12126266096E+03  0.12126266096E+03  0.00000000000E+00 0. -1.
          6    1    1    2  501    0  0.30946004082E+02 -0.16973684923E+03  0.17249506307E+03  0.29850762124E+03  0.17200000000E+03 0. -1.
         -6    1    1    2    0  503 -0.30946004082E+02  0.16973684923E+03  0.19644641310E+03  0.31295917685E+03  0.17200000000E+03 0. -1.
<mgrwt>
<rscale>  2 0.24362318E+03</rscale>
<asrwt>0</asrwt>
<pdfrwt beam="1">  1       21 0.12255103E+00 0.24362318E+03</pdfrwt>
<pdfrwt beam="2">  1       21 0.30315666E-01 0.24362318E+03</pdfrwt>
<totfact> 0.50393769E+03</totfact>
</mgrwt>
</event>
<event>
 4    1  0.1086582E+000  0.2077696E+03  0.7546771E-02  0.1143344E+00
         21   -1    0    0  503  502  0.00000000000E+00  0.00000000000E+00  0.43039055361E+03  0.43039055361E+03  0.00000000000E+00 0.  1.
         21   -1    0    0  501  503 -0.00000000000E+00 -0.00000000000E+00 -0.13428693162E+03  0.13428693162E+03  0.00000000000E+00 0.  1.
          6    1    1    2  501    0 -0.96264205896E+02  0.65707050384E+02  0.60123658760E+01  0.20785659083E+03  0.17200000000E+03 0.  1.
         -6    1    1    2    0  502  0.96264205896E+02 -0.65707050384E+02  0.29009125611E+03  0.35682089440E+03  0.17200000000E+03 0.  1.
<mgrwt>
<rscale>  2 0.20776962E+03</rscale>
<asrwt>0</asrwt>
<pdfrwt beam="1">  1       21 0.10759764E+00 0.20776962E+03</pdfrwt>
<pdfrwt beam="2">  1       21 0.33571734E-01 0.20776962E+03</pdfrwt>
<totfact> 0.58191188E+03</totfact>
</mgrwt>
</event>
<event>
 4    1  0.1086582E+000  0.1758926E+03  0.7546771E-02  0.1171838E+00
         21   -1    0    0  503  502  0.00000000000E+00  0.00000000000E+00  0.10254361161E+03  0.10254361161E+03  0.00000000000E+00 0.  1.
         21   -1    0    0  501  503 -0.00000000000E+00 -0.00000000000E+00 -0.33889373496E+03  0.33889373496E+03  0.00000000000E+00 0.  1.
          6    1    1    2  501    0 -0.80786058667E+01  0.35901688649E+02 -0.19128852598E+03  0.25986437865E+03  0.17200000000E+03 0.  1.
         -6    1    1    2    0  502  0.80786058667E+01 -0.35901688649E+02 -0.45061597365E+02  0.18157296792E+03  0.17200000000E+03 0.  1.
<mgrwt>
<rscale>  2 0.17589257E+03</rscale>
<asrwt>0</asrwt>
<pdfrwt beam="1">  1       21 0.25635903E-01 0.17589257E+03</pdfrwt>
<pdfrwt beam="2">  1       21 0.84723433E-01 0.17589257E+03</pdfrwt>
<totfact> 0.17613473E+04</totfact>
</mgrwt>
</event>
<event>
 4    1  0.1086582E+000  0.2389168E+03  0.7546771E-02  0.1120517E+00
         21   -1    0    0  503  502  0.00000000000E+00  0.00000000000E+00  0.14561983230E+03  0.14561983230E+03  0.00000000000E+00 0.  1.
         21   -1    0    0  501  503 -0.00000000000E+00 -0.00000000000E+00 -0.41446145015E+03  0.41446145015E+03  0.00000000000E+00 0.  1.
          6    1    1    2  501    0 -0.13212190083E+03  0.10020507733E+03 -0.19963048624E+03  0.31134158932E+03  0.17200000000E+03 0.  1.
         -6    1    1    2    0  502  0.13212190083E+03 -0.10020507733E+03 -0.69211131606E+02  0.24873969313E+03  0.17200000000E+03 0.  1.
<mgrwt>
<rscale>  2 0.23891684E+03</rscale>
<asrwt>0</asrwt>
<pdfrwt beam="1">  1       21 0.36404958E-01 0.23891684E+03</pdfrwt>
<pdfrwt beam="2">  1       21 0.10361536E+00 0.23891684E+03</pdfrwt>
<totfact> 0.53066488E+03</totfact>
</mgrwt>
</event>
<event>
 4    1  0.1086582E+000  0.2899240E+03  0.7546771E-02  0.1090389E+00
         21   -1    0    0  503  502  0.00000000000E+00  0.00000000000E+00  0.34273648547E+03  0.34273648547E+03  0.00000000000E+00 0. -1.
         21   -1    0    0  501  503 -0.00000000000E+00 -0.00000000000E+00 -0.34954755884E+03  0.34954755884E+03  0.00000000000E+00 0. -1.
          6    1    1    2  501    0 -0.22320868391E+03  0.68189666902E+02 -0.19248280950E+03  0.34800226895E+03  0.17200000000E+03 0. -1.
         -6    1    1    2    0  502  0.22320868391E+03 -0.68189666902E+02  0.18567173613E+03  0.34428177535E+03  0.17200000000E+03 0. -1.
<mgrwt>
<rscale>  2 0.28992404E+03</rscale>
<asrwt>0</asrwt>
<pdfrwt beam="1">  1       21 0.85684121E-01 0.28992404E+03</pdfrwt>
<pdfrwt beam="2">  1       21 0.87386890E-01 0.28992404E+03</pdfrwt>
<totfact> 0.12238412E+03</totfact>
</mgrwt>
</event>
<event>
 4    1  0.1086582E+000  0.1939705E+03  0.7546771E-02  0.1154928E+00
         21   -1    0    0  501  502  0.00000000000E+00  0.00000000000E+00  0.89670650962E+02  0.89670650962E+02  0.00000000000E+00 0.  1.
         21   -1    0    0  502  503 -0.00000000000E+00 -0.00000000000E+00 -0.60163613040E+03  0.60163613040E+03  0.00000000000E+00 0.  1.
          6    1    1    2  501    0  0.56784819307E+02 -0.69397688774E+02 -0.65844575987E+02  0.20484155608E+03  0.17200000000E+03 0.  1.
         -6    1    1    2    0  503 -0.56784819307E+02  0.69397688774E+02 -0.44612090345E+03  0.48646522528E+03  0.17200000000E+03 0.  1.
<mgrwt>
<rscale>  2 0.19397050E+03</rscale>
<asrwt>0</asrwt>
<pdfrwt beam="1">  1       21 0.22417663E-01 0.19397050E+03</pdfrwt>
<pdfrwt beam="2">  1       21 0.15040903E+00 0.19397050E+03</pdfrwt>
<totfact> 0.55229878E+03</totfact>
</mgrwt>
</event>
<event>
 4    1  0.1086582E+000  0.2422052E+03  0.7546771E-02  0.1118332E+00
         21   -1    0    0  501  502  0.00000000000E+00  0.00000000000E+00  0.51187837915E+03  0.51187837915E+03  0.00000000000E+00 0. -1.
         21   -1    0    0  502  503 -0.00000000000E+00 -0.00000000000E+00 -0.12118714081E+03  0.12118714081E+03  0.00000000000E+00 0.  1.
          6    1    1    2  501    0 -0.16511671928E+03 -0.42612584452E+02  0.12157158798E+03  0.27100371647E+03  0.17200000000E+03 0.  1.
         -6    1    1    2    0  503  0.16511671928E+03  0.42612584452E+02  0.26911965035E+03  0.36206180349E+03  0.17200000000E+03 0. -1.
<mgrwt>
<rscale>  2 0.24220521E+03</rscale>
<asrwt>0</asrwt>
<pdfrwt beam="1">  1       21 0.12796959E+00 0.24220521E+03</pdfrwt>
<pdfrwt beam="2">  1       21 0.30296787E-01 0.24220521E+03</pdfrwt>
<totfact> 0.45279752E+03</totfact>
</mgrwt>
</event>
<event>
 4    1  0.1086582E+000  0.2184174E+03  0.7546771E-02  0.1135068E+00
         21   -1    0    0  503  502  0.00000000000E+00  0.00000000000E+00  0.46590153037E+03  0.46590153037E+03  0.00000000000E+00 0.  1.
         21   -1    0    0  501  503 -0.00000000000E+00 -0.00000000000E+00 -0.37421680606E+03  0.37421680606E+03  0.00000000000E+00 0. -1.
          6    1    1    2  501    0 -0.38136670747E+02  0.12910366906E+03 -0.31216393817E+03  0.38098882833E+03  0.17200000000E+03 0. -1.
         -6    1    1    2    0  502  0.38136670747E+02 -0.12910366906E+03  0.40384866248E+03  0.45912950810E+03  0.17200000000E+03 0.  1.
<mgrwt>
<rscale>  2 0.21841741E+03</rscale>
<asrwt>0</asrwt>
<pdfrwt beam="1">  1       21 0.11647538E+00 0.21841741E+03</pdfrwt>
<pdfrwt beam="2">  1       21 0.93554202E-01 0.21841741E+03</pdfrwt>
<totfact> 0.53096821E+02</totfact>
</mgrwt>
</event>
<event>
 4    1  0.1086582E+000  0.2137181E+03  0.7546771E-02  0.1138655E+00
         21   -1    0    0  501  502  0.00000000000E+00  0.00000000000E+00  0.50706826682E+03  0.50706826682E+03  0.00000000000E+00 0.  1.
         21   -1    0    0  502  503 -0.00000000000E+00 -0.00000000000E+00 -0.14007084382E+03  0.14007084382E+03  0.00000000000E+00 0. -1.
          6    1    1    2  501    0  0.77665740690E+02  0.10029687715E+03 -0.98093502468E+01  0.21394310972E+03  0.17200000000E+03 0. -1.
         -6    1    1    2    0  503 -0.77665740690E+02 -0.10029687715E+03  0.37680677325E+03  0.43319600092E+03  0.17200000000E+03 0.  1.
<mgrwt>
<rscale>  2 0.21371811E+03</rscale>
<asrwt>0</asrwt>
<pdfrwt beam="1">  1       21 0.12676706E+00 0.21371811E+03</pdfrwt>
<pdfrwt beam="2">  1       21 0.35017712E-01 0.21371811E+03</pdfrwt>
<totfact> 0.35573157E+03</totfact>
</mgrwt>
</event>
<event>
 4    1  0.1086582E+000  0.1739382E+03  0.7546771E-02  0.1173802E+00
         21   -1    0    0  501  502  0.00000000000E+00  0.00000000000E+00  0.70547632221E+03  0.70547632221E+03  0.00000000000E+00 0.  1.
         21   -1    0    0  502  503 -0.00000000000E+00 -0.00000000000E+00 -0.49026144108E+02  0.49026144108E+02  0.00000000000E+00 0.  1.
          6    1    1    2  501    0 -0.24722619335E+02  0.77001103133E+01  0.46174131545E+03  0.49341619552E+03  0.17200000000E+03 0.  1.
         -6    1    1    2    0  503  0.24722619335E+02 -0.77001103133E+01  0.19470886265E+03  0.26108627080E+03  0.17200000000E+03 0.  1.
<mgrwt>
<rscale>  2 0.17393821E+03</rscale>
<asrwt>0</asrwt>
<pdfrwt beam="1">  1       21 0.17636905E+00 0.17393821E+03</pdfrwt>
<pdfrwt beam="2">  1       21 0.12256538E-01 0.17393821E+03</pdfrwt>
<totfact> 0.11053169E+04</totfact>
</mgrwt>
</event>
<event>
 4    1  0.1086582E+000  0.2186431E+03  0.7546771E-02  0.1134899E+00
         21   -1    0    0  503  502  0.00000000000E+00  0.00000000000E+00  0.57496729115E+03  0.57496729115E+03  0.00000000000E+00 0.  1.
         21   -1    0    0  501  503 -0.00000000000E+00 -0.00000000000E+00 -0.18736947621E+03  0.18736947621E+03  0.00000000000E+00 0.  1.
          6    1    1    2  501    0 -0.90983574460E+02 -0.99713500487E+02 -0.90487067639E+02  0.23662777185E+03  0.17200000000E+03 0.  1.
         -6    1    1    2    0  502  0.90983574460E+02  0.99713500487E+02  0.47808488258E+03  0.52570899550E+03  0.17200000000E+03 0.  1.
<mgrwt>
<rscale>  2 0.21864307E+03</rscale>
<asrwt>0</asrwt>
<pdfrwt beam="1">  1       21 0.14374182E+00 0.21864307E+03</pdfrwt>
<pdfrwt beam="2">  1       21 0.46842370E-01 0.21864307E+03</pdfrwt>
<totfact> 0.14222203E+03</totfact>
</mgrwt>
</event>
<event>
 4    1  0.1086582E+000  0.2706587E+03  0.7546771E-02  0.1100903E+00
         21   -1    0    0  501  502  0.00000000000E+00  0.00000000000E+00  0.82436817035E+03  0.82436817035E+03  0.00000000000E+00 0. -1.
         21   -1    0    0  502  503 -0.00000000000E+00 -0.00000000000E+00 -0.13078429193E+03  0.13078429193E+03  0.00000000000E+00 0.  1.
          6    1    1    2  501    0 -0.51856923718E+02  0.20244260683E+03  0.61717546325E+03  0.67391520389E+03  0.17200000000E+03 0. -1.
         -6    1    1    2    0  503  0.51856923718E+02 -0.20244260683E+03  0.76408415166E+02  0.28123725839E+03  0.17200000000E+03 0.  1.
<mgrwt>
<rscale>  2 0.27065873E+03</rscale>
<asrwt>0</asrwt>
<pdfrwt beam="1">  1       21 0.20609203E+00 0.27065873E+03</pdfrwt>
<pdfrwt beam="2">  1       21 0.32696075E-01 0.27065873E+03</pdfrwt>
<totfact> 0.10254789E+03</totfact>
</mgrwt>
</event>
<event>
 4    1  0.1086582E+000  0.1841328E+03  0.7546771E-02  0.1163862E+00
         21   -1    0    0  503  502  0.00000000000E+00  0.00000000000E+00  0.83919477755E+03  0.83919477755E+03  0.00000000000E+00 0.  1.
         21   -1    0    0  501  503 -0.00000000000E+00 -0.00000000000E+00 -0.54848396909E+02  0.54848396909E+02  0.00000000000E+00 0.  1.
          6    1    1    2  501    0  0.65451039398E+02  0.60869716285E+01  0.62159299867E+03  0.64829217624E+03  0.17200000000E+03 0.  1.
         -6    1    1    2    0  502 -0.65451039398E+02 -0.60869716285E+01  0.16275338197E+03  0.24575099822E+03  0.17200000000E+03 0.  1.
<mgrwt>
<rscale>  2 0.18413280E+03</rscale>
<asrwt>0</asrwt>
<pdfrwt beam="1">  1       21 0.20979865E+00 0.18413280E+03</pdfrwt>
<pdfrwt beam="2">  1       21 0.13712102E-01 0.18413280E+03</pdfrwt>
<totfact> 0.54167006E+03</totfact>
</mgrwt>
</event>
<event>
 4    1  0.1086582E+000  0.1890403E+03  0.7546771E-02  0.1159330E+00
         21   -1    0    0  501  502  0.00000000000E+00  0.00000000000E+00  0.11765228603E+03  0.11765228603E+03  0.00000000000E+00 0.  1.
         21   -1    0    0  502  503 -0.00000000000E+00 -0.00000000000E+00 -0.39962845530E+03  0.39962845530E+03  0.00000000000E+00 0.  1.
          6    1    1    2  501    0 -0.18933079116E+02 -0.76116859518E+02 -0.14298467235E+02  0.18958028366E+03  0.17200000000E+03 0.  1.
         -6    1    1    2    0  503  0.18933079116E+02  0.76116859518E+02 -0.26767770204E+03  0.32770045767E+03  0.17200000000E+03 0.  1.
<mgrwt>
<rscale>  2 0.18904031E+03</rscale>
<asrwt>0</asrwt>
<pdfrwt beam="1">  1       21 0.29413072E-01 0.18904031E+03</pdfrwt>
<pdfrwt beam="2">  1       21 0.99907113E-01 0.18904031E+03</pdfrwt>
<totfact> 0.91352465E+03</totfact>
</mgrwt>
</event>
<event>
 4    1  0.1086582E+000  0.1896449E+03  0.7546771E-02  0.1158782E+00
         21   -1    0    0  503  502  0.00000000000E+00  0.00000000000E+00  0.18689266845E+03  0.18689266845E+03  0.00000000000E+00 0. -1.
         21   -1    0    0  501  503 -0.00000000000E+00 -0.00000000000E+00 -0.21502255987E+03  0.21502255987E+03  0.00000000000E+00 0. -1.
          6    1    1    2  501    0  0.73221326682E+02 -0.31934513862E+02 -0.79193606869E+02  0.20551594397E+03  0.17200000000E+03 0. -1.
         -6    1    1    2    0  502 -0.73221326682E+02  0.31934513862E+02  0.51063715451E+02  0.19639928435E+03  0.17200000000E+03 0. -1.
<mgrwt>
<rscale>  2 0.18964487E+03</rscale>
<asrwt>0</asrwt>
<pdfrwt beam="1">  1       21 0.46723167E-01 0.18964487E+03</pdfrwt>
<pdfrwt beam="2">  1       21 0.53755640E-01 0.18964487E+03</pdfrwt>
<totfact> 0.14385319E+04</totfact>
</mgrwt>
</event>
<event>
 4    1  0.1086582E+000  0.3417455E+03  0.7546771E-02  0.1066055E+00
         21   -1    0    0  503  502  0.00000000000E+00  0.00000000000E+00  0.15168489313E+04  0.15168489313E+04  0.00000000000E+00 0.  1.
         21   -1    0    0  501  503 -0.00000000000E+00 -0.00000000000E+00 -0.15380502709E+03  0.15380502709E+03  0.00000000000E+00 0. -1.
          6    1    1    2  501    0 -0.19630918296E+03  0.22060983239E+03  0.91212399945E+02  0.35370848925E+03  0.17200000000E+03 0. -1.
         -6    1    1    2    0  502  0.19630918296E+03 -0.22060983239E+03  0.12718315043E+04  0.13169454692E+04  0.17200000000E+03 0.  1.
<mgrwt>
<rscale>  2 0.34174551E+03</rscale>
<asrwt>0</asrwt>
<pdfrwt beam="1">  1       21 0.37921219E+00 0.34174551E+03</pdfrwt>
<pdfrwt beam="2">  1       21 0.38451261E-01 0.34174551E+03</pdfrwt>
<totfact> 0.62450302E+01</totfact>
</mgrwt>
</event>
<event>
 4    1  0.1086582E+000  0.1765368E+03  0.7546771E-02  0.1171197E+00
         21   -1    0    0  501  502  0.00000000000E+00  0.00000000000E+00  0.10982247120E+03  0.10982247120E+03  0.00000000000E+00 0. -1.
         21   -1    0    0  502  503 -0.00000000000E+00 -0.00000000000E+00 -0.30950338014E+03  0.30950338014E+03  0.00000000000E+00 0. -1.
          6    1    1    2  501    0 -0.10744151863E+02 -0.38285926921E+02 -0.39394648534E+02  0.18087893004E+03  0.17200000000E+03 0. -1.
         -6    1    1    2    0  503  0.10744151863E+02  0.38285926921E+02 -0.16028626041E+03  0.23844692129E+03  0.17200000000E+03 0. -1.
<mgrwt>
<rscale>  2 0.17653682E+03</rscale>
<asrwt>0</asrwt>
<pdfrwt beam="1">  1       21 0.27455618E-01 0.17653682E+03</pdfrwt>
<pdfrwt beam="2">  1       21 0.77375844E-01 0.17653682E+03</pdfrwt>
<totfact> 0.18949786E+04</totfact>
</mgrwt>
</event>
<event>
 4    1  0.1086582E+000  0.2937955E+03  0.7546771E-02  0.1088384E+00
         21   -1    0    0  503  502  0.00000000000E+00  0.00000000000E+00  0.42094777917E+03  0.42094777917E+03  0.00000000000E+00 0.  1.
         21   -1    0    0  501  503 -0.00000000000E+00 -0.00000000000E+00 -0.31664376991E+03  0.31664376991E+03  0.00000000000E+00 0.  1.
          6    1    1    2  501    0 -0.20032327642E+03  0.12885014439E+03  0.27108863891E+03  0.39975595672E+03  0.17200000000E+03 0.  1.
         -6    1    1    2    0  502  0.20032327642E+03 -0.12885014439E+03 -0.16678462964E+03  0.33783559237E+03  0.17200000000E+03 0.  1.
<mgrwt>
<rscale>  2 0.29379546E+03</rscale>
<asrwt>0</asrwt>
<pdfrwt beam="1">  1       21 0.10523694E+00 0.29379546E+03</pdfrwt>
<pdfrwt beam="2">  1       21 0.79160943E-01 0.29379546E+03</pdfrwt>
<totfact> 0.94140688E+02</totfact>
</mgrwt>
</event>
<event>
 4    1  0.1086582E+000  0.2031802E+03  0.7546771E-02  0.1147083E+00
         21   -1    0    0  501  502  0.00000000000E+00  0.00000000000E+00  0.33246679363E+03  0.33246679363E+03  0.00000000000E+00 0.  1.
         21   -1    0    0  502  503 -0.00000000000E+00 -0.00000000000E+00 -0.13395442649E+03  0.13395442649E+03  0.00000000000E+00 0. -1.
          6    1    1    2  501    0  0.71579253578E+02 -0.81083994777E+02  0.36225694737E+02  0.20638436159E+03  0.17200000000E+03 0. -1.
         -6    1    1    2    0  503 -0.71579253578E+02  0.81083994777E+02  0.16228667241E+03  0.26003685853E+03  0.17200000000E+03 0.  1.
<mgrwt>
<rscale>  2 0.20318022E+03</rscale>
<asrwt>0</asrwt>
<pdfrwt beam="1">  1       21 0.83116697E-01 0.20318022E+03</pdfrwt>
<pdfrwt beam="2">  1       21 0.33488607E-01 0.20318022E+03</pdfrwt>
<totfact> 0.10752602E+04</totfact>
</mgrwt>
</event>
<event>
 4    1  0.1086582E+000  0.1734718E+03  0.7546771E-02  0.1174275E+00
         21   -1    0    0  503  502  0.00000000000E+00  0.00000000000E+00  0.39826704690E+02  0.39826704690E+02  0.00000000000E+00 0. -1.
         21   -1    0    0  501  503 -0.00000000000E+00 -0.00000000000E+00 -0.94248623124E+03  0.94248623124E+03  0.00000000000E+00 0. -1.
          6    1    1    2  501    0  0.16902024737E+02  0.14926276446E+02 -0.67004956623E+03  0.69214080458E+03  0.17200000000E+03 0. -1.
         -6    1    1    2    0  502 -0.16902024737E+02 -0.14926276446E+02 -0.23260996032E+03  0.29017213135E+03  0.17200000000E+03 0. -1.
<mgrwt>
<rscale>  2 0.17347182E+03</rscale>
<asrwt>0</asrwt>
<pdfrwt beam="1">  1       21 0.99566761E-02 0.17347182E+03</pdfrwt>
<pdfrwt beam="2">  1       21 0.23562156E+00 0.17347182E+03</pdfrwt>
<totfact> 0.67451341E+03</totfact>
</mgrwt>
</event>
<event>
 4    1  0.1086582E+000  0.1777234E+03  0.7546771E-02  0.1170025E+00
         21   -1    0    0  501  502  0.00000000000E+00  0.00000000000E+00  0.12351284312E+03  0.12351284312E+03  0.00000000000E+00 0. -1.
         21   -1    0    0  502  503 -0.00000000000E+00 -0.00000000000E+00 -0.35413342334E+03  0.35413342334E+03  0.00000000000E+00 0. -1.
          6    1    1    2  501    0  0.23433818046E+02 -0.38111254534E+02  0.10583379677E+02  0.17803825284E+03  0.17200000000E+03 0. -1.
         -6    1    1    2    0  503 -0.23433818046E+02  0.38111254534E+02 -0.24120395990E+03  0.29960801361E+03  0.17200000000E+03 0. -1.
<mgrwt>
<rscale>  2 0.17772341E+03</rscale>
<asrwt>0</asrwt>
<pdfrwt beam="1">  1       21 0.30878211E-01 0.17772341E+03</pdfrwt>
<pdfrwt beam="2">  1       21 0.88533355E-01 0.17772341E+03</pdfrwt>
<totfact> 0.11105860E+04</totfact>
</mgrwt>
</event>
<event>
 4    1  0.1086582E+000  0.2344202E+03  0.7546771E-02  0.1123567E+00
         21   -1    0    0  503  502  0.00000000000E+00  0.00000000000E+00  0.87860871194E+02  0.87860871194E+02  0.00000000000E+00 0.  1.
         21   -1    0    0  501  503 -0.00000000000E+00 -0.00000000000E+00 -0.75159673916E+03  0.75159673916E+03  0.00000000000E+00 0.  1.
          6    1    1    2  501    0 -0.39084932677E+02 -0.15440591133E+03 -0.50382092369E+03  0.55568726867E+03  0.17200000000E+03 0.  1.
         -6    1    1    2    0  502  0.39084932677E+02  0.15440591133E+03 -0.15991494428E+03  0.28377034168E+03  0.17200000000E+03 0.  1.
<mgrwt>
<rscale>  2 0.23442017E+03</rscale>
<asrwt>0</asrwt>
<pdfrwt beam="1">  1       21 0.21965218E-01 0.23442017E+03</pdfrwt>
<pdfrwt beam="2">  1       21 0.18789918E+00 0.23442017E+03</pdfrwt>
<totfact> 0.30030847E+03</totfact>
</mgrwt>
</event>
<event>
 4    1  0.1086582E+000  0.1904716E+03  0.7546771E-02  0.1158037E+00
         21   -1    0    0  503  502  0.00000000000E+00  0.00000000000E+00  0.43069919215E+03  0.43069919215E+03  0.00000000000E+00 0.  1.
         21   -1    0    0  501  503 -0.00000000000E+00 -0.00000000000E+00 -0.90927664362E+02  0.90927664362E+02  0.00000000000E+00 0.  1.
          6    1    1    2  501    0 -0.45883658147E+02 -0.67750367153E+02  0.99120369399E+02  0.21471904891E+03  0.17200000000E+03 0. -1.
         -6    1    1    2    0  502  0.45883658147E+02  0.67750367153E+02  0.24065115839E+03  0.30690780760E+03  0.17200000000E+03 0. -1.
<mgrwt>
<rscale>  2 0.19047158E+03</rscale>
<asrwt>0</asrwt>
<pdfrwt beam="1">  1       21 0.10767479E+00 0.19047158E+03</pdfrwt>
<pdfrwt beam="2">  1       21 0.22731917E-01 0.19047158E+03</pdfrwt>
<totfact> 0.12498242E+04</totfact>
</mgrwt>
</event>
<event>
 4    1  0.1086582E+000  0.1903672E+03  0.7546771E-02  0.1158131E+00
         21   -1    0    0  503  502  0.00000000000E+00  0.00000000000E+00  0.69925853001E+02  0.69925853001E+02  0.00000000000E+00 0.  1.
         21   -1    0    0  501  503 -0.00000000000E+00 -0.00000000000E+00 -0.61331268970E+03  0.61331268970E+03  0.00000000000E+00 0.  1.
          6    1    1    2  501    0 -0.13201043434E+02  0.80507095920E+02 -0.13720426221E+03  0.23465862356E+03  0.17200000000E+03 0.  1.
         -6    1    1    2    0  502  0.13201043434E+02 -0.80507095920E+02 -0.40618257449E+03  0.44857991914E+03  0.17200000000E+03 0.  1.
<mgrwt>
<rscale>  2 0.19036717E+03</rscale>
<asrwt>0</asrwt>
<pdfrwt beam="1">  1       21 0.17481463E-01 0.19036717E+03</pdfrwt>
<pdfrwt beam="2">  1       21 0.15332817E+00 0.19036717E+03</pdfrwt>
<totfact> 0.83738490E+03</totfact>
</mgrwt>
</event>
<event>
 4    1  0.1086582E+000  0.2060197E+03  0.7546771E-02  0.1144757E+00
         21   -1    0    0  503  502  0.00000000000E+00  0.00000000000E+00  0.17703674036E+03  0.17703674036E+03  0.00000000000E+00 0.  1.
         21   -1    0    0  501  503 -0.00000000000E+00 -0.00000000000E+00 -0.75422243425E+03  0.75422243425E+03  0.00000000000E+00 0.  1.
          6    1    1    2  501    0 -0.40034480642E+01 -0.11333170206E+03 -0.67316070930E+03  0.70398113812E+03  0.17200000000E+03 0.  1.
         -6    1    1    2    0  502  0.40034480642E+01  0.11333170206E+03  0.95975015412E+02  0.22727803649E+03  0.17200000000E+03 0.  1.
<mgrwt>
<rscale>  2 0.20601966E+03</rscale>
<asrwt>0</asrwt>
<pdfrwt beam="1">  1       21 0.44259186E-01 0.20601966E+03</pdfrwt>
<pdfrwt beam="2">  1       21 0.18855560E+00 0.20601966E+03</pdfrwt>
<totfact> 0.77007419E+02</totfact>
</mgrwt>
</event>
<event>
 4    1  0.1086582E+000  0.2346434E+03  0.7546771E-02  0.1123414E+00
         21   -1    0    0  503  502  0.00000000000E+00  0.00000000000E+00  0.11623120276E+03  0.11623120276E+03  0.00000000000E+00 0.  1.
         21   -1    0    0  501  503 -0.00000000000E+00 -0.00000000000E+00 -0.52387144932E+03  0.52387144932E+03  0.00000000000E+00 0. -1.
          6    1    1    2  501    0  0.36198210699E+02 -0.15544522834E+03 -0.10476431545E+03  0.25696904728E+03  0.17200000000E+03 0. -1.
         -6    1    1    2    0  502 -0.36198210699E+02  0.15544522834E+03 -0.30287593111E+03  0.38313360479E+03  0.17200000000E+03 0.  1.
<mgrwt>
<rscale>  2 0.23464341E+03</rscale>
<asrwt>0</asrwt>
<pdfrwt beam="1">  1       21 0.29057801E-01 0.23464341E+03</pdfrwt>
<pdfrwt beam="2">  1       21 0.13096786E+00 0.23464341E+03</pdfrwt>
<totfact> 0.46566812E+03</totfact>
</mgrwt>
</event>
<event>
 4    1  0.1086582E+000  0.1872491E+03  0.7546771E-02  0.1160966E+00
         21   -1    0    0  501  502  0.00000000000E+00  0.00000000000E+00  0.99677188604E+02  0.99677188604E+02  0.00000000000E+00 0. -1.
         21   -1    0    0  502  503 -0.00000000000E+00 -0.00000000000E+00 -0.36443071075E+03  0.36443071075E+03  0.00000000000E+00 0. -1.
          6    1    1    2  501    0 -0.17516222900E+02  0.71912444618E+02 -0.89103310329E+02  0.20736831404E+03  0.17200000000E+03 0. -1.
         -6    1    1    2    0  503  0.17516222900E+02 -0.71912444618E+02 -0.17565021181E+03  0.25673958531E+03  0.17200000000E+03 0. -1.
<mgrwt>
<rscale>  2 0.18724908E+03</rscale>
<asrwt>0</asrwt>
<pdfrwt beam="1">  1       21 0.24919298E-01 0.18724908E+03</pdfrwt>
<pdfrwt beam="2">  1       21 0.91107676E-01 0.18724908E+03</pdfrwt>
<totfact> 0.15617860E+04</totfact>
</mgrwt>
</event>
<event>
 4    1  0.1086582E+000  0.1838323E+03  0.7546771E-02  0.1164145E+00
         21   -1    0    0  501  502  0.00000000000E+00  0.00000000000E+00  0.11381143285E+03  0.11381143285E+03  0.00000000000E+00 0. -1.
         21   -1    0    0  502  503 -0.00000000000E+00 -0.00000000000E+00 -0.29794737689E+03  0.29794737689E+03  0.00000000000E+00 0. -1.
          6    1    1    2  501    0  0.97703970557E+01 -0.64147267577E+02 -0.10408268758E+03  0.21125230993E+03  0.17200000000E+03 0.  1.
         -6    1    1    2    0  503 -0.97703970557E+01  0.64147267577E+02 -0.80053256458E+02  0.20050649981E+03  0.17200000000E+03 0.  1.
<mgrwt>
<rscale>  2 0.18383235E+03</rscale>
<asrwt>0</asrwt>
<pdfrwt beam="1">  1       21 0.28452858E-01 0.18383235E+03</pdfrwt>
<pdfrwt beam="2">  1       21 0.74486844E-01 0.18383235E+03</pdfrwt>
<totfact> 0.19170382E+04</totfact>
</mgrwt>
</event>
<event>
 4    1  0.1086582E+000  0.3654962E+03  0.7546771E-02  0.1056429E+00
         21   -1    0    0  503  502  0.00000000000E+00  0.00000000000E+00  0.72955852637E+03  0.72955852637E+03  0.00000000000E+00 0. -1.
         21   -1    0    0  501  503 -0.00000000000E+00 -0.00000000000E+00 -0.18760249758E+03  0.18760249758E+03  0.00000000000E+00 0.  1.
          6    1    1    2  501    0  0.31080366713E+03  0.86049909601E+02  0.19999250221E+03  0.41663474097E+03  0.17200000000E+03 0. -1.
         -6    1    1    2    0  502 -0.31080366713E+03 -0.86049909601E+02  0.34196352659E+03  0.50052628298E+03  0.17200000000E+03 0.  1.
<mgrwt>
<rscale>  2 0.36549625E+03</rscale>
<asrwt>0</asrwt>
<pdfrwt beam="1">  1       21 0.18238962E+00 0.36549625E+03</pdfrwt>
<pdfrwt beam="2">  1       21 0.46900626E-01 0.36549625E+03</pdfrwt>
<totfact> 0.66268822E+02</totfact>
</mgrwt>
</event>
<event>
 4    1  0.1086582E+000  0.2692472E+03  0.7546771E-02  0.1101711E+00
         21   -1    0    0  501  502  0.00000000000E+00  0.00000000000E+00  0.33250377350E+03  0.33250377350E+03  0.00000000000E+00 0. -1.
         21   -1    0    0  502  503 -0.00000000000E+00 -0.00000000000E+00 -0.30828232574E+03  0.30828232574E+03  0.00000000000E+00 0.  1.
          6    1    1    2  501    0 -0.11118258898E+03  0.17478129471E+03  0.18547135614E+03  0.32694600934E+03  0.17200000000E+03 0. -1.
         -6    1    1    2    0  503  0.11118258898E+03 -0.17478129471E+03 -0.16124990838E+03  0.31384008990E+03  0.17200000000E+03 0.  1.
<mgrwt>
<rscale>  2 0.26924723E+03</rscale>
<asrwt>0</asrwt>
<pdfrwt beam="1">  1       21 0.83125943E-01 0.26924723E+03</pdfrwt>
<pdfrwt beam="2">  1       21 0.77070581E-01 0.26924723E+03</pdfrwt>
<totfact> 0.17751288E+03</totfact>
</mgrwt>
</event>
<event>
 4    1  0.1086582E+000  0.2383047E+03  0.7546771E-02  0.1120927E+00
         21   -1    0    0  501  502  0.00000000000E+00  0.00000000000E+00  0.16735138988E+04  0.16735138988E+04  0.00000000000E+00 0. -1.
         21   -1    0    0  502  503 -0.00000000000E+00 -0.00000000000E+00 -0.43082167313E+02  0.43082167313E+02  0.00000000000E+00 0.  1.
          6    1    1    2  501    0 -0.14588014949E+03 -0.76968178174E+02  0.12107236246E+04  0.12339533272E+04  0.17200000000E+03 0. -1.
         -6    1    1    2    0  503  0.14588014949E+03  0.76968178174E+02  0.41970810687E+03  0.48264273893E+03  0.17200000000E+03 0.  1.
<mgrwt>
<rscale>  2 0.23830468E+03</rscale>
<asrwt>0</asrwt>
<pdfrwt beam="1">  1       21 0.41837826E+00 0.23830468E+03</pdfrwt>
<pdfrwt beam="2">  1       21 0.10770547E-01 0.23830468E+03</pdfrwt>
<totfact> 0.44356588E+02</totfact>
</mgrwt>
</event>
<event>
 4    1  0.1086582E+000  0.3263278E+03  0.7546771E-02  0.1072773E+00
         21   -1    0    0  501  502  0.00000000000E+00  0.00000000000E+00  0.40032525305E+03  0.40032525305E+03  0.00000000000E+00 0. -1.
         21   -1    0    0  502  503 -0.00000000000E+00 -0.00000000000E+00 -0.26804563487E+03  0.26804563487E+03  0.00000000000E+00 0. -1.
          6    1    1    2  501    0 -0.14588184422E+03  0.23584813653E+03  0.37005138084E+02  0.32841929940E+03  0.17200000000E+03 0. -1.
         -6    1    1    2    0  503  0.14588184422E+03 -0.23584813653E+03  0.95274480103E+02  0.33995158852E+03  0.17200000000E+03 0. -1.
<mgrwt>
<rscale>  2 0.32632784E+03</rscale>
<asrwt>0</asrwt>
<pdfrwt beam="1">  1       21 0.10008131E+00 0.32632784E+03</pdfrwt>
<pdfrwt beam="2">  1       21 0.67011409E-01 0.32632784E+03</pdfrwt>
<totfact> 0.15162840E+03</totfact>
</mgrwt>
</event>
<event>
 4    1  0.1086582E+000  0.1797989E+03  0.7546771E-02  0.1167998E+00
         21   -1    0    0  503  502  0.00000000000E+00  0.00000000000E+00  0.12071278054E+04  0.12071278054E+04  0.00000000000E+00 0.  1.
         21   -1    0    0  501  503 -0.00000000000E+00 -0.00000000000E+00 -0.33984832715E+02  0.33984832715E+02  0.00000000000E+00 0. -1.
          6    1    1    2  501    0  0.44208626333E+02 -0.28093513904E+02  0.87228545280E+03  0.89062312980E+03  0.17200000000E+03 0.  1.
         -6    1    1    2    0  502 -0.44208626333E+02  0.28093513904E+02  0.30085751986E+03  0.35048950829E+03  0.17200000000E+03 0. -1.
<mgrwt>
<rscale>  2 0.17979891E+03</rscale>
<asrwt>0</asrwt>
<pdfrwt beam="1">  1       21 0.30178181E+00 0.17979891E+03</pdfrwt>
<pdfrwt beam="2">  1       21 0.84962122E-02 0.17979891E+03</pdfrwt>
<totfact> 0.36602036E+03</totfact>
</mgrwt>
</event>
<event>
 4    1  0.1086582E+000  0.2122533E+03  0.7546771E-02  0.1139794E+00
         21   -1    0    0  501  502  0.00000000000E+00  0.00000000000E+00  0.12171189157E+03  0.12171189157E+03  0.00000000000E+00 0. -1.
         21   -1    0    0  502  503 -0.00000000000E+00 -0.00000000000E+00 -0.38202242045E+03  0.38202242045E+03  0.00000000000E+00 0.  1.
          6    1    1    2  501    0 -0.54460990804E+02  0.11180995518E+03 -0.85750920627E+02  0.22892069803E+03  0.17200000000E+03 0.  1.
         -6    1    1    2    0  503  0.54460990804E+02 -0.11180995518E+03 -0.17455960826E+03  0.27481361399E+03  0.17200000000E+03 0. -1.
<mgrwt>
<rscale>  2 0.21225331E+03</rscale>
<asrwt>0</asrwt>
<pdfrwt beam="1">  1       21 0.30427973E-01 0.21225331E+03</pdfrwt>
<pdfrwt beam="2">  1       21 0.95505604E-01 0.21225331E+03</pdfrwt>
<totfact> 0.93547307E+03</totfact>
</mgrwt>
</event>
<event>
 4    1  0.1086582E+000  0.1844629E+03  0.7546771E-02  0.1163552E+00
         21   -1    0    0  501  502  0.00000000000E+00  0.00000000000E+00  0.23478427738E+03  0.23478427738E+03  0.00000000000E+00 0. -1.
         21   -1    0    0  502  503 -0.00000000000E+00 -0.00000000000E+00 -0.53973670473E+03  0.53973670473E+03  0.00000000000E+00 0. -1.
          6    1    1    2  501    0  0.58758364037E+02  0.31464687488E+02  0.17873584964E+03  0.25685224517E+03  0.17200000000E+03 0. -1.
         -6    1    1    2    0  503 -0.58758364037E+02 -0.31464687488E+02 -0.48368827699E+03  0.51766873693E+03  0.17200000000E+03 0. -1.
<mgrwt>
<rscale>  2 0.18446293E+03</rscale>
<asrwt>0</asrwt>
<pdfrwt beam="1">  1       21 0.58696070E-01 0.18446293E+03</pdfrwt>
<pdfrwt beam="2">  1       21 0.13493417E+00 0.18446293E+03</pdfrwt>
<totfact> 0.10774810E+03</totfact>
</mgrwt>
</event>
<event>
 4    1  0.1086582E+000  0.1950637E+03  0.7546771E-02  0.1153972E+00
         21   -1    0    0  503  502  0.00000000000E+00  0.00000000000E+00  0.91115535697E+03  0.91115535697E+03  0.00000000000E+00 0. -1.
         21   -1    0    0  501  503 -0.00000000000E+00 -0.00000000000E+00 -0.42125699093E+02  0.42125699093E+02  0.00000000000E+00 0. -1.
          6    1    1    2  501    0  0.76668102171E+00 -0.92006858771E+02  0.47892453966E+03  0.51712528902E+03  0.17200000000E+03 0. -1.
         -6    1    1    2    0  502 -0.76668102171E+00  0.92006858771E+02  0.39010511822E+03  0.43615576704E+03  0.17200000000E+03 0. -1.
<mgrwt>
<rscale>  2 0.19506371E+03</rscale>
<asrwt>0</asrwt>
<pdfrwt beam="1">  1       21 0.22778877E+00 0.19506371E+03</pdfrwt>
<pdfrwt beam="2">  1       21 0.10531428E-01 0.19506371E+03</pdfrwt>
<totfact> 0.66622364E+03</totfact>
</mgrwt>
</event>
<event>
 4    1  0.1086582E+000  0.1994517E+03  0.7546771E-02  0.1150202E+00
         21   -1    0    0  501  502  0.00000000000E+00  0.00000000000E+00  0.29673305563E+03  0.29673305563E+03  0.00000000000E+00 0. -1.
         21   -1    0    0  502  503 -0.00000000000E+00 -0.00000000000E+00 -0.19135360471E+03  0.19135360471E+03  0.00000000000E+00 0.  1.
          6    1    1    2  501    0  0.85329045127E+02 -0.53999245303E+02  0.18622309278E+03  0.27287360576E+03  0.17200000000E+03 0. -1.
         -6    1    1    2    0  503 -0.85329045127E+02  0.53999245303E+02 -0.80843641848E+02  0.21521305458E+03  0.17200000000E+03 0.  1.
<mgrwt>
<rscale>  2 0.19945166E+03</rscale>
<asrwt>0</asrwt>
<pdfrwt beam="1">  1       21 0.74183263E-01 0.19945166E+03</pdfrwt>
<pdfrwt beam="2">  1       21 0.47838402E-01 0.19945166E+03</pdfrwt>
<totfact> 0.67710139E+03</totfact>
</mgrwt>
</event>
<event>
 4    1  0.1086582E+000  0.1839094E+03  0.7546771E-02  0.1164072E+00
         21   -1    0    0  501  502  0.00000000000E+00  0.00000000000E+00  0.17209810114E+03  0.17209810114E+03  0.00000000000E+00 0. -1.
         21   -1    0    0  502  503 -0.00000000000E+00 -0.00000000000E+00 -0.26008347744E+03  0.26008347744E+03  0.00000000000E+00 0. -1.
          6    1    1    2  501    0  0.22848810661E+02 -0.60964068114E+02  0.62825363155E+02  0.19434431303E+03  0.17200000000E+03 0. -1.
         -6    1    1    2    0  503 -0.22848810661E+02  0.60964068114E+02 -0.15081073946E+03  0.23783726555E+03  0.17200000000E+03 0. -1.
<mgrwt>
<rscale>  2 0.18390945E+03</rscale>
<asrwt>0</asrwt>
<pdfrwt beam="1">  1       21 0.43024526E-01 0.18390945E+03</pdfrwt>
<pdfrwt beam="2">  1       21 0.65020869E-01 0.18390945E+03</pdfrwt>
<totfact> 0.11380742E+04</totfact>
</mgrwt>
</event>
<event>
 4    1  0.1086582E+000  0.1996658E+03  0.7546771E-02  0.1150021E+00
         21   -1    0    0  503  502  0.00000000000E+00  0.00000000000E+00  0.45877592234E+03  0.45877592234E+03  0.00000000000E+00 0.  1.
         21   -1    0    0  501  503 -0.00000000000E+00 -0.00000000000E+00 -0.16199570535E+03  0.16199570535E+03  0.00000000000E+00 0.  1.
          6    1    1    2  501    0 -0.96923276920E+02  0.29804262590E+02 -0.62941910557E+02  0.20935161758E+03  0.17200000000E+03 0.  1.
         -6    1    1    2    0  502  0.96923276920E+02 -0.29804262590E+02  0.35972212755E+03  0.41142001012E+03  0.17200000000E+03 0.  1.
<mgrwt>
<rscale>  2 0.19966576E+03</rscale>
<asrwt>0</asrwt>
<pdfrwt beam="1">  1       21 0.11469398E+00 0.19966576E+03</pdfrwt>
<pdfrwt beam="2">  1       21 0.40498927E-01 0.19966576E+03</pdfrwt>
<totfact> 0.34457748E+03</totfact>
</mgrwt>
</event>
<event>
 4    1  0.1086582E+000  0.1913621E+03  0.7546771E-02  0.1157239E+00
         21   -1    0    0  501  502  0.00000000000E+00  0.00000000000E+00  0.20668548592E+03  0.20668548592E+03  0.00000000000E+00 0. -1.
         21   -1    0    0  502  503 -0.00000000000E+00 -0.00000000000E+00 -0.21604454802E+03  0.21604454802E+03  0.00000000000E+00 0.  1.
          6    1    1    2  501    0 -0.78538160170E+02  0.29448212228E+02  0.84974093419E+02  0.20938012408E+03  0.17200000000E+03 0.  1.
         -6    1    1    2    0  503  0.78538160170E+02 -0.29448212228E+02 -0.94333155527E+02  0.21334990986E+03  0.17200000000E+03 0. -1.
<mgrwt>
<rscale>  2 0.19136206E+03</rscale>
<asrwt>0</asrwt>
<pdfrwt beam="1">  1       21 0.51671372E-01 0.19136206E+03</pdfrwt>
<pdfrwt beam="2">  1       21 0.54011137E-01 0.19136206E+03</pdfrwt>
<totfact> 0.11539916E+04</totfact>
</mgrwt>
</event>
<event>
 4    1  0.1086582E+000  0.2021632E+03  0.7546771E-02  0.1147927E+00
         21   -1    0    0  501  502  0.00000000000E+00  0.00000000000E+00  0.19640886363E+03  0.19640886363E+03  0.00000000000E+00 0.  1.
         21   -1    0    0  502  503 -0.00000000000E+00 -0.00000000000E+00 -0.20812608835E+03  0.20812608835E+03  0.00000000000E+00 0.  1.
          6    1    1    2  501    0  0.10409115505E+03 -0.21236254088E+02 -0.30536061745E+01  0.20218622989E+03  0.17200000000E+03 0.  1.
         -6    1    1    2    0  503 -0.10409115505E+03  0.21236254088E+02 -0.86636185494E+01  0.20234872209E+03  0.17200000000E+03 0.  1.
<mgrwt>
<rscale>  2 0.20216317E+03</rscale>
<asrwt>0</asrwt>
<pdfrwt beam="1">  1       21 0.49102216E-01 0.20216317E+03</pdfrwt>
<pdfrwt beam="2">  1       21 0.52031522E-01 0.20216317E+03</pdfrwt>
<totfact> 0.13787358E+04</totfact>
</mgrwt>
</event>
<event>
 4    1  0.1086582E+000  0.2155588E+03  0.7546771E-02  0.1137238E+00
         21   -1    0    0  503  502  0.00000000000E+00  0.00000000000E+00  0.17164156644E+03  0.17164156644E+03  0.00000000000E+00 0. -1.
         21   -1    0    0  501  503 -0.00000000000E+00 -0.00000000000E+00 -0.27770290674E+03  0.27770290674E+03  0.00000000000E+00 0.  1.
          6    1    1    2  501    0 -0.72738056448E+02  0.10766049146E+03 -0.88675320713E+02  0.23308564688E+03  0.17200000000E+03 0. -1.
         -6    1    1    2    0  502  0.72738056448E+02 -0.10766049146E+03 -0.17386019583E+02  0.21625882630E+03  0.17200000000E+03 0.  1.
<mgrwt>
<rscale>  2 0.21555882E+03</rscale>
<asrwt>0</asrwt>
<pdfrwt beam="1">  1       21 0.42910392E-01 0.21555882E+03</pdfrwt>
<pdfrwt beam="2">  1       21 0.69425726E-01 0.21555882E+03</pdfrwt>
<totfact> 0.97031521E+03</totfact>
</mgrwt>
</event>
<event>
 4    1  0.1086582E+000  0.2050035E+03  0.7546771E-02  0.1145585E+00
         21   -1    0    0  503  502  0.00000000000E+00  0.00000000000E+00  0.12927791592E+03  0.12927791592E+03  0.00000000000E+00 0.  1.
         21   -1    0    0  501  503 -0.00000000000E+00 -0.00000000000E+00 -0.37020834060E+03  0.37020834060E+03  0.00000000000E+00 0. -1.
          6    1    1    2  501    0  0.11042479079E+03 -0.15773854882E+02 -0.20765506564E+03  0.29179971762E+03  0.17200000000E+03 0. -1.
         -6    1    1    2    0  502 -0.11042479079E+03  0.15773854882E+02 -0.33275359034E+02  0.20768653889E+03  0.17200000000E+03 0.  1.
<mgrwt>
<rscale>  2 0.20500353E+03</rscale>
<asrwt>0</asrwt>
<pdfrwt beam="1">  1       21 0.32319479E-01 0.20500353E+03</pdfrwt>
<pdfrwt beam="2">  1       21 0.92552084E-01 0.20500353E+03</pdfrwt>
<totfact> 0.89892179E+03</totfact>
</mgrwt>
</event>
<event>
 4    1  0.1086582E+000  0.1944125E+03  0.7546771E-02  0.1154541E+00
         21   -1    0    0  501  502  0.00000000000E+00  0.00000000000E+00  0.66100461883E+03  0.66100461883E+03  0.00000000000E+00 0. -1.
         21   -1    0    0  502  503 -0.00000000000E+00 -0.00000000000E+00 -0.74701713336E+02  0.74701713336E+02  0.00000000000E+00 0. -1.
          6    1    1    2  501    0 -0.21985739970E+02 -0.87913957289E+02  0.47130629958E+03  0.50982925051E+03  0.17200000000E+03 0. -1.
         -6    1    1    2    0  503  0.21985739970E+02  0.87913957289E+02  0.11499660592E+03  0.22587708166E+03  0.17200000000E+03 0. -1.
<mgrwt>
<rscale>  2 0.19441254E+03</rscale>
<asrwt>0</asrwt>
<pdfrwt beam="1">  1       21 0.16525114E+00 0.19441254E+03</pdfrwt>
<pdfrwt beam="2">  1       21 0.18675430E-01 0.19441254E+03</pdfrwt>
<totfact> 0.60383961E+03</totfact>
</mgrwt>
</event>
<event>
 4    1  0.1086582E+000  0.1840748E+03  0.7546771E-02  0.1163917E+00
         21   -1    0    0  501  502  0.00000000000E+00  0.00000000000E+00  0.40908247822E+02  0.40908247822E+02  0.00000000000E+00 0.  1.
         21   -1    0    0  502  503 -0.00000000000E+00 -0.00000000000E+00 -0.11610591173E+04  0.11610591173E+04  0.00000000000E+00 0.  1.
          6    1    1    2  501    0  0.60778912059E+02  0.24605924999E+02 -0.23832966780E+03  0.30113876909E+03  0.17200000000E+03 0.  1.
         -6    1    1    2    0  503 -0.60778912059E+02 -0.24605924999E+02 -0.88182120165E+03  0.90082859600E+03  0.17200000000E+03 0.  1.
<mgrwt>
<rscale>  2 0.18407479E+03</rscale>
<asrwt>0</asrwt>
<pdfrwt beam="1">  1       21 0.10227062E-01 0.18407479E+03</pdfrwt>
<pdfrwt beam="2">  1       21 0.29026478E+00 0.18407479E+03</pdfrwt>
<totfact> 0.30606810E+03</totfact>
</mgrwt>
</event>
<event>
 4    1  0.1086582E+000  0.2339137E+03  0.7546771E-02  0.1123915E+00
         21   -1    0    0  503  502  0.00000000000E+00  0.00000000000E+00  0.15752190690E+03  0.15752190690E+03  0.00000000000E+00 0.  1.
         21   -1    0    0  501  503 -0.00000000000E+00 -0.00000000000E+00 -0.34812787588E+03  0.34812787588E+03  0.00000000000E+00 0. -1.
          6    1    1    2  501    0 -0.14610062137E+03 -0.61532260121E+02 -0.10723565930E+03  0.25732294345E+03  0.17200000000E+03 0. -1.
         -6    1    1    2    0  502  0.14610062137E+03  0.61532260121E+02 -0.83370309681E+02  0.24832683934E+03  0.17200000000E+03 0.  1.
<mgrwt>
<rscale>  2 0.23391368E+03</rscale>
<asrwt>0</asrwt>
<pdfrwt beam="1">  1       21 0.39380477E-01 0.23391368E+03</pdfrwt>
<pdfrwt beam="2">  1       21 0.87031968E-01 0.23391368E+03</pdfrwt>
<totfact> 0.68555665E+03</totfact>
</mgrwt>
</event>
<event>
 4    1  0.1086582E+000  0.1997689E+03  0.7546771E-02  0.1149934E+00
         21   -1    0    0  503  502  0.00000000000E+00  0.00000000000E+00  0.17368113234E+03  0.17368113234E+03  0.00000000000E+00 0. -1.
         21   -1    0    0  501  503 -0.00000000000E+00 -0.00000000000E+00 -0.23944572559E+03  0.23944572559E+03  0.00000000000E+00 0.  1.
          6    1    1    2  501    0 -0.74977504865E+02 -0.68571142144E+02 -0.74394284087E+02  0.21317161461E+03  0.17200000000E+03 0.  1.
         -6    1    1    2    0  502  0.74977504865E+02  0.68571142144E+02  0.86296908382E+01  0.19995524333E+03  0.17200000000E+03 0. -1.
<mgrwt>
<rscale>  2 0.19976894E+03</rscale>
<asrwt>0</asrwt>
<pdfrwt beam="1">  1       21 0.43420283E-01 0.19976894E+03</pdfrwt>
<pdfrwt beam="2">  1       21 0.59861431E-01 0.19976894E+03</pdfrwt>
<totfact> 0.13215359E+04</totfact>
</mgrwt>
</event>
<event>
 4    1  0.1086582E+000  0.1937060E+03  0.7546771E-02  0.1155161E+00
         21   -1    0    0  501  502  0.00000000000E+00  0.00000000000E+00  0.54459897147E+03  0.54459897147E+03  0.00000000000E+00 0. -1.
         21   -1    0    0  502  503 -0.00000000000E+00 -0.00000000000E+00 -0.72982587943E+02  0.72982587943E+02  0.00000000000E+00 0. -1.
          6    1    1    2  501    0  0.63976381708E+01  0.88865575828E+02  0.30885569072E+03  0.36457352898E+03  0.17200000000E+03 0. -1.
         -6    1    1    2    0  503 -0.63976381708E+01 -0.88865575828E+02  0.16276069281E+03  0.25300803043E+03  0.17200000000E+03 0. -1.
<mgrwt>
<rscale>  2 0.19370602E+03</rscale>
<asrwt>0</asrwt>
<pdfrwt beam="1">  1       21 0.13614973E+00 0.19370602E+03</pdfrwt>
<pdfrwt beam="2">  1       21 0.18245649E-01 0.19370602E+03</pdfrwt>
<totfact> 0.10518574E+04</totfact>
</mgrwt>
</event>
<event>
 4    1  0.1086582E+000  0.1804136E+03  0.7546771E-02  0.1167403E+00
         21   -1    0    0  501  502  0.00000000000E+00  0.00000000000E+00  0.11509828231E+04  0.11509828231E+04  0.00000000000E+00 0.  1.
         21   -1    0    0  502  503 -0.00000000000E+00 -0.00000000000E+00 -0.38787228125E+02  0.38787228125E+02  0.00000000000E+00 0.  1.
          6    1    1    2  501    0  0.38921532341E+02 -0.38081239017E+02  0.86572977971E+03  0.88432862552E+03  0.17200000000E+03 0.  1.
         -6    1    1    2    0  503 -0.38921532341E+02  0.38081239017E+02  0.24646581531E+03  0.30544142575E+03  0.17200000000E+03 0.  1.
<mgrwt>
<rscale>  2 0.18041360E+03</rscale>
<asrwt>0</asrwt>
<pdfrwt beam="1">  1       21 0.28774559E+00 0.18041360E+03</pdfrwt>
<pdfrwt beam="2">  1       21 0.96968108E-02 0.18041360E+03</pdfrwt>
<totfact> 0.34917029E+03</totfact>
</mgrwt>
</event>
<event>
 4    1  0.1086582E+000  0.2014703E+03  0.7546771E-02  0.1148504E+00
         21   -1    0    0  501  502  0.00000000000E+00  0.00000000000E+00  0.69589387903E+03  0.69589387903E+03  0.00000000000E+00 0. -1.
         21   -1    0    0  502  503 -0.00000000000E+00 -0.00000000000E+00 -0.69784583317E+02  0.69784583317E+02  0.00000000000E+00 0.  1.
          6    1    1    2  501    0  0.34924956965E+02 -0.98926848253E+02  0.15793762435E+03  0.25599720137E+03  0.17200000000E+03 0.  1.
         -6    1    1    2    0  503 -0.34924956965E+02  0.98926848253E+02  0.46817167136E+03  0.50968126097E+03  0.17200000000E+03 0. -1.
<mgrwt>
<rscale>  2 0.20147028E+03</rscale>
<asrwt>0</asrwt>
<pdfrwt beam="1">  1       21 0.17397345E+00 0.20147028E+03</pdfrwt>
<pdfrwt beam="2">  1       21 0.17446148E-01 0.20147028E+03</pdfrwt>
<totfact> 0.59093256E+03</totfact>
</mgrwt>
</event>
<event>
 4    1  0.1086582E+000  0.2337034E+03  0.7546771E-02  0.1124060E+00
         21   -1    0    0  503  502  0.00000000000E+00  0.00000000000E+00  0.55382749292E+02  0.55382749292E+02  0.00000000000E+00 0. -1.
         21   -1    0    0  501  503 -0.00000000000E+00 -0.00000000000E+00 -0.12200041425E+04  0.12200041425E+04  0.00000000000E+00 0. -1.
          6    1    1    2  501    0  0.15791231320E+03  0.98482591729E+01 -0.86148612873E+03  0.89262289735E+03  0.17200000000E+03 0. -1.
         -6    1    1    2    0  502 -0.15791231320E+03 -0.98482591729E+01 -0.30313526445E+03  0.38276399442E+03  0.17200000000E+03 0. -1.
<mgrwt>
<rscale>  2 0.23370342E+03</rscale>
<asrwt>0</asrwt>
<pdfrwt beam="1">  1       21 0.13845687E-01 0.23370342E+03</pdfrwt>
<pdfrwt beam="2">  1       21 0.30500103E+00 0.23370342E+03</pdfrwt>
<totfact> 0.13786094E+03</totfact>
</mgrwt>
</event>
<event>
 4    1  0.1086582E+000  0.1854606E+03  0.7546771E-02  0.1162620E+00
         21   -1    0    0  503  502  0.00000000000E+00  0.00000000000E+00  0.16562896430E+03  0.16562896430E+03  0.00000000000E+00 0. -1.
         21   -1    0    0  501  503 -0.00000000000E+00 -0.00000000000E+00 -0.23050801971E+03  0.23050801971E+03  0.00000000000E+00 0. -1.
          6    1    1    2  501    0 -0.69073832548E+02 -0.63599894324E+01 -0.94788834639E+02  0.20828002060E+03  0.17200000000E+03 0. -1.
         -6    1    1    2    0  502  0.69073832548E+02  0.63599894324E+01  0.29909779222E+02  0.18785696341E+03  0.17200000000E+03 0. -1.
<mgrwt>
<rscale>  2 0.18546063E+03</rscale>
<asrwt>0</asrwt>
<pdfrwt beam="1">  1       21 0.41407241E-01 0.18546063E+03</pdfrwt>
<pdfrwt beam="2">  1       21 0.57627004E-01 0.18546063E+03</pdfrwt>
<totfact> 0.15936430E+04</totfact>
</mgrwt>
</event>
<event>
 4    1  0.1086582E+000  0.2740544E+03  0.7546771E-02  0.1098981E+00
         21   -1    0    0  501  502  0.00000000000E+00  0.00000000000E+00  0.11144554462E+03  0.11144554462E+03  0.00000000000E+00 0. -1.
         21   -1    0    0  502  503 -0.00000000000E+00 -0.00000000000E+00 -0.84608571550E+03  0.84608571550E+03  0.00000000000E+00 0.  1.
          6    1    1    2  501    0  0.15398281562E+03 -0.14768584738E+03 -0.15135467944E+03  0.31307196619E+03  0.17200000000E+03 0. -1.
         -6    1    1    2    0  503 -0.15398281562E+03  0.14768584738E+03 -0.58328549143E+03  0.64445929393E+03  0.17200000000E+03 0.  1.
<mgrwt>
<rscale>  2 0.27405441E+03</rscale>
<asrwt>0</asrwt>
<pdfrwt beam="1">  1       21 0.27861387E-01 0.27405441E+03</pdfrwt>
<pdfrwt beam="2">  1       21 0.21152142E+00 0.27405441E+03</pdfrwt>
<totfact> 0.12933611E+03</totfact>
</mgrwt>
</event>
<event>
 4    1  0.1086582E+000  0.2021655E+03  0.7546771E-02  0.1147925E+00
         21   -1    0    0  501  502  0.00000000000E+00  0.00000000000E+00  0.59813889821E+03  0.59813889821E+03  0.00000000000E+00 0.  1.
         21   -1    0    0  502  503 -0.00000000000E+00 -0.00000000000E+00 -0.74567226027E+03  0.74567226027E+03  0.00000000000E+00 0. -1.
          6    1    1    2  501    0  0.10623810530E+03 -0.58461422159E+00  0.56661413827E+03  0.60159991562E+03  0.17200000000E+03 0.  1.
         -6    1    1    2    0  503 -0.10623810530E+03  0.58461422159E+00 -0.71414750034E+03  0.74221124286E+03  0.17200000000E+03 0. -1.
<mgrwt>
<rscale>  2 0.20216547E+03</rscale>
<asrwt>0</asrwt>
<pdfrwt beam="1">  1       21 0.14953473E+00 0.20216547E+03</pdfrwt>
<pdfrwt beam="2">  1       21 0.18641806E+00 0.20216547E+03</pdfrwt>
<totfact> 0.48925469E+01</totfact>
</mgrwt>
</event>
<event>
 4    1  0.1086582E+000  0.3855222E+03  0.7546771E-02  0.1048911E+00
         21   -1    0    0  503  502  0.00000000000E+00  0.00000000000E+00  0.22116820555E+03  0.22116820555E+03  0.00000000000E+00 0.  1.
         21   -1    0    0  501  503 -0.00000000000E+00 -0.00000000000E+00 -0.80205521338E+03  0.80205521338E+03  0.00000000000E+00 0. -1.
          6    1    1    2  501    0  0.75709150572E+02 -0.33661768382E+03 -0.49645184901E+03  0.62856326565E+03  0.17200000000E+03 0. -1.
         -6    1    1    2    0  502 -0.75709150572E+02  0.33661768382E+03 -0.84435158820E+02  0.39466015327E+03  0.17200000000E+03 0.  1.
<mgrwt>
<rscale>  2 0.38552217E+03</rscale>
<asrwt>0</asrwt>
<pdfrwt beam="1">  1       21 0.55292052E-01 0.38552217E+03</pdfrwt>
<pdfrwt beam="2">  1       21 0.20051380E+00 0.38552217E+03</pdfrwt>
<totfact> 0.34795583E+02</totfact>
</mgrwt>
</event>
<event>
 4    1  0.1086582E+000  0.1845170E+03  0.7546771E-02  0.1163502E+00
         21   -1    0    0  503  502  0.00000000000E+00  0.00000000000E+00  0.14697565618E+04  0.14697565618E+04  0.00000000000E+00 0.  1.
         21   -1    0    0  501  503 -0.00000000000E+00 -0.00000000000E+00 -0.26731415822E+02  0.26731415822E+02  0.00000000000E+00 0.  1.
          6    1    1    2  501    0 -0.45366258981E+02 -0.49034856773E+02  0.44819682615E+03  0.48469259289E+03  0.17200000000E+03 0.  1.
         -6    1    1    2    0  502  0.45366258981E+02  0.49034856773E+02  0.99482831986E+03  0.10117953848E+04  0.17200000000E+03 0.  1.
<mgrwt>
<rscale>  2 0.18451698E+03</rscale>
<asrwt>0</asrwt>
<pdfrwt beam="1">  1       21 0.36743887E+00 0.18451698E+03</pdfrwt>
<pdfrwt beam="2">  1       21 0.66828589E-02 0.18451698E+03</pdfrwt>
<totfact> 0.22831338E+03</totfact>
</mgrwt>
</event>
<event>
 4    1  0.1086582E+000  0.2372009E+03  0.7546771E-02  0.1121672E+00
         21   -1    0    0  501  502  0.00000000000E+00  0.00000000000E+00  0.34772146269E+03  0.34772146269E+03  0.00000000000E+00 0.  1.
         21   -1    0    0  502  503 -0.00000000000E+00 -0.00000000000E+00 -0.16622760358E+03  0.16622760358E+03  0.00000000000E+00 0. -1.
          6    1    1    2  501    0  0.14178102958E+03  0.81107380681E+02  0.48847458931E+02  0.24217832643E+03  0.17200000000E+03 0. -1.
         -6    1    1    2    0  503 -0.14178102958E+03 -0.81107380681E+02  0.13264640017E+03  0.27177073983E+03  0.17200000000E+03 0. -1.
<mgrwt>
<rscale>  2 0.23720090E+03</rscale>
<asrwt>0</asrwt>
<pdfrwt beam="1">  1       21 0.86930364E-01 0.23720090E+03</pdfrwt>
<pdfrwt beam="2">  1       21 0.41556901E-01 0.23720090E+03</pdfrwt>
<totfact> 0.61490196E+03</totfact>
</mgrwt>
</event>
<event>
 4    1  0.1086582E+000  0.2692786E+03  0.7546771E-02  0.1101693E+00
         21   -1    0    0  501  502  0.00000000000E+00  0.00000000000E+00  0.75302366435E+02  0.75302366435E+02  0.00000000000E+00 0.  1.
         21   -1    0    0  502  503 -0.00000000000E+00 -0.00000000000E+00 -0.10593497573E+04  0.10593497573E+04  0.00000000000E+00 0.  1.
          6    1    1    2  501    0  0.20676518666E+03 -0.13233376369E+02 -0.32086681487E+03  0.41888718952E+03  0.17200000000E+03 0.  1.
         -6    1    1    2    0  503 -0.20676518666E+03  0.13233376369E+02 -0.66318057599E+03  0.71576493420E+03  0.17200000000E+03 0.  1.
<mgrwt>
<rscale>  2 0.26927860E+03</rscale>
<asrwt>0</asrwt>
<pdfrwt beam="1">  1       21 0.18825592E-01 0.26927860E+03</pdfrwt>
<pdfrwt beam="2">  1       21 0.26483744E+00 0.26927860E+03</pdfrwt>
<totfact> 0.12987484E+03</totfact>
</mgrwt>
</event>
<event>
 4    1  0.1086582E+000  0.2608112E+03  0.7546771E-02  0.1106657E+00
         21   -1    0    0  503  502  0.00000000000E+00  0.00000000000E+00  0.11561907768E+04  0.11561907768E+04  0.00000000000E+00 0. -1.
         21   -1    0    0  501  503 -0.00000000000E+00 -0.00000000000E+00 -0.64437553391E+02  0.64437553391E+02  0.00000000000E+00 0.  1.
          6    1    1    2  501    0  0.19352770552E+03  0.31392966812E+02  0.72586468884E+03  0.77129892886E+03  0.17200000000E+03 0. -1.
         -6    1    1    2    0  502 -0.19352770552E+03 -0.31392966812E+02  0.36588853458E+03  0.44932940134E+03  0.17200000000E+03 0. -1.
<mgrwt>
<rscale>  2 0.26081122E+03</rscale>
<asrwt>0</asrwt>
<pdfrwt beam="1">  1       21 0.28904763E+00 0.26081122E+03</pdfrwt>
<pdfrwt beam="2">  1       21 0.16109392E-01 0.26081122E+03</pdfrwt>
<totfact> 0.12596678E+03</totfact>
</mgrwt>
</event>
<event>
 4    1  0.1086582E+000  0.2477017E+03  0.7546771E-02  0.1114766E+00
         21   -1    0    0  503  502  0.00000000000E+00  0.00000000000E+00  0.12087716883E+03  0.12087716883E+03  0.00000000000E+00 0.  1.
         21   -1    0    0  501  503 -0.00000000000E+00 -0.00000000000E+00 -0.51446355702E+03  0.51446355702E+03  0.00000000000E+00 0.  1.
          6    1    1    2  501    0 -0.11628626418E+03  0.13509124579E+03 -0.23350997509E+03  0.34041599315E+03  0.17200000000E+03 0.  1.
         -6    1    1    2    0  502  0.11628626418E+03 -0.13509124579E+03 -0.16007641310E+03  0.29492473270E+03  0.17200000000E+03 0.  1.
<mgrwt>
<rscale>  2 0.24770172E+03</rscale>
<asrwt>0</asrwt>
<pdfrwt beam="1">  1       21 0.30219292E-01 0.24770172E+03</pdfrwt>
<pdfrwt beam="2">  1       21 0.12861589E+00 0.24770172E+03</pdfrwt>
<totfact> 0.44766035E+03</totfact>
</mgrwt>
</event>
<event>
 4    1  0.1086582E+000  0.2896602E+03  0.7546771E-02  0.1090527E+00
         21   -1    0    0  503  502  0.00000000000E+00  0.00000000000E+00  0.76742939111E+03  0.76742939111E+03  0.00000000000E+00 0.  1.
         21   -1    0    0  501  503 -0.00000000000E+00 -0.00000000000E+00 -0.11057411174E+03  0.11057411174E+03  0.00000000000E+00 0.  1.
          6    1    1    2  501    0 -0.23255359360E+03 -0.15422899896E+02  0.37499405037E+03  0.47383918954E+03  0.17200000000E+03 0.  1.
         -6    1    1    2    0  502  0.23255359360E+03  0.15422899896E+02  0.28186122900E+03  0.40416431330E+03  0.17200000000E+03 0.  1.
<mgrwt>
<rscale>  2 0.28966021E+03</rscale>
<asrwt>0</asrwt>
<pdfrwt beam="1">  1       21 0.19185733E+00 0.28966021E+03</pdfrwt>
<pdfrwt beam="2">  1       21 0.27643530E-01 0.28966021E+03</pdfrwt>
<totfact> 0.17435187E+03</totfact>
</mgrwt>
</event>
<event>
 4    1  0.1086582E+000  0.3133970E+03  0.7546771E-02  0.1078729E+00
         21   -1    0    0  503  502  0.00000000000E+00  0.00000000000E+00  0.26604179651E+03  0.26604179651E+03  0.00000000000E+00 0. -1.
         21   -1    0    0  501  503 -0.00000000000E+00 -0.00000000000E+00 -0.56095331267E+03  0.56095331267E+03  0.00000000000E+00 0.  1.
          6    1    1    2  501    0 -0.13225189499E+03  0.22614846421E+03 -0.38922555729E+03  0.49971414433E+03  0.17200000000E+03 0.  1.
         -6    1    1    2    0  502  0.13225189499E+03 -0.22614846421E+03  0.94314041128E+02  0.32728096484E+03  0.17200000000E+03 0. -1.
<mgrwt>
<rscale>  2 0.31339702E+03</rscale>
<asrwt>0</asrwt>
<pdfrwt beam="1">  1       21 0.66510450E-01 0.31339702E+03</pdfrwt>
<pdfrwt beam="2">  1       21 0.14023833E+00 0.31339702E+03</pdfrwt>
<totfact> 0.66649587E+02</totfact>
</mgrwt>
</event>
<event>
 4    1  0.1086582E+000  0.1967249E+03  0.7546771E-02  0.1152532E+00
         21   -1    0    0  501  502  0.00000000000E+00  0.00000000000E+00  0.71876399029E+03  0.71876399029E+03  0.00000000000E+00 0.  1.
         21   -1    0    0  502  503 -0.00000000000E+00 -0.00000000000E+00 -0.59285498453E+02  0.59285498453E+02  0.00000000000E+00 0.  1.
          6    1    1    2  501    0 -0.89339029127E+02  0.33693076496E+02  0.44760477881E+03  0.48892813740E+03  0.17200000000E+03 0.  1.
         -6    1    1    2    0  503  0.89339029127E+02 -0.33693076496E+02  0.21187371303E+03  0.28912135134E+03  0.17200000000E+03 0.  1.
<mgrwt>
<rscale>  2 0.19672490E+03</rscale>
<asrwt>0</asrwt>
<pdfrwt beam="1">  1       21 0.17969097E+00 0.19672490E+03</pdfrwt>
<pdfrwt beam="2">  1       21 0.14821377E-01 0.19672490E+03</pdfrwt>
<totfact> 0.73056911E+03</totfact>
</mgrwt>
</event>
<event>
 4    1  0.1086582E+000  0.2282920E+03  0.7546771E-02  0.1127848E+00
         21   -1    0    0  501  502  0.00000000000E+00  0.00000000000E+00  0.39932196559E+03  0.39932196559E+03  0.00000000000E+00 0. -1.
         21   -1    0    0  502  503 -0.00000000000E+00 -0.00000000000E+00 -0.15745058755E+03  0.15745058755E+03  0.00000000000E+00 0. -1.
          6    1    1    2  501    0  0.14942725710E+03  0.14309236087E+02  0.23608037280E+03  0.32840706726E+03  0.17200000000E+03 0. -1.
         -6    1    1    2    0  503 -0.14942725710E+03 -0.14309236087E+02  0.57910052308E+01  0.22836548588E+03  0.17200000000E+03 0. -1.
<mgrwt>
<rscale>  2 0.22829205E+03</rscale>
<asrwt>0</asrwt>
<pdfrwt beam="1">  1       21 0.99830489E-01 0.22829205E+03</pdfrwt>
<pdfrwt beam="2">  1       21 0.39362648E-01 0.22829205E+03</pdfrwt>
<totfact> 0.49932489E+03</totfact>
</mgrwt>
</event>
<event>
 4    1  0.1086582E+000  0.2464449E+03  0.7546771E-02  0.1115572E+00
         21   -1    0    0  503  502  0.00000000000E+00  0.00000000000E+00  0.13785406430E+03  0.13785406430E+03  0.00000000000E+00 0.  1.
         21   -1    0    0  501  503 -0.00000000000E+00 -0.00000000000E+00 -0.49721441528E+03  0.49721441528E+03  0.00000000000E+00 0. -1.
          6    1    1    2  501    0 -0.13531562548E+03 -0.11331715038E+03 -0.28685109467E+03  0.37817806068E+03  0.17200000000E+03 0. -1.
         -6    1    1    2    0  502  0.13531562548E+03  0.11331715038E+03 -0.72509256314E+02  0.25689041889E+03  0.17200000000E+03 0.  1.
<mgrwt>
<rscale>  2 0.24644491E+03</rscale>
<asrwt>0</asrwt>
<pdfrwt beam="1">  1       21 0.34463516E-01 0.24644491E+03</pdfrwt>
<pdfrwt beam="2">  1       21 0.12430360E+00 0.24644491E+03</pdfrwt>
<totfact> 0.37663264E+03</totfact>
</mgrwt>
</event>
<event>
 4    1  0.1086582E+000  0.1734903E+03  0.7546771E-02  0.1174256E+00
         21   -1    0    0  501  502  0.00000000000E+00  0.00000000000E+00  0.72855662444E+03  0.72855662444E+03  0.00000000000E+00 0. -1.
         21   -1    0    0  502  503 -0.00000000000E+00 -0.00000000000E+00 -0.37202938003E+03  0.37202938003E+03  0.00000000000E+00 0. -1.
          6    1    1    2  501    0 -0.73245096141E+01  0.21476779812E+02  0.69710330728E+03  0.71836753931E+03  0.17200000000E+03 0. -1.
         -6    1    1    2    0  503  0.73245096141E+01 -0.21476779812E+02 -0.34057606286E+03  0.38221846516E+03  0.17200000000E+03 0. -1.
<mgrwt>
<rscale>  2 0.17349035E+03</rscale>
<asrwt>0</asrwt>
<pdfrwt beam="1">  1       21 0.18213915E+00 0.17349035E+03</pdfrwt>
<pdfrwt beam="2">  1       21 0.93007346E-01 0.17349035E+03</pdfrwt>
<totfact> 0.17597984E+02</totfact>
</mgrwt>
</event>
<event>
 4    1  0.1086582E+000  0.1968684E+03  0.7546771E-02  0.1152408E+00
         21   -1    0    0  501  502  0.00000000000E+00  0.00000000000E+00  0.87872681646E+02  0.87872681646E+02  0.00000000000E+00 0.  1.
         21   -1    0    0  502  503 -0.00000000000E+00 -0.00000000000E+00 -0.54849720997E+03  0.54849720997E+03  0.00000000000E+00 0.  1.
          6    1    1    2  501    0 -0.95689197992E+02 -0.40936838610E+01 -0.37113361045E+03  0.42011586219E+03  0.17200000000E+03 0.  1.
         -6    1    1    2    0  503  0.95689197992E+02  0.40936838610E+01 -0.89490917874E+02  0.21625402942E+03  0.17200000000E+03 0.  1.
<mgrwt>
<rscale>  2 0.19686844E+03</rscale>
<asrwt>0</asrwt>
<pdfrwt beam="1">  1       21 0.21968170E-01 0.19686844E+03</pdfrwt>
<pdfrwt beam="2">  1       21 0.13712430E+00 0.19686844E+03</pdfrwt>
<totfact> 0.72827473E+03</totfact>
</mgrwt>
</event>
<event>
 4    1  0.1086582E+000  0.2062877E+03  0.7546771E-02  0.1144540E+00
         21   -1    0    0  501  502  0.00000000000E+00  0.00000000000E+00  0.26747869171E+03  0.26747869171E+03  0.00000000000E+00 0.  1.
         21   -1    0    0  502  503 -0.00000000000E+00 -0.00000000000E+00 -0.22729546022E+03  0.22729546022E+03  0.00000000000E+00 0. -1.
          6    1    1    2  501    0 -0.81388881714E+02 -0.79664717258E+02  0.15560249119E+03  0.25839263245E+03  0.17200000000E+03 0.  1.
         -6    1    1    2    0  503  0.81388881714E+02  0.79664717258E+02 -0.11541925970E+03  0.23638151948E+03  0.17200000000E+03 0. -1.
<mgrwt>
<rscale>  2 0.20628771E+03</rscale>
<asrwt>0</asrwt>
<pdfrwt beam="1">  1       21 0.66869673E-01 0.20628771E+03</pdfrwt>
<pdfrwt beam="2">  1       21 0.56823865E-01 0.20628771E+03</pdfrwt>
<totfact> 0.59022915E+03</totfact>
</mgrwt>
</event>
<event>
 4    1  0.1086582E+000  0.1767314E+03  0.7546771E-02  0.1171004E+00
         21   -1    0    0  503  502  0.00000000000E+00  0.00000000000E+00  0.57400774041E+03  0.57400774041E+03  0.00000000000E+00 0.  1.
         21   -1    0    0  501  503 -0.00000000000E+00 -0.00000000000E+00 -0.57617292025E+02  0.57617292025E+02  0.00000000000E+00 0. -1.
          6    1    1    2  501    0 -0.16918993579E+02  0.36928826643E+02  0.18372904886E+03  0.25493205757E+03  0.17200000000E+03 0. -1.
         -6    1    1    2    0  502  0.16918993579E+02 -0.36928826643E+02  0.33266139953E+03  0.37669297487E+03  0.17200000000E+03 0.  1.
<mgrwt>
<rscale>  2 0.17673141E+03</rscale>
<asrwt>0</asrwt>
<pdfrwt beam="1">  1       21 0.14350192E+00 0.17673141E+03</pdfrwt>
<pdfrwt beam="2">  1       21 0.14404325E-01 0.17673141E+03</pdfrwt>
<totfact> 0.14335104E+04</totfact>
</mgrwt>
</event>
<event>
 4    1  0.1086582E+000  0.2063034E+03  0.7546771E-02  0.1144527E+00
         21   -1    0    0  503  502  0.00000000000E+00  0.00000000000E+00  0.73724181822E+02  0.73724181822E+02  0.00000000000E+00 0.  1.
         21   -1    0    0  501  503 -0.00000000000E+00 -0.00000000000E+00 -0.73761763073E+03  0.73761763073E+03  0.00000000000E+00 0.  1.
          6    1    1    2  501    0  0.47004009313E+02  0.10376763599E+03 -0.52107065742E+03  0.56042459725E+03  0.17200000000E+03 0.  1.
         -6    1    1    2    0  502 -0.47004009313E+02 -0.10376763599E+03 -0.14282279149E+03  0.25091721531E+03  0.17200000000E+03 0.  1.
<mgrwt>
<rscale>  2 0.20630342E+03</rscale>
<asrwt>0</asrwt>
<pdfrwt beam="1">  1       21 0.18431046E-01 0.20630342E+03</pdfrwt>
<pdfrwt beam="2">  1       21 0.18440440E+00 0.20630342E+03</pdfrwt>
<totfact> 0.45104441E+03</totfact>
</mgrwt>
</event>
<event>
 4    1  0.1086582E+000  0.1772749E+03  0.7546771E-02  0.1170467E+00
         21   -1    0    0  501  502  0.00000000000E+00  0.00000000000E+00  0.66997668617E+03  0.66997668617E+03  0.00000000000E+00 0. -1.
         21   -1    0    0  502  503 -0.00000000000E+00 -0.00000000000E+00 -0.46951693542E+02  0.46951693542E+02  0.00000000000E+00 0. -1.
          6    1    1    2  501    0  0.65962947614E+01  0.42413055814E+02  0.30041262904E+03  0.34881818487E+03  0.17200000000E+03 0. -1.
         -6    1    1    2    0  503 -0.65962947614E+01 -0.42413055814E+02  0.32261236359E+03  0.36811019485E+03  0.17200000000E+03 0. -1.
<mgrwt>
<rscale>  2 0.17727487E+03</rscale>
<asrwt>0</asrwt>
<pdfrwt beam="1">  1       21 0.16749414E+00 0.17727487E+03</pdfrwt>
<pdfrwt beam="2">  1       21 0.11737926E-01 0.17727487E+03</pdfrwt>
<totfact> 0.13727119E+04</totfact>
</mgrwt>
</event>
<event>
 4    1  0.1086582E+000  0.1858061E+03  0.7546771E-02  0.1162299E+00
         21   -1    0    0  503  502  0.00000000000E+00  0.00000000000E+00  0.84911745373E+02  0.84911745373E+02  0.00000000000E+00 0. -1.
         21   -1    0    0  501  503 -0.00000000000E+00 -0.00000000000E+00 -0.59010143757E+03  0.59010143757E+03  0.00000000000E+00 0. -1.
          6    1    1    2  501    0  0.16669290238E+02 -0.68279032260E+02 -0.44081049010E+03  0.47836991927E+03  0.17200000000E+03 0. -1.
         -6    1    1    2    0  502 -0.16669290238E+02  0.68279032260E+02 -0.64379202094E+02  0.19664326367E+03  0.17200000000E+03 0. -1.
<mgrwt>
<rscale>  2 0.18580606E+03</rscale>
<asrwt>0</asrwt>
<pdfrwt beam="1">  1       21 0.21227937E-01 0.18580606E+03</pdfrwt>
<pdfrwt beam="2">  1       21 0.14752536E+00 0.18580606E+03</pdfrwt>
<totfact> 0.64824725E+03</totfact>
</mgrwt>
</event>
<event>
 4    1  0.1086582E+000  0.2036236E+03  0.7546771E-02  0.1146717E+00
         21   -1    0    0  501  502  0.00000000000E+00  0.00000000000E+00  0.15190607806E+03  0.15190607806E+03  0.00000000000E+00 0.  1.
         21   -1    0    0  502  503 -0.00000000000E+00 -0.00000000000E+00 -0.27298614091E+03  0.27298614091E+03  0.00000000000E+00 0.  1.
          6    1    1    2  501    0 -0.32006395671E+02  0.10418333693E+03 -0.63025734865E+02  0.21315445178E+03  0.17200000000E+03 0.  1.
         -6    1    1    2    0  503  0.32006395671E+02 -0.10418333693E+03 -0.58054327991E+02  0.21173776719E+03  0.17200000000E+03 0.  1.
<mgrwt>
<rscale>  2 0.20362362E+03</rscale>
<asrwt>0</asrwt>
<pdfrwt beam="1">  1       21 0.37976520E-01 0.20362362E+03</pdfrwt>
<pdfrwt beam="2">  1       21 0.68246535E-01 0.20362362E+03</pdfrwt>
<totfact> 0.13007236E+04</totfact>
</mgrwt>
</event>
<event>
 4    1  0.1086582E+000  0.2123071E+03  0.7546771E-02  0.1139752E+00
         21   -1    0    0  503  502  0.00000000000E+00  0.00000000000E+00  0.11592643099E+04  0.11592643099E+04  0.00000000000E+00 0. -1.
         21   -1    0    0  501  503 -0.00000000000E+00 -0.00000000000E+00 -0.47420388653E+02  0.47420388653E+02  0.00000000000E+00 0. -1.
          6    1    1    2  501    0 -0.12445914065E+03 -0.46481737668E+00  0.29990185840E+03  0.36744444262E+03  0.17200000000E+03 0. -1.
         -6    1    1    2    0  502  0.12445914065E+03  0.46481737668E+00  0.81194206287E+03  0.83924025595E+03  0.17200000000E+03 0. -1.
<mgrwt>
<rscale>  2 0.21230707E+03</rscale>
<asrwt>0</asrwt>
<pdfrwt beam="1">  1       21 0.28981598E+00 0.21230707E+03</pdfrwt>
<pdfrwt beam="2">  1       21 0.11855101E-01 0.21230707E+03</pdfrwt>
<totfact> 0.22893238E+03</totfact>
</mgrwt>
</event>
<event>
 4    1  0.1086582E+000  0.2208015E+03  0.7546771E-02  0.1133287E+00
         21   -1    0    0  501  502  0.00000000000E+00  0.00000000000E+00  0.19436155683E+04  0.19436155683E+04  0.00000000000E+00 0.  1.
         21   -1    0    0  502  503 -0.00000000000E+00 -0.00000000000E+00 -0.57052666954E+02  0.57052666954E+02  0.00000000000E+00 0. -1.
          6    1    1    2  501    0 -0.13808631735E+03  0.10074190569E+02  0.16920895475E+04  0.17064349847E+04  0.17200000000E+03 0.  1.
         -6    1    1    2    0  503  0.13808631735E+03 -0.10074190569E+02  0.19447335383E+03  0.29423325051E+03  0.17200000000E+03 0.  1.
<mgrwt>
<rscale>  2 0.22080154E+03</rscale>
<asrwt>0</asrwt>
<pdfrwt beam="1">  1       21 0.48590367E+00 0.22080154E+03</pdfrwt>
<pdfrwt beam="2">  1       21 0.14263173E-01 0.22080154E+03</pdfrwt>
<totfact> 0.97209100E+01</totfact>
</mgrwt>
</event>
<event>
 4    1  0.1086582E+000  0.1743648E+03  0.7546771E-02  0.1173371E+00
         21   -1    0    0  501  502  0.00000000000E+00  0.00000000000E+00  0.90633452915E+02  0.90633452915E+02  0.00000000000E+00 0.  1.
         21   -1    0    0  502  503 -0.00000000000E+00 -0.00000000000E+00 -0.63911237785E+03  0.63911237785E+03  0.00000000000E+00 0.  1.
          6    1    1    2  501    0 -0.28615638437E+02 -0.48195967410E+00 -0.22733807150E+02  0.17584058984E+03  0.17200000000E+03 0.  1.
         -6    1    1    2    0  503  0.28615638437E+02  0.48195967410E+00 -0.52574511778E+03  0.55390524092E+03  0.17200000000E+03 0.  1.
<mgrwt>
<rscale>  2 0.17436481E+03</rscale>
<asrwt>0</asrwt>
<pdfrwt beam="1">  1       21 0.22658363E-01 0.17436481E+03</pdfrwt>
<pdfrwt beam="2">  1       21 0.15977809E+00 0.17436481E+03</pdfrwt>
<totfact> 0.46888397E+03</totfact>
</mgrwt>
</event>
<event>
 4    1  0.1086582E+000  0.2159454E+03  0.7546771E-02  0.1136943E+00
         21   -1    0    0  501  502  0.00000000000E+00  0.00000000000E+00  0.32895289932E+03  0.32895289932E+03  0.00000000000E+00 0.  1.
         21   -1    0    0  502  503 -0.00000000000E+00 -0.00000000000E+00 -0.14829266391E+03  0.14829266391E+03  0.00000000000E+00 0.  1.
          6    1    1    2  501    0 -0.72528207538E+02 -0.10857280913E+03  0.14041353080E+03  0.25758174509E+03  0.17200000000E+03 0.  1.
         -6    1    1    2    0  503  0.72528207538E+02  0.10857280913E+03  0.40246704608E+02  0.21966381815E+03  0.17200000000E+03 0.  1.
<mgrwt>
<rscale>  2 0.21594535E+03</rscale>
<asrwt>0</asrwt>
<pdfrwt beam="1">  1       21 0.82238223E-01 0.21594535E+03</pdfrwt>
<pdfrwt beam="2">  1       21 0.37073167E-01 0.21594535E+03</pdfrwt>
<totfact> 0.89210787E+03</totfact>
</mgrwt>
</event>
<event>
 4    1  0.1086582E+000  0.2232669E+03  0.7546771E-02  0.1131471E+00
         21   -1    0    0  501  502  0.00000000000E+00  0.00000000000E+00  0.39021835848E+03  0.39021835848E+03  0.00000000000E+00 0. -1.
         21   -1    0    0  502  503 -0.00000000000E+00 -0.00000000000E+00 -0.20467166735E+03  0.20467166735E+03  0.00000000000E+00 0. -1.
          6    1    1    2  501    0  0.13511380041E+03 -0.44814644673E+02  0.27512883396E+03  0.35432184058E+03  0.17200000000E+03 0. -1.
         -6    1    1    2    0  503 -0.13511380041E+03  0.44814644673E+02 -0.89582142828E+02  0.24056818524E+03  0.17200000000E+03 0. -1.
<mgrwt>
<rscale>  2 0.22326686E+03</rscale>
<asrwt>0</asrwt>
<pdfrwt beam="1">  1       21 0.97554588E-01 0.22326686E+03</pdfrwt>
<pdfrwt beam="2">  1       21 0.51167917E-01 0.22326686E+03</pdfrwt>
<totfact> 0.30825466E+03</totfact>
</mgrwt>
</event>
<event>
 4    1  0.1086582E+000  0.2034593E+03  0.7546771E-02  0.1146853E+00
         21   -1    0    0  503  502  0.00000000000E+00  0.00000000000E+00  0.79540117083E+03  0.79540117083E+03  0.00000000000E+00 0. -1.
         21   -1    0    0  501  503 -0.00000000000E+00 -0.00000000000E+00 -0.72868252900E+02  0.72868252900E+02  0.00000000000E+00 0. -1.
          6    1    1    2  501    0 -0.49347397317E+02 -0.96832339527E+02  0.12918387498E+03  0.24100651683E+03  0.17200000000E+03 0. -1.
         -6    1    1    2    0  502  0.49347397317E+02  0.96832339527E+02  0.59334904295E+03  0.62726290690E+03  0.17200000000E+03 0. -1.
<mgrwt>
<rscale>  2 0.20345925E+03</rscale>
<asrwt>0</asrwt>
<pdfrwt beam="1">  1       21 0.19885027E+00 0.20345925E+03</pdfrwt>
<pdfrwt beam="2">  1       21 0.18217066E-01 0.20345925E+03</pdfrwt>
<totfact> 0.37120196E+03</totfact>
</mgrwt>
</event>
<event>
 4    1  0.1086582E+000  0.1754877E+03  0.7546771E-02  0.1172243E+00
         21   -1    0    0  503  502  0.00000000000E+00  0.00000000000E+00  0.20152526811E+03  0.20152526811E+03  0.00000000000E+00 0. -1.
         21   -1    0    0  501  503 -0.00000000000E+00 -0.00000000000E+00 -0.31294347002E+03  0.31294347002E+03  0.00000000000E+00 0. -1.
          6    1    1    2  501    0 -0.24415848278E+02 -0.24815042118E+02 -0.23971486476E+03  0.29708439264E+03  0.17200000000E+03 0. -1.
         -6    1    1    2    0  502  0.24415848278E+02  0.24815042118E+02  0.12829666286E+03  0.21738434549E+03  0.17200000000E+03 0. -1.
<mgrwt>
<rscale>  2 0.17548766E+03</rscale>
<asrwt>0</asrwt>
<pdfrwt beam="1">  1       21 0.50381317E-01 0.17548766E+03</pdfrwt>
<pdfrwt beam="2">  1       21 0.78235867E-01 0.17548766E+03</pdfrwt>
<totfact> 0.54983506E+03</totfact>
</mgrwt>
</event>
<event>
 4    1  0.1086582E+000  0.1984811E+03  0.7546771E-02  0.1151027E+00
         21   -1    0    0  503  502  0.00000000000E+00  0.00000000000E+00  0.32630003727E+03  0.32630003727E+03  0.00000000000E+00 0. -1.
         21   -1    0    0  501  503 -0.00000000000E+00 -0.00000000000E+00 -0.18586974637E+03  0.18586974637E+03  0.00000000000E+00 0. -1.
          6    1    1    2  501    0 -0.56871439718E+02  0.81094862601E+02 -0.81384149413E+02  0.21451833761E+03  0.17200000000E+03 0. -1.
         -6    1    1    2    0  502  0.56871439718E+02 -0.81094862601E+02  0.22181444031E+03  0.29765144603E+03  0.17200000000E+03 0. -1.
<mgrwt>
<rscale>  2 0.19848108E+03</rscale>
<asrwt>0</asrwt>
<pdfrwt beam="1">  1       21 0.81575009E-01 0.19848108E+03</pdfrwt>
<pdfrwt beam="2">  1       21 0.46467437E-01 0.19848108E+03</pdfrwt>
<totfact> 0.58113522E+03</totfact>
</mgrwt>
</event>
<event>
 4    1  0.1086582E+000  0.1833384E+03  0.7546771E-02  0.1164611E+00
         21   -1    0    0  501  502  0.00000000000E+00  0.00000000000E+00  0.99488505891E+02  0.99488505891E+02  0.00000000000E+00 0.  1.
         21   -1    0    0  502  503 -0.00000000000E+00 -0.00000000000E+00 -0.43524745033E+03  0.43524745033E+03  0.00000000000E+00 0.  1.
          6    1    1    2  501    0  0.52286055789E+02  0.35988104769E+02 -0.41406563423E+02  0.18795605553E+03  0.17200000000E+03 0.  1.
         -6    1    1    2    0  503 -0.52286055789E+02 -0.35988104769E+02 -0.29435238102E+03  0.34677990069E+03  0.17200000000E+03 0.  1.
<mgrwt>
<rscale>  2 0.18333842E+03</rscale>
<asrwt>0</asrwt>
<pdfrwt beam="1">  1       21 0.24872127E-01 0.18333842E+03</pdfrwt>
<pdfrwt beam="2">  1       21 0.10881186E+00 0.18333842E+03</pdfrwt>
<totfact> 0.10323605E+04</totfact>
</mgrwt>
</event>
<event>
 4    1  0.1086582E+000  0.2247971E+03  0.7546771E-02  0.1130356E+00
         21   -1    0    0  503  502  0.00000000000E+00  0.00000000000E+00  0.33782651914E+03  0.33782651914E+03  0.00000000000E+00 0. -1.
         21   -1    0    0  501  503 -0.00000000000E+00 -0.00000000000E+00 -0.15829167303E+03  0.15829167303E+03  0.00000000000E+00 0. -1.
          6    1    1    2  501    0 -0.10525672873E+03 -0.99351777141E+02  0.31590049933E+02  0.22700591582E+03  0.17200000000E+03 0. -1.
         -6    1    1    2    0  502  0.10525672873E+03  0.99351777141E+02  0.14794479618E+03  0.26911227635E+03  0.17200000000E+03 0. -1.
<mgrwt>
<rscale>  2 0.22479714E+03</rscale>
<asrwt>0</asrwt>
<pdfrwt beam="1">  1       21 0.84456629E-01 0.22479714E+03</pdfrwt>
<pdfrwt beam="2">  1       21 0.39572919E-01 0.22479714E+03</pdfrwt>
<totfact> 0.73175292E+03</totfact>
</mgrwt>
</event>
<event>
 4    1  0.1086582E+000  0.1756221E+03  0.7546771E-02  0.1172109E+00
         21   -1    0    0  503  502  0.00000000000E+00  0.00000000000E+00  0.74887829181E+02  0.74887829181E+02  0.00000000000E+00 0.  1.
         21   -1    0    0  501  503 -0.00000000000E+00 -0.00000000000E+00 -0.41360165342E+03  0.41360165342E+03  0.00000000000E+00 0.  1.
          6    1    1    2  501    0  0.23836379385E+02  0.26285873157E+02 -0.18521739668E+03  0.25524224600E+03  0.17200000000E+03 0.  1.
         -6    1    1    2    0  502 -0.23836379385E+02 -0.26285873157E+02 -0.15349642756E+03  0.23324723661E+03  0.17200000000E+03 0.  1.
<mgrwt>
<rscale>  2 0.17562209E+03</rscale>
<asrwt>0</asrwt>
<pdfrwt beam="1">  1       21 0.18721957E-01 0.17562209E+03</pdfrwt>
<pdfrwt beam="2">  1       21 0.10340041E+00 0.17562209E+03</pdfrwt>
<totfact> 0.19999428E+04</totfact>
</mgrwt>
</event>
<event>
 4    1  0.1086582E+000  0.2022233E+03  0.7546771E-02  0.1147877E+00
         21   -1    0    0  501  502  0.00000000000E+00  0.00000000000E+00  0.25852272390E+03  0.25852272390E+03  0.00000000000E+00 0. -1.
         21   -1    0    0  502  503 -0.00000000000E+00 -0.00000000000E+00 -0.18678731394E+03  0.18678731394E+03  0.00000000000E+00 0.  1.
          6    1    1    2  501    0 -0.66108287393E+02  0.83306445487E+02  0.12299690338E+03  0.23669074288E+03  0.17200000000E+03 0. -1.
         -6    1    1    2    0  503  0.66108287393E+02 -0.83306445487E+02 -0.51261493427E+02  0.20861929496E+03  0.17200000000E+03 0.  1.
<mgrwt>
<rscale>  2 0.20222332E+03</rscale>
<asrwt>0</asrwt>
<pdfrwt beam="1">  1       21 0.64630681E-01 0.20222332E+03</pdfrwt>
<pdfrwt beam="2">  1       21 0.46696829E-01 0.20222332E+03</pdfrwt>
<totfact> 0.96251381E+03</totfact>
</mgrwt>
</event>
<event>
 4    1  0.1086582E+000  0.1783215E+03  0.7546771E-02  0.1169438E+00
         21   -1    0    0  503  502  0.00000000000E+00  0.00000000000E+00  0.18332119158E+03  0.18332119158E+03  0.00000000000E+00 0. -1.
         21   -1    0    0  501  503 -0.00000000000E+00 -0.00000000000E+00 -0.18438830775E+03  0.18438830775E+03  0.00000000000E+00 0.  1.
          6    1    1    2  501    0 -0.47034103581E+02 -0.15277886424E+01 -0.45296937405E+02  0.18398465582E+03  0.17200000000E+03 0.  1.
         -6    1    1    2    0  502  0.47034103581E+02  0.15277886424E+01  0.44229821229E+02  0.18372484351E+03  0.17200000000E+03 0. -1.
<mgrwt>
<rscale>  2 0.17832145E+03</rscale>
<asrwt>0</asrwt>
<pdfrwt beam="1">  1       21 0.45830298E-01 0.17832145E+03</pdfrwt>
<pdfrwt beam="2">  1       21 0.46097077E-01 0.17832145E+03</pdfrwt>
<totfact> 0.20756493E+04</totfact>
</mgrwt>
</event>
<event>
 4    1  0.1086582E+000  0.1852870E+03  0.7546771E-02  0.1162782E+00
         21   -1    0    0  501  502  0.00000000000E+00  0.00000000000E+00  0.26096249595E+03  0.26096249595E+03  0.00000000000E+00 0.  1.
         21   -1    0    0  502  503 -0.00000000000E+00 -0.00000000000E+00 -0.27265962870E+03  0.27265962870E+03  0.00000000000E+00 0.  1.
          6    1    1    2  501    0  0.22112278302E+02  0.65255699071E+02  0.18608991296E+03  0.26260372202E+03  0.17200000000E+03 0.  1.
         -6    1    1    2    0  503 -0.22112278302E+02 -0.65255699071E+02 -0.19778704571E+03  0.27101840263E+03  0.17200000000E+03 0.  1.
<mgrwt>
<rscale>  2 0.18528696E+03</rscale>
<asrwt>0</asrwt>
<pdfrwt beam="1">  1       21 0.65240624E-01 0.18528696E+03</pdfrwt>
<pdfrwt beam="2">  1       21 0.68164907E-01 0.18528696E+03</pdfrwt>
<totfact> 0.42724646E+03</totfact>
</mgrwt>
</event>
<event>
 4    1  0.1086582E+000  0.2608541E+03  0.7546771E-02  0.1106631E+00
         21   -1    0    0  501  502  0.00000000000E+00  0.00000000000E+00  0.62066576676E+02  0.62066576676E+02  0.00000000000E+00 0.  1.
         21   -1    0    0  502  503 -0.00000000000E+00 -0.00000000000E+00 -0.11157487590E+04  0.11157487590E+04  0.00000000000E+00 0.  1.
          6    1    1    2  501    0 -0.18868928971E+03 -0.53452918452E+02 -0.60455174341E+03  0.65842818364E+03  0.17200000000E+03 0.  1.
         -6    1    1    2    0  503  0.18868928971E+03  0.53452918452E+02 -0.44913043890E+03  0.51938715203E+03  0.17200000000E+03 0.  1.
<mgrwt>
<rscale>  2 0.26085410E+03</rscale>
<asrwt>0</asrwt>
<pdfrwt beam="1">  1       21 0.15516644E-01 0.26085410E+03</pdfrwt>
<pdfrwt beam="2">  1       21 0.27893719E+00 0.26085410E+03</pdfrwt>
<totfact> 0.15469146E+03</totfact>
</mgrwt>
</event>
<event>
 4    1  0.1086582E+000  0.2289360E+03  0.7546771E-02  0.1127391E+00
         21   -1    0    0  503  502  0.00000000000E+00  0.00000000000E+00  0.98872675243E+02  0.98872675243E+02  0.00000000000E+00 0. -1.
         21   -1    0    0  501  503 -0.00000000000E+00 -0.00000000000E+00 -0.53290548608E+03  0.53290548608E+03  0.00000000000E+00 0. -1.
          6    1    1    2  501    0  0.57225709558E+00  0.15108731077E+03 -0.19406746789E+03  0.30012311648E+03  0.17200000000E+03 0. -1.
         -6    1    1    2    0  502 -0.57225709558E+00 -0.15108731077E+03 -0.23996534295E+03  0.33165504484E+03  0.17200000000E+03 0. -1.
<mgrwt>
<rscale>  2 0.22893602E+03</rscale>
<asrwt>0</asrwt>
<pdfrwt beam="1">  1       21 0.24718169E-01 0.22893602E+03</pdfrwt>
<pdfrwt beam="2">  1       21 0.13322637E+00 0.22893602E+03</pdfrwt>
<totfact> 0.61184497E+03</totfact>
</mgrwt>
</event>
<event>
 4    1  0.1086582E+000  0.1855050E+03  0.7546771E-02  0.1162579E+00
         21   -1    0    0  501  502  0.00000000000E+00  0.00000000000E+00  0.98248822535E+03  0.98248822535E+03  0.00000000000E+00 0.  1.
         21   -1    0    0  502  503 -0.00000000000E+00 -0.00000000000E+00 -0.35105518364E+02  0.35105518364E+02  0.00000000000E+00 0.  1.
          6    1    1    2  501    0  0.19518530716E+02 -0.66686701028E+02  0.44939194459E+03  0.48617405217E+03  0.17200000000E+03 0. -1.
         -6    1    1    2    0  503 -0.19518530716E+02  0.66686701028E+02  0.49799076239E+03  0.53141969155E+03  0.17200000000E+03 0. -1.
<mgrwt>
<rscale>  2 0.18550496E+03</rscale>
<asrwt>0</asrwt>
<pdfrwt beam="1">  1       21 0.24562197E+00 0.18550496E+03</pdfrwt>
<pdfrwt beam="2">  1       21 0.87763828E-02 0.18550496E+03</pdfrwt>
<totfact> 0.72551932E+03</totfact>
</mgrwt>
</event>
<event>
 4    1  0.1086582E+000  0.1868430E+03  0.7546771E-02  0.1161340E+00
         21   -1    0    0  503  502  0.00000000000E+00  0.00000000000E+00  0.38208630519E+03  0.38208630519E+03  0.00000000000E+00 0.  1.
         21   -1    0    0  501  503 -0.00000000000E+00 -0.00000000000E+00 -0.92109288952E+02  0.92109288952E+02  0.00000000000E+00 0.  1.
          6    1    1    2  501    0  0.38968802078E+02 -0.61706877061E+02  0.12371257511E+03  0.22408727642E+03  0.17200000000E+03 0.  1.
         -6    1    1    2    0  502 -0.38968802078E+02  0.61706877061E+02  0.16626444113E+03  0.25010831773E+03  0.17200000000E+03 0.  1.
<mgrwt>
<rscale>  2 0.18684300E+03</rscale>
<asrwt>0</asrwt>
<pdfrwt beam="1">  1       21 0.95521572E-01 0.18684300E+03</pdfrwt>
<pdfrwt beam="2">  1       21 0.23027323E-01 0.18684300E+03</pdfrwt>
<totfact> 0.16255386E+04</totfact>
</mgrwt>
</event>
<event>
 4    1  0.1086582E+000  0.1834226E+03  0.7546771E-02  0.1164531E+00
         21   -1    0    0  503  502  0.00000000000E+00  0.00000000000E+00  0.91793269972E+03  0.91793269972E+03  0.00000000000E+00 0.  1.
         21   -1    0    0  501  503 -0.00000000000E+00 -0.00000000000E+00 -0.14031712816E+03  0.14031712816E+03  0.00000000000E+00 0.  1.
          6    1    1    2  501    0  0.53033368071E+02 -0.35317518691E+02 -0.65991398642E+02  0.19493262926E+03  0.17200000000E+03 0.  1.
         -6    1    1    2    0  502 -0.53033368071E+02  0.35317518691E+02  0.84360697020E+03  0.86331719862E+03  0.17200000000E+03 0.  1.
<mgrwt>
<rscale>  2 0.18342264E+03</rscale>
<asrwt>0</asrwt>
<pdfrwt beam="1">  1       21 0.22948316E+00 0.18342264E+03</pdfrwt>
<pdfrwt beam="2">  1       21 0.35079285E-01 0.18342264E+03</pdfrwt>
<totfact> 0.69819961E+02</totfact>
</mgrwt>
</event>
<event>
 4    1  0.1086582E+000  0.1899373E+03  0.7546771E-02  0.1158518E+00
         21   -1    0    0  503  502  0.00000000000E+00  0.00000000000E+00  0.48659216718E+02  0.48659216718E+02  0.00000000000E+00 0.  1.
         21   -1    0    0  501  503 -0.00000000000E+00 -0.00000000000E+00 -0.11750630465E+04  0.11750630465E+04  0.00000000000E+00 0. -1.
          6    1    1    2  501    0 -0.21099066594E+02 -0.77762539498E+02 -0.93490487607E+03  0.95400383147E+03  0.17200000000E+03 0. -1.
         -6    1    1    2    0  502  0.21099066594E+02  0.77762539498E+02 -0.19149895376E+03  0.26971843180E+03  0.17200000000E+03 0.  1.
<mgrwt>
<rscale>  2 0.18993731E+03</rscale>
<asrwt>0</asrwt>
<pdfrwt beam="1">  1       21 0.12164804E-01 0.18993731E+03</pdfrwt>
<pdfrwt beam="2">  1       21 0.29376576E+00 0.18993731E+03</pdfrwt>
<totfact> 0.21304387E+03</totfact>
</mgrwt>
</event>
<event>
 4    1  0.1086582E+000  0.2628481E+03  0.7546771E-02  0.1105444E+00
         21   -1    0    0  501  502  0.00000000000E+00  0.00000000000E+00  0.14622234145E+04  0.14622234145E+04  0.00000000000E+00 0. -1.
         21   -1    0    0  502  503 -0.00000000000E+00 -0.00000000000E+00 -0.69869318650E+02  0.69869318650E+02  0.00000000000E+00 0.  1.
          6    1    1    2  501    0  0.17295403360E+03 -0.97938833168E+02  0.11320478293E+04  0.11621623813E+04  0.17200000000E+03 0. -1.
         -6    1    1    2    0  503 -0.17295403360E+03  0.97938833168E+02  0.26030626653E+03  0.36993035179E+03  0.17200000000E+03 0. -1.
<mgrwt>
<rscale>  2 0.26284808E+03</rscale>
<asrwt>0</asrwt>
<pdfrwt beam="1">  1       21 0.36555575E+00 0.26284808E+03</pdfrwt>
<pdfrwt beam="2">  1       21 0.17467334E-01 0.26284808E+03</pdfrwt>
<totfact> 0.38114402E+02</totfact>
</mgrwt>
</event>
<event>
 4    1  0.1086582E+000  0.2118069E+03  0.7546771E-02  0.1140143E+00
         21   -1    0    0  503  502  0.00000000000E+00  0.00000000000E+00  0.10592650067E+04  0.10592650067E+04  0.00000000000E+00 0. -1.
         21   -1    0    0  501  503 -0.00000000000E+00 -0.00000000000E+00 -0.45300777370E+02  0.45300777370E+02  0.00000000000E+00 0.  1.
          6    1    1    2  501    0 -0.66588727542E+02 -0.10413507674E+03  0.36608011626E+03  0.42293832217E+03  0.17200000000E+03 0.  1.
         -6    1    1    2    0  502  0.66588727542E+02  0.10413507674E+03  0.64788411309E+03  0.68162746192E+03  0.17200000000E+03 0. -1.
<mgrwt>
<rscale>  2 0.21180692E+03</rscale>
<asrwt>0</asrwt>
<pdfrwt beam="1">  1       21 0.26481617E+00 0.21180692E+03</pdfrwt>
<pdfrwt beam="2">  1       21 0.11325198E-01 0.21180692E+03</pdfrwt>
<totfact> 0.34725968E+03</totfact>
</mgrwt>
</event>
<event>
 4    1  0.1086582E+000  0.3612562E+03  0.7546771E-02  0.1058088E+00
         21   -1    0    0  503  502  0.00000000000E+00  0.00000000000E+00  0.77357482580E+03  0.77357482580E+03  0.00000000000E+00 0.  1.
         21   -1    0    0  501  503 -0.00000000000E+00 -0.00000000000E+00 -0.18508194157E+03  0.18508194157E+03  0.00000000000E+00 0. -1.
          6    1    1    2  501    0  0.27548746796E+03  0.15820468241E+03  0.43682866170E+03  0.56685566613E+03  0.17200000000E+03 0.  1.
         -6    1    1    2    0  502 -0.27548746796E+03 -0.15820468241E+03  0.15166422253E+03  0.39180110125E+03  0.17200000000E+03 0.  1.
<mgrwt>
<rscale>  2 0.36125623E+03</rscale>
<asrwt>0</asrwt>
<pdfrwt beam="1">  1       21 0.19339370E+00 0.36125623E+03</pdfrwt>
<pdfrwt beam="2">  1       21 0.46270487E-01 0.36125623E+03</pdfrwt>
<totfact> 0.57496378E+02</totfact>
</mgrwt>
</event>
<event>
 4    1  0.1086582E+000  0.2342558E+03  0.7546771E-02  0.1123680E+00
         21   -1    0    0  501  502  0.00000000000E+00  0.00000000000E+00  0.23695154809E+03  0.23695154809E+03  0.00000000000E+00 0.  1.
         21   -1    0    0  502  503 -0.00000000000E+00 -0.00000000000E+00 -0.46077800371E+03  0.46077800371E+03  0.00000000000E+00 0.  1.
          6    1    1    2  501    0  0.49790427623E+02  0.15103871305E+03  0.13412722160E+03  0.26993682797E+03  0.17200000000E+03 0.  1.
         -6    1    1    2    0  503 -0.49790427623E+02 -0.15103871305E+03 -0.35795367723E+03  0.42779272383E+03  0.17200000000E+03 0.  1.
<mgrwt>
<rscale>  2 0.23425580E+03</rscale>
<asrwt>0</asrwt>
<pdfrwt beam="1">  1       21 0.59237888E-01 0.23425580E+03</pdfrwt>
<pdfrwt beam="2">  1       21 0.11519450E+00 0.23425580E+03</pdfrwt>
<totfact> 0.14983094E+03</totfact>
</mgrwt>
</event>
<event>
 4    1  0.1086582E+000  0.1953725E+03  0.7546771E-02  0.1153703E+00
         21   -1    0    0  501  502  0.00000000000E+00  0.00000000000E+00  0.38244575526E+02  0.38244575526E+02  0.00000000000E+00 0.  1.
         21   -1    0    0  502  503 -0.00000000000E+00 -0.00000000000E+00 -0.14831273827E+04  0.14831273827E+04  0.00000000000E+00 0.  1.
          6    1    1    2  501    0  0.31753491488E+02 -0.87052497315E+02 -0.28741386758E+03  0.34753007465E+03  0.17200000000E+03 0.  1.
         -6    1    1    2    0  503 -0.31753491488E+02  0.87052497315E+02 -0.11574689396E+04  0.11738418836E+04  0.17200000000E+03 0.  1.
<mgrwt>
<rscale>  2 0.19537252E+03</rscale>
<asrwt>0</asrwt>
<pdfrwt beam="1">  1       21 0.95611440E-02 0.19537252E+03</pdfrwt>
<pdfrwt beam="2">  1       21 0.37078184E+00 0.19537252E+03</pdfrwt>
<totfact> 0.11501510E+03</totfact>
</mgrwt>
</event>
<event>
 4    1  0.1086582E+000  0.1893097E+03  0.7546771E-02  0.1159085E+00
         21   -1    0    0  501  502  0.00000000000E+00  0.00000000000E+00  0.12140152603E+03  0.12140152603E+03  0.00000000000E+00 0.  1.
         21   -1    0    0  502  503 -0.00000000000E+00 -0.00000000000E+00 -0.39138028895E+03  0.39138028895E+03  0.00000000000E+00 0.  1.
          6    1    1    2  501    0 -0.75730070026E+02 -0.22783968463E+02 -0.78914943231E+01  0.18947408374E+03  0.17200000000E+03 0.  1.
         -6    1    1    2    0  503  0.75730070026E+02  0.22783968463E+02 -0.26208726859E+03  0.32330773124E+03  0.17200000000E+03 0.  1.
<mgrwt>
<rscale>  2 0.18930967E+03</rscale>
<asrwt>0</asrwt>
<pdfrwt beam="1">  1       21 0.30350382E-01 0.18930967E+03</pdfrwt>
<pdfrwt beam="2">  1       21 0.97845072E-01 0.18930967E+03</pdfrwt>
<totfact> 0.90258563E+03</totfact>
</mgrwt>
</event>
<event>
 4    1  0.1086582E+000  0.2504391E+03  0.7546771E-02  0.1113028E+00
         21   -1    0    0  501  502  0.00000000000E+00  0.00000000000E+00  0.49921019582E+02  0.49921019582E+02  0.00000000000E+00 0. -1.
         21   -1    0    0  502  503 -0.00000000000E+00 -0.00000000000E+00 -0.12637736999E+04  0.12637736999E+04  0.00000000000E+00 0.  1.
          6    1    1    2  501    0 -0.17284886261E+03  0.57087988816E+02 -0.55668486713E+03  0.61042428610E+03  0.17200000000E+03 0. -1.
         -6    1    1    2    0  503  0.17284886261E+03 -0.57087988816E+02 -0.65716781321E+03  0.70327043340E+03  0.17200000000E+03 0.  1.
<mgrwt>
<rscale>  2 0.25043915E+03</rscale>
<asrwt>0</asrwt>
<pdfrwt beam="1">  1       21 0.12480255E-01 0.25043915E+03</pdfrwt>
<pdfrwt beam="2">  1       21 0.31594343E+00 0.25043915E+03</pdfrwt>
<totfact> 0.14113284E+03</totfact>
</mgrwt>
</event>
<event>
 4    1  0.1086582E+000  0.1884679E+03  0.7546771E-02  0.1159850E+00
         21   -1    0    0  503  502  0.00000000000E+00  0.00000000000E+00  0.34079956666E+03  0.34079956666E+03  0.00000000000E+00 0.  1.
         21   -1    0    0  501  503 -0.00000000000E+00 -0.00000000000E+00 -0.12184677395E+03  0.12184677395E+03  0.00000000000E+00 0.  1.
          6    1    1    2  501    0  0.34265337849E+02 -0.69007487312E+02  0.21508206609E+02  0.18969119546E+03  0.17200000000E+03 0.  1.
         -6    1    1    2    0  502 -0.34265337849E+02  0.69007487312E+02  0.19744458610E+03  0.27295514515E+03  0.17200000000E+03 0.  1.
<mgrwt>
<rscale>  2 0.18846789E+03</rscale>
<asrwt>0</asrwt>
<pdfrwt beam="1">  1       21 0.85199890E-01 0.18846789E+03</pdfrwt>
<pdfrwt beam="2">  1       21 0.30461694E-01 0.18846789E+03</pdfrwt>
<totfact> 0.12362146E+04</totfact>
</mgrwt>
</event>
<event>
 4    1  0.1086582E+000  0.1924770E+03  0.7546771E-02  0.1156246E+00
         21   -1    0    0  501  502  0.00000000000E+00  0.00000000000E+00  0.80836681763E+03  0.80836681763E+03  0.00000000000E+00 0. -1.
         21   -1    0    0  502  503 -0.00000000000E+00 -0.00000000000E+00 -0.46088448961E+02  0.46088448961E+02  0.00000000000E+00 0. -1.
          6    1    1    2  501    0  0.34333893394E+00 -0.86390190265E+02  0.41313710534E+03  0.45577368360E+03  0.17200000000E+03 0. -1.
         -6    1    1    2    0  503 -0.34333893394E+00  0.86390190265E+02  0.34914126333E+03  0.39868158299E+03  0.17200000000E+03 0. -1.
<mgrwt>
<rscale>  2 0.19247697E+03</rscale>
<asrwt>0</asrwt>
<pdfrwt beam="1">  1       21 0.20209166E+00 0.19247697E+03</pdfrwt>
<pdfrwt beam="2">  1       21 0.11522115E-01 0.19247697E+03</pdfrwt>
<totfact> 0.82167328E+03</totfact>
</mgrwt>
</event>
<event>
 4    1  0.1086582E+000  0.1740859E+03  0.7546771E-02  0.1173653E+00
         21   -1    0    0  501  502  0.00000000000E+00  0.00000000000E+00  0.48908637877E+03  0.48908637877E+03  0.00000000000E+00 0.  1.
         21   -1    0    0  502  503 -0.00000000000E+00 -0.00000000000E+00 -0.97493517589E+02  0.97493517589E+02  0.00000000000E+00 0.  1.
          6    1    1    2  501    0 -0.26655105438E+02  0.33772210104E+01  0.37284893166E+03  0.41148782012E+03  0.17200000000E+03 0.  1.
         -6    1    1    2    0  503  0.26655105438E+02 -0.33772210104E+01  0.18743929521E+02  0.17509207624E+03  0.17200000000E+03 0.  1.
<mgrwt>
<rscale>  2 0.17408590E+03</rscale>
<asrwt>0</asrwt>
<pdfrwt beam="1">  1       21 0.12227159E+00 0.17408590E+03</pdfrwt>
<pdfrwt beam="2">  1       21 0.24373381E-01 0.17408590E+03</pdfrwt>
<totfact> 0.81286948E+03</totfact>
</mgrwt>
</event>
<event>
 4    1  0.1086582E+000  0.1856988E+03  0.7546771E-02  0.1162399E+00
         21   -1    0    0  503  502  0.00000000000E+00  0.00000000000E+00  0.27161942405E+03  0.27161942405E+03  0.00000000000E+00 0. -1.
         21   -1    0    0  501  503 -0.00000000000E+00 -0.00000000000E+00 -0.40252323292E+03  0.40252323292E+03  0.00000000000E+00 0. -1.
          6    1    1    2  501    0 -0.42469544457E+02 -0.55645181755E+02 -0.34434589641E+03  0.39122646233E+03  0.17200000000E+03 0. -1.
         -6    1    1    2    0  502  0.42469544457E+02  0.55645181755E+02  0.21344208753E+03  0.28291619464E+03  0.17200000000E+03 0. -1.
<mgrwt>
<rscale>  2 0.18569881E+03</rscale>
<asrwt>0</asrwt>
<pdfrwt beam="1">  1       21 0.67904857E-01 0.18569881E+03</pdfrwt>
<pdfrwt beam="2">  1       21 0.10063081E+00 0.18569881E+03</pdfrwt>
<totfact> 0.16128398E+03</totfact>
</mgrwt>
</event>
<event>
 4    1  0.1086582E+000  0.1724882E+03  0.7546771E-02  0.1175278E+00
         21   -1    0    0  501  502  0.00000000000E+00  0.00000000000E+00  0.18072721122E+03  0.18072721122E+03  0.00000000000E+00 0.  1.
         21   -1    0    0  502  503 -0.00000000000E+00 -0.00000000000E+00 -0.16462625958E+03  0.16462625958E+03  0.00000000000E+00 0.  1.
          6    1    1    2  501    0 -0.26429830092E+01  0.12695981225E+02  0.85720890281E+01  0.17270105387E+03  0.17200000000E+03 0.  1.
         -6    1    1    2    0  503  0.26429830092E+01 -0.12695981225E+02  0.75288626077E+01  0.17265241693E+03  0.17200000000E+03 0.  1.
<mgrwt>
<rscale>  2 0.17248818E+03</rscale>
<asrwt>0</asrwt>
<pdfrwt beam="1">  1       21 0.45181803E-01 0.17248818E+03</pdfrwt>
<pdfrwt beam="2">  1       21 0.41156565E-01 0.17248818E+03</pdfrwt>
<totfact> 0.27026224E+04</totfact>
</mgrwt>
</event>
<event>
 4    1  0.1086582E+000  0.1898923E+03  0.7546771E-02  0.1158558E+00
         21   -1    0    0  503  502  0.00000000000E+00  0.00000000000E+00  0.24490089102E+03  0.24490089102E+03  0.00000000000E+00 0.  1.
         21   -1    0    0  501  503 -0.00000000000E+00 -0.00000000000E+00 -0.19049970145E+03  0.19049970145E+03  0.00000000000E+00 0.  1.
          6    1    1    2  501    0  0.51063862625E+02 -0.62189813231E+02 -0.76541738634E+02  0.20473819548E+03  0.17200000000E+03 0.  1.
         -6    1    1    2    0  502 -0.51063862625E+02  0.62189813231E+02  0.13094292821E+03  0.23066239699E+03  0.17200000000E+03 0.  1.
<mgrwt>
<rscale>  2 0.18989231E+03</rscale>
<asrwt>0</asrwt>
<pdfrwt beam="1">  1       21 0.61225223E-01 0.18989231E+03</pdfrwt>
<pdfrwt beam="2">  1       21 0.47624925E-01 0.18989231E+03</pdfrwt>
<totfact> 0.10479242E+04</totfact>
</mgrwt>
</event>
<event>
 4    1  0.1086582E+000  0.1885930E+03  0.7546771E-02  0.1159736E+00
         21   -1    0    0  501  502  0.00000000000E+00  0.00000000000E+00  0.25844564758E+03  0.25844564758E+03  0.00000000000E+00 0.  1.
         21   -1    0    0  502  503 -0.00000000000E+00 -0.00000000000E+00 -0.17682992891E+03  0.17682992891E+03  0.00000000000E+00 0. -1.
          6    1    1    2  501    0  0.50679444376E+02  0.58437316792E+02  0.14329129407E+03  0.23685379675E+03  0.17200000000E+03 0.  1.
         -6    1    1    2    0  503 -0.50679444376E+02 -0.58437316792E+02 -0.61675575405E+02  0.19842177975E+03  0.17200000000E+03 0. -1.
<mgrwt>
<rscale>  2 0.18859302E+03</rscale>
<asrwt>0</asrwt>
<pdfrwt beam="1">  1       21 0.64611412E-01 0.18859302E+03</pdfrwt>
<pdfrwt beam="2">  1       21 0.44207482E-01 0.18859302E+03</pdfrwt>
<totfact> 0.10881739E+04</totfact>
</mgrwt>
</event>
<event>
 4    1  0.1086582E+000  0.2586277E+03  0.7546771E-02  0.1107971E+00
         21   -1    0    0  503  502  0.00000000000E+00  0.00000000000E+00  0.17776487273E+04  0.17776487273E+04  0.00000000000E+00 0.  1.
         21   -1    0    0  501  503 -0.00000000000E+00 -0.00000000000E+00 -0.88142687136E+02  0.88142687136E+02  0.00000000000E+00 0. -1.
          6    1    1    2  501    0 -0.17331678671E+03  0.85238488285E+02  0.13851459446E+03  0.29338473259E+03  0.17200000000E+03 0. -1.
         -6    1    1    2    0  502  0.17331678671E+03 -0.85238488285E+02  0.15509914457E+04  0.15724066818E+04  0.17200000000E+03 0.  1.
<mgrwt>
<rscale>  2 0.25862774E+03</rscale>
<asrwt>0</asrwt>
<pdfrwt beam="1">  1       21 0.44441207E+00 0.25862774E+03</pdfrwt>
<pdfrwt beam="2">  1       21 0.22035678E-01 0.25862774E+03</pdfrwt>
<totfact> 0.78357939E+01</totfact>
</mgrwt>
</event>
<event>
 4    1  0.1086582E+000  0.2042730E+03  0.7546771E-02  0.1146183E+00
         21   -1    0    0  503  502  0.00000000000E+00  0.00000000000E+00  0.32827871100E+03  0.32827871100E+03  0.00000000000E+00 0.  1.
         21   -1    0    0  501  503 -0.00000000000E+00 -0.00000000000E+00 -0.16119337786E+03  0.16119337786E+03  0.00000000000E+00 0. -1.
          6    1    1    2  501    0 -0.10323830376E+03  0.38539673053E+02 -0.28994683704E+02  0.20632049207E+03  0.17200000000E+03 0. -1.
         -6    1    1    2    0  502  0.10323830376E+03 -0.38539673053E+02  0.19608001685E+03  0.28315159680E+03  0.17200000000E+03 0.  1.
<mgrwt>
<rscale>  2 0.20427299E+03</rscale>
<asrwt>0</asrwt>
<pdfrwt beam="1">  1       21 0.82069677E-01 0.20427299E+03</pdfrwt>
<pdfrwt beam="2">  1       21 0.40298345E-01 0.20427299E+03</pdfrwt>
<totfact> 0.76373230E+03</totfact>
</mgrwt>
</event>
<event>
 4    1  0.1086582E+000  0.3181221E+03  0.7546771E-02  0.1076517E+00
         21   -1    0    0  503  502  0.00000000000E+00  0.00000000000E+00  0.20783726349E+03  0.20783726349E+03  0.00000000000E+00 0.  1.
         21   -1    0    0  501  503 -0.00000000000E+00 -0.00000000000E+00 -0.11236073896E+04  0.11236073896E+04  0.00000000000E+00 0.  1.
          6    1    1    2  501    0  0.19764067504E+03 -0.18043231341E+03 -0.95901048243E+03  0.10103973286E+04  0.17200000000E+03 0.  1.
         -6    1    1    2    0  502 -0.19764067504E+03  0.18043231341E+03  0.43240356344E+02  0.32104732450E+03  0.17200000000E+03 0.  1.
<mgrwt>
<rscale>  2 0.31812208E+03</rscale>
<asrwt>0</asrwt>
<pdfrwt beam="1">  1       21 0.51959317E-01 0.31812208E+03</pdfrwt>
<pdfrwt beam="2">  1       21 0.28090184E+00 0.31812208E+03</pdfrwt>
<totfact> 0.13321540E+02</totfact>
</mgrwt>
</event>
<event>
 4    1  0.1086582E+000  0.2067628E+03  0.7546771E-02  0.1144155E+00
         21   -1    0    0  501  502  0.00000000000E+00  0.00000000000E+00  0.10422211455E+04  0.10422211455E+04  0.00000000000E+00 0.  1.
         21   -1    0    0  502  503 -0.00000000000E+00 -0.00000000000E+00 -0.87080634837E+02  0.87080634837E+02  0.00000000000E+00 0.  1.
          6    1    1    2  501    0  0.64380979351E+02  0.94983884233E+02  0.88823648427E+03  0.91198404633E+03  0.17200000000E+03 0.  1.
         -6    1    1    2    0  503 -0.64380979351E+02 -0.94983884233E+02  0.66904026387E+02  0.21731773400E+03  0.17200000000E+03 0.  1.
<mgrwt>
<rscale>  2 0.20676278E+03</rscale>
<asrwt>0</asrwt>
<pdfrwt beam="1">  1       21 0.26055525E+00 0.20676278E+03</pdfrwt>
<pdfrwt beam="2">  1       21 0.21770162E-01 0.20676278E+03</pdfrwt>
<totfact> 0.11163568E+03</totfact>
</mgrwt>
</event>
<event>
 4    1  0.1086582E+000  0.1874386E+03  0.7546771E-02  0.1160792E+00
         21   -1    0    0  501  502  0.00000000000E+00  0.00000000000E+00  0.19604575026E+03  0.19604575026E+03  0.00000000000E+00 0. -1.
         21   -1    0    0  502  503 -0.00000000000E+00 -0.00000000000E+00 -0.18222504257E+03  0.18222504257E+03  0.00000000000E+00 0. -1.
          6    1    1    2  501    0 -0.73939475410E+02 -0.90654767000E+01  0.31241539106E+02  0.19002437385E+03  0.17200000000E+03 0. -1.
         -6    1    1    2    0  503  0.73939475410E+02  0.90654767000E+01 -0.17420831412E+02  0.18824641898E+03  0.17200000000E+03 0. -1.
<mgrwt>
<rscale>  2 0.18743860E+03</rscale>
<asrwt>0</asrwt>
<pdfrwt beam="1">  1       21 0.49011438E-01 0.18743860E+03</pdfrwt>
<pdfrwt beam="2">  1       21 0.45556261E-01 0.18743860E+03</pdfrwt>
<totfact> 0.18411271E+04</totfact>
</mgrwt>
</event>
<event>
 4    1  0.1086582E+000  0.1895072E+03  0.7546771E-02  0.1158907E+00
         21   -1    0    0  501  502  0.00000000000E+00  0.00000000000E+00  0.33283384480E+02  0.33283384480E+02  0.00000000000E+00 0.  1.
         21   -1    0    0  502  503 -0.00000000000E+00 -0.00000000000E+00 -0.11143308509E+04  0.11143308509E+04  0.00000000000E+00 0. -1.
          6    1    1    2  501    0 -0.70444114152E+02  0.36967529245E+02 -0.43835946135E+03  0.47756883147E+03  0.17200000000E+03 0.  1.
         -6    1    1    2    0  503  0.70444114152E+02 -0.36967529245E+02 -0.64268800504E+03  0.67004540388E+03  0.17200000000E+03 0.  1.
<mgrwt>
<rscale>  2 0.18950718E+03</rscale>
<asrwt>0</asrwt>
<pdfrwt beam="1">  1       21 0.83208460E-02 0.18950718E+03</pdfrwt>
<pdfrwt beam="2">  1       21 0.27858272E+00 0.18950718E+03</pdfrwt>
<totfact> 0.50991165E+03</totfact>
</mgrwt>
</event>
<event>
 4    1  0.1086582E+000  0.1840811E+03  0.7546771E-02  0.1163911E+00
         21   -1    0    0  501  502  0.00000000000E+00  0.00000000000E+00  0.64785204472E+03  0.64785204472E+03  0.00000000000E+00 0.  1.
         21   -1    0    0  502  503 -0.00000000000E+00 -0.00000000000E+00 -0.84839574324E+02  0.84839574324E+02  0.00000000000E+00 0.  1.
          6    1    1    2  501    0  0.20565911299E+01 -0.65556202372E+02  0.50836999679E+03  0.54067171081E+03  0.17200000000E+03 0.  1.
         -6    1    1    2    0  503 -0.20565911299E+01  0.65556202372E+02  0.54642473609E+02  0.19201990823E+03  0.17200000000E+03 0.  1.
<mgrwt>
<rscale>  2 0.18408108E+03</rscale>
<asrwt>0</asrwt>
<pdfrwt beam="1">  1       21 0.16196300E+00 0.18408108E+03</pdfrwt>
<pdfrwt beam="2">  1       21 0.21209895E-01 0.18408108E+03</pdfrwt>
<totfact> 0.50735730E+03</totfact>
</mgrwt>
</event>
<event>
 4    1  0.1086582E+000  0.2123353E+03  0.7546771E-02  0.1139730E+00
         21   -1    0    0  503  502  0.00000000000E+00  0.00000000000E+00  0.61344784401E+02  0.61344784401E+02  0.00000000000E+00 0.  1.
         21   -1    0    0  501  503 -0.00000000000E+00 -0.00000000000E+00 -0.73497106832E+03  0.73497106832E+03  0.00000000000E+00 0. -1.
          6    1    1    2  501    0 -0.11913544176E+03  0.36180733404E+02 -0.33571531051E+03  0.39722923943E+03  0.17200000000E+03 0. -1.
         -6    1    1    2    0  502  0.11913544176E+03 -0.36180733404E+02 -0.33791097341E+03  0.39908661328E+03  0.17200000000E+03 0.  1.
<mgrwt>
<rscale>  2 0.21233535E+03</rscale>
<asrwt>0</asrwt>
<pdfrwt beam="1">  1       21 0.15336196E-01 0.21233535E+03</pdfrwt>
<pdfrwt beam="2">  1       21 0.18374276E+00 0.21233535E+03</pdfrwt>
<totfact> 0.63606111E+03</totfact>
</mgrwt>
</event>
<event>
 4    1  0.1086582E+000  0.2169775E+03  0.7546771E-02  0.1136157E+00
         21   -1    0    0  503  502  0.00000000000E+00  0.00000000000E+00  0.58146714095E+03  0.58146714095E+03  0.00000000000E+00 0. -1.
         21   -1    0    0  501  503 -0.00000000000E+00 -0.00000000000E+00 -0.82172794802E+02  0.82172794802E+02  0.00000000000E+00 0.  1.
          6    1    1    2  501    0 -0.11021286509E+03  0.73132409728E+02  0.20943969964E+03  0.30156958197E+03  0.17200000000E+03 0. -1.
         -6    1    1    2    0  502  0.11021286509E+03 -0.73132409728E+02  0.28985464651E+03  0.36207035378E+03  0.17200000000E+03 0.  1.
<mgrwt>
<rscale>  2 0.21697748E+03</rscale>
<asrwt>0</asrwt>
<pdfrwt beam="1">  1       21 0.14536677E+00 0.21697748E+03</pdfrwt>
<pdfrwt beam="2">  1       21 0.20543200E-01 0.21697748E+03</pdfrwt>
<totfact> 0.69924157E+03</totfact>
</mgrwt>
</event>
<event>
 4    1  0.1086582E+000  0.2014759E+03  0.7546771E-02  0.1148500E+00
         21   -1    0    0  501  502  0.00000000000E+00  0.00000000000E+00  0.42487579746E+03  0.42487579746E+03  0.00000000000E+00 0. -1.
         21   -1    0    0  502  503 -0.00000000000E+00 -0.00000000000E+00 -0.17562247723E+03  0.17562247723E+03  0.00000000000E+00 0. -1.
          6    1    1    2  501    0 -0.16937702366E+02  0.10354533448E+03  0.32737680854E+03  0.38440616127E+03  0.17200000000E+03 0. -1.
         -6    1    1    2    0  503  0.16937702366E+02 -0.10354533448E+03 -0.78123488311E+02  0.21609211342E+03  0.17200000000E+03 0. -1.
<mgrwt>
<rscale>  2 0.20147586E+03</rscale>
<asrwt>0</asrwt>
<pdfrwt beam="1">  1       21 0.10621895E+00 0.20147586E+03</pdfrwt>
<pdfrwt beam="2">  1       21 0.43905620E-01 0.20147586E+03</pdfrwt>
<totfact> 0.35155794E+03</totfact>
</mgrwt>
</event>
<event>
 4    1  0.1086582E+000  0.2285020E+03  0.7546771E-02  0.1127699E+00
         21   -1    0    0  501  502  0.00000000000E+00  0.00000000000E+00  0.44916754734E+03  0.44916754734E+03  0.00000000000E+00 0.  1.
         21   -1    0    0  502  503 -0.00000000000E+00 -0.00000000000E+00 -0.15212102182E+03  0.15212102182E+03  0.00000000000E+00 0. -1.
          6    1    1    2  501    0 -0.14806861477E+03 -0.26548604897E+02  0.29452735731E+03  0.37277272876E+03  0.17200000000E+03 0.  1.
         -6    1    1    2    0  503  0.14806861477E+03  0.26548604897E+02  0.25191682062E+01  0.22851584039E+03  0.17200000000E+03 0. -1.
<mgrwt>
<rscale>  2 0.22850195E+03</rscale>
<asrwt>0</asrwt>
<pdfrwt beam="1">  1       21 0.11229188E+00 0.22850195E+03</pdfrwt>
<pdfrwt beam="2">  1       21 0.38030256E-01 0.22850195E+03</pdfrwt>
<totfact> 0.40277307E+03</totfact>
</mgrwt>
</event>
<event>
 4    1  0.1086582E+000  0.1794258E+03  0.7546771E-02  0.1168360E+00
         21   -1    0    0  503  502  0.00000000000E+00  0.00000000000E+00  0.23633061950E+03  0.23633061950E+03  0.00000000000E+00 0. -1.
         21   -1    0    0  501  503 -0.00000000000E+00 -0.00000000000E+00 -0.16758478613E+03  0.16758478613E+03  0.00000000000E+00 0. -1.
          6    1    1    2  501    0  0.28948766838E+02  0.42090356124E+02 -0.52993515362E+02  0.18708805908E+03  0.17200000000E+03 0. -1.
         -6    1    1    2    0  502 -0.28948766838E+02 -0.42090356124E+02  0.12173934874E+03  0.21682734655E+03  0.17200000000E+03 0. -1.
<mgrwt>
<rscale>  2 0.17942583E+03</rscale>
<asrwt>0</asrwt>
<pdfrwt beam="1">  1       21 0.59082655E-01 0.17942583E+03</pdfrwt>
<pdfrwt beam="2">  1       21 0.41896197E-01 0.17942583E+03</pdfrwt>
<totfact> 0.14811634E+04</totfact>
</mgrwt>
</event>
<event>
 4    1  0.1086582E+000  0.2780926E+03  0.7546771E-02  0.1096735E+00
         21   -1    0    0  501  502  0.00000000000E+00  0.00000000000E+00  0.19014860516E+03  0.19014860516E+03  0.00000000000E+00 0. -1.
         21   -1    0    0  502  503 -0.00000000000E+00 -0.00000000000E+00 -0.51250605459E+03  0.51250605459E+03  0.00000000000E+00 0. -1.
          6    1    1    2  501    0 -0.18130317028E+03  0.12198637735E+03 -0.32080164963E+03  0.42455766889E+03  0.17200000000E+03 0. -1.
         -6    1    1    2    0  503  0.18130317028E+03 -0.12198637735E+03 -0.15557998087E+01  0.27809699086E+03  0.17200000000E+03 0. -1.
<mgrwt>
<rscale>  2 0.27809264E+03</rscale>
<asrwt>0</asrwt>
<pdfrwt beam="1">  1       21 0.47537152E-01 0.27809264E+03</pdfrwt>
<pdfrwt beam="2">  1       21 0.12812651E+00 0.27809264E+03</pdfrwt>
<totfact> 0.17722120E+03</totfact>
</mgrwt>
</event>
<event>
 4    1  0.1086582E+000  0.2432238E+03  0.7546771E-02  0.1117664E+00
         21   -1    0    0  503  502  0.00000000000E+00  0.00000000000E+00  0.10346819855E+04  0.10346819855E+04  0.00000000000E+00 0. -1.
         21   -1    0    0  501  503 -0.00000000000E+00 -0.00000000000E+00 -0.60063202102E+02  0.60063202102E+02  0.00000000000E+00 0. -1.
          6    1    1    2  501    0  0.35441765303E+02  0.16827869818E+03  0.36727654083E+03  0.44051094928E+03  0.17200000000E+03 0. -1.
         -6    1    1    2    0  502 -0.35441765303E+02 -0.16827869818E+03  0.60734224260E+03  0.65423423835E+03  0.17200000000E+03 0. -1.
<mgrwt>
<rscale>  2 0.24322385E+03</rscale>
<asrwt>0</asrwt>
<pdfrwt beam="1">  1       21 0.25867044E+00 0.24322385E+03</pdfrwt>
<pdfrwt beam="2">  1       21 0.15015804E-01 0.24322385E+03</pdfrwt>
<totfact> 0.21973137E+03</totfact>
</mgrwt>
</event>
<event>
 4    1  0.1086582E+000  0.1935726E+03  0.7546771E-02  0.1155278E+00
         21   -1    0    0  501  502  0.00000000000E+00  0.00000000000E+00  0.33708709942E+03  0.33708709942E+03  0.00000000000E+00 0. -1.
         21   -1    0    0  502  503 -0.00000000000E+00 -0.00000000000E+00 -0.12416294659E+03  0.12416294659E+03  0.00000000000E+00 0.  1.
          6    1    1    2  501    0  0.38842454680E+02  0.79859970678E+02  0.18109728211E+03  0.26507843516E+03  0.17200000000E+03 0.  1.
         -6    1    1    2    0  503 -0.38842454680E+02 -0.79859970678E+02  0.31826870728E+02  0.19617161085E+03  0.17200000000E+03 0. -1.
<mgrwt>
<rscale>  2 0.19357260E+03</rscale>
<asrwt>0</asrwt>
<pdfrwt beam="1">  1       21 0.84271773E-01 0.19357260E+03</pdfrwt>
<pdfrwt beam="2">  1       21 0.31040737E-01 0.19357260E+03</pdfrwt>
<totfact> 0.12176667E+04</totfact>
</mgrwt>
</event>
<event>
 4    1  0.1086582E+000  0.2106370E+03  0.7546771E-02  0.1141063E+00
         21   -1    0    0  501  502  0.00000000000E+00  0.00000000000E+00  0.72427679195E+03  0.72427679195E+03  0.00000000000E+00 0. -1.
         21   -1    0    0  502  503 -0.00000000000E+00 -0.00000000000E+00 -0.74961854769E+02  0.74961854769E+02  0.00000000000E+00 0. -1.
          6    1    1    2  501    0 -0.45563781888E+02  0.11272925606E+03  0.49551865242E+03  0.53842982670E+03  0.17200000000E+03 0. -1.
         -6    1    1    2    0  503  0.45563781888E+02 -0.11272925606E+03  0.15379628477E+03  0.26080882002E+03  0.17200000000E+03 0. -1.
<mgrwt>
<rscale>  2 0.21063699E+03</rscale>
<asrwt>0</asrwt>
<pdfrwt beam="1">  1       21 0.18106918E+00 0.21063699E+03</pdfrwt>
<pdfrwt beam="2">  1       21 0.18740466E-01 0.21063699E+03</pdfrwt>
<totfact> 0.45891454E+03</totfact>
</mgrwt>
</event>
<event>
 4    1  0.1086582E+000  0.1886995E+03  0.7546771E-02  0.1159640E+00
         21   -1    0    0  501  502  0.00000000000E+00  0.00000000000E+00  0.58974085464E+03  0.58974085464E+03  0.00000000000E+00 0. -1.
         21   -1    0    0  502  503 -0.00000000000E+00 -0.00000000000E+00 -0.74582061449E+02  0.74582061449E+02  0.00000000000E+00 0. -1.
          6    1    1    2  501    0 -0.52463621975E+02 -0.57193369200E+02  0.40253489520E+03  0.44456929152E+03  0.17200000000E+03 0. -1.
         -6    1    1    2    0  503  0.52463621975E+02  0.57193369200E+02  0.11262389799E+03  0.21975362457E+03  0.17200000000E+03 0. -1.
<mgrwt>
<rscale>  2 0.18869953E+03</rscale>
<asrwt>0</asrwt>
<pdfrwt beam="1">  1       21 0.14743520E+00 0.18869953E+03</pdfrwt>
<pdfrwt beam="2">  1       21 0.18645517E-01 0.18869953E+03</pdfrwt>
<totfact> 0.82515106E+03</totfact>
</mgrwt>
</event>
<event>
 4    1  0.1086582E+000  0.1730538E+03  0.7546771E-02  0.1174700E+00
         21   -1    0    0  501  502  0.00000000000E+00  0.00000000000E+00  0.73692364626E+03  0.73692364626E+03  0.00000000000E+00 0.  1.
         21   -1    0    0  502  503 -0.00000000000E+00 -0.00000000000E+00 -0.56366465140E+02  0.56366465140E+02  0.00000000000E+00 0.  1.
          6    1    1    2  501    0  0.14118387441E+02 -0.12817680152E+02  0.54979840465E+03  0.57639041244E+03  0.17200000000E+03 0.  1.
         -6    1    1    2    0  503 -0.14118387441E+02  0.12817680152E+02  0.13075877647E+03  0.21689969897E+03  0.17200000000E+03 0.  1.
<mgrwt>
<rscale>  2 0.17305381E+03</rscale>
<asrwt>0</asrwt>
<pdfrwt beam="1">  1       21 0.18423088E+00 0.17305381E+03</pdfrwt>
<pdfrwt beam="2">  1       21 0.14091619E-01 0.17305381E+03</pdfrwt>
<totfact> 0.76160598E+03</totfact>
</mgrwt>
</event>
<event>
 4    1  0.1086582E+000  0.1904862E+03  0.7546771E-02  0.1158024E+00
         21   -1    0    0  503  502  0.00000000000E+00  0.00000000000E+00  0.70877952380E+02  0.70877952380E+02  0.00000000000E+00 0. -1.
         21   -1    0    0  501  503 -0.00000000000E+00 -0.00000000000E+00 -0.52919564182E+03  0.52919564182E+03  0.00000000000E+00 0. -1.
          6    1    1    2  501    0 -0.81716114281E+02  0.48437079228E+01 -0.28334403594E+03  0.34142177368E+03  0.17200000000E+03 0. -1.
         -6    1    1    2    0  502  0.81716114281E+02 -0.48437079228E+01 -0.17497365350E+03  0.25865182052E+03  0.17200000000E+03 0. -1.
<mgrwt>
<rscale>  2 0.19048618E+03</rscale>
<asrwt>0</asrwt>
<pdfrwt beam="1">  1       21 0.17719489E-01 0.19048618E+03</pdfrwt>
<pdfrwt beam="2">  1       21 0.13229891E+00 0.19048618E+03</pdfrwt>
<totfact> 0.11970318E+04</totfact>
</mgrwt>
</event>
<event>
 4    1  0.1086582E+000  0.2215418E+03  0.7546771E-02  0.1132739E+00
         21   -1    0    0  503  502  0.00000000000E+00  0.00000000000E+00  0.47105499868E+02  0.47105499868E+02  0.00000000000E+00 0.  1.
         21   -1    0    0  501  503 -0.00000000000E+00 -0.00000000000E+00 -0.10505087033E+04  0.10505087033E+04  0.00000000000E+00 0.  1.
          6    1    1    2  501    0 -0.13610184127E+03  0.31193717069E+02 -0.55128806805E+03  0.59413743625E+03  0.17200000000E+03 0.  1.
         -6    1    1    2    0  502  0.13610184127E+03 -0.31193717069E+02 -0.45211513536E+03  0.50347676689E+03  0.17200000000E+03 0.  1.
<mgrwt>
<rscale>  2 0.22154178E+03</rscale>
<asrwt>0</asrwt>
<pdfrwt beam="1">  1       21 0.11776376E-01 0.22154178E+03</pdfrwt>
<pdfrwt beam="2">  1       21 0.26262716E+00 0.22154178E+03</pdfrwt>
<totfact> 0.33021107E+03</totfact>
</mgrwt>
</event>
<event>
 4    1  0.1086582E+000  0.1864981E+03  0.7546771E-02  0.1161658E+00
         21   -1    0    0  503  502  0.00000000000E+00  0.00000000000E+00  0.35575817227E+03  0.35575817227E+03  0.00000000000E+00 0. -1.
         21   -1    0    0  501  503 -0.00000000000E+00 -0.00000000000E+00 -0.11581294624E+03  0.11581294624E+03  0.00000000000E+00 0.  1.
          6    1    1    2  501    0 -0.42577708659E+02  0.58177962410E+02  0.26899514995E+02  0.18842802470E+03  0.17200000000E+03 0.  1.
         -6    1    1    2    0  502  0.42577708659E+02 -0.58177962410E+02  0.21304571104E+03  0.28314309382E+03  0.17200000000E+03 0. -1.
<mgrwt>
<rscale>  2 0.18649809E+03</rscale>
<asrwt>0</asrwt>
<pdfrwt beam="1">  1       21 0.88939541E-01 0.18649809E+03</pdfrwt>
<pdfrwt beam="2">  1       21 0.28953237E-01 0.18649809E+03</pdfrwt>
<totfact> 0.12380041E+04</totfact>
</mgrwt>
</event>
<event>
 4    1  0.1086582E+000  0.2115848E+03  0.7546771E-02  0.1140317E+00
         21   -1    0    0  501  502  0.00000000000E+00  0.00000000000E+00  0.79861432667E+02  0.79861432667E+02  0.00000000000E+00 0. -1.
         21   -1    0    0  502  503 -0.00000000000E+00 -0.00000000000E+00 -0.93828498046E+03  0.93828498046E+03  0.00000000000E+00 0.  1.
          6    1    1    2  501    0  0.82963589924E+02  0.91110650666E+02 -0.75220516310E+03  0.78139664404E+03  0.17200000000E+03 0.  1.
         -6    1    1    2    0  503 -0.82963589924E+02 -0.91110650666E+02 -0.10621838470E+03  0.23674976909E+03  0.17200000000E+03 0. -1.
<mgrwt>
<rscale>  2 0.21158475E+03</rscale>
<asrwt>0</asrwt>
<pdfrwt beam="1">  1       21 0.19965358E-01 0.21158475E+03</pdfrwt>
<pdfrwt beam="2">  1       21 0.23457125E+00 0.21158475E+03</pdfrwt>
<totfact> 0.18623849E+03</totfact>
</mgrwt>
</event>
<event>
 4    1  0.1086582E+000  0.1783124E+03  0.7546771E-02  0.1169446E+00
         21   -1    0    0  501  502  0.00000000000E+00  0.00000000000E+00  0.43748991831E+02  0.43748991831E+02  0.00000000000E+00 0. -1.
         21   -1    0    0  502  503 -0.00000000000E+00 -0.00000000000E+00 -0.76380267469E+03  0.76380267469E+03  0.00000000000E+00 0. -1.
          6    1    1    2  501    0  0.14766911531E+02  0.44645724925E+02 -0.27111436740E+03  0.32449699943E+03  0.17200000000E+03 0. -1.
         -6    1    1    2    0  503 -0.14766911531E+02 -0.44645724925E+02 -0.44893931545E+03  0.48305466708E+03  0.17200000000E+03 0. -1.
<mgrwt>
<rscale>  2 0.17831237E+03</rscale>
<asrwt>0</asrwt>
<pdfrwt beam="1">  1       21 0.10937247E-01 0.17831237E+03</pdfrwt>
<pdfrwt beam="2">  1       21 0.19095068E+00 0.17831237E+03</pdfrwt>
<totfact> 0.10772170E+04</totfact>
</mgrwt>
</event>
<event>
 4    1  0.1086582E+000  0.1920011E+03  0.7546771E-02  0.1156669E+00
         21   -1    0    0  503  502  0.00000000000E+00  0.00000000000E+00  0.87464226950E+02  0.87464226950E+02  0.00000000000E+00 0. -1.
         21   -1    0    0  501  503 -0.00000000000E+00 -0.00000000000E+00 -0.67664461859E+03  0.67664461859E+03  0.00000000000E+00 0. -1.
          6    1    1    2  501    0 -0.58744635194E+02  0.61883004406E+02 -0.52920476997E+03  0.56295837054E+03  0.17200000000E+03 0. -1.
         -6    1    1    2    0  502  0.58744635194E+02 -0.61883004406E+02 -0.59975621667E+02  0.20115047500E+03  0.17200000000E+03 0. -1.
<mgrwt>
<rscale>  2 0.19200114E+03</rscale>
<asrwt>0</asrwt>
<pdfrwt beam="1">  1       21 0.21866057E-01 0.19200114E+03</pdfrwt>
<pdfrwt beam="2">  1       21 0.16916115E+00 0.19200114E+03</pdfrwt>
<totfact> 0.42262488E+03</totfact>
</mgrwt>
</event>
<event>
 4    1  0.1086582E+000  0.1999007E+03  0.7546771E-02  0.1149823E+00
         21   -1    0    0  501  502  0.00000000000E+00  0.00000000000E+00  0.18397051877E+03  0.18397051877E+03  0.00000000000E+00 0. -1.
         21   -1    0    0  502  503 -0.00000000000E+00 -0.00000000000E+00 -0.21724762360E+03  0.21724762360E+03  0.00000000000E+00 0.  1.
          6    1    1    2  501    0  0.72605263312E+02  0.71447764165E+02 -0.14012109132E+02  0.20039123351E+03  0.17200000000E+03 0. -1.
         -6    1    1    2    0  503 -0.72605263312E+02 -0.71447764165E+02 -0.19264995695E+02  0.20082690886E+03  0.17200000000E+03 0. -1.
<mgrwt>
<rscale>  2 0.19990074E+03</rscale>
<asrwt>0</asrwt>
<pdfrwt beam="1">  1       21 0.45992630E-01 0.19990074E+03</pdfrwt>
<pdfrwt beam="2">  1       21 0.54311906E-01 0.19990074E+03</pdfrwt>
<totfact> 0.14445622E+04</totfact>
</mgrwt>
</event>
<event>
 4    1  0.1086582E+000  0.2329369E+03  0.7546771E-02  0.1124590E+00
         21   -1    0    0  503  502  0.00000000000E+00  0.00000000000E+00  0.13198382778E+03  0.13198382778E+03  0.00000000000E+00 0.  1.
         21   -1    0    0  501  503 -0.00000000000E+00 -0.00000000000E+00 -0.58575591843E+03  0.58575591843E+03  0.00000000000E+00 0. -1.
          6    1    1    2  501    0 -0.11779392126E+03  0.10392400416E+03 -0.42284286133E+03  0.48275841982E+03  0.17200000000E+03 0. -1.
         -6    1    1    2    0  502  0.11779392126E+03 -0.10392400416E+03 -0.30929229325E+02  0.23498132639E+03  0.17200000000E+03 0.  1.
<mgrwt>
<rscale>  2 0.23293692E+03</rscale>
<asrwt>0</asrwt>
<pdfrwt beam="1">  1       21 0.32995958E-01 0.23293692E+03</pdfrwt>
<pdfrwt beam="2">  1       21 0.14643898E+00 0.23293692E+03</pdfrwt>
<totfact> 0.27198682E+03</totfact>
</mgrwt>
</event>
<event>
 4    1  0.1086582E+000  0.2694216E+03  0.7546771E-02  0.1101611E+00
         21   -1    0    0  503  502  0.00000000000E+00  0.00000000000E+00  0.54317892515E+03  0.54317892515E+03  0.00000000000E+00 0. -1.
         21   -1    0    0  501  503 -0.00000000000E+00 -0.00000000000E+00 -0.15087129704E+03  0.15087129704E+03  0.00000000000E+00 0.  1.
          6    1    1    2  501    0  0.38405783156E+02  0.20378660339E+03  0.78860474035E+02  0.28072577058E+03  0.17200000000E+03 0.  1.
         -6    1    1    2    0  502 -0.38405783156E+02 -0.20378660339E+03  0.31344715408E+03  0.41332445161E+03  0.17200000000E+03 0. -1.
<mgrwt>
<rscale>  2 0.26942157E+03</rscale>
<asrwt>0</asrwt>
<pdfrwt beam="1">  1       21 0.13579473E+00 0.26942157E+03</pdfrwt>
<pdfrwt beam="2">  1       21 0.37717826E-01 0.26942157E+03</pdfrwt>
<totfact> 0.24702662E+03</totfact>
</mgrwt>
</event>
<event>
 4    1  0.1086582E+000  0.2908108E+03  0.7546771E-02  0.1089927E+00
         21   -1    0    0  503  502  0.00000000000E+00  0.00000000000E+00  0.60080906110E+03  0.60080906110E+03  0.00000000000E+00 0. -1.
         21   -1    0    0  501  503 -0.00000000000E+00 -0.00000000000E+00 -0.44050555312E+03  0.44050555312E+03  0.00000000000E+00 0. -1.
          6    1    1    2  501    0  0.19292779824E+03  0.13328827245E+03 -0.34933663167E+03  0.45454040650E+03  0.17200000000E+03 0. -1.
         -6    1    1    2    0  502 -0.19292779824E+03 -0.13328827245E+03  0.50964013965E+03  0.58677420773E+03  0.17200000000E+03 0. -1.
<mgrwt>
<rscale>  2 0.29081076E+03</rscale>
<asrwt>0</asrwt>
<pdfrwt beam="1">  1       21 0.15020226E+00 0.29081076E+03</pdfrwt>
<pdfrwt beam="2">  1       21 0.11012639E+00 0.29081076E+03</pdfrwt>
<totfact> 0.17496309E+02</totfact>
</mgrwt>
</event>
<event>
 4    1  0.1086582E+000  0.1815135E+03  0.7546771E-02  0.1166346E+00
         21   -1    0    0  501  502  0.00000000000E+00  0.00000000000E+00  0.16349772179E+03  0.16349772179E+03  0.00000000000E+00 0.  1.
         21   -1    0    0  502  503 -0.00000000000E+00 -0.00000000000E+00 -0.30431566902E+03  0.30431566902E+03  0.00000000000E+00 0.  1.
          6    1    1    2  501    0  0.37408002954E+02  0.44314637505E+02  0.65541187891E+02  0.19298391926E+03  0.17200000000E+03 0.  1.
         -6    1    1    2    0  503 -0.37408002954E+02 -0.44314637505E+02 -0.20635913512E+03  0.27482947155E+03  0.17200000000E+03 0.  1.
<mgrwt>
<rscale>  2 0.18151349E+03</rscale>
<asrwt>0</asrwt>
<pdfrwt beam="1">  1       21 0.40874431E-01 0.18151349E+03</pdfrwt>
<pdfrwt beam="2">  1       21 0.76078917E-01 0.18151349E+03</pdfrwt>
<totfact> 0.89493650E+03</totfact>
</mgrwt>
</event>
<event>
 4    1  0.1086582E+000  0.1745846E+03  0.7546771E-02  0.1173149E+00
         21   -1    0    0  503  502  0.00000000000E+00  0.00000000000E+00  0.51509874117E+02  0.51509874117E+02  0.00000000000E+00 0. -1.
         21   -1    0    0  501  503 -0.00000000000E+00 -0.00000000000E+00 -0.84802332330E+03  0.84802332330E+03  0.00000000000E+00 0. -1.
          6    1    1    2  501    0 -0.27502298627E+02 -0.11806713019E+02 -0.64551715873E+03  0.66870933679E+03  0.17200000000E+03 0. -1.
         -6    1    1    2    0  502  0.27502298627E+02  0.11806713019E+02 -0.15099629046E+03  0.23082386062E+03  0.17200000000E+03 0. -1.
<mgrwt>
<rscale>  2 0.17458458E+03</rscale>
<asrwt>0</asrwt>
<pdfrwt beam="1">  1       21 0.12877468E-01 0.17458458E+03</pdfrwt>
<pdfrwt beam="2">  1       21 0.21200583E+00 0.17458458E+03</pdfrwt>
<totfact> 0.59315693E+03</totfact>
</mgrwt>
</event>
<event>
 4    1  0.1086582E+000  0.2130307E+03  0.7546771E-02  0.1139188E+00
         21   -1    0    0  501  502  0.00000000000E+00  0.00000000000E+00  0.47690905478E+03  0.47690905478E+03  0.00000000000E+00 0.  1.
         21   -1    0    0  502  503 -0.00000000000E+00 -0.00000000000E+00 -0.18575317084E+03  0.18575317084E+03  0.00000000000E+00 0.  1.
          6    1    1    2  501    0  0.12532389462E+03 -0.95925924685E+01  0.37696799868E+03  0.43299765406E+03  0.17200000000E+03 0.  1.
         -6    1    1    2    0  503 -0.12532389462E+03  0.95925924685E+01 -0.85812114737E+02  0.22966457156E+03  0.17200000000E+03 0.  1.
<mgrwt>
<rscale>  2 0.21303074E+03</rscale>
<asrwt>0</asrwt>
<pdfrwt beam="1">  1       21 0.11922726E+00 0.21303074E+03</pdfrwt>
<pdfrwt beam="2">  1       21 0.46438294E-01 0.21303074E+03</pdfrwt>
<totfact> 0.23410402E+03</totfact>
</mgrwt>
</event>
<event>
 4    1  0.1086582E+000  0.1895255E+03  0.7546771E-02  0.1158890E+00
         21   -1    0    0  501  502  0.00000000000E+00  0.00000000000E+00  0.18554176896E+04  0.18554176896E+04  0.00000000000E+00 0. -1.
         21   -1    0    0  502  503 -0.00000000000E+00 -0.00000000000E+00 -0.23875496411E+02  0.23875496411E+02  0.00000000000E+00 0.  1.
          6    1    1    2  501    0 -0.48907639036E+02  0.62801003825E+02  0.13244347875E+04  0.13379265412E+04  0.17200000000E+03 0. -1.
         -6    1    1    2    0  503  0.48907639036E+02 -0.62801003825E+02  0.50710740569E+03  0.54136664484E+03  0.17200000000E+03 0.  1.
<mgrwt>
<rscale>  2 0.18952552E+03</rscale>
<asrwt>0</asrwt>
<pdfrwt beam="1">  1       21 0.46385393E+00 0.18952552E+03</pdfrwt>
<pdfrwt beam="2">  1       21 0.59688804E-02 0.18952552E+03</pdfrwt>
<totfact> 0.67224308E+02</totfact>
</mgrwt>
</event>
<event>
 4    1  0.1086582E+000  0.1840954E+03  0.7546771E-02  0.1163897E+00
         21   -1    0    0  503  502  0.00000000000E+00  0.00000000000E+00  0.37982555857E+02  0.37982555857E+02  0.00000000000E+00 0.  1.
         21   -1    0    0  501  503 -0.00000000000E+00 -0.00000000000E+00 -0.10838620214E+04  0.10838620214E+04  0.00000000000E+00 0.  1.
          6    1    1    2  501    0  0.24295705396E+02 -0.60965736809E+02 -0.28711342304E+03  0.34106483263E+03  0.17200000000E+03 0. -1.
         -6    1    1    2    0  502 -0.24295705396E+02  0.60965736809E+02 -0.75876604246E+03  0.78077974459E+03  0.17200000000E+03 0. -1.
<mgrwt>
<rscale>  2 0.18409536E+03</rscale>
<asrwt>0</asrwt>
<pdfrwt beam="1">  1       21 0.94956390E-02 0.18409536E+03</pdfrwt>
<pdfrwt beam="2">  1       21 0.27096550E+00 0.18409536E+03</pdfrwt>
<totfact> 0.45045014E+03</totfact>
</mgrwt>
</event>
<event>
 4    1  0.1086582E+000  0.2016778E+03  0.7546771E-02  0.1148331E+00
         21   -1    0    0  501  502  0.00000000000E+00  0.00000000000E+00  0.30114592710E+03  0.30114592710E+03  0.00000000000E+00 0. -1.
         21   -1    0    0  502  503 -0.00000000000E+00 -0.00000000000E+00 -0.18985069574E+03  0.18985069574E+03  0.00000000000E+00 0. -1.
          6    1    1    2  501    0  0.10232786586E+03  0.24878480903E+02  0.18752809808E+03  0.27539193618E+03  0.17200000000E+03 0. -1.
         -6    1    1    2    0  503 -0.10232786586E+03 -0.24878480903E+02 -0.76232866722E+02  0.21560468667E+03  0.17200000000E+03 0. -1.
<mgrwt>
<rscale>  2 0.20167779E+03</rscale>
<asrwt>0</asrwt>
<pdfrwt beam="1">  1       21 0.75286481E-01 0.20167779E+03</pdfrwt>
<pdfrwt beam="2">  1       21 0.47462674E-01 0.20167779E+03</pdfrwt>
<totfact> 0.66483729E+03</totfact>
</mgrwt>
</event>
<event>
 4    1  0.1086582E+000  0.1825685E+03  0.7546771E-02  0.1165340E+00
         21   -1    0    0  501  502  0.00000000000E+00  0.00000000000E+00  0.26585868369E+03  0.26585868369E+03  0.00000000000E+00 0.  1.
         21   -1    0    0  502  503 -0.00000000000E+00 -0.00000000000E+00 -0.13226628366E+03  0.13226628366E+03  0.00000000000E+00 0.  1.
          6    1    1    2  501    0 -0.60679133807E+02  0.80805087179E+01  0.21348971731E+02  0.18381248732E+03  0.17200000000E+03 0.  1.
         -6    1    1    2    0  503  0.60679133807E+02 -0.80805087179E+01  0.11224342830E+03  0.21431248003E+03  0.17200000000E+03 0.  1.
<mgrwt>
<rscale>  2 0.18256849E+03</rscale>
<asrwt>0</asrwt>
<pdfrwt beam="1">  1       21 0.66464670E-01 0.18256849E+03</pdfrwt>
<pdfrwt beam="2">  1       21 0.33066571E-01 0.18256849E+03</pdfrwt>
<totfact> 0.18393867E+04</totfact>
</mgrwt>
</event>
<event>
 4    1  0.1086582E+000  0.2027174E+03  0.7546771E-02  0.1147466E+00
         21   -1    0    0  501  502  0.00000000000E+00  0.00000000000E+00  0.88243930676E+02  0.88243930676E+02  0.00000000000E+00 0. -1.
         21   -1    0    0  502  503 -0.00000000000E+00 -0.00000000000E+00 -0.53780390679E+03  0.53780390679E+03  0.00000000000E+00 0.  1.
          6    1    1    2  501    0 -0.93040862060E+02 -0.53420259120E+02 -0.33940376583E+03  0.39533434250E+03  0.17200000000E+03 0.  1.
         -6    1    1    2    0  503  0.93040862060E+02  0.53420259120E+02 -0.11015621029E+03  0.23071349497E+03  0.17200000000E+03 0. -1.
<mgrwt>
<rscale>  2 0.20271736E+03</rscale>
<asrwt>0</asrwt>
<pdfrwt beam="1">  1       21 0.22060983E-01 0.20271736E+03</pdfrwt>
<pdfrwt beam="2">  1       21 0.13445098E+00 0.20271736E+03</pdfrwt>
<totfact> 0.75632783E+03</totfact>
</mgrwt>
</event>
<event>
 4    1  0.1086582E+000  0.1766630E+03  0.7546771E-02  0.1171072E+00
         21   -1    0    0  503  502  0.00000000000E+00  0.00000000000E+00  0.15750153803E+03  0.15750153803E+03  0.00000000000E+00 0. -1.
         21   -1    0    0  501  503 -0.00000000000E+00 -0.00000000000E+00 -0.21053689765E+03  0.21053689765E+03  0.00000000000E+00 0. -1.
          6    1    1    2  501    0 -0.34871541790E+02 -0.20243059679E+02 -0.71143150262E+02  0.19044987194E+03  0.17200000000E+03 0. -1.
         -6    1    1    2    0  502  0.34871541790E+02  0.20243059679E+02  0.18107790641E+02  0.17758856375E+03  0.17200000000E+03 0. -1.
<mgrwt>
<rscale>  2 0.17666297E+03</rscale>
<asrwt>0</asrwt>
<pdfrwt beam="1">  1       21 0.39375385E-01 0.17666297E+03</pdfrwt>
<pdfrwt beam="2">  1       21 0.52634224E-01 0.17666297E+03</pdfrwt>
<totfact> 0.21480726E+04</totfact>
</mgrwt>
</event>
<event>
 4    1  0.1086582E+000  0.1935218E+03  0.7546771E-02  0.1155323E+00
         21   -1    0    0  503  502  0.00000000000E+00  0.00000000000E+00  0.91717066997E+02  0.91717066997E+02  0.00000000000E+00 0. -1.
         21   -1    0    0  501  503 -0.00000000000E+00 -0.00000000000E+00 -0.40966857624E+03  0.40966857624E+03  0.00000000000E+00 0. -1.
          6    1    1    2  501    0  0.56408225454E+01 -0.88514870668E+02 -0.17331329807E+03  0.25978491199E+03  0.17200000000E+03 0. -1.
         -6    1    1    2    0  502 -0.56408225454E+01  0.88514870668E+02 -0.14463821117E+03  0.24160073124E+03  0.17200000000E+03 0. -1.
<mgrwt>
<rscale>  2 0.19352184E+03</rscale>
<asrwt>0</asrwt>
<pdfrwt beam="1">  1       21 0.22929267E-01 0.19352184E+03</pdfrwt>
<pdfrwt beam="2">  1       21 0.10241714E+00 0.19352184E+03</pdfrwt>
<totfact> 0.13837735E+04</totfact>
</mgrwt>
</event>
<event>
 4    1  0.1086582E+000  0.3444177E+03  0.7546771E-02  0.1064930E+00
         21   -1    0    0  503  502  0.00000000000E+00  0.00000000000E+00  0.45871645643E+03  0.45871645643E+03  0.00000000000E+00 0. -1.
         21   -1    0    0  501  503 -0.00000000000E+00 -0.00000000000E+00 -0.28820383253E+03  0.28820383253E+03  0.00000000000E+00 0.  1.
          6    1    1    2  501    0 -0.53745639033E+02 -0.29351482541E+03 -0.34438910467E+02  0.34613521203E+03  0.17200000000E+03 0.  1.
         -6    1    1    2    0  502  0.53745639033E+02  0.29351482541E+03  0.20495153437E+03  0.40078507693E+03  0.17200000000E+03 0. -1.
<mgrwt>
<rscale>  2 0.34441769E+03</rscale>
<asrwt>0</asrwt>
<pdfrwt beam="1">  1       21 0.11467911E+00 0.34441769E+03</pdfrwt>
<pdfrwt beam="2">  1       21 0.72050959E-01 0.34441769E+03</pdfrwt>
<totfact> 0.91453303E+02</totfact>
</mgrwt>
</event>
<event>
 4    1  0.1086582E+000  0.1893381E+03  0.7546771E-02  0.1159060E+00
         21   -1    0    0  503  502  0.00000000000E+00  0.00000000000E+00  0.10279204165E+03  0.10279204165E+03  0.00000000000E+00 0. -1.
         21   -1    0    0  501  503 -0.00000000000E+00 -0.00000000000E+00 -0.76922196991E+03  0.76922196991E+03  0.00000000000E+00 0.  1.
          6    1    1    2  501    0 -0.79137394409E+02  0.14813732688E+01 -0.65557052171E+03  0.68236473428E+03  0.17200000000E+03 0.  1.
         -6    1    1    2    0  502  0.79137394409E+02 -0.14813732688E+01 -0.10859406551E+02  0.18964927728E+03  0.17200000000E+03 0. -1.
<mgrwt>
<rscale>  2 0.18933811E+03</rscale>
<asrwt>0</asrwt>
<pdfrwt beam="1">  1       21 0.25698011E-01 0.18933811E+03</pdfrwt>
<pdfrwt beam="2">  1       21 0.19230549E+00 0.18933811E+03</pdfrwt>
<totfact> 0.21718783E+03</totfact>
</mgrwt>
</event>
<event>
 4    1  0.1086582E+000  0.2210134E+03  0.7546771E-02  0.1133130E+00
         21   -1    0    0  503  502  0.00000000000E+00  0.00000000000E+00  0.71059662912E+03  0.71059662912E+03  0.00000000000E+00 0. -1.
         21   -1    0    0  501  503 -0.00000000000E+00 -0.00000000000E+00 -0.15882183515E+03  0.15882183515E+03  0.00000000000E+00 0. -1.
          6    1    1    2  501    0  0.27457276289E+02  0.13604782923E+03 -0.51499029660E+02  0.22693405191E+03  0.17200000000E+03 0. -1.
         -6    1    1    2    0  502 -0.27457276289E+02 -0.13604782923E+03  0.60327382363E+03  0.64248441236E+03  0.17200000000E+03 0. -1.
<mgrwt>
<rscale>  2 0.22101338E+03</rscale>
<asrwt>0</asrwt>
<pdfrwt beam="1">  1       21 0.17764915E+00 0.22101338E+03</pdfrwt>
<pdfrwt beam="2">  1       21 0.39705461E-01 0.22101338E+03</pdfrwt>
<totfact> 0.11214751E+03</totfact>
</mgrwt>
</event>
<event>
 4    1  0.1086582E+000  0.2422784E+03  0.7546771E-02  0.1118284E+00
         21   -1    0    0  501  502  0.00000000000E+00  0.00000000000E+00  0.39270984776E+03  0.39270984776E+03  0.00000000000E+00 0.  1.
         21   -1    0    0  502  503 -0.00000000000E+00 -0.00000000000E+00 -0.15611957103E+03  0.15611957103E+03  0.00000000000E+00 0.  1.
          6    1    1    2  501    0 -0.24607205984E+02 -0.16884700271E+03  0.17492366717E+03  0.29882622751E+03  0.17200000000E+03 0.  1.
         -6    1    1    2    0  503  0.24607205984E+02  0.16884700271E+03  0.61666609558E+02  0.25000319127E+03  0.17200000000E+03 0.  1.
<mgrwt>
<rscale>  2 0.24227840E+03</rscale>
<asrwt>0</asrwt>
<pdfrwt beam="1">  1       21 0.98177460E-01 0.24227840E+03</pdfrwt>
<pdfrwt beam="2">  1       21 0.39029893E-01 0.24227840E+03</pdfrwt>
<totfact> 0.52364863E+03</totfact>
</mgrwt>
</event>
<event>
 4    1  0.1086582E+000  0.2305757E+03  0.7546771E-02  0.1126235E+00
         21   -1    0    0  503  502  0.00000000000E+00  0.00000000000E+00  0.67516424484E+03  0.67516424484E+03  0.00000000000E+00 0.  1.
         21   -1    0    0  501  503 -0.00000000000E+00 -0.00000000000E+00 -0.83441788643E+02  0.83441788643E+02  0.00000000000E+00 0.  1.
          6    1    1    2  501    0 -0.78792371599E+02 -0.13180642074E+03  0.20586201901E+03  0.30910247692E+03  0.17200000000E+03 0.  1.
         -6    1    1    2    0  502  0.78792371599E+02  0.13180642074E+03  0.38586043719E+03  0.44950355656E+03  0.17200000000E+03 0.  1.
<mgrwt>
<rscale>  2 0.23057574E+03</rscale>
<asrwt>0</asrwt>
<pdfrwt beam="1">  1       21 0.16879104E+00 0.23057574E+03</pdfrwt>
<pdfrwt beam="2">  1       21 0.20860449E-01 0.23057574E+03</pdfrwt>
<totfact> 0.44983075E+03</totfact>
</mgrwt>
</event>
<event>
 4    1  0.1086582E+000  0.2096948E+03  0.7546771E-02  0.1141808E+00
         21   -1    0    0  501  502  0.00000000000E+00  0.00000000000E+00  0.55086615483E+02  0.55086615483E+02  0.00000000000E+00 0.  1.
         21   -1    0    0  502  503 -0.00000000000E+00 -0.00000000000E+00 -0.83100680152E+03  0.83100680152E+03  0.00000000000E+00 0.  1.
          6    1    1    2  501    0 -0.83916068539E+02 -0.85708717578E+02 -0.47594704504E+03  0.52009372281E+03  0.17200000000E+03 0.  1.
         -6    1    1    2    0  503  0.83916068539E+02  0.85708717578E+02 -0.29997314100E+03  0.36599969420E+03  0.17200000000E+03 0.  1.
<mgrwt>
<rscale>  2 0.20969476E+03</rscale>
<asrwt>0</asrwt>
<pdfrwt beam="1">  1       21 0.13771654E-01 0.20969476E+03</pdfrwt>
<pdfrwt beam="2">  1       21 0.20775170E+00 0.20969476E+03</pdfrwt>
<totfact> 0.54064529E+03</totfact>
</mgrwt>
</event>
<event>
 4    1  0.1086582E+000  0.1780050E+03  0.7546771E-02  0.1169748E+00
         21   -1    0    0  501  502  0.00000000000E+00  0.00000000000E+00  0.28209923459E+03  0.28209923459E+03  0.00000000000E+00 0. -1.
         21   -1    0    0  502  503 -0.00000000000E+00 -0.00000000000E+00 -0.11100691905E+04  0.11100691905E+04  0.00000000000E+00 0. -1.
          6    1    1    2  501    0 -0.78861315682E+00 -0.45838386481E+02  0.24594392218E+03  0.30360202971E+03  0.17200000000E+03 0. -1.
         -6    1    1    2    0  503  0.78861315682E+00  0.45838386481E+02 -0.10739138781E+04  0.10885663954E+04  0.17200000000E+03 0. -1.
<mgrwt>
<rscale>  2 0.17800500E+03</rscale>
<asrwt>0</asrwt>
<pdfrwt beam="1">  1       21 0.70524809E-01 0.17800500E+03</pdfrwt>
<pdfrwt beam="2">  1       21 0.27751729E+00 0.17800500E+03</pdfrwt>
<totfact> 0.85936934E+01</totfact>
</mgrwt>
</event>
<event>
 4    1  0.1086582E+000  0.1775685E+03  0.7546771E-02  0.1170177E+00
         21   -1    0    0  501  502  0.00000000000E+00  0.00000000000E+00  0.67652636631E+02  0.67652636631E+02  0.00000000000E+00 0.  1.
         21   -1    0    0  502  503 -0.00000000000E+00 -0.00000000000E+00 -0.48076812336E+03  0.48076812336E+03  0.00000000000E+00 0.  1.
          6    1    1    2  501    0  0.99912280226E+00  0.44108855854E+02 -0.25450977758E+03  0.31033178422E+03  0.17200000000E+03 0. -1.
         -6    1    1    2    0  503 -0.99912280226E+00 -0.44108855854E+02 -0.15860570915E+03  0.23808897578E+03  0.17200000000E+03 0. -1.
<mgrwt>
<rscale>  2 0.17756855E+03</rscale>
<asrwt>0</asrwt>
<pdfrwt beam="1">  1       21 0.16913159E-01 0.17756855E+03</pdfrwt>
<pdfrwt beam="2">  1       21 0.12019203E+00 0.17756855E+03</pdfrwt>
<totfact> 0.16732248E+04</totfact>
</mgrwt>
</event>
<event>
 4    1  0.1086582E+000  0.1885861E+03  0.7546771E-02  0.1159743E+00
         21   -1    0    0  503  502  0.00000000000E+00  0.00000000000E+00  0.28891409995E+03  0.28891409995E+03  0.00000000000E+00 0.  1.
         21   -1    0    0  501  503 -0.00000000000E+00 -0.00000000000E+00 -0.16500201472E+03  0.16500201472E+03  0.00000000000E+00 0.  1.
          6    1    1    2  501    0  0.76914857445E+02 -0.80502072790E+01 -0.52418570248E+02  0.19573555538E+03  0.17200000000E+03 0.  1.
         -6    1    1    2    0  502 -0.76914857445E+02  0.80502072790E+01  0.17633065548E+03  0.25818055929E+03  0.17200000000E+03 0.  1.
<mgrwt>
<rscale>  2 0.18858606E+03</rscale>
<asrwt>0</asrwt>
<pdfrwt beam="1">  1       21 0.72228524E-01 0.18858606E+03</pdfrwt>
<pdfrwt beam="2">  1       21 0.41250504E-01 0.18858606E+03</pdfrwt>
<totfact> 0.98121892E+03</totfact>
</mgrwt>
</event>
<event>
 4    1  0.1086582E+000  0.1935758E+03  0.7546771E-02  0.1155275E+00
         21   -1    0    0  501  502  0.00000000000E+00  0.00000000000E+00  0.11990841594E+03  0.11990841594E+03  0.00000000000E+00 0.  1.
         21   -1    0    0  502  503 -0.00000000000E+00 -0.00000000000E+00 -0.31871848783E+03  0.31871848783E+03  0.00000000000E+00 0.  1.
          6    1    1    2  501    0 -0.75085367240E+02 -0.47432003825E+02 -0.68775683895E+02  0.20543052854E+03  0.17200000000E+03 0.  1.
         -6    1    1    2    0  503  0.75085367240E+02  0.47432003825E+02 -0.13003438799E+03  0.23319637523E+03  0.17200000000E+03 0.  1.
<mgrwt>
<rscale>  2 0.19357584E+03</rscale>
<asrwt>0</asrwt>
<pdfrwt beam="1">  1       21 0.29977104E-01 0.19357584E+03</pdfrwt>
<pdfrwt beam="2">  1       21 0.79679622E-01 0.19357584E+03</pdfrwt>
<totfact> 0.14803657E+04</totfact>
</mgrwt>
</event>
<event>
 4    1  0.1086582E+000  0.1723754E+03  0.7546771E-02  0.1175393E+00
         21   -1    0    0  503  502  0.00000000000E+00  0.00000000000E+00  0.16405057519E+03  0.16405057519E+03  0.00000000000E+00 0. -1.
         21   -1    0    0  501  503 -0.00000000000E+00 -0.00000000000E+00 -0.25241070822E+03  0.25241070822E+03  0.00000000000E+00 0. -1.
          6    1    1    2  501    0  0.10611872389E+02 -0.40815664795E+01  0.66482111783E+02  0.18475156889E+03  0.17200000000E+03 0.  1.
         -6    1    1    2    0  502 -0.10611872389E+02  0.40815664795E+01 -0.15484224482E+03  0.23170971452E+03  0.17200000000E+03 0.  1.
<mgrwt>
<rscale>  2 0.17237538E+03</rscale>
<asrwt>0</asrwt>
<pdfrwt beam="1">  1       21 0.41012644E-01 0.17237538E+03</pdfrwt>
<pdfrwt beam="2">  1       21 0.63102677E-01 0.17237538E+03</pdfrwt>
<totfact> 0.13489948E+04</totfact>
</mgrwt>
</event>
<event>
 4    1  0.1086582E+000  0.1930399E+03  0.7546771E-02  0.1155748E+00
         21   -1    0    0  503  502  0.00000000000E+00  0.00000000000E+00  0.25042785142E+03  0.25042785142E+03  0.00000000000E+00 0. -1.
         21   -1    0    0  501  503 -0.00000000000E+00 -0.00000000000E+00 -0.30703489872E+03  0.30703489872E+03  0.00000000000E+00 0. -1.
          6    1    1    2  501    0 -0.85013482677E+02  0.21286497012E+02 -0.22839982086E+03  0.29904997135E+03  0.17200000000E+03 0. -1.
         -6    1    1    2    0  502  0.85013482677E+02 -0.21286497012E+02  0.17179277357E+03  0.25841277879E+03  0.17200000000E+03 0. -1.
<mgrwt>
<rscale>  2 0.19303991E+03</rscale>
<asrwt>0</asrwt>
<pdfrwt beam="1">  1       21 0.62606963E-01 0.19303991E+03</pdfrwt>
<pdfrwt beam="2">  1       21 0.76758725E-01 0.19303991E+03</pdfrwt>
<totfact> 0.35681319E+03</totfact>
</mgrwt>
</event>
<event>
 4    1  0.1086582E+000  0.1897040E+03  0.7546771E-02  0.1158729E+00
         21   -1    0    0  503  502  0.00000000000E+00  0.00000000000E+00  0.59815165073E+03  0.59815165073E+03  0.00000000000E+00 0.  1.
         21   -1    0    0  501  503 -0.00000000000E+00 -0.00000000000E+00 -0.93557835912E+02  0.93557835912E+02  0.00000000000E+00 0.  1.
          6    1    1    2  501    0  0.11297968269E+02 -0.79221077675E+02  0.45672242908E+02  0.19512451667E+03  0.17200000000E+03 0.  1.
         -6    1    1    2    0  502 -0.11297968269E+02  0.79221077675E+02  0.45892157191E+03  0.49658496997E+03  0.17200000000E+03 0.  1.
<mgrwt>
<rscale>  2 0.18970404E+03</rscale>
<asrwt>0</asrwt>
<pdfrwt beam="1">  1       21 0.14953790E+00 0.18970404E+03</pdfrwt>
<pdfrwt beam="2">  1       21 0.23389461E-01 0.18970404E+03</pdfrwt>
<totfact> 0.51937647E+03</totfact>
</mgrwt>
</event>
<event>
 4    1  0.1086582E+000  0.2337580E+03  0.7546771E-02  0.1124022E+00
         21   -1    0    0  503  502  0.00000000000E+00  0.00000000000E+00  0.30699209747E+03  0.30699209747E+03  0.00000000000E+00 0. -1.
         21   -1    0    0  501  503 -0.00000000000E+00 -0.00000000000E+00 -0.33584141630E+03  0.33584141630E+03  0.00000000000E+00 0. -1.
          6    1    1    2  501    0  0.88701420291E+02  0.13111392523E+03 -0.23477812964E+03  0.33130586096E+03  0.17200000000E+03 0. -1.
         -6    1    1    2    0  502 -0.88701420291E+02 -0.13111392523E+03  0.20592881080E+03  0.31152765281E+03  0.17200000000E+03 0. -1.
<mgrwt>
<rscale>  2 0.23375800E+03</rscale>
<asrwt>0</asrwt>
<pdfrwt beam="1">  1       21 0.76748025E-01 0.23375800E+03</pdfrwt>
<pdfrwt beam="2">  1       21 0.83960354E-01 0.23375800E+03</pdfrwt>
<totfact> 0.17965417E+03</totfact>
</mgrwt>
</event>
<event>
 4    1  0.1086582E+000  0.2468733E+03  0.7546771E-02  0.1115297E+00
         21   -1    0    0  503  502  0.00000000000E+00  0.00000000000E+00  0.53975646925E+03  0.53975646925E+03  0.00000000000E+00 0. -1.
         21   -1    0    0  501  503 -0.00000000000E+00 -0.00000000000E+00 -0.17238726842E+03  0.17238726842E+03  0.00000000000E+00 0. -1.
          6    1    1    2  501    0  0.16809790387E+03 -0.55727116420E+02 -0.25458514929E+02  0.24818249892E+03  0.17200000000E+03 0. -1.
         -6    1    1    2    0  502 -0.16809790387E+03  0.55727116420E+02  0.39282771576E+03  0.46396123875E+03  0.17200000000E+03 0. -1.
<mgrwt>
<rscale>  2 0.24687328E+03</rscale>
<asrwt>0</asrwt>
<pdfrwt beam="1">  1       21 0.13493911E+00 0.24687328E+03</pdfrwt>
<pdfrwt beam="2">  1       21 0.43096818E-01 0.24687328E+03</pdfrwt>
<totfact> 0.19443843E+03</totfact>
</mgrwt>
</event>
<event>
 4    1  0.1086582E+000  0.1746640E+03  0.7546771E-02  0.1173070E+00
         21   -1    0    0  503  502  0.00000000000E+00  0.00000000000E+00  0.77335437556E+03  0.77335437556E+03  0.00000000000E+00 0.  1.
         21   -1    0    0  501  503 -0.00000000000E+00 -0.00000000000E+00 -0.68179469473E+02  0.68179469473E+02  0.00000000000E+00 0.  1.
          6    1    1    2  501    0 -0.12644324438E+02  0.27633714840E+02  0.79443510140E+02  0.19188218375E+03  0.17200000000E+03 0. -1.
         -6    1    1    2    0  502  0.12644324438E+02 -0.27633714840E+02  0.62573139595E+03  0.64965166129E+03  0.17200000000E+03 0. -1.
<mgrwt>
<rscale>  2 0.17466397E+03</rscale>
<asrwt>0</asrwt>
<pdfrwt beam="1">  1       21 0.19333857E+00 0.17466397E+03</pdfrwt>
<pdfrwt beam="2">  1       21 0.17044870E-01 0.17466397E+03</pdfrwt>
<totfact> 0.46839145E+03</totfact>
</mgrwt>
</event>
<event>
 4    1  0.1086582E+000  0.1823595E+03  0.7546771E-02  0.1165539E+00
         21   -1    0    0  501  502  0.00000000000E+00  0.00000000000E+00  0.30409220563E+03  0.30409220563E+03  0.00000000000E+00 0.  1.
         21   -1    0    0  502  503 -0.00000000000E+00 -0.00000000000E+00 -0.67908967663E+03  0.67908967663E+03  0.00000000000E+00 0.  1.
          6    1    1    2  501    0  0.14963249361E+02  0.58711852906E+02  0.26277374907E+03  0.31985156511E+03  0.17200000000E+03 0.  1.
         -6    1    1    2    0  503 -0.14963249361E+02 -0.58711852906E+02 -0.63777122007E+03  0.66333031715E+03  0.17200000000E+03 0.  1.
<mgrwt>
<rscale>  2 0.18235948E+03</rscale>
<asrwt>0</asrwt>
<pdfrwt beam="1">  1       21 0.76023052E-01 0.18235948E+03</pdfrwt>
<pdfrwt beam="2">  1       21 0.16977242E+00 0.18235948E+03</pdfrwt>
<totfact> 0.33466560E+02</totfact>
</mgrwt>
</event>
<event>
 4    1  0.1086582E+000  0.1891459E+03  0.7546771E-02  0.1159234E+00
         21   -1    0    0  503  502  0.00000000000E+00  0.00000000000E+00  0.16225324931E+03  0.16225324931E+03  0.00000000000E+00 0. -1.
         21   -1    0    0  501  503 -0.00000000000E+00 -0.00000000000E+00 -0.39361827925E+03  0.39361827925E+03  0.00000000000E+00 0. -1.
          6    1    1    2  501    0  0.13584722530E+01  0.78678591880E+02 -0.30000719491E+03  0.35465544302E+03  0.17200000000E+03 0. -1.
         -6    1    1    2    0  502 -0.13584722530E+01 -0.78678591880E+02  0.68642164973E+02  0.20121608554E+03  0.17200000000E+03 0. -1.
<mgrwt>
<rscale>  2 0.18914589E+03</rscale>
<asrwt>0</asrwt>
<pdfrwt beam="1">  1       21 0.40563313E-01 0.18914589E+03</pdfrwt>
<pdfrwt beam="2">  1       21 0.98404569E-01 0.18914589E+03</pdfrwt>
<totfact> 0.50074880E+03</totfact>
</mgrwt>
</event>
<event>
 4    1  0.1086582E+000  0.2149788E+03  0.7546771E-02  0.1137683E+00
         21   -1    0    0  503  502  0.00000000000E+00  0.00000000000E+00  0.80205513170E+03  0.80205513170E+03  0.00000000000E+00 0.  1.
         21   -1    0    0  501  503 -0.00000000000E+00 -0.00000000000E+00 -0.10935328972E+03  0.10935328972E+03  0.00000000000E+00 0. -1.
          6    1    1    2  501    0 -0.11557884909E+03 -0.57213689361E+02  0.32918062975E+02  0.21748442583E+03  0.17200000000E+03 0. -1.
         -6    1    1    2    0  502  0.11557884909E+03  0.57213689361E+02  0.65978377901E+03  0.69392399559E+03  0.17200000000E+03 0.  1.
<mgrwt>
<rscale>  2 0.21497878E+03</rscale>
<asrwt>0</asrwt>
<pdfrwt beam="1">  1       21 0.20051377E+00 0.21497878E+03</pdfrwt>
<pdfrwt beam="2">  1       21 0.27338325E-01 0.21497878E+03</pdfrwt>
<totfact> 0.16617722E+03</totfact>
</mgrwt>
</event>
<event>
 4    1  0.1086582E+000  0.1797890E+03  0.7546771E-02  0.1168007E+00
         21   -1    0    0  503  502  0.00000000000E+00  0.00000000000E+00  0.89504171896E+02  0.89504171896E+02  0.00000000000E+00 0. -1.
         21   -1    0    0  501  503 -0.00000000000E+00 -0.00000000000E+00 -0.39237702955E+03  0.39237702955E+03  0.00000000000E+00 0. -1.
          6    1    1    2  501    0 -0.19460865520E+02 -0.48593853031E+02 -0.21941159074E+03  0.28366447432E+03  0.17200000000E+03 0. -1.
         -6    1    1    2    0  502  0.19460865520E+02  0.48593853031E+02 -0.83461266920E+02  0.19821672713E+03  0.17200000000E+03 0. -1.
<mgrwt>
<rscale>  2 0.17978901E+03</rscale>
<asrwt>0</asrwt>
<pdfrwt beam="1">  1       21 0.22376043E-01 0.17978901E+03</pdfrwt>
<pdfrwt beam="2">  1       21 0.98094257E-01 0.17978901E+03</pdfrwt>
<totfact> 0.16196581E+04</totfact>
</mgrwt>
</event>
<event>
 4    1  0.1086582E+000  0.2016462E+03  0.7546771E-02  0.1148357E+00
         21   -1    0    0  503  502  0.00000000000E+00  0.00000000000E+00  0.55266509964E+03  0.55266509964E+03  0.00000000000E+00 0. -1.
         21   -1    0    0  501  503 -0.00000000000E+00 -0.00000000000E+00 -0.75271688986E+02  0.75271688986E+02  0.00000000000E+00 0. -1.
          6    1    1    2  501    0 -0.33187489801E+02  0.99878833193E+02  0.19152995456E+03  0.27810953650E+03  0.17200000000E+03 0. -1.
         -6    1    1    2    0  502  0.33187489801E+02 -0.99878833193E+02  0.28586345609E+03  0.34982725212E+03  0.17200000000E+03 0. -1.
<mgrwt>
<rscale>  2 0.20164620E+03</rscale>
<asrwt>0</asrwt>
<pdfrwt beam="1">  1       21 0.13816626E+00 0.20164620E+03</pdfrwt>
<pdfrwt beam="2">  1       21 0.18817924E-01 0.20164620E+03</pdfrwt>
<totfact> 0.95083732E+03</totfact>
</mgrwt>
</event>
<event>
 4    1  0.1086582E+000  0.1858743E+03  0.7546771E-02  0.1162236E+00
         21   -1    0    0  503  502  0.00000000000E+00  0.00000000000E+00  0.16782913242E+03  0.16782913242E+03  0.00000000000E+00 0.  1.
         21   -1    0    0  501  503 -0.00000000000E+00 -0.00000000000E+00 -0.21195926126E+03  0.21195926126E+03  0.00000000000E+00 0.  1.
          6    1    1    2  501    0  0.69971337673E+02  0.83231409281E+01 -0.54278208348E+02  0.19363725538E+03  0.17200000000E+03 0.  1.
         -6    1    1    2    0  502 -0.69971337673E+02 -0.83231409281E+01  0.10148079508E+02  0.18615113829E+03  0.17200000000E+03 0.  1.
<mgrwt>
<rscale>  2 0.18587432E+03</rscale>
<asrwt>0</asrwt>
<pdfrwt beam="1">  1       21 0.41957283E-01 0.18587432E+03</pdfrwt>
<pdfrwt beam="2">  1       21 0.52989815E-01 0.18587432E+03</pdfrwt>
<totfact> 0.18523194E+04</totfact>
</mgrwt>
</event>
<event>
 4    1  0.1086582E+000  0.2349574E+03  0.7546771E-02  0.1123198E+00
         21   -1    0    0  501  502  0.00000000000E+00  0.00000000000E+00  0.42414951932E+03  0.42414951932E+03  0.00000000000E+00 0. -1.
         21   -1    0    0  502  503 -0.00000000000E+00 -0.00000000000E+00 -0.14580261038E+03  0.14580261038E+03  0.00000000000E+00 0.  1.
          6    1    1    2  501    0 -0.66326045087E+02  0.14567721819E+03  0.23253236709E+03  0.33056965665E+03  0.17200000000E+03 0. -1.
         -6    1    1    2    0  503  0.66326045087E+02 -0.14567721819E+03  0.45814541848E+02  0.23938247304E+03  0.17200000000E+03 0.  1.
<mgrwt>
<rscale>  2 0.23495743E+03</rscale>
<asrwt>0</asrwt>
<pdfrwt beam="1">  1       21 0.10603738E+00 0.23495743E+03</pdfrwt>
<pdfrwt beam="2">  1       21 0.36450653E-01 0.23495743E+03</pdfrwt>
<totfact> 0.50190062E+03</totfact>
</mgrwt>
</event>
<event>
 4    1  0.1086582E+000  0.3069284E+03  0.7546771E-02  0.1081828E+00
         21   -1    0    0  501  502  0.00000000000E+00  0.00000000000E+00  0.14986244485E+03  0.14986244485E+03  0.00000000000E+00 0.  1.
         21   -1    0    0  502  503 -0.00000000000E+00 -0.00000000000E+00 -0.11757263378E+04  0.11757263378E+04  0.00000000000E+00 0. -1.
          6    1    1    2  501    0 -0.19240377286E+03  0.16613791792E+03 -0.60799604159E+02  0.31289233203E+03  0.17200000000E+03 0.  1.
         -6    1    1    2    0  503  0.19240377286E+03 -0.16613791792E+03 -0.96506428882E+03  0.10126964506E+04  0.17200000000E+03 0. -1.
<mgrwt>
<rscale>  2 0.30692836E+03</rscale>
<asrwt>0</asrwt>
<pdfrwt beam="1">  1       21 0.37465612E-01 0.30692836E+03</pdfrwt>
<pdfrwt beam="2">  1       21 0.29393158E+00 0.30692836E+03</pdfrwt>
<totfact> 0.22199962E+02</totfact>
</mgrwt>
</event>
<event>
 4    1  0.1086582E+000  0.2361787E+03  0.7546771E-02  0.1122365E+00
         21   -1    0    0  503  502  0.00000000000E+00  0.00000000000E+00  0.18311440519E+03  0.18311440519E+03  0.00000000000E+00 0. -1.
         21   -1    0    0  501  503 -0.00000000000E+00 -0.00000000000E+00 -0.73017300214E+03  0.73017300214E+03  0.00000000000E+00 0.  1.
          6    1    1    2  501    0  0.12322433093E+03  0.10493877184E+03 -0.62214040435E+03  0.66546154231E+03  0.17200000000E+03 0.  1.
         -6    1    1    2    0  502 -0.12322433093E+03 -0.10493877184E+03  0.75081807403E+02  0.24782586502E+03  0.17200000000E+03 0. -1.
<mgrwt>
<rscale>  2 0.23617871E+03</rscale>
<asrwt>0</asrwt>
<pdfrwt beam="1">  1       21 0.45778602E-01 0.23617871E+03</pdfrwt>
<pdfrwt beam="2">  1       21 0.18254325E+00 0.23617871E+03</pdfrwt>
<totfact> 0.76459257E+02</totfact>
</mgrwt>
</event>
<event>
 4    1  0.1086582E+000  0.2236353E+03  0.7546771E-02  0.1131201E+00
         21   -1    0    0  503  502  0.00000000000E+00  0.00000000000E+00  0.10364150961E+03  0.10364150961E+03  0.00000000000E+00 0. -1.
         21   -1    0    0  501  503 -0.00000000000E+00 -0.00000000000E+00 -0.84226580552E+03  0.84226580552E+03  0.00000000000E+00 0.  1.
          6    1    1    2  501    0  0.14040943043E+03  0.26719547787E+02 -0.67839197872E+03  0.71430275037E+03  0.17200000000E+03 0.  1.
         -6    1    1    2    0  502 -0.14040943043E+03 -0.26719547787E+02 -0.60232317185E+02  0.23160456477E+03  0.17200000000E+03 0. -1.
<mgrwt>
<rscale>  2 0.22363529E+03</rscale>
<asrwt>0</asrwt>
<pdfrwt beam="1">  1       21 0.25910378E-01 0.22363529E+03</pdfrwt>
<pdfrwt beam="2">  1       21 0.21056645E+00 0.22363529E+03</pdfrwt>
<totfact> 0.15768714E+03</totfact>
</mgrwt>
</event>
<event>
 4    1  0.1086582E+000  0.2317158E+03  0.7546771E-02  0.1125438E+00
         21   -1    0    0  501  502  0.00000000000E+00  0.00000000000E+00  0.14447469111E+04  0.14447469111E+04  0.00000000000E+00 0. -1.
         21   -1    0    0  502  503 -0.00000000000E+00 -0.00000000000E+00 -0.67093612814E+02  0.67093612814E+02  0.00000000000E+00 0.  1.
          6    1    1    2  501    0  0.39109290585E+02 -0.15026194718E+03  0.11937063144E+04  0.12159880568E+04  0.17200000000E+03 0. -1.
         -6    1    1    2    0  503 -0.39109290585E+02  0.15026194718E+03  0.18394698388E+03  0.29585246705E+03  0.17200000000E+03 0.  1.
<mgrwt>
<rscale>  2 0.23171575E+03</rscale>
<asrwt>0</asrwt>
<pdfrwt beam="1">  1       21 0.36118663E+00 0.23171575E+03</pdfrwt>
<pdfrwt beam="2">  1       21 0.16773408E-01 0.23171575E+03</pdfrwt>
<totfact> 0.45348305E+02</totfact>
</mgrwt>
</event>
<event>
 4    1  0.1086582E+000  0.1758849E+03  0.7546771E-02  0.1171846E+00
         21   -1    0    0  501  502  0.00000000000E+00  0.00000000000E+00  0.38557215024E+03  0.38557215024E+03  0.00000000000E+00 0.  1.
         21   -1    0    0  502  503 -0.00000000000E+00 -0.00000000000E+00 -0.12367479187E+03  0.12367479187E+03  0.00000000000E+00 0. -1.
          6    1    1    2  501    0 -0.32120222663E+02 -0.17882603886E+02  0.28185699930E+03  0.33223314748E+03  0.17200000000E+03 0.  1.
         -6    1    1    2    0  503  0.32120222663E+02  0.17882603886E+02 -0.19959640938E+02  0.17701379464E+03  0.17200000000E+03 0. -1.
<mgrwt>
<rscale>  2 0.17588489E+03</rscale>
<asrwt>0</asrwt>
<pdfrwt beam="1">  1       21 0.96393035E-01 0.17588489E+03</pdfrwt>
<pdfrwt beam="2">  1       21 0.30918699E-01 0.17588489E+03</pdfrwt>
<totfact> 0.91050598E+03</totfact>
</mgrwt>
</event>
<event>
 4    1  0.1086582E+000  0.2344065E+03  0.7546771E-02  0.1123576E+00
         21   -1    0    0  501  502  0.00000000000E+00  0.00000000000E+00  0.21078435704E+03  0.21078435704E+03  0.00000000000E+00 0. -1.
         21   -1    0    0  502  503 -0.00000000000E+00 -0.00000000000E+00 -0.48701353820E+03  0.48701353820E+03  0.00000000000E+00 0. -1.
          6    1    1    2  501    0  0.14225669919E+02  0.15861917944E+03  0.99737776953E+02  0.25474308219E+03  0.17200000000E+03 0. -1.
         -6    1    1    2    0  503 -0.14225669919E+02 -0.15861917944E+03 -0.37596695812E+03  0.44305481305E+03  0.17200000000E+03 0. -1.
<mgrwt>
<rscale>  2 0.23440651E+03</rscale>
<asrwt>0</asrwt>
<pdfrwt beam="1">  1       21 0.52696090E-01 0.23440651E+03</pdfrwt>
<pdfrwt beam="2">  1       21 0.12175338E+00 0.23440651E+03</pdfrwt>
<totfact> 0.16760537E+03</totfact>
</mgrwt>
</event>
<event>
 4    1  0.1086582E+000  0.2075277E+03  0.7546771E-02  0.1143539E+00
         21   -1    0    0  503  502  0.00000000000E+00  0.00000000000E+00  0.89592878381E+02  0.89592878381E+02  0.00000000000E+00 0.  1.
         21   -1    0    0  501  503 -0.00000000000E+00 -0.00000000000E+00 -0.48808401872E+03  0.48808401872E+03  0.00000000000E+00 0.  1.
          6    1    1    2  501    0 -0.71697176728E+02 -0.91341447321E+02 -0.16373097766E+03  0.26433989142E+03  0.17200000000E+03 0.  1.
         -6    1    1    2    0  502  0.71697176728E+02  0.91341447321E+02 -0.23476016268E+03  0.31333700568E+03  0.17200000000E+03 0.  1.
<mgrwt>
<rscale>  2 0.20752770E+03</rscale>
<asrwt>0</asrwt>
<pdfrwt beam="1">  1       21 0.22398220E-01 0.20752770E+03</pdfrwt>
<pdfrwt beam="2">  1       21 0.12202101E+00 0.20752770E+03</pdfrwt>
<totfact> 0.93526357E+03</totfact>
</mgrwt>
</event>
<event>
 4    1  0.1086582E+000  0.1873513E+03  0.7546771E-02  0.1160872E+00
         21   -1    0    0  503  502  0.00000000000E+00  0.00000000000E+00  0.77955451589E+02  0.77955451589E+02  0.00000000000E+00 0. -1.
         21   -1    0    0  501  503 -0.00000000000E+00 -0.00000000000E+00 -0.45087742672E+03  0.45087742672E+03  0.00000000000E+00 0. -1.
          6    1    1    2  501    0  0.71676749945E+02 -0.19466838988E+02 -0.19621599263E+03  0.27129546636E+03  0.17200000000E+03 0. -1.
         -6    1    1    2    0  502 -0.71676749945E+02  0.19466838988E+02 -0.17670598251E+03  0.25753741196E+03  0.17200000000E+03 0. -1.
<mgrwt>
<rscale>  2 0.18735131E+03</rscale>
<asrwt>0</asrwt>
<pdfrwt beam="1">  1       21 0.19488863E-01 0.18735131E+03</pdfrwt>
<pdfrwt beam="2">  1       21 0.11271936E+00 0.18735131E+03</pdfrwt>
<totfact> 0.14964447E+04</totfact>
</mgrwt>
</event>
<event>
 4    1  0.1086582E+000  0.1790393E+03  0.7546771E-02  0.1168736E+00
         21   -1    0    0  503  502  0.00000000000E+00  0.00000000000E+00  0.92707266367E+02  0.92707266367E+02  0.00000000000E+00 0.  1.
         21   -1    0    0  501  503 -0.00000000000E+00 -0.00000000000E+00 -0.37024891761E+03  0.37024891761E+03  0.00000000000E+00 0.  1.
          6    1    1    2  501    0  0.26936080338E+02 -0.41779581128E+02 -0.19829431010E+03  0.26716234623E+03  0.17200000000E+03 0.  1.
         -6    1    1    2    0  502 -0.26936080338E+02  0.41779581128E+02 -0.79247341143E+02  0.19579383775E+03  0.17200000000E+03 0.  1.
<mgrwt>
<rscale>  2 0.17903934E+03</rscale>
<asrwt>0</asrwt>
<pdfrwt beam="1">  1       21 0.23176817E-01 0.17903934E+03</pdfrwt>
<pdfrwt beam="2">  1       21 0.92562229E-01 0.17903934E+03</pdfrwt>
<totfact> 0.17367580E+04</totfact>
</mgrwt>
</event>
<event>
 4    1  0.1086582E+000  0.1982813E+03  0.7546771E-02  0.1151197E+00
         21   -1    0    0  501  502  0.00000000000E+00  0.00000000000E+00  0.74348882903E+02  0.74348882903E+02  0.00000000000E+00 0. -1.
         21   -1    0    0  502  503 -0.00000000000E+00 -0.00000000000E+00 -0.52898954932E+03  0.52898954932E+03  0.00000000000E+00 0. -1.
          6    1    1    2  501    0 -0.71416101749E+02 -0.68052969049E+02 -0.23307578154E+03  0.30600618642E+03  0.17200000000E+03 0. -1.
         -6    1    1    2    0  503  0.71416101749E+02  0.68052969049E+02 -0.22156488487E+03  0.29733224580E+03  0.17200000000E+03 0. -1.
<mgrwt>
<rscale>  2 0.19828128E+03</rscale>
<asrwt>0</asrwt>
<pdfrwt beam="1">  1       21 0.18587221E-01 0.19828128E+03</pdfrwt>
<pdfrwt beam="2">  1       21 0.13224738E+00 0.19828128E+03</pdfrwt>
<totfact> 0.10905987E+04</totfact>
</mgrwt>
</event>
<event>
 4    1  0.1086582E+000  0.1932484E+03  0.7546771E-02  0.1155564E+00
         21   -1    0    0  503  502  0.00000000000E+00  0.00000000000E+00  0.77562622719E+03  0.77562622719E+03  0.00000000000E+00 0.  1.
         21   -1    0    0  501  503 -0.00000000000E+00 -0.00000000000E+00 -0.29850481037E+03  0.29850481037E+03  0.00000000000E+00 0.  1.
          6    1    1    2  501    0  0.29090071871E+02 -0.83154809226E+02 -0.25328761232E+03  0.31858997023E+03  0.17200000000E+03 0.  1.
         -6    1    1    2    0  502 -0.29090071871E+02  0.83154809226E+02  0.73040902913E+03  0.75554106733E+03  0.17200000000E+03 0.  1.
<mgrwt>
<rscale>  2 0.19324843E+03</rscale>
<asrwt>0</asrwt>
<pdfrwt beam="1">  1       21 0.19390655E+00 0.19324843E+03</pdfrwt>
<pdfrwt beam="2">  1       21 0.74626204E-01 0.19324843E+03</pdfrwt>
<totfact> 0.23621945E+02</totfact>
</mgrwt>
</event>
<event>
 4    1  0.1086582E+000  0.1736233E+03  0.7546771E-02  0.1174121E+00
         21   -1    0    0  503  502  0.00000000000E+00  0.00000000000E+00  0.58422293182E+03  0.58422293182E+03  0.00000000000E+00 0. -1.
         21   -1    0    0  501  503 -0.00000000000E+00 -0.00000000000E+00 -0.52723487965E+02  0.52723487965E+02  0.00000000000E+00 0. -1.
          6    1    1    2  501    0  0.20950309421E+02  0.11051858895E+02  0.21923031493E+03  0.27965512696E+03  0.17200000000E+03 0. -1.
         -6    1    1    2    0  502 -0.20950309421E+02 -0.11051858895E+02  0.31226912892E+03  0.35729129282E+03  0.17200000000E+03 0. -1.
<mgrwt>
<rscale>  2 0.17362333E+03</rscale>
<asrwt>0</asrwt>
<pdfrwt beam="1">  1       21 0.14605571E+00 0.17362333E+03</pdfrwt>
<pdfrwt beam="2">  1       21 0.13180874E-01 0.17362333E+03</pdfrwt>
<totfact> 0.16108845E+04</totfact>
</mgrwt>
</event>
<event>
 4    1  0.1086582E+000  0.1789159E+03  0.7546771E-02  0.1168856E+00
         21   -1    0    0  501  502  0.00000000000E+00  0.00000000000E+00  0.16811088338E+03  0.16811088338E+03  0.00000000000E+00 0.  1.
         21   -1    0    0  502  503 -0.00000000000E+00 -0.00000000000E+00 -0.31187312211E+03  0.31187312211E+03  0.00000000000E+00 0.  1.
          6    1    1    2  501    0  0.31351883488E+02  0.37999269343E+02  0.77887398659E+02  0.19513413832E+03  0.17200000000E+03 0.  1.
         -6    1    1    2    0  503 -0.31351883488E+02 -0.37999269343E+02 -0.22164963739E+03  0.28484986717E+03  0.17200000000E+03 0.  1.
<mgrwt>
<rscale>  2 0.17891586E+03</rscale>
<asrwt>0</asrwt>
<pdfrwt beam="1">  1       21 0.42027721E-01 0.17891586E+03</pdfrwt>
<pdfrwt beam="2">  1       21 0.77968280E-01 0.17891586E+03</pdfrwt>
<totfact> 0.80217906E+03</totfact>
</mgrwt>
</event>
<event>
 4    1  0.1086582E+000  0.1937488E+03  0.7546771E-02  0.1155123E+00
         21   -1    0    0  503  502  0.00000000000E+00  0.00000000000E+00  0.33490226073E+03  0.33490226073E+03  0.00000000000E+00 0. -1.
         21   -1    0    0  501  503 -0.00000000000E+00 -0.00000000000E+00 -0.17722082214E+03  0.17722082214E+03  0.00000000000E+00 0. -1.
          6    1    1    2  501    0  0.65208558033E+01 -0.88949825144E+02 -0.76393066714E+02  0.20826544023E+03  0.17200000000E+03 0. -1.
         -6    1    1    2    0  502 -0.65208558033E+01  0.88949825144E+02  0.23407450531E+03  0.30385764264E+03  0.17200000000E+03 0. -1.
<mgrwt>
<rscale>  2 0.19374879E+03</rscale>
<asrwt>0</asrwt>
<pdfrwt beam="1">  1       21 0.83725564E-01 0.19374879E+03</pdfrwt>
<pdfrwt beam="2">  1       21 0.44305206E-01 0.19374879E+03</pdfrwt>
<totfact> 0.60633962E+03</totfact>
</mgrwt>
</event>
<event>
 4    1  0.1086582E+000  0.1921481E+03  0.7546771E-02  0.1156538E+00
         21   -1    0    0  503  502  0.00000000000E+00  0.00000000000E+00  0.11653578847E+03  0.11653578847E+03  0.00000000000E+00 0.  1.
         21   -1    0    0  501  503 -0.00000000000E+00 -0.00000000000E+00 -0.31703864408E+03  0.31703864408E+03  0.00000000000E+00 0. -1.
          6    1    1    2  501    0 -0.83338751767E+02  0.19787155177E+02 -0.94559538054E+02  0.21415504966E+03  0.17200000000E+03 0. -1.
         -6    1    1    2    0  502  0.83338751767E+02 -0.19787155177E+02 -0.10594331756E+03  0.21941938290E+03  0.17200000000E+03 0.  1.
<mgrwt>
<rscale>  2 0.19214807E+03</rscale>
<asrwt>0</asrwt>
<pdfrwt beam="1">  1       21 0.29133947E-01 0.19214807E+03</pdfrwt>
<pdfrwt beam="2">  1       21 0.79259660E-01 0.19214807E+03</pdfrwt>
<totfact> 0.15850759E+04</totfact>
</mgrwt>
</event>
<event>
 4    1  0.1086582E+000  0.1804378E+03  0.7546771E-02  0.1167380E+00
         21   -1    0    0  503  502  0.00000000000E+00  0.00000000000E+00  0.27337296361E+03  0.27337296361E+03  0.00000000000E+00 0. -1.
         21   -1    0    0  501  503 -0.00000000000E+00 -0.00000000000E+00 -0.13666917380E+03  0.13666917380E+03  0.00000000000E+00 0.  1.
          6    1    1    2  501    0 -0.22289539209E+02 -0.49769396570E+02 -0.51637423085E+01  0.18051171881E+03  0.17200000000E+03 0. -1.
         -6    1    1    2    0  502  0.22289539209E+02  0.49769396570E+02  0.14186753212E+03  0.22953041860E+03  0.17200000000E+03 0. -1.
<mgrwt>
<rscale>  2 0.18043785E+03</rscale>
<asrwt>0</asrwt>
<pdfrwt beam="1">  1       21 0.68343240E-01 0.18043785E+03</pdfrwt>
<pdfrwt beam="2">  1       21 0.34167294E-01 0.18043785E+03</pdfrwt>
<totfact> 0.16245791E+04</totfact>
</mgrwt>
</event>
<event>
 4    1  0.1086582E+000  0.2539636E+03  0.7546771E-02  0.1110825E+00
         21   -1    0    0  501  502  0.00000000000E+00  0.00000000000E+00  0.32034345361E+03  0.32034345361E+03  0.00000000000E+00 0.  1.
         21   -1    0    0  502  503 -0.00000000000E+00 -0.00000000000E+00 -0.38155962804E+03  0.38155962804E+03  0.00000000000E+00 0. -1.
          6    1    1    2  501    0 -0.16308724374E+03  0.91192347267E+02  0.21058714076E+03  0.32991580308E+03  0.17200000000E+03 0.  1.
         -6    1    1    2    0  503  0.16308724374E+03 -0.91192347267E+02 -0.27180331519E+03  0.37198727857E+03  0.17200000000E+03 0. -1.
<mgrwt>
<rscale>  2 0.25396357E+03</rscale>
<asrwt>0</asrwt>
<pdfrwt beam="1">  1       21 0.80085864E-01 0.25396357E+03</pdfrwt>
<pdfrwt beam="2">  1       21 0.95389906E-01 0.25396357E+03</pdfrwt>
<totfact> 0.11936258E+03</totfact>
</mgrwt>
</event>
<event>
 4    1  0.1086582E+000  0.1767436E+03  0.7546771E-02  0.1170992E+00
         21   -1    0    0  503  502  0.00000000000E+00  0.00000000000E+00  0.21964658613E+03  0.21964658613E+03  0.00000000000E+00 0. -1.
         21   -1    0    0  501  503 -0.00000000000E+00 -0.00000000000E+00 -0.26547376112E+03  0.26547376112E+03  0.00000000000E+00 0. -1.
          6    1    1    2  501    0  0.37478638928E+02 -0.15800175172E+02 -0.18818872573E+03  0.25817298542E+03  0.17200000000E+03 0. -1.
         -6    1    1    2    0  502 -0.37478638928E+02  0.15800175172E+02  0.14236155074E+03  0.22694736183E+03  0.17200000000E+03 0. -1.
<mgrwt>
<rscale>  2 0.17674358E+03</rscale>
<asrwt>0</asrwt>
<pdfrwt beam="1">  1       21 0.54911647E-01 0.17674358E+03</pdfrwt>
<pdfrwt beam="2">  1       21 0.66368440E-01 0.17674358E+03</pdfrwt>
<totfact> 0.65976055E+03</totfact>
</mgrwt>
</event>
<event>
 4    1  0.1086582E+000  0.1762621E+03  0.7546771E-02  0.1171470E+00
         21   -1    0    0  501  502  0.00000000000E+00  0.00000000000E+00  0.10548326916E+03  0.10548326916E+03  0.00000000000E+00 0. -1.
         21   -1    0    0  502  503 -0.00000000000E+00 -0.00000000000E+00 -0.31519309432E+03  0.31519309432E+03  0.00000000000E+00 0. -1.
          6    1    1    2  501    0 -0.37553163097E+02 -0.86075616930E+01 -0.51003973446E+02  0.18349314833E+03  0.17200000000E+03 0. -1.
         -6    1    1    2    0  503  0.37553163097E+02  0.86075616930E+01 -0.15870585172E+03  0.23718321514E+03  0.17200000000E+03 0. -1.
<mgrwt>
<rscale>  2 0.17626211E+03</rscale>
<asrwt>0</asrwt>
<pdfrwt beam="1">  1       21 0.26370818E-01 0.17626211E+03</pdfrwt>
<pdfrwt beam="2">  1       21 0.78798273E-01 0.17626211E+03</pdfrwt>
<totfact> 0.19658185E+04</totfact>
</mgrwt>
</event>
<event>
 4    1  0.1086582E+000  0.1963516E+03  0.7546771E-02  0.1152854E+00
         21   -1    0    0  501  502  0.00000000000E+00  0.00000000000E+00  0.15852096878E+03  0.15852096878E+03  0.00000000000E+00 0. -1.
         21   -1    0    0  502  503 -0.00000000000E+00 -0.00000000000E+00 -0.33304250498E+03  0.33304250498E+03  0.00000000000E+00 0. -1.
          6    1    1    2  501    0  0.93904007398E+02 -0.12328562452E+02  0.40387652455E+02  0.20046226211E+03  0.17200000000E+03 0. -1.
         -6    1    1    2    0  503 -0.93904007398E+02  0.12328562452E+02 -0.21490918866E+03  0.29110121165E+03  0.17200000000E+03 0. -1.
<mgrwt>
<rscale>  2 0.19635161E+03</rscale>
<asrwt>0</asrwt>
<pdfrwt beam="1">  1       21 0.39630243E-01 0.19635161E+03</pdfrwt>
<pdfrwt beam="2">  1       21 0.83260625E-01 0.19635161E+03</pdfrwt>
<totfact> 0.76891591E+03</totfact>
</mgrwt>
</event>
<event>
 4    1  0.1086582E+000  0.2622352E+03  0.7546771E-02  0.1105808E+00
         21   -1    0    0  501  502  0.00000000000E+00  0.00000000000E+00  0.15898974184E+04  0.15898974184E+04  0.00000000000E+00 0. -1.
         21   -1    0    0  502  503 -0.00000000000E+00 -0.00000000000E+00 -0.15052145435E+03  0.15052145435E+03  0.00000000000E+00 0.  1.
          6    1    1    2  501    0 -0.71179904395E+02  0.18470708704E+03  0.14543055201E+04  0.14777590577E+04  0.17200000000E+03 0. -1.
         -6    1    1    2    0  503  0.71179904395E+02 -0.18470708704E+03 -0.14929556064E+02  0.26265981504E+03  0.17200000000E+03 0.  1.
<mgrwt>
<rscale>  2 0.26223517E+03</rscale>
<asrwt>0</asrwt>
<pdfrwt beam="1">  1       21 0.39747430E+00 0.26223517E+03</pdfrwt>
<pdfrwt beam="2">  1       21 0.37630368E-01 0.26223517E+03</pdfrwt>
<totfact> 0.55011637E+01</totfact>
</mgrwt>
</event>
<event>
 4    1  0.1086582E+000  0.1841749E+03  0.7546771E-02  0.1163823E+00
         21   -1    0    0  503  502  0.00000000000E+00  0.00000000000E+00  0.69883804989E+02  0.69883804989E+02  0.00000000000E+00 0.  1.
         21   -1    0    0  501  503 -0.00000000000E+00 -0.00000000000E+00 -0.50301465950E+03  0.50301465950E+03  0.00000000000E+00 0.  1.
          6    1    1    2  501    0 -0.40480117545E+02  0.51939861477E+02 -0.16293542974E+03  0.24590311790E+03  0.17200000000E+03 0.  1.
         -6    1    1    2    0  502  0.40480117545E+02 -0.51939861477E+02 -0.27019542477E+03  0.32699534659E+03  0.17200000000E+03 0.  1.
<mgrwt>
<rscale>  2 0.18417489E+03</rscale>
<asrwt>0</asrwt>
<pdfrwt beam="1">  1       21 0.17470951E-01 0.18417489E+03</pdfrwt>
<pdfrwt beam="2">  1       21 0.12575366E+00 0.18417489E+03</pdfrwt>
<totfact> 0.14021133E+04</totfact>
</mgrwt>
</event>
<event>
 4    1  0.1086582E+000  0.1757868E+03  0.7546771E-02  0.1171944E+00
         21   -1    0    0  503  502  0.00000000000E+00  0.00000000000E+00  0.90942010952E+02  0.90942010952E+02  0.00000000000E+00 0. -1.
         21   -1    0    0  501  503 -0.00000000000E+00 -0.00000000000E+00 -0.48395690471E+03  0.48395690471E+03  0.00000000000E+00 0. -1.
          6    1    1    2  501    0 -0.36023571301E+02 -0.43952175298E+01 -0.35339690243E+03  0.39470290887E+03  0.17200000000E+03 0.  1.
         -6    1    1    2    0  502  0.36023571301E+02  0.43952175298E+01 -0.39617991332E+02  0.18019600679E+03  0.17200000000E+03 0.  1.
<mgrwt>
<rscale>  2 0.17578685E+03</rscale>
<asrwt>0</asrwt>
<pdfrwt beam="1">  1       21 0.22735503E-01 0.17578685E+03</pdfrwt>
<pdfrwt beam="2">  1       21 0.12098922E+00 0.17578685E+03</pdfrwt>
<totfact> 0.95056475E+03</totfact>
</mgrwt>
</event>
<event>
 4    1  0.1086582E+000  0.2080505E+03  0.7546771E-02  0.1143119E+00
         21   -1    0    0  503  502  0.00000000000E+00  0.00000000000E+00  0.28588241908E+03  0.28588241908E+03  0.00000000000E+00 0. -1.
         21   -1    0    0  501  503 -0.00000000000E+00 -0.00000000000E+00 -0.15158733038E+03  0.15158733038E+03  0.00000000000E+00 0. -1.
          6    1    1    2  501    0  0.21230192162E+02 -0.11510995467E+03  0.74660843837E+02  0.22104131814E+03  0.17200000000E+03 0. -1.
         -6    1    1    2    0  502 -0.21230192162E+02  0.11510995467E+03  0.59634244868E+02  0.21642843132E+03  0.17200000000E+03 0. -1.
<mgrwt>
<rscale>  2 0.20805053E+03</rscale>
<asrwt>0</asrwt>
<pdfrwt beam="1">  1       21 0.71470604E-01 0.20805053E+03</pdfrwt>
<pdfrwt beam="2">  1       21 0.37896833E-01 0.20805053E+03</pdfrwt>
<totfact> 0.11762841E+04</totfact>
</mgrwt>
</event>
<event>
 4    1  0.1086582E+000  0.2074649E+03  0.7546771E-02  0.1143589E+00
         21   -1    0    0  503  502  0.00000000000E+00  0.00000000000E+00  0.24398729812E+03  0.24398729812E+03  0.00000000000E+00 0.  1.
         21   -1    0    0  501  503 -0.00000000000E+00 -0.00000000000E+00 -0.17643700380E+03  0.17643700380E+03  0.00000000000E+00 0.  1.
          6    1    1    2  501    0 -0.14170556865E+02  0.11513852661E+03  0.36398213254E+02  0.21063360349E+03  0.17200000000E+03 0.  1.
         -6    1    1    2    0  502  0.14170556865E+02 -0.11513852661E+03  0.31152081063E+02  0.20979069843E+03  0.17200000000E+03 0.  1.
<mgrwt>
<rscale>  2 0.20746490E+03</rscale>
<asrwt>0</asrwt>
<pdfrwt beam="1">  1       21 0.60996824E-01 0.20746490E+03</pdfrwt>
<pdfrwt beam="2">  1       21 0.44109251E-01 0.20746490E+03</pdfrwt>
<totfact> 0.12227476E+04</totfact>
</mgrwt>
</event>
<event>
 4    1  0.1086582E+000  0.2778746E+03  0.7546771E-02  0.1096855E+00
         21   -1    0    0  503  502  0.00000000000E+00  0.00000000000E+00  0.28441271933E+03  0.28441271933E+03  0.00000000000E+00 0. -1.
         21   -1    0    0  501  503 -0.00000000000E+00 -0.00000000000E+00 -0.33506124330E+03  0.33506124330E+03  0.00000000000E+00 0.  1.
          6    1    1    2  501    0 -0.16665943030E+03  0.14090755491E+03  0.10959444743E+03  0.29870595515E+03  0.17200000000E+03 0. -1.
         -6    1    1    2    0  502  0.16665943030E+03 -0.14090755491E+03 -0.16024297139E+03  0.32076800747E+03  0.17200000000E+03 0. -1.
<mgrwt>
<rscale>  2 0.27787462E+03</rscale>
<asrwt>0</asrwt>
<pdfrwt beam="1">  1       21 0.71103180E-01 0.27787462E+03</pdfrwt>
<pdfrwt beam="2">  1       21 0.83765310E-01 0.27787462E+03</pdfrwt>
<totfact> 0.20787288E+03</totfact>
</mgrwt>
</event>
<event>
 4    1  0.1086582E+000  0.1725430E+03  0.7546771E-02  0.1175222E+00
         21   -1    0    0  503  502  0.00000000000E+00  0.00000000000E+00  0.10846657305E+03  0.10846657305E+03  0.00000000000E+00 0.  1.
         21   -1    0    0  501  503 -0.00000000000E+00 -0.00000000000E+00 -0.61333226557E+03  0.61333226557E+03  0.00000000000E+00 0.  1.
          6    1    1    2  501    0 -0.13144978962E+02  0.37791366522E+01 -0.52068819690E+03  0.54853192317E+03  0.17200000000E+03 0.  1.
         -6    1    1    2    0  502  0.13144978962E+02 -0.37791366522E+01  0.15822504371E+02  0.17326691545E+03  0.17200000000E+03 0.  1.
<mgrwt>
<rscale>  2 0.17254296E+03</rscale>
<asrwt>0</asrwt>
<pdfrwt beam="1">  1       21 0.27116643E-01 0.17254296E+03</pdfrwt>
<pdfrwt beam="2">  1       21 0.15333307E+00 0.17254296E+03</pdfrwt>
<totfact> 0.37240432E+03</totfact>
</mgrwt>
</event>
<event>
 4    1  0.1086582E+000  0.1944377E+03  0.7546771E-02  0.1154519E+00
         21   -1    0    0  503  502  0.00000000000E+00  0.00000000000E+00  0.45038428105E+03  0.45038428105E+03  0.00000000000E+00 0.  1.
         21   -1    0    0  501  503 -0.00000000000E+00 -0.00000000000E+00 -0.83943262162E+02  0.83943262162E+02  0.00000000000E+00 0.  1.
          6    1    1    2  501    0  0.43867820929E+02 -0.79357554021E+02  0.18438533819E+03  0.26796260939E+03  0.17200000000E+03 0.  1.
         -6    1    1    2    0  502 -0.43867820929E+02  0.79357554021E+02  0.18205568070E+03  0.26636493382E+03  0.17200000000E+03 0.  1.
<mgrwt>
<rscale>  2 0.19443767E+03</rscale>
<asrwt>0</asrwt>
<pdfrwt beam="1">  1       21 0.11259606E+00 0.19443767E+03</pdfrwt>
<pdfrwt beam="2">  1       21 0.20985817E-01 0.19443767E+03</pdfrwt>
<totfact> 0.13004096E+04</totfact>
</mgrwt>
</event>
<event>
 4    1  0.1086582E+000  0.2903062E+03  0.7546771E-02  0.1090189E+00
         21   -1    0    0  503  502  0.00000000000E+00  0.00000000000E+00  0.14386230843E+03  0.14386230843E+03  0.00000000000E+00 0. -1.
         21   -1    0    0  501  503 -0.00000000000E+00 -0.00000000000E+00 -0.66294080511E+03  0.66294080511E+03  0.00000000000E+00 0.  1.
          6    1    1    2  501    0 -0.21077900719E+03 -0.10132072422E+03 -0.39712734199E+03  0.49192255974E+03  0.17200000000E+03 0.  1.
         -6    1    1    2    0  502  0.21077900719E+03  0.10132072422E+03 -0.12195115469E+03  0.31488055380E+03  0.17200000000E+03 0. -1.
<mgrwt>
<rscale>  2 0.29030618E+03</rscale>
<asrwt>0</asrwt>
<pdfrwt beam="1">  1       21 0.35965578E-01 0.29030618E+03</pdfrwt>
<pdfrwt beam="2">  1       21 0.16573520E+00 0.29030618E+03</pdfrwt>
<totfact> 0.15729260E+03</totfact>
</mgrwt>
</event>
<event>
 4    1  0.1086582E+000  0.1768808E+03  0.7546771E-02  0.1170856E+00
         21   -1    0    0  501  502  0.00000000000E+00  0.00000000000E+00  0.37070708547E+03  0.37070708547E+03  0.00000000000E+00 0. -1.
         21   -1    0    0  502  503 -0.00000000000E+00 -0.00000000000E+00 -0.98348274194E+02  0.98348274194E+02  0.00000000000E+00 0. -1.
          6    1    1    2  501    0  0.27921257620E+02 -0.30384533556E+02  0.22450918588E+03  0.28581670884E+03  0.17200000000E+03 0. -1.
         -6    1    1    2    0  503 -0.27921257620E+02  0.30384533556E+02  0.47849625399E+02  0.18323865083E+03  0.17200000000E+03 0. -1.
<mgrwt>
<rscale>  2 0.17688080E+03</rscale>
<asrwt>0</asrwt>
<pdfrwt beam="1">  1       21 0.92676768E-01 0.17688080E+03</pdfrwt>
<pdfrwt beam="2">  1       21 0.24587069E-01 0.17688080E+03</pdfrwt>
<totfact> 0.15504718E+04</totfact>
</mgrwt>
</event>
<event>
 4    1  0.1086582E+000  0.2118930E+03  0.7546771E-02  0.1140076E+00
         21   -1    0    0  503  502  0.00000000000E+00  0.00000000000E+00  0.28566709905E+03  0.28566709905E+03  0.00000000000E+00 0.  1.
         21   -1    0    0  501  503 -0.00000000000E+00 -0.00000000000E+00 -0.17577197885E+03  0.17577197885E+03  0.00000000000E+00 0.  1.
          6    1    1    2  501    0 -0.11396864583E+03 -0.48226379705E+02  0.13000181468E+03  0.24859426331E+03  0.17200000000E+03 0.  1.
         -6    1    1    2    0  502  0.11396864583E+03  0.48226379705E+02 -0.20106694484E+02  0.21284481458E+03  0.17200000000E+03 0.  1.
<mgrwt>
<rscale>  2 0.21189298E+03</rscale>
<asrwt>0</asrwt>
<pdfrwt beam="1">  1       21 0.71416774E-01 0.21189298E+03</pdfrwt>
<pdfrwt beam="2">  1       21 0.43942995E-01 0.21189298E+03</pdfrwt>
<totfact> 0.87021727E+03</totfact>
</mgrwt>
</event>
<event>
 4    1  0.1086582E+000  0.2772217E+03  0.7546771E-02  0.1097216E+00
         21   -1    0    0  503  502  0.00000000000E+00  0.00000000000E+00  0.97850623579E+03  0.97850623579E+03  0.00000000000E+00 0. -1.
         21   -1    0    0  501  503 -0.00000000000E+00 -0.00000000000E+00 -0.21366926347E+03  0.21366926347E+03  0.00000000000E+00 0. -1.
          6    1    1    2  501    0 -0.15311625860E+03  0.15434790548E+03 -0.91620324546E+02  0.29196943067E+03  0.17200000000E+03 0. -1.
         -6    1    1    2    0  502  0.15311625860E+03 -0.15434790548E+03  0.85645729687E+03  0.90020606859E+03  0.17200000000E+03 0. -1.
<mgrwt>
<rscale>  2 0.27722169E+03</rscale>
<asrwt>0</asrwt>
<pdfrwt beam="1">  1       21 0.24462655E+00 0.27722169E+03</pdfrwt>
<pdfrwt beam="2">  1       21 0.53417319E-01 0.27722169E+03</pdfrwt>
<totfact> 0.21477901E+02</totfact>
</mgrwt>
</event>
<event>
 4    1  0.1086582E+000  0.2018527E+03  0.7546771E-02  0.1148185E+00
         21   -1    0    0  503  502  0.00000000000E+00  0.00000000000E+00  0.44526582143E+02  0.44526582143E+02  0.00000000000E+00 0.  1.
         21   -1    0    0  501  503 -0.00000000000E+00 -0.00000000000E+00 -0.10901761478E+04  0.10901761478E+04  0.00000000000E+00 0.  1.
          6    1    1    2  501    0 -0.84459883796E+02  0.63458916178E+02 -0.29543730932E+03  0.35780959986E+03  0.17200000000E+03 0.  1.
         -6    1    1    2    0  502  0.84459883796E+02 -0.63458916178E+02 -0.75021225634E+03  0.77689313008E+03  0.17200000000E+03 0.  1.
<mgrwt>
<rscale>  2 0.20185268E+03</rscale>
<asrwt>0</asrwt>
<pdfrwt beam="1">  1       21 0.11131646E-01 0.20185268E+03</pdfrwt>
<pdfrwt beam="2">  1       21 0.27254404E+00 0.20185268E+03</pdfrwt>
<totfact> 0.32632545E+03</totfact>
</mgrwt>
</event>
<event>
 4    1  0.1086582E+000  0.1755715E+03  0.7546771E-02  0.1172159E+00
         21   -1    0    0  501  502  0.00000000000E+00  0.00000000000E+00  0.19527774604E+03  0.19527774604E+03  0.00000000000E+00 0.  1.
         21   -1    0    0  502  503 -0.00000000000E+00 -0.00000000000E+00 -0.20737263057E+03  0.20737263057E+03  0.00000000000E+00 0.  1.
          6    1    1    2  501    0  0.20682780445E+02 -0.28523523977E+02  0.92332555742E+02  0.19837003220E+03  0.17200000000E+03 0.  1.
         -6    1    1    2    0  503 -0.20682780445E+02  0.28523523977E+02 -0.10442744028E+03  0.20428034440E+03  0.17200000000E+03 0.  1.
<mgrwt>
<rscale>  2 0.17557155E+03</rscale>
<asrwt>0</asrwt>
<pdfrwt beam="1">  1       21 0.48819437E-01 0.17557155E+03</pdfrwt>
<pdfrwt beam="2">  1       21 0.51843157E-01 0.17557155E+03</pdfrwt>
<totfact> 0.14305201E+04</totfact>
</mgrwt>
</event>
<event>
 4    1  0.1086582E+000  0.2396635E+03  0.7546771E-02  0.1120017E+00
         21   -1    0    0  501  502  0.00000000000E+00  0.00000000000E+00  0.42192094681E+03  0.42192094681E+03  0.00000000000E+00 0.  1.
         21   -1    0    0  502  503 -0.00000000000E+00 -0.00000000000E+00 -0.13994964081E+03  0.13994964081E+03  0.00000000000E+00 0. -1.
          6    1    1    2  501    0  0.14200933266E+03 -0.87680806169E+02  0.94609169373E+02  0.25766154013E+03  0.17200000000E+03 0.  1.
         -6    1    1    2    0  503 -0.14200933266E+03  0.87680806169E+02  0.18736213663E+03  0.30420904749E+03  0.17200000000E+03 0. -1.
<mgrwt>
<rscale>  2 0.23966346E+03</rscale>
<asrwt>0</asrwt>
<pdfrwt beam="1">  1       21 0.10548023E+00 0.23966346E+03</pdfrwt>
<pdfrwt beam="2">  1       21 0.34987411E-01 0.23966346E+03</pdfrwt>
<totfact> 0.55004916E+03</totfact>
</mgrwt>
</event>
<event>
 4    1  0.1086582E+000  0.2064263E+03  0.7546771E-02  0.1144428E+00
         21   -1    0    0  501  502  0.00000000000E+00  0.00000000000E+00  0.81459484877E+03  0.81459484877E+03  0.00000000000E+00 0.  1.
         21   -1    0    0  502  503 -0.00000000000E+00 -0.00000000000E+00 -0.52311382628E+02  0.52311382628E+02  0.00000000000E+00 0.  1.
          6    1    1    2  501    0  0.45816330452E+02  0.10454023684E+03  0.37928065503E+03  0.43181664226E+03  0.17200000000E+03 0.  1.
         -6    1    1    2    0  503 -0.45816330452E+02 -0.10454023684E+03  0.38300281112E+03  0.43508958914E+03  0.17200000000E+03 0.  1.
<mgrwt>
<rscale>  2 0.20642625E+03</rscale>
<asrwt>0</asrwt>
<pdfrwt beam="1">  1       21 0.20364867E+00 0.20642625E+03</pdfrwt>
<pdfrwt beam="2">  1       21 0.13077848E-01 0.20642625E+03</pdfrwt>
<totfact> 0.63211680E+03</totfact>
</mgrwt>
</event>
<event>
 4    1  0.1086582E+000  0.1858299E+03  0.7546771E-02  0.1162277E+00
         21   -1    0    0  501  502  0.00000000000E+00  0.00000000000E+00  0.43346988734E+03  0.43346988734E+03  0.00000000000E+00 0. -1.
         21   -1    0    0  502  503 -0.00000000000E+00 -0.00000000000E+00 -0.12773837216E+03  0.12773837216E+03  0.00000000000E+00 0. -1.
          6    1    1    2  501    0  0.70298443277E+02 -0.26256287720E+01  0.32500569311E+03  0.37438144400E+03  0.17200000000E+03 0. -1.
         -6    1    1    2    0  503 -0.70298443277E+02  0.26256287720E+01 -0.19274177931E+02  0.18682681550E+03  0.17200000000E+03 0. -1.
<mgrwt>
<rscale>  2 0.18582994E+03</rscale>
<asrwt>0</asrwt>
<pdfrwt beam="1">  1       21 0.10836747E+00 0.18582994E+03</pdfrwt>
<pdfrwt beam="2">  1       21 0.31934594E-01 0.18582994E+03</pdfrwt>
<totfact> 0.64191789E+03</totfact>
</mgrwt>
</event>
<event>
 4    1  0.1086582E+000  0.1726709E+03  0.7546771E-02  0.1175091E+00
         21   -1    0    0  501  502  0.00000000000E+00  0.00000000000E+00  0.54086613779E+02  0.54086613779E+02  0.00000000000E+00 0.  1.
         21   -1    0    0  502  503 -0.00000000000E+00 -0.00000000000E+00 -0.90407188149E+03  0.90407188149E+03  0.00000000000E+00 0.  1.
          6    1    1    2  501    0 -0.14995022941E+02 -0.25274659803E+01 -0.12570848626E+03  0.21358338492E+03  0.17200000000E+03 0.  1.
         -6    1    1    2    0  503  0.14995022941E+02  0.25274659803E+01 -0.72427678145E+03  0.74457511035E+03  0.17200000000E+03 0.  1.
<mgrwt>
<rscale>  2 0.17267090E+03</rscale>
<asrwt>0</asrwt>
<pdfrwt beam="1">  1       21 0.13521654E-01 0.17267090E+03</pdfrwt>
<pdfrwt beam="2">  1       21 0.22601797E+00 0.17267090E+03</pdfrwt>
<totfact> 0.44690502E+03</totfact>
</mgrwt>
</event>
<event>
 4    1  0.1086582E+000  0.2154293E+03  0.7546771E-02  0.1137337E+00
         21   -1    0    0  501  502  0.00000000000E+00  0.00000000000E+00  0.16078795697E+03  0.16078795697E+03  0.00000000000E+00 0. -1.
         21   -1    0    0  502  503 -0.00000000000E+00 -0.00000000000E+00 -0.70547588077E+03  0.70547588077E+03  0.00000000000E+00 0.  1.
          6    1    1    2  501    0 -0.79936449215E+02  0.10215654226E+03  0.60592825329E+02  0.22378848389E+03  0.17200000000E+03 0. -1.
         -6    1    1    2    0  503  0.79936449215E+02 -0.10215654226E+03 -0.60528074913E+03  0.64247535385E+03  0.17200000000E+03 0.  1.
<mgrwt>
<rscale>  2 0.21542933E+03</rscale>
<asrwt>0</asrwt>
<pdfrwt beam="1">  1       21 0.40196990E-01 0.21542933E+03</pdfrwt>
<pdfrwt beam="2">  1       21 0.17636897E+00 0.21542933E+03</pdfrwt>
<totfact> 0.11224753E+03</totfact>
</mgrwt>
</event>
<event>
 4    1  0.1086582E+000  0.3526879E+03  0.7546771E-02  0.1061517E+00
         21   -1    0    0  501  502  0.00000000000E+00  0.00000000000E+00  0.22228572777E+03  0.22228572777E+03  0.00000000000E+00 0. -1.
         21   -1    0    0  502  503 -0.00000000000E+00 -0.00000000000E+00 -0.59959751215E+03  0.59959751215E+03  0.00000000000E+00 0.  1.
          6    1    1    2  501    0  0.17113048551E+03  0.25596699124E+03 -0.82504893423E+02  0.36220960936E+03  0.17200000000E+03 0.  1.
         -6    1    1    2    0  503 -0.17113048551E+03 -0.25596699124E+03 -0.29480689095E+03  0.45967363055E+03  0.17200000000E+03 0. -1.
<mgrwt>
<rscale>  2 0.35268788E+03</rscale>
<asrwt>0</asrwt>
<pdfrwt beam="1">  1       21 0.55571432E-01 0.35268788E+03</pdfrwt>
<pdfrwt beam="2">  1       21 0.14989938E+00 0.35268788E+03</pdfrwt>
<totfact> 0.80627684E+02</totfact>
</mgrwt>
</event>
<event>
 4    1  0.1086582E+000  0.1747887E+03  0.7546771E-02  0.1172944E+00
         21   -1    0    0  501  502  0.00000000000E+00  0.00000000000E+00  0.14019378198E+03  0.14019378198E+03  0.00000000000E+00 0. -1.
         21   -1    0    0  502  503 -0.00000000000E+00 -0.00000000000E+00 -0.47868766025E+03  0.47868766025E+03  0.00000000000E+00 0. -1.
          6    1    1    2  501    0 -0.22504531968E+02 -0.21462331586E+02  0.59143477567E+02  0.18452381032E+03  0.17200000000E+03 0. -1.
         -6    1    1    2    0  503  0.22504531968E+02  0.21462331586E+02 -0.39763735584E+03  0.43435763191E+03  0.17200000000E+03 0. -1.
<mgrwt>
<rscale>  2 0.17478869E+03</rscale>
<asrwt>0</asrwt>
<pdfrwt beam="1">  1       21 0.35048446E-01 0.17478869E+03</pdfrwt>
<pdfrwt beam="2">  1       21 0.11967191E+00 0.17478869E+03</pdfrwt>
<totfact> 0.42369112E+03</totfact>
</mgrwt>
</event>
<event>
 4    1  0.1086582E+000  0.2460576E+03  0.7546771E-02  0.1115822E+00
         21   -1    0    0  503  502  0.00000000000E+00  0.00000000000E+00  0.17057736782E+03  0.17057736782E+03  0.00000000000E+00 0.  1.
         21   -1    0    0  501  503 -0.00000000000E+00 -0.00000000000E+00 -0.36026011386E+03  0.36026011386E+03  0.00000000000E+00 0. -1.
          6    1    1    2  501    0 -0.17578212394E+03 -0.78098149628E+01 -0.62580546180E+02  0.25389106536E+03  0.17200000000E+03 0.  1.
         -6    1    1    2    0  502  0.17578212394E+03  0.78098149628E+01 -0.12710219985E+03  0.27694641633E+03  0.17200000000E+03 0. -1.
<mgrwt>
<rscale>  2 0.24605761E+03</rscale>
<asrwt>0</asrwt>
<pdfrwt beam="1">  1       21 0.42644342E-01 0.24605761E+03</pdfrwt>
<pdfrwt beam="2">  1       21 0.90065028E-01 0.24605761E+03</pdfrwt>
<totfact> 0.53423368E+03</totfact>
</mgrwt>
</event>
<event>
 4    1  0.1086582E+000  0.1827114E+03  0.7546771E-02  0.1165204E+00
         21   -1    0    0  503  502  0.00000000000E+00  0.00000000000E+00  0.53976065226E+03  0.53976065226E+03  0.00000000000E+00 0.  1.
         21   -1    0    0  501  503 -0.00000000000E+00 -0.00000000000E+00 -0.61848890152E+02  0.61848890152E+02  0.00000000000E+00 0.  1.
          6    1    1    2  501    0  0.47218753990E+02  0.39621219876E+02  0.23832790215E+03  0.30030591193E+03  0.17200000000E+03 0.  1.
         -6    1    1    2    0  502 -0.47218753990E+02 -0.39621219876E+02  0.23958385995E+03  0.30130363048E+03  0.17200000000E+03 0.  1.
<mgrwt>
<rscale>  2 0.18271139E+03</rscale>
<asrwt>0</asrwt>
<pdfrwt beam="1">  1       21 0.13494015E+00 0.18271139E+03</pdfrwt>
<pdfrwt beam="2">  1       21 0.15462224E-01 0.18271139E+03</pdfrwt>
<totfact> 0.14698134E+04</totfact>
</mgrwt>
</event>
<event>
 4    1  0.1086582E+000  0.2645078E+03  0.7546771E-02  0.1104465E+00
         21   -1    0    0  501  502  0.00000000000E+00  0.00000000000E+00  0.17009706699E+03  0.17009706699E+03  0.00000000000E+00 0.  1.
         21   -1    0    0  502  503 -0.00000000000E+00 -0.00000000000E+00 -0.43883170427E+03  0.43883170427E+03  0.00000000000E+00 0.  1.
          6    1    1    2  501    0  0.16820464951E+03 -0.10994360027E+03 -0.58134351253E+02  0.27082097805E+03  0.17200000000E+03 0.  1.
         -6    1    1    2    0  503 -0.16820464951E+03  0.10994360027E+03 -0.21060028603E+03  0.33810779321E+03  0.17200000000E+03 0.  1.
<mgrwt>
<rscale>  2 0.26450784E+03</rscale>
<asrwt>0</asrwt>
<pdfrwt beam="1">  1       21 0.42524267E-01 0.26450784E+03</pdfrwt>
<pdfrwt beam="2">  1       21 0.10970793E+00 0.26450784E+03</pdfrwt>
<totfact> 0.33157333E+03</totfact>
</mgrwt>
</event>
<event>
 4    1  0.1086582E+000  0.1802805E+03  0.7546771E-02  0.1167532E+00
         21   -1    0    0  503  502  0.00000000000E+00  0.00000000000E+00  0.19202988738E+03  0.19202988738E+03  0.00000000000E+00 0. -1.
         21   -1    0    0  501  503 -0.00000000000E+00 -0.00000000000E+00 -0.85540813086E+03  0.85540813086E+03  0.00000000000E+00 0. -1.
          6    1    1    2  501    0 -0.26479926497E+02  0.47072950433E+02 -0.80074412499E+03  0.82078755039E+03  0.17200000000E+03 0. -1.
         -6    1    1    2    0  502  0.26479926497E+02 -0.47072950433E+02  0.13736588151E+03  0.22665046784E+03  0.17200000000E+03 0. -1.
<mgrwt>
<rscale>  2 0.18028047E+03</rscale>
<asrwt>0</asrwt>
<pdfrwt beam="1">  1       21 0.48007473E-01 0.18028047E+03</pdfrwt>
<pdfrwt beam="2">  1       21 0.21385203E+00 0.18028047E+03</pdfrwt>
<totfact> 0.46262909E+02</totfact>
</mgrwt>
</event>
<event>
 4    1  0.1086582E+000  0.1747634E+03  0.7546771E-02  0.1172969E+00
         21   -1    0    0  501  502  0.00000000000E+00  0.00000000000E+00  0.11328041501E+03  0.11328041501E+03  0.00000000000E+00 0.  1.
         21   -1    0    0  502  503 -0.00000000000E+00 -0.00000000000E+00 -0.27727974619E+03  0.27727974619E+03  0.00000000000E+00 0.  1.
          6    1    1    2  501    0 -0.23743291565E+02  0.19861949507E+02 -0.49534898988E+02  0.18164786580E+03  0.17200000000E+03 0.  1.
         -6    1    1    2    0  503  0.23743291565E+02 -0.19861949507E+02 -0.11446443219E+03  0.20891229540E+03  0.17200000000E+03 0.  1.
<mgrwt>
<rscale>  2 0.17476339E+03</rscale>
<asrwt>0</asrwt>
<pdfrwt beam="1">  1       21 0.28320104E-01 0.17476339E+03</pdfrwt>
<pdfrwt beam="2">  1       21 0.69319935E-01 0.17476339E+03</pdfrwt>
<totfact> 0.22803271E+04</totfact>
</mgrwt>
</event>
<event>
 4    1  0.1086582E+000  0.2000869E+03  0.7546771E-02  0.1149666E+00
         21   -1    0    0  501  502  0.00000000000E+00  0.00000000000E+00  0.54146763476E+02  0.54146763476E+02  0.00000000000E+00 0. -1.
         21   -1    0    0  502  503 -0.00000000000E+00 -0.00000000000E+00 -0.82893598466E+03  0.82893598466E+03  0.00000000000E+00 0. -1.
          6    1    1    2  501    0  0.77259172495E+02  0.66946046397E+02 -0.24226006315E+03  0.31420485525E+03  0.17200000000E+03 0. -1.
         -6    1    1    2    0  503 -0.77259172495E+02 -0.66946046397E+02 -0.53252915804E+03  0.56887789289E+03  0.17200000000E+03 0. -1.
<mgrwt>
<rscale>  2 0.20008686E+03</rscale>
<asrwt>0</asrwt>
<pdfrwt beam="1">  1       21 0.13536691E-01 0.20008686E+03</pdfrwt>
<pdfrwt beam="2">  1       21 0.20723399E+00 0.20008686E+03</pdfrwt>
<totfact> 0.56682681E+03</totfact>
</mgrwt>
</event>
<event>
 4    1  0.1086582E+000  0.2868736E+03  0.7546771E-02  0.1091993E+00
         21   -1    0    0  501  502  0.00000000000E+00  0.00000000000E+00  0.65211363534E+02  0.65211363534E+02  0.00000000000E+00 0.  1.
         21   -1    0    0  502  503 -0.00000000000E+00 -0.00000000000E+00 -0.13368368353E+04  0.13368368353E+04  0.00000000000E+00 0.  1.
          6    1    1    2  501    0 -0.18693189621E+02  0.22882974128E+03 -0.46994466375E+03  0.55058557266E+03  0.17200000000E+03 0.  1.
         -6    1    1    2    0  503  0.18693189621E+02 -0.22882974128E+03 -0.80168080806E+03  0.85146262621E+03  0.17200000000E+03 0.  1.
<mgrwt>
<rscale>  2 0.28687364E+03</rscale>
<asrwt>0</asrwt>
<pdfrwt beam="1">  1       21 0.16302841E-01 0.28687364E+03</pdfrwt>
<pdfrwt beam="2">  1       21 0.33420920E+00 0.28687364E+03</pdfrwt>
<totfact> 0.65132554E+02</totfact>
</mgrwt>
</event>
<event>
 4    1  0.1086582E+000  0.1737656E+03  0.7546771E-02  0.1173977E+00
         21   -1    0    0  503  502  0.00000000000E+00  0.00000000000E+00  0.28638367466E+03  0.28638367466E+03  0.00000000000E+00 0. -1.
         21   -1    0    0  501  503 -0.00000000000E+00 -0.00000000000E+00 -0.14544257789E+03  0.14544257789E+03  0.00000000000E+00 0. -1.
          6    1    1    2  501    0  0.38439137343E+00 -0.24704646987E+02 -0.42772587534E+02  0.17895240033E+03  0.17200000000E+03 0. -1.
         -6    1    1    2    0  502 -0.38439137343E+00  0.24704646987E+02  0.18371368430E+03  0.25287385223E+03  0.17200000000E+03 0. -1.
<mgrwt>
<rscale>  2 0.17376555E+03</rscale>
<asrwt>0</asrwt>
<pdfrwt beam="1">  1       21 0.71595918E-01 0.17376555E+03</pdfrwt>
<pdfrwt beam="2">  1       21 0.36360645E-01 0.17376555E+03</pdfrwt>
<totfact> 0.13022780E+04</totfact>
</mgrwt>
</event>
<event>
 4    1  0.1086582E+000  0.1923196E+03  0.7546771E-02  0.1156386E+00
         21   -1    0    0  501  502  0.00000000000E+00  0.00000000000E+00  0.13090739228E+04  0.13090739228E+04  0.00000000000E+00 0.  1.
         21   -1    0    0  502  503 -0.00000000000E+00 -0.00000000000E+00 -0.40070627766E+02  0.40070627766E+02  0.00000000000E+00 0.  1.
          6    1    1    2  501    0 -0.43281318695E+02  0.74361086635E+02  0.10008197780E+04  0.10191305470E+04  0.17200000000E+03 0.  1.
         -6    1    1    2    0  503  0.43281318695E+02 -0.74361086635E+02  0.26818351703E+03  0.33001400358E+03  0.17200000000E+03 0.  1.
<mgrwt>
<rscale>  2 0.19231964E+03</rscale>
<asrwt>0</asrwt>
<pdfrwt beam="1">  1       21 0.32726834E+00 0.19231964E+03</pdfrwt>
<pdfrwt beam="2">  1       21 0.10017661E-01 0.19231964E+03</pdfrwt>
<totfact> 0.19222014E+03</totfact>
</mgrwt>
</event>
<event>
 4    1  0.1086582E+000  0.1910321E+03  0.7546771E-02  0.1157534E+00
         21   -1    0    0  501  502  0.00000000000E+00  0.00000000000E+00  0.28359868757E+03  0.28359868757E+03  0.00000000000E+00 0. -1.
         21   -1    0    0  502  503 -0.00000000000E+00 -0.00000000000E+00 -0.12877980150E+03  0.12877980150E+03  0.00000000000E+00 0. -1.
          6    1    1    2  501    0 -0.54315724076E+02  0.62920962957E+02  0.71645815329E+02  0.20402541096E+03  0.17200000000E+03 0. -1.
         -6    1    1    2    0  503  0.54315724076E+02 -0.62920962957E+02  0.83173070740E+02  0.20835307811E+03  0.17200000000E+03 0. -1.
<mgrwt>
<rscale>  2 0.19103205E+03</rscale>
<asrwt>0</asrwt>
<pdfrwt beam="1">  1       21 0.70899671E-01 0.19103205E+03</pdfrwt>
<pdfrwt beam="2">  1       21 0.32194951E-01 0.19103205E+03</pdfrwt>
<totfact> 0.16736073E+04</totfact>
</mgrwt>
</event>
<event>
 4    1  0.1086582E+000  0.1887709E+03  0.7546771E-02  0.1159575E+00
         21   -1    0    0  501  502  0.00000000000E+00  0.00000000000E+00  0.19652024946E+03  0.19652024946E+03  0.00000000000E+00 0.  1.
         21   -1    0    0  502  503 -0.00000000000E+00 -0.00000000000E+00 -0.20114075418E+03  0.20114075418E+03  0.00000000000E+00 0. -1.
          6    1    1    2  501    0  0.35403016667E+02  0.69260900466E+02  0.60094162716E+02  0.19810541213E+03  0.17200000000E+03 0.  1.
         -6    1    1    2    0  503 -0.35403016667E+02 -0.69260900466E+02 -0.64714667437E+02  0.19955559151E+03  0.17200000000E+03 0. -1.
<mgrwt>
<rscale>  2 0.18877088E+03</rscale>
<asrwt>0</asrwt>
<pdfrwt beam="1">  1       21 0.49130062E-01 0.18877088E+03</pdfrwt>
<pdfrwt beam="2">  1       21 0.50285188E-01 0.18877088E+03</pdfrwt>
<totfact> 0.14918890E+04</totfact>
</mgrwt>
</event>
<event>
 4    1  0.1086582E+000  0.2106368E+03  0.7546771E-02  0.1141063E+00
         21   -1    0    0  503  502  0.00000000000E+00  0.00000000000E+00  0.30816516108E+03  0.30816516108E+03  0.00000000000E+00 0.  1.
         21   -1    0    0  501  503 -0.00000000000E+00 -0.00000000000E+00 -0.31488357657E+03  0.31488357657E+03  0.00000000000E+00 0. -1.
          6    1    1    2  501    0  0.27271628026E+02  0.11849109150E+03 -0.23286823240E+03  0.31399919446E+03  0.17200000000E+03 0. -1.
         -6    1    1    2    0  502 -0.27271628026E+02 -0.11849109150E+03  0.22614981691E+03  0.30904954319E+03  0.17200000000E+03 0.  1.
<mgrwt>
<rscale>  2 0.21063684E+03</rscale>
<asrwt>0</asrwt>
<pdfrwt beam="1">  1       21 0.77041290E-01 0.21063684E+03</pdfrwt>
<pdfrwt beam="2">  1       21 0.78720894E-01 0.21063684E+03</pdfrwt>
<totfact> 0.21019001E+03</totfact>
</mgrwt>
</event>
<event>
 4    1  0.1086582E+000  0.2241656E+03  0.7546771E-02  0.1130815E+00
         21   -1    0    0  503  502  0.00000000000E+00  0.00000000000E+00  0.31487211617E+03  0.31487211617E+03  0.00000000000E+00 0. -1.
         21   -1    0    0  501  503 -0.00000000000E+00 -0.00000000000E+00 -0.70372688735E+03  0.70372688735E+03  0.00000000000E+00 0. -1.
          6    1    1    2  501    0  0.22397623718E+02  0.14200193390E+03 -0.64227015319E+03  0.68026550145E+03  0.17200000000E+03 0. -1.
         -6    1    1    2    0  502 -0.22397623718E+02 -0.14200193390E+03  0.25341538202E+03  0.33833350207E+03  0.17200000000E+03 0. -1.
<mgrwt>
<rscale>  2 0.22416557E+03</rscale>
<asrwt>0</asrwt>
<pdfrwt beam="1">  1       21 0.78718030E-01 0.22416557E+03</pdfrwt>
<pdfrwt beam="2">  1       21 0.17593172E+00 0.22416557E+03</pdfrwt>
<totfact> 0.26658642E+02</totfact>
</mgrwt>
</event>
<event>
 4    1  0.1086582E+000  0.1723850E+03  0.7546771E-02  0.1175383E+00
         21   -1    0    0  503  502  0.00000000000E+00  0.00000000000E+00  0.27006912947E+03  0.27006912947E+03  0.00000000000E+00 0. -1.
         21   -1    0    0  501  503 -0.00000000000E+00 -0.00000000000E+00 -0.29522418753E+03  0.29522418753E+03  0.00000000000E+00 0. -1.
          6    1    1    2  501    0  0.69305452540E+01 -0.91949498147E+01 -0.23643818503E+03  0.29260826185E+03  0.17200000000E+03 0. -1.
         -6    1    1    2    0  502 -0.69305452540E+01  0.91949498147E+01  0.21128312697E+03  0.27268505515E+03  0.17200000000E+03 0. -1.
<mgrwt>
<rscale>  2 0.17238497E+03</rscale>
<asrwt>0</asrwt>
<pdfrwt beam="1">  1       21 0.67517282E-01 0.17238497E+03</pdfrwt>
<pdfrwt beam="2">  1       21 0.73806047E-01 0.17238497E+03</pdfrwt>
<totfact> 0.33640691E+03</totfact>
</mgrwt>
</event>
<event>
 4    1  0.1086582E+000  0.2545096E+03  0.7546771E-02  0.1110488E+00
         21   -1    0    0  501  502  0.00000000000E+00  0.00000000000E+00  0.15353729739E+03  0.15353729739E+03  0.00000000000E+00 0.  1.
         21   -1    0    0  502  503 -0.00000000000E+00 -0.00000000000E+00 -0.86538488682E+03  0.86538488682E+03  0.00000000000E+00 0. -1.
          6    1    1    2  501    0  0.11804844889E+03 -0.14579343356E+03  0.87905745627E+01  0.25466141395E+03  0.17200000000E+03 0.  1.
         -6    1    1    2    0  503 -0.11804844889E+03  0.14579343356E+03 -0.72063816399E+03  0.76426077025E+03  0.17200000000E+03 0. -1.
<mgrwt>
<rscale>  2 0.25450965E+03</rscale>
<asrwt>0</asrwt>
<pdfrwt beam="1">  1       21 0.38384324E-01 0.25450965E+03</pdfrwt>
<pdfrwt beam="2">  1       21 0.21634622E+00 0.25450965E+03</pdfrwt>
<totfact> 0.64927130E+02</totfact>
</mgrwt>
</event>
<event>
 4    1  0.1086582E+000  0.2181323E+03  0.7546771E-02  0.1135283E+00
         21   -1    0    0  501  502  0.00000000000E+00  0.00000000000E+00  0.13573658881E+04  0.13573658881E+04  0.00000000000E+00 0. -1.
         21   -1    0    0  502  503 -0.00000000000E+00 -0.00000000000E+00 -0.47215704037E+02  0.47215704037E+02  0.00000000000E+00 0.  1.
          6    1    1    2  501    0 -0.13403467006E+03 -0.56909609967E+01  0.10114961709E+04  0.10347493337E+04  0.17200000000E+03 0.  1.
         -6    1    1    2    0  503  0.13403467006E+03  0.56909609967E+01  0.29865401317E+03  0.36983225846E+03  0.17200000000E+03 0.  1.
<mgrwt>
<rscale>  2 0.21813225E+03</rscale>
<asrwt>0</asrwt>
<pdfrwt beam="1">  1       21 0.33934134E+00 0.21813225E+03</pdfrwt>
<pdfrwt beam="2">  1       21 0.11803931E-01 0.21813225E+03</pdfrwt>
<totfact> 0.11798295E+03</totfact>
</mgrwt>
</event>
<event>
 4    1  0.1086582E+000  0.1869814E+03  0.7546771E-02  0.1161212E+00
         21   -1    0    0  501  502  0.00000000000E+00  0.00000000000E+00  0.27801607388E+03  0.27801607388E+03  0.00000000000E+00 0. -1.
         21   -1    0    0  502  503 -0.00000000000E+00 -0.00000000000E+00 -0.12697207009E+03  0.12697207009E+03  0.00000000000E+00 0. -1.
          6    1    1    2  501    0 -0.73254128419E+02 -0.34462572295E+01  0.55700759901E+02  0.19510155989E+03  0.17200000000E+03 0. -1.
         -6    1    1    2    0  503  0.73254128419E+02  0.34462572295E+01  0.95343243891E+02  0.20988658408E+03  0.17200000000E+03 0. -1.
<mgrwt>
<rscale>  2 0.18698140E+03</rscale>
<asrwt>0</asrwt>
<pdfrwt beam="1">  1       21 0.69504017E-01 0.18698140E+03</pdfrwt>
<pdfrwt beam="2">  1       21 0.31743018E-01 0.18698140E+03</pdfrwt>
<totfact> 0.18022095E+04</totfact>
</mgrwt>
</event>
<event>
 4    1  0.1086582E+000  0.1854663E+03  0.7546771E-02  0.1162615E+00
         21   -1    0    0  501  502  0.00000000000E+00  0.00000000000E+00  0.11382686979E+03  0.11382686979E+03  0.00000000000E+00 0.  1.
         21   -1    0    0  502  503 -0.00000000000E+00 -0.00000000000E+00 -0.30249936410E+03  0.30249936410E+03  0.00000000000E+00 0. -1.
          6    1    1    2  501    0  0.57136618554E+02  0.39359508195E+02 -0.10095318040E+03  0.21116180691E+03  0.17200000000E+03 0.  1.
         -6    1    1    2    0  503 -0.57136618554E+02 -0.39359508195E+02 -0.87719313920E+02  0.20516442698E+03  0.17200000000E+03 0. -1.
<mgrwt>
<rscale>  2 0.18546634E+03</rscale>
<asrwt>0</asrwt>
<pdfrwt beam="1">  1       21 0.28456718E-01 0.18546634E+03</pdfrwt>
<pdfrwt beam="2">  1       21 0.75624841E-01 0.18546634E+03</pdfrwt>
<totfact> 0.18509583E+04</totfact>
</mgrwt>
</event>
<event>
 4    1  0.1086582E+000  0.1833465E+03  0.7546771E-02  0.1164603E+00
         21   -1    0    0  501  502  0.00000000000E+00  0.00000000000E+00  0.62682215553E+03  0.62682215553E+03  0.00000000000E+00 0. -1.
         21   -1    0    0  502  503 -0.00000000000E+00 -0.00000000000E+00 -0.56229427196E+02  0.56229427196E+02  0.00000000000E+00 0. -1.
          6    1    1    2  501    0  0.13200098585E+01 -0.63483942897E+02  0.35873923269E+03  0.40287689249E+03  0.17200000000E+03 0. -1.
         -6    1    1    2    0  503 -0.13200098585E+01  0.63483942897E+02  0.21185349565E+03  0.28017469024E+03  0.17200000000E+03 0. -1.
<mgrwt>
<rscale>  2 0.18334654E+03</rscale>
<asrwt>0</asrwt>
<pdfrwt beam="1">  1       21 0.15670552E+00 0.18334654E+03</pdfrwt>
<pdfrwt beam="2">  1       21 0.14057359E-01 0.18334654E+03</pdfrwt>
<totfact> 0.11830315E+04</totfact>
</mgrwt>
</event>
<event>
 4    1  0.1086582E+000  0.1992153E+03  0.7546771E-02  0.1150403E+00
         21   -1    0    0  503  502  0.00000000000E+00  0.00000000000E+00  0.99290471986E+03  0.99290471986E+03  0.00000000000E+00 0.  1.
         21   -1    0    0  501  503 -0.00000000000E+00 -0.00000000000E+00 -0.54333525289E+03  0.54333525289E+03  0.00000000000E+00 0.  1.
          6    1    1    2  501    0  0.92065337654E+02 -0.40332507224E+02 -0.51454231306E+03  0.55176129754E+03  0.17200000000E+03 0.  1.
         -6    1    1    2    0  502 -0.92065337654E+02  0.40332507224E+02  0.96411178003E+03  0.98447867521E+03  0.17200000000E+03 0.  1.
<mgrwt>
<rscale>  2 0.19921530E+03</rscale>
<asrwt>0</asrwt>
<pdfrwt beam="1">  1       21 0.24822618E+00 0.19921530E+03</pdfrwt>
<pdfrwt beam="2">  1       21 0.13583381E+00 0.19921530E+03</pdfrwt>
<totfact> 0.26045119E+01</totfact>
</mgrwt>
</event>
<event>
 4    1  0.1086582E+000  0.3448954E+03  0.7546771E-02  0.1064730E+00
         21   -1    0    0  503  502  0.00000000000E+00  0.00000000000E+00  0.13305158132E+03  0.13305158132E+03  0.00000000000E+00 0. -1.
         21   -1    0    0  501  503 -0.00000000000E+00 -0.00000000000E+00 -0.10798360157E+04  0.10798360157E+04  0.00000000000E+00 0.  1.
          6    1    1    2  501    0  0.13387796630E+03 -0.26729300307E+03 -0.72494835407E+03  0.80280942659E+03  0.17200000000E+03 0.  1.
         -6    1    1    2    0  502 -0.13387796630E+03  0.26729300307E+03 -0.22183608035E+03  0.41007817047E+03  0.17200000000E+03 0. -1.
<mgrwt>
<rscale>  2 0.34489543E+03</rscale>
<asrwt>0</asrwt>
<pdfrwt beam="1">  1       21 0.33262896E-01 0.34489543E+03</pdfrwt>
<pdfrwt beam="2">  1       21 0.26995900E+00 0.34489543E+03</pdfrwt>
<totfact> 0.37902231E+02</totfact>
</mgrwt>
</event>
<event>
 4    1  0.1086582E+000  0.1967745E+03  0.7546771E-02  0.1152489E+00
         21   -1    0    0  501  502  0.00000000000E+00  0.00000000000E+00  0.18893433580E+03  0.18893433580E+03  0.00000000000E+00 0. -1.
         21   -1    0    0  502  503 -0.00000000000E+00 -0.00000000000E+00 -0.42322360378E+03  0.42322360378E+03  0.00000000000E+00 0. -1.
          6    1    1    2  501    0 -0.10132845887E+02  0.95044974226E+02  0.10267121809E+03  0.22194954543E+03  0.17200000000E+03 0. -1.
         -6    1    1    2    0  503  0.10132845887E+02 -0.95044974226E+02 -0.33696048607E+03  0.39020839415E+03  0.17200000000E+03 0. -1.
<mgrwt>
<rscale>  2 0.19677455E+03</rscale>
<asrwt>0</asrwt>
<pdfrwt beam="1">  1       21 0.47233585E-01 0.19677455E+03</pdfrwt>
<pdfrwt beam="2">  1       21 0.10580590E+00 0.19677455E+03</pdfrwt>
<totfact> 0.30653239E+03</totfact>
</mgrwt>
</event>
<event>
 4    1  0.1086582E+000  0.1879245E+03  0.7546771E-02  0.1160347E+00
         21   -1    0    0  501  502  0.00000000000E+00  0.00000000000E+00  0.31072974775E+03  0.31072974775E+03  0.00000000000E+00 0. -1.
         21   -1    0    0  502  503 -0.00000000000E+00 -0.00000000000E+00 -0.16264680383E+03  0.16264680383E+03  0.00000000000E+00 0. -1.
          6    1    1    2  501    0  0.74963301011E+02  0.10589114024E+02  0.20394498060E+03  0.27732504565E+03  0.17200000000E+03 0. -1.
         -6    1    1    2    0  503 -0.74963301011E+02 -0.10589114024E+02 -0.55862036683E+02  0.19605150593E+03  0.17200000000E+03 0. -1.
<mgrwt>
<rscale>  2 0.18792452E+03</rscale>
<asrwt>0</asrwt>
<pdfrwt beam="1">  1       21 0.77682436E-01 0.18792452E+03</pdfrwt>
<pdfrwt beam="2">  1       21 0.40661701E-01 0.18792452E+03</pdfrwt>
<totfact> 0.85919052E+03</totfact>
</mgrwt>
</event>
<event>
 4    1  0.1086582E+000  0.2794503E+03  0.7546771E-02  0.1095990E+00
         21   -1    0    0  501  502  0.00000000000E+00  0.00000000000E+00  0.11346267274E+04  0.11346267274E+04  0.00000000000E+00 0. -1.
         21   -1    0    0  502  503 -0.00000000000E+00 -0.00000000000E+00 -0.68827321686E+02  0.68827321686E+02  0.00000000000E+00 0.  1.
          6    1    1    2  501    0  0.18306058282E+03  0.12246346099E+03  0.53487611331E+03  0.60347736731E+03  0.17200000000E+03 0.  1.
         -6    1    1    2    0  503 -0.18306058282E+03 -0.12246346099E+03  0.53092329239E+03  0.59997668176E+03  0.17200000000E+03 0. -1.
<mgrwt>
<rscale>  2 0.27945031E+03</rscale>
<asrwt>0</asrwt>
<pdfrwt beam="1">  1       21 0.28365662E+00 0.27945031E+03</pdfrwt>
<pdfrwt beam="2">  1       21 0.17206834E-01 0.27945031E+03</pdfrwt>
<totfact> 0.11786703E+03</totfact>
</mgrwt>
</event>
<event>
 4    1  0.1086582E+000  0.2408968E+03  0.7546771E-02  0.1119197E+00
         21   -1    0    0  503  502  0.00000000000E+00  0.00000000000E+00  0.54936479702E+03  0.54936479702E+03  0.00000000000E+00 0.  1.
         21   -1    0    0  501  503 -0.00000000000E+00 -0.00000000000E+00 -0.16162047480E+03  0.16162047480E+03  0.00000000000E+00 0. -1.
          6    1    1    2  501    0 -0.12899617629E+03  0.10866114880E+03  0.40310333759E+03  0.46959936066E+03  0.17200000000E+03 0.  1.
         -6    1    1    2    0  502  0.12899617629E+03 -0.10866114880E+03 -0.15359015367E+02  0.24138591117E+03  0.17200000000E+03 0.  1.
<mgrwt>
<rscale>  2 0.24089678E+03</rscale>
<asrwt>0</asrwt>
<pdfrwt beam="1">  1       21 0.13734119E+00 0.24089678E+03</pdfrwt>
<pdfrwt beam="2">  1       21 0.40405120E-01 0.24089678E+03</pdfrwt>
<totfact> 0.21293649E+03</totfact>
</mgrwt>
</event>
<event>
 4    1  0.1086582E+000  0.1824777E+03  0.7546771E-02  0.1165426E+00
         21   -1    0    0  503  502  0.00000000000E+00  0.00000000000E+00  0.47324106648E+03  0.47324106648E+03  0.00000000000E+00 0.  1.
         21   -1    0    0  501  503 -0.00000000000E+00 -0.00000000000E+00 -0.10891024914E+03  0.10891024914E+03  0.00000000000E+00 0.  1.
          6    1    1    2  501    0  0.41359572282E+02  0.44760532159E+02  0.89946118317E+01  0.18269926793E+03  0.17200000000E+03 0.  1.
         -6    1    1    2    0  502 -0.41359572282E+02 -0.44760532159E+02  0.35533620551E+03  0.39945204769E+03  0.17200000000E+03 0.  1.
<mgrwt>
<rscale>  2 0.18247772E+03</rscale>
<asrwt>0</asrwt>
<pdfrwt beam="1">  1       21 0.11831026E+00 0.18247772E+03</pdfrwt>
<pdfrwt beam="2">  1       21 0.27227564E-01 0.18247772E+03</pdfrwt>
<totfact> 0.70892086E+03</totfact>
</mgrwt>
</event>
<event>
 4    1  0.1086582E+000  0.3061417E+03  0.7546771E-02  0.1082210E+00
         21   -1    0    0  501  502  0.00000000000E+00  0.00000000000E+00  0.11701370907E+03  0.11701370907E+03  0.00000000000E+00 0. -1.
         21   -1    0    0  502  503 -0.00000000000E+00 -0.00000000000E+00 -0.15928363851E+04  0.15928363851E+04  0.00000000000E+00 0. -1.
          6    1    1    2  501    0 -0.10344002852E+03 -0.23116855544E+03 -0.13511241857E+03  0.33463129886E+03  0.17200000000E+03 0. -1.
         -6    1    1    2    0  503  0.10344002852E+03  0.23116855544E+03 -0.13407102574E+04  0.13752187953E+04  0.17200000000E+03 0. -1.
<mgrwt>
<rscale>  2 0.30614170E+03</rscale>
<asrwt>0</asrwt>
<pdfrwt beam="1">  1       21 0.29253428E-01 0.30614170E+03</pdfrwt>
<pdfrwt beam="2">  1       21 0.39820909E+00 0.30614170E+03</pdfrwt>
<totfact> 0.85140799E+01</totfact>
</mgrwt>
</event>
<event>
 4    1  0.1086582E+000  0.1998329E+03  0.7546771E-02  0.1149880E+00
         21   -1    0    0  503  502  0.00000000000E+00  0.00000000000E+00  0.30578030900E+02  0.30578030900E+02  0.00000000000E+00 0.  1.
         21   -1    0    0  501  503 -0.00000000000E+00 -0.00000000000E+00 -0.14047168577E+04  0.14047168577E+04  0.00000000000E+00 0.  1.
          6    1    1    2  501    0  0.11403770209E+01 -0.10172462395E+03 -0.87736788335E+03  0.89983754218E+03  0.17200000000E+03 0.  1.
         -6    1    1    2    0  502 -0.11403770209E+01  0.10172462395E+03 -0.49677094340E+03  0.53545734637E+03  0.17200000000E+03 0.  1.
<mgrwt>
<rscale>  2 0.19983293E+03</rscale>
<asrwt>0</asrwt>
<pdfrwt beam="1">  1       21 0.76445077E-02 0.19983293E+03</pdfrwt>
<pdfrwt beam="2">  1       21 0.35117922E+00 0.19983293E+03</pdfrwt>
<totfact> 0.22134105E+03</totfact>
</mgrwt>
</event>
<event>
 4    1  0.1086582E+000  0.1842758E+03  0.7546771E-02  0.1163728E+00
         21   -1    0    0  501  502  0.00000000000E+00  0.00000000000E+00  0.19071758389E+03  0.19071758389E+03  0.00000000000E+00 0. -1.
         21   -1    0    0  502  503 -0.00000000000E+00 -0.00000000000E+00 -0.62415660103E+03  0.62415660103E+03  0.00000000000E+00 0. -1.
          6    1    1    2  501    0  0.65835610392E+02  0.62656189264E+01  0.12773532919E+03  0.22421842007E+03  0.17200000000E+03 0. -1.
         -6    1    1    2    0  503 -0.65835610392E+02 -0.62656189264E+01 -0.56117434632E+03  0.59065576485E+03  0.17200000000E+03 0. -1.
<mgrwt>
<rscale>  2 0.18427584E+03</rscale>
<asrwt>0</asrwt>
<pdfrwt beam="1">  1       21 0.47679396E-01 0.18427584E+03</pdfrwt>
<pdfrwt beam="2">  1       21 0.15603915E+00 0.18427584E+03</pdfrwt>
<totfact> 0.11424484E+03</totfact>
</mgrwt>
</event>
<event>
 4    1  0.1086582E+000  0.1813700E+03  0.7546771E-02  0.1166484E+00
         21   -1    0    0  503  502  0.00000000000E+00  0.00000000000E+00  0.37621950522E+02  0.37621950522E+02  0.00000000000E+00 0. -1.
         21   -1    0    0  501  503 -0.00000000000E+00 -0.00000000000E+00 -0.13975908091E+04  0.13975908091E+04  0.00000000000E+00 0. -1.
          6    1    1    2  501    0 -0.57419936815E+02  0.37466079256E+01 -0.11190641664E+04  0.11336664831E+04  0.17200000000E+03 0. -1.
         -6    1    1    2    0  502  0.57419936815E+02 -0.37466079256E+01 -0.24090469217E+03  0.30154627659E+03  0.17200000000E+03 0. -1.
<mgrwt>
<rscale>  2 0.18137003E+03</rscale>
<asrwt>0</asrwt>
<pdfrwt beam="1">  1       21 0.94054878E-02 0.18137003E+03</pdfrwt>
<pdfrwt beam="2">  1       21 0.34939770E+00 0.18137003E+03</pdfrwt>
<totfact> 0.16203033E+03</totfact>
</mgrwt>
</event>
<event>
 4    1  0.1086582E+000  0.1781831E+03  0.7546771E-02  0.1169573E+00
         21   -1    0    0  501  502  0.00000000000E+00  0.00000000000E+00  0.25262620744E+03  0.25262620744E+03  0.00000000000E+00 0. -1.
         21   -1    0    0  502  503 -0.00000000000E+00 -0.00000000000E+00 -0.16777166980E+03  0.16777166980E+03  0.00000000000E+00 0. -1.
          6    1    1    2  501    0  0.40165649551E+02 -0.23493324692E+02  0.14771713146E+03  0.23145100266E+03  0.17200000000E+03 0. -1.
         -6    1    1    2    0  503 -0.40165649551E+02  0.23493324692E+02 -0.62862593821E+02  0.18894687457E+03  0.17200000000E+03 0. -1.
<mgrwt>
<rscale>  2 0.17818310E+03</rscale>
<asrwt>0</asrwt>
<pdfrwt beam="1">  1       21 0.63156551E-01 0.17818310E+03</pdfrwt>
<pdfrwt beam="2">  1       21 0.41942918E-01 0.17818310E+03</pdfrwt>
<totfact> 0.12815596E+04</totfact>
</mgrwt>
</event>
<event>
 4    1  0.1086582E+000  0.2692657E+03  0.7546771E-02  0.1101701E+00
         21   -1    0    0  503  502  0.00000000000E+00  0.00000000000E+00  0.61222676587E+03  0.61222676587E+03  0.00000000000E+00 0.  1.
         21   -1    0    0  501  503 -0.00000000000E+00 -0.00000000000E+00 -0.34953805253E+03  0.34953805253E+03  0.00000000000E+00 0.  1.
          6    1    1    2  501    0 -0.64671382001E+02  0.19681876134E+03 -0.25967861622E+03  0.37408153682E+03  0.17200000000E+03 0.  1.
         -6    1    1    2    0  502  0.64671382001E+02 -0.19681876134E+03  0.52236732956E+03  0.58768328159E+03  0.17200000000E+03 0.  1.
<mgrwt>
<rscale>  2 0.26926569E+03</rscale>
<asrwt>0</asrwt>
<pdfrwt beam="1">  1       21 0.15305669E+00 0.26926569E+03</pdfrwt>
<pdfrwt beam="2">  1       21 0.87384514E-01 0.26926569E+03</pdfrwt>
<totfact> 0.29439185E+02</totfact>
</mgrwt>
</event>
<event>
 4    1  0.1086582E+000  0.2092155E+03  0.7546771E-02  0.1142189E+00
         21   -1    0    0  501  502  0.00000000000E+00  0.00000000000E+00  0.78321096617E+02  0.78321096617E+02  0.00000000000E+00 0. -1.
         21   -1    0    0  502  503 -0.00000000000E+00 -0.00000000000E+00 -0.65849599480E+03  0.65849599480E+03  0.00000000000E+00 0. -1.
          6    1    1    2  501    0 -0.89985022757E+02 -0.78037356537E+02 -0.14678803526E+03  0.25557359142E+03  0.17200000000E+03 0. -1.
         -6    1    1    2    0  503  0.89985022757E+02  0.78037356537E+02 -0.43338686292E+03  0.48124349999E+03  0.17200000000E+03 0. -1.
<mgrwt>
<rscale>  2 0.20921552E+03</rscale>
<asrwt>0</asrwt>
<pdfrwt beam="1">  1       21 0.19580274E-01 0.20921552E+03</pdfrwt>
<pdfrwt beam="2">  1       21 0.16462400E+00 0.20921552E+03</pdfrwt>
<totfact> 0.55183497E+03</totfact>
</mgrwt>
</event>
<event>
 4    1  0.1086582E+000  0.1966199E+03  0.7546771E-02  0.1152623E+00
         21   -1    0    0  503  502  0.00000000000E+00  0.00000000000E+00  0.34045708329E+03  0.34045708329E+03  0.00000000000E+00 0. -1.
         21   -1    0    0  501  503 -0.00000000000E+00 -0.00000000000E+00 -0.57078491449E+03  0.57078491449E+03  0.00000000000E+00 0. -1.
          6    1    1    2  501    0 -0.57612900850E+02 -0.75869172244E+02 -0.52295386501E+03  0.55869501749E+03  0.17200000000E+03 0. -1.
         -6    1    1    2    0  502  0.57612900850E+02  0.75869172244E+02  0.29262603382E+03  0.35254698029E+03  0.17200000000E+03 0. -1.
<mgrwt>
<rscale>  2 0.19661988E+03</rscale>
<asrwt>0</asrwt>
<pdfrwt beam="1">  1       21 0.85114272E-01 0.19661988E+03</pdfrwt>
<pdfrwt beam="2">  1       21 0.14269623E+00 0.19661988E+03</pdfrwt>
<totfact> 0.40497955E+02</totfact>
</mgrwt>
</event>
<event>
 4    1  0.1086582E+000  0.1744266E+03  0.7546771E-02  0.1173309E+00
         21   -1    0    0  501  502  0.00000000000E+00  0.00000000000E+00  0.13772965937E+04  0.13772965937E+04  0.00000000000E+00 0. -1.
         21   -1    0    0  502  503 -0.00000000000E+00 -0.00000000000E+00 -0.92852454317E+02  0.92852454317E+02  0.00000000000E+00 0. -1.
          6    1    1    2  501    0 -0.28158774950E+02  0.69086872543E+01  0.12839275585E+04  0.12957216607E+04  0.17200000000E+03 0. -1.
         -6    1    1    2    0  503  0.28158774950E+02 -0.69086872543E+01  0.51658082669E+00  0.17442738725E+03  0.17200000000E+03 0. -1.
<mgrwt>
<rscale>  2 0.17442662E+03</rscale>
<asrwt>0</asrwt>
<pdfrwt beam="1">  1       21 0.34432408E+00 0.17442662E+03</pdfrwt>
<pdfrwt beam="2">  1       21 0.23213118E-01 0.17442662E+03</pdfrwt>
<totfact> 0.33960400E+02</totfact>
</mgrwt>
</event>
<event>
 4    1  0.1086582E+000  0.2596111E+03  0.7546771E-02  0.1107377E+00
         21   -1    0    0  503  502  0.00000000000E+00  0.00000000000E+00  0.32667755415E+03  0.32667755415E+03  0.00000000000E+00 0. -1.
         21   -1    0    0  501  503 -0.00000000000E+00 -0.00000000000E+00 -0.35724184295E+03  0.35724184295E+03  0.00000000000E+00 0. -1.
          6    1    1    2  501    0  0.19068520951E+03 -0.38119074059E+02  0.20698716722E+03  0.33202650546E+03  0.17200000000E+03 0. -1.
         -6    1    1    2    0  502 -0.19068520951E+03  0.38119074059E+02 -0.23755145602E+03  0.35189289165E+03  0.17200000000E+03 0. -1.
<mgrwt>
<rscale>  2 0.25961108E+03</rscale>
<asrwt>0</asrwt>
<pdfrwt beam="1">  1       21 0.81669389E-01 0.25961108E+03</pdfrwt>
<pdfrwt beam="2">  1       21 0.89310461E-01 0.25961108E+03</pdfrwt>
<totfact> 0.13266061E+03</totfact>
</mgrwt>
</event>
<event>
 4    1  0.1086582E+000  0.1835517E+03  0.7546771E-02  0.1164409E+00
         21   -1    0    0  501  502  0.00000000000E+00  0.00000000000E+00  0.19214743047E+02  0.19214743047E+02  0.00000000000E+00 0.  1.
         21   -1    0    0  502  503 -0.00000000000E+00 -0.00000000000E+00 -0.18579297075E+04  0.18579297075E+04  0.00000000000E+00 0. -1.
          6    1    1    2  501    0 -0.46994106596E+02  0.43575026306E+02 -0.11419765068E+04  0.11566337238E+04  0.17200000000E+03 0. -1.
         -6    1    1    2    0  503  0.46994106596E+02 -0.43575026306E+02 -0.69673845767E+03  0.72051072676E+03  0.17200000000E+03 0.  1.
<mgrwt>
<rscale>  2 0.18355171E+03</rscale>
<asrwt>0</asrwt>
<pdfrwt beam="1">  1       21 0.48036868E-02 0.18355171E+03</pdfrwt>
<pdfrwt beam="2">  1       21 0.46448233E+00 0.18355171E+03</pdfrwt>
<totfact> 0.97298889E+02</totfact>
</mgrwt>
</event>
<event>
 4    1  0.1086582E+000  0.2041916E+03  0.7546771E-02  0.1146250E+00
         21   -1    0    0  503  502  0.00000000000E+00  0.00000000000E+00  0.15669132002E+03  0.15669132002E+03  0.00000000000E+00 0.  1.
         21   -1    0    0  501  503 -0.00000000000E+00 -0.00000000000E+00 -0.40017711075E+03  0.40017711075E+03  0.00000000000E+00 0.  1.
          6    1    1    2  501    0 -0.92059044249E+02  0.60293747492E+02 -0.28291423790E+03  0.34890495787E+03  0.17200000000E+03 0.  1.
         -6    1    1    2    0  502  0.92059044249E+02 -0.60293747492E+02  0.39428447172E+02  0.20796347290E+03  0.17200000000E+03 0.  1.
<mgrwt>
<rscale>  2 0.20419159E+03</rscale>
<asrwt>0</asrwt>
<pdfrwt beam="1">  1       21 0.39172830E-01 0.20419159E+03</pdfrwt>
<pdfrwt beam="2">  1       21 0.10004428E+00 0.20419159E+03</pdfrwt>
<totfact> 0.51061275E+03</totfact>
</mgrwt>
</event>
<event>
 4    1  0.1086582E+000  0.2038297E+03  0.7546771E-02  0.1146548E+00
         21   -1    0    0  501  502  0.00000000000E+00  0.00000000000E+00  0.63600859149E+02  0.63600859149E+02  0.00000000000E+00 0. -1.
         21   -1    0    0  502  503 -0.00000000000E+00 -0.00000000000E+00 -0.66166626140E+03  0.66166626140E+03  0.00000000000E+00 0. -1.
          6    1    1    2  501    0  0.53089652703E+02 -0.95624500183E+02 -0.25810720933E+03  0.32888582786E+03  0.17200000000E+03 0. -1.
         -6    1    1    2    0  503 -0.53089652703E+02  0.95624500183E+02 -0.33995819292E+03  0.39638129268E+03  0.17200000000E+03 0. -1.
<mgrwt>
<rscale>  2 0.20382972E+03</rscale>
<asrwt>0</asrwt>
<pdfrwt beam="1">  1       21 0.15900215E-01 0.20382972E+03</pdfrwt>
<pdfrwt beam="2">  1       21 0.16541656E+00 0.20382972E+03</pdfrwt>
<totfact> 0.80384542E+03</totfact>
</mgrwt>
</event>
<event>
 4    1  0.1086582E+000  0.2601928E+03  0.7546771E-02  0.1107027E+00
         21   -1    0    0  501  502  0.00000000000E+00  0.00000000000E+00  0.42771832742E+03  0.42771832742E+03  0.00000000000E+00 0. -1.
         21   -1    0    0  502  503 -0.00000000000E+00 -0.00000000000E+00 -0.19774845007E+03  0.19774845007E+03  0.00000000000E+00 0.  1.
          6    1    1    2  501    0 -0.19458933714E+03  0.15852415219E+02 -0.24725612511E+02  0.26136500360E+03  0.17200000000E+03 0.  1.
         -6    1    1    2    0  503  0.19458933714E+03 -0.15852415219E+02  0.25469548986E+03  0.36410177389E+03  0.17200000000E+03 0. -1.
<mgrwt>
<rscale>  2 0.26019283E+03</rscale>
<asrwt>0</asrwt>
<pdfrwt beam="1">  1       21 0.10692958E+00 0.26019283E+03</pdfrwt>
<pdfrwt beam="2">  1       21 0.49437113E-01 0.26019283E+03</pdfrwt>
<totfact> 0.25894798E+03</totfact>
</mgrwt>
</event>
<event>
 4    1  0.1086582E+000  0.2551375E+03  0.7546771E-02  0.1110100E+00
         21   -1    0    0  503  502  0.00000000000E+00  0.00000000000E+00  0.50943918423E+03  0.50943918423E+03  0.00000000000E+00 0.  1.
         21   -1    0    0  501  503 -0.00000000000E+00 -0.00000000000E+00 -0.22037756453E+03  0.22037756453E+03  0.00000000000E+00 0. -1.
          6    1    1    2  501    0 -0.18464944852E+03 -0.37626053659E+02 -0.92009154402E+02  0.27122098600E+03  0.17200000000E+03 0. -1.
         -6    1    1    2    0  502  0.18464944852E+03  0.37626053659E+02  0.38107077410E+03  0.45859576276E+03  0.17200000000E+03 0.  1.
<mgrwt>
<rscale>  2 0.25513749E+03</rscale>
<asrwt>0</asrwt>
<pdfrwt beam="1">  1       21 0.12735979E+00 0.25513749E+03</pdfrwt>
<pdfrwt beam="2">  1       21 0.55094392E-01 0.25513749E+03</pdfrwt>
<totfact> 0.13398922E+03</totfact>
</mgrwt>
</event>
<event>
 4    1  0.1086582E+000  0.1903977E+03  0.7546771E-02  0.1158103E+00
         21   -1    0    0  501  502  0.00000000000E+00  0.00000000000E+00  0.56226419518E+03  0.56226419518E+03  0.00000000000E+00 0. -1.
         21   -1    0    0  502  503 -0.00000000000E+00 -0.00000000000E+00 -0.66933286557E+02  0.66933286557E+02  0.00000000000E+00 0. -1.
          6    1    1    2  501    0  0.86436218224E+01 -0.81194727427E+02  0.30797141232E+03  0.36207414540E+03  0.17200000000E+03 0. -1.
         -6    1    1    2    0  503 -0.86436218224E+01  0.81194727427E+02  0.18735949630E+03  0.26712333633E+03  0.17200000000E+03 0. -1.
<mgrwt>
<rscale>  2 0.19039773E+03</rscale>
<asrwt>0</asrwt>
<pdfrwt beam="1">  1       21 0.14056603E+00 0.19039773E+03</pdfrwt>
<pdfrwt beam="2">  1       21 0.16733323E-01 0.19039773E+03</pdfrwt>
<totfact> 0.11392121E+04</totfact>
</mgrwt>
</event>
<event>
 4    1  0.1086582E+000  0.2274672E+03  0.7546771E-02  0.1128435E+00
         21   -1    0    0  503  502  0.00000000000E+00  0.00000000000E+00  0.12652972050E+03  0.12652972050E+03  0.00000000000E+00 0.  1.
         21   -1    0    0  501  503 -0.00000000000E+00 -0.00000000000E+00 -0.62264971255E+03  0.62264971255E+03  0.00000000000E+00 0.  1.
          6    1    1    2  501    0 -0.98239120365E+02 -0.11183205747E+03 -0.46752232180E+03  0.51992158566E+03  0.17200000000E+03 0.  1.
         -6    1    1    2    0  502  0.98239120365E+02  0.11183205747E+03 -0.28597670240E+02  0.22925784739E+03  0.17200000000E+03 0.  1.
<mgrwt>
<rscale>  2 0.22746721E+03</rscale>
<asrwt>0</asrwt>
<pdfrwt beam="1">  1       21 0.31632430E-01 0.22746721E+03</pdfrwt>
<pdfrwt beam="2">  1       21 0.15566243E+00 0.22746721E+03</pdfrwt>
<totfact> 0.25245497E+03</totfact>
</mgrwt>
</event>
<event>
 4    1  0.1086582E+000  0.4253294E+03  0.7546771E-02  0.1035346E+00
         21   -1    0    0  501  502  0.00000000000E+00  0.00000000000E+00  0.15557728310E+04  0.15557728310E+04  0.00000000000E+00 0. -1.
         21   -1    0    0  502  503 -0.00000000000E+00 -0.00000000000E+00 -0.13237157825E+03  0.13237157825E+03  0.00000000000E+00 0.  1.
          6    1    1    2  501    0  0.25305916748E+03 -0.29543549655E+03  0.10059958366E+04  0.10922145843E+04  0.17200000000E+03 0. -1.
         -6    1    1    2    0  503 -0.25305916748E+03  0.29543549655E+03  0.41740541621E+03  0.59592982502E+03  0.17200000000E+03 0.  1.
<mgrwt>
<rscale>  2 0.42532937E+03</rscale>
<asrwt>0</asrwt>
<pdfrwt beam="1">  1       21 0.38894315E+00 0.42532937E+03</pdfrwt>
<pdfrwt beam="2">  1       21 0.33092899E-01 0.42532937E+03</pdfrwt>
<totfact> 0.68367614E+01</totfact>
</mgrwt>
</event>
<event>
 4    1  0.1086582E+000  0.2572168E+03  0.7546771E-02  0.1108827E+00
         21   -1    0    0  501  502  0.00000000000E+00  0.00000000000E+00  0.17208938423E+03  0.17208938423E+03  0.00000000000E+00 0. -1.
         21   -1    0    0  502  503 -0.00000000000E+00 -0.00000000000E+00 -0.48175219737E+03  0.48175219737E+03  0.00000000000E+00 0.  1.
          6    1    1    2  501    0 -0.19086233318E+03 -0.12166954447E+02 -0.30175208283E+03  0.39650319608E+03  0.17200000000E+03 0.  1.
         -6    1    1    2    0  503  0.19086233318E+03  0.12166954447E+02 -0.79107303099E+01  0.25733838552E+03  0.17200000000E+03 0. -1.
<mgrwt>
<rscale>  2 0.25721677E+03</rscale>
<asrwt>0</asrwt>
<pdfrwt beam="1">  1       21 0.43022346E-01 0.25721677E+03</pdfrwt>
<pdfrwt beam="2">  1       21 0.12043805E+00 0.25721677E+03</pdfrwt>
<totfact> 0.25842747E+03</totfact>
</mgrwt>
</event>
<event>
 4    1  0.1086582E+000  0.2229899E+03  0.7546771E-02  0.1131673E+00
         21   -1    0    0  501  502  0.00000000000E+00  0.00000000000E+00  0.63820883025E+02  0.63820883025E+02  0.00000000000E+00 0. -1.
         21   -1    0    0  502  503 -0.00000000000E+00 -0.00000000000E+00 -0.78534062413E+03  0.78534062413E+03  0.00000000000E+00 0. -1.
          6    1    1    2  501    0 -0.10446331266E+03 -0.96062076441E+02 -0.39852929740E+03  0.45667286662E+03  0.17200000000E+03 0. -1.
         -6    1    1    2    0  503  0.10446331266E+03  0.96062076441E+02 -0.32299044371E+03  0.39248864054E+03  0.17200000000E+03 0. -1.
<mgrwt>
<rscale>  2 0.22298992E+03</rscale>
<asrwt>0</asrwt>
<pdfrwt beam="1">  1       21 0.15955221E-01 0.22298992E+03</pdfrwt>
<pdfrwt beam="2">  1       21 0.19633515E+00 0.22298992E+03</pdfrwt>
<totfact> 0.48382823E+03</totfact>
</mgrwt>
</event>
<event>
 4    1  0.1086582E+000  0.2192665E+03  0.7546771E-02  0.1134431E+00
         21   -1    0    0  503  502  0.00000000000E+00  0.00000000000E+00  0.86854587316E+02  0.86854587316E+02  0.00000000000E+00 0. -1.
         21   -1    0    0  501  503 -0.00000000000E+00 -0.00000000000E+00 -0.57024402625E+03  0.57024402625E+03  0.00000000000E+00 0.  1.
          6    1    1    2  501    0  0.13220495185E+03 -0.31869491842E+02 -0.29792005233E+03  0.36991103172E+03  0.17200000000E+03 0.  1.
         -6    1    1    2    0  502 -0.13220495185E+03  0.31869491842E+02 -0.18546938660E+03  0.28718758185E+03  0.17200000000E+03 0. -1.
<mgrwt>
<rscale>  2 0.21926654E+03</rscale>
<asrwt>0</asrwt>
<pdfrwt beam="1">  1       21 0.21713647E-01 0.21926654E+03</pdfrwt>
<pdfrwt beam="2">  1       21 0.14256100E+00 0.21926654E+03</pdfrwt>
<totfact> 0.66179571E+03</totfact>
</mgrwt>
</event>
<event>
 4    1  0.1086582E+000  0.3136108E+03  0.7546771E-02  0.1078628E+00
         21   -1    0    0  501  502  0.00000000000E+00  0.00000000000E+00  0.84930147169E+03  0.84930147169E+03  0.00000000000E+00 0. -1.
         21   -1    0    0  502  503 -0.00000000000E+00 -0.00000000000E+00 -0.12846037854E+03  0.12846037854E+03  0.00000000000E+00 0.  1.
          6    1    1    2  501    0 -0.58190967589E+02 -0.25569812971E+03  0.51387838864E+03  0.60201554844E+03  0.17200000000E+03 0. -1.
         -6    1    1    2    0  503  0.58190967589E+02  0.25569812971E+03  0.20696270451E+03  0.37574630179E+03  0.17200000000E+03 0.  1.
<mgrwt>
<rscale>  2 0.31361078E+03</rscale>
<asrwt>0</asrwt>
<pdfrwt beam="1">  1       21 0.21232535E+00 0.31361078E+03</pdfrwt>
<pdfrwt beam="2">  1       21 0.32115097E-01 0.31361078E+03</pdfrwt>
<totfact> 0.93857154E+02</totfact>
</mgrwt>
</event>
<event>
 4    1  0.1086582E+000  0.3025363E+03  0.7546771E-02  0.1083980E+00
         21   -1    0    0  501  502  0.00000000000E+00  0.00000000000E+00  0.76817769706E+03  0.76817769706E+03  0.00000000000E+00 0.  1.
         21   -1    0    0  502  503 -0.00000000000E+00 -0.00000000000E+00 -0.27973440869E+03  0.27973440869E+03  0.00000000000E+00 0.  1.
          6    1    1    2  501    0  0.19528462629E+03 -0.15429878621E+03  0.64120647099E+03  0.70899502053E+03  0.17200000000E+03 0.  1.
         -6    1    1    2    0  503 -0.19528462629E+03  0.15429878621E+03 -0.15276318263E+03  0.33891708523E+03  0.17200000000E+03 0.  1.
<mgrwt>
<rscale>  2 0.30253628E+03</rscale>
<asrwt>0</asrwt>
<pdfrwt beam="1">  1       21 0.19204442E+00 0.30253628E+03</pdfrwt>
<pdfrwt beam="2">  1       21 0.69933604E-01 0.30253628E+03</pdfrwt>
<totfact> 0.25092334E+02</totfact>
</mgrwt>
</event>
<event>
 4    1  0.1086582E+000  0.2057485E+03  0.7546771E-02  0.1144978E+00
         21   -1    0    0  503  502  0.00000000000E+00  0.00000000000E+00  0.10942875276E+03  0.10942875276E+03  0.00000000000E+00 0.  1.
         21   -1    0    0  501  503 -0.00000000000E+00 -0.00000000000E+00 -0.78162670042E+03  0.78162670042E+03  0.00000000000E+00 0.  1.
          6    1    1    2  501    0  0.44288313811E+01  0.11282215478E+03 -0.65272827379E+03  0.68438779399E+03  0.17200000000E+03 0.  1.
         -6    1    1    2    0  502 -0.44288313811E+01 -0.11282215478E+03 -0.19469673878E+02  0.20666765920E+03  0.17200000000E+03 0.  1.
<mgrwt>
<rscale>  2 0.20574852E+03</rscale>
<asrwt>0</asrwt>
<pdfrwt beam="1">  1       21 0.27357189E-01 0.20574852E+03</pdfrwt>
<pdfrwt beam="2">  1       21 0.19540667E+00 0.20574852E+03</pdfrwt>
<totfact> 0.18074643E+03</totfact>
</mgrwt>
</event>
<event>
 4    1  0.1086582E+000  0.1814103E+03  0.7546771E-02  0.1166445E+00
         21   -1    0    0  503  502  0.00000000000E+00  0.00000000000E+00  0.96860094666E+02  0.96860094666E+02  0.00000000000E+00 0. -1.
         21   -1    0    0  501  503 -0.00000000000E+00 -0.00000000000E+00 -0.57685979838E+03  0.57685979838E+03  0.00000000000E+00 0. -1.
          6    1    1    2  501    0  0.22435327543E+02  0.53125792694E+02 -0.45596070146E+03  0.49072380729E+03  0.17200000000E+03 0. -1.
         -6    1    1    2    0  502 -0.22435327543E+02 -0.53125792694E+02 -0.24039002258E+02  0.18299608575E+03  0.17200000000E+03 0. -1.
<mgrwt>
<rscale>  2 0.18141029E+03</rscale>
<asrwt>0</asrwt>
<pdfrwt beam="1">  1       21 0.24215024E-01 0.18141029E+03</pdfrwt>
<pdfrwt beam="2">  1       21 0.14421495E+00 0.18141029E+03</pdfrwt>
<totfact> 0.53836483E+03</totfact>
</mgrwt>
</event>
<event>
 4    1  0.1086582E+000  0.1938909E+03  0.7546771E-02  0.1154998E+00
         21   -1    0    0  501  502  0.00000000000E+00  0.00000000000E+00  0.15304891901E+03  0.15304891901E+03  0.00000000000E+00 0.  1.
         21   -1    0    0  502  503 -0.00000000000E+00 -0.00000000000E+00 -0.29632883823E+03  0.29632883823E+03  0.00000000000E+00 0.  1.
          6    1    1    2  501    0  0.31388166795E+02 -0.83811993519E+02  0.21296539522E+02  0.19505694007E+03  0.17200000000E+03 0.  1.
         -6    1    1    2    0  503 -0.31388166795E+02  0.83811993519E+02 -0.16457645875E+03  0.25432081717E+03  0.17200000000E+03 0.  1.
<mgrwt>
<rscale>  2 0.19389086E+03</rscale>
<asrwt>0</asrwt>
<pdfrwt beam="1">  1       21 0.38262230E-01 0.19389086E+03</pdfrwt>
<pdfrwt beam="2">  1       21 0.74082209E-01 0.19389086E+03</pdfrwt>
<totfact> 0.10756013E+04</totfact>
</mgrwt>
</event>
<event>
 4    1  0.1086582E+000  0.2396013E+03  0.7546771E-02  0.1120059E+00
         21   -1    0    0  503  502  0.00000000000E+00  0.00000000000E+00  0.26295864423E+03  0.26295864423E+03  0.00000000000E+00 0.  1.
         21   -1    0    0  501  503 -0.00000000000E+00 -0.00000000000E+00 -0.22108040713E+03  0.22108040713E+03  0.00000000000E+00 0. -1.
          6    1    1    2  501    0  0.68171219541E+01 -0.16666831865E+03 -0.61104555021E+01  0.23967924245E+03  0.17200000000E+03 0. -1.
         -6    1    1    2    0  502 -0.68171219541E+01  0.16666831865E+03  0.47988692605E+02  0.24435980891E+03  0.17200000000E+03 0.  1.
<mgrwt>
<rscale>  2 0.23960134E+03</rscale>
<asrwt>0</asrwt>
<pdfrwt beam="1">  1       21 0.65739661E-01 0.23960134E+03</pdfrwt>
<pdfrwt beam="2">  1       21 0.55270102E-01 0.23960134E+03</pdfrwt>
<totfact> 0.63547210E+03</totfact>
</mgrwt>
</event>
<event>
 4    1  0.1086582E+000  0.1897422E+03  0.7546771E-02  0.1158694E+00
         21   -1    0    0  501  502  0.00000000000E+00  0.00000000000E+00  0.12036263029E+03  0.12036263029E+03  0.00000000000E+00 0.  1.
         21   -1    0    0  502  503 -0.00000000000E+00 -0.00000000000E+00 -0.32382392273E+03  0.32382392273E+03  0.00000000000E+00 0. -1.
          6    1    1    2  501    0 -0.72440697560E+02  0.34211731205E+02 -0.40379831676E+02  0.19399130914E+03  0.17200000000E+03 0.  1.
         -6    1    1    2    0  503  0.72440697560E+02 -0.34211731205E+02 -0.16308146076E+03  0.25019524388E+03  0.17200000000E+03 0. -1.
<mgrwt>
<rscale>  2 0.18974219E+03</rscale>
<asrwt>0</asrwt>
<pdfrwt beam="1">  1       21 0.30090658E-01 0.18974219E+03</pdfrwt>
<pdfrwt beam="2">  1       21 0.80955980E-01 0.18974219E+03</pdfrwt>
<totfact> 0.14210651E+04</totfact>
</mgrwt>
</event>
<event>
 4    1  0.1086582E+000  0.2347719E+03  0.7546771E-02  0.1123325E+00
         21   -1    0    0  501  502  0.00000000000E+00  0.00000000000E+00  0.20243582232E+03  0.20243582232E+03  0.00000000000E+00 0. -1.
         21   -1    0    0  502  503 -0.00000000000E+00 -0.00000000000E+00 -0.36849320121E+03  0.36849320121E+03  0.00000000000E+00 0. -1.
          6    1    1    2  501    0  0.15958957064E+03  0.80634829261E+01  0.62842675300E+02  0.24303714254E+03  0.17200000000E+03 0. -1.
         -6    1    1    2    0  503 -0.15958957064E+03 -0.80634829261E+01 -0.22890005419E+03  0.32789188100E+03  0.17200000000E+03 0. -1.
<mgrwt>
<rscale>  2 0.23477191E+03</rscale>
<asrwt>0</asrwt>
<pdfrwt beam="1">  1       21 0.50608956E-01 0.23477191E+03</pdfrwt>
<pdfrwt beam="2">  1       21 0.92123300E-01 0.23477191E+03</pdfrwt>
<totfact> 0.35790445E+03</totfact>
</mgrwt>
</event>
<event>
 4    1  0.1086582E+000  0.2191268E+03  0.7546771E-02  0.1134536E+00
         21   -1    0    0  503  502  0.00000000000E+00  0.00000000000E+00  0.38617080941E+02  0.38617080941E+02  0.00000000000E+00 0. -1.
         21   -1    0    0  501  503 -0.00000000000E+00 -0.00000000000E+00 -0.12435842487E+04  0.12435842487E+04  0.00000000000E+00 0. -1.
          6    1    1    2  501    0  0.10873761918E+03 -0.81293930003E+02 -0.59473201889E+03  0.63381601997E+03  0.17200000000E+03 0.  1.
         -6    1    1    2    0  502 -0.10873761918E+03  0.81293930003E+02 -0.61023514887E+03  0.64838530967E+03  0.17200000000E+03 0.  1.
<mgrwt>
<rscale>  2 0.21912684E+03</rscale>
<asrwt>0</asrwt>
<pdfrwt beam="1">  1       21 0.96542708E-02 0.21912684E+03</pdfrwt>
<pdfrwt beam="2">  1       21 0.31089604E+00 0.21912684E+03</pdfrwt>
<totfact> 0.24710394E+03</totfact>
</mgrwt>
</event>
<event>
 4    1  0.1086582E+000  0.2036590E+03  0.7546771E-02  0.1146688E+00
         21   -1    0    0  503  502  0.00000000000E+00  0.00000000000E+00  0.11338670394E+03  0.11338670394E+03  0.00000000000E+00 0. -1.
         21   -1    0    0  501  503 -0.00000000000E+00 -0.00000000000E+00 -0.58964018629E+03  0.58964018629E+03  0.00000000000E+00 0. -1.
          6    1    1    2  501    0 -0.27945660468E+02 -0.10541351381E+03 -0.45470580406E+03  0.49823120845E+03  0.17200000000E+03 0. -1.
         -6    1    1    2    0  502  0.27945660468E+02  0.10541351381E+03 -0.21547678291E+02  0.20479568177E+03  0.17200000000E+03 0. -1.
<mgrwt>
<rscale>  2 0.20365895E+03</rscale>
<asrwt>0</asrwt>
<pdfrwt beam="1">  1       21 0.28346677E-01 0.20365895E+03</pdfrwt>
<pdfrwt beam="2">  1       21 0.14741004E+00 0.20365895E+03</pdfrwt>
<totfact> 0.36868940E+03</totfact>
</mgrwt>
</event>
<event>
 4    1  0.1086582E+000  0.1821042E+03  0.7546771E-02  0.1165782E+00
         21   -1    0    0  501  502  0.00000000000E+00  0.00000000000E+00  0.17864305635E+03  0.17864305635E+03  0.00000000000E+00 0.  1.
         21   -1    0    0  502  503 -0.00000000000E+00 -0.00000000000E+00 -0.35564785963E+03  0.35564785963E+03  0.00000000000E+00 0. -1.
          6    1    1    2  501    0 -0.45282617856E+02  0.39082322205E+02  0.96203968103E+02  0.20595423489E+03  0.17200000000E+03 0.  1.
         -6    1    1    2    0  503  0.45282617856E+02 -0.39082322205E+02 -0.27320877139E+03  0.32833668109E+03  0.17200000000E+03 0. -1.
<mgrwt>
<rscale>  2 0.18210421E+03</rscale>
<asrwt>0</asrwt>
<pdfrwt beam="1">  1       21 0.44660764E-01 0.18210421E+03</pdfrwt>
<pdfrwt beam="2">  1       21 0.88911964E-01 0.18210421E+03</pdfrwt>
<totfact> 0.52439406E+03</totfact>
</mgrwt>
</event>
<event>
 4    1  0.1086582E+000  0.1946301E+03  0.7546771E-02  0.1154350E+00
         21   -1    0    0  503  502  0.00000000000E+00  0.00000000000E+00  0.76221786552E+03  0.76221786552E+03  0.00000000000E+00 0. -1.
         21   -1    0    0  501  503 -0.00000000000E+00 -0.00000000000E+00 -0.51896253094E+02  0.51896253094E+02  0.00000000000E+00 0. -1.
          6    1    1    2  501    0 -0.71006141148E+02 -0.57052472070E+02  0.27138737871E+03  0.33396401898E+03  0.17200000000E+03 0.  1.
         -6    1    1    2    0  502  0.71006141148E+02  0.57052472070E+02  0.43893423372E+03  0.48015009963E+03  0.17200000000E+03 0.  1.
<mgrwt>
<rscale>  2 0.19463005E+03</rscale>
<asrwt>0</asrwt>
<pdfrwt beam="1">  1       21 0.19055443E+00 0.19463005E+03</pdfrwt>
<pdfrwt beam="2">  1       21 0.12974066E-01 0.19463005E+03</pdfrwt>
<totfact> 0.78769289E+03</totfact>
</mgrwt>
</event>
<event>
 4    1  0.1086582E+000  0.1909260E+03  0.7546771E-02  0.1157629E+00
         21   -1    0    0  501  502  0.00000000000E+00  0.00000000000E+00  0.23610907074E+03  0.23610907074E+03  0.00000000000E+00 0.  1.
         21   -1    0    0  502  503 -0.00000000000E+00 -0.00000000000E+00 -0.17253105493E+03  0.17253105493E+03  0.00000000000E+00 0.  1.
          6    1    1    2  501    0 -0.36119444237E+02  0.74593113466E+02  0.98043505666E+02  0.21462822702E+03  0.17200000000E+03 0.  1.
         -6    1    1    2    0  503  0.36119444237E+02 -0.74593113466E+02 -0.34465489850E+02  0.19401189865E+03  0.17200000000E+03 0.  1.
<mgrwt>
<rscale>  2 0.19092602E+03</rscale>
<asrwt>0</asrwt>
<pdfrwt beam="1">  1       21 0.59027268E-01 0.19092602E+03</pdfrwt>
<pdfrwt beam="2">  1       21 0.43132764E-01 0.19092602E+03</pdfrwt>
<totfact> 0.13885441E+04</totfact>
</mgrwt>
</event>
<event>
 4    1  0.1086582E+000  0.2595405E+03  0.7546771E-02  0.1107420E+00
         21   -1    0    0  503  502  0.00000000000E+00  0.00000000000E+00  0.79114863234E+03  0.79114863234E+03  0.00000000000E+00 0.  1.
         21   -1    0    0  501  503 -0.00000000000E+00 -0.00000000000E+00 -0.90396297821E+02  0.90396297821E+02  0.00000000000E+00 0. -1.
          6    1    1    2  501    0 -0.62001521638E+02 -0.18420931919E+03  0.45662626448E+03  0.52523214617E+03  0.17200000000E+03 0.  1.
         -6    1    1    2    0  502  0.62001521638E+02  0.18420931919E+03  0.24412607003E+03  0.35631278398E+03  0.17200000000E+03 0. -1.
<mgrwt>
<rscale>  2 0.25954048E+03</rscale>
<asrwt>0</asrwt>
<pdfrwt beam="1">  1       21 0.19778714E+00 0.25954048E+03</pdfrwt>
<pdfrwt beam="2">  1       21 0.22599077E-01 0.25954048E+03</pdfrwt>
<totfact> 0.23997188E+03</totfact>
</mgrwt>
</event>
<event>
 4    1  0.1086582E+000  0.1877544E+03  0.7546771E-02  0.1160502E+00
         21   -1    0    0  501  502  0.00000000000E+00  0.00000000000E+00  0.58083552357E+03  0.58083552357E+03  0.00000000000E+00 0.  1.
         21   -1    0    0  502  503 -0.00000000000E+00 -0.00000000000E+00 -0.84892067117E+02  0.84892067117E+02  0.00000000000E+00 0. -1.
          6    1    1    2  501    0 -0.70894409300E+02 -0.25331898624E+02  0.42569596417E+03  0.46526205118E+03  0.17200000000E+03 0.  1.
         -6    1    1    2    0  503  0.70894409300E+02  0.25331898624E+02  0.70247492284E+02  0.20046553951E+03  0.17200000000E+03 0. -1.
<mgrwt>
<rscale>  2 0.18775442E+03</rscale>
<asrwt>0</asrwt>
<pdfrwt beam="1">  1       21 0.14520887E+00 0.18775442E+03</pdfrwt>
<pdfrwt beam="2">  1       21 0.21223018E-01 0.18775442E+03</pdfrwt>
<totfact> 0.67483087E+03</totfact>
</mgrwt>
</event>
<event>
 4    1  0.1086582E+000  0.1813112E+03  0.7546771E-02  0.1166540E+00
         21   -1    0    0  503  502  0.00000000000E+00  0.00000000000E+00  0.97291222624E+02  0.97291222624E+02  0.00000000000E+00 0.  1.
         21   -1    0    0  501  503 -0.00000000000E+00 -0.00000000000E+00 -0.51352804165E+03  0.51352804165E+03  0.00000000000E+00 0.  1.
          6    1    1    2  501    0  0.47563050592E+02  0.32054870846E+02 -0.38672998203E+03  0.42712274293E+03  0.17200000000E+03 0.  1.
         -6    1    1    2    0  502 -0.47563050592E+02 -0.32054870846E+02 -0.29506837004E+02  0.18369652135E+03  0.17200000000E+03 0.  1.
<mgrwt>
<rscale>  2 0.18131122E+03</rscale>
<asrwt>0</asrwt>
<pdfrwt beam="1">  1       21 0.24322806E-01 0.18131122E+03</pdfrwt>
<pdfrwt beam="2">  1       21 0.12838201E+00 0.18131122E+03</pdfrwt>
<totfact> 0.71836817E+03</totfact>
</mgrwt>
</event>
<event>
 4    1  0.1086582E+000  0.2004232E+03  0.7546771E-02  0.1149382E+00
         21   -1    0    0  501  502  0.00000000000E+00  0.00000000000E+00  0.13731303746E+03  0.13731303746E+03  0.00000000000E+00 0.  1.
         21   -1    0    0  502  503 -0.00000000000E+00 -0.00000000000E+00 -0.58839788198E+03  0.58839788198E+03  0.00000000000E+00 0.  1.
          6    1    1    2  501    0  0.29432305292E+02 -0.98586080464E+02  0.31757770701E+02  0.20292370945E+03  0.17200000000E+03 0.  1.
         -6    1    1    2    0  503 -0.29432305292E+02  0.98586080464E+02 -0.48284261522E+03  0.52278720999E+03  0.17200000000E+03 0.  1.
<mgrwt>
<rscale>  2 0.20042324E+03</rscale>
<asrwt>0</asrwt>
<pdfrwt beam="1">  1       21 0.34328260E-01 0.20042324E+03</pdfrwt>
<pdfrwt beam="2">  1       21 0.14709947E+00 0.20042324E+03</pdfrwt>
<totfact> 0.25545463E+03</totfact>
</mgrwt>
</event>
<event>
 4    1  0.1086582E+000  0.1958844E+03  0.7546771E-02  0.1153259E+00
         21   -1    0    0  503  502  0.00000000000E+00  0.00000000000E+00  0.10650052607E+04  0.10650052607E+04  0.00000000000E+00 0.  1.
         21   -1    0    0  501  503 -0.00000000000E+00 -0.00000000000E+00 -0.96896700167E+02  0.96896700167E+02  0.00000000000E+00 0. -1.
          6    1    1    2  501    0  0.93709426143E+02 -0.22926978700E+01  0.23607275030E+02  0.19730184096E+03  0.17200000000E+03 0. -1.
         -6    1    1    2    0  502 -0.93709426143E+02  0.22926978700E+01  0.94450128551E+03  0.96460011992E+03  0.17200000000E+03 0.  1.
<mgrwt>
<rscale>  2 0.19588444E+03</rscale>
<asrwt>0</asrwt>
<pdfrwt beam="1">  1       21 0.26625128E+00 0.19588444E+03</pdfrwt>
<pdfrwt beam="2">  1       21 0.24224178E-01 0.19588444E+03</pdfrwt>
<totfact> 0.85606947E+02</totfact>
</mgrwt>
</event>
<event>
 4    1  0.1086582E+000  0.2468345E+03  0.7546771E-02  0.1115322E+00
         21   -1    0    0  501  502  0.00000000000E+00  0.00000000000E+00  0.67882096585E+03  0.67882096585E+03  0.00000000000E+00 0.  1.
         21   -1    0    0  502  503 -0.00000000000E+00 -0.00000000000E+00 -0.91197976912E+02  0.91197976912E+02  0.00000000000E+00 0. -1.
          6    1    1    2  501    0  0.14002763466E+03 -0.10833068269E+03  0.24537473155E+03  0.34804602306E+03  0.17200000000E+03 0.  1.
         -6    1    1    2    0  503 -0.14002763466E+03  0.10833068269E+03  0.34224825738E+03  0.42197291970E+03  0.17200000000E+03 0.  1.
<mgrwt>
<rscale>  2 0.24683451E+03</rscale>
<asrwt>0</asrwt>
<pdfrwt beam="1">  1       21 0.16970523E+00 0.24683451E+03</pdfrwt>
<pdfrwt beam="2">  1       21 0.22799496E-01 0.24683451E+03</pdfrwt>
<totfact> 0.37006675E+03</totfact>
</mgrwt>
</event>
<event>
 4    1  0.1086582E+000  0.1969848E+03  0.7546771E-02  0.1152308E+00
         21   -1    0    0  503  502  0.00000000000E+00  0.00000000000E+00  0.16547935973E+03  0.16547935973E+03  0.00000000000E+00 0. -1.
         21   -1    0    0  501  503 -0.00000000000E+00 -0.00000000000E+00 -0.26590699455E+03  0.26590699455E+03  0.00000000000E+00 0. -1.
          6    1    1    2  501    0  0.70717257240E+02 -0.64946678468E+02 -0.12435584101E+03  0.23295359346E+03  0.17200000000E+03 0. -1.
         -6    1    1    2    0  502 -0.70717257240E+02  0.64946678468E+02  0.23928206184E+02  0.19843276082E+03  0.17200000000E+03 0. -1.
<mgrwt>
<rscale>  2 0.19698477E+03</rscale>
<asrwt>0</asrwt>
<pdfrwt beam="1">  1       21 0.41369840E-01 0.19698477E+03</pdfrwt>
<pdfrwt beam="2">  1       21 0.66476748E-01 0.19698477E+03</pdfrwt>
<totfact> 0.11642720E+04</totfact>
</mgrwt>
</event>
<event>
 4    1  0.1086582E+000  0.2260149E+03  0.7546771E-02  0.1129477E+00
         21   -1    0    0  503  502  0.00000000000E+00  0.00000000000E+00  0.38771808101E+03  0.38771808101E+03  0.00000000000E+00 0. -1.
         21   -1    0    0  501  503 -0.00000000000E+00 -0.00000000000E+00 -0.13986453373E+03  0.13986453373E+03  0.00000000000E+00 0.  1.
          6    1    1    2  501    0 -0.80145183726E+02  0.12278227119E+03  0.18745661316E+03  0.29363705218E+03  0.17200000000E+03 0. -1.
         -6    1    1    2    0  502  0.80145183726E+02 -0.12278227119E+03  0.60396934113E+02  0.23394556257E+03  0.17200000000E+03 0. -1.
<mgrwt>
<rscale>  2 0.22601490E+03</rscale>
<asrwt>0</asrwt>
<pdfrwt beam="1">  1       21 0.96929518E-01 0.22601490E+03</pdfrwt>
<pdfrwt beam="2">  1       21 0.34966134E-01 0.22601490E+03</pdfrwt>
<totfact> 0.68026636E+03</totfact>
</mgrwt>
</event>
<event>
 4    1  0.1086582E+000  0.1724762E+03  0.7546771E-02  0.1175290E+00
         21   -1    0    0  501  502  0.00000000000E+00  0.00000000000E+00  0.34580171806E+02  0.34580171806E+02  0.00000000000E+00 0.  1.
         21   -1    0    0  502  503 -0.00000000000E+00 -0.00000000000E+00 -0.13291307353E+04  0.13291307353E+04  0.00000000000E+00 0.  1.
          6    1    1    2  501    0 -0.12717107599E+02 -0.15174099736E+01 -0.24229503313E+03  0.29741370251E+03  0.17200000000E+03 0.  1.
         -6    1    1    2    0  503  0.12717107599E+02  0.15174099736E+01 -0.10522555303E+04  0.10662972046E+04  0.17200000000E+03 0.  1.
<mgrwt>
<rscale>  2 0.17247616E+03</rscale>
<asrwt>0</asrwt>
<pdfrwt beam="1">  1       21 0.86450431E-02 0.17247616E+03</pdfrwt>
<pdfrwt beam="2">  1       21 0.33228268E+00 0.17247616E+03</pdfrwt>
<totfact> 0.23944559E+03</totfact>
</mgrwt>
</event>
<event>
 4    1  0.1086582E+000  0.2476909E+03  0.7546771E-02  0.1114773E+00
         21   -1    0    0  503  502  0.00000000000E+00  0.00000000000E+00  0.14528258852E+03  0.14528258852E+03  0.00000000000E+00 0. -1.
         21   -1    0    0  501  503 -0.00000000000E+00 -0.00000000000E+00 -0.57218093330E+03  0.57218093330E+03  0.00000000000E+00 0.  1.
          6    1    1    2  501    0  0.65111543261E+02 -0.16591341174E+03 -0.39705941877E+03  0.46798178949E+03  0.17200000000E+03 0.  1.
         -6    1    1    2    0  502 -0.65111543261E+02  0.16591341174E+03 -0.29838926013E+02  0.24948173233E+03  0.17200000000E+03 0. -1.
<mgrwt>
<rscale>  2 0.24769088E+03</rscale>
<asrwt>0</asrwt>
<pdfrwt beam="1">  1       21 0.36320647E-01 0.24769088E+03</pdfrwt>
<pdfrwt beam="2">  1       21 0.14304523E+00 0.24769088E+03</pdfrwt>
<totfact> 0.23628899E+03</totfact>
</mgrwt>
</event>
<event>
 4    1  0.1086582E+000  0.1868197E+03  0.7546771E-02  0.1161361E+00
         21   -1    0    0  503  502  0.00000000000E+00  0.00000000000E+00  0.44919217175E+02  0.44919217175E+02  0.00000000000E+00 0. -1.
         21   -1    0    0  501  503 -0.00000000000E+00 -0.00000000000E+00 -0.78734057801E+03  0.78734057801E+03  0.00000000000E+00 0. -1.
          6    1    1    2  501    0 -0.62236360522E+02  0.38003019345E+02 -0.41893260221E+03  0.45870046790E+03  0.17200000000E+03 0. -1.
         -6    1    1    2    0  502  0.62236360522E+02 -0.38003019345E+02 -0.32348875862E+03  0.37355932729E+03  0.17200000000E+03 0. -1.
<mgrwt>
<rscale>  2 0.18681968E+03</rscale>
<asrwt>0</asrwt>
<pdfrwt beam="1">  1       21 0.11229804E-01 0.18681968E+03</pdfrwt>
<pdfrwt beam="2">  1       21 0.19683514E+00 0.18681968E+03</pdfrwt>
<totfact> 0.93424302E+03</totfact>
</mgrwt>
</event>
<event>
 4    1  0.1086582E+000  0.2385354E+03  0.7546771E-02  0.1120772E+00
         21   -1    0    0  503  502  0.00000000000E+00  0.00000000000E+00  0.38924233303E+02  0.38924233303E+02  0.00000000000E+00 0.  1.
         21   -1    0    0  501  503 -0.00000000000E+00 -0.00000000000E+00 -0.16907778087E+04  0.16907778087E+04  0.00000000000E+00 0.  1.
          6    1    1    2  501    0  0.16479844669E+03  0.12514274406E+02 -0.11442015937E+04  0.11688012757E+04  0.17200000000E+03 0.  1.
         -6    1    1    2    0  502 -0.16479844669E+03 -0.12514274406E+02 -0.50765198167E+03  0.56090076626E+03  0.17200000000E+03 0.  1.
<mgrwt>
<rscale>  2 0.23853540E+03</rscale>
<asrwt>0</asrwt>
<pdfrwt beam="1">  1       21 0.97310588E-02 0.23853540E+03</pdfrwt>
<pdfrwt beam="2">  1       21 0.42269443E+00 0.23853540E+03</pdfrwt>
<totfact> 0.49825569E+02</totfact>
</mgrwt>
</event>
<event>
 4    1  0.1086582E+000  0.2006700E+03  0.7546771E-02  0.1149175E+00
         21   -1    0    0  501  502  0.00000000000E+00  0.00000000000E+00  0.16912853387E+03  0.16912853387E+03  0.00000000000E+00 0.  1.
         21   -1    0    0  502  503 -0.00000000000E+00 -0.00000000000E+00 -0.27048698899E+03  0.27048698899E+03  0.00000000000E+00 0. -1.
          6    1    1    2  501    0 -0.21401213338E+02  0.10112593526E+03  0.25387762960E+02  0.20226963495E+03  0.17200000000E+03 0.  1.
         -6    1    1    2    0  503  0.21401213338E+02 -0.10112593526E+03 -0.12674621808E+03  0.23734588792E+03  0.17200000000E+03 0.  1.
<mgrwt>
<rscale>  2 0.20067004E+03</rscale>
<asrwt>0</asrwt>
<pdfrwt beam="1">  1       21 0.42282134E-01 0.20067004E+03</pdfrwt>
<pdfrwt beam="2">  1       21 0.67621746E-01 0.20067004E+03</pdfrwt>
<totfact> 0.10701613E+04</totfact>
</mgrwt>
</event>
<event>
 4    1  0.1086582E+000  0.1744906E+03  0.7546771E-02  0.1173244E+00
         21   -1    0    0  503  502  0.00000000000E+00  0.00000000000E+00  0.14532334828E+03  0.14532334828E+03  0.00000000000E+00 0. -1.
         21   -1    0    0  501  503 -0.00000000000E+00 -0.00000000000E+00 -0.23607072205E+03  0.23607072205E+03  0.00000000000E+00 0. -1.
          6    1    1    2  501    0 -0.29073713855E+02 -0.42045824803E+01 -0.10933655452E+03  0.20591610308E+03  0.17200000000E+03 0. -1.
         -6    1    1    2    0  502  0.29073713855E+02  0.42045824803E+01  0.18589180743E+02  0.17547796725E+03  0.17200000000E+03 0. -1.
<mgrwt>
<rscale>  2 0.17449057E+03</rscale>
<asrwt>0</asrwt>
<pdfrwt beam="1">  1       21 0.36330837E-01 0.17449057E+03</pdfrwt>
<pdfrwt beam="2">  1       21 0.59017680E-01 0.17449057E+03</pdfrwt>
<totfact> 0.19831386E+04</totfact>
</mgrwt>
</event>
<event>
 4    1  0.1086582E+000  0.2091731E+03  0.7546771E-02  0.1142222E+00
         21   -1    0    0  501  502  0.00000000000E+00  0.00000000000E+00  0.47841801507E+03  0.47841801507E+03  0.00000000000E+00 0. -1.
         21   -1    0    0  502  503 -0.00000000000E+00 -0.00000000000E+00 -0.18953343703E+03  0.18953343703E+03  0.00000000000E+00 0. -1.
          6    1    1    2  501    0  0.10250221185E+03 -0.60520220662E+02  0.38469053636E+03  0.43788150145E+03  0.17200000000E+03 0. -1.
         -6    1    1    2    0  503 -0.10250221185E+03  0.60520220662E+02 -0.95805958315E+02  0.23006995065E+03  0.17200000000E+03 0. -1.
<mgrwt>
<rscale>  2 0.20917314E+03</rscale>
<asrwt>0</asrwt>
<pdfrwt beam="1">  1       21 0.11960450E+00 0.20917314E+03</pdfrwt>
<pdfrwt beam="2">  1       21 0.47383360E-01 0.20917314E+03</pdfrwt>
<totfact> 0.22352003E+03</totfact>
</mgrwt>
</event>
<event>
 4    1  0.1086582E+000  0.1874029E+03  0.7546771E-02  0.1160825E+00
         21   -1    0    0  501  502  0.00000000000E+00  0.00000000000E+00  0.10379477876E+04  0.10379477876E+04  0.00000000000E+00 0. -1.
         21   -1    0    0  502  503 -0.00000000000E+00 -0.00000000000E+00 -0.98336290173E+02  0.98336290173E+02  0.00000000000E+00 0. -1.
          6    1    1    2  501    0 -0.65090392277E+02  0.36043057949E+02  0.92993654808E+03  0.94863156423E+03  0.17200000000E+03 0. -1.
         -6    1    1    2    0  503  0.65090392277E+02 -0.36043057949E+02  0.96749493399E+01  0.18765251354E+03  0.17200000000E+03 0. -1.
<mgrwt>
<rscale>  2 0.18740294E+03</rscale>
<asrwt>0</asrwt>
<pdfrwt beam="1">  1       21 0.25948691E+00 0.18740294E+03</pdfrwt>
<pdfrwt beam="2">  1       21 0.24584076E-01 0.18740294E+03</pdfrwt>
<totfact> 0.92128984E+02</totfact>
</mgrwt>
</event>
<event>
 4    1  0.1086582E+000  0.2123445E+03  0.7546771E-02  0.1139723E+00
         21   -1    0    0  503  502  0.00000000000E+00  0.00000000000E+00  0.66589905368E+03  0.66589905368E+03  0.00000000000E+00 0. -1.
         21   -1    0    0  501  503 -0.00000000000E+00 -0.00000000000E+00 -0.11344429864E+03  0.11344429864E+03  0.00000000000E+00 0.  1.
          6    1    1    2  501    0  0.11660619994E+03 -0.43694362830E+02  0.28819808601E+02  0.21429135441E+03  0.17200000000E+03 0.  1.
         -6    1    1    2    0  502 -0.11660619994E+03  0.43694362830E+02  0.52363494644E+03  0.56505199791E+03  0.17200000000E+03 0. -1.
<mgrwt>
<rscale>  2 0.21234454E+03</rscale>
<asrwt>0</asrwt>
<pdfrwt beam="1">  1       21 0.16647475E+00 0.21234454E+03</pdfrwt>
<pdfrwt beam="2">  1       21 0.28361077E-01 0.21234454E+03</pdfrwt>
<totfact> 0.26377310E+03</totfact>
</mgrwt>
</event>
<event>
 4    1  0.1086582E+000  0.2075165E+03  0.7546771E-02  0.1143548E+00
         21   -1    0    0  501  502  0.00000000000E+00  0.00000000000E+00  0.18203581967E+03  0.18203581967E+03  0.00000000000E+00 0. -1.
         21   -1    0    0  502  503 -0.00000000000E+00 -0.00000000000E+00 -0.33196891460E+03  0.33196891460E+03  0.00000000000E+00 0. -1.
          6    1    1    2  501    0  0.94636709501E+02  0.67253103619E+02  0.62809659510E+02  0.21681360672E+03  0.17200000000E+03 0. -1.
         -6    1    1    2    0  503 -0.94636709501E+02 -0.67253103619E+02 -0.21274275443E+03  0.29719112755E+03  0.17200000000E+03 0. -1.
<mgrwt>
<rscale>  2 0.20751647E+03</rscale>
<asrwt>0</asrwt>
<pdfrwt beam="1">  1       21 0.45508955E-01 0.20751647E+03</pdfrwt>
<pdfrwt beam="2">  1       21 0.82992228E-01 0.20751647E+03</pdfrwt>
<totfact> 0.57939244E+03</totfact>
</mgrwt>
</event>
<event>
 4    1  0.1086582E+000  0.1728234E+03  0.7546771E-02  0.1174935E+00
         21   -1    0    0  501  502  0.00000000000E+00  0.00000000000E+00  0.64757624020E+03  0.64757624020E+03  0.00000000000E+00 0. -1.
         21   -1    0    0  502  503 -0.00000000000E+00 -0.00000000000E+00 -0.72603654005E+02  0.72603654005E+02  0.00000000000E+00 0. -1.
          6    1    1    2  501    0 -0.28464888249E+01 -0.16607668996E+02  0.50495620202E+03  0.53371217255E+03  0.17200000000E+03 0. -1.
         -6    1    1    2    0  503  0.28464888249E+01  0.16607668996E+02  0.70016384181E+02  0.18646772166E+03  0.17200000000E+03 0. -1.
<mgrwt>
<rscale>  2 0.17282337E+03</rscale>
<asrwt>0</asrwt>
<pdfrwt beam="1">  1       21 0.16189404E+00 0.17282337E+03</pdfrwt>
<pdfrwt beam="2">  1       21 0.18150915E-01 0.17282337E+03</pdfrwt>
<totfact> 0.68550782E+03</totfact>
</mgrwt>
</event>
<event>
 4    1  0.1086582E+000  0.2104497E+03  0.7546771E-02  0.1141210E+00
         21   -1    0    0  503  502  0.00000000000E+00  0.00000000000E+00  0.21650105746E+03  0.21650105746E+03  0.00000000000E+00 0.  1.
         21   -1    0    0  501  503 -0.00000000000E+00 -0.00000000000E+00 -0.23271575618E+03  0.23271575618E+03  0.00000000000E+00 0.  1.
          6    1    1    2  501    0 -0.10280215761E+03 -0.64317797109E+02  0.70008558034E+02  0.22178877526E+03  0.17200000000E+03 0.  1.
         -6    1    1    2    0  502  0.10280215761E+03  0.64317797109E+02 -0.86223256752E+02  0.22742803838E+03  0.17200000000E+03 0.  1.
<mgrwt>
<rscale>  2 0.21044967E+03</rscale>
<asrwt>0</asrwt>
<pdfrwt beam="1">  1       21 0.54125264E-01 0.21044967E+03</pdfrwt>
<pdfrwt beam="2">  1       21 0.58178939E-01 0.21044967E+03</pdfrwt>
<totfact> 0.88216448E+03</totfact>
</mgrwt>
</event>
<event>
 4    1  0.1086582E+000  0.1833675E+03  0.7546771E-02  0.1164583E+00
         21   -1    0    0  503  502  0.00000000000E+00  0.00000000000E+00  0.12503957416E+03  0.12503957416E+03  0.00000000000E+00 0.  1.
         21   -1    0    0  501  503 -0.00000000000E+00 -0.00000000000E+00 -0.40148808904E+03  0.40148808904E+03  0.00000000000E+00 0.  1.
          6    1    1    2  501    0 -0.46686275990E+02 -0.43128100766E+02 -0.28951089561E+03  0.34269549182E+03  0.17200000000E+03 0.  1.
         -6    1    1    2    0  502  0.46686275990E+02  0.43128100766E+02  0.13062380721E+02  0.18383217137E+03  0.17200000000E+03 0.  1.
<mgrwt>
<rscale>  2 0.18336750E+03</rscale>
<asrwt>0</asrwt>
<pdfrwt beam="1">  1       21 0.31259894E-01 0.18336750E+03</pdfrwt>
<pdfrwt beam="2">  1       21 0.10037202E+00 0.18336750E+03</pdfrwt>
<totfact> 0.80567745E+03</totfact>
</mgrwt>
</event>
<event>
 4    1  0.1086582E+000  0.1852517E+03  0.7546771E-02  0.1162815E+00
         21   -1    0    0  503  502  0.00000000000E+00  0.00000000000E+00  0.52771893367E+03  0.52771893367E+03  0.00000000000E+00 0.  1.
         21   -1    0    0  501  503 -0.00000000000E+00 -0.00000000000E+00 -0.68500493008E+02  0.68500493008E+02  0.00000000000E+00 0.  1.
          6    1    1    2  501    0  0.37430205805E+02  0.57733522743E+02  0.16252017457E+03  0.24643657824E+03  0.17200000000E+03 0.  1.
         -6    1    1    2    0  502 -0.37430205805E+02 -0.57733522743E+02  0.29669826610E+03  0.34978284843E+03  0.17200000000E+03 0.  1.
<mgrwt>
<rscale>  2 0.18525167E+03</rscale>
<asrwt>0</asrwt>
<pdfrwt beam="1">  1       21 0.13192972E+00 0.18525167E+03</pdfrwt>
<pdfrwt beam="2">  1       21 0.17125125E-01 0.18525167E+03</pdfrwt>
<totfact> 0.12884821E+04</totfact>
</mgrwt>
</event>
<event>
 4    1  0.1086582E+000  0.1814684E+03  0.7546771E-02  0.1166389E+00
         21   -1    0    0  503  502  0.00000000000E+00  0.00000000000E+00  0.29238808665E+03  0.29238808665E+03  0.00000000000E+00 0. -1.
         21   -1    0    0  501  503 -0.00000000000E+00 -0.00000000000E+00 -0.58703239230E+03  0.58703239230E+03  0.00000000000E+00 0. -1.
          6    1    1    2  501    0  0.52276521329E+02  0.24777669095E+02 -0.54260720736E+03  0.57214801323E+03  0.17200000000E+03 0. -1.
         -6    1    1    2    0  502 -0.52276521329E+02 -0.24777669095E+02  0.24796290171E+03  0.30727246573E+03  0.17200000000E+03 0. -1.
<mgrwt>
<rscale>  2 0.18146837E+03</rscale>
<asrwt>0</asrwt>
<pdfrwt beam="1">  1       21 0.73097023E-01 0.18146837E+03</pdfrwt>
<pdfrwt beam="2">  1       21 0.14675810E+00 0.18146837E+03</pdfrwt>
<totfact> 0.53989724E+02</totfact>
</mgrwt>
</event>
<event>
 4    1  0.1086582E+000  0.2254105E+03  0.7546771E-02  0.1129912E+00
         21   -1    0    0  501  502  0.00000000000E+00  0.00000000000E+00  0.81318421258E+02  0.81318421258E+02  0.00000000000E+00 0.  1.
         21   -1    0    0  502  503 -0.00000000000E+00 -0.00000000000E+00 -0.10064120637E+04  0.10064120637E+04  0.00000000000E+00 0. -1.
          6    1    1    2  501    0  0.13804964565E+03  0.46563873417E+02 -0.12765896864E+03  0.25904963085E+03  0.17200000000E+03 0.  1.
         -6    1    1    2    0  503 -0.13804964565E+03 -0.46563873417E+02 -0.79743467376E+03  0.82868085406E+03  0.17200000000E+03 0. -1.
<mgrwt>
<rscale>  2 0.22541051E+03</rscale>
<asrwt>0</asrwt>
<pdfrwt beam="1">  1       21 0.20329605E-01 0.22541051E+03</pdfrwt>
<pdfrwt beam="2">  1       21 0.25160301E+00 0.22541051E+03</pdfrwt>
<totfact> 0.14041500E+03</totfact>
</mgrwt>
</event>
<event>
 4    1  0.1086582E+000  0.1817428E+03  0.7546771E-02  0.1166127E+00
         21   -1    0    0  503  502  0.00000000000E+00  0.00000000000E+00  0.40562247924E+03  0.40562247924E+03  0.00000000000E+00 0.  1.
         21   -1    0    0  501  503 -0.00000000000E+00 -0.00000000000E+00 -0.82110445516E+02  0.82110445516E+02  0.00000000000E+00 0.  1.
          6    1    1    2  501    0  0.25213192683E+02 -0.53016505225E+02  0.13958099617E+03  0.22915782641E+03  0.17200000000E+03 0.  1.
         -6    1    1    2    0  502 -0.25213192683E+02  0.53016505225E+02  0.18393103755E+03  0.25857509835E+03  0.17200000000E+03 0.  1.
<mgrwt>
<rscale>  2 0.18174283E+03</rscale>
<asrwt>0</asrwt>
<pdfrwt beam="1">  1       21 0.10140561E+00 0.18174283E+03</pdfrwt>
<pdfrwt beam="2">  1       21 0.20527612E-01 0.18174283E+03</pdfrwt>
<totfact> 0.17581103E+04</totfact>
</mgrwt>
</event>
<event>
 4    1  0.1086582E+000  0.2128202E+03  0.7546771E-02  0.1139352E+00
         21   -1    0    0  501  502  0.00000000000E+00  0.00000000000E+00  0.12673735887E+03  0.12673735887E+03  0.00000000000E+00 0. -1.
         21   -1    0    0  502  503 -0.00000000000E+00 -0.00000000000E+00 -0.35737336320E+03  0.35737336320E+03  0.00000000000E+00 0. -1.
          6    1    1    2  501    0  0.10925206282E+03 -0.61420236554E+02 -0.11567313183E+03  0.24222454895E+03  0.17200000000E+03 0. -1.
         -6    1    1    2    0  503 -0.10925206282E+03  0.61420236554E+02 -0.11496287250E+03  0.24188617311E+03  0.17200000000E+03 0. -1.
<mgrwt>
<rscale>  2 0.21282025E+03</rscale>
<asrwt>0</asrwt>
<pdfrwt beam="1">  1       21 0.31684340E-01 0.21282025E+03</pdfrwt>
<pdfrwt beam="2">  1       21 0.89343340E-01 0.21282025E+03</pdfrwt>
<totfact> 0.10092669E+04</totfact>
</mgrwt>
</event>
<event>
 4    1  0.1086582E+000  0.1918963E+03  0.7546771E-02  0.1156762E+00
         21   -1    0    0  503  502  0.00000000000E+00  0.00000000000E+00  0.63411561430E+03  0.63411561430E+03  0.00000000000E+00 0.  1.
         21   -1    0    0  501  503 -0.00000000000E+00 -0.00000000000E+00 -0.72895820318E+02  0.72895820318E+02  0.00000000000E+00 0.  1.
          6    1    1    2  501    0 -0.55359893253E+02 -0.64617849035E+02  0.12119485212E+03  0.22696338113E+03  0.17200000000E+03 0.  1.
         -6    1    1    2    0  502  0.55359893253E+02  0.64617849035E+02  0.44002494186E+03  0.48004805348E+03  0.17200000000E+03 0.  1.
<mgrwt>
<rscale>  2 0.19189628E+03</rscale>
<asrwt>0</asrwt>
<pdfrwt beam="1">  1       21 0.15852889E+00 0.19189628E+03</pdfrwt>
<pdfrwt beam="2">  1       21 0.18223957E-01 0.19189628E+03</pdfrwt>
<totfact> 0.70852988E+03</totfact>
</mgrwt>
</event>
<event>
 4    1  0.1086582E+000  0.2178265E+03  0.7546771E-02  0.1135514E+00
         21   -1    0    0  501  502  0.00000000000E+00  0.00000000000E+00  0.91783433276E+02  0.91783433276E+02  0.00000000000E+00 0. -1.
         21   -1    0    0  502  503 -0.00000000000E+00 -0.00000000000E+00 -0.63459060401E+03  0.63459060401E+03  0.00000000000E+00 0. -1.
          6    1    1    2  501    0  0.10115666285E+03 -0.87359620674E+02 -0.42776999304E+03  0.48003702015E+03  0.17200000000E+03 0. -1.
         -6    1    1    2    0  503 -0.10115666285E+03  0.87359620674E+02 -0.11503717769E+03  0.24633701714E+03  0.17200000000E+03 0. -1.
<mgrwt>
<rscale>  2 0.21782648E+03</rscale>
<asrwt>0</asrwt>
<pdfrwt beam="1">  1       21 0.22945858E-01 0.21782648E+03</pdfrwt>
<pdfrwt beam="2">  1       21 0.15864765E+00 0.21782648E+03</pdfrwt>
<totfact> 0.44951231E+03</totfact>
</mgrwt>
</event>
<event>
 4    1  0.1086582E+000  0.1904603E+03  0.7546771E-02  0.1158047E+00
         21   -1    0    0  501  502  0.00000000000E+00  0.00000000000E+00  0.39714255874E+02  0.39714255874E+02  0.00000000000E+00 0. -1.
         21   -1    0    0  502  503 -0.00000000000E+00 -0.00000000000E+00 -0.96023906614E+03  0.96023906614E+03  0.00000000000E+00 0. -1.
          6    1    1    2  501    0 -0.81776831670E+02 -0.19134736463E+01 -0.34984150368E+03  0.39832673683E+03  0.17200000000E+03 0. -1.
         -6    1    1    2    0  503  0.81776831670E+02  0.19134736463E+01 -0.57068330659E+03  0.60162658518E+03  0.17200000000E+03 0. -1.
<mgrwt>
<rscale>  2 0.19046026E+03</rscale>
<asrwt>0</asrwt>
<pdfrwt beam="1">  1       21 0.99285643E-02 0.19046026E+03</pdfrwt>
<pdfrwt beam="2">  1       21 0.24005976E+00 0.19046026E+03</pdfrwt>
<totfact> 0.62695827E+03</totfact>
</mgrwt>
</event>
<event>
 4    1  0.1086582E+000  0.1830725E+03  0.7546771E-02  0.1164862E+00
         21   -1    0    0  503  502  0.00000000000E+00  0.00000000000E+00  0.94163234512E+02  0.94163234512E+02  0.00000000000E+00 0. -1.
         21   -1    0    0  501  503 -0.00000000000E+00 -0.00000000000E+00 -0.38712236472E+03  0.38712236472E+03  0.00000000000E+00 0. -1.
          6    1    1    2  501    0 -0.60465184753E+02 -0.16598730835E+02 -0.21478734990E+03  0.28222183139E+03  0.17200000000E+03 0.  1.
         -6    1    1    2    0  502  0.60465184753E+02  0.16598730835E+02 -0.78171780305E+02  0.19906376784E+03  0.17200000000E+03 0.  1.
<mgrwt>
<rscale>  2 0.18307254E+03</rscale>
<asrwt>0</asrwt>
<pdfrwt beam="1">  1       21 0.23540809E-01 0.18307254E+03</pdfrwt>
<pdfrwt beam="2">  1       21 0.96780590E-01 0.18307254E+03</pdfrwt>
<totfact> 0.15156195E+04</totfact>
</mgrwt>
</event>
<event>
 4    1  0.1086582E+000  0.1847459E+03  0.7546771E-02  0.1163287E+00
         21   -1    0    0  503  502  0.00000000000E+00  0.00000000000E+00  0.59513892499E+03  0.59513892499E+03  0.00000000000E+00 0.  1.
         21   -1    0    0  501  503 -0.00000000000E+00 -0.00000000000E+00 -0.16056943453E+03  0.16056943453E+03  0.00000000000E+00 0.  1.
          6    1    1    2  501    0  0.48682684293E+02  0.46658984869E+02 -0.85667425963E+02  0.20364177491E+03  0.17200000000E+03 0.  1.
         -6    1    1    2    0  502 -0.48682684293E+02 -0.46658984869E+02  0.52023691643E+03  0.55206658460E+03  0.17200000000E+03 0.  1.
<mgrwt>
<rscale>  2 0.18474595E+03</rscale>
<asrwt>0</asrwt>
<pdfrwt beam="1">  1       21 0.14878473E+00 0.18474595E+03</pdfrwt>
<pdfrwt beam="2">  1       21 0.40142360E-01 0.18474595E+03</pdfrwt>
<totfact> 0.18404699E+03</totfact>
</mgrwt>
</event>
<event>
 4    1  0.1086582E+000  0.2636241E+03  0.7546771E-02  0.1104985E+00
         21   -1    0    0  501  502  0.00000000000E+00  0.00000000000E+00  0.16139229644E+04  0.16139229644E+04  0.00000000000E+00 0. -1.
         21   -1    0    0  502  503 -0.00000000000E+00 -0.00000000000E+00 -0.64184418163E+02  0.64184418163E+02  0.00000000000E+00 0.  1.
          6    1    1    2  501    0 -0.85442705165E+02  0.18059124174E+03  0.12562112768E+04  0.12835748613E+04  0.17200000000E+03 0. -1.
         -6    1    1    2    0  503  0.85442705165E+02 -0.18059124174E+03  0.29352726936E+03  0.39453252124E+03  0.17200000000E+03 0.  1.
<mgrwt>
<rscale>  2 0.26362407E+03</rscale>
<asrwt>0</asrwt>
<pdfrwt beam="1">  1       21 0.40348061E+00 0.26362407E+03</pdfrwt>
<pdfrwt beam="2">  1       21 0.16046110E-01 0.26362407E+03</pdfrwt>
<totfact> 0.25940182E+02</totfact>
</mgrwt>
</event>
<event>
 4    1  0.1086582E+000  0.1764853E+03  0.7546771E-02  0.1171249E+00
         21   -1    0    0  503  502  0.00000000000E+00  0.00000000000E+00  0.23236132011E+04  0.23236132011E+04  0.00000000000E+00 0.  1.
         21   -1    0    0  501  503 -0.00000000000E+00 -0.00000000000E+00 -0.31824941700E+02  0.31824941700E+02  0.00000000000E+00 0.  1.
          6    1    1    2  501    0  0.21167169860E+02  0.33391683258E+02  0.24989620450E+03  0.30593327150E+03  0.17200000000E+03 0.  1.
         -6    1    1    2    0  502 -0.21167169860E+02 -0.33391683258E+02  0.20418920549E+04  0.20495048713E+04  0.17200000000E+03 0.  1.
<mgrwt>
<rscale>  2 0.17648528E+03</rscale>
<asrwt>0</asrwt>
<pdfrwt beam="1">  1       21 0.58090273E+00 0.17648528E+03</pdfrwt>
<pdfrwt beam="2">  1       21 0.79562433E-02 0.17648528E+03</pdfrwt>
<totfact> 0.59966319E+01</totfact>
</mgrwt>
</event>
<event>
 4    1  0.1086582E+000  0.1759439E+03  0.7546771E-02  0.1171787E+00
         21   -1    0    0  503  502  0.00000000000E+00  0.00000000000E+00  0.83949547087E+03  0.83949547087E+03  0.00000000000E+00 0.  1.
         21   -1    0    0  501  503 -0.00000000000E+00 -0.00000000000E+00 -0.16142056653E+03  0.16142056653E+03  0.00000000000E+00 0.  1.
          6    1    1    2  501    0 -0.36704224858E+02  0.50057896348E+01 -0.10055744280E+03  0.20265255329E+03  0.17200000000E+03 0.  1.
         -6    1    1    2    0  502  0.36704224858E+02 -0.50057896348E+01  0.77863234714E+03  0.79826348411E+03  0.17200000000E+03 0.  1.
<mgrwt>
<rscale>  2 0.17594391E+03</rscale>
<asrwt>0</asrwt>
<pdfrwt beam="1">  1       21 0.20987386E+00 0.17594391E+03</pdfrwt>
<pdfrwt beam="2">  1       21 0.40355144E-01 0.17594391E+03</pdfrwt>
<totfact> 0.70231192E+02</totfact>
</mgrwt>
</event>
<event>
 4    1  0.1086582E+000  0.3367716E+03  0.7546771E-02  0.1068179E+00
         21   -1    0    0  503  502  0.00000000000E+00  0.00000000000E+00  0.23100367491E+03  0.23100367491E+03  0.00000000000E+00 0. -1.
         21   -1    0    0  501  503 -0.00000000000E+00 -0.00000000000E+00 -0.85708913152E+03  0.85708913152E+03  0.00000000000E+00 0.  1.
          6    1    1    2  501    0  0.14300800901E+03 -0.25175346618E+03 -0.66862176850E+03  0.74864555544E+03  0.17200000000E+03 0. -1.
         -6    1    1    2    0  502 -0.14300800901E+03  0.25175346618E+03  0.42536311887E+02  0.33944725099E+03  0.17200000000E+03 0.  1.
<mgrwt>
<rscale>  2 0.33677158E+03</rscale>
<asrwt>0</asrwt>
<pdfrwt beam="1">  1       21 0.57750919E-01 0.33677158E+03</pdfrwt>
<pdfrwt beam="2">  1       21 0.21427228E+00 0.33677158E+03</pdfrwt>
<totfact> 0.26634728E+02</totfact>
</mgrwt>
</event>
<event>
 4    1  0.1086582E+000  0.1925134E+03  0.7546771E-02  0.1156214E+00
         21   -1    0    0  503  502  0.00000000000E+00  0.00000000000E+00  0.14071335930E+03  0.14071335930E+03  0.00000000000E+00 0. -1.
         21   -1    0    0  501  503 -0.00000000000E+00 -0.00000000000E+00 -0.13313705061E+04  0.13313705061E+04  0.00000000000E+00 0. -1.
          6    1    1    2  501    0 -0.48150945747E+02  0.71825347837E+02 -0.12545576277E+04  0.12692423864E+04  0.17200000000E+03 0. -1.
         -6    1    1    2    0  502  0.48150945747E+02 -0.71825347837E+02  0.63900480873E+02  0.20284147905E+03  0.17200000000E+03 0. -1.
<mgrwt>
<rscale>  2 0.19251336E+03</rscale>
<asrwt>0</asrwt>
<pdfrwt beam="1">  1       21 0.35178340E-01 0.19251336E+03</pdfrwt>
<pdfrwt beam="2">  1       21 0.33284262E+00 0.19251336E+03</pdfrwt>
<totfact> 0.17176421E+02</totfact>
</mgrwt>
</event>
<event>
 4    1  0.1086582E+000  0.1850494E+03  0.7546771E-02  0.1163004E+00
         21   -1    0    0  503  502  0.00000000000E+00  0.00000000000E+00  0.27468900003E+03  0.27468900003E+03  0.00000000000E+00 0. -1.
         21   -1    0    0  501  503 -0.00000000000E+00 -0.00000000000E+00 -0.13523996210E+03  0.13523996210E+03  0.00000000000E+00 0. -1.
          6    1    1    2  501    0 -0.11336959503E+02 -0.67310949296E+02  0.12401862095E+02  0.18546454305E+03  0.17200000000E+03 0. -1.
         -6    1    1    2    0  502  0.11336959503E+02  0.67310949296E+02  0.12704717583E+03  0.22446441908E+03  0.17200000000E+03 0. -1.
<mgrwt>
<rscale>  2 0.18504943E+03</rscale>
<asrwt>0</asrwt>
<pdfrwt beam="1">  1       21 0.68672249E-01 0.18504943E+03</pdfrwt>
<pdfrwt beam="2">  1       21 0.33809991E-01 0.18504943E+03</pdfrwt>
<totfact> 0.16364920E+04</totfact>
</mgrwt>
</event>
<event>
 4    1  0.1086582E+000  0.1741213E+03  0.7546771E-02  0.1173617E+00
         21   -1    0    0  501  502  0.00000000000E+00  0.00000000000E+00  0.56257760093E+02  0.56257760093E+02  0.00000000000E+00 0.  1.
         21   -1    0    0  502  503 -0.00000000000E+00 -0.00000000000E+00 -0.58101752524E+03  0.58101752524E+03  0.00000000000E+00 0.  1.
          6    1    1    2  501    0 -0.98215174832E+01  0.25254066734E+02 -0.17660714618E+03  0.24800869778E+03  0.17200000000E+03 0.  1.
         -6    1    1    2    0  503  0.98215174832E+01 -0.25254066734E+02 -0.34815261896E+03  0.38926658755E+03  0.17200000000E+03 0.  1.
<mgrwt>
<rscale>  2 0.17412131E+03</rscale>
<asrwt>0</asrwt>
<pdfrwt beam="1">  1       21 0.14064441E-01 0.17412131E+03</pdfrwt>
<pdfrwt beam="2">  1       21 0.14525438E+00 0.17412131E+03</pdfrwt>
<totfact> 0.14531957E+04</totfact>
</mgrwt>
</event>
<event>
 4    1  0.1086582E+000  0.2047820E+03  0.7546771E-02  0.1145766E+00
         21   -1    0    0  503  502  0.00000000000E+00  0.00000000000E+00  0.46908189556E+03  0.46908189556E+03  0.00000000000E+00 0.  1.
         21   -1    0    0  501  503 -0.00000000000E+00 -0.00000000000E+00 -0.22623377307E+03  0.22623377307E+03  0.00000000000E+00 0.  1.
          6    1    1    2  501    0 -0.75336403054E+02 -0.81707375211E+02 -0.14895360004E+03  0.25322488771E+03  0.17200000000E+03 0.  1.
         -6    1    1    2    0  502  0.75336403054E+02  0.81707375211E+02  0.39180172254E+03  0.44209078092E+03  0.17200000000E+03 0.  1.
<mgrwt>
<rscale>  2 0.20478200E+03</rscale>
<asrwt>0</asrwt>
<pdfrwt beam="1">  1       21 0.11727047E+00 0.20478200E+03</pdfrwt>
<pdfrwt beam="2">  1       21 0.56558444E-01 0.20478200E+03</pdfrwt>
<totfact> 0.16244803E+03</totfact>
</mgrwt>
</event>
<event>
 4    1  0.1086582E+000  0.2141329E+03  0.7546771E-02  0.1138334E+00
         21   -1    0    0  503  502  0.00000000000E+00  0.00000000000E+00  0.11694638467E+03  0.11694638467E+03  0.00000000000E+00 0.  1.
         21   -1    0    0  501  503 -0.00000000000E+00 -0.00000000000E+00 -0.75802194545E+03  0.75802194545E+03  0.00000000000E+00 0.  1.
          6    1    1    2  501    0 -0.11083530909E+03  0.63122330974E+02 -0.62450358141E+03  0.66019513600E+03  0.17200000000E+03 0.  1.
         -6    1    1    2    0  502  0.11083530909E+03 -0.63122330974E+02 -0.16571979377E+02  0.21477319411E+03  0.17200000000E+03 0.  1.
<mgrwt>
<rscale>  2 0.21413289E+03</rscale>
<asrwt>0</asrwt>
<pdfrwt beam="1">  1       21 0.29236597E-01 0.21413289E+03</pdfrwt>
<pdfrwt beam="2">  1       21 0.18950548E+00 0.21413289E+03</pdfrwt>
<totfact> 0.17231548E+03</totfact>
</mgrwt>
</event>
<event>
 4    1  0.1086582E+000  0.2341818E+03  0.7546771E-02  0.1123731E+00
         21   -1    0    0  503  502  0.00000000000E+00  0.00000000000E+00  0.92329728356E+02  0.92329728356E+02  0.00000000000E+00 0. -1.
         21   -1    0    0  501  503 -0.00000000000E+00 -0.00000000000E+00 -0.59579898990E+03  0.59579898990E+03  0.00000000000E+00 0.  1.
          6    1    1    2  501    0 -0.15443926144E+03  0.37491603024E+02 -0.23267240657E+03  0.33011748598E+03  0.17200000000E+03 0.  1.
         -6    1    1    2    0  502  0.15443926144E+03 -0.37491603024E+02 -0.27079685497E+03  0.35801123227E+03  0.17200000000E+03 0. -1.
<mgrwt>
<rscale>  2 0.23418178E+03</rscale>
<asrwt>0</asrwt>
<pdfrwt beam="1">  1       21 0.23082433E-01 0.23418178E+03</pdfrwt>
<pdfrwt beam="2">  1       21 0.14894974E+00 0.23418178E+03</pdfrwt>
<totfact> 0.51961334E+03</totfact>
</mgrwt>
</event>
<event>
 4    1  0.1086582E+000  0.1808370E+03  0.7546771E-02  0.1166995E+00
         21   -1    0    0  501  502  0.00000000000E+00  0.00000000000E+00  0.25641859559E+03  0.25641859559E+03  0.00000000000E+00 0. -1.
         21   -1    0    0  502  503 -0.00000000000E+00 -0.00000000000E+00 -0.15698162680E+03  0.15698162680E+03  0.00000000000E+00 0.  1.
          6    1    1    2  501    0 -0.53604015221E+02 -0.15640507687E+02 -0.39806355718E+02  0.18516630872E+03  0.17200000000E+03 0.  1.
         -6    1    1    2    0  503  0.53604015221E+02  0.15640507687E+02  0.13924332452E+03  0.22823391367E+03  0.17200000000E+03 0.  1.
<mgrwt>
<rscale>  2 0.18083699E+03</rscale>
<asrwt>0</asrwt>
<pdfrwt beam="1">  1       21 0.64104648E-01 0.18083699E+03</pdfrwt>
<pdfrwt beam="2">  1       21 0.39245407E-01 0.18083699E+03</pdfrwt>
<totfact> 0.14167686E+04</totfact>
</mgrwt>
</event>
<event>
 4    1  0.1086582E+000  0.2082533E+03  0.7546771E-02  0.1142957E+00
         21   -1    0    0  501  502  0.00000000000E+00  0.00000000000E+00  0.14332920020E+04  0.14332920020E+04  0.00000000000E+00 0.  1.
         21   -1    0    0  502  503 -0.00000000000E+00 -0.00000000000E+00 -0.35140541866E+02  0.35140541866E+02  0.00000000000E+00 0.  1.
          6    1    1    2  501    0  0.10329240263E+03 -0.55822048114E+02  0.97273849074E+03  0.99478117839E+03  0.17200000000E+03 0.  1.
         -6    1    1    2    0  503 -0.10329240263E+03  0.55822048114E+02  0.42541296941E+03  0.47365136550E+03  0.17200000000E+03 0.  1.
<mgrwt>
<rscale>  2 0.20825326E+03</rscale>
<asrwt>0</asrwt>
<pdfrwt beam="1">  1       21 0.35832280E+00 0.20825326E+03</pdfrwt>
<pdfrwt beam="2">  1       21 0.87851403E-02 0.20825326E+03</pdfrwt>
<totfact> 0.15571874E+03</totfact>
</mgrwt>
</event>
<event>
 4    1  0.1086582E+000  0.1887681E+03  0.7546771E-02  0.1159577E+00
         21   -1    0    0  501  502  0.00000000000E+00  0.00000000000E+00  0.47795019542E+03  0.47795019542E+03  0.00000000000E+00 0. -1.
         21   -1    0    0  502  503 -0.00000000000E+00 -0.00000000000E+00 -0.13412862111E+03  0.13412862111E+03  0.00000000000E+00 0. -1.
          6    1    1    2  501    0 -0.33216711673E+01 -0.77706997379E+02  0.37587073307E+03  0.42060934241E+03  0.17200000000E+03 0. -1.
         -6    1    1    2    0  503  0.33216711673E+01  0.77706997379E+02 -0.32049158768E+02  0.19146947412E+03  0.17200000000E+03 0. -1.
<mgrwt>
<rscale>  2 0.18876814E+03</rscale>
<asrwt>0</asrwt>
<pdfrwt beam="1">  1       21 0.11948754E+00 0.18876814E+03</pdfrwt>
<pdfrwt beam="2">  1       21 0.33532156E-01 0.18876814E+03</pdfrwt>
<totfact> 0.45866285E+03</totfact>
</mgrwt>
</event>
<event>
 4    1  0.1086582E+000  0.3711357E+03  0.7546771E-02  0.1054260E+00
         21   -1    0    0  503  502  0.00000000000E+00  0.00000000000E+00  0.87224284861E+03  0.87224284861E+03  0.00000000000E+00 0.  1.
         21   -1    0    0  501  503 -0.00000000000E+00 -0.00000000000E+00 -0.15819641296E+03  0.15819641296E+03  0.00000000000E+00 0. -1.
          6    1    1    2  501    0  0.12764591886E+03 -0.30309115403E+03  0.33535934292E+03  0.50020757405E+03  0.17200000000E+03 0.  1.
         -6    1    1    2    0  502 -0.12764591886E+03  0.30309115403E+03  0.37868709272E+03  0.53023168752E+03  0.17200000000E+03 0. -1.
<mgrwt>
<rscale>  2 0.37113573E+03</rscale>
<asrwt>0</asrwt>
<pdfrwt beam="1">  1       21 0.21806070E+00 0.37113573E+03</pdfrwt>
<pdfrwt beam="2">  1       21 0.39549106E-01 0.37113573E+03</pdfrwt>
<totfact> 0.54586665E+02</totfact>
</mgrwt>
</event>
<event>
 4    1  0.1086582E+000  0.2392959E+03  0.7546771E-02  0.1120263E+00
         21   -1    0    0  503  502  0.00000000000E+00  0.00000000000E+00  0.91058405224E+02  0.91058405224E+02  0.00000000000E+00 0.  1.
         21   -1    0    0  501  503 -0.00000000000E+00 -0.00000000000E+00 -0.72994053442E+03  0.72994053442E+03  0.00000000000E+00 0.  1.
          6    1    1    2  501    0  0.11856753075E+03 -0.11670581493E+03 -0.47220259432E+03  0.52937491126E+03  0.17200000000E+03 0.  1.
         -6    1    1    2    0  502 -0.11856753075E+03  0.11670581493E+03 -0.16667953488E+03  0.29162402839E+03  0.17200000000E+03 0.  1.
<mgrwt>
<rscale>  2 0.23929586E+03</rscale>
<asrwt>0</asrwt>
<pdfrwt beam="1">  1       21 0.22764602E-01 0.23929586E+03</pdfrwt>
<pdfrwt beam="2">  1       21 0.18248513E+00 0.23929586E+03</pdfrwt>
<totfact> 0.30409105E+03</totfact>
</mgrwt>
</event>
<event>
 4    1  0.1086582E+000  0.2921876E+03  0.7546771E-02  0.1089212E+00
         21   -1    0    0  501  502  0.00000000000E+00  0.00000000000E+00  0.21320631227E+04  0.21320631227E+04  0.00000000000E+00 0.  1.
         21   -1    0    0  502  503 -0.00000000000E+00 -0.00000000000E+00 -0.43406621367E+02  0.43406621367E+02  0.00000000000E+00 0. -1.
          6    1    1    2  501    0  0.12590808216E+03 -0.19984179835E+03  0.13471361535E+04  0.13784590693E+04  0.17200000000E+03 0. -1.
         -6    1    1    2    0  503 -0.12590808216E+03  0.19984179835E+03  0.74152034776E+03  0.79701067475E+03  0.17200000000E+03 0. -1.
<mgrwt>
<rscale>  2 0.29218759E+03</rscale>
<asrwt>0</asrwt>
<pdfrwt beam="1">  1       21 0.53301543E+00 0.29218759E+03</pdfrwt>
<pdfrwt beam="2">  1       21 0.10851662E-01 0.29218759E+03</pdfrwt>
<totfact> 0.66352964E+01</totfact>
</mgrwt>
</event>
<event>
 4    1  0.1086582E+000  0.2311040E+03  0.7546771E-02  0.1125865E+00
         21   -1    0    0  503  502  0.00000000000E+00  0.00000000000E+00  0.14157530111E+03  0.14157530111E+03  0.00000000000E+00 0.  1.
         21   -1    0    0  501  503 -0.00000000000E+00 -0.00000000000E+00 -0.96651388978E+03  0.96651388978E+03  0.00000000000E+00 0. -1.
          6    1    1    2  501    0 -0.15299706320E+03  0.20420101097E+02 -0.84507885080E+03  0.87610920891E+03  0.17200000000E+03 0. -1.
         -6    1    1    2    0  502  0.15299706320E+03 -0.20420101097E+02  0.20140262129E+02  0.23197998197E+03  0.17200000000E+03 0.  1.
<mgrwt>
<rscale>  2 0.23110405E+03</rscale>
<asrwt>0</asrwt>
<pdfrwt beam="1">  1       21 0.35393826E-01 0.23110405E+03</pdfrwt>
<pdfrwt beam="2">  1       21 0.24162847E+00 0.23110405E+03</pdfrwt>
<totfact> 0.54766980E+02</totfact>
</mgrwt>
</event>
<event>
 4    1  0.1086582E+000  0.1773984E+03  0.7546771E-02  0.1170345E+00
         21   -1    0    0  501  502  0.00000000000E+00  0.00000000000E+00  0.13308861481E+04  0.13308861481E+04  0.00000000000E+00 0.  1.
         21   -1    0    0  502  503 -0.00000000000E+00 -0.00000000000E+00 -0.26496904975E+02  0.26496904975E+02  0.00000000000E+00 0. -1.
          6    1    1    2  501    0 -0.22004674689E+02 -0.37443109223E+02  0.87481396041E+03  0.89261954800E+03  0.17200000000E+03 0.  1.
         -6    1    1    2    0  503  0.22004674689E+02  0.37443109223E+02  0.42957528276E+03  0.46476350512E+03  0.17200000000E+03 0. -1.
<mgrwt>
<rscale>  2 0.17739840E+03</rscale>
<asrwt>0</asrwt>
<pdfrwt beam="1">  1       21 0.33272131E+00 0.17739840E+03</pdfrwt>
<pdfrwt beam="2">  1       21 0.66242307E-02 0.17739840E+03</pdfrwt>
<totfact> 0.37483421E+03</totfact>
</mgrwt>
</event>
<event>
 4    1  0.1086582E+000  0.1745755E+03  0.7546771E-02  0.1173159E+00
         21   -1    0    0  503  502  0.00000000000E+00  0.00000000000E+00  0.38627603191E+02  0.38627603191E+02  0.00000000000E+00 0. -1.
         21   -1    0    0  501  503 -0.00000000000E+00 -0.00000000000E+00 -0.84038783080E+03  0.84038783080E+03  0.00000000000E+00 0. -1.
          6    1    1    2  501    0 -0.29840915691E+02 -0.14624246290E+01 -0.50957722964E+03  0.53865162387E+03  0.17200000000E+03 0. -1.
         -6    1    1    2    0  502  0.29840915691E+02  0.14624246290E+01 -0.29218299797E+03  0.34036381012E+03  0.17200000000E+03 0. -1.
<mgrwt>
<rscale>  2 0.17457554E+03</rscale>
<asrwt>0</asrwt>
<pdfrwt beam="1">  1       21 0.96569011E-02 0.17457554E+03</pdfrwt>
<pdfrwt beam="2">  1       21 0.21009695E+00 0.17457554E+03</pdfrwt>
<totfact> 0.10162850E+04</totfact>
</mgrwt>
</event>
<event>
 4    1  0.1086582E+000  0.1971427E+03  0.7546771E-02  0.1152172E+00
         21   -1    0    0  501  502  0.00000000000E+00  0.00000000000E+00  0.33641603020E+03  0.33641603020E+03  0.00000000000E+00 0.  1.
         21   -1    0    0  502  503 -0.00000000000E+00 -0.00000000000E+00 -0.44830828660E+03  0.44830828660E+03  0.00000000000E+00 0.  1.
          6    1    1    2  501    0  0.77132659881E+01 -0.96029918884E+02  0.28210156455E+03  0.34416062023E+03  0.17200000000E+03 0.  1.
         -6    1    1    2    0  503 -0.77132659881E+01  0.96029918884E+02 -0.39399382095E+03  0.44056369657E+03  0.17200000000E+03 0.  1.
<mgrwt>
<rscale>  2 0.19714269E+03</rscale>
<asrwt>0</asrwt>
<pdfrwt beam="1">  1       21 0.84104008E-01 0.19714269E+03</pdfrwt>
<pdfrwt beam="2">  1       21 0.11207707E+00 0.19714269E+03</pdfrwt>
<totfact> 0.76263709E+02</totfact>
</mgrwt>
</event>
<event>
 4    1  0.1086582E+000  0.1979559E+03  0.7546771E-02  0.1151475E+00
         21   -1    0    0  503  502  0.00000000000E+00  0.00000000000E+00  0.34701533252E+03  0.34701533252E+03  0.00000000000E+00 0.  1.
         21   -1    0    0  501  503 -0.00000000000E+00 -0.00000000000E+00 -0.22031360009E+03  0.22031360009E+03  0.00000000000E+00 0.  1.
          6    1    1    2  501    0 -0.55106189132E+02  0.81030005016E+02 -0.13469430731E+03  0.23943498118E+03  0.17200000000E+03 0.  1.
         -6    1    1    2    0  502  0.55106189132E+02 -0.81030005016E+02  0.26139603974E+03  0.32789395143E+03  0.17200000000E+03 0.  1.
<mgrwt>
<rscale>  2 0.19795594E+03</rscale>
<asrwt>0</asrwt>
<pdfrwt beam="1">  1       21 0.86753832E-01 0.19795594E+03</pdfrwt>
<pdfrwt beam="2">  1       21 0.55078401E-01 0.19795594E+03</pdfrwt>
<totfact> 0.35402848E+03</totfact>
</mgrwt>
</event>
<event>
 4    1  0.1086582E+000  0.1786331E+03  0.7546771E-02  0.1169133E+00
         21   -1    0    0  501  502  0.00000000000E+00  0.00000000000E+00  0.32740360700E+03  0.32740360700E+03  0.00000000000E+00 0. -1.
         21   -1    0    0  502  503 -0.00000000000E+00 -0.00000000000E+00 -0.98779478733E+02  0.98779478733E+02  0.00000000000E+00 0. -1.
          6    1    1    2  501    0 -0.21650015613E+01 -0.48177679609E+02  0.13891123556E+03  0.22628766517E+03  0.17200000000E+03 0. -1.
         -6    1    1    2    0  503  0.21650015613E+01  0.48177679609E+02  0.89712892716E+02  0.19989542057E+03  0.17200000000E+03 0. -1.
<mgrwt>
<rscale>  2 0.17863308E+03</rscale>
<asrwt>0</asrwt>
<pdfrwt beam="1">  1       21 0.81850899E-01 0.17863308E+03</pdfrwt>
<pdfrwt beam="2">  1       21 0.24694870E-01 0.17863308E+03</pdfrwt>
<totfact> 0.20421851E+04</totfact>
</mgrwt>
</event>
<event>
 4    1  0.1086582E+000  0.1745411E+03  0.7546771E-02  0.1173193E+00
         21   -1    0    0  501  502  0.00000000000E+00  0.00000000000E+00  0.15578607179E+03  0.15578607179E+03  0.00000000000E+00 0. -1.
         21   -1    0    0  502  503 -0.00000000000E+00 -0.00000000000E+00 -0.28521415030E+03  0.28521415030E+03  0.00000000000E+00 0. -1.
          6    1    1    2  501    0 -0.13662902080E+02 -0.26342250886E+02  0.58915717850E+02  0.18421631547E+03  0.17200000000E+03 0. -1.
         -6    1    1    2    0  503  0.13662902080E+02  0.26342250886E+02 -0.18834379635E+03  0.25678390662E+03  0.17200000000E+03 0. -1.
<mgrwt>
<rscale>  2 0.17454108E+03</rscale>
<asrwt>0</asrwt>
<pdfrwt beam="1">  1       21 0.38946518E-01 0.17454108E+03</pdfrwt>
<pdfrwt beam="2">  1       21 0.71303537E-01 0.17454108E+03</pdfrwt>
<totfact> 0.11449223E+04</totfact>
</mgrwt>
</event>
<event>
 4    1  0.1086582E+000  0.2264119E+03  0.7546771E-02  0.1129191E+00
         21   -1    0    0  501  502  0.00000000000E+00  0.00000000000E+00  0.11511907388E+04  0.11511907388E+04  0.00000000000E+00 0. -1.
         21   -1    0    0  502  503 -0.00000000000E+00 -0.00000000000E+00 -0.46331512637E+02  0.46331512637E+02  0.00000000000E+00 0. -1.
          6    1    1    2  501    0 -0.45619003730E+02 -0.13999026813E+03  0.67050251418E+03  0.70769766864E+03  0.17200000000E+03 0. -1.
         -6    1    1    2    0  503  0.45619003730E+02  0.13999026813E+03  0.43435671202E+03  0.48982458284E+03  0.17200000000E+03 0. -1.
<mgrwt>
<rscale>  2 0.22641194E+03</rscale>
<asrwt>0</asrwt>
<pdfrwt beam="1">  1       21 0.28779759E+00 0.22641194E+03</pdfrwt>
<pdfrwt beam="2">  1       21 0.11582882E-01 0.22641194E+03</pdfrwt>
<totfact> 0.24140247E+03</totfact>
</mgrwt>
</event>
<event>
 4    1  0.1086582E+000  0.1988529E+03  0.7546771E-02  0.1150710E+00
         21   -1    0    0  501  502  0.00000000000E+00  0.00000000000E+00  0.59811109879E+03  0.59811109879E+03  0.00000000000E+00 0. -1.
         21   -1    0    0  502  503 -0.00000000000E+00 -0.00000000000E+00 -0.15387264435E+03  0.15387264435E+03  0.00000000000E+00 0. -1.
          6    1    1    2  501    0  0.45289643154E+01 -0.99689263933E+02  0.50607262537E+03  0.54373887392E+03  0.17200000000E+03 0. -1.
         -6    1    1    2    0  503 -0.45289643154E+01  0.99689263933E+02 -0.61834170931E+02  0.20824486922E+03  0.17200000000E+03 0. -1.
<mgrwt>
<rscale>  2 0.19885286E+03</rscale>
<asrwt>0</asrwt>
<pdfrwt beam="1">  1       21 0.14952777E+00 0.19885286E+03</pdfrwt>
<pdfrwt beam="2">  1       21 0.38468163E-01 0.19885286E+03</pdfrwt>
<totfact> 0.19523871E+03</totfact>
</mgrwt>
</event>
<event>
 4    1  0.1086582E+000  0.1749822E+03  0.7546771E-02  0.1172750E+00
         21   -1    0    0  503  502  0.00000000000E+00  0.00000000000E+00  0.67095265115E+02  0.67095265115E+02  0.00000000000E+00 0.  1.
         21   -1    0    0  501  503 -0.00000000000E+00 -0.00000000000E+00 -0.74354657399E+03  0.74354657399E+03  0.00000000000E+00 0.  1.
          6    1    1    2  501    0  0.32166820958E+02  0.22654987594E+00 -0.59013046286E+03  0.61552637546E+03  0.17200000000E+03 0.  1.
         -6    1    1    2    0  502 -0.32166820958E+02 -0.22654987594E+00 -0.86320846016E+02  0.19511546364E+03  0.17200000000E+03 0.  1.
<mgrwt>
<rscale>  2 0.17498216E+03</rscale>
<asrwt>0</asrwt>
<pdfrwt beam="1">  1       21 0.16773817E-01 0.17498216E+03</pdfrwt>
<pdfrwt beam="2">  1       21 0.18588664E+00 0.17498216E+03</pdfrwt>
<totfact> 0.53975023E+03</totfact>
</mgrwt>
</event>
<event>
 4    1  0.1086582E+000  0.1728801E+03  0.7546771E-02  0.1174877E+00
         21   -1    0    0  501  502  0.00000000000E+00  0.00000000000E+00  0.15631429518E+04  0.15631429518E+04  0.00000000000E+00 0.  1.
         21   -1    0    0  502  503 -0.00000000000E+00 -0.00000000000E+00 -0.59861283956E+02  0.59861283956E+02  0.00000000000E+00 0.  1.
          6    1    1    2  501    0  0.13184978019E+02 -0.11388384982E+02  0.14211139807E+04  0.14315908930E+04  0.17200000000E+03 0.  1.
         -6    1    1    2    0  503 -0.13184978019E+02  0.11388384982E+02  0.82167687178E+02  0.19141334273E+03  0.17200000000E+03 0.  1.
<mgrwt>
<rscale>  2 0.17288013E+03</rscale>
<asrwt>0</asrwt>
<pdfrwt beam="1">  1       21 0.39078560E+00 0.17288013E+03</pdfrwt>
<pdfrwt beam="2">  1       21 0.14965326E-01 0.17288013E+03</pdfrwt>
<totfact> 0.40513204E+02</totfact>
</mgrwt>
</event>
<event>
 4    1  0.1086582E+000  0.1722217E+03  0.7546771E-02  0.1175551E+00
         21   -1    0    0  503  502  0.00000000000E+00  0.00000000000E+00  0.75511610700E+03  0.75511610700E+03  0.00000000000E+00 0.  1.
         21   -1    0    0  501  503 -0.00000000000E+00 -0.00000000000E+00 -0.39441957035E+02  0.39441957035E+02  0.00000000000E+00 0.  1.
          6    1    1    2  501    0 -0.10306436447E+01  0.86745079603E+01  0.38336231380E+03  0.42027011904E+03  0.17200000000E+03 0. -1.
         -6    1    1    2    0  502  0.10306436447E+01 -0.86745079603E+01  0.33231183616E+03  0.37428794499E+03  0.17200000000E+03 0. -1.
<mgrwt>
<rscale>  2 0.17222169E+03</rscale>
<asrwt>0</asrwt>
<pdfrwt beam="1">  1       21 0.18877898E+00 0.17222169E+03</pdfrwt>
<pdfrwt beam="2">  1       21 0.98604917E-02 0.17222169E+03</pdfrwt>
<totfact> 0.13438374E+04</totfact>
</mgrwt>
</event>
<event>
 4    1  0.1086582E+000  0.2086964E+03  0.7546771E-02  0.1142603E+00
         21   -1    0    0  503  502  0.00000000000E+00  0.00000000000E+00  0.11480430062E+03  0.11480430062E+03  0.00000000000E+00 0. -1.
         21   -1    0    0  501  503 -0.00000000000E+00 -0.00000000000E+00 -0.42937170884E+03  0.42937170884E+03  0.00000000000E+00 0. -1.
          6    1    1    2  501    0 -0.10008581116E+03  0.62872887625E+02 -0.25012741575E+03  0.32575741542E+03  0.17200000000E+03 0. -1.
         -6    1    1    2    0  502  0.10008581116E+03 -0.62872887625E+02 -0.64439992466E+02  0.21841859404E+03  0.17200000000E+03 0. -1.
<mgrwt>
<rscale>  2 0.20869636E+03</rscale>
<asrwt>0</asrwt>
<pdfrwt beam="1">  1       21 0.28701075E-01 0.20869636E+03</pdfrwt>
<pdfrwt beam="2">  1       21 0.10734293E+00 0.20869636E+03</pdfrwt>
<totfact> 0.79526286E+03</totfact>
</mgrwt>
</event>
<event>
 4    1  0.1086582E+000  0.2043658E+03  0.7546771E-02  0.1146107E+00
         21   -1    0    0  501  502  0.00000000000E+00  0.00000000000E+00  0.25813532726E+03  0.25813532726E+03  0.00000000000E+00 0.  1.
         21   -1    0    0  502  503 -0.00000000000E+00 -0.00000000000E+00 -0.35817517965E+03  0.35817517965E+03  0.00000000000E+00 0.  1.
          6    1    1    2  501    0 -0.72675273159E+02 -0.83064422855E+02  0.17815556549E+03  0.27111768513E+03  0.17200000000E+03 0.  1.
         -6    1    1    2    0  503  0.72675273159E+02  0.83064422855E+02 -0.27819541788E+03  0.34519282178E+03  0.17200000000E+03 0.  1.
<mgrwt>
<rscale>  2 0.20436583E+03</rscale>
<asrwt>0</asrwt>
<pdfrwt beam="1">  1       21 0.64533832E-01 0.20436583E+03</pdfrwt>
<pdfrwt beam="2">  1       21 0.89543794E-01 0.20436583E+03</pdfrwt>
<totfact> 0.23292633E+03</totfact>
</mgrwt>
</event>
<event>
 4    1  0.1086582E+000  0.1753756E+03  0.7546771E-02  0.1172355E+00
         21   -1    0    0  501  502  0.00000000000E+00  0.00000000000E+00  0.11350934480E+03  0.11350934480E+03  0.00000000000E+00 0. -1.
         21   -1    0    0  502  503 -0.00000000000E+00 -0.00000000000E+00 -0.37674920871E+03  0.37674920871E+03  0.00000000000E+00 0. -1.
          6    1    1    2  501    0  0.34116961138E+02  0.29358990142E+01 -0.17262625938E+01  0.17538405436E+03  0.17200000000E+03 0. -1.
         -6    1    1    2    0  503 -0.34116961138E+02 -0.29358990142E+01 -0.26151360132E+03  0.31487449915E+03  0.17200000000E+03 0. -1.
<mgrwt>
<rscale>  2 0.17537556E+03</rscale>
<asrwt>0</asrwt>
<pdfrwt beam="1">  1       21 0.28377337E-01 0.17537556E+03</pdfrwt>
<pdfrwt beam="2">  1       21 0.94187301E-01 0.17537556E+03</pdfrwt>
<totfact> 0.11356854E+04</totfact>
</mgrwt>
</event>
<event>
 4    1  0.1086582E+000  0.2270133E+03  0.7546771E-02  0.1128760E+00
         21   -1    0    0  501  502  0.00000000000E+00  0.00000000000E+00  0.21643768179E+03  0.21643768179E+03  0.00000000000E+00 0.  1.
         21   -1    0    0  502  503 -0.00000000000E+00 -0.00000000000E+00 -0.26386609081E+03  0.26386609081E+03  0.00000000000E+00 0.  1.
          6    1    1    2  501    0 -0.14798324499E+03  0.72103910368E+01 -0.98750437994E+02  0.24756146619E+03  0.17200000000E+03 0.  1.
         -6    1    1    2    0  503  0.14798324499E+03 -0.72103910368E+01  0.51322028976E+02  0.23274230641E+03  0.17200000000E+03 0.  1.
<mgrwt>
<rscale>  2 0.22701328E+03</rscale>
<asrwt>0</asrwt>
<pdfrwt beam="1">  1       21 0.54109421E-01 0.22701328E+03</pdfrwt>
<pdfrwt beam="2">  1       21 0.65966522E-01 0.22701328E+03</pdfrwt>
<totfact> 0.66507370E+03</totfact>
</mgrwt>
</event>
<event>
 4    1  0.1086582E+000  0.2019714E+03  0.7546771E-02  0.1148086E+00
         21   -1    0    0  501  502  0.00000000000E+00  0.00000000000E+00  0.14656766127E+03  0.14656766127E+03  0.00000000000E+00 0. -1.
         21   -1    0    0  502  503 -0.00000000000E+00 -0.00000000000E+00 -0.67540166252E+03  0.67540166252E+03  0.00000000000E+00 0.  1.
          6    1    1    2  501    0  0.97799805854E+02 -0.40541957288E+02  0.50709868172E+02  0.20824010914E+03  0.17200000000E+03 0. -1.
         -6    1    1    2    0  503 -0.97799805854E+02  0.40541957288E+02 -0.57954386942E+03  0.61372921464E+03  0.17200000000E+03 0.  1.
<mgrwt>
<rscale>  2 0.20197141E+03</rscale>
<asrwt>0</asrwt>
<pdfrwt beam="1">  1       21 0.36641915E-01 0.20197141E+03</pdfrwt>
<pdfrwt beam="2">  1       21 0.16885042E+00 0.20197141E+03</pdfrwt>
<totfact> 0.15469643E+03</totfact>
</mgrwt>
</event>
<event>
 4    1  0.1086582E+000  0.1794208E+03  0.7546771E-02  0.1168365E+00
         21   -1    0    0  501  502  0.00000000000E+00  0.00000000000E+00  0.60927332625E+03  0.60927332625E+03  0.00000000000E+00 0.  1.
         21   -1    0    0  502  503 -0.00000000000E+00 -0.00000000000E+00 -0.85838729428E+02  0.85838729428E+02  0.00000000000E+00 0.  1.
          6    1    1    2  501    0  0.33741361019E+02  0.38332145398E+02  0.47722124455E+03  0.50983521756E+03  0.17200000000E+03 0.  1.
         -6    1    1    2    0  503 -0.33741361019E+02 -0.38332145398E+02  0.46213352270E+02  0.18527683812E+03  0.17200000000E+03 0.  1.
<mgrwt>
<rscale>  2 0.17942083E+03</rscale>
<asrwt>0</asrwt>
<pdfrwt beam="1">  1       21 0.15231832E+00 0.17942083E+03</pdfrwt>
<pdfrwt beam="2">  1       21 0.21459684E-01 0.17942083E+03</pdfrwt>
<totfact> 0.58716766E+03</totfact>
</mgrwt>
</event>
<event>
 4    1  0.1086582E+000  0.2978263E+03  0.7546771E-02  0.1086332E+00
         21   -1    0    0  501  502  0.00000000000E+00  0.00000000000E+00  0.95164793451E+02  0.95164793451E+02  0.00000000000E+00 0. -1.
         21   -1    0    0  502  503 -0.00000000000E+00 -0.00000000000E+00 -0.93446246024E+03  0.93446246024E+03  0.00000000000E+00 0.  1.
          6    1    1    2  501    0  0.17145185390E+03 -0.17239709052E+03 -0.44568378204E+03  0.53603593965E+03  0.17200000000E+03 0.  1.
         -6    1    1    2    0  503 -0.17145185390E+03  0.17239709052E+03 -0.39361388475E+03  0.49359131404E+03  0.17200000000E+03 0. -1.
<mgrwt>
<rscale>  2 0.29782628E+03</rscale>
<asrwt>0</asrwt>
<pdfrwt beam="1">  1       21 0.23791199E-01 0.29782628E+03</pdfrwt>
<pdfrwt beam="2">  1       21 0.23361561E+00 0.29782628E+03</pdfrwt>
<totfact> 0.12548919E+03</totfact>
</mgrwt>
</event>
<event>
 4    1  0.1086582E+000  0.2343579E+03  0.7546771E-02  0.1123610E+00
         21   -1    0    0  501  502  0.00000000000E+00  0.00000000000E+00  0.90334862057E+02  0.90334862057E+02  0.00000000000E+00 0. -1.
         21   -1    0    0  502  503 -0.00000000000E+00 -0.00000000000E+00 -0.87592688890E+03  0.87592688890E+03  0.00000000000E+00 0.  1.
          6    1    1    2  501    0 -0.11579137510E+03  0.10923358535E+03 -0.65999746409E+03  0.70037152378E+03  0.17200000000E+03 0.  1.
         -6    1    1    2    0  503  0.11579137510E+03 -0.10923358535E+03 -0.12559456275E+03  0.26589022718E+03  0.17200000000E+03 0. -1.
<mgrwt>
<rscale>  2 0.23435789E+03</rscale>
<asrwt>0</asrwt>
<pdfrwt beam="1">  1       21 0.22583716E-01 0.23435789E+03</pdfrwt>
<pdfrwt beam="2">  1       21 0.21898172E+00 0.23435789E+03</pdfrwt>
<totfact> 0.17977294E+03</totfact>
</mgrwt>
</event>
<event>
 4    1  0.1086582E+000  0.1851079E+03  0.7546771E-02  0.1162949E+00
         21   -1    0    0  503  502  0.00000000000E+00  0.00000000000E+00  0.10348873586E+03  0.10348873586E+03  0.00000000000E+00 0.  1.
         21   -1    0    0  501  503 -0.00000000000E+00 -0.00000000000E+00 -0.33485797471E+03  0.33485797471E+03  0.00000000000E+00 0.  1.
          6    1    1    2  501    0  0.68140025247E+02  0.61540812016E+01 -0.13890864254E+03  0.23143151628E+03  0.17200000000E+03 0.  1.
         -6    1    1    2    0  502 -0.68140025247E+02 -0.61540812016E+01 -0.92460596316E+02  0.20691519429E+03  0.17200000000E+03 0.  1.
<mgrwt>
<rscale>  2 0.18510790E+03</rscale>
<asrwt>0</asrwt>
<pdfrwt beam="1">  1       21 0.25872184E-01 0.18510790E+03</pdfrwt>
<pdfrwt beam="2">  1       21 0.83714493E-01 0.18510790E+03</pdfrwt>
<totfact> 0.17681996E+04</totfact>
</mgrwt>
</event>
<event>
 4    1  0.1086582E+000  0.1727407E+03  0.7546771E-02  0.1175020E+00
         21   -1    0    0  503  502  0.00000000000E+00  0.00000000000E+00  0.50424029913E+03  0.50424029913E+03  0.00000000000E+00 0. -1.
         21   -1    0    0  501  503 -0.00000000000E+00 -0.00000000000E+00 -0.61212969088E+02  0.61212969088E+02  0.00000000000E+00 0. -1.
          6    1    1    2  501    0 -0.34562274875E+01 -0.15601328730E+02  0.16994952631E+03  0.24232661525E+03  0.17200000000E+03 0.  1.
         -6    1    1    2    0  502  0.34562274875E+01  0.15601328730E+02  0.27307780373E+03  0.32312665297E+03  0.17200000000E+03 0.  1.
<mgrwt>
<rscale>  2 0.17274069E+03</rscale>
<asrwt>0</asrwt>
<pdfrwt beam="1">  1       21 0.12606006E+00 0.17274069E+03</pdfrwt>
<pdfrwt beam="2">  1       21 0.15303244E-01 0.17274069E+03</pdfrwt>
<totfact> 0.17902428E+04</totfact>
</mgrwt>
</event>
<event>
 4    1  0.1086582E+000  0.1728009E+03  0.7546771E-02  0.1174958E+00
         21   -1    0    0  503  502  0.00000000000E+00  0.00000000000E+00  0.60387929273E+02  0.60387929273E+02  0.00000000000E+00 0. -1.
         21   -1    0    0  501  503 -0.00000000000E+00 -0.00000000000E+00 -0.75774386431E+03  0.75774386431E+03  0.00000000000E+00 0. -1.
          6    1    1    2  501    0 -0.11650438835E+02 -0.11849366962E+02 -0.10755738514E+03  0.20354049062E+03  0.17200000000E+03 0. -1.
         -6    1    1    2    0  502  0.11650438835E+02  0.11849366962E+02 -0.58979854989E+03  0.61459130296E+03  0.17200000000E+03 0. -1.
<mgrwt>
<rscale>  2 0.17280087E+03</rscale>
<asrwt>0</asrwt>
<pdfrwt beam="1">  1       21 0.15096983E-01 0.17280087E+03</pdfrwt>
<pdfrwt beam="2">  1       21 0.18943596E+00 0.17280087E+03</pdfrwt>
<totfact> 0.62108074E+03</totfact>
</mgrwt>
</event>
<event>
 4    1  0.1086582E+000  0.1804900E+03  0.7546771E-02  0.1167330E+00
         21   -1    0    0  501  502  0.00000000000E+00  0.00000000000E+00  0.20852925900E+03  0.20852925900E+03  0.00000000000E+00 0.  1.
         21   -1    0    0  502  503 -0.00000000000E+00 -0.00000000000E+00 -0.15655887083E+03  0.15655887083E+03  0.00000000000E+00 0.  1.
          6    1    1    2  501    0  0.34491495490E+02 -0.42461487851E+02  0.17504539618E+02  0.18133684159E+03  0.17200000000E+03 0.  1.
         -6    1    1    2    0  503 -0.34491495490E+02  0.42461487851E+02  0.34465848553E+02  0.18375128824E+03  0.17200000000E+03 0.  1.
<mgrwt>
<rscale>  2 0.18049000E+03</rscale>
<asrwt>0</asrwt>
<pdfrwt beam="1">  1       21 0.52132315E-01 0.18049000E+03</pdfrwt>
<pdfrwt beam="2">  1       21 0.39139718E-01 0.18049000E+03</pdfrwt>
<totfact> 0.22131337E+04</totfact>
</mgrwt>
</event>
<event>
 4    1  0.1086582E+000  0.2091302E+03  0.7546771E-02  0.1142257E+00
         21   -1    0    0  501  502  0.00000000000E+00  0.00000000000E+00  0.33230007761E+03  0.33230007761E+03  0.00000000000E+00 0.  1.
         21   -1    0    0  502  503 -0.00000000000E+00 -0.00000000000E+00 -0.19917269120E+03  0.19917269120E+03  0.00000000000E+00 0.  1.
          6    1    1    2  501    0  0.21120747270E+02  0.11706991182E+03  0.22132974265E+03  0.30450337469E+03  0.17200000000E+03 0.  1.
         -6    1    1    2    0  503 -0.21120747270E+02 -0.11706991182E+03 -0.88202356240E+02  0.22696939411E+03  0.17200000000E+03 0.  1.
<mgrwt>
<rscale>  2 0.20913022E+03</rscale>
<asrwt>0</asrwt>
<pdfrwt beam="1">  1       21 0.83075019E-01 0.20913022E+03</pdfrwt>
<pdfrwt beam="2">  1       21 0.49793173E-01 0.20913022E+03</pdfrwt>
<totfact> 0.47908715E+03</totfact>
</mgrwt>
</event>
<event>
 4    1  0.1086582E+000  0.1750300E+03  0.7546771E-02  0.1172702E+00
         21   -1    0    0  501  502  0.00000000000E+00  0.00000000000E+00  0.22621554167E+03  0.22621554167E+03  0.00000000000E+00 0.  1.
         21   -1    0    0  502  503 -0.00000000000E+00 -0.00000000000E+00 -0.17432092863E+03  0.17432092863E+03  0.00000000000E+00 0.  1.
          6    1    1    2  501    0  0.54352515180E+01  0.31967885205E+02  0.12054559069E+03  0.21252465052E+03  0.17200000000E+03 0.  1.
         -6    1    1    2    0  503 -0.54352515180E+01 -0.31967885205E+02 -0.68650977651E+02  0.18801181978E+03  0.17200000000E+03 0.  1.
<mgrwt>
<rscale>  2 0.17502996E+03</rscale>
<asrwt>0</asrwt>
<pdfrwt beam="1">  1       21 0.56553885E-01 0.17502996E+03</pdfrwt>
<pdfrwt beam="2">  1       21 0.43580232E-01 0.17502996E+03</pdfrwt>
<totfact> 0.15048517E+04</totfact>
</mgrwt>
</event>
<event>
 4    1  0.1086582E+000  0.1721118E+03  0.7546771E-02  0.1175663E+00
         21   -1    0    0  501  502  0.00000000000E+00  0.00000000000E+00  0.12571594296E+03  0.12571594296E+03  0.00000000000E+00 0.  1.
         21   -1    0    0  502  503 -0.00000000000E+00 -0.00000000000E+00 -0.58252827550E+03  0.58252827550E+03  0.00000000000E+00 0.  1.
          6    1    1    2  501    0  0.29942237495E+01  0.54309145354E+01  0.44866091462E+02  0.17786350489E+03  0.17200000000E+03 0.  1.
         -6    1    1    2    0  503 -0.29942237495E+01 -0.54309145354E+01 -0.50167842401E+03  0.53038071357E+03  0.17200000000E+03 0.  1.
<mgrwt>
<rscale>  2 0.17211177E+03</rscale>
<asrwt>0</asrwt>
<pdfrwt beam="1">  1       21 0.31428986E-01 0.17211177E+03</pdfrwt>
<pdfrwt beam="2">  1       21 0.14563207E+00 0.17211177E+03</pdfrwt>
<totfact> 0.32032519E+03</totfact>
</mgrwt>
</event>
<event>
 4    1  0.1086582E+000  0.1937176E+03  0.7546771E-02  0.1155150E+00
         21   -1    0    0  501  502  0.00000000000E+00  0.00000000000E+00  0.27230365449E+03  0.27230365449E+03  0.00000000000E+00 0.  1.
         21   -1    0    0  502  503 -0.00000000000E+00 -0.00000000000E+00 -0.13934394054E+03  0.13934394054E+03  0.00000000000E+00 0.  1.
          6    1    1    2  501    0  0.83938987901E+02  0.29946040329E+02  0.88065874689E+02  0.21279595228E+03  0.17200000000E+03 0.  1.
         -6    1    1    2    0  503 -0.83938987901E+02 -0.29946040329E+02  0.44893839269E+02  0.19885164275E+03  0.17200000000E+03 0.  1.
<mgrwt>
<rscale>  2 0.19371763E+03</rscale>
<asrwt>0</asrwt>
<pdfrwt beam="1">  1       21 0.68075913E-01 0.19371763E+03</pdfrwt>
<pdfrwt beam="2">  1       21 0.34835986E-01 0.19371763E+03</pdfrwt>
<totfact> 0.15638646E+04</totfact>
</mgrwt>
</event>
<event>
 4    1  0.1086582E+000  0.2011645E+03  0.7546771E-02  0.1148760E+00
         21   -1    0    0  501  502  0.00000000000E+00  0.00000000000E+00  0.17034646296E+03  0.17034646296E+03  0.00000000000E+00 0. -1.
         21   -1    0    0  502  503 -0.00000000000E+00 -0.00000000000E+00 -0.28831510647E+03  0.28831510647E+03  0.00000000000E+00 0. -1.
          6    1    1    2  501    0 -0.36388702988E+02  0.97770255152E+02  0.37238303217E+02  0.20458213931E+03  0.17200000000E+03 0. -1.
         -6    1    1    2    0  503  0.36388702988E+02 -0.97770255152E+02 -0.15520694673E+03  0.25407943012E+03  0.17200000000E+03 0. -1.
<mgrwt>
<rscale>  2 0.20116451E+03</rscale>
<asrwt>0</asrwt>
<pdfrwt beam="1">  1       21 0.42586616E-01 0.20116451E+03</pdfrwt>
<pdfrwt beam="2">  1       21 0.72078776E-01 0.20116451E+03</pdfrwt>
<totfact> 0.91577000E+03</totfact>
</mgrwt>
</event>
<event>
 4    1  0.1086582E+000  0.1826290E+03  0.7546771E-02  0.1165283E+00
         21   -1    0    0  503  502  0.00000000000E+00  0.00000000000E+00  0.31747162674E+03  0.31747162674E+03  0.00000000000E+00 0. -1.
         21   -1    0    0  501  503 -0.00000000000E+00 -0.00000000000E+00 -0.12371028673E+03  0.12371028673E+03  0.00000000000E+00 0. -1.
          6    1    1    2  501    0  0.59168383998E+02  0.16384674349E+02  0.18253225383E+03  0.25820801480E+03  0.17200000000E+03 0. -1.
         -6    1    1    2    0  502 -0.59168383998E+02 -0.16384674349E+02  0.11229086181E+02  0.18297389867E+03  0.17200000000E+03 0. -1.
<mgrwt>
<rscale>  2 0.18262901E+03</rscale>
<asrwt>0</asrwt>
<pdfrwt beam="1">  1       21 0.79367905E-01 0.18262901E+03</pdfrwt>
<pdfrwt beam="2">  1       21 0.30927572E-01 0.18262901E+03</pdfrwt>
<totfact> 0.14151477E+04</totfact>
</mgrwt>
</event>
<event>
 4    1  0.1086582E+000  0.1760763E+03  0.7546771E-02  0.1171655E+00
         21   -1    0    0  501  502  0.00000000000E+00  0.00000000000E+00  0.82223707429E+02  0.82223707429E+02  0.00000000000E+00 0. -1.
         21   -1    0    0  502  503 -0.00000000000E+00 -0.00000000000E+00 -0.41611661025E+03  0.41611661025E+03  0.00000000000E+00 0. -1.
          6    1    1    2  501    0  0.15258578946E+02 -0.34438909625E+02 -0.24328842623E+03  0.30032003108E+03  0.17200000000E+03 0. -1.
         -6    1    1    2    0  503 -0.15258578946E+02  0.34438909625E+02 -0.90604476588E+02  0.19802028660E+03  0.17200000000E+03 0. -1.
<mgrwt>
<rscale>  2 0.17607630E+03</rscale>
<asrwt>0</asrwt>
<pdfrwt beam="1">  1       21 0.20555927E-01 0.17607630E+03</pdfrwt>
<pdfrwt beam="2">  1       21 0.10402915E+00 0.17607630E+03</pdfrwt>
<totfact> 0.16561246E+04</totfact>
</mgrwt>
</event>
<event>
 4    1  0.1086582E+000  0.1755375E+03  0.7546771E-02  0.1172193E+00
         21   -1    0    0  503  502  0.00000000000E+00  0.00000000000E+00  0.49140433821E+03  0.49140433821E+03  0.00000000000E+00 0. -1.
         21   -1    0    0  501  503 -0.00000000000E+00 -0.00000000000E+00 -0.80928332745E+02  0.80928332745E+02  0.00000000000E+00 0. -1.
          6    1    1    2  501    0  0.33605681499E+02  0.10003429362E+02  0.69442765241E+02  0.18877422513E+03  0.17200000000E+03 0. -1.
         -6    1    1    2    0  502 -0.33605681499E+02 -0.10003429362E+02  0.34103324022E+03  0.38355844583E+03  0.17200000000E+03 0. -1.
<mgrwt>
<rscale>  2 0.17553749E+03</rscale>
<asrwt>0</asrwt>
<pdfrwt beam="1">  1       21 0.12285108E+00 0.17553749E+03</pdfrwt>
<pdfrwt beam="2">  1       21 0.20232085E-01 0.17553749E+03</pdfrwt>
<totfact> 0.11393425E+04</totfact>
</mgrwt>
</event>
<event>
 4    1  0.1086582E+000  0.1961339E+03  0.7546771E-02  0.1153042E+00
         21   -1    0    0  501  502  0.00000000000E+00  0.00000000000E+00  0.48113337956E+03  0.48113337956E+03  0.00000000000E+00 0.  1.
         21   -1    0    0  502  503 -0.00000000000E+00 -0.00000000000E+00 -0.22153104767E+03  0.22153104767E+03  0.00000000000E+00 0.  1.
          6    1    1    2  501    0 -0.92820050478E+02  0.16399026959E+02  0.41066592565E+03  0.45509888194E+03  0.17200000000E+03 0.  1.
         -6    1    1    2    0  503  0.92820050478E+02 -0.16399026959E+02 -0.15106359376E+03  0.24756554529E+03  0.17200000000E+03 0.  1.
<mgrwt>
<rscale>  2 0.19613386E+03</rscale>
<asrwt>0</asrwt>
<pdfrwt beam="1">  1       21 0.12028334E+00 0.19613386E+03</pdfrwt>
<pdfrwt beam="2">  1       21 0.55382763E-01 0.19613386E+03</pdfrwt>
<totfact> 0.16084434E+03</totfact>
</mgrwt>
</event>
<event>
 4    1  0.1086582E+000  0.1797502E+03  0.7546771E-02  0.1168045E+00
         21   -1    0    0  503  502  0.00000000000E+00  0.00000000000E+00  0.54981186589E+02  0.54981186589E+02  0.00000000000E+00 0. -1.
         21   -1    0    0  501  503 -0.00000000000E+00 -0.00000000000E+00 -0.72154269962E+03  0.72154269962E+03  0.00000000000E+00 0. -1.
          6    1    1    2  501    0  0.12240075370E+02  0.50757379504E+02 -0.50052815528E+03  0.53182569066E+03  0.17200000000E+03 0. -1.
         -6    1    1    2    0  502 -0.12240075370E+02 -0.50757379504E+02 -0.16603335775E+03  0.24469819555E+03  0.17200000000E+03 0. -1.
<mgrwt>
<rscale>  2 0.17975019E+03</rscale>
<asrwt>0</asrwt>
<pdfrwt beam="1">  1       21 0.13745297E-01 0.17975019E+03</pdfrwt>
<pdfrwt beam="2">  1       21 0.18038567E+00 0.17975019E+03</pdfrwt>
<totfact> 0.84046271E+03</totfact>
</mgrwt>
</event>
<event>
 4    1  0.1086582E+000  0.2042388E+03  0.7546771E-02  0.1146211E+00
         21   -1    0    0  503  502  0.00000000000E+00  0.00000000000E+00  0.12626163536E+04  0.12626163536E+04  0.00000000000E+00 0.  1.
         21   -1    0    0  501  503 -0.00000000000E+00 -0.00000000000E+00 -0.66749500839E+02  0.66749500839E+02  0.00000000000E+00 0.  1.
          6    1    1    2  501    0  0.10261938237E+03  0.39984460964E+02  0.12556184500E+03  0.23974835072E+03  0.17200000000E+03 0.  1.
         -6    1    1    2    0  502 -0.10261938237E+03 -0.39984460964E+02  0.10703050078E+04  0.10896175037E+04  0.17200000000E+03 0.  1.
<mgrwt>
<rscale>  2 0.20423882E+03</rscale>
<asrwt>0</asrwt>
<pdfrwt beam="1">  1       21 0.31565401E+00 0.20423882E+03</pdfrwt>
<pdfrwt beam="2">  1       21 0.16687379E-01 0.20423882E+03</pdfrwt>
<totfact> 0.88112031E+02</totfact>
</mgrwt>
</event>
<event>
 4    1  0.1086582E+000  0.1890742E+03  0.7546771E-02  0.1159299E+00
         21   -1    0    0  501  502  0.00000000000E+00  0.00000000000E+00  0.13439191679E+03  0.13439191679E+03  0.00000000000E+00 0. -1.
         21   -1    0    0  502  503 -0.00000000000E+00 -0.00000000000E+00 -0.26855443299E+03  0.26855443299E+03  0.00000000000E+00 0. -1.
          6    1    1    2  501    0  0.91197677003E+01  0.77986368370E+02 -0.86707879308E+02  0.20800793290E+03  0.17200000000E+03 0. -1.
         -6    1    1    2    0  503 -0.91197677003E+01 -0.77986368370E+02 -0.47454636897E+02  0.19493841688E+03  0.17200000000E+03 0. -1.
<mgrwt>
<rscale>  2 0.18907418E+03</rscale>
<asrwt>0</asrwt>
<pdfrwt beam="1">  1       21 0.33597980E-01 0.18907418E+03</pdfrwt>
<pdfrwt beam="2">  1       21 0.67138608E-01 0.18907418E+03</pdfrwt>
<totfact> 0.17367034E+04</totfact>
</mgrwt>
</event>
<event>
 4    1  0.1086582E+000  0.2417594E+03  0.7546771E-02  0.1118626E+00
         21   -1    0    0  501  502  0.00000000000E+00  0.00000000000E+00  0.30853377307E+03  0.30853377307E+03  0.00000000000E+00 0.  1.
         21   -1    0    0  502  503 -0.00000000000E+00 -0.00000000000E+00 -0.45751756761E+03  0.45751756761E+03  0.00000000000E+00 0. -1.
          6    1    1    2  501    0 -0.85533804244E+02 -0.14679091071E+03  0.21870336479E+03  0.32600424062E+03  0.17200000000E+03 0.  1.
         -6    1    1    2    0  503  0.85533804244E+02  0.14679091071E+03 -0.36768715932E+03  0.44004710005E+03  0.17200000000E+03 0. -1.
<mgrwt>
<rscale>  2 0.24175939E+03</rscale>
<asrwt>0</asrwt>
<pdfrwt beam="1">  1       21 0.77133444E-01 0.24175939E+03</pdfrwt>
<pdfrwt beam="2">  1       21 0.11437939E+00 0.24175939E+03</pdfrwt>
<totfact> 0.84688292E+02</totfact>
</mgrwt>
</event>
<event>
 4    1  0.1086582E+000  0.2340890E+03  0.7546771E-02  0.1123794E+00
         21   -1    0    0  501  502  0.00000000000E+00  0.00000000000E+00  0.94260982343E+03  0.94260982343E+03  0.00000000000E+00 0. -1.
         21   -1    0    0  502  503 -0.00000000000E+00 -0.00000000000E+00 -0.78508534596E+02  0.78508534596E+02  0.00000000000E+00 0. -1.
          6    1    1    2  501    0 -0.15541959040E+03 -0.32533086331E+02  0.69214553806E+03  0.73065935746E+03  0.17200000000E+03 0. -1.
         -6    1    1    2    0  503  0.15541959040E+03  0.32533086331E+02  0.17195575078E+03  0.29045900057E+03  0.17200000000E+03 0. -1.
<mgrwt>
<rscale>  2 0.23408898E+03</rscale>
<asrwt>0</asrwt>
<pdfrwt beam="1">  1       21 0.23565242E+00 0.23408898E+03</pdfrwt>
<pdfrwt beam="2">  1       21 0.19627137E-01 0.23408898E+03</pdfrwt>
<totfact> 0.18520705E+03</totfact>
</mgrwt>
</event>
<event>
 4    1  0.1086582E+000  0.1794698E+03  0.7546771E-02  0.1168317E+00
         21   -1    0    0  501  502  0.00000000000E+00  0.00000000000E+00  0.97779635436E+02  0.97779635436E+02  0.00000000000E+00 0. -1.
         21   -1    0    0  502  503 -0.00000000000E+00 -0.00000000000E+00 -0.34508275519E+03  0.34508275519E+03  0.00000000000E+00 0. -1.
          6    1    1    2  501    0  0.31838599697E+02  0.40146155104E+02 -0.76458809864E+02  0.19507783012E+03  0.17200000000E+03 0.  1.
         -6    1    1    2    0  503 -0.31838599697E+02 -0.40146155104E+02 -0.17084430989E+03  0.24778456050E+03  0.17200000000E+03 0.  1.
<mgrwt>
<rscale>  2 0.17946980E+03</rscale>
<asrwt>0</asrwt>
<pdfrwt beam="1">  1       21 0.24444909E-01 0.17946980E+03</pdfrwt>
<pdfrwt beam="2">  1       21 0.86270688E-01 0.17946980E+03</pdfrwt>
<totfact> 0.18460900E+04</totfact>
</mgrwt>
</event>
<event>
 4    1  0.1086582E+000  0.1778369E+03  0.7546771E-02  0.1169913E+00
         21   -1    0    0  503  502  0.00000000000E+00  0.00000000000E+00  0.71721990173E+02  0.71721990173E+02  0.00000000000E+00 0. -1.
         21   -1    0    0  501  503 -0.00000000000E+00 -0.00000000000E+00 -0.46393987149E+03  0.46393987149E+03  0.00000000000E+00 0. -1.
          6    1    1    2  501    0  0.23867908088E+02  0.38370431648E+02 -0.25572697803E+03  0.31148395521E+03  0.17200000000E+03 0.  1.
         -6    1    1    2    0  502 -0.23867908088E+02 -0.38370431648E+02 -0.13649090329E+03  0.22417790645E+03  0.17200000000E+03 0.  1.
<mgrwt>
<rscale>  2 0.17783691E+03</rscale>
<asrwt>0</asrwt>
<pdfrwt beam="1">  1       21 0.17930498E-01 0.17783691E+03</pdfrwt>
<pdfrwt beam="2">  1       21 0.11598496E+00 0.17783691E+03</pdfrwt>
<totfact> 0.16396693E+04</totfact>
</mgrwt>
</event>
<event>
 4    1  0.1086582E+000  0.1909032E+03  0.7546771E-02  0.1157649E+00
         21   -1    0    0  503  502  0.00000000000E+00  0.00000000000E+00  0.96703952014E+02  0.96703952014E+02  0.00000000000E+00 0. -1.
         21   -1    0    0  501  503 -0.00000000000E+00 -0.00000000000E+00 -0.38004694683E+03  0.38004694683E+03  0.00000000000E+00 0. -1.
          6    1    1    2  501    0 -0.13679871813E+02  0.81687830196E+02 -0.11984937419E+03  0.22540610682E+03  0.17200000000E+03 0. -1.
         -6    1    1    2    0  502  0.13679871813E+02 -0.81687830196E+02 -0.16349362062E+03  0.25134479202E+03  0.17200000000E+03 0. -1.
<mgrwt>
<rscale>  2 0.19090322E+03</rscale>
<asrwt>0</asrwt>
<pdfrwt beam="1">  1       21 0.24175988E-01 0.19090322E+03</pdfrwt>
<pdfrwt beam="2">  1       21 0.95011736E-01 0.19090322E+03</pdfrwt>
<totfact> 0.14969765E+04</totfact>
</mgrwt>
</event>
<event>
 4    1  0.1086582E+000  0.1907809E+03  0.7546771E-02  0.1157759E+00
         21   -1    0    0  501  502  0.00000000000E+00  0.00000000000E+00  0.24151291694E+03  0.24151291694E+03  0.00000000000E+00 0.  1.
         21   -1    0    0  502  503 -0.00000000000E+00 -0.00000000000E+00 -0.21834821820E+03  0.21834821820E+03  0.00000000000E+00 0.  1.
          6    1    1    2  501    0 -0.18368420028E+02 -0.80473262396E+02  0.13955941444E+03  0.23637718793E+03  0.17200000000E+03 0.  1.
         -6    1    1    2    0  503  0.18368420028E+02  0.80473262396E+02 -0.11639471570E+03  0.22348394721E+03  0.17200000000E+03 0.  1.
<mgrwt>
<rscale>  2 0.19078088E+03</rscale>
<asrwt>0</asrwt>
<pdfrwt beam="1">  1       21 0.60378229E-01 0.19078088E+03</pdfrwt>
<pdfrwt beam="2">  1       21 0.54587055E-01 0.19078088E+03</pdfrwt>
<totfact> 0.81132381E+03</totfact>
</mgrwt>
</event>
<event>
 4    1  0.1086582E+000  0.1967549E+03  0.7546771E-02  0.1152506E+00
         21   -1    0    0  503  502  0.00000000000E+00  0.00000000000E+00  0.41876166690E+02  0.41876166690E+02  0.00000000000E+00 0. -1.
         21   -1    0    0  501  503 -0.00000000000E+00 -0.00000000000E+00 -0.10029530493E+04  0.10029530493E+04  0.00000000000E+00 0. -1.
          6    1    1    2  501    0  0.64881075710E+02  0.70135182765E+02 -0.62669330876E+03  0.65685386586E+03  0.17200000000E+03 0. -1.
         -6    1    1    2    0  502 -0.64881075710E+02 -0.70135182765E+02 -0.33438357382E+03  0.38797535010E+03  0.17200000000E+03 0. -1.
<mgrwt>
<rscale>  2 0.19675492E+03</rscale>
<asrwt>0</asrwt>
<pdfrwt beam="1">  1       21 0.10469042E-01 0.19675492E+03</pdfrwt>
<pdfrwt beam="2">  1       21 0.25073826E+00 0.19675492E+03</pdfrwt>
<totfact> 0.49049034E+03</totfact>
</mgrwt>
</event>
<event>
 4    1  0.1086582E+000  0.2405162E+03  0.7546771E-02  0.1119449E+00
         21   -1    0    0  501  502  0.00000000000E+00  0.00000000000E+00  0.40934068720E+02  0.40934068720E+02  0.00000000000E+00 0.  1.
         21   -1    0    0  502  503 -0.00000000000E+00 -0.00000000000E+00 -0.14240038961E+04  0.14240038961E+04  0.00000000000E+00 0. -1.
          6    1    1    2  501    0  0.16790728395E+03 -0.84378874991E+01 -0.62773647012E+03  0.67223591831E+03  0.17200000000E+03 0.  1.
         -6    1    1    2    0  503 -0.16790728395E+03  0.84378874991E+01 -0.75533335729E+03  0.79270204654E+03  0.17200000000E+03 0. -1.
<mgrwt>
<rscale>  2 0.24051622E+03</rscale>
<asrwt>0</asrwt>
<pdfrwt beam="1">  1       21 0.10233517E-01 0.24051622E+03</pdfrwt>
<pdfrwt beam="2">  1       21 0.35600097E+00 0.24051622E+03</pdfrwt>
<totfact> 0.11793104E+03</totfact>
</mgrwt>
</event>
<event>
 4    1  0.1086582E+000  0.1793163E+03  0.7546771E-02  0.1168466E+00
         21   -1    0    0  503  502  0.00000000000E+00  0.00000000000E+00  0.43630888265E+03  0.43630888265E+03  0.00000000000E+00 0.  1.
         21   -1    0    0  501  503 -0.00000000000E+00 -0.00000000000E+00 -0.74814014920E+02  0.74814014920E+02  0.00000000000E+00 0.  1.
          6    1    1    2  501    0 -0.58968130303E+01 -0.50354197301E+02  0.14950938118E+03  0.23346814055E+03  0.17200000000E+03 0.  1.
         -6    1    1    2    0  502  0.58968130303E+01  0.50354197301E+02  0.21198548655E+03  0.27765475702E+03  0.17200000000E+03 0.  1.
<mgrwt>
<rscale>  2 0.17931625E+03</rscale>
<asrwt>0</asrwt>
<pdfrwt beam="1">  1       21 0.10907721E+00 0.17931625E+03</pdfrwt>
<pdfrwt beam="2">  1       21 0.18703505E-01 0.17931625E+03</pdfrwt>
<totfact> 0.17581733E+04</totfact>
</mgrwt>
</event>
<event>
 4    1  0.1086582E+000  0.2024022E+03  0.7546771E-02  0.1147728E+00
         21   -1    0    0  503  502  0.00000000000E+00  0.00000000000E+00  0.27624983613E+03  0.27624983613E+03  0.00000000000E+00 0. -1.
         21   -1    0    0  501  503 -0.00000000000E+00 -0.00000000000E+00 -0.46963288792E+03  0.46963288792E+03  0.00000000000E+00 0. -1.
          6    1    1    2  501    0 -0.27997815036E+01 -0.10665284587E+03 -0.40518201728E+03  0.45292288023E+03  0.17200000000E+03 0. -1.
         -6    1    1    2    0  502  0.27997815036E+01  0.10665284587E+03  0.21179896548E+03  0.29295984382E+03  0.17200000000E+03 0. -1.
<mgrwt>
<rscale>  2 0.20240224E+03</rscale>
<asrwt>0</asrwt>
<pdfrwt beam="1">  1       21 0.69062459E-01 0.20240224E+03</pdfrwt>
<pdfrwt beam="2">  1       21 0.11740822E+00 0.20240224E+03</pdfrwt>
<totfact> 0.10534683E+03</totfact>
</mgrwt>
</event>
<event>
 4    1  0.1086582E+000  0.2274038E+03  0.7546771E-02  0.1128481E+00
         21   -1    0    0  503  502  0.00000000000E+00  0.00000000000E+00  0.13016550008E+04  0.13016550008E+04  0.00000000000E+00 0. -1.
         21   -1    0    0  501  503 -0.00000000000E+00 -0.00000000000E+00 -0.47301291728E+02  0.47301291728E+02  0.00000000000E+00 0. -1.
          6    1    1    2  501    0  0.89305904845E+02  0.11896605375E+03  0.89705439834E+03  0.92542912217E+03  0.17200000000E+03 0. -1.
         -6    1    1    2    0  502 -0.89305904845E+02 -0.11896605375E+03  0.35729931077E+03  0.42352717039E+03  0.17200000000E+03 0. -1.
<mgrwt>
<rscale>  2 0.22740375E+03</rscale>
<asrwt>0</asrwt>
<pdfrwt beam="1">  1       21 0.32541363E+00 0.22740375E+03</pdfrwt>
<pdfrwt beam="2">  1       21 0.11825327E-01 0.22740375E+03</pdfrwt>
<totfact> 0.14033952E+03</totfact>
</mgrwt>
</event>
<event>
 4    1  0.1086582E+000  0.1927536E+03  0.7546771E-02  0.1156001E+00
         21   -1    0    0  501  502  0.00000000000E+00  0.00000000000E+00  0.40779372495E+03  0.40779372495E+03  0.00000000000E+00 0.  1.
         21   -1    0    0  502  503 -0.00000000000E+00 -0.00000000000E+00 -0.96642685942E+02  0.96642685942E+02  0.00000000000E+00 0. -1.
          6    1    1    2  501    0 -0.92073408253E+01  0.86516870299E+02  0.95226024422E+02  0.21499288290E+03  0.17200000000E+03 0. -1.
         -6    1    1    2    0  503  0.92073408253E+01 -0.86516870299E+02  0.21592501459E+03  0.28944352799E+03  0.17200000000E+03 0.  1.
<mgrwt>
<rscale>  2 0.19275358E+03</rscale>
<asrwt>0</asrwt>
<pdfrwt beam="1">  1       21 0.10194843E+00 0.19275358E+03</pdfrwt>
<pdfrwt beam="2">  1       21 0.24160673E-01 0.19275358E+03</pdfrwt>
<totfact> 0.12674739E+04</totfact>
</mgrwt>
</event>
<event>
 4    1  0.1086582E+000  0.1817971E+03  0.7546771E-02  0.1166075E+00
         21   -1    0    0  501  502  0.00000000000E+00  0.00000000000E+00  0.21401713387E+03  0.21401713387E+03  0.00000000000E+00 0. -1.
         21   -1    0    0  502  503 -0.00000000000E+00 -0.00000000000E+00 -0.15564463886E+03  0.15564463886E+03  0.00000000000E+00 0.  1.
          6    1    1    2  501    0 -0.11268541663E+02  0.57785744255E+02  0.45529672384E+02  0.18741164141E+03  0.17200000000E+03 0. -1.
         -6    1    1    2    0  503  0.11268541663E+02 -0.57785744255E+02  0.12842822624E+02  0.18225013131E+03  0.17200000000E+03 0. -1.
<mgrwt>
<rscale>  2 0.18179706E+03</rscale>
<asrwt>0</asrwt>
<pdfrwt beam="1">  1       21 0.53504283E-01 0.18179706E+03</pdfrwt>
<pdfrwt beam="2">  1       21 0.38911160E-01 0.18179706E+03</pdfrwt>
<totfact> 0.21188498E+04</totfact>
</mgrwt>
</event>
<event>
 4    1  0.1086582E+000  0.2395685E+03  0.7546771E-02  0.1120081E+00
         21   -1    0    0  503  502  0.00000000000E+00  0.00000000000E+00  0.93899153300E+02  0.93899153300E+02  0.00000000000E+00 0. -1.
         21   -1    0    0  501  503 -0.00000000000E+00 -0.00000000000E+00 -0.74904144309E+03  0.74904144309E+03  0.00000000000E+00 0.  1.
          6    1    1    2  501    0  0.45071512926E+02 -0.16055417845E+03 -0.14678227412E+03  0.28095928796E+03  0.17200000000E+03 0. -1.
         -6    1    1    2    0  502 -0.45071512926E+02  0.16055417845E+03 -0.50836001568E+03  0.56198130844E+03  0.17200000000E+03 0.  1.
<mgrwt>
<rscale>  2 0.23956854E+03</rscale>
<asrwt>0</asrwt>
<pdfrwt beam="1">  1       21 0.23474789E-01 0.23956854E+03</pdfrwt>
<pdfrwt beam="2">  1       21 0.18726036E+00 0.23956854E+03</pdfrwt>
<totfact> 0.26620866E+03</totfact>
</mgrwt>
</event>
<event>
 4    1  0.1086582E+000  0.1849477E+03  0.7546771E-02  0.1163099E+00
         21   -1    0    0  503  502  0.00000000000E+00  0.00000000000E+00  0.27470369562E+02  0.27470369562E+02  0.00000000000E+00 0. -1.
         21   -1    0    0  501  503 -0.00000000000E+00 -0.00000000000E+00 -0.12526862278E+04  0.12526862278E+04  0.00000000000E+00 0. -1.
          6    1    1    2  501    0  0.19729703250E+02  0.65056924238E+02 -0.56307350139E+03  0.59266974999E+03  0.17200000000E+03 0. -1.
         -6    1    1    2    0  502 -0.19729703250E+02 -0.65056924238E+02 -0.66214235686E+03  0.68748684739E+03  0.17200000000E+03 0. -1.
<mgrwt>
<rscale>  2 0.18494773E+03</rscale>
<asrwt>0</asrwt>
<pdfrwt beam="1">  1       21 0.68675921E-02 0.18494773E+03</pdfrwt>
<pdfrwt beam="2">  1       21 0.31317157E+00 0.18494773E+03</pdfrwt>
<totfact> 0.45235527E+03</totfact>
</mgrwt>
</event>
<event>
 4    1  0.1086582E+000  0.1880441E+03  0.7546771E-02  0.1160237E+00
         21   -1    0    0  501  502  0.00000000000E+00  0.00000000000E+00  0.39587471643E+03  0.39587471643E+03  0.00000000000E+00 0.  1.
         21   -1    0    0  502  503 -0.00000000000E+00 -0.00000000000E+00 -0.21259817727E+03  0.21259817727E+03  0.00000000000E+00 0. -1.
          6    1    1    2  501    0  0.23077872956E+01 -0.75968725755E+02  0.32330834023E+03  0.37401718682E+03  0.17200000000E+03 0.  1.
         -6    1    1    2    0  503 -0.23077872956E+01  0.75968725755E+02 -0.14003180107E+03  0.23445570688E+03  0.17200000000E+03 0. -1.
<mgrwt>
<rscale>  2 0.18804407E+03</rscale>
<asrwt>0</asrwt>
<pdfrwt beam="1">  1       21 0.98968678E-01 0.18804407E+03</pdfrwt>
<pdfrwt beam="2">  1       21 0.53149545E-01 0.18804407E+03</pdfrwt>
<totfact> 0.28322325E+03</totfact>
</mgrwt>
</event>
<event>
 4    1  0.1086582E+000  0.1787697E+03  0.7546771E-02  0.1168999E+00
         21   -1    0    0  501  502  0.00000000000E+00  0.00000000000E+00  0.12986166599E+03  0.12986166599E+03  0.00000000000E+00 0. -1.
         21   -1    0    0  502  503 -0.00000000000E+00 -0.00000000000E+00 -0.33237622347E+03  0.33237622347E+03  0.00000000000E+00 0. -1.
          6    1    1    2  501    0 -0.10709674634E+02  0.47538534544E+02  0.16495957620E+02  0.17952917873E+03  0.17200000000E+03 0. -1.
         -6    1    1    2    0  503  0.10709674634E+02 -0.47538534544E+02 -0.21901051510E+03  0.28270871073E+03  0.17200000000E+03 0. -1.
<mgrwt>
<rscale>  2 0.17876971E+03</rscale>
<asrwt>0</asrwt>
<pdfrwt beam="1">  1       21 0.32465417E-01 0.17876971E+03</pdfrwt>
<pdfrwt beam="2">  1       21 0.83094055E-01 0.17876971E+03</pdfrwt>
<totfact> 0.11630245E+04</totfact>
</mgrwt>
</event>
<event>
 4    1  0.1086582E+000  0.1767507E+03  0.7546771E-02  0.1170985E+00
         21   -1    0    0  501  502  0.00000000000E+00  0.00000000000E+00  0.52371503342E+02  0.52371503342E+02  0.00000000000E+00 0.  1.
         21   -1    0    0  502  503 -0.00000000000E+00 -0.00000000000E+00 -0.89090610696E+03  0.89090610696E+03  0.00000000000E+00 0.  1.
          6    1    1    2  501    0 -0.33511048557E+02 -0.23104878760E+02 -0.14815468431E+03  0.23063095256E+03  0.17200000000E+03 0.  1.
         -6    1    1    2    0  503  0.33511048557E+02  0.23104878760E+02 -0.69037991931E+03  0.71264665774E+03  0.17200000000E+03 0.  1.
<mgrwt>
<rscale>  2 0.17675074E+03</rscale>
<asrwt>0</asrwt>
<pdfrwt beam="1">  1       21 0.13092876E-01 0.17675074E+03</pdfrwt>
<pdfrwt beam="2">  1       21 0.22272653E+00 0.17675074E+03</pdfrwt>
<totfact> 0.49366486E+03</totfact>
</mgrwt>
</event>
<event>
 4    1  0.1086582E+000  0.2329310E+03  0.7546771E-02  0.1124594E+00
         21   -1    0    0  501  502  0.00000000000E+00  0.00000000000E+00  0.11932023114E+03  0.11932023114E+03  0.00000000000E+00 0.  1.
         21   -1    0    0  502  503 -0.00000000000E+00 -0.00000000000E+00 -0.45486394573E+03  0.45486394573E+03  0.00000000000E+00 0.  1.
          6    1    1    2  501    0 -0.15167380814E+03 -0.40840085169E+02 -0.17294385997E+03  0.29011452106E+03  0.17200000000E+03 0.  1.
         -6    1    1    2    0  503  0.15167380814E+03  0.40840085169E+02 -0.16259985462E+03  0.28406965581E+03  0.17200000000E+03 0.  1.
<mgrwt>
<rscale>  2 0.23293101E+03</rscale>
<asrwt>0</asrwt>
<pdfrwt beam="1">  1       21 0.29830058E-01 0.23293101E+03</pdfrwt>
<pdfrwt beam="2">  1       21 0.11371598E+00 0.23293101E+03</pdfrwt>
<totfact> 0.63047550E+03</totfact>
</mgrwt>
</event>
<event>
 4    1  0.1086582E+000  0.1757102E+03  0.7546771E-02  0.1172020E+00
         21   -1    0    0  501  502  0.00000000000E+00  0.00000000000E+00  0.24420463672E+03  0.24420463672E+03  0.00000000000E+00 0. -1.
         21   -1    0    0  502  503 -0.00000000000E+00 -0.00000000000E+00 -0.27692505382E+03  0.27692505382E+03  0.00000000000E+00 0. -1.
          6    1    1    2  501    0  0.42406431310E+01 -0.35666576905E+02  0.17572767552E+03  0.24850413217E+03  0.17200000000E+03 0. -1.
         -6    1    1    2    0  503 -0.42406431310E+01  0.35666576905E+02 -0.20844809262E+03  0.27262555837E+03  0.17200000000E+03 0. -1.
<mgrwt>
<rscale>  2 0.17571024E+03</rscale>
<asrwt>0</asrwt>
<pdfrwt beam="1">  1       21 0.61051160E-01 0.17571024E+03</pdfrwt>
<pdfrwt beam="2">  1       21 0.69231263E-01 0.17571024E+03</pdfrwt>
<totfact> 0.48043573E+03</totfact>
</mgrwt>
</event>
<event>
 4    1  0.1086582E+000  0.2038628E+03  0.7546771E-02  0.1146520E+00
         21   -1    0    0  503  502  0.00000000000E+00  0.00000000000E+00  0.27911412393E+03  0.27911412393E+03  0.00000000000E+00 0. -1.
         21   -1    0    0  501  503 -0.00000000000E+00 -0.00000000000E+00 -0.18098220074E+03  0.18098220074E+03  0.00000000000E+00 0.  1.
          6    1    1    2  501    0  0.11962005022E+02  0.10877940669E+03 -0.47791700699E+02  0.20938981718E+03  0.17200000000E+03 0.  1.
         -6    1    1    2    0  502 -0.11962005022E+02 -0.10877940669E+03  0.14592362389E+03  0.25070650748E+03  0.17200000000E+03 0. -1.
<mgrwt>
<rscale>  2 0.20386282E+03</rscale>
<asrwt>0</asrwt>
<pdfrwt beam="1">  1       21 0.69778530E-01 0.20386282E+03</pdfrwt>
<pdfrwt beam="2">  1       21 0.45245551E-01 0.20386282E+03</pdfrwt>
<totfact> 0.86744825E+03</totfact>
</mgrwt>
</event>
<event>
 4    1  0.1086582E+000  0.1850944E+03  0.7546771E-02  0.1162962E+00
         21   -1    0    0  503  502  0.00000000000E+00  0.00000000000E+00  0.44555120972E+03  0.44555120972E+03  0.00000000000E+00 0. -1.
         21   -1    0    0  501  503 -0.00000000000E+00 -0.00000000000E+00 -0.85252986881E+02  0.85252986881E+02  0.00000000000E+00 0. -1.
          6    1    1    2  501    0  0.61254095725E+02  0.30395243464E+02  0.97041141009E+02  0.20899023450E+03  0.17200000000E+03 0. -1.
         -6    1    1    2    0  502 -0.61254095725E+02 -0.30395243464E+02  0.26325708183E+03  0.32181396210E+03  0.17200000000E+03 0. -1.
<mgrwt>
<rscale>  2 0.18509440E+03</rscale>
<asrwt>0</asrwt>
<pdfrwt beam="1">  1       21 0.11138780E+00 0.18509440E+03</pdfrwt>
<pdfrwt beam="2">  1       21 0.21313248E-01 0.18509440E+03</pdfrwt>
<totfact> 0.13048886E+04</totfact>
</mgrwt>
</event>
<event>
 4    1  0.1086582E+000  0.1882516E+03  0.7546771E-02  0.1160048E+00
         21   -1    0    0  501  502  0.00000000000E+00  0.00000000000E+00  0.26616901473E+03  0.26616901473E+03  0.00000000000E+00 0.  1.
         21   -1    0    0  502  503 -0.00000000000E+00 -0.00000000000E+00 -0.23484308882E+03  0.23484308882E+03  0.00000000000E+00 0. -1.
          6    1    1    2  501    0 -0.45624408964E+02  0.61425449041E+02  0.18051295957E+03  0.26081334524E+03  0.17200000000E+03 0.  1.
         -6    1    1    2    0  503  0.45624408964E+02 -0.61425449041E+02 -0.14918703366E+03  0.24019875831E+03  0.17200000000E+03 0. -1.
<mgrwt>
<rscale>  2 0.18825162E+03</rscale>
<asrwt>0</asrwt>
<pdfrwt beam="1">  1       21 0.66542254E-01 0.18825162E+03</pdfrwt>
<pdfrwt beam="2">  1       21 0.58710772E-01 0.18825162E+03</pdfrwt>
<totfact> 0.56407239E+03</totfact>
</mgrwt>
</event>
<event>
 4    1  0.1086582E+000  0.1740231E+03  0.7546771E-02  0.1173716E+00
         21   -1    0    0  501  502  0.00000000000E+00  0.00000000000E+00  0.16587097561E+03  0.16587097561E+03  0.00000000000E+00 0.  1.
         21   -1    0    0  502  503 -0.00000000000E+00 -0.00000000000E+00 -0.21352302353E+03  0.21352302353E+03  0.00000000000E+00 0.  1.
          6    1    1    2  501    0  0.16495083851E+02 -0.20686857616E+02  0.48392502426E+02  0.18062632189E+03  0.17200000000E+03 0.  1.
         -6    1    1    2    0  503 -0.16495083851E+02  0.20686857616E+02 -0.96044550341E+02  0.19876767725E+03  0.17200000000E+03 0.  1.
<mgrwt>
<rscale>  2 0.17402308E+03</rscale>
<asrwt>0</asrwt>
<pdfrwt beam="1">  1       21 0.41467744E-01 0.17402308E+03</pdfrwt>
<pdfrwt beam="2">  1       21 0.53380756E-01 0.17402308E+03</pdfrwt>
<totfact> 0.18816738E+04</totfact>
</mgrwt>
</event>
<event>
 4    1  0.1086582E+000  0.2200791E+03  0.7546771E-02  0.1133824E+00
         21   -1    0    0  501  502  0.00000000000E+00  0.00000000000E+00  0.16348162000E+03  0.16348162000E+03  0.00000000000E+00 0.  1.
         21   -1    0    0  502  503 -0.00000000000E+00 -0.00000000000E+00 -0.30131426662E+03  0.30131426662E+03  0.00000000000E+00 0. -1.
          6    1    1    2  501    0  0.11088754558E+03 -0.80961622384E+02 -0.38849568554E+02  0.22348181367E+03  0.17200000000E+03 0.  1.
         -6    1    1    2    0  503 -0.11088754558E+03  0.80961622384E+02 -0.98983078065E+02  0.24131407296E+03  0.17200000000E+03 0. -1.
<mgrwt>
<rscale>  2 0.22007915E+03</rscale>
<asrwt>0</asrwt>
<pdfrwt beam="1">  1       21 0.40870405E-01 0.22007915E+03</pdfrwt>
<pdfrwt beam="2">  1       21 0.75328566E-01 0.22007915E+03</pdfrwt>
<totfact> 0.89110252E+03</totfact>
</mgrwt>
</event>
<event>
 4    1  0.1086582E+000  0.1760099E+03  0.7546771E-02  0.1171722E+00
         21   -1    0    0  501  502  0.00000000000E+00  0.00000000000E+00  0.36402251897E+03  0.36402251897E+03  0.00000000000E+00 0.  1.
         21   -1    0    0  502  503 -0.00000000000E+00 -0.00000000000E+00 -0.13481960030E+03  0.13481960030E+03  0.00000000000E+00 0.  1.
          6    1    1    2  501    0 -0.77724001511E+01 -0.36538535925E+02  0.26606444640E+03  0.31901373709E+03  0.17200000000E+03 0.  1.
         -6    1    1    2    0  503  0.77724001511E+01  0.36538535925E+02 -0.36861527736E+02  0.17982838218E+03  0.17200000000E+03 0.  1.
<mgrwt>
<rscale>  2 0.17600987E+03</rscale>
<asrwt>0</asrwt>
<pdfrwt beam="1">  1       21 0.91005628E-01 0.17600987E+03</pdfrwt>
<pdfrwt beam="2">  1       21 0.33704901E-01 0.17600987E+03</pdfrwt>
<totfact> 0.87880327E+03</totfact>
</mgrwt>
</event>
<event>
 4    1  0.1086582E+000  0.1956383E+03  0.7546771E-02  0.1153472E+00
         21   -1    0    0  501  502  0.00000000000E+00  0.00000000000E+00  0.31327579175E+03  0.31327579175E+03  0.00000000000E+00 0.  1.
         21   -1    0    0  502  503 -0.00000000000E+00 -0.00000000000E+00 -0.13197195783E+03  0.13197195783E+03  0.00000000000E+00 0.  1.
          6    1    1    2  501    0  0.93211380654E+02 -0.14094953506E+01  0.15130950497E+03  0.24732350162E+03  0.17200000000E+03 0.  1.
         -6    1    1    2    0  503 -0.93211380654E+02  0.14094953506E+01  0.29994328949E+02  0.19792424796E+03  0.17200000000E+03 0.  1.
<mgrwt>
<rscale>  2 0.19563831E+03</rscale>
<asrwt>0</asrwt>
<pdfrwt beam="1">  1       21 0.78318946E-01 0.19563831E+03</pdfrwt>
<pdfrwt beam="2">  1       21 0.32992990E-01 0.19563831E+03</pdfrwt>
<totfact> 0.12735945E+04</totfact>
</mgrwt>
</event>
<event>
 4    1  0.1086582E+000  0.1751890E+03  0.7546771E-02  0.1172542E+00
         21   -1    0    0  503  502  0.00000000000E+00  0.00000000000E+00  0.11053152907E+03  0.11053152907E+03  0.00000000000E+00 0. -1.
         21   -1    0    0  501  503 -0.00000000000E+00 -0.00000000000E+00 -0.33648076470E+03  0.33648076470E+03  0.00000000000E+00 0. -1.
          6    1    1    2  501    0  0.11678725926E+02 -0.31157746497E+02 -0.20641633968E+03  0.27073770165E+03  0.17200000000E+03 0. -1.
         -6    1    1    2    0  502 -0.11678725926E+02  0.31157746497E+02 -0.19532895952E+02  0.17627459213E+03  0.17200000000E+03 0. -1.
<mgrwt>
<rscale>  2 0.17518903E+03</rscale>
<asrwt>0</asrwt>
<pdfrwt beam="1">  1       21 0.27632883E-01 0.17518903E+03</pdfrwt>
<pdfrwt beam="2">  1       21 0.84120190E-01 0.17518903E+03</pdfrwt>
<totfact> 0.15511236E+04</totfact>
</mgrwt>
</event>
<event>
 4    1  0.1086582E+000  0.2460472E+03  0.7546771E-02  0.1115829E+00
         21   -1    0    0  503  502  0.00000000000E+00  0.00000000000E+00  0.74574217441E+03  0.74574217441E+03  0.00000000000E+00 0.  1.
         21   -1    0    0  501  503 -0.00000000000E+00 -0.00000000000E+00 -0.19808248591E+03  0.19808248591E+03  0.00000000000E+00 0. -1.
          6    1    1    2  501    0 -0.17251120707E+03 -0.34569990703E+02 -0.88705647637E+02  0.26154902551E+03  0.17200000000E+03 0. -1.
         -6    1    1    2    0  502  0.17251120707E+03  0.34569990703E+02  0.63636533613E+03  0.68227563481E+03  0.17200000000E+03 0.  1.
<mgrwt>
<rscale>  2 0.24604715E+03</rscale>
<asrwt>0</asrwt>
<pdfrwt beam="1">  1       21 0.18643554E+00 0.24604715E+03</pdfrwt>
<pdfrwt beam="2">  1       21 0.49520623E-01 0.24604715E+03</pdfrwt>
<totfact> 0.60548128E+02</totfact>
</mgrwt>
</event>
<event>
 4    1  0.1086582E+000  0.1811646E+03  0.7546771E-02  0.1166681E+00
         21   -1    0    0  503  502  0.00000000000E+00  0.00000000000E+00  0.10434294410E+03  0.10434294410E+03  0.00000000000E+00 0. -1.
         21   -1    0    0  501  503 -0.00000000000E+00 -0.00000000000E+00 -0.61870502424E+03  0.61870502424E+03  0.00000000000E+00 0. -1.
          6    1    1    2  501    0 -0.14097555308E+01  0.56873622437E+02 -0.51066241395E+03  0.54184563979E+03  0.17200000000E+03 0. -1.
         -6    1    1    2    0  502  0.14097555308E+01 -0.56873622437E+02 -0.36996661824E+01  0.18120232854E+03  0.17200000000E+03 0. -1.
<mgrwt>
<rscale>  2 0.18116456E+03</rscale>
<asrwt>0</asrwt>
<pdfrwt beam="1">  1       21 0.26085736E-01 0.18116456E+03</pdfrwt>
<pdfrwt beam="2">  1       21 0.15467625E+00 0.18116456E+03</pdfrwt>
<totfact> 0.38882895E+03</totfact>
</mgrwt>
</event>
<event>
 4    1  0.1086582E+000  0.1763816E+03  0.7546771E-02  0.1171352E+00
         21   -1    0    0  503  502  0.00000000000E+00  0.00000000000E+00  0.27253515461E+03  0.27253515461E+03  0.00000000000E+00 0. -1.
         21   -1    0    0  501  503 -0.00000000000E+00 -0.00000000000E+00 -0.11974360092E+03  0.11974360092E+03  0.00000000000E+00 0. -1.
          6    1    1    2  501    0 -0.68005429016E+01  0.38473708329E+02  0.34011875703E+02  0.17963095865E+03  0.17200000000E+03 0. -1.
         -6    1    1    2    0  502  0.68005429016E+01 -0.38473708329E+02  0.11877967799E+03  0.21264779688E+03  0.17200000000E+03 0. -1.
<mgrwt>
<rscale>  2 0.17638161E+03</rscale>
<asrwt>0</asrwt>
<pdfrwt beam="1">  1       21 0.68133788E-01 0.17638161E+03</pdfrwt>
<pdfrwt beam="2">  1       21 0.29935901E-01 0.17638161E+03</pdfrwt>
<totfact> 0.21247008E+04</totfact>
</mgrwt>
</event>
<event>
 4    1  0.1086582E+000  0.1841115E+03  0.7546771E-02  0.1163882E+00
         21   -1    0    0  501  502  0.00000000000E+00  0.00000000000E+00  0.41288459175E+03  0.41288459175E+03  0.00000000000E+00 0. -1.
         21   -1    0    0  502  503 -0.00000000000E+00 -0.00000000000E+00 -0.93116061840E+02  0.93116061840E+02  0.00000000000E+00 0. -1.
          6    1    1    2  501    0 -0.53362546491E+02  0.38281793974E+02  0.72856341535E+02  0.19800278690E+03  0.17200000000E+03 0. -1.
         -6    1    1    2    0  503  0.53362546491E+02 -0.38281793974E+02  0.24691218837E+03  0.30799786669E+03  0.17200000000E+03 0. -1.
<mgrwt>
<rscale>  2 0.18411153E+03</rscale>
<asrwt>0</asrwt>
<pdfrwt beam="1">  1       21 0.10322114E+00 0.18411153E+03</pdfrwt>
<pdfrwt beam="2">  1       21 0.23279017E-01 0.18411153E+03</pdfrwt>
<totfact> 0.13280322E+04</totfact>
</mgrwt>
</event>
<event>
 4    1  0.1086582E+000  0.1930252E+03  0.7546771E-02  0.1155761E+00
         21   -1    0    0  503  502  0.00000000000E+00  0.00000000000E+00  0.54899920286E+03  0.54899920286E+03  0.00000000000E+00 0. -1.
         21   -1    0    0  501  503 -0.00000000000E+00 -0.00000000000E+00 -0.68536579538E+02  0.68536579538E+02  0.00000000000E+00 0. -1.
          6    1    1    2  501    0 -0.83029128606E+02  0.27944418375E+02  0.20970379992E+03  0.28501650902E+03  0.17200000000E+03 0.  1.
         -6    1    1    2    0  502  0.83029128606E+02 -0.27944418375E+02  0.27075882341E+03  0.33251927338E+03  0.17200000000E+03 0.  1.
<mgrwt>
<rscale>  2 0.19302520E+03</rscale>
<asrwt>0</asrwt>
<pdfrwt beam="1">  1       21 0.13724979E+00 0.19302520E+03</pdfrwt>
<pdfrwt beam="2">  1       21 0.17134147E-01 0.19302520E+03</pdfrwt>
<totfact> 0.11577792E+04</totfact>
</mgrwt>
</event>
<event>
 4    1  0.1086582E+000  0.1789809E+03  0.7546771E-02  0.1168793E+00
         21   -1    0    0  503  502  0.00000000000E+00  0.00000000000E+00  0.49261649269E+03  0.49261649269E+03  0.00000000000E+00 0.  1.
         21   -1    0    0  501  503 -0.00000000000E+00 -0.00000000000E+00 -0.10390963276E+03  0.10390963276E+03  0.00000000000E+00 0.  1.
          6    1    1    2  501    0  0.43875860248E+02  0.22914524248E+02  0.11904886820E+02  0.17937639996E+03  0.17200000000E+03 0.  1.
         -6    1    1    2    0  502 -0.43875860248E+02 -0.22914524248E+02  0.37680197311E+03  0.41714972549E+03  0.17200000000E+03 0.  1.
<mgrwt>
<rscale>  2 0.17898091E+03</rscale>
<asrwt>0</asrwt>
<pdfrwt beam="1">  1       21 0.12315412E+00 0.17898091E+03</pdfrwt>
<pdfrwt beam="2">  1       21 0.25977410E-01 0.17898091E+03</pdfrwt>
<totfact> 0.70434344E+03</totfact>
</mgrwt>
</event>
<event>
 4    1  0.1086582E+000  0.2724882E+03  0.7546771E-02  0.1099864E+00
         21   -1    0    0  503  502  0.00000000000E+00  0.00000000000E+00  0.28520081686E+03  0.28520081686E+03  0.00000000000E+00 0.  1.
         21   -1    0    0  501  503 -0.00000000000E+00 -0.00000000000E+00 -0.38178246103E+03  0.38178246103E+03  0.00000000000E+00 0. -1.
          6    1    1    2  501    0  0.14902213818E+03 -0.14986074325E+03 -0.23637753184E+03  0.36072728979E+03  0.17200000000E+03 0. -1.
         -6    1    1    2    0  502 -0.14902213818E+03  0.14986074325E+03  0.13979588767E+03  0.30625598810E+03  0.17200000000E+03 0.  1.
<mgrwt>
<rscale>  2 0.27248824E+03</rscale>
<asrwt>0</asrwt>
<pdfrwt beam="1">  1       21 0.71300204E-01 0.27248824E+03</pdfrwt>
<pdfrwt beam="2">  1       21 0.95445615E-01 0.27248824E+03</pdfrwt>
<totfact> 0.15285543E+03</totfact>
</mgrwt>
</event>
<event>
 4    1  0.1086582E+000  0.1725622E+03  0.7546771E-02  0.1175202E+00
         21   -1    0    0  501  502  0.00000000000E+00  0.00000000000E+00  0.11003100268E+04  0.11003100268E+04  0.00000000000E+00 0. -1.
         21   -1    0    0  502  503 -0.00000000000E+00 -0.00000000000E+00 -0.11597596262E+03  0.11597596262E+03  0.00000000000E+00 0. -1.
          6    1    1    2  501    0  0.47566624862E+01  0.13080045945E+02  0.10246481410E+04  0.10390772475E+04  0.17200000000E+03 0. -1.
         -6    1    1    2    0  503 -0.47566624862E+01 -0.13080045945E+02 -0.40314076772E+02  0.17720874196E+03  0.17200000000E+03 0. -1.
<mgrwt>
<rscale>  2 0.17256220E+03</rscale>
<asrwt>0</asrwt>
<pdfrwt beam="1">  1       21 0.27507748E+00 0.17256220E+03</pdfrwt>
<pdfrwt beam="2">  1       21 0.28993994E-01 0.17256220E+03</pdfrwt>
<totfact> 0.55694752E+02</totfact>
</mgrwt>
</event>
<event>
 4    1  0.1086582E+000  0.2522961E+03  0.7546771E-02  0.1111862E+00
         21   -1    0    0  503  502  0.00000000000E+00  0.00000000000E+00  0.27102676754E+03  0.27102676754E+03  0.00000000000E+00 0. -1.
         21   -1    0    0  501  503 -0.00000000000E+00 -0.00000000000E+00 -0.25826906241E+03  0.25826906241E+03  0.00000000000E+00 0.  1.
          6    1    1    2  501    0 -0.79182388127E+02  0.16673175128E+03 -0.73296675219E+02  0.26272748252E+03  0.17200000000E+03 0.  1.
         -6    1    1    2    0  502  0.79182388127E+02 -0.16673175128E+03  0.86054380355E+02  0.26656834743E+03  0.17200000000E+03 0. -1.
<mgrwt>
<rscale>  2 0.25229611E+03</rscale>
<asrwt>0</asrwt>
<pdfrwt beam="1">  1       21 0.67756692E-01 0.25229611E+03</pdfrwt>
<pdfrwt beam="2">  1       21 0.64567266E-01 0.25229611E+03</pdfrwt>
<totfact> 0.42171706E+03</totfact>
</mgrwt>
</event>
<event>
 4    1  0.1086582E+000  0.2364389E+03  0.7546771E-02  0.1122188E+00
         21   -1    0    0  501  502  0.00000000000E+00  0.00000000000E+00  0.19452512354E+03  0.19452512354E+03  0.00000000000E+00 0. -1.
         21   -1    0    0  502  503 -0.00000000000E+00 -0.00000000000E+00 -0.46020392165E+03  0.46020392165E+03  0.00000000000E+00 0.  1.
          6    1    1    2  501    0 -0.15964769887E+03 -0.28843518962E+02  0.67771174610E+02  0.24595989195E+03  0.17200000000E+03 0. -1.
         -6    1    1    2    0  503  0.15964769887E+03  0.28843518962E+02 -0.33344997272E+03  0.40876915324E+03  0.17200000000E+03 0.  1.
<mgrwt>
<rscale>  2 0.23643886E+03</rscale>
<asrwt>0</asrwt>
<pdfrwt beam="1">  1       21 0.48631281E-01 0.23643886E+03</pdfrwt>
<pdfrwt beam="2">  1       21 0.11505098E+00 0.23643886E+03</pdfrwt>
<totfact> 0.22790806E+03</totfact>
</mgrwt>
</event>
<event>
 4    1  0.1086582E+000  0.1996267E+03  0.7546771E-02  0.1150054E+00
         21   -1    0    0  503  502  0.00000000000E+00  0.00000000000E+00  0.25320079926E+03  0.25320079926E+03  0.00000000000E+00 0.  1.
         21   -1    0    0  501  503 -0.00000000000E+00 -0.00000000000E+00 -0.27542303657E+03  0.27542303657E+03  0.00000000000E+00 0.  1.
          6    1    1    2  501    0  0.87392381930E+02  0.51277444934E+02  0.16191904273E+03  0.25703809285E+03  0.17200000000E+03 0.  1.
         -6    1    1    2    0  502 -0.87392381930E+02 -0.51277444934E+02 -0.18414128003E+03  0.27158574298E+03  0.17200000000E+03 0.  1.
<mgrwt>
<rscale>  2 0.19962666E+03</rscale>
<asrwt>0</asrwt>
<pdfrwt beam="1">  1       21 0.63300200E-01 0.19962666E+03</pdfrwt>
<pdfrwt beam="2">  1       21 0.68855759E-01 0.19962666E+03</pdfrwt>
<totfact> 0.44110873E+03</totfact>
</mgrwt>
</event>
<event>
 4    1  0.1086582E+000  0.2110597E+03  0.7546771E-02  0.1140730E+00
         21   -1    0    0  503  502  0.00000000000E+00  0.00000000000E+00  0.30907531080E+03  0.30907531080E+03  0.00000000000E+00 0.  1.
         21   -1    0    0  501  503 -0.00000000000E+00 -0.00000000000E+00 -0.22781085395E+03  0.22781085395E+03  0.00000000000E+00 0. -1.
          6    1    1    2  501    0  0.12140109281E+03  0.14965121089E+02 -0.12206687198E+03  0.24381653229E+03  0.17200000000E+03 0. -1.
         -6    1    1    2    0  502 -0.12140109281E+03 -0.14965121089E+02  0.20333132883E+03  0.29306963246E+03  0.17200000000E+03 0.  1.
<mgrwt>
<rscale>  2 0.21105966E+03</rscale>
<asrwt>0</asrwt>
<pdfrwt beam="1">  1       21 0.77268828E-01 0.21105966E+03</pdfrwt>
<pdfrwt beam="2">  1       21 0.56952714E-01 0.21105966E+03</pdfrwt>
<totfact> 0.42461316E+03</totfact>
</mgrwt>
</event>
<event>
 4    1  0.1086582E+000  0.1936674E+03  0.7546771E-02  0.1155195E+00
         21   -1    0    0  503  502  0.00000000000E+00  0.00000000000E+00  0.11720697058E+03  0.11720697058E+03  0.00000000000E+00 0. -1.
         21   -1    0    0  501  503 -0.00000000000E+00 -0.00000000000E+00 -0.36792919412E+03  0.36792919412E+03  0.00000000000E+00 0. -1.
          6    1    1    2  501    0 -0.79756987927E+02 -0.39520725297E+02 -0.37818531495E+02  0.19732538148E+03  0.17200000000E+03 0. -1.
         -6    1    1    2    0  502  0.79756987927E+02  0.39520725297E+02 -0.21290369204E+03  0.28781078322E+03  0.17200000000E+03 0. -1.
<mgrwt>
<rscale>  2 0.19366741E+03</rscale>
<asrwt>0</asrwt>
<pdfrwt beam="1">  1       21 0.29301743E-01 0.19366741E+03</pdfrwt>
<pdfrwt beam="2">  1       21 0.91982298E-01 0.19366741E+03</pdfrwt>
<totfact> 0.11135603E+04</totfact>
</mgrwt>
</event>
<event>
 4    1  0.1086582E+000  0.1828652E+03  0.7546771E-02  0.1165059E+00
         21   -1    0    0  503  502  0.00000000000E+00  0.00000000000E+00  0.64599887597E+03  0.64599887597E+03  0.00000000000E+00 0.  1.
         21   -1    0    0  501  503 -0.00000000000E+00 -0.00000000000E+00 -0.12516318421E+03  0.12516318421E+03  0.00000000000E+00 0.  1.
          6    1    1    2  501    0  0.61513023581E+02 -0.84751909408E+01 -0.34854028210E+02  0.18615714924E+03  0.17200000000E+03 0.  1.
         -6    1    1    2    0  502 -0.61513023581E+02  0.84751909408E+01  0.55568971998E+03  0.58500491094E+03  0.17200000000E+03 0.  1.
<mgrwt>
<rscale>  2 0.18286520E+03</rscale>
<asrwt>0</asrwt>
<pdfrwt beam="1">  1       21 0.16149971E+00 0.18286520E+03</pdfrwt>
<pdfrwt beam="2">  1       21 0.31290798E-01 0.18286520E+03</pdfrwt>
<totfact> 0.24316757E+03</totfact>
</mgrwt>
</event>
<event>
 4    1  0.1086582E+000  0.1859285E+03  0.7546771E-02  0.1162186E+00
         21   -1    0    0  501  502  0.00000000000E+00  0.00000000000E+00  0.26547074432E+03  0.26547074432E+03  0.00000000000E+00 0. -1.
         21   -1    0    0  502  503 -0.00000000000E+00 -0.00000000000E+00 -0.48501472344E+03  0.48501472344E+03  0.00000000000E+00 0. -1.
          6    1    1    2  501    0  0.36006019636E+02  0.60736814214E+02  0.21116803525E+03  0.28135623889E+03  0.17200000000E+03 0. -1.
         -6    1    1    2    0  503 -0.36006019636E+02 -0.60736814214E+02 -0.43071201437E+03  0.46912922887E+03  0.17200000000E+03 0. -1.
<mgrwt>
<rscale>  2 0.18592846E+03</rscale>
<asrwt>0</asrwt>
<pdfrwt beam="1">  1       21 0.66367686E-01 0.18592846E+03</pdfrwt>
<pdfrwt beam="2">  1       21 0.12125368E+00 0.18592846E+03</pdfrwt>
<totfact> 0.10793011E+03</totfact>
</mgrwt>
</event>
<event>
 4    1  0.1086582E+000  0.1819867E+03  0.7546771E-02  0.1165894E+00
         21   -1    0    0  501  502  0.00000000000E+00  0.00000000000E+00  0.63637876952E+03  0.63637876952E+03  0.00000000000E+00 0. -1.
         21   -1    0    0  502  503 -0.00000000000E+00 -0.00000000000E+00 -0.16204517612E+03  0.16204517612E+03  0.00000000000E+00 0. -1.
          6    1    1    2  501    0  0.78262877017E+01  0.58939790963E+02  0.56608345184E+03  0.59461720811E+03  0.17200000000E+03 0. -1.
         -6    1    1    2    0  503 -0.78262877017E+01 -0.58939790963E+02 -0.91749858436E+02  0.20380673753E+03  0.17200000000E+03 0. -1.
<mgrwt>
<rscale>  2 0.18198667E+03</rscale>
<asrwt>0</asrwt>
<pdfrwt beam="1">  1       21 0.15909469E+00 0.18198667E+03</pdfrwt>
<pdfrwt beam="2">  1       21 0.40511296E-01 0.18198667E+03</pdfrwt>
<totfact> 0.15169977E+03</totfact>
</mgrwt>
</event>
<event>
 4    1  0.1086582E+000  0.2205401E+03  0.7546771E-02  0.1133481E+00
         21   -1    0    0  503  502  0.00000000000E+00  0.00000000000E+00  0.93357881790E+03  0.93357881790E+03  0.00000000000E+00 0. -1.
         21   -1    0    0  501  503 -0.00000000000E+00 -0.00000000000E+00 -0.62061332839E+02  0.62061332839E+02  0.00000000000E+00 0.  1.
          6    1    1    2  501    0 -0.71877602658E+02 -0.11784541781E+03  0.23629857995E+03  0.32322585161E+03  0.17200000000E+03 0.  1.
         -6    1    1    2    0  502  0.71877602658E+02  0.11784541781E+03  0.63521890511E+03  0.67241429913E+03  0.17200000000E+03 0. -1.
<mgrwt>
<rscale>  2 0.22054009E+03</rscale>
<asrwt>0</asrwt>
<pdfrwt beam="1">  1       21 0.23339466E+00 0.22054009E+03</pdfrwt>
<pdfrwt beam="2">  1       21 0.15515336E-01 0.22054009E+03</pdfrwt>
<totfact> 0.29921024E+03</totfact>
</mgrwt>
</event>
<event>
 4    1  0.1086582E+000  0.1820128E+03  0.7546771E-02  0.1165869E+00
         21   -1    0    0  501  502  0.00000000000E+00  0.00000000000E+00  0.40006003622E+03  0.40006003622E+03  0.00000000000E+00 0. -1.
         21   -1    0    0  502  503 -0.00000000000E+00 -0.00000000000E+00 -0.85144173797E+02  0.85144173797E+02  0.00000000000E+00 0. -1.
          6    1    1    2  501    0 -0.44313652133E+02  0.39761193861E+02  0.19763312016E+03  0.26867732038E+03  0.17200000000E+03 0. -1.
         -6    1    1    2    0  503  0.44313652133E+02 -0.39761193861E+02  0.11728274226E+03  0.21652688964E+03  0.17200000000E+03 0. -1.
<mgrwt>
<rscale>  2 0.18201278E+03</rscale>
<asrwt>0</asrwt>
<pdfrwt beam="1">  1       21 0.10001500E+00 0.18201278E+03</pdfrwt>
<pdfrwt beam="2">  1       21 0.21286045E-01 0.18201278E+03</pdfrwt>
<totfact> 0.16971315E+04</totfact>
</mgrwt>
</event>
<event>
 4    1  0.1086582E+000  0.1757002E+03  0.7546771E-02  0.1172031E+00
         21   -1    0    0  501  502  0.00000000000E+00  0.00000000000E+00  0.56897285304E+02  0.56897285304E+02  0.00000000000E+00 0. -1.
         21   -1    0    0  502  503 -0.00000000000E+00 -0.00000000000E+00 -0.88212594054E+03  0.88212594054E+03  0.00000000000E+00 0. -1.
          6    1    1    2  501    0 -0.33764574989E+02 -0.12103642748E+02 -0.12131523674E+03  0.21351330487E+03  0.17200000000E+03 0. -1.
         -6    1    1    2    0  503  0.33764574989E+02  0.12103642748E+02 -0.70391341850E+03  0.72550992098E+03  0.17200000000E+03 0. -1.
<mgrwt>
<rscale>  2 0.17570016E+03</rscale>
<asrwt>0</asrwt>
<pdfrwt beam="1">  1       21 0.14224322E-01 0.17570016E+03</pdfrwt>
<pdfrwt beam="2">  1       21 0.22053148E+00 0.17570016E+03</pdfrwt>
<totfact> 0.43888860E+03</totfact>
</mgrwt>
</event>
<event>
 4    1  0.1086582E+000  0.2730193E+03  0.7546771E-02  0.1099564E+00
         21   -1    0    0  501  502  0.00000000000E+00  0.00000000000E+00  0.63032639176E+03  0.63032639176E+03  0.00000000000E+00 0.  1.
         21   -1    0    0  502  503 -0.00000000000E+00 -0.00000000000E+00 -0.11871681316E+03  0.11871681316E+03  0.00000000000E+00 0. -1.
          6    1    1    2  501    0 -0.16360884820E+03  0.13486168105E+03  0.27915250328E+03  0.39046849849E+03  0.17200000000E+03 0. -1.
         -6    1    1    2    0  503  0.16360884820E+03 -0.13486168105E+03  0.23245707532E+03  0.35857470643E+03  0.17200000000E+03 0.  1.
<mgrwt>
<rscale>  2 0.27301928E+03</rscale>
<asrwt>0</asrwt>
<pdfrwt beam="1">  1       21 0.15758159E+00 0.27301928E+03</pdfrwt>
<pdfrwt beam="2">  1       21 0.29679205E-01 0.27301928E+03</pdfrwt>
<totfact> 0.26771443E+03</totfact>
</mgrwt>
</event>
<event>
 4    1  0.1086582E+000  0.2350139E+03  0.7546771E-02  0.1123160E+00
         21   -1    0    0  501  502  0.00000000000E+00  0.00000000000E+00  0.25771975812E+03  0.25771975812E+03  0.00000000000E+00 0. -1.
         21   -1    0    0  502  503 -0.00000000000E+00 -0.00000000000E+00 -0.21508850583E+03  0.21508850583E+03  0.00000000000E+00 0. -1.
          6    1    1    2  501    0  0.44734999615E+02  0.15377364607E+03  0.70800786233E+01  0.23512056892E+03  0.17200000000E+03 0. -1.
         -6    1    1    2    0  503 -0.44734999615E+02 -0.15377364607E+03  0.35551173674E+02  0.23768769503E+03  0.17200000000E+03 0. -1.
<mgrwt>
<rscale>  2 0.23501395E+03</rscale>
<asrwt>0</asrwt>
<pdfrwt beam="1">  1       21 0.64429939E-01 0.23501395E+03</pdfrwt>
<pdfrwt beam="2">  1       21 0.53772127E-01 0.23501395E+03</pdfrwt>
<totfact> 0.70598432E+03</totfact>
</mgrwt>
</event>
<event>
 4    1  0.1086582E+000  0.2091815E+03  0.7546771E-02  0.1142216E+00
         21   -1    0    0  501  502  0.00000000000E+00  0.00000000000E+00  0.28041307501E+03  0.28041307501E+03  0.00000000000E+00 0. -1.
         21   -1    0    0  502  503 -0.00000000000E+00 -0.00000000000E+00 -0.15903022333E+03  0.15903022333E+03  0.00000000000E+00 0.  1.
          6    1    1    2  501    0 -0.11898490840E+03  0.39342834532E+01  0.90798312965E+02  0.22803776146E+03  0.17200000000E+03 0. -1.
         -6    1    1    2    0  503  0.11898490840E+03 -0.39342834532E+01  0.30584538712E+02  0.21140553688E+03  0.17200000000E+03 0. -1.
<mgrwt>
<rscale>  2 0.20918147E+03</rscale>
<asrwt>0</asrwt>
<pdfrwt beam="1">  1       21 0.70103268E-01 0.20918147E+03</pdfrwt>
<pdfrwt beam="2">  1       21 0.39757556E-01 0.20918147E+03</pdfrwt>
<totfact> 0.11138220E+04</totfact>
</mgrwt>
</event>
<event>
 4    1  0.1086582E+000  0.1913879E+03  0.7546771E-02  0.1157215E+00
         21   -1    0    0  503  502  0.00000000000E+00  0.00000000000E+00  0.63291638007E+02  0.63291638007E+02  0.00000000000E+00 0.  1.
         21   -1    0    0  501  503 -0.00000000000E+00 -0.00000000000E+00 -0.58616312603E+03  0.58616312603E+03  0.00000000000E+00 0.  1.
          6    1    1    2  501    0 -0.81865688502E+02 -0.18529010253E+02 -0.22488943895E+03  0.29530420743E+03  0.17200000000E+03 0. -1.
         -6    1    1    2    0  502  0.81865688502E+02  0.18529010253E+02 -0.29798204908E+03  0.35415055661E+03  0.17200000000E+03 0. -1.
<mgrwt>
<rscale>  2 0.19138787E+03</rscale>
<asrwt>0</asrwt>
<pdfrwt beam="1">  1       21 0.15822910E-01 0.19138787E+03</pdfrwt>
<pdfrwt beam="2">  1       21 0.14654078E+00 0.19138787E+03</pdfrwt>
<totfact> 0.11318940E+04</totfact>
</mgrwt>
</event>
<event>
 4    1  0.1086582E+000  0.1749528E+03  0.7546771E-02  0.1172779E+00
         21   -1    0    0  501  502  0.00000000000E+00  0.00000000000E+00  0.97130427429E+03  0.97130427429E+03  0.00000000000E+00 0.  1.
         21   -1    0    0  502  503 -0.00000000000E+00 -0.00000000000E+00 -0.16205627702E+03  0.16205627702E+03  0.00000000000E+00 0.  1.
          6    1    1    2  501    0 -0.29728920964E+02 -0.11860824696E+02  0.91323155258E+03  0.92983888741E+03  0.17200000000E+03 0.  1.
         -6    1    1    2    0  503  0.29728920964E+02  0.11860824696E+02 -0.10398355531E+03  0.20352166391E+03  0.17200000000E+03 0.  1.
<mgrwt>
<rscale>  2 0.17495282E+03</rscale>
<asrwt>0</asrwt>
<pdfrwt beam="1">  1       21 0.24282605E+00 0.17495282E+03</pdfrwt>
<pdfrwt beam="2">  1       21 0.40514072E-01 0.17495282E+03</pdfrwt>
<totfact> 0.44099258E+02</totfact>
</mgrwt>
</event>
<event>
 4    1  0.1086582E+000  0.2070721E+03  0.7546771E-02  0.1143906E+00
         21   -1    0    0  503  502  0.00000000000E+00  0.00000000000E+00  0.25988536927E+03  0.25988536927E+03  0.00000000000E+00 0. -1.
         21   -1    0    0  501  503 -0.00000000000E+00 -0.00000000000E+00 -0.23803025091E+03  0.23803025091E+03  0.00000000000E+00 0.  1.
          6    1    1    2  501    0 -0.37699567133E+02  0.10896594804E+03 -0.12697960364E+03  0.24290462107E+03  0.17200000000E+03 0.  1.
         -6    1    1    2    0  502  0.37699567133E+02 -0.10896594804E+03  0.14883472201E+03  0.25501099912E+03  0.17200000000E+03 0. -1.
<mgrwt>
<rscale>  2 0.20707205E+03</rscale>
<asrwt>0</asrwt>
<pdfrwt beam="1">  1       21 0.64971342E-01 0.20707205E+03</pdfrwt>
<pdfrwt beam="2">  1       21 0.59507563E-01 0.20707205E+03</pdfrwt>
<totfact> 0.56914402E+03</totfact>
</mgrwt>
</event>
<event>
 4    1  0.1086582E+000  0.3235352E+03  0.7546771E-02  0.1074034E+00
         21   -1    0    0  503  502  0.00000000000E+00  0.00000000000E+00  0.14162396854E+04  0.14162396854E+04  0.00000000000E+00 0.  1.
         21   -1    0    0  501  503 -0.00000000000E+00 -0.00000000000E+00 -0.11132584823E+03  0.11132584823E+03  0.00000000000E+00 0. -1.
          6    1    1    2  501    0  0.15536963219E+03  0.22572391759E+03  0.20966810886E+03  0.38553304068E+03  0.17200000000E+03 0. -1.
         -6    1    1    2    0  502 -0.15536963219E+03 -0.22572391759E+03  0.10952457283E+04  0.11420324929E+04  0.17200000000E+03 0.  1.
<mgrwt>
<rscale>  2 0.32353518E+03</rscale>
<asrwt>0</asrwt>
<pdfrwt beam="1">  1       21 0.35405986E+00 0.32353518E+03</pdfrwt>
<pdfrwt beam="2">  1       21 0.27831467E-01 0.32353518E+03</pdfrwt>
<totfact> 0.17294959E+02</totfact>
</mgrwt>
</event>
<event>
 4    1  0.1086582E+000  0.2965438E+03  0.7546771E-02  0.1086981E+00
         21   -1    0    0  501  502  0.00000000000E+00  0.00000000000E+00  0.69885084190E+03  0.69885084190E+03  0.00000000000E+00 0. -1.
         21   -1    0    0  502  503 -0.00000000000E+00 -0.00000000000E+00 -0.12586062746E+03  0.12586062746E+03  0.00000000000E+00 0.  1.
          6    1    1    2  501    0  0.25358993247E+02  0.24023138490E+03  0.29265195595E+03  0.41663336898E+03  0.17200000000E+03 0. -1.
         -6    1    1    2    0  503 -0.25358993247E+02 -0.24023138490E+03  0.28033825850E+03  0.40807810038E+03  0.17200000000E+03 0.  1.
<mgrwt>
<rscale>  2 0.29654375E+03</rscale>
<asrwt>0</asrwt>
<pdfrwt beam="1">  1       21 0.17471270E+00 0.29654375E+03</pdfrwt>
<pdfrwt beam="2">  1       21 0.31465159E-01 0.29654375E+03</pdfrwt>
<totfact> 0.17642284E+03</totfact>
</mgrwt>
</event>
<event>
 4    1  0.1086582E+000  0.2105309E+03  0.7546771E-02  0.1141146E+00
         21   -1    0    0  503  502  0.00000000000E+00  0.00000000000E+00  0.73443153330E+02  0.73443153330E+02  0.00000000000E+00 0. -1.
         21   -1    0    0  501  503 -0.00000000000E+00 -0.00000000000E+00 -0.67681513569E+03  0.67681513569E+03  0.00000000000E+00 0. -1.
          6    1    1    2  501    0 -0.11387661465E+03  0.42087825172E+02 -0.42514690165E+03  0.47441875635E+03  0.17200000000E+03 0. -1.
         -6    1    1    2    0  502  0.11387661465E+03 -0.42087825172E+02 -0.17822508071E+03  0.27583953267E+03  0.17200000000E+03 0. -1.
<mgrwt>
<rscale>  2 0.21053092E+03</rscale>
<asrwt>0</asrwt>
<pdfrwt beam="1">  1       21 0.18360788E-01 0.21053092E+03</pdfrwt>
<pdfrwt beam="2">  1       21 0.16920378E+00 0.21053092E+03</pdfrwt>
<totfact> 0.57629765E+03</totfact>
</mgrwt>
</event>
<event>
 4    1  0.1086582E+000  0.1792001E+03  0.7546771E-02  0.1168579E+00
         21   -1    0    0  503  502  0.00000000000E+00  0.00000000000E+00  0.92306700519E+02  0.92306700519E+02  0.00000000000E+00 0.  1.
         21   -1    0    0  501  503 -0.00000000000E+00 -0.00000000000E+00 -0.40478164766E+03  0.40478164766E+03  0.00000000000E+00 0.  1.
          6    1    1    2  501    0 -0.33513294565E+01 -0.50173972787E+02 -0.24941562515E+03  0.30711693705E+03  0.17200000000E+03 0.  1.
         -6    1    1    2    0  502  0.33513294565E+01  0.50173972787E+02 -0.63059321982E+02  0.18997141112E+03  0.17200000000E+03 0.  1.
<mgrwt>
<rscale>  2 0.17920005E+03</rscale>
<asrwt>0</asrwt>
<pdfrwt beam="1">  1       21 0.23076676E-01 0.17920005E+03</pdfrwt>
<pdfrwt beam="2">  1       21 0.10119541E+00 0.17920005E+03</pdfrwt>
<totfact> 0.14202339E+04</totfact>
</mgrwt>
</event>
<event>
 4    1  0.1086582E+000  0.1794786E+03  0.7546771E-02  0.1168309E+00
         21   -1    0    0  503  502  0.00000000000E+00  0.00000000000E+00  0.96344558339E+03  0.96344558339E+03  0.00000000000E+00 0. -1.
         21   -1    0    0  501  503 -0.00000000000E+00 -0.00000000000E+00 -0.54320985878E+02  0.54320985878E+02  0.00000000000E+00 0. -1.
          6    1    1    2  501    0 -0.30908023988E+02  0.40905622178E+02  0.13901511685E+03  0.22701933527E+03  0.17200000000E+03 0. -1.
         -6    1    1    2    0  502  0.30908023988E+02 -0.40905622178E+02  0.77010948066E+03  0.79074723400E+03  0.17200000000E+03 0. -1.
<mgrwt>
<rscale>  2 0.17947862E+03</rscale>
<asrwt>0</asrwt>
<pdfrwt beam="1">  1       21 0.24086134E+00 0.17947862E+03</pdfrwt>
<pdfrwt beam="2">  1       21 0.13580250E-01 0.17947862E+03</pdfrwt>
<totfact> 0.35885742E+03</totfact>
</mgrwt>
</event>
<event>
 4    1  0.1086582E+000  0.2250117E+03  0.7546771E-02  0.1130201E+00
         21   -1    0    0  501  502  0.00000000000E+00  0.00000000000E+00  0.52963256732E+02  0.52963256732E+02  0.00000000000E+00 0. -1.
         21   -1    0    0  502  503 -0.00000000000E+00 -0.00000000000E+00 -0.11630560409E+04  0.11630560409E+04  0.00000000000E+00 0.  1.
          6    1    1    2  501    0 -0.42492781933E+02 -0.13871057500E+03 -0.81161637420E+03  0.84223001549E+03  0.17200000000E+03 0.  1.
         -6    1    1    2    0  503  0.42492781933E+02  0.13871057500E+03 -0.29847640996E+03  0.37378928213E+03  0.17200000000E+03 0. -1.
<mgrwt>
<rscale>  2 0.22501169E+03</rscale>
<asrwt>0</asrwt>
<pdfrwt beam="1">  1       21 0.13240815E-01 0.22501169E+03</pdfrwt>
<pdfrwt beam="2">  1       21 0.29076400E+00 0.22501169E+03</pdfrwt>
<totfact> 0.18263918E+03</totfact>
</mgrwt>
</event>
<event>
 4    1  0.1086582E+000  0.1992756E+03  0.7546771E-02  0.1150352E+00
         21   -1    0    0  501  502  0.00000000000E+00  0.00000000000E+00  0.18144801589E+03  0.18144801589E+03  0.00000000000E+00 0. -1.
         21   -1    0    0  502  503 -0.00000000000E+00 -0.00000000000E+00 -0.38114638993E+03  0.38114638993E+03  0.00000000000E+00 0.  1.
          6    1    1    2  501    0 -0.30403760467E+02 -0.95929068574E+02  0.83706343562E+02  0.21614237623E+03  0.17200000000E+03 0. -1.
         -6    1    1    2    0  503  0.30403760467E+02  0.95929068574E+02 -0.28340471760E+03  0.34645202959E+03  0.17200000000E+03 0.  1.
<mgrwt>
<rscale>  2 0.19927563E+03</rscale>
<asrwt>0</asrwt>
<pdfrwt beam="1">  1       21 0.45362004E-01 0.19927563E+03</pdfrwt>
<pdfrwt beam="2">  1       21 0.95286597E-01 0.19927563E+03</pdfrwt>
<totfact> 0.42646689E+03</totfact>
</mgrwt>
</event>
<event>
 4    1  0.1086582E+000  0.1867302E+03  0.7546771E-02  0.1161444E+00
         21   -1    0    0  503  502  0.00000000000E+00  0.00000000000E+00  0.14193567332E+03  0.14193567332E+03  0.00000000000E+00 0.  1.
         21   -1    0    0  501  503 -0.00000000000E+00 -0.00000000000E+00 -0.24812452201E+03  0.24812452201E+03  0.00000000000E+00 0. -1.
          6    1    1    2  501    0 -0.19380620875E+02 -0.70060987715E+02 -0.33663722665E+02  0.18974034017E+03  0.17200000000E+03 0.  1.
         -6    1    1    2    0  502  0.19380620875E+02  0.70060987715E+02 -0.72525126025E+02  0.20031985516E+03  0.17200000000E+03 0. -1.
<mgrwt>
<rscale>  2 0.18673015E+03</rscale>
<asrwt>0</asrwt>
<pdfrwt beam="1">  1       21 0.35483919E-01 0.18673015E+03</pdfrwt>
<pdfrwt beam="2">  1       21 0.62031130E-01 0.18673015E+03</pdfrwt>
<totfact> 0.18536014E+04</totfact>
</mgrwt>
</event>
<event>
 4    1  0.1086582E+000  0.2013200E+03  0.7546771E-02  0.1148630E+00
         21   -1    0    0  501  502  0.00000000000E+00  0.00000000000E+00  0.53284340738E+03  0.53284340738E+03  0.00000000000E+00 0.  1.
         21   -1    0    0  502  503 -0.00000000000E+00 -0.00000000000E+00 -0.10022151151E+03  0.10022151151E+03  0.00000000000E+00 0. -1.
          6    1    1    2  501    0  0.64310101987E+02  0.82522548346E+02  0.37171821046E+03  0.42273418148E+03  0.17200000000E+03 0.  1.
         -6    1    1    2    0  503 -0.64310101987E+02 -0.82522548346E+02  0.60903685402E+02  0.21033073741E+03  0.17200000000E+03 0. -1.
<mgrwt>
<rscale>  2 0.20132004E+03</rscale>
<asrwt>0</asrwt>
<pdfrwt beam="1">  1       21 0.13321084E+00 0.20132004E+03</pdfrwt>
<pdfrwt beam="2">  1       21 0.25055379E-01 0.20132004E+03</pdfrwt>
<totfact> 0.60872363E+03</totfact>
</mgrwt>
</event>
<event>
 4    1  0.1086582E+000  0.2055822E+03  0.7546771E-02  0.1145113E+00
         21   -1    0    0  503  502  0.00000000000E+00  0.00000000000E+00  0.59606753505E+03  0.59606753505E+03  0.00000000000E+00 0. -1.
         21   -1    0    0  501  503 -0.00000000000E+00 -0.00000000000E+00 -0.14047866048E+03  0.14047866048E+03  0.00000000000E+00 0. -1.
          6    1    1    2  501    0 -0.51310311099E+02 -0.10023608536E+03 -0.31377524776E+02  0.20796290509E+03  0.17200000000E+03 0. -1.
         -6    1    1    2    0  502  0.51310311099E+02  0.10023608536E+03  0.48696639934E+03  0.52858329043E+03  0.17200000000E+03 0. -1.
<mgrwt>
<rscale>  2 0.20558215E+03</rscale>
<asrwt>0</asrwt>
<pdfrwt beam="1">  1       21 0.14901688E+00 0.20558215E+03</pdfrwt>
<pdfrwt beam="2">  1       21 0.35119667E-01 0.20558215E+03</pdfrwt>
<totfact> 0.23488020E+03</totfact>
</mgrwt>
</event>
<event>
 4    1  0.1086582E+000  0.1725666E+03  0.7546771E-02  0.1175197E+00
         21   -1    0    0  501  502  0.00000000000E+00  0.00000000000E+00  0.57596371054E+02  0.57596371054E+02  0.00000000000E+00 0. -1.
         21   -1    0    0  502  503 -0.00000000000E+00 -0.00000000000E+00 -0.72477744901E+03  0.72477744901E+03  0.00000000000E+00 0. -1.
          6    1    1    2  501    0  0.84244542259E+01 -0.11147406644E+02 -0.12415687934E+03  0.21258919726E+03  0.17200000000E+03 0. -1.
         -6    1    1    2    0  503 -0.84244542259E+01  0.11147406644E+02 -0.54302419862E+03  0.56978462281E+03  0.17200000000E+03 0. -1.
<mgrwt>
<rscale>  2 0.17256661E+03</rscale>
<asrwt>0</asrwt>
<pdfrwt beam="1">  1       21 0.14399093E-01 0.17256661E+03</pdfrwt>
<pdfrwt beam="2">  1       21 0.18119436E+00 0.17256661E+03</pdfrwt>
<totfact> 0.76796217E+03</totfact>
</mgrwt>
</event>
<event>
 4    1  0.1086582E+000  0.1838287E+03  0.7546771E-02  0.1164148E+00
         21   -1    0    0  501  502  0.00000000000E+00  0.00000000000E+00  0.40534822114E+03  0.40534822114E+03  0.00000000000E+00 0. -1.
         21   -1    0    0  502  503 -0.00000000000E+00 -0.00000000000E+00 -0.89735000246E+02  0.89735000246E+02  0.00000000000E+00 0.  1.
          6    1    1    2  501    0  0.30642775750E+02 -0.57183984607E+02  0.22374550616E+03  0.28957734602E+03  0.17200000000E+03 0. -1.
         -6    1    1    2    0  503 -0.30642775750E+02  0.57183984607E+02  0.91867714743E+02  0.20550587537E+03  0.17200000000E+03 0.  1.
<mgrwt>
<rscale>  2 0.18382869E+03</rscale>
<asrwt>0</asrwt>
<pdfrwt beam="1">  1       21 0.10133705E+00 0.18382869E+03</pdfrwt>
<pdfrwt beam="2">  1       21 0.22433751E-01 0.18382869E+03</pdfrwt>
<totfact> 0.14884426E+04</totfact>
</mgrwt>
</event>
<event>
 4    1  0.1086582E+000  0.1723411E+03  0.7546771E-02  0.1175428E+00
         21   -1    0    0  501  502  0.00000000000E+00  0.00000000000E+00  0.30158445727E+03  0.30158445727E+03  0.00000000000E+00 0.  1.
         21   -1    0    0  502  503 -0.00000000000E+00 -0.00000000000E+00 -0.17134361900E+03  0.17134361900E+03  0.00000000000E+00 0.  1.
          6    1    1    2  501    0  0.23248420085E+00  0.10835783230E+02  0.21931615464E+03  0.27892838495E+03  0.17200000000E+03 0.  1.
         -6    1    1    2    0  503 -0.23248420085E+00 -0.10835783230E+02 -0.89075316367E+02  0.19399969132E+03  0.17200000000E+03 0.  1.
<mgrwt>
<rscale>  2 0.17234114E+03</rscale>
<asrwt>0</asrwt>
<pdfrwt beam="1">  1       21 0.75396114E-01 0.17234114E+03</pdfrwt>
<pdfrwt beam="2">  1       21 0.42835905E-01 0.17234114E+03</pdfrwt>
<totfact> 0.83601564E+03</totfact>
</mgrwt>
</event>
<event>
 4    1  0.1086582E+000  0.2048676E+03  0.7546771E-02  0.1145696E+00
         21   -1    0    0  503  502  0.00000000000E+00  0.00000000000E+00  0.10027720561E+03  0.10027720561E+03  0.00000000000E+00 0. -1.
         21   -1    0    0  501  503 -0.00000000000E+00 -0.00000000000E+00 -0.57954584148E+03  0.57954584148E+03  0.00000000000E+00 0. -1.
          6    1    1    2  501    0 -0.91830251243E+02 -0.62880355733E+02 -0.41879108793E+03  0.46621530382E+03  0.17200000000E+03 0. -1.
         -6    1    1    2    0  502  0.91830251243E+02  0.62880355733E+02 -0.60477547945E+02  0.21360774327E+03  0.17200000000E+03 0. -1.
<mgrwt>
<rscale>  2 0.20486760E+03</rscale>
<asrwt>0</asrwt>
<pdfrwt beam="1">  1       21 0.25069302E-01 0.20486760E+03</pdfrwt>
<pdfrwt beam="2">  1       21 0.14488646E+00 0.20486760E+03</pdfrwt>
<totfact> 0.48820795E+03</totfact>
</mgrwt>
</event>
<event>
 4    1  0.1086582E+000  0.2011001E+03  0.7546771E-02  0.1148814E+00
         21   -1    0    0  501  502  0.00000000000E+00  0.00000000000E+00  0.11017914200E+04  0.11017914200E+04  0.00000000000E+00 0. -1.
         21   -1    0    0  502  503 -0.00000000000E+00 -0.00000000000E+00 -0.11366049737E+03  0.11366049737E+03  0.00000000000E+00 0. -1.
          6    1    1    2  501    0  0.81238539953E+02 -0.65250047383E+02  0.99412624557E+03  0.10142624222E+04  0.17200000000E+03 0. -1.
         -6    1    1    2    0  503 -0.81238539953E+02  0.65250047383E+02 -0.59953229175E+01  0.20118949514E+03  0.17200000000E+03 0. -1.
<mgrwt>
<rscale>  2 0.20110015E+03</rscale>
<asrwt>0</asrwt>
<pdfrwt beam="1">  1       21 0.27544782E+00 0.20110015E+03</pdfrwt>
<pdfrwt beam="2">  1       21 0.28415128E-01 0.20110015E+03</pdfrwt>
<totfact> 0.55349685E+02</totfact>
</mgrwt>
</event>
<event>
 4    1  0.1086582E+000  0.1873743E+03  0.7546771E-02  0.1160851E+00
         21   -1    0    0  503  502  0.00000000000E+00  0.00000000000E+00  0.25904829929E+03  0.25904829929E+03  0.00000000000E+00 0.  1.
         21   -1    0    0  501  503 -0.00000000000E+00 -0.00000000000E+00 -0.14549558966E+03  0.14549558966E+03  0.00000000000E+00 0.  1.
          6    1    1    2  501    0 -0.18260955729E+02  0.72053209352E+02  0.38421938381E+01  0.18741368663E+03  0.17200000000E+03 0.  1.
         -6    1    1    2    0  502  0.18260955729E+02 -0.72053209352E+02  0.10971051580E+03  0.21713020232E+03  0.17200000000E+03 0.  1.
<mgrwt>
<rscale>  2 0.18737430E+03</rscale>
<asrwt>0</asrwt>
<pdfrwt beam="1">  1       21 0.64762074E-01 0.18737430E+03</pdfrwt>
<pdfrwt beam="2">  1       21 0.36373898E-01 0.18737430E+03</pdfrwt>
<totfact> 0.16066539E+04</totfact>
</mgrwt>
</event>
<event>
 4    1  0.1086582E+000  0.2093719E+03  0.7546771E-02  0.1142064E+00
         21   -1    0    0  503  502  0.00000000000E+00  0.00000000000E+00  0.91997431773E+03  0.91997431773E+03  0.00000000000E+00 0.  1.
         21   -1    0    0  501  503 -0.00000000000E+00 -0.00000000000E+00 -0.80004288875E+02  0.80004288875E+02  0.00000000000E+00 0. -1.
          6    1    1    2  501    0  0.80122402660E+02  0.88504177448E+02  0.10202582942E+03  0.23290740371E+03  0.17200000000E+03 0. -1.
         -6    1    1    2    0  502 -0.80122402660E+02 -0.88504177448E+02  0.73794419944E+03  0.76707120290E+03  0.17200000000E+03 0.  1.
<mgrwt>
<rscale>  2 0.20937189E+03</rscale>
<asrwt>0</asrwt>
<pdfrwt beam="1">  1       21 0.22999355E+00 0.20937189E+03</pdfrwt>
<pdfrwt beam="2">  1       21 0.20001075E-01 0.20937189E+03</pdfrwt>
<totfact> 0.19828117E+03</totfact>
</mgrwt>
</event>
<event>
 4    1  0.1086582E+000  0.2148286E+03  0.7546771E-02  0.1137798E+00
         21   -1    0    0  503  502  0.00000000000E+00  0.00000000000E+00  0.47939997204E+02  0.47939997204E+02  0.00000000000E+00 0. -1.
         21   -1    0    0  501  503 -0.00000000000E+00 -0.00000000000E+00 -0.12226358234E+04  0.12226358234E+04  0.00000000000E+00 0. -1.
          6    1    1    2  501    0  0.98590003469E+02 -0.82748728990E+02 -0.88027782117E+03  0.90611278734E+03  0.17200000000E+03 0. -1.
         -6    1    1    2    0  502 -0.98590003469E+02  0.82748728990E+02 -0.29441800502E+03  0.36446303326E+03  0.17200000000E+03 0. -1.
<mgrwt>
<rscale>  2 0.21482863E+03</rscale>
<asrwt>0</asrwt>
<pdfrwt beam="1">  1       21 0.11984999E-01 0.21482863E+03</pdfrwt>
<pdfrwt beam="2">  1       21 0.30565896E+00 0.21482863E+03</pdfrwt>
<totfact> 0.18123181E+03</totfact>
</mgrwt>
</event>
<event>
 4    1  0.1086582E+000  0.1943092E+03  0.7546771E-02  0.1154631E+00
         21   -1    0    0  501  502  0.00000000000E+00  0.00000000000E+00  0.14826974332E+03  0.14826974332E+03  0.00000000000E+00 0. -1.
         21   -1    0    0  502  503 -0.00000000000E+00 -0.00000000000E+00 -0.56765102721E+03  0.56765102721E+03  0.00000000000E+00 0. -1.
          6    1    1    2  501    0  0.89349655201E+02  0.13736603316E+02  0.56119190127E+02  0.20225088048E+03  0.17200000000E+03 0. -1.
         -6    1    1    2    0  503 -0.89349655201E+02 -0.13736603316E+02 -0.47550047401E+03  0.51366989005E+03  0.17200000000E+03 0. -1.
<mgrwt>
<rscale>  2 0.19430917E+03</rscale>
<asrwt>0</asrwt>
<pdfrwt beam="1">  1       21 0.37067436E-01 0.19430917E+03</pdfrwt>
<pdfrwt beam="2">  1       21 0.14191276E+00 0.19430917E+03</pdfrwt>
<totfact> 0.24213705E+03</totfact>
</mgrwt>
</event>
<event>
 4    1  0.1086582E+000  0.1785772E+03  0.7546771E-02  0.1169187E+00
         21   -1    0    0  501  502  0.00000000000E+00  0.00000000000E+00  0.35844144555E+02  0.35844144555E+02  0.00000000000E+00 0. -1.
         21   -1    0    0  502  503 -0.00000000000E+00 -0.00000000000E+00 -0.99596340849E+03  0.99596340849E+03  0.00000000000E+00 0. -1.
          6    1    1    2  501    0 -0.41151218441E+02 -0.24746901627E+02 -0.64859031819E+03  0.67272522828E+03  0.17200000000E+03 0.  1.
         -6    1    1    2    0  503  0.41151218441E+02  0.24746901627E+02 -0.31152894574E+03  0.35908232476E+03  0.17200000000E+03 0.  1.
<mgrwt>
<rscale>  2 0.17857724E+03</rscale>
<asrwt>0</asrwt>
<pdfrwt beam="1">  1       21 0.89610359E-02 0.17857724E+03</pdfrwt>
<pdfrwt beam="2">  1       21 0.24899086E+00 0.17857724E+03</pdfrwt>
<totfact> 0.67319908E+03</totfact>
</mgrwt>
</event>
<event>
 4    1  0.1086582E+000  0.2300504E+03  0.7546771E-02  0.1126604E+00
         21   -1    0    0  503  502  0.00000000000E+00  0.00000000000E+00  0.12871340224E+03  0.12871340224E+03  0.00000000000E+00 0. -1.
         21   -1    0    0  501  503 -0.00000000000E+00 -0.00000000000E+00 -0.41117539906E+03  0.41117539906E+03  0.00000000000E+00 0.  1.
          6    1    1    2  501    0 -0.15244603437E+03  0.99707132775E+01 -0.14212156136E+03  0.27041033028E+03  0.17200000000E+03 0.  1.
         -6    1    1    2    0  502  0.15244603437E+03 -0.99707132775E+01 -0.14034043546E+03  0.26947847102E+03  0.17200000000E+03 0. -1.
<mgrwt>
<rscale>  2 0.23005045E+03</rscale>
<asrwt>0</asrwt>
<pdfrwt beam="1">  1       21 0.32178351E-01 0.23005045E+03</pdfrwt>
<pdfrwt beam="2">  1       21 0.10279385E+00 0.23005045E+03</pdfrwt>
<totfact> 0.69543399E+03</totfact>
</mgrwt>
</event>
<event>
 4    1  0.1086582E+000  0.2613028E+03  0.7546771E-02  0.1106363E+00
         21   -1    0    0  501  502  0.00000000000E+00  0.00000000000E+00  0.23904264569E+03  0.23904264569E+03  0.00000000000E+00 0. -1.
         21   -1    0    0  502  503 -0.00000000000E+00 -0.00000000000E+00 -0.28589037007E+03  0.28589037007E+03  0.00000000000E+00 0. -1.
          6    1    1    2  501    0 -0.17790674935E+03  0.83930579465E+02 -0.15592818906E+02  0.26176762526E+03  0.17200000000E+03 0. -1.
         -6    1    1    2    0  503  0.17790674935E+03 -0.83930579465E+02 -0.31254905477E+02  0.26316539049E+03  0.17200000000E+03 0. -1.
<mgrwt>
<rscale>  2 0.26130280E+03</rscale>
<asrwt>0</asrwt>
<pdfrwt beam="1">  1       21 0.59760662E-01 0.26130280E+03</pdfrwt>
<pdfrwt beam="2">  1       21 0.71472592E-01 0.26130280E+03</pdfrwt>
<totfact> 0.44081843E+03</totfact>
</mgrwt>
</event>
<event>
 4    1  0.1086582E+000  0.2195258E+03  0.7546771E-02  0.1134237E+00
         21   -1    0    0  501  502  0.00000000000E+00  0.00000000000E+00  0.20231515402E+03  0.20231515402E+03  0.00000000000E+00 0. -1.
         21   -1    0    0  502  503 -0.00000000000E+00 -0.00000000000E+00 -0.26999418756E+03  0.26999418756E+03  0.00000000000E+00 0. -1.
          6    1    1    2  501    0  0.22207599965E+02 -0.13458973643E+03 -0.11487769231E+03  0.24776694461E+03  0.17200000000E+03 0. -1.
         -6    1    1    2    0  503 -0.22207599965E+02  0.13458973643E+03  0.47198658765E+02  0.22454239697E+03  0.17200000000E+03 0. -1.
<mgrwt>
<rscale>  2 0.21952579E+03</rscale>
<asrwt>0</asrwt>
<pdfrwt beam="1">  1       21 0.50578789E-01 0.21952579E+03</pdfrwt>
<pdfrwt beam="2">  1       21 0.67498546E-01 0.21952579E+03</pdfrwt>
<totfact> 0.73263927E+03</totfact>
</mgrwt>
</event>
<event>
 4    1  0.1086582E+000  0.1995002E+03  0.7546771E-02  0.1150161E+00
         21   -1    0    0  501  502  0.00000000000E+00  0.00000000000E+00  0.16894289143E+03  0.16894289143E+03  0.00000000000E+00 0.  1.
         21   -1    0    0  502  503 -0.00000000000E+00 -0.00000000000E+00 -0.23877342218E+03  0.23877342218E+03  0.00000000000E+00 0.  1.
          6    1    1    2  501    0  0.10046652635E+03 -0.11081894195E+02 -0.58474174245E+02  0.20789314647E+03  0.17200000000E+03 0.  1.
         -6    1    1    2    0  503 -0.10046652635E+03  0.11081894195E+02 -0.11356356504E+02  0.19982316715E+03  0.17200000000E+03 0.  1.
<mgrwt>
<rscale>  2 0.19950020E+03</rscale>
<asrwt>0</asrwt>
<pdfrwt beam="1">  1       21 0.42235723E-01 0.19950020E+03</pdfrwt>
<pdfrwt beam="2">  1       21 0.59693355E-01 0.19950020E+03</pdfrwt>
<totfact> 0.14070170E+04</totfact>
</mgrwt>
</event>
<event>
 4    1  0.1086582E+000  0.2548023E+03  0.7546771E-02  0.1110307E+00
         21   -1    0    0  501  502  0.00000000000E+00  0.00000000000E+00  0.31001824816E+03  0.31001824816E+03  0.00000000000E+00 0.  1.
         21   -1    0    0  502  503 -0.00000000000E+00 -0.00000000000E+00 -0.37400810567E+03  0.37400810567E+03  0.00000000000E+00 0. -1.
          6    1    1    2  501    0 -0.12808756044E+03 -0.13760002913E+03 -0.25887734199E+03  0.36323775871E+03  0.17200000000E+03 0. -1.
         -6    1    1    2    0  503  0.12808756044E+03  0.13760002913E+03  0.19488748447E+03  0.32078859512E+03  0.17200000000E+03 0.  1.
<mgrwt>
<rscale>  2 0.25480226E+03</rscale>
<asrwt>0</asrwt>
<pdfrwt beam="1">  1       21 0.77504562E-01 0.25480226E+03</pdfrwt>
<pdfrwt beam="2">  1       21 0.93502026E-01 0.25480226E+03</pdfrwt>
<totfact> 0.13469870E+03</totfact>
</mgrwt>
</event>
<event>
 4    1  0.1086582E+000  0.2272844E+03  0.7546771E-02  0.1128566E+00
         21   -1    0    0  501  502  0.00000000000E+00  0.00000000000E+00  0.84339531449E+03  0.84339531449E+03  0.00000000000E+00 0. -1.
         21   -1    0    0  502  503 -0.00000000000E+00 -0.00000000000E+00 -0.68834918290E+02  0.68834918290E+02  0.00000000000E+00 0. -1.
          6    1    1    2  501    0 -0.24951088750E+02  0.14646375168E+03  0.53868439082E+03  0.58467004396E+03  0.17200000000E+03 0. -1.
         -6    1    1    2    0  503  0.24951088750E+02 -0.14646375168E+03  0.23587600538E+03  0.32756018882E+03  0.17200000000E+03 0. -1.
<mgrwt>
<rscale>  2 0.22728438E+03</rscale>
<asrwt>0</asrwt>
<pdfrwt beam="1">  1       21 0.21084880E+00 0.22728438E+03</pdfrwt>
<pdfrwt beam="2">  1       21 0.17208732E-01 0.22728438E+03</pdfrwt>
<totfact> 0.33849091E+03</totfact>
</mgrwt>
</event>
<event>
 4    1  0.1086582E+000  0.2303178E+03  0.7546771E-02  0.1126416E+00
         21   -1    0    0  501  502  0.00000000000E+00  0.00000000000E+00  0.14534918254E+03  0.14534918254E+03  0.00000000000E+00 0.  1.
         21   -1    0    0  502  503 -0.00000000000E+00 -0.00000000000E+00 -0.40962896059E+03  0.40962896059E+03  0.00000000000E+00 0.  1.
          6    1    1    2  501    0 -0.15268976633E+03 -0.12170458203E+02 -0.40504066585E+02  0.23385222728E+03  0.17200000000E+03 0.  1.
         -6    1    1    2    0  503  0.15268976633E+03  0.12170458203E+02 -0.22377571146E+03  0.32112591585E+03  0.17200000000E+03 0.  1.
<mgrwt>
<rscale>  2 0.23031779E+03</rscale>
<asrwt>0</asrwt>
<pdfrwt beam="1">  1       21 0.36337296E-01 0.23031779E+03</pdfrwt>
<pdfrwt beam="2">  1       21 0.10240724E+00 0.23031779E+03</pdfrwt>
<totfact> 0.55102606E+03</totfact>
</mgrwt>
</event>
<event>
 4    1  0.1086582E+000  0.1785024E+03  0.7546771E-02  0.1169260E+00
         21   -1    0    0  503  502  0.00000000000E+00  0.00000000000E+00  0.67968382342E+03  0.67968382342E+03  0.00000000000E+00 0.  1.
         21   -1    0    0  501  503 -0.00000000000E+00 -0.00000000000E+00 -0.56850693532E+02  0.56850693532E+02  0.00000000000E+00 0.  1.
          6    1    1    2  501    0  0.47691497138E+02 -0.21512159941E+01  0.15718509394E+03  0.23784503439E+03  0.17200000000E+03 0.  1.
         -6    1    1    2    0  502 -0.47691497138E+02  0.21512159941E+01  0.46564803595E+03  0.49868948256E+03  0.17200000000E+03 0.  1.
<mgrwt>
<rscale>  2 0.17850240E+03</rscale>
<asrwt>0</asrwt>
<pdfrwt beam="1">  1       21 0.16992093E+00 0.17850240E+03</pdfrwt>
<pdfrwt beam="2">  1       21 0.14212676E-01 0.17850240E+03</pdfrwt>
<totfact> 0.93507643E+03</totfact>
</mgrwt>
</event>
<event>
 4    1  0.1086582E+000  0.4483625E+03  0.7546771E-02  0.1028211E+00
         21   -1    0    0  501  502  0.00000000000E+00  0.00000000000E+00  0.10518776960E+04  0.10518776960E+04  0.00000000000E+00 0. -1.
         21   -1    0    0  502  503 -0.00000000000E+00 -0.00000000000E+00 -0.30238610792E+03  0.30238610792E+03  0.00000000000E+00 0.  1.
          6    1    1    2  501    0  0.56102276253E+02 -0.41024076926E+03  0.78550260460E+03  0.90445745947E+03  0.17200000000E+03 0. -1.
         -6    1    1    2    0  503 -0.56102276253E+02  0.41024076926E+03 -0.36011016561E+02  0.44980634441E+03  0.17200000000E+03 0.  1.
<mgrwt>
<rscale>  2 0.44836253E+03</rscale>
<asrwt>0</asrwt>
<pdfrwt beam="1">  1       21 0.26296942E+00 0.44836253E+03</pdfrwt>
<pdfrwt beam="2">  1       21 0.75596529E-01 0.44836253E+03</pdfrwt>
<totfact> 0.67732120E+01</totfact>
</mgrwt>
</event>
<event>
 4    1  0.1086582E+000  0.2448091E+03  0.7546771E-02  0.1116630E+00
         21   -1    0    0  503  502  0.00000000000E+00  0.00000000000E+00  0.64075844864E+03  0.64075844864E+03  0.00000000000E+00 0. -1.
         21   -1    0    0  501  503 -0.00000000000E+00 -0.00000000000E+00 -0.21418766298E+03  0.21418766298E+03  0.00000000000E+00 0. -1.
          6    1    1    2  501    0  0.16203732997E+03  0.63963989149E+02 -0.10755214960E+03  0.26739288154E+03  0.17200000000E+03 0. -1.
         -6    1    1    2    0  502 -0.16203732997E+03 -0.63963989149E+02  0.53412293526E+03  0.58755323008E+03  0.17200000000E+03 0. -1.
<mgrwt>
<rscale>  2 0.24480909E+03</rscale>
<asrwt>0</asrwt>
<pdfrwt beam="1">  1       21 0.16018961E+00 0.24480909E+03</pdfrwt>
<pdfrwt beam="2">  1       21 0.53546917E-01 0.24480909E+03</pdfrwt>
<totfact> 0.78667073E+02</totfact>
</mgrwt>
</event>
<event>
 4    1  0.1086582E+000  0.1946322E+03  0.7546771E-02  0.1154349E+00
         21   -1    0    0  501  502  0.00000000000E+00  0.00000000000E+00  0.50727086079E+03  0.50727086079E+03  0.00000000000E+00 0. -1.
         21   -1    0    0  502  503 -0.00000000000E+00 -0.00000000000E+00 -0.21821112411E+03  0.21821112411E+03  0.00000000000E+00 0. -1.
          6    1    1    2  501    0  0.89986178693E+02 -0.14148475605E+02  0.43872474301E+03  0.47995946896E+03  0.17200000000E+03 0. -1.
         -6    1    1    2    0  503 -0.89986178693E+02  0.14148475605E+02 -0.14966500632E+03  0.24552251594E+03  0.17200000000E+03 0. -1.
<mgrwt>
<rscale>  2 0.19463220E+03</rscale>
<asrwt>0</asrwt>
<pdfrwt beam="1">  1       21 0.12681771E+00 0.19463220E+03</pdfrwt>
<pdfrwt beam="2">  1       21 0.54552782E-01 0.19463220E+03</pdfrwt>
<totfact> 0.14572751E+03</totfact>
</mgrwt>
</event>
<event>
 4    1  0.1086582E+000  0.1784552E+03  0.7546771E-02  0.1169307E+00
         21   -1    0    0  503  502  0.00000000000E+00  0.00000000000E+00  0.60892170756E+03  0.60892170756E+03  0.00000000000E+00 0.  1.
         21   -1    0    0  501  503 -0.00000000000E+00 -0.00000000000E+00 -0.63407931069E+02  0.63407931069E+02  0.00000000000E+00 0.  1.
          6    1    1    2  501    0  0.18225863598E+02  0.43932746536E+02  0.13205242426E+03  0.22200025017E+03  0.17200000000E+03 0.  1.
         -6    1    1    2    0  502 -0.18225863598E+02 -0.43932746536E+02  0.41346135224E+03  0.45032938846E+03  0.17200000000E+03 0.  1.
<mgrwt>
<rscale>  2 0.17845523E+03</rscale>
<asrwt>0</asrwt>
<pdfrwt beam="1">  1       21 0.15223041E+00 0.17845523E+03</pdfrwt>
<pdfrwt beam="2">  1       21 0.15851985E-01 0.17845523E+03</pdfrwt>
<totfact> 0.10308235E+04</totfact>
</mgrwt>
</event>
<event>
 4    1  0.1086582E+000  0.2439697E+03  0.7546771E-02  0.1117176E+00
         21   -1    0    0  501  502  0.00000000000E+00  0.00000000000E+00  0.52006493396E+03  0.52006493396E+03  0.00000000000E+00 0.  1.
         21   -1    0    0  502  503 -0.00000000000E+00 -0.00000000000E+00 -0.15590081352E+03  0.15590081352E+03  0.00000000000E+00 0.  1.
          6    1    1    2  501    0 -0.14088010746E+03 -0.10044896301E+03  0.35635878048E+03  0.43187125312E+03  0.17200000000E+03 0.  1.
         -6    1    1    2    0  503  0.14088010746E+03  0.10044896301E+03  0.78053399567E+01  0.24409449436E+03  0.17200000000E+03 0.  1.
<mgrwt>
<rscale>  2 0.24396967E+03</rscale>
<asrwt>0</asrwt>
<pdfrwt beam="1">  1       21 0.13001623E+00 0.24396967E+03</pdfrwt>
<pdfrwt beam="2">  1       21 0.38975205E-01 0.24396967E+03</pdfrwt>
<totfact> 0.26300722E+03</totfact>
</mgrwt>
</event>
<event>
 4    1  0.1086582E+000  0.1877655E+03  0.7546771E-02  0.1160492E+00
         21   -1    0    0  501  502  0.00000000000E+00  0.00000000000E+00  0.29829543282E+03  0.29829543282E+03  0.00000000000E+00 0.  1.
         21   -1    0    0  502  503 -0.00000000000E+00 -0.00000000000E+00 -0.12742424530E+03  0.12742424530E+03  0.00000000000E+00 0.  1.
          6    1    1    2  501    0 -0.43421151549E+02  0.61534434669E+02  0.14273381399E+03  0.23585763652E+03  0.17200000000E+03 0. -1.
         -6    1    1    2    0  503  0.43421151549E+02 -0.61534434669E+02  0.28137373532E+02  0.18986204160E+03  0.17200000000E+03 0. -1.
<mgrwt>
<rscale>  2 0.18776550E+03</rscale>
<asrwt>0</asrwt>
<pdfrwt beam="1">  1       21 0.74573857E-01 0.18776550E+03</pdfrwt>
<pdfrwt beam="2">  1       21 0.31856062E-01 0.18776550E+03</pdfrwt>
<totfact> 0.15305907E+04</totfact>
</mgrwt>
</event>
<event>
 4    1  0.1086582E+000  0.1767055E+03  0.7546771E-02  0.1171030E+00
         21   -1    0    0  503  502  0.00000000000E+00  0.00000000000E+00  0.22471610916E+03  0.22471610916E+03  0.00000000000E+00 0. -1.
         21   -1    0    0  501  503 -0.00000000000E+00 -0.00000000000E+00 -0.35486774085E+03  0.35486774085E+03  0.00000000000E+00 0. -1.
          6    1    1    2  501    0 -0.62401393830E+01  0.40023743787E+02 -0.29112075264E+03  0.34055268612E+03  0.17200000000E+03 0. -1.
         -6    1    1    2    0  502  0.62401393830E+01 -0.40023743787E+02  0.16096912095E+03  0.23903116388E+03  0.17200000000E+03 0. -1.
<mgrwt>
<rscale>  2 0.17670552E+03</rscale>
<asrwt>0</asrwt>
<pdfrwt beam="1">  1       21 0.56179028E-01 0.17670552E+03</pdfrwt>
<pdfrwt beam="2">  1       21 0.88716934E-01 0.17670552E+03</pdfrwt>
<totfact> 0.32836168E+03</totfact>
</mgrwt>
</event>
<event>
 4    1  0.1086582E+000  0.2215132E+03  0.7546771E-02  0.1132760E+00
         21   -1    0    0  501  502  0.00000000000E+00  0.00000000000E+00  0.16467027316E+03  0.16467027316E+03  0.00000000000E+00 0.  1.
         21   -1    0    0  502  503 -0.00000000000E+00 -0.00000000000E+00 -0.39790009640E+03  0.39790009640E+03  0.00000000000E+00 0.  1.
          6    1    1    2  501    0  0.36516490627E+02  0.13472435938E+03  0.24343422169E+02  0.22284682924E+03  0.17200000000E+03 0.  1.
         -6    1    1    2    0  503 -0.36516490627E+02 -0.13472435938E+03 -0.25757324541E+03  0.33972354032E+03  0.17200000000E+03 0.  1.
<mgrwt>
<rscale>  2 0.22151322E+03</rscale>
<asrwt>0</asrwt>
<pdfrwt beam="1">  1       21 0.41167569E-01 0.22151322E+03</pdfrwt>
<pdfrwt beam="2">  1       21 0.99475023E-01 0.22151322E+03</pdfrwt>
<totfact> 0.46199107E+03</totfact>
</mgrwt>
</event>
<event>
 4    1  0.1086582E+000  0.1936099E+03  0.7546771E-02  0.1155245E+00
         21   -1    0    0  501  502  0.00000000000E+00  0.00000000000E+00  0.52267652261E+03  0.52267652261E+03  0.00000000000E+00 0. -1.
         21   -1    0    0  502  503 -0.00000000000E+00 -0.00000000000E+00 -0.98174902895E+02  0.98174902895E+02  0.00000000000E+00 0. -1.
          6    1    1    2  501    0 -0.98658244609E+01 -0.88337247977E+02  0.37340253986E+03  0.42061176950E+03  0.17200000000E+03 0. -1.
         -6    1    1    2    0  503  0.98658244609E+01  0.88337247977E+02  0.51099079853E+02  0.20023965600E+03  0.17200000000E+03 0. -1.
<mgrwt>
<rscale>  2 0.19360993E+03</rscale>
<asrwt>0</asrwt>
<pdfrwt beam="1">  1       21 0.13066912E+00 0.19360993E+03</pdfrwt>
<pdfrwt beam="2">  1       21 0.24543727E-01 0.19360993E+03</pdfrwt>
<totfact> 0.66893283E+03</totfact>
</mgrwt>
</event>
<event>
 4    1  0.1086582E+000  0.2393507E+03  0.7546771E-02  0.1120226E+00
         21   -1    0    0  503  502  0.00000000000E+00  0.00000000000E+00  0.29632880449E+03  0.29632880449E+03  0.00000000000E+00 0. -1.
         21   -1    0    0  501  503 -0.00000000000E+00 -0.00000000000E+00 -0.26259732918E+03  0.26259732918E+03  0.00000000000E+00 0. -1.
          6    1    1    2  501    0 -0.87584011396E+02 -0.14154080325E+03 -0.12666624055E+03  0.27080083924E+03  0.17200000000E+03 0. -1.
         -6    1    1    2    0  502  0.87584011396E+02  0.14154080325E+03  0.16039771587E+03  0.28812529443E+03  0.17200000000E+03 0. -1.
<mgrwt>
<rscale>  2 0.23935070E+03</rscale>
<asrwt>0</asrwt>
<pdfrwt beam="1">  1       21 0.74082201E-01 0.23935070E+03</pdfrwt>
<pdfrwt beam="2">  1       21 0.65649332E-01 0.23935070E+03</pdfrwt>
<totfact> 0.33626636E+03</totfact>
</mgrwt>
</event>
<event>
 4    1  0.1086582E+000  0.1752532E+03  0.7546771E-02  0.1172478E+00
         21   -1    0    0  501  502  0.00000000000E+00  0.00000000000E+00  0.19554476920E+03  0.19554476920E+03  0.00000000000E+00 0.  1.
         21   -1    0    0  502  503 -0.00000000000E+00 -0.00000000000E+00 -0.17923921310E+03  0.17923921310E+03  0.00000000000E+00 0.  1.
          6    1    1    2  501    0 -0.26448467031E+02  0.20740192403E+02  0.74060559573E+02  0.19025941100E+03  0.17200000000E+03 0.  1.
         -6    1    1    2    0  503  0.26448467031E+02 -0.20740192403E+02 -0.57755003474E+02  0.18452457131E+03  0.17200000000E+03 0.  1.
<mgrwt>
<rscale>  2 0.17525318E+03</rscale>
<asrwt>0</asrwt>
<pdfrwt beam="1">  1       21 0.48886192E-01 0.17525318E+03</pdfrwt>
<pdfrwt beam="2">  1       21 0.44809803E-01 0.17525318E+03</pdfrwt>
<totfact> 0.19291349E+04</totfact>
</mgrwt>
</event>
<event>
 4    1  0.1086582E+000  0.1841168E+03  0.7546771E-02  0.1163877E+00
         21   -1    0    0  501  502  0.00000000000E+00  0.00000000000E+00  0.54401263476E+03  0.54401263476E+03  0.00000000000E+00 0.  1.
         21   -1    0    0  502  503 -0.00000000000E+00 -0.00000000000E+00 -0.69717762337E+02  0.69717762337E+02  0.00000000000E+00 0.  1.
          6    1    1    2  501    0 -0.12882895329E+01  0.65676102302E+02  0.33715529588E+03  0.38415192781E+03  0.17200000000E+03 0.  1.
         -6    1    1    2    0  503  0.12882895329E+01 -0.65676102302E+02  0.13713957654E+03  0.22957846928E+03  0.17200000000E+03 0.  1.
<mgrwt>
<rscale>  2 0.18411684E+03</rscale>
<asrwt>0</asrwt>
<pdfrwt beam="1">  1       21 0.13600315E+00 0.18411684E+03</pdfrwt>
<pdfrwt beam="2">  1       21 0.17429442E-01 0.18411684E+03</pdfrwt>
<totfact> 0.11557539E+04</totfact>
</mgrwt>
</event>
<event>
 4    1  0.1086582E+000  0.1953447E+03  0.7546771E-02  0.1153727E+00
         21   -1    0    0  501  502  0.00000000000E+00  0.00000000000E+00  0.64937938827E+02  0.64937938827E+02  0.00000000000E+00 0.  1.
         21   -1    0    0  502  503 -0.00000000000E+00 -0.00000000000E+00 -0.63726249867E+03  0.63726249867E+03  0.00000000000E+00 0.  1.
          6    1    1    2  501    0 -0.66524191089E+02  0.64421107404E+02 -0.38414523568E+03  0.43096068171E+03  0.17200000000E+03 0.  1.
         -6    1    1    2    0  503  0.66524191089E+02 -0.64421107404E+02 -0.18817932415E+03  0.27123975578E+03  0.17200000000E+03 0.  1.
<mgrwt>
<rscale>  2 0.19534469E+03</rscale>
<asrwt>0</asrwt>
<pdfrwt beam="1">  1       21 0.16234485E-01 0.19534469E+03</pdfrwt>
<pdfrwt beam="2">  1       21 0.15931563E+00 0.19534469E+03</pdfrwt>
<totfact> 0.86264719E+03</totfact>
</mgrwt>
</event>
<event>
 4    1  0.1086582E+000  0.2200833E+03  0.7546771E-02  0.1133821E+00
         21   -1    0    0  501  502  0.00000000000E+00  0.00000000000E+00  0.26600653873E+03  0.26600653873E+03  0.00000000000E+00 0. -1.
         21   -1    0    0  502  503 -0.00000000000E+00 -0.00000000000E+00 -0.18215071006E+03  0.18215071006E+03  0.00000000000E+00 0. -1.
          6    1    1    2  501    0  0.73827127748E+02 -0.11576801597E+03  0.37780152976E+02  0.22330252634E+03  0.17200000000E+03 0. -1.
         -6    1    1    2    0  503 -0.73827127748E+02  0.11576801597E+03  0.46075675698E+02  0.22485472244E+03  0.17200000000E+03 0. -1.
<mgrwt>
<rscale>  2 0.22008334E+03</rscale>
<asrwt>0</asrwt>
<pdfrwt beam="1">  1       21 0.66501634E-01 0.22008334E+03</pdfrwt>
<pdfrwt beam="2">  1       21 0.45537678E-01 0.22008334E+03</pdfrwt>
<totfact> 0.94132684E+03</totfact>
</mgrwt>
</event>
<event>
 4    1  0.1086582E+000  0.2553753E+03  0.7546771E-02  0.1109954E+00
         21   -1    0    0  503  502  0.00000000000E+00  0.00000000000E+00  0.44001007127E+03  0.44001007127E+03  0.00000000000E+00 0. -1.
         21   -1    0    0  501  503 -0.00000000000E+00 -0.00000000000E+00 -0.14903510449E+03  0.14903510449E+03  0.00000000000E+00 0. -1.
          6    1    1    2  501    0  0.15682019952E+03 -0.10507135332E+03  0.12365390246E+03  0.28373729374E+03  0.17200000000E+03 0. -1.
         -6    1    1    2    0  502 -0.15682019952E+03  0.10507135332E+03  0.16732106432E+03  0.30530788203E+03  0.17200000000E+03 0. -1.
<mgrwt>
<rscale>  2 0.25537534E+03</rscale>
<asrwt>0</asrwt>
<pdfrwt beam="1">  1       21 0.11000251E+00 0.25537534E+03</pdfrwt>
<pdfrwt beam="2">  1       21 0.37258777E-01 0.25537534E+03</pdfrwt>
<totfact> 0.43349694E+03</totfact>
</mgrwt>
</event>
<event>
 4    1  0.1086582E+000  0.1816700E+03  0.7546771E-02  0.1166197E+00
         21   -1    0    0  503  502  0.00000000000E+00  0.00000000000E+00  0.10833788655E+03  0.10833788655E+03  0.00000000000E+00 0. -1.
         21   -1    0    0  501  503 -0.00000000000E+00 -0.00000000000E+00 -0.50385318265E+03  0.50385318265E+03  0.00000000000E+00 0. -1.
          6    1    1    2  501    0 -0.36282459045E+02 -0.45864841764E+02 -0.39022832033E+03  0.43044412243E+03  0.17200000000E+03 0. -1.
         -6    1    1    2    0  502  0.36282459045E+02  0.45864841764E+02 -0.52869757675E+01  0.18174694676E+03  0.17200000000E+03 0. -1.
<mgrwt>
<rscale>  2 0.18167003E+03</rscale>
<asrwt>0</asrwt>
<pdfrwt beam="1">  1       21 0.27084472E-01 0.18167003E+03</pdfrwt>
<pdfrwt beam="2">  1       21 0.12596329E+00 0.18167003E+03</pdfrwt>
<totfact> 0.61325394E+03</totfact>
</mgrwt>
</event>
<event>
 4    1  0.1086582E+000  0.1847612E+03  0.7546771E-02  0.1163273E+00
         21   -1    0    0  503  502  0.00000000000E+00  0.00000000000E+00  0.28943892136E+03  0.28943892136E+03  0.00000000000E+00 0.  1.
         21   -1    0    0  501  503 -0.00000000000E+00 -0.00000000000E+00 -0.11964732367E+03  0.11964732367E+03  0.00000000000E+00 0.  1.
          6    1    1    2  501    0 -0.46296560926E+02 -0.49085012219E+02  0.60468993882E+02  0.19440475611E+03  0.17200000000E+03 0. -1.
         -6    1    1    2    0  502  0.46296560926E+02  0.49085012219E+02  0.10932260382E+03  0.21468148892E+03  0.17200000000E+03 0. -1.
<mgrwt>
<rscale>  2 0.18476122E+03</rscale>
<asrwt>0</asrwt>
<pdfrwt beam="1">  1       21 0.72359729E-01 0.18476122E+03</pdfrwt>
<pdfrwt beam="2">  1       21 0.29911831E-01 0.18476122E+03</pdfrwt>
<totfact> 0.18543333E+04</totfact>
</mgrwt>
</event>
<event>
 4    1  0.1086582E+000  0.2374180E+03  0.7546771E-02  0.1121525E+00
         21   -1    0    0  503  502  0.00000000000E+00  0.00000000000E+00  0.45802999320E+03  0.45802999320E+03  0.00000000000E+00 0. -1.
         21   -1    0    0  501  503 -0.00000000000E+00 -0.00000000000E+00 -0.13885305828E+03  0.13885305828E+03  0.00000000000E+00 0. -1.
          6    1    1    2  501    0 -0.16315316778E+03  0.12820210249E+02  0.58953176569E+02  0.24462786222E+03  0.17200000000E+03 0. -1.
         -6    1    1    2    0  502  0.16315316778E+03 -0.12820210249E+02  0.26022375835E+03  0.35225518926E+03  0.17200000000E+03 0. -1.
<mgrwt>
<rscale>  2 0.23741802E+03</rscale>
<asrwt>0</asrwt>
<pdfrwt beam="1">  1       21 0.11450749E+00 0.23741802E+03</pdfrwt>
<pdfrwt beam="2">  1       21 0.34713266E-01 0.23741802E+03</pdfrwt>
<totfact> 0.45812958E+03</totfact>
</mgrwt>
</event>
<event>
 4    1  0.1086582E+000  0.3247452E+03  0.7546771E-02  0.1073486E+00
         21   -1    0    0  501  502  0.00000000000E+00  0.00000000000E+00  0.19220452258E+03  0.19220452258E+03  0.00000000000E+00 0. -1.
         21   -1    0    0  502  503 -0.00000000000E+00 -0.00000000000E+00 -0.19585456809E+04  0.19585456809E+04  0.00000000000E+00 0.  1.
          6    1    1    2  501    0  0.15828601801E+03  0.22543503454E+03  0.29221445207E+02  0.32605722067E+03  0.17200000000E+03 0. -1.
         -6    1    1    2    0  503 -0.15828601801E+03 -0.22543503454E+03 -0.17955626036E+04  0.18246929828E+04  0.17200000000E+03 0.  1.
<mgrwt>
<rscale>  2 0.32474516E+03</rscale>
<asrwt>0</asrwt>
<pdfrwt beam="1">  1       21 0.48051132E-01 0.32474516E+03</pdfrwt>
<pdfrwt beam="2">  1       21 0.48963641E+00 0.32474516E+03</pdfrwt>
<totfact> 0.74773558E+00</totfact>
</mgrwt>
</event>
<event>
 4    1  0.1086582E+000  0.2312893E+03  0.7546771E-02  0.1125736E+00
         21   -1    0    0  501  502  0.00000000000E+00  0.00000000000E+00  0.18468840235E+03  0.18468840235E+03  0.00000000000E+00 0.  1.
         21   -1    0    0  502  503 -0.00000000000E+00 -0.00000000000E+00 -0.40778821763E+03  0.40778821763E+03  0.00000000000E+00 0.  1.
          6    1    1    2  501    0  0.15453414764E+03  0.54699474964E+01  0.47899094296E+02  0.23619704983E+03  0.17200000000E+03 0.  1.
         -6    1    1    2    0  503 -0.15453414764E+03 -0.54699474964E+01 -0.27099890958E+03  0.35627957015E+03  0.17200000000E+03 0.  1.
<mgrwt>
<rscale>  2 0.23128926E+03</rscale>
<asrwt>0</asrwt>
<pdfrwt beam="1">  1       21 0.46172101E-01 0.23128926E+03</pdfrwt>
<pdfrwt beam="2">  1       21 0.10194705E+00 0.23128926E+03</pdfrwt>
<totfact> 0.34179664E+03</totfact>
</mgrwt>
</event>
<event>
 4    1  0.1086582E+000  0.2683330E+03  0.7546771E-02  0.1102237E+00
         21   -1    0    0  501  502  0.00000000000E+00  0.00000000000E+00  0.22991350971E+03  0.22991350971E+03  0.00000000000E+00 0. -1.
         21   -1    0    0  502  503 -0.00000000000E+00 -0.00000000000E+00 -0.42290003275E+03  0.42290003275E+03  0.00000000000E+00 0.  1.
          6    1    1    2  501    0  0.18878623608E+03 -0.82330789057E+02  0.69770650212E+02  0.27725537937E+03  0.17200000000E+03 0. -1.
         -6    1    1    2    0  503 -0.18878623608E+03  0.82330789057E+02 -0.26275717326E+03  0.37555816308E+03  0.17200000000E+03 0. -1.
<mgrwt>
<rscale>  2 0.26833301E+03</rscale>
<asrwt>0</asrwt>
<pdfrwt beam="1">  1       21 0.57478378E-01 0.26833301E+03</pdfrwt>
<pdfrwt beam="2">  1       21 0.10572501E+00 0.26833301E+03</pdfrwt>
<totfact> 0.19226356E+03</totfact>
</mgrwt>
</event>
<event>
 4    1  0.1086582E+000  0.1839839E+03  0.7546771E-02  0.1164002E+00
         21   -1    0    0  503  502  0.00000000000E+00  0.00000000000E+00  0.66703640341E+03  0.66703640341E+03  0.00000000000E+00 0.  1.
         21   -1    0    0  501  503 -0.00000000000E+00 -0.00000000000E+00 -0.53309028497E+02  0.53309028497E+02  0.00000000000E+00 0.  1.
          6    1    1    2  501    0 -0.65280569586E+02  0.21274898500E+01  0.22790414669E+03  0.29289994718E+03  0.17200000000E+03 0.  1.
         -6    1    1    2    0  502  0.65280569586E+02 -0.21274898500E+01  0.38582322822E+03  0.42744548473E+03  0.17200000000E+03 0.  1.
<mgrwt>
<rscale>  2 0.18398391E+03</rscale>
<asrwt>0</asrwt>
<pdfrwt beam="1">  1       21 0.16675907E+00 0.18398391E+03</pdfrwt>
<pdfrwt beam="2">  1       21 0.13327259E-01 0.18398391E+03</pdfrwt>
<totfact> 0.11007103E+04</totfact>
</mgrwt>
</event>
<event>
 4    1  0.1086582E+000  0.2099765E+03  0.7546771E-02  0.1141585E+00
         21   -1    0    0  501  502  0.00000000000E+00  0.00000000000E+00  0.50711714797E+02  0.50711714797E+02  0.00000000000E+00 0.  1.
         21   -1    0    0  502  503 -0.00000000000E+00 -0.00000000000E+00 -0.90543670253E+03  0.90543670253E+03  0.00000000000E+00 0.  1.
          6    1    1    2  501    0 -0.12790682637E+02 -0.11976037022E+03 -0.52270232887E+03  0.56330087204E+03  0.17200000000E+03 0.  1.
         -6    1    1    2    0  503  0.12790682637E+02  0.11976037022E+03 -0.33202265886E+03  0.39284754529E+03  0.17200000000E+03 0.  1.
<mgrwt>
<rscale>  2 0.20997654E+03</rscale>
<asrwt>0</asrwt>
<pdfrwt beam="1">  1       21 0.12677929E-01 0.20997654E+03</pdfrwt>
<pdfrwt beam="2">  1       21 0.22635917E+00 0.20997654E+03</pdfrwt>
<totfact> 0.48116322E+03</totfact>
</mgrwt>
</event>
<event>
 4    1  0.1086582E+000  0.1829363E+03  0.7546771E-02  0.1164991E+00
         21   -1    0    0  503  502  0.00000000000E+00  0.00000000000E+00  0.40869633836E+03  0.40869633836E+03  0.00000000000E+00 0.  1.
         21   -1    0    0  501  503 -0.00000000000E+00 -0.00000000000E+00 -0.14271307803E+03  0.14271307803E+03  0.00000000000E+00 0.  1.
          6    1    1    2  501    0  0.58637137362E+02 -0.21056563665E+02 -0.47006460162E+02  0.18887906196E+03  0.17200000000E+03 0.  1.
         -6    1    1    2    0  502 -0.58637137362E+02  0.21056563665E+02  0.31298972049E+03  0.36253035443E+03  0.17200000000E+03 0.  1.
<mgrwt>
<rscale>  2 0.18293631E+03</rscale>
<asrwt>0</asrwt>
<pdfrwt beam="1">  1       21 0.10217408E+00 0.18293631E+03</pdfrwt>
<pdfrwt beam="2">  1       21 0.35678270E-01 0.18293631E+03</pdfrwt>
<totfact> 0.59529088E+03</totfact>
</mgrwt>
</event>
<event>
 4    1  0.1086582E+000  0.2103488E+03  0.7546771E-02  0.1141290E+00
         21   -1    0    0  503  502  0.00000000000E+00  0.00000000000E+00  0.16800639430E+03  0.16800639430E+03  0.00000000000E+00 0.  1.
         21   -1    0    0  501  503 -0.00000000000E+00 -0.00000000000E+00 -0.30340544086E+03  0.30340544086E+03  0.00000000000E+00 0.  1.
          6    1    1    2  501    0  0.65750559361E+02 -0.10168329167E+03 -0.15332842452E+03  0.26030027589E+03  0.17200000000E+03 0.  1.
         -6    1    1    2    0  502 -0.65750559361E+02  0.10168329167E+03  0.17929377961E+02  0.21111155926E+03  0.17200000000E+03 0.  1.
<mgrwt>
<rscale>  2 0.21034882E+03</rscale>
<asrwt>0</asrwt>
<pdfrwt beam="1">  1       21 0.42001599E-01 0.21034882E+03</pdfrwt>
<pdfrwt beam="2">  1       21 0.75851360E-01 0.21034882E+03</pdfrwt>
<totfact> 0.83532955E+03</totfact>
</mgrwt>
</event>
<event>
 4    1  0.1086582E+000  0.1934644E+03  0.7546771E-02  0.1155373E+00
         21   -1    0    0  503  502  0.00000000000E+00  0.00000000000E+00  0.28167429389E+03  0.28167429389E+03  0.00000000000E+00 0.  1.
         21   -1    0    0  501  503 -0.00000000000E+00 -0.00000000000E+00 -0.13704189906E+03  0.13704189906E+03  0.00000000000E+00 0. -1.
          6    1    1    2  501    0  0.76634327636E+02  0.44403199440E+02  0.10880720614E+03  0.22196277256E+03  0.17200000000E+03 0.  1.
         -6    1    1    2    0  502 -0.76634327636E+02 -0.44403199440E+02  0.35825188681E+02  0.19675342039E+03  0.17200000000E+03 0.  1.
<mgrwt>
<rscale>  2 0.19346437E+03</rscale>
<asrwt>0</asrwt>
<pdfrwt beam="1">  1       21 0.70418572E-01 0.19346437E+03</pdfrwt>
<pdfrwt beam="2">  1       21 0.34260475E-01 0.19346437E+03</pdfrwt>
<totfact> 0.15006232E+04</totfact>
</mgrwt>
</event>
<event>
 4    1  0.1086582E+000  0.2289408E+03  0.7546771E-02  0.1127388E+00
         21   -1    0    0  503  502  0.00000000000E+00  0.00000000000E+00  0.82860603867E+03  0.82860603867E+03  0.00000000000E+00 0. -1.
         21   -1    0    0  501  503 -0.00000000000E+00 -0.00000000000E+00 -0.94445089797E+02  0.94445089797E+02  0.00000000000E+00 0.  1.
          6    1    1    2  501    0  0.45818104965E+02  0.14398113965E+03  0.10185753377E+03  0.25057698319E+03  0.17200000000E+03 0.  1.
         -6    1    1    2    0  502 -0.45818104965E+02 -0.14398113965E+03  0.63230341510E+03  0.67247414528E+03  0.17200000000E+03 0. -1.
<mgrwt>
<rscale>  2 0.22894075E+03</rscale>
<asrwt>0</asrwt>
<pdfrwt beam="1">  1       21 0.20715149E+00 0.22894075E+03</pdfrwt>
<pdfrwt beam="2">  1       21 0.23611275E-01 0.22894075E+03</pdfrwt>
<totfact> 0.19700586E+03</totfact>
</mgrwt>
</event>
<event>
 4    1  0.1086582E+000  0.1774521E+03  0.7546771E-02  0.1170292E+00
         21   -1    0    0  501  502  0.00000000000E+00  0.00000000000E+00  0.57200540539E+03  0.57200540539E+03  0.00000000000E+00 0.  1.
         21   -1    0    0  502  503 -0.00000000000E+00 -0.00000000000E+00 -0.59308190879E+02  0.59308190879E+02  0.00000000000E+00 0.  1.
          6    1    1    2  501    0  0.16154291097E+02 -0.40549670490E+02  0.17177397516E+03  0.24697274230E+03  0.17200000000E+03 0.  1.
         -6    1    1    2    0  503 -0.16154291097E+02  0.40549670490E+02  0.34092323935E+03  0.38434085397E+03  0.17200000000E+03 0.  1.
<mgrwt>
<rscale>  2 0.17745207E+03</rscale>
<asrwt>0</asrwt>
<pdfrwt beam="1">  1       21 0.14300133E+00 0.17745207E+03</pdfrwt>
<pdfrwt beam="2">  1       21 0.14827049E-01 0.17745207E+03</pdfrwt>
<totfact> 0.13718993E+04</totfact>
</mgrwt>
</event>
<event>
 4    1  0.1086582E+000  0.1832962E+03  0.7546771E-02  0.1164651E+00
         21   -1    0    0  501  502  0.00000000000E+00  0.00000000000E+00  0.44742695036E+03  0.44742695036E+03  0.00000000000E+00 0. -1.
         21   -1    0    0  502  503 -0.00000000000E+00 -0.00000000000E+00 -0.80092543688E+02  0.80092543688E+02  0.00000000000E+00 0. -1.
          6    1    1    2  501    0 -0.12888661069E+02 -0.62027350093E+02  0.24958255460E+03  0.30965942793E+03  0.17200000000E+03 0. -1.
         -6    1    1    2    0  503  0.12888661069E+02  0.62027350093E+02  0.11775185207E+03  0.21786006612E+03  0.17200000000E+03 0. -1.
<mgrwt>
<rscale>  2 0.18329623E+03</rscale>
<asrwt>0</asrwt>
<pdfrwt beam="1">  1       21 0.11185673E+00 0.18329623E+03</pdfrwt>
<pdfrwt beam="2">  1       21 0.20023137E-01 0.18329623E+03</pdfrwt>
<totfact> 0.14535708E+04</totfact>
</mgrwt>
</event>
<event>
 4    1  0.1086582E+000  0.2018610E+03  0.7546771E-02  0.1148178E+00
         21   -1    0    0  503  502  0.00000000000E+00  0.00000000000E+00  0.35077452455E+03  0.35077452455E+03  0.00000000000E+00 0.  1.
         21   -1    0    0  501  503 -0.00000000000E+00 -0.00000000000E+00 -0.35681910237E+03  0.35681910237E+03  0.00000000000E+00 0.  1.
          6    1    1    2  501    0 -0.43580277308E+02  0.96252859145E+02 -0.29357582619E+03  0.35627885032E+03  0.17200000000E+03 0.  1.
         -6    1    1    2    0  502  0.43580277308E+02 -0.96252859145E+02  0.28753124837E+03  0.35131477659E+03  0.17200000000E+03 0.  1.
<mgrwt>
<rscale>  2 0.20186098E+03</rscale>
<asrwt>0</asrwt>
<pdfrwt beam="1">  1       21 0.87693631E-01 0.20186098E+03</pdfrwt>
<pdfrwt beam="2">  1       21 0.89204776E-01 0.20186098E+03</pdfrwt>
<totfact> 0.11855028E+03</totfact>
</mgrwt>
</event>
<event>
 4    1  0.1086582E+000  0.1807883E+03  0.7546771E-02  0.1167042E+00
         21   -1    0    0  503  502  0.00000000000E+00  0.00000000000E+00  0.61391691165E+03  0.61391691165E+03  0.00000000000E+00 0.  1.
         21   -1    0    0  501  503 -0.00000000000E+00 -0.00000000000E+00 -0.85316280929E+02  0.85316280929E+02  0.00000000000E+00 0. -1.
          6    1    1    2  501    0 -0.37337582642E+02 -0.41307395640E+02  0.49925360781E+02  0.18755515898E+03  0.17200000000E+03 0. -1.
         -6    1    1    2    0  502  0.37337582642E+02  0.41307395640E+02  0.47867526994E+03  0.51167803360E+03  0.17200000000E+03 0.  1.
<mgrwt>
<rscale>  2 0.18078826E+03</rscale>
<asrwt>0</asrwt>
<pdfrwt beam="1">  1       21 0.15347922E+00 0.18078826E+03</pdfrwt>
<pdfrwt beam="2">  1       21 0.21329072E-01 0.18078826E+03</pdfrwt>
<totfact> 0.58146343E+03</totfact>
</mgrwt>
</event>
<event>
 4    1  0.1086582E+000  0.1749474E+03  0.7546771E-02  0.1172784E+00
         21   -1    0    0  503  502  0.00000000000E+00  0.00000000000E+00  0.35533385428E+03  0.35533385428E+03  0.00000000000E+00 0. -1.
         21   -1    0    0  501  503 -0.00000000000E+00 -0.00000000000E+00 -0.87208826872E+02  0.87208826872E+02  0.00000000000E+00 0. -1.
          6    1    1    2  501    0 -0.54068866946E+01 -0.31517863600E+02  0.10950679206E+03  0.20639367155E+03  0.17200000000E+03 0. -1.
         -6    1    1    2    0  502  0.54068866946E+01  0.31517863600E+02  0.15861823534E+03  0.23614900959E+03  0.17200000000E+03 0. -1.
<mgrwt>
<rscale>  2 0.17494745E+03</rscale>
<asrwt>0</asrwt>
<pdfrwt beam="1">  1       21 0.88833460E-01 0.17494745E+03</pdfrwt>
<pdfrwt beam="2">  1       21 0.21802208E-01 0.17494745E+03</pdfrwt>
<totfact> 0.21489203E+04</totfact>
</mgrwt>
</event>
<event>
 4    1  0.1086582E+000  0.1955261E+03  0.7546771E-02  0.1153570E+00
         21   -1    0    0  503  502  0.00000000000E+00  0.00000000000E+00  0.66528980605E+03  0.66528980605E+03  0.00000000000E+00 0.  1.
         21   -1    0    0  501  503 -0.00000000000E+00 -0.00000000000E+00 -0.76117041552E+02  0.76117041552E+02  0.00000000000E+00 0.  1.
          6    1    1    2  501    0 -0.92771210336E+02 -0.63197294320E+01  0.11107771834E+03  0.22487484510E+03  0.17200000000E+03 0.  1.
         -6    1    1    2    0  502  0.92771210336E+02  0.63197294320E+01  0.47809504615E+03  0.51653200250E+03  0.17200000000E+03 0.  1.
<mgrwt>
<rscale>  2 0.19552605E+03</rscale>
<asrwt>0</asrwt>
<pdfrwt beam="1">  1       21 0.16632243E+00 0.19552605E+03</pdfrwt>
<pdfrwt beam="2">  1       21 0.19029262E-01 0.19552605E+03</pdfrwt>
<totfact> 0.57240076E+03</totfact>
</mgrwt>
</event>
<event>
 4    1  0.1086582E+000  0.3708535E+03  0.7546771E-02  0.1054367E+00
         21   -1    0    0  503  502  0.00000000000E+00  0.00000000000E+00  0.65842169871E+03  0.65842169871E+03  0.00000000000E+00 0.  1.
         21   -1    0    0  501  503 -0.00000000000E+00 -0.00000000000E+00 -0.20888203176E+03  0.20888203176E+03  0.00000000000E+00 0. -1.
          6    1    1    2  501    0 -0.32850103416E+03 -0.59511995138E+01  0.22437163317E+03  0.43344547060E+03  0.17200000000E+03 0.  1.
         -6    1    1    2    0  502  0.32850103416E+03  0.59511995138E+01  0.22516803379E+03  0.43385825987E+03  0.17200000000E+03 0. -1.
<mgrwt>
<rscale>  2 0.37085354E+03</rscale>
<asrwt>0</asrwt>
<pdfrwt beam="1">  1       21 0.16460542E+00 0.37085354E+03</pdfrwt>
<pdfrwt beam="2">  1       21 0.52220509E-01 0.37085354E+03</pdfrwt>
<totfact> 0.70528959E+02</totfact>
</mgrwt>
</event>
<event>
 4    1  0.1086582E+000  0.2473760E+03  0.7546771E-02  0.1114974E+00
         21   -1    0    0  503  502  0.00000000000E+00  0.00000000000E+00  0.34328854053E+02  0.34328854053E+02  0.00000000000E+00 0.  1.
         21   -1    0    0  501  503 -0.00000000000E+00 -0.00000000000E+00 -0.17838958276E+04  0.17838958276E+04  0.00000000000E+00 0. -1.
          6    1    1    2  501    0 -0.42788673167E+02  0.17256882192E+03 -0.85035115764E+03  0.88560259719E+03  0.17200000000E+03 0.  1.
         -6    1    1    2    0  502  0.42788673167E+02 -0.17256882192E+03 -0.89921581594E+03  0.93262208450E+03  0.17200000000E+03 0.  1.
<mgrwt>
<rscale>  2 0.24737597E+03</rscale>
<asrwt>0</asrwt>
<pdfrwt beam="1">  1       21 0.85822139E-02 0.24737597E+03</pdfrwt>
<pdfrwt beam="2">  1       21 0.44597394E+00 0.24737597E+03</pdfrwt>
<totfact> 0.43305574E+02</totfact>
</mgrwt>
</event>
<event>
 4    1  0.1086582E+000  0.2229909E+03  0.7546771E-02  0.1131673E+00
         21   -1    0    0  503  502  0.00000000000E+00  0.00000000000E+00  0.39445744576E+03  0.39445744576E+03  0.00000000000E+00 0. -1.
         21   -1    0    0  501  503 -0.00000000000E+00 -0.00000000000E+00 -0.34450248995E+03  0.34450248995E+03  0.00000000000E+00 0. -1.
          6    1    1    2  501    0 -0.44166364810E+02  0.13487137767E+03 -0.26923707726E+03  0.34959056060E+03  0.17200000000E+03 0. -1.
         -6    1    1    2    0  502  0.44166364810E+02 -0.13487137767E+03  0.31919203307E+03  0.38936937510E+03  0.17200000000E+03 0. -1.
<mgrwt>
<rscale>  2 0.22299093E+03</rscale>
<asrwt>0</asrwt>
<pdfrwt beam="1">  1       21 0.98614361E-01 0.22299093E+03</pdfrwt>
<pdfrwt beam="2">  1       21 0.86125623E-01 0.22299093E+03</pdfrwt>
<totfact> 0.95812973E+02</totfact>
</mgrwt>
</event>
<event>
 4    1  0.1086582E+000  0.2180903E+03  0.7546771E-02  0.1135315E+00
         21   -1    0    0  503  502  0.00000000000E+00  0.00000000000E+00  0.76696971170E+02  0.76696971170E+02  0.00000000000E+00 0. -1.
         21   -1    0    0  501  503 -0.00000000000E+00 -0.00000000000E+00 -0.81532210738E+03  0.81532210738E+03  0.00000000000E+00 0. -1.
          6    1    1    2  501    0 -0.67282170877E+02  0.11598486190E+03 -0.58753129166E+03  0.62670279830E+03  0.17200000000E+03 0. -1.
         -6    1    1    2    0  502  0.67282170877E+02 -0.11598486190E+03 -0.15109384454E+03  0.26531628025E+03  0.17200000000E+03 0. -1.
<mgrwt>
<rscale>  2 0.21809030E+03</rscale>
<asrwt>0</asrwt>
<pdfrwt beam="1">  1       21 0.19174243E-01 0.21809030E+03</pdfrwt>
<pdfrwt beam="2">  1       21 0.20383053E+00 0.21809030E+03</pdfrwt>
<totfact> 0.30932923E+03</totfact>
</mgrwt>
</event>
<event>
 4    1  0.1086582E+000  0.2259409E+03  0.7546771E-02  0.1129530E+00
         21   -1    0    0  503  502  0.00000000000E+00  0.00000000000E+00  0.37750643778E+03  0.37750643778E+03  0.00000000000E+00 0.  1.
         21   -1    0    0  501  503 -0.00000000000E+00 -0.00000000000E+00 -0.13731792721E+03  0.13731792721E+03  0.00000000000E+00 0.  1.
          6    1    1    2  501    0  0.96682263580E+02 -0.11008091813E+03  0.88334410165E+02  0.24259479930E+03  0.17200000000E+03 0.  1.
         -6    1    1    2    0  502 -0.96682263580E+02  0.11008091813E+03  0.15185410041E+03  0.27222956569E+03  0.17200000000E+03 0.  1.
<mgrwt>
<rscale>  2 0.22594085E+03</rscale>
<asrwt>0</asrwt>
<pdfrwt beam="1">  1       21 0.94376607E-01 0.22594085E+03</pdfrwt>
<pdfrwt beam="2">  1       21 0.34329483E-01 0.22594085E+03</pdfrwt>
<totfact> 0.75142741E+03</totfact>
</mgrwt>
</event>
<event>
 4    1  0.1086582E+000  0.1816681E+03  0.7546771E-02  0.1166198E+00
         21   -1    0    0  503  502  0.00000000000E+00  0.00000000000E+00  0.12804181973E+03  0.12804181973E+03  0.00000000000E+00 0. -1.
         21   -1    0    0  501  503 -0.00000000000E+00 -0.00000000000E+00 -0.26016062237E+03  0.26016062237E+03  0.00000000000E+00 0. -1.
          6    1    1    2  501    0  0.52904553225E+02 -0.24907780142E+02 -0.84728047599E+02  0.20045481115E+03  0.17200000000E+03 0.  1.
         -6    1    1    2    0  502 -0.52904553225E+02  0.24907780142E+02 -0.47390755044E+02  0.18774763095E+03  0.17200000000E+03 0.  1.
<mgrwt>
<rscale>  2 0.18166807E+03</rscale>
<asrwt>0</asrwt>
<pdfrwt beam="1">  1       21 0.32010455E-01 0.18166807E+03</pdfrwt>
<pdfrwt beam="2">  1       21 0.65040155E-01 0.18166807E+03</pdfrwt>
<totfact> 0.20563461E+04</totfact>
</mgrwt>
</event>
<event>
 4    1  0.1086582E+000  0.1800048E+03  0.7546771E-02  0.1167798E+00
         21   -1    0    0  503  502  0.00000000000E+00  0.00000000000E+00  0.17568087085E+03  0.17568087085E+03  0.00000000000E+00 0. -1.
         21   -1    0    0  501  503 -0.00000000000E+00 -0.00000000000E+00 -0.19313569222E+03  0.19313569222E+03  0.00000000000E+00 0.  1.
          6    1    1    2  501    0  0.38068311646E+02 -0.36993823031E+02 -0.47867397272E+02  0.18626064269E+03  0.17200000000E+03 0.  1.
         -6    1    1    2    0  502 -0.38068311646E+02  0.36993823031E+02  0.30412575899E+02  0.18255592038E+03  0.17200000000E+03 0. -1.
<mgrwt>
<rscale>  2 0.18000483E+03</rscale>
<asrwt>0</asrwt>
<pdfrwt beam="1">  1       21 0.43920218E-01 0.18000483E+03</pdfrwt>
<pdfrwt beam="2">  1       21 0.48283923E-01 0.18000483E+03</pdfrwt>
<totfact> 0.20561318E+04</totfact>
</mgrwt>
</event>
<event>
 4    1  0.1086582E+000  0.1920998E+03  0.7546771E-02  0.1156581E+00
         21   -1    0    0  503  502  0.00000000000E+00  0.00000000000E+00  0.12205673918E+04  0.12205673918E+04  0.00000000000E+00 0.  1.
         21   -1    0    0  501  503 -0.00000000000E+00 -0.00000000000E+00 -0.25309745235E+03  0.25309745235E+03  0.00000000000E+00 0.  1.
          6    1    1    2  501    0  0.55245508729E+02  0.65316693365E+02 -0.20768911791E+03  0.28290830028E+03  0.17200000000E+03 0.  1.
         -6    1    1    2    0  502 -0.55245508729E+02 -0.65316693365E+02  0.11751590574E+04  0.11907565439E+04  0.17200000000E+03 0.  1.
<mgrwt>
<rscale>  2 0.19209981E+03</rscale>
<asrwt>0</asrwt>
<pdfrwt beam="1">  1       21 0.30514183E+00 0.19209981E+03</pdfrwt>
<pdfrwt beam="2">  1       21 0.63274366E-01 0.19209981E+03</pdfrwt>
<totfact> 0.73745932E+01</totfact>
</mgrwt>
</event>
<event>
 4    1  0.1086582E+000  0.2186282E+03  0.7546771E-02  0.1134910E+00
         21   -1    0    0  503  502  0.00000000000E+00  0.00000000000E+00  0.60637556461E+02  0.60637556461E+02  0.00000000000E+00 0.  1.
         21   -1    0    0  501  503 -0.00000000000E+00 -0.00000000000E+00 -0.93272500962E+03  0.93272500962E+03  0.00000000000E+00 0. -1.
          6    1    1    2  501    0  0.11645434749E+03 -0.68210393369E+02 -0.63151346359E+03  0.66828700983E+03  0.17200000000E+03 0. -1.
         -6    1    1    2    0  502 -0.11645434749E+03  0.68210393369E+02 -0.24057398957E+03  0.32507555625E+03  0.17200000000E+03 0.  1.
<mgrwt>
<rscale>  2 0.21862816E+03</rscale>
<asrwt>0</asrwt>
<pdfrwt beam="1">  1       21 0.15159389E-01 0.21862816E+03</pdfrwt>
<pdfrwt beam="2">  1       21 0.23318125E+00 0.21862816E+03</pdfrwt>
<totfact> 0.31369301E+03</totfact>
</mgrwt>
</event>
<event>
 4    1  0.1086582E+000  0.3114651E+03  0.7546771E-02  0.1079646E+00
         21   -1    0    0  501  502  0.00000000000E+00  0.00000000000E+00  0.93431645798E+03  0.93431645798E+03  0.00000000000E+00 0.  1.
         21   -1    0    0  502  503 -0.00000000000E+00 -0.00000000000E+00 -0.10780892572E+03  0.10780892572E+03  0.00000000000E+00 0. -1.
          6    1    1    2  501    0 -0.17709994332E+03  0.18990022443E+03  0.51335092281E+03  0.60044954418E+03  0.17200000000E+03 0. -1.
         -6    1    1    2    0  503  0.17709994332E+03 -0.18990022443E+03  0.31315660946E+03  0.44167583951E+03  0.17200000000E+03 0. -1.
<mgrwt>
<rscale>  2 0.31146506E+03</rscale>
<asrwt>0</asrwt>
<pdfrwt beam="1">  1       21 0.23357909E+00 0.31146506E+03</pdfrwt>
<pdfrwt beam="2">  1       21 0.26952234E-01 0.31146506E+03</pdfrwt>
<totfact> 0.97676415E+02</totfact>
</mgrwt>
</event>
<event>
 4    1  0.1086582E+000  0.2391121E+03  0.7546771E-02  0.1120386E+00
         21   -1    0    0  501  502  0.00000000000E+00  0.00000000000E+00  0.37838853042E+03  0.37838853042E+03  0.00000000000E+00 0. -1.
         21   -1    0    0  502  503 -0.00000000000E+00 -0.00000000000E+00 -0.21171951425E+03  0.21171951425E+03  0.00000000000E+00 0. -1.
          6    1    1    2  501    0 -0.14506117031E+03  0.80918760034E+02  0.24121430013E+03  0.33964529651E+03  0.17200000000E+03 0. -1.
         -6    1    1    2    0  503  0.14506117031E+03 -0.80918760034E+02 -0.74545283954E+02  0.25046274816E+03  0.17200000000E+03 0. -1.
<mgrwt>
<rscale>  2 0.23911208E+03</rscale>
<asrwt>0</asrwt>
<pdfrwt beam="1">  1       21 0.94597132E-01 0.23911208E+03</pdfrwt>
<pdfrwt beam="2">  1       21 0.52929879E-01 0.23911208E+03</pdfrwt>
<totfact> 0.30508801E+03</totfact>
</mgrwt>
</event>
<event>
 4    1  0.1086582E+000  0.2470534E+03  0.7546771E-02  0.1115181E+00
         21   -1    0    0  503  502  0.00000000000E+00  0.00000000000E+00  0.15787152730E+03  0.15787152730E+03  0.00000000000E+00 0. -1.
         21   -1    0    0  501  503 -0.00000000000E+00 -0.00000000000E+00 -0.38661519410E+03  0.38661519410E+03  0.00000000000E+00 0. -1.
          6    1    1    2  501    0  0.14539788449E+03  0.10154219050E+03 -0.11482605596E+03  0.27243418360E+03  0.17200000000E+03 0. -1.
         -6    1    1    2    0  502 -0.14539788449E+03 -0.10154219050E+03 -0.11391761084E+03  0.27205253780E+03  0.17200000000E+03 0. -1.
<mgrwt>
<rscale>  2 0.24705336E+03</rscale>
<asrwt>0</asrwt>
<pdfrwt beam="1">  1       21 0.39467882E-01 0.24705336E+03</pdfrwt>
<pdfrwt beam="2">  1       21 0.96653797E-01 0.24705336E+03</pdfrwt>
<totfact> 0.52968309E+03</totfact>
</mgrwt>
</event>
<event>
 4    1  0.1086582E+000  0.1993536E+03  0.7546771E-02  0.1150286E+00
         21   -1    0    0  501  502  0.00000000000E+00  0.00000000000E+00  0.66470507020E+02  0.66470507020E+02  0.00000000000E+00 0. -1.
         21   -1    0    0  502  503 -0.00000000000E+00 -0.00000000000E+00 -0.61025512403E+03  0.61025512403E+03  0.00000000000E+00 0. -1.
          6    1    1    2  501    0  0.99405985964E+02  0.16622388817E+02 -0.22372211991E+03  0.29965553690E+03  0.17200000000E+03 0.  1.
         -6    1    1    2    0  503 -0.99405985964E+02 -0.16622388817E+02 -0.32006249710E+03  0.37707009415E+03  0.17200000000E+03 0.  1.
<mgrwt>
<rscale>  2 0.19935359E+03</rscale>
<asrwt>0</asrwt>
<pdfrwt beam="1">  1       21 0.16617627E-01 0.19935359E+03</pdfrwt>
<pdfrwt beam="2">  1       21 0.15256378E+00 0.19935359E+03</pdfrwt>
<totfact> 0.92499260E+03</totfact>
</mgrwt>
</event>
<event>
 4    1  0.1086582E+000  0.1964422E+03  0.7546771E-02  0.1152776E+00
         21   -1    0    0  503  502  0.00000000000E+00  0.00000000000E+00  0.27379363461E+02  0.27379363461E+02  0.00000000000E+00 0. -1.
         21   -1    0    0  501  503 -0.00000000000E+00 -0.00000000000E+00 -0.14780044005E+04  0.14780044005E+04  0.00000000000E+00 0. -1.
          6    1    1    2  501    0 -0.91770359877E+02 -0.24160577997E+02 -0.88743119678E+03  0.90891345105E+03  0.17200000000E+03 0. -1.
         -6    1    1    2    0  502  0.91770359877E+02  0.24160577997E+02 -0.56319384030E+03  0.59647031295E+03  0.17200000000E+03 0. -1.
<mgrwt>
<rscale>  2 0.19644219E+03</rscale>
<asrwt>0</asrwt>
<pdfrwt beam="1">  1       21 0.68448417E-02 0.19644219E+03</pdfrwt>
<pdfrwt beam="2">  1       21 0.36950106E+00 0.19644219E+03</pdfrwt>
<totfact> 0.20931942E+03</totfact>
</mgrwt>
</event>
<event>
 4    1  0.1086582E+000  0.1794666E+03  0.7546771E-02  0.1168320E+00
         21   -1    0    0  501  502  0.00000000000E+00  0.00000000000E+00  0.32894068614E+03  0.32894068614E+03  0.00000000000E+00 0. -1.
         21   -1    0    0  502  503 -0.00000000000E+00 -0.00000000000E+00 -0.11387688609E+03  0.11387688609E+03  0.00000000000E+00 0. -1.
          6    1    1    2  501    0  0.27689388118E+02  0.43099213502E+02  0.19042501391E+03  0.26166759513E+03  0.17200000000E+03 0.  1.
         -6    1    1    2    0  503 -0.27689388118E+02 -0.43099213502E+02  0.24638786137E+02  0.18114997709E+03  0.17200000000E+03 0.  1.
<mgrwt>
<rscale>  2 0.17946656E+03</rscale>
<asrwt>0</asrwt>
<pdfrwt beam="1">  1       21 0.82235170E-01 0.17946656E+03</pdfrwt>
<pdfrwt beam="2">  1       21 0.28469222E-01 0.17946656E+03</pdfrwt>
<totfact> 0.15373629E+04</totfact>
</mgrwt>
</event>
<event>
 4    1  0.1086582E+000  0.2050255E+03  0.7546771E-02  0.1145567E+00
         21   -1    0    0  501  502  0.00000000000E+00  0.00000000000E+00  0.72047030538E+03  0.72047030538E+03  0.00000000000E+00 0. -1.
         21   -1    0    0  502  503 -0.00000000000E+00 -0.00000000000E+00 -0.69623182815E+02  0.69623182815E+02  0.00000000000E+00 0. -1.
          6    1    1    2  501    0 -0.11000187345E+03  0.18736071843E+02  0.48442515166E+03  0.52602583597E+03  0.17200000000E+03 0. -1.
         -6    1    1    2    0  503  0.11000187345E+03 -0.18736071843E+02  0.16642197091E+03  0.26406765222E+03  0.17200000000E+03 0. -1.
<mgrwt>
<rscale>  2 0.20502549E+03</rscale>
<asrwt>0</asrwt>
<pdfrwt beam="1">  1       21 0.18011755E+00 0.20502549E+03</pdfrwt>
<pdfrwt beam="2">  1       21 0.17405798E-01 0.20502549E+03</pdfrwt>
<totfact> 0.53671207E+03</totfact>
</mgrwt>
</event>
<event>
 4    1  0.1086582E+000  0.1754345E+03  0.7546771E-02  0.1172296E+00
         21   -1    0    0  501  502  0.00000000000E+00  0.00000000000E+00  0.35418496242E+03  0.35418496242E+03  0.00000000000E+00 0. -1.
         21   -1    0    0  502  503 -0.00000000000E+00 -0.00000000000E+00 -0.87737420439E+02  0.87737420439E+02  0.00000000000E+00 0. -1.
          6    1    1    2  501    0  0.28790229261E+02  0.19088795703E+02  0.15486231164E+03  0.23400768147E+03  0.17200000000E+03 0.  1.
         -6    1    1    2    0  503 -0.28790229261E+02 -0.19088795703E+02  0.11158523035E+03  0.20791470139E+03  0.17200000000E+03 0.  1.
<mgrwt>
<rscale>  2 0.17543449E+03</rscale>
<asrwt>0</asrwt>
<pdfrwt beam="1">  1       21 0.88546237E-01 0.17543449E+03</pdfrwt>
<pdfrwt beam="2">  1       21 0.21934356E-01 0.17543449E+03</pdfrwt>
<totfact> 0.21398866E+04</totfact>
</mgrwt>
</event>
<event>
 4    1  0.1086582E+000  0.2384418E+03  0.7546771E-02  0.1120835E+00
         21   -1    0    0  503  502  0.00000000000E+00  0.00000000000E+00  0.65328321517E+03  0.65328321517E+03  0.00000000000E+00 0.  1.
         21   -1    0    0  501  503 -0.00000000000E+00 -0.00000000000E+00 -0.89711068956E+02  0.89711068956E+02  0.00000000000E+00 0. -1.
          6    1    1    2  501    0 -0.16507279547E+03 -0.46326269698E+01  0.21754995098E+03  0.32277309400E+03  0.17200000000E+03 0. -1.
         -6    1    1    2    0  502  0.16507279547E+03  0.46326269698E+01  0.34602219524E+03  0.42022119013E+03  0.17200000000E+03 0.  1.
<mgrwt>
<rscale>  2 0.23844179E+03</rscale>
<asrwt>0</asrwt>
<pdfrwt beam="1">  1       21 0.16332079E+00 0.23844179E+03</pdfrwt>
<pdfrwt beam="2">  1       21 0.22427769E-01 0.23844179E+03</pdfrwt>
<totfact> 0.42698843E+03</totfact>
</mgrwt>
</event>
<event>
 4    1  0.1086582E+000  0.1986248E+03  0.7546771E-02  0.1150904E+00
         21   -1    0    0  501  502  0.00000000000E+00  0.00000000000E+00  0.19800639969E+03  0.19800639969E+03  0.00000000000E+00 0. -1.
         21   -1    0    0  502  503 -0.00000000000E+00 -0.00000000000E+00 -0.19933222789E+03  0.19933222789E+03  0.00000000000E+00 0. -1.
          6    1    1    2  501    0  0.37457850188E+02 -0.92003902152E+02  0.34902082808E+01  0.19865545577E+03  0.17200000000E+03 0. -1.
         -6    1    1    2    0  503 -0.37457850188E+02  0.92003902152E+02 -0.48160364803E+01  0.19868317181E+03  0.17200000000E+03 0. -1.
<mgrwt>
<rscale>  2 0.19862479E+03</rscale>
<asrwt>0</asrwt>
<pdfrwt beam="1">  1       21 0.49501600E-01 0.19862479E+03</pdfrwt>
<pdfrwt beam="2">  1       21 0.49833057E-01 0.19862479E+03</pdfrwt>
<totfact> 0.14872428E+04</totfact>
</mgrwt>
</event>
<event>
 4    1  0.1086582E+000  0.1807873E+03  0.7546771E-02  0.1167043E+00
         21   -1    0    0  503  502  0.00000000000E+00  0.00000000000E+00  0.14541039897E+03  0.14541039897E+03  0.00000000000E+00 0. -1.
         21   -1    0    0  501  503 -0.00000000000E+00 -0.00000000000E+00 -0.61760392487E+03  0.61760392487E+03  0.00000000000E+00 0.  1.
          6    1    1    2  501    0 -0.28747060499E+02 -0.47682833524E+02 -0.54036147845E+03  0.56980222314E+03  0.17200000000E+03 0.  1.
         -6    1    1    2    0  502  0.28747060499E+02  0.47682833524E+02  0.68167952553E+02  0.19321210070E+03  0.17200000000E+03 0. -1.
<mgrwt>
<rscale>  2 0.18078730E+03</rscale>
<asrwt>0</asrwt>
<pdfrwt beam="1">  1       21 0.36352600E-01 0.18078730E+03</pdfrwt>
<pdfrwt beam="2">  1       21 0.15440098E+00 0.18078730E+03</pdfrwt>
<totfact> 0.20445338E+03</totfact>
</mgrwt>
</event>
<event>
 4    1  0.1086582E+000  0.2279452E+03  0.7546771E-02  0.1128094E+00
         21   -1    0    0  501  502  0.00000000000E+00  0.00000000000E+00  0.19894946823E+03  0.19894946823E+03  0.00000000000E+00 0. -1.
         21   -1    0    0  502  503 -0.00000000000E+00 -0.00000000000E+00 -0.26427252278E+03  0.26427252278E+03  0.00000000000E+00 0.  1.
          6    1    1    2  501    0 -0.75036114753E+02 -0.12940090767E+03 -0.57769311138E+02  0.23515166751E+03  0.17200000000E+03 0.  1.
         -6    1    1    2    0  503  0.75036114753E+02  0.12940090767E+03 -0.75537434104E+01  0.22807032350E+03  0.17200000000E+03 0. -1.
<mgrwt>
<rscale>  2 0.22794520E+03</rscale>
<asrwt>0</asrwt>
<pdfrwt beam="1">  1       21 0.49737367E-01 0.22794520E+03</pdfrwt>
<pdfrwt beam="2">  1       21 0.66068130E-01 0.22794520E+03</pdfrwt>
<totfact> 0.79101242E+03</totfact>
</mgrwt>
</event>
<event>
 4    1  0.1086582E+000  0.2422296E+03  0.7546771E-02  0.1118316E+00
         21   -1    0    0  503  502  0.00000000000E+00  0.00000000000E+00  0.86936644594E+03  0.86936644594E+03  0.00000000000E+00 0. -1.
         21   -1    0    0  501  503 -0.00000000000E+00 -0.00000000000E+00 -0.77313011504E+02  0.77313011504E+02  0.00000000000E+00 0. -1.
          6    1    1    2  501    0  0.14966427920E+03 -0.81803278230E+02  0.22732189249E+03  0.33219033039E+03  0.17200000000E+03 0. -1.
         -6    1    1    2    0  502 -0.14966427920E+03  0.81803278230E+02  0.56473154195E+03  0.61448912705E+03  0.17200000000E+03 0. -1.
<mgrwt>
<rscale>  2 0.24222959E+03</rscale>
<asrwt>0</asrwt>
<pdfrwt beam="1">  1       21 0.21734158E+00 0.24222959E+03</pdfrwt>
<pdfrwt beam="2">  1       21 0.19328256E-01 0.24222959E+03</pdfrwt>
<totfact> 0.24514652E+03</totfact>
</mgrwt>
</event>
<event>
 4    1  0.1086582E+000  0.2340132E+03  0.7546771E-02  0.1123847E+00
         21   -1    0    0  501  502  0.00000000000E+00  0.00000000000E+00  0.37612390152E+03  0.37612390152E+03  0.00000000000E+00 0. -1.
         21   -1    0    0  502  503 -0.00000000000E+00 -0.00000000000E+00 -0.26386624065E+03  0.26386624065E+03  0.00000000000E+00 0.  1.
          6    1    1    2  501    0  0.20088630295E+02  0.15739952124E+03  0.27036311995E+03  0.35757290023E+03  0.17200000000E+03 0. -1.
         -6    1    1    2    0  503 -0.20088630295E+02 -0.15739952124E+03 -0.15810545908E+03  0.28241724194E+03  0.17200000000E+03 0.  1.
<mgrwt>
<rscale>  2 0.23401317E+03</rscale>
<asrwt>0</asrwt>
<pdfrwt beam="1">  1       21 0.94030975E-01 0.23401317E+03</pdfrwt>
<pdfrwt beam="2">  1       21 0.65966560E-01 0.23401317E+03</pdfrwt>
<totfact> 0.19332756E+03</totfact>
</mgrwt>
</event>
<event>
 4    1  0.1086582E+000  0.2015818E+03  0.7546771E-02  0.1148411E+00
         21   -1    0    0  503  502  0.00000000000E+00  0.00000000000E+00  0.11804915489E+04  0.11804915489E+04  0.00000000000E+00 0.  1.
         21   -1    0    0  501  503 -0.00000000000E+00 -0.00000000000E+00 -0.40891583555E+02  0.40891583555E+02  0.00000000000E+00 0.  1.
          6    1    1    2  501    0  0.10176506617E+03  0.26364479844E+02  0.32689657196E+03  0.38405283914E+03  0.17200000000E+03 0.  1.
         -6    1    1    2    0  502 -0.10176506617E+03 -0.26364479844E+02  0.81270339342E+03  0.83733029336E+03  0.17200000000E+03 0.  1.
<mgrwt>
<rscale>  2 0.20158178E+03</rscale>
<asrwt>0</asrwt>
<pdfrwt beam="1">  1       21 0.29512277E+00 0.20158178E+03</pdfrwt>
<pdfrwt beam="2">  1       21 0.10222900E-01 0.20158178E+03</pdfrwt>
<totfact> 0.28118206E+03</totfact>
</mgrwt>
</event>
<event>
 4    1  0.1086582E+000  0.1977608E+03  0.7546771E-02  0.1151642E+00
         21   -1    0    0  503  502  0.00000000000E+00  0.00000000000E+00  0.38534978407E+03  0.38534978407E+03  0.00000000000E+00 0. -1.
         21   -1    0    0  501  503 -0.00000000000E+00 -0.00000000000E+00 -0.10761323149E+03  0.10761323149E+03  0.00000000000E+00 0.  1.
          6    1    1    2  501    0  0.27098113814E+02 -0.93760388244E+02  0.80075180469E+02  0.21335733571E+03  0.17200000000E+03 0.  1.
         -6    1    1    2    0  502 -0.27098113814E+02  0.93760388244E+02  0.19766137211E+03  0.27960567984E+03  0.17200000000E+03 0.  1.
<mgrwt>
<rscale>  2 0.19776076E+03</rscale>
<asrwt>0</asrwt>
<pdfrwt beam="1">  1       21 0.96337443E-01 0.19776076E+03</pdfrwt>
<pdfrwt beam="2">  1       21 0.26903309E-01 0.19776076E+03</pdfrwt>
<totfact> 0.11756314E+04</totfact>
</mgrwt>
</event>
<event>
 4    1  0.1086582E+000  0.2475510E+03  0.7546771E-02  0.1114862E+00
         21   -1    0    0  503  502  0.00000000000E+00  0.00000000000E+00  0.56472748631E+03  0.56472748631E+03  0.00000000000E+00 0. -1.
         21   -1    0    0  501  503 -0.00000000000E+00 -0.00000000000E+00 -0.12282003903E+03  0.12282003903E+03  0.00000000000E+00 0. -1.
          6    1    1    2  501    0  0.14216245842E+03  0.10717906154E+03  0.10363168312E+03  0.26836736308E+03  0.17200000000E+03 0. -1.
         -6    1    1    2    0  502 -0.14216245842E+03 -0.10717906154E+03  0.33827576416E+03  0.41918016226E+03  0.17200000000E+03 0. -1.
<mgrwt>
<rscale>  2 0.24755104E+03</rscale>
<asrwt>0</asrwt>
<pdfrwt beam="1">  1       21 0.14118186E+00 0.24755104E+03</pdfrwt>
<pdfrwt beam="2">  1       21 0.30705011E-01 0.24755104E+03</pdfrwt>
<totfact> 0.34138733E+03</totfact>
</mgrwt>
</event>
<event>
 4    1  0.1086582E+000  0.1730221E+03  0.7546771E-02  0.1174732E+00
         21   -1    0    0  503  502  0.00000000000E+00  0.00000000000E+00  0.56123672982E+02  0.56123672982E+02  0.00000000000E+00 0. -1.
         21   -1    0    0  501  503 -0.00000000000E+00 -0.00000000000E+00 -0.53344539689E+03  0.53344539689E+03  0.00000000000E+00 0. -1.
          6    1    1    2  501    0  0.18779292074E+02 -0.23947821782E-01 -0.23610386005E+03  0.29271435754E+03  0.17200000000E+03 0. -1.
         -6    1    1    2    0  502 -0.18779292074E+02  0.23947821782E-01 -0.24121786386E+03  0.29685471232E+03  0.17200000000E+03 0. -1.
<mgrwt>
<rscale>  2 0.17302214E+03</rscale>
<asrwt>0</asrwt>
<pdfrwt beam="1">  1       21 0.14030918E-01 0.17302214E+03</pdfrwt>
<pdfrwt beam="2">  1       21 0.13336135E+00 0.17302214E+03</pdfrwt>
<totfact> 0.18185849E+04</totfact>
</mgrwt>
</event>
<event>
 4    1  0.1086582E+000  0.1735042E+03  0.7546771E-02  0.1174242E+00
         21   -1    0    0  501  502  0.00000000000E+00  0.00000000000E+00  0.24466577952E+03  0.24466577952E+03  0.00000000000E+00 0.  1.
         21   -1    0    0  502  503 -0.00000000000E+00 -0.00000000000E+00 -0.17542675071E+03  0.17542675071E+03  0.00000000000E+00 0.  1.
          6    1    1    2  501    0  0.15531827046E+02 -0.16687593003E+02  0.14940241012E+03  0.22896461203E+03  0.17200000000E+03 0.  1.
         -6    1    1    2    0  503 -0.15531827046E+02  0.16687593003E+02 -0.80163381315E+02  0.19112791820E+03  0.17200000000E+03 0.  1.
<mgrwt>
<rscale>  2 0.17350422E+03</rscale>
<asrwt>0</asrwt>
<pdfrwt beam="1">  1       21 0.61166445E-01 0.17350422E+03</pdfrwt>
<pdfrwt beam="2">  1       21 0.43856688E-01 0.17350422E+03</pdfrwt>
<totfact> 0.12579725E+04</totfact>
</mgrwt>
</event>
<event>
 4    1  0.1086582E+000  0.3931320E+03  0.7546771E-02  0.1046184E+00
         21   -1    0    0  501  502  0.00000000000E+00  0.00000000000E+00  0.59836671375E+03  0.59836671375E+03  0.00000000000E+00 0.  1.
         21   -1    0    0  502  503 -0.00000000000E+00 -0.00000000000E+00 -0.25865436590E+03  0.25865436590E+03  0.00000000000E+00 0. -1.
          6    1    1    2  501    0 -0.34974079840E+03  0.51479758772E+02  0.18591519202E+03  0.43487613208E+03  0.17200000000E+03 0.  1.
         -6    1    1    2    0  503  0.34974079840E+03 -0.51479758772E+02  0.15379715583E+03  0.42214494758E+03  0.17200000000E+03 0. -1.
<mgrwt>
<rscale>  2 0.39313203E+03</rscale>
<asrwt>0</asrwt>
<pdfrwt beam="1">  1       21 0.14959168E+00 0.39313203E+03</pdfrwt>
<pdfrwt beam="2">  1       21 0.64663593E-01 0.39313203E+03</pdfrwt>
<totfact> 0.56965044E+02</totfact>
</mgrwt>
</event>
<event>
 4    1  0.1086582E+000  0.1788105E+03  0.7546771E-02  0.1168959E+00
         21   -1    0    0  503  502  0.00000000000E+00  0.00000000000E+00  0.30428508432E+03  0.30428508432E+03  0.00000000000E+00 0.  1.
         21   -1    0    0  501  503 -0.00000000000E+00 -0.00000000000E+00 -0.17710261678E+03  0.17710261678E+03  0.00000000000E+00 0.  1.
          6    1    1    2  501    0  0.42746098906E+02  0.23705847908E+02 -0.89904977132E+02  0.20014020363E+03  0.17200000000E+03 0.  1.
         -6    1    1    2    0  502 -0.42746098906E+02 -0.23705847908E+02  0.21708744468E+03  0.28124749747E+03  0.17200000000E+03 0.  1.
<mgrwt>
<rscale>  2 0.17881050E+03</rscale>
<asrwt>0</asrwt>
<pdfrwt beam="1">  1       21 0.76071270E-01 0.17881050E+03</pdfrwt>
<pdfrwt beam="2">  1       21 0.44275655E-01 0.17881050E+03</pdfrwt>
<totfact> 0.76233939E+03</totfact>
</mgrwt>
</event>
<event>
 4    1  0.1086582E+000  0.2050374E+03  0.7546771E-02  0.1145557E+00
         21   -1    0    0  503  502  0.00000000000E+00  0.00000000000E+00  0.22446428474E+03  0.22446428474E+03  0.00000000000E+00 0.  1.
         21   -1    0    0  501  503 -0.00000000000E+00 -0.00000000000E+00 -0.20162095122E+03  0.20162095122E+03  0.00000000000E+00 0. -1.
          6    1    1    2  501    0 -0.74604742900E+02  0.83008829232E+02 -0.45373056044E+02  0.20999773239E+03  0.17200000000E+03 0. -1.
         -6    1    1    2    0  502  0.74604742900E+02 -0.83008829232E+02  0.68216389561E+02  0.21608750357E+03  0.17200000000E+03 0.  1.
<mgrwt>
<rscale>  2 0.20503740E+03</rscale>
<asrwt>0</asrwt>
<pdfrwt beam="1">  1       21 0.56116071E-01 0.20503740E+03</pdfrwt>
<pdfrwt beam="2">  1       21 0.50405238E-01 0.20503740E+03</pdfrwt>
<totfact> 0.11106883E+04</totfact>
</mgrwt>
</event>
<event>
 4    1  0.1086582E+000  0.1858116E+03  0.7546771E-02  0.1162294E+00
         21   -1    0    0  501  502  0.00000000000E+00  0.00000000000E+00  0.20971681780E+03  0.20971681780E+03  0.00000000000E+00 0. -1.
         21   -1    0    0  502  503 -0.00000000000E+00 -0.00000000000E+00 -0.20104759810E+03  0.20104759810E+03  0.00000000000E+00 0. -1.
          6    1    1    2  501    0  0.12504697770E+02 -0.69177976138E+02  0.91744597397E+02  0.20722700355E+03  0.17200000000E+03 0. -1.
         -6    1    1    2    0  503 -0.12504697770E+02  0.69177976138E+02 -0.83075377690E+02  0.20353741235E+03  0.17200000000E+03 0. -1.
<mgrwt>
<rscale>  2 0.18581162E+03</rscale>
<asrwt>0</asrwt>
<pdfrwt beam="1">  1       21 0.52429204E-01 0.18581162E+03</pdfrwt>
<pdfrwt beam="2">  1       21 0.50261900E-01 0.18581162E+03</pdfrwt>
<totfact> 0.13062659E+04</totfact>
</mgrwt>
</event>
<event>
 4    1  0.1086582E+000  0.2151770E+03  0.7546771E-02  0.1137531E+00
         21   -1    0    0  503  502  0.00000000000E+00  0.00000000000E+00  0.32735590440E+03  0.32735590440E+03  0.00000000000E+00 0. -1.
         21   -1    0    0  501  503 -0.00000000000E+00 -0.00000000000E+00 -0.16590798216E+03  0.16590798216E+03  0.00000000000E+00 0.  1.
          6    1    1    2  501    0  0.83847091829E+02  0.98421680847E+02 -0.13990503426E+02  0.21563138977E+03  0.17200000000E+03 0.  1.
         -6    1    1    2    0  502 -0.83847091829E+02 -0.98421680847E+02  0.17543842567E+03  0.27763249678E+03  0.17200000000E+03 0. -1.
<mgrwt>
<rscale>  2 0.21517705E+03</rscale>
<asrwt>0</asrwt>
<pdfrwt beam="1">  1       21 0.81838975E-01 0.21517705E+03</pdfrwt>
<pdfrwt beam="2">  1       21 0.41476996E-01 0.21517705E+03</pdfrwt>
<totfact> 0.71941823E+03</totfact>
</mgrwt>
</event>
<event>
 4    1  0.1086582E+000  0.1761777E+03  0.7546771E-02  0.1171554E+00
         21   -1    0    0  501  502  0.00000000000E+00  0.00000000000E+00  0.33661753632E+03  0.33661753632E+03  0.00000000000E+00 0. -1.
         21   -1    0    0  502  503 -0.00000000000E+00 -0.00000000000E+00 -0.93735773121E+02  0.93735773121E+02  0.00000000000E+00 0. -1.
          6    1    1    2  501    0  0.36268455985E+02  0.11797004852E+02  0.14891865086E+03  0.23068449189E+03  0.17200000000E+03 0.  1.
         -6    1    1    2    0  503 -0.36268455985E+02 -0.11797004852E+02  0.93963112336E+02  0.19966881755E+03  0.17200000000E+03 0.  1.
<mgrwt>
<rscale>  2 0.17617767E+03</rscale>
<asrwt>0</asrwt>
<pdfrwt beam="1">  1       21 0.84154381E-01 0.17617767E+03</pdfrwt>
<pdfrwt beam="2">  1       21 0.23433944E-01 0.17617767E+03</pdfrwt>
<totfact> 0.21211956E+04</totfact>
</mgrwt>
</event>
<event>
 4    1  0.1086582E+000  0.1807397E+03  0.7546771E-02  0.1167089E+00
         21   -1    0    0  503  502  0.00000000000E+00  0.00000000000E+00  0.11421349554E+04  0.11421349554E+04  0.00000000000E+00 0. -1.
         21   -1    0    0  501  503 -0.00000000000E+00 -0.00000000000E+00 -0.48683688832E+02  0.48683688832E+02  0.00000000000E+00 0. -1.
          6    1    1    2  501    0 -0.16012551324E+02  0.53164348281E+02  0.16431612058E+03  0.24426755252E+03  0.17200000000E+03 0. -1.
         -6    1    1    2    0  502  0.16012551324E+02 -0.53164348281E+02  0.92913514599E+03  0.94655109173E+03  0.17200000000E+03 0. -1.
<mgrwt>
<rscale>  2 0.18073973E+03</rscale>
<asrwt>0</asrwt>
<pdfrwt beam="1">  1       21 0.28553365E+00 0.18073973E+03</pdfrwt>
<pdfrwt beam="2">  1       21 0.12170926E-01 0.18073973E+03</pdfrwt>
<totfact> 0.24014497E+03</totfact>
</mgrwt>
</event>
<event>
 4    1  0.1086582E+000  0.1941656E+03  0.7546771E-02  0.1154757E+00
         21   -1    0    0  501  502  0.00000000000E+00  0.00000000000E+00  0.59327375750E+03  0.59327375750E+03  0.00000000000E+00 0. -1.
         21   -1    0    0  502  503 -0.00000000000E+00 -0.00000000000E+00 -0.64542401445E+02  0.64542401445E+02  0.00000000000E+00 0. -1.
          6    1    1    2  501    0 -0.83065899290E+02 -0.34876188331E+02  0.30522826208E+03  0.36175210312E+03  0.17200000000E+03 0. -1.
         -6    1    1    2    0  503  0.83065899290E+02  0.34876188331E+02  0.22350309398E+03  0.29606405583E+03  0.17200000000E+03 0. -1.
<mgrwt>
<rscale>  2 0.19416563E+03</rscale>
<asrwt>0</asrwt>
<pdfrwt beam="1">  1       21 0.14831842E+00 0.19416563E+03</pdfrwt>
<pdfrwt beam="2">  1       21 0.16135602E-01 0.19416563E+03</pdfrwt>
<totfact> 0.10559339E+04</totfact>
</mgrwt>
</event>
<event>
 4    1  0.1086582E+000  0.1866198E+03  0.7546771E-02  0.1161546E+00
         21   -1    0    0  501  502  0.00000000000E+00  0.00000000000E+00  0.96410420439E+02  0.96410420439E+02  0.00000000000E+00 0. -1.
         21   -1    0    0  502  503 -0.00000000000E+00 -0.00000000000E+00 -0.36137269970E+03  0.36137269970E+03  0.00000000000E+00 0.  1.
          6    1    1    2  501    0  0.60329287165E+02  0.40041429504E+02 -0.13692883129E+03  0.23146585883E+03  0.17200000000E+03 0. -1.
         -6    1    1    2    0  503 -0.60329287165E+02 -0.40041429504E+02 -0.12803344797E+03  0.22631726131E+03  0.17200000000E+03 0.  1.
<mgrwt>
<rscale>  2 0.18661977E+03</rscale>
<asrwt>0</asrwt>
<pdfrwt beam="1">  1       21 0.24102605E-01 0.18661977E+03</pdfrwt>
<pdfrwt beam="2">  1       21 0.90343174E-01 0.18661977E+03</pdfrwt>
<totfact> 0.16975494E+04</totfact>
</mgrwt>
</event>
<event>
 4    1  0.1086582E+000  0.1730820E+03  0.7546771E-02  0.1174671E+00
         21   -1    0    0  503  502  0.00000000000E+00  0.00000000000E+00  0.86797850436E+02  0.86797850436E+02  0.00000000000E+00 0.  1.
         21   -1    0    0  501  503 -0.00000000000E+00 -0.00000000000E+00 -0.36436434224E+03  0.36436434224E+03  0.00000000000E+00 0. -1.
          6    1    1    2  501    0  0.18050268618E+02  0.68969701508E+01 -0.19059930494E+03  0.25745965788E+03  0.17200000000E+03 0. -1.
         -6    1    1    2    0  502 -0.18050268618E+02 -0.68969701508E+01 -0.86967186869E+02  0.19370253480E+03  0.17200000000E+03 0.  1.
<mgrwt>
<rscale>  2 0.17308200E+03</rscale>
<asrwt>0</asrwt>
<pdfrwt beam="1">  1       21 0.21699463E-01 0.17308200E+03</pdfrwt>
<pdfrwt beam="2">  1       21 0.91091085E-01 0.17308200E+03</pdfrwt>
<totfact> 0.20485375E+04</totfact>
</mgrwt>
</event>
<event>
 4    1  0.1086582E+000  0.2352109E+03  0.7546771E-02  0.1123025E+00
         21   -1    0    0  503  502  0.00000000000E+00  0.00000000000E+00  0.58682038401E+03  0.58682038401E+03  0.00000000000E+00 0. -1.
         21   -1    0    0  501  503 -0.00000000000E+00 -0.00000000000E+00 -0.11367211114E+03  0.11367211114E+03  0.00000000000E+00 0.  1.
          6    1    1    2  501    0  0.89864761994E+02 -0.13290792107E+03  0.91902752334E+02  0.25252783375E+03  0.17200000000E+03 0.  1.
         -6    1    1    2    0  502 -0.89864761994E+02  0.13290792107E+03  0.38124552054E+03  0.44796466140E+03  0.17200000000E+03 0. -1.
<mgrwt>
<rscale>  2 0.23521095E+03</rscale>
<asrwt>0</asrwt>
<pdfrwt beam="1">  1       21 0.14670509E+00 0.23521095E+03</pdfrwt>
<pdfrwt beam="2">  1       21 0.28418029E-01 0.23521095E+03</pdfrwt>
<totfact> 0.36229427E+03</totfact>
</mgrwt>
</event>
<event>
 4    1  0.1086582E+000  0.1794347E+03  0.7546771E-02  0.1168351E+00
         21   -1    0    0  501  502  0.00000000000E+00  0.00000000000E+00  0.44112510810E+02  0.44112510810E+02  0.00000000000E+00 0.  1.
         21   -1    0    0  502  503 -0.00000000000E+00 -0.00000000000E+00 -0.90083421580E+03  0.90083421580E+03  0.00000000000E+00 0.  1.
          6    1    1    2  501    0 -0.65116507831E+00  0.51111600599E+02 -0.22253715953E+03  0.28586641479E+03  0.17200000000E+03 0.  1.
         -6    1    1    2    0  503  0.65116507831E+00 -0.51111600599E+02 -0.63418454546E+03  0.65908031183E+03  0.17200000000E+03 0.  1.
<mgrwt>
<rscale>  2 0.17943472E+03</rscale>
<asrwt>0</asrwt>
<pdfrwt beam="1">  1       21 0.11028128E-01 0.17943472E+03</pdfrwt>
<pdfrwt beam="2">  1       21 0.22520855E+00 0.17943472E+03</pdfrwt>
<totfact> 0.64611548E+03</totfact>
</mgrwt>
</event>
<event>
 4    1  0.1086582E+000  0.2181224E+03  0.7546771E-02  0.1135291E+00
         21   -1    0    0  503  502  0.00000000000E+00  0.00000000000E+00  0.69430026309E+03  0.69430026309E+03  0.00000000000E+00 0.  1.
         21   -1    0    0  501  503 -0.00000000000E+00 -0.00000000000E+00 -0.80352567300E+02  0.80352567300E+02  0.00000000000E+00 0.  1.
          6    1    1    2  501    0  0.11808132968E+03 -0.63640902676E+02  0.15837572182E+03  0.26955562353E+03  0.17200000000E+03 0.  1.
         -6    1    1    2    0  502 -0.11808132968E+03  0.63640902676E+02  0.45557197396E+03  0.50509720686E+03  0.17200000000E+03 0.  1.
<mgrwt>
<rscale>  2 0.21812236E+03</rscale>
<asrwt>0</asrwt>
<pdfrwt beam="1">  1       21 0.17357505E+00 0.21812236E+03</pdfrwt>
<pdfrwt beam="2">  1       21 0.20088144E-01 0.21812236E+03</pdfrwt>
<totfact> 0.45125376E+03</totfact>
</mgrwt>
</event>
<event>
 4    1  0.1086582E+000  0.2457871E+03  0.7546771E-02  0.1115997E+00
         21   -1    0    0  501  502  0.00000000000E+00  0.00000000000E+00  0.17195876363E+03  0.17195876363E+03  0.00000000000E+00 0.  1.
         21   -1    0    0  502  503 -0.00000000000E+00 -0.00000000000E+00 -0.89535731563E+03  0.89535731563E+03  0.00000000000E+00 0. -1.
          6    1    1    2  501    0 -0.17192013926E+03 -0.35647838984E+02  0.54289975739E+02  0.25171154954E+03  0.17200000000E+03 0.  1.
         -6    1    1    2    0  503  0.17192013926E+03  0.35647838984E+02 -0.77768852774E+03  0.81560452971E+03  0.17200000000E+03 0. -1.
<mgrwt>
<rscale>  2 0.24578711E+03</rscale>
<asrwt>0</asrwt>
<pdfrwt beam="1">  1       21 0.42989692E-01 0.24578711E+03</pdfrwt>
<pdfrwt beam="2">  1       21 0.22383932E+00 0.24578711E+03</pdfrwt>
<totfact> 0.46685192E+02</totfact>
</mgrwt>
</event>
<event>
 4    1  0.1086582E+000  0.1833576E+03  0.7546771E-02  0.1164593E+00
         21   -1    0    0  501  502  0.00000000000E+00  0.00000000000E+00  0.26004513969E+02  0.26004513969E+02  0.00000000000E+00 0. -1.
         21   -1    0    0  502  503 -0.00000000000E+00 -0.00000000000E+00 -0.13465008748E+04  0.13465008748E+04  0.00000000000E+00 0. -1.
          6    1    1    2  501    0  0.42997134225E+02  0.46768069129E+02 -0.79722852624E+03  0.81804237597E+03  0.17200000000E+03 0. -1.
         -6    1    1    2    0  503 -0.42997134225E+02 -0.46768069129E+02 -0.52326783464E+03  0.55446301284E+03  0.17200000000E+03 0. -1.
<mgrwt>
<rscale>  2 0.18335759E+03</rscale>
<asrwt>0</asrwt>
<pdfrwt beam="1">  1       21 0.65011283E-02 0.18335759E+03</pdfrwt>
<pdfrwt beam="2">  1       21 0.33662523E+00 0.18335759E+03</pdfrwt>
<totfact> 0.36445331E+03</totfact>
</mgrwt>
</event>
<event>
 4    1  0.1086582E+000  0.2713033E+03  0.7546771E-02  0.1100536E+00
         21   -1    0    0  501  502  0.00000000000E+00  0.00000000000E+00  0.45010117721E+03  0.45010117721E+03  0.00000000000E+00 0.  1.
         21   -1    0    0  502  503 -0.00000000000E+00 -0.00000000000E+00 -0.26498564150E+03  0.26498564150E+03  0.00000000000E+00 0. -1.
          6    1    1    2  501    0 -0.11784388891E+03 -0.17359226136E+03  0.31379272868E+03  0.41481481643E+03  0.17200000000E+03 0.  1.
         -6    1    1    2    0  503  0.11784388891E+03  0.17359226136E+03 -0.12867719297E+03  0.30027200228E+03  0.17200000000E+03 0. -1.
<mgrwt>
<rscale>  2 0.27130325E+03</rscale>
<asrwt>0</asrwt>
<pdfrwt beam="1">  1       21 0.11252529E+00 0.27130325E+03</pdfrwt>
<pdfrwt beam="2">  1       21 0.66246411E-01 0.27130325E+03</pdfrwt>
<totfact> 0.12098427E+03</totfact>
</mgrwt>
</event>
<event>
 4    1  0.1086582E+000  0.1798344E+03  0.7546771E-02  0.1167963E+00
         21   -1    0    0  503  502  0.00000000000E+00  0.00000000000E+00  0.10157873502E+04  0.10157873502E+04  0.00000000000E+00 0.  1.
         21   -1    0    0  501  503 -0.00000000000E+00 -0.00000000000E+00 -0.78002763028E+02  0.78002763028E+02  0.00000000000E+00 0. -1.
          6    1    1    2  501    0  0.40559219660E+02 -0.33336935037E+02  0.48160430804E+02  0.18617150328E+03  0.17200000000E+03 0. -1.
         -6    1    1    2    0  502 -0.40559219660E+02  0.33336935037E+02  0.88962415636E+03  0.90761860995E+03  0.17200000000E+03 0.  1.
<mgrwt>
<rscale>  2 0.17983437E+03</rscale>
<asrwt>0</asrwt>
<pdfrwt beam="1">  1       21 0.25394680E+00 0.17983437E+03</pdfrwt>
<pdfrwt beam="2">  1       21 0.19500694E-01 0.17983437E+03</pdfrwt>
<totfact> 0.15496773E+03</totfact>
</mgrwt>
</event>
<event>
 4    1  0.1086582E+000  0.1737200E+03  0.7546771E-02  0.1174023E+00
         21   -1    0    0  503  502  0.00000000000E+00  0.00000000000E+00  0.58277236963E+03  0.58277236963E+03  0.00000000000E+00 0.  1.
         21   -1    0    0  501  503 -0.00000000000E+00 -0.00000000000E+00 -0.70399569327E+02  0.70399569327E+02  0.00000000000E+00 0.  1.
          6    1    1    2  501    0 -0.12233398924E+02  0.21094939306E+02  0.88250589597E+02  0.19485076104E+03  0.17200000000E+03 0.  1.
         -6    1    1    2    0  502  0.12233398924E+02 -0.21094939306E+02  0.42412221071E+03  0.45832117792E+03  0.17200000000E+03 0.  1.
<mgrwt>
<rscale>  2 0.17372004E+03</rscale>
<asrwt>0</asrwt>
<pdfrwt beam="1">  1       21 0.14569308E+00 0.17372004E+03</pdfrwt>
<pdfrwt beam="2">  1       21 0.17599894E-01 0.17372004E+03</pdfrwt>
<totfact> 0.95821570E+03</totfact>
</mgrwt>
</event>
<event>
 4    1  0.1086582E+000  0.2237563E+03  0.7546771E-02  0.1131113E+00
         21   -1    0    0  503  502  0.00000000000E+00  0.00000000000E+00  0.14743666576E+03  0.14743666576E+03  0.00000000000E+00 0.  1.
         21   -1    0    0  501  503 -0.00000000000E+00 -0.00000000000E+00 -0.36336715166E+03  0.36336715166E+03  0.00000000000E+00 0. -1.
          6    1    1    2  501    0  0.14198176703E+03  0.18001196635E+02 -0.17330876975E+03  0.28302437160E+03  0.17200000000E+03 0. -1.
         -6    1    1    2    0  502 -0.14198176703E+03 -0.18001196635E+02 -0.42621716153E+02  0.22777944582E+03  0.17200000000E+03 0.  1.
<mgrwt>
<rscale>  2 0.22375626E+03</rscale>
<asrwt>0</asrwt>
<pdfrwt beam="1">  1       21 0.36859166E-01 0.22375626E+03</pdfrwt>
<pdfrwt beam="2">  1       21 0.90841788E-01 0.22375626E+03</pdfrwt>
<totfact> 0.71391196E+03</totfact>
</mgrwt>
</event>
<event>
 4    1  0.1086582E+000  0.1834842E+03  0.7546771E-02  0.1164473E+00
         21   -1    0    0  501  502  0.00000000000E+00  0.00000000000E+00  0.35384359942E+03  0.35384359942E+03  0.00000000000E+00 0. -1.
         21   -1    0    0  502  503 -0.00000000000E+00 -0.00000000000E+00 -0.11013993997E+03  0.11013993997E+03  0.00000000000E+00 0. -1.
          6    1    1    2  501    0  0.46553816826E+02 -0.43762894819E+02  0.20745158912E+03  0.27695236170E+03  0.17200000000E+03 0. -1.
         -6    1    1    2    0  503 -0.46553816826E+02  0.43762894819E+02  0.36252070329E+02  0.18703117769E+03  0.17200000000E+03 0. -1.
<mgrwt>
<rscale>  2 0.18348419E+03</rscale>
<asrwt>0</asrwt>
<pdfrwt beam="1">  1       21 0.88460897E-01 0.18348419E+03</pdfrwt>
<pdfrwt beam="2">  1       21 0.27534986E-01 0.18348419E+03</pdfrwt>
<totfact> 0.13841227E+04</totfact>
</mgrwt>
</event>
<event>
 4    1  0.1086582E+000  0.1846682E+03  0.7546771E-02  0.1163360E+00
         21   -1    0    0  501  502  0.00000000000E+00  0.00000000000E+00  0.44118557628E+03  0.44118557628E+03  0.00000000000E+00 0. -1.
         21   -1    0    0  502  503 -0.00000000000E+00 -0.00000000000E+00 -0.77356170017E+02  0.77356170017E+02  0.00000000000E+00 0. -1.
          6    1    1    2  501    0  0.65286277577E+02 -0.16001383887E+02  0.18908246727E+03  0.26430006008E+03  0.17200000000E+03 0. -1.
         -6    1    1    2    0  503 -0.65286277577E+02  0.16001383887E+02  0.17474693899E+03  0.25424168622E+03  0.17200000000E+03 0. -1.
<mgrwt>
<rscale>  2 0.18466820E+03</rscale>
<asrwt>0</asrwt>
<pdfrwt beam="1">  1       21 0.11029639E+00 0.18466820E+03</pdfrwt>
<pdfrwt beam="2">  1       21 0.19339044E-01 0.18466820E+03</pdfrwt>
<totfact> 0.16029869E+04</totfact>
</mgrwt>
</event>
<event>
 4    1  0.1086582E+000  0.1780608E+03  0.7546771E-02  0.1169693E+00
         21   -1    0    0  503  502  0.00000000000E+00  0.00000000000E+00  0.55710894551E+03  0.55710894551E+03  0.00000000000E+00 0. -1.
         21   -1    0    0  501  503 -0.00000000000E+00 -0.00000000000E+00 -0.85607749692E+02  0.85607749692E+02  0.00000000000E+00 0. -1.
          6    1    1    2  501    0 -0.86971925091E+01 -0.45232925411E+02  0.49692330716E+02  0.18486477877E+03  0.17200000000E+03 0. -1.
         -6    1    1    2    0  502  0.86971925091E+01  0.45232925411E+02  0.42180886510E+03  0.45785191643E+03  0.17200000000E+03 0. -1.
<mgrwt>
<rscale>  2 0.17806083E+03</rscale>
<asrwt>0</asrwt>
<pdfrwt beam="1">  1       21 0.13927723E+00 0.17806083E+03</pdfrwt>
<pdfrwt beam="2">  1       21 0.21401939E-01 0.17806083E+03</pdfrwt>
<totfact> 0.74589639E+03</totfact>
</mgrwt>
</event>
<event>
 4    1  0.1086582E+000  0.2172737E+03  0.7546771E-02  0.1135932E+00
         21   -1    0    0  501  502  0.00000000000E+00  0.00000000000E+00  0.24172411756E+03  0.24172411756E+03  0.00000000000E+00 0.  1.
         21   -1    0    0  502  503 -0.00000000000E+00 -0.00000000000E+00 -0.66348009867E+03  0.66348009867E+03  0.00000000000E+00 0. -1.
          6    1    1    2  501    0  0.13272561056E+03  0.27873156284E+01 -0.59107680047E+03  0.62974569540E+03  0.17200000000E+03 0. -1.
         -6    1    1    2    0  503 -0.13272561056E+03 -0.27873156284E+01  0.16932081936E+03  0.27545852082E+03  0.17200000000E+03 0. -1.
<mgrwt>
<rscale>  2 0.21727369E+03</rscale>
<asrwt>0</asrwt>
<pdfrwt beam="1">  1       21 0.60431030E-01 0.21727369E+03</pdfrwt>
<pdfrwt beam="2">  1       21 0.16587002E+00 0.21727369E+03</pdfrwt>
<totfact> 0.56692099E+02</totfact>
</mgrwt>
</event>
<event>
 4    1  0.1086582E+000  0.2000361E+03  0.7546771E-02  0.1149709E+00
         21   -1    0    0  503  502  0.00000000000E+00  0.00000000000E+00  0.29053996070E+03  0.29053996070E+03  0.00000000000E+00 0.  1.
         21   -1    0    0  501  503 -0.00000000000E+00 -0.00000000000E+00 -0.14399785347E+03  0.14399785347E+03  0.00000000000E+00 0. -1.
          6    1    1    2  501    0  0.42697661871E+02 -0.92775723377E+02  0.27921304659E+02  0.20197530649E+03  0.17200000000E+03 0. -1.
         -6    1    1    2    0  502 -0.42697661871E+02  0.92775723377E+02  0.11862080258E+03  0.23256250769E+03  0.17200000000E+03 0.  1.
<mgrwt>
<rscale>  2 0.20003606E+03</rscale>
<asrwt>0</asrwt>
<pdfrwt beam="1">  1       21 0.72634989E-01 0.20003606E+03</pdfrwt>
<pdfrwt beam="2">  1       21 0.35999464E-01 0.20003606E+03</pdfrwt>
<totfact> 0.12643065E+04</totfact>
</mgrwt>
</event>
<event>
 4    1  0.1086582E+000  0.1812949E+03  0.7546771E-02  0.1166556E+00
         21   -1    0    0  503  502  0.00000000000E+00  0.00000000000E+00  0.18098107848E+04  0.18098107848E+04  0.00000000000E+00 0. -1.
         21   -1    0    0  501  503 -0.00000000000E+00 -0.00000000000E+00 -0.57159482158E+02  0.57159482158E+02  0.00000000000E+00 0. -1.
          6    1    1    2  501    0 -0.55511487657E+02  0.14224343379E+02  0.10526689492E+03  0.20964011155E+03  0.17200000000E+03 0. -1.
         -6    1    1    2    0  502  0.55511487657E+02 -0.14224343379E+02  0.16473844077E+04  0.16573301554E+04  0.17200000000E+03 0. -1.
<mgrwt>
<rscale>  2 0.18129495E+03</rscale>
<asrwt>0</asrwt>
<pdfrwt beam="1">  1       21 0.45245251E+00 0.18129495E+03</pdfrwt>
<pdfrwt beam="2">  1       21 0.14289877E-01 0.18129495E+03</pdfrwt>
<totfact> 0.17543160E+02</totfact>
</mgrwt>
</event>
<event>
 4    1  0.1086582E+000  0.2056993E+03  0.7546771E-02  0.1145018E+00
         21   -1    0    0  501  502  0.00000000000E+00  0.00000000000E+00  0.14150896524E+03  0.14150896524E+03  0.00000000000E+00 0.  1.
         21   -1    0    0  502  503 -0.00000000000E+00 -0.00000000000E+00 -0.30509261860E+03  0.30509261860E+03  0.00000000000E+00 0.  1.
          6    1    1    2  501    0  0.93077486032E+02  0.63755588226E+02 -0.11332888375E+03  0.23485235645E+03  0.17200000000E+03 0.  1.
         -6    1    1    2    0  503 -0.93077486032E+02 -0.63755588226E+02 -0.50254769606E+02  0.21174922740E+03  0.17200000000E+03 0.  1.
<mgrwt>
<rscale>  2 0.20569928E+03</rscale>
<asrwt>0</asrwt>
<pdfrwt beam="1">  1       21 0.35377242E-01 0.20569928E+03</pdfrwt>
<pdfrwt beam="2">  1       21 0.76273154E-01 0.20569928E+03</pdfrwt>
<totfact> 0.11692914E+04</totfact>
</mgrwt>
</event>
<event>
 4    1  0.1086582E+000  0.2041650E+03  0.7546771E-02  0.1146272E+00
         21   -1    0    0  503  502  0.00000000000E+00  0.00000000000E+00  0.50948707177E+03  0.50948707177E+03  0.00000000000E+00 0. -1.
         21   -1    0    0  501  503 -0.00000000000E+00 -0.00000000000E+00 -0.19293884075E+03  0.19293884075E+03  0.00000000000E+00 0.  1.
          6    1    1    2  501    0 -0.70788459068E+02  0.84192336664E+02 -0.10826784080E+03  0.23109582610E+03  0.17200000000E+03 0.  1.
         -6    1    1    2    0  502  0.70788459068E+02 -0.84192336664E+02  0.42481607182E+03  0.47133008642E+03  0.17200000000E+03 0. -1.
<mgrwt>
<rscale>  2 0.20416502E+03</rscale>
<asrwt>0</asrwt>
<pdfrwt beam="1">  1       21 0.12737177E+00 0.20416502E+03</pdfrwt>
<pdfrwt beam="2">  1       21 0.48234711E-01 0.20416502E+03</pdfrwt>
<totfact> 0.18486046E+03</totfact>
</mgrwt>
</event>
<event>
 4    1  0.1086582E+000  0.1721189E+03  0.7546771E-02  0.1175656E+00
         21   -1    0    0  501  502  0.00000000000E+00  0.00000000000E+00  0.60794900447E+03  0.60794900447E+03  0.00000000000E+00 0. -1.
         21   -1    0    0  502  503 -0.00000000000E+00 -0.00000000000E+00 -0.51291291372E+02  0.51291291372E+02  0.00000000000E+00 0. -1.
          6    1    1    2  501    0  0.63625356632E+01  0.65956834315E+00  0.35199747271E+03  0.39182539183E+03  0.17200000000E+03 0.  1.
         -6    1    1    2    0  503 -0.63625356632E+01 -0.65956834315E+00  0.20466024038E+03  0.26741490401E+03  0.17200000000E+03 0.  1.
<mgrwt>
<rscale>  2 0.17211890E+03</rscale>
<asrwt>0</asrwt>
<pdfrwt beam="1">  1       21 0.15198723E+00 0.17211890E+03</pdfrwt>
<pdfrwt beam="2">  1       21 0.12822825E-01 0.17211890E+03</pdfrwt>
<totfact> 0.15268849E+04</totfact>
</mgrwt>
</event>
<event>
 4    1  0.1086582E+000  0.2577250E+03  0.7546771E-02  0.1108518E+00
         21   -1    0    0  501  502  0.00000000000E+00  0.00000000000E+00  0.62697025533E+03  0.62697025533E+03  0.00000000000E+00 0.  1.
         21   -1    0    0  502  503 -0.00000000000E+00 -0.00000000000E+00 -0.10672217913E+03  0.10672217913E+03  0.00000000000E+00 0.  1.
          6    1    1    2  501    0 -0.19173537289E+03 -0.87031185329E+01  0.29149880334E+03  0.38909349755E+03  0.17200000000E+03 0.  1.
         -6    1    1    2    0  503  0.19173537289E+03  0.87031185329E+01  0.22874927286E+03  0.34459893691E+03  0.17200000000E+03 0.  1.
<mgrwt>
<rscale>  2 0.25772504E+03</rscale>
<asrwt>0</asrwt>
<pdfrwt beam="1">  1       21 0.15674255E+00 0.25772504E+03</pdfrwt>
<pdfrwt beam="2">  1       21 0.26680547E-01 0.25772504E+03</pdfrwt>
<totfact> 0.33780179E+03</totfact>
</mgrwt>
</event>
<event>
 4    1  0.1086582E+000  0.1784552E+03  0.7546771E-02  0.1169307E+00
         21   -1    0    0  503  502  0.00000000000E+00  0.00000000000E+00  0.33249164981E+02  0.33249164981E+02  0.00000000000E+00 0.  1.
         21   -1    0    0  501  503 -0.00000000000E+00 -0.00000000000E+00 -0.98847268956E+03  0.98847268956E+03  0.00000000000E+00 0. -1.
          6    1    1    2  501    0  0.46932236384E+02  0.77206021746E+01 -0.56759369820E+03  0.59498642736E+03  0.17200000000E+03 0.  1.
         -6    1    1    2    0  502 -0.46932236384E+02 -0.77206021746E+01 -0.38762982638E+03  0.42673542718E+03  0.17200000000E+03 0.  1.
<mgrwt>
<rscale>  2 0.17845516E+03</rscale>
<asrwt>0</asrwt>
<pdfrwt beam="1">  1       21 0.83122912E-02 0.17845516E+03</pdfrwt>
<pdfrwt beam="2">  1       21 0.24711817E+00 0.17845516E+03</pdfrwt>
<totfact> 0.78735488E+03</totfact>
</mgrwt>
</event>
<event>
 4    1  0.1086582E+000  0.2188689E+03  0.7546771E-02  0.1134729E+00
         21   -1    0    0  501  502  0.00000000000E+00  0.00000000000E+00  0.52697474191E+03  0.52697474191E+03  0.00000000000E+00 0.  1.
         21   -1    0    0  502  503 -0.00000000000E+00 -0.00000000000E+00 -0.22657973379E+03  0.22657973379E+03  0.00000000000E+00 0.  1.
          6    1    1    2  501    0 -0.13500527335E+03 -0.96523731629E+01  0.44175673441E+03  0.49300365570E+03  0.17200000000E+03 0.  1.
         -6    1    1    2    0  503  0.13500527335E+03  0.96523731629E+01 -0.14136172629E+03  0.26055082000E+03  0.17200000000E+03 0.  1.
<mgrwt>
<rscale>  2 0.21886889E+03</rscale>
<asrwt>0</asrwt>
<pdfrwt beam="1">  1       21 0.13174368E+00 0.21886889E+03</pdfrwt>
<pdfrwt beam="2">  1       21 0.56644934E-01 0.21886889E+03</pdfrwt>
<totfact> 0.11941522E+03</totfact>
</mgrwt>
</event>
<event>
 4    1  0.1086582E+000  0.1964377E+03  0.7546771E-02  0.1152780E+00
         21   -1    0    0  501  502  0.00000000000E+00  0.00000000000E+00  0.92037204792E+02  0.92037204792E+02  0.00000000000E+00 0. -1.
         21   -1    0    0  502  503 -0.00000000000E+00 -0.00000000000E+00 -0.56526865857E+03  0.56526865857E+03  0.00000000000E+00 0. -1.
          6    1    1    2  501    0 -0.26200856458E+02  0.91199237389E+02 -0.69585510570E+02  0.20839848622E+03  0.17200000000E+03 0. -1.
         -6    1    1    2    0  503  0.26200856458E+02 -0.91199237389E+02 -0.40364594321E+03  0.44890737714E+03  0.17200000000E+03 0. -1.
<mgrwt>
<rscale>  2 0.19643774E+03</rscale>
<asrwt>0</asrwt>
<pdfrwt beam="1">  1       21 0.23009302E-01 0.19643774E+03</pdfrwt>
<pdfrwt beam="2">  1       21 0.14131716E+00 0.19643774E+03</pdfrwt>
<totfact> 0.61753419E+03</totfact>
</mgrwt>
</event>
<event>
 4    1  0.1086582E+000  0.2079884E+03  0.7546771E-02  0.1143169E+00
         21   -1    0    0  501  502  0.00000000000E+00  0.00000000000E+00  0.71630577749E+03  0.71630577749E+03  0.00000000000E+00 0.  1.
         21   -1    0    0  502  503 -0.00000000000E+00 -0.00000000000E+00 -0.64357791155E+03  0.64357791155E+03  0.00000000000E+00 0.  1.
          6    1    1    2  501    0  0.10695063009E+03 -0.47293970303E+02  0.68361787833E+03  0.71455759773E+03  0.17200000000E+03 0.  1.
         -6    1    1    2    0  503 -0.10695063009E+03  0.47293970303E+02 -0.61089001238E+03  0.64532609131E+03  0.17200000000E+03 0.  1.
<mgrwt>
<rscale>  2 0.20798836E+03</rscale>
<asrwt>0</asrwt>
<pdfrwt beam="1">  1       21 0.17907644E+00 0.20798836E+03</pdfrwt>
<pdfrwt beam="2">  1       21 0.16089448E+00 0.20798836E+03</pdfrwt>
<totfact> 0.44716414E+01</totfact>
</mgrwt>
</event>
<event>
 4    1  0.1086582E+000  0.1865353E+03  0.7546771E-02  0.1161624E+00
         21   -1    0    0  501  502  0.00000000000E+00  0.00000000000E+00  0.16437059159E+03  0.16437059159E+03  0.00000000000E+00 0.  1.
         21   -1    0    0  502  503 -0.00000000000E+00 -0.00000000000E+00 -0.32396420298E+03  0.32396420298E+03  0.00000000000E+00 0.  1.
          6    1    1    2  501    0  0.54139815085E+02 -0.47752635857E+02  0.63944382771E+02  0.19719106952E+03  0.17200000000E+03 0.  1.
         -6    1    1    2    0  503 -0.54139815085E+02  0.47752635857E+02 -0.22353799416E+03  0.29114372506E+03  0.17200000000E+03 0.  1.
<mgrwt>
<rscale>  2 0.18653534E+03</rscale>
<asrwt>0</asrwt>
<pdfrwt beam="1">  1       21 0.41092648E-01 0.18653534E+03</pdfrwt>
<pdfrwt beam="2">  1       21 0.80991050E-01 0.18653534E+03</pdfrwt>
<totfact> 0.76631968E+03</totfact>
</mgrwt>
</event>
<event>
 4    1  0.1086582E+000  0.2047265E+03  0.7546771E-02  0.1145811E+00
         21   -1    0    0  503  502  0.00000000000E+00  0.00000000000E+00  0.97694915793E+02  0.97694915793E+02  0.00000000000E+00 0.  1.
         21   -1    0    0  501  503 -0.00000000000E+00 -0.00000000000E+00 -0.52059894490E+03  0.52059894490E+03  0.00000000000E+00 0.  1.
          6    1    1    2  501    0 -0.11103573743E+03 -0.15587103095E+00 -0.34111435876E+03  0.39783409235E+03  0.17200000000E+03 0.  1.
         -6    1    1    2    0  502  0.11103573743E+03  0.15587103095E+00 -0.81789670343E+02  0.22045976834E+03  0.17200000000E+03 0.  1.
<mgrwt>
<rscale>  2 0.20472655E+03</rscale>
<asrwt>0</asrwt>
<pdfrwt beam="1">  1       21 0.24423729E-01 0.20472655E+03</pdfrwt>
<pdfrwt beam="2">  1       21 0.13014973E+00 0.20472655E+03</pdfrwt>
<totfact> 0.67614343E+03</totfact>
</mgrwt>
</event>
<event>
 4    1  0.1086582E+000  0.2087349E+03  0.7546771E-02  0.1142572E+00
         21   -1    0    0  501  502  0.00000000000E+00  0.00000000000E+00  0.54065432843E+03  0.54065432843E+03  0.00000000000E+00 0. -1.
         21   -1    0    0  502  503 -0.00000000000E+00 -0.00000000000E+00 -0.86920913884E+02  0.86920913884E+02  0.00000000000E+00 0.  1.
          6    1    1    2  501    0  0.62025794605E+02 -0.10069296316E+03  0.31156489614E+03  0.37502394128E+03  0.17200000000E+03 0. -1.
         -6    1    1    2    0  503 -0.62025794605E+02  0.10069296316E+03  0.14216851840E+03  0.25255130103E+03  0.17200000000E+03 0. -1.
<mgrwt>
<rscale>  2 0.20873493E+03</rscale>
<asrwt>0</asrwt>
<pdfrwt beam="1">  1       21 0.13516357E+00 0.20873493E+03</pdfrwt>
<pdfrwt beam="2">  1       21 0.21730230E-01 0.20873493E+03</pdfrwt>
<totfact> 0.76432763E+03</totfact>
</mgrwt>
</event>
<event>
 4    1  0.1086582E+000  0.1874259E+03  0.7546771E-02  0.1160804E+00
         21   -1    0    0  503  502  0.00000000000E+00  0.00000000000E+00  0.19144419581E+03  0.19144419581E+03  0.00000000000E+00 0.  1.
         21   -1    0    0  501  503 -0.00000000000E+00 -0.00000000000E+00 -0.18493708925E+03  0.18493708925E+03  0.00000000000E+00 0.  1.
          6    1    1    2  501    0  0.17926787152E+02 -0.72271110306E+02 -0.13381709237E+02  0.18790304208E+03  0.17200000000E+03 0. -1.
         -6    1    1    2    0  502 -0.17926787152E+02  0.72271110306E+02  0.19888815790E+02  0.18847824298E+03  0.17200000000E+03 0. -1.
<mgrwt>
<rscale>  2 0.18742594E+03</rscale>
<asrwt>0</asrwt>
<pdfrwt beam="1">  1       21 0.47861049E-01 0.18742594E+03</pdfrwt>
<pdfrwt beam="2">  1       21 0.46234272E-01 0.18742594E+03</pdfrwt>
<totfact> 0.18761888E+04</totfact>
</mgrwt>
</event>
<event>
 4    1  0.1086582E+000  0.3392522E+03  0.7546771E-02  0.1067115E+00
         21   -1    0    0  503  502  0.00000000000E+00  0.00000000000E+00  0.13605139655E+04  0.13605139655E+04  0.00000000000E+00 0. -1.
         21   -1    0    0  501  503 -0.00000000000E+00 -0.00000000000E+00 -0.86067483184E+02  0.86067483184E+02  0.00000000000E+00 0. -1.
          6    1    1    2  501    0 -0.10411345057E+03 -0.27325522385E+03  0.73184457460E+03  0.80665265717E+03  0.17200000000E+03 0. -1.
         -6    1    1    2    0  502  0.10411345057E+03  0.27325522385E+03  0.54260190771E+03  0.63992879151E+03  0.17200000000E+03 0. -1.
<mgrwt>
<rscale>  2 0.33925216E+03</rscale>
<asrwt>0</asrwt>
<pdfrwt beam="1">  1       21 0.34012842E+00 0.33925216E+03</pdfrwt>
<pdfrwt beam="2">  1       21 0.21516875E-01 0.33925216E+03</pdfrwt>
<totfact> 0.33998428E+02</totfact>
</mgrwt>
</event>
<event>
 4    1  0.1086582E+000  0.1869455E+03  0.7546771E-02  0.1161245E+00
         21   -1    0    0  501  502  0.00000000000E+00  0.00000000000E+00  0.45081568274E+03  0.45081568274E+03  0.00000000000E+00 0. -1.
         21   -1    0    0  502  503 -0.00000000000E+00 -0.00000000000E+00 -0.11581735654E+03  0.11581735654E+03  0.00000000000E+00 0. -1.
          6    1    1    2  501    0  0.72188800222E+02 -0.12385541868E+02  0.33041074273E+03  0.37963124665E+03  0.17200000000E+03 0. -1.
         -6    1    1    2    0  503 -0.72188800222E+02  0.12385541868E+02  0.45875834671E+01  0.18700179263E+03  0.17200000000E+03 0. -1.
<mgrwt>
<rscale>  2 0.18694551E+03</rscale>
<asrwt>0</asrwt>
<pdfrwt beam="1">  1       21 0.11270392E+00 0.18694551E+03</pdfrwt>
<pdfrwt beam="2">  1       21 0.28954340E-01 0.18694551E+03</pdfrwt>
<totfact> 0.70610179E+03</totfact>
</mgrwt>
</event>
<event>
 4    1  0.1086582E+000  0.2289182E+03  0.7546771E-02  0.1127403E+00
         21   -1    0    0  503  502  0.00000000000E+00  0.00000000000E+00  0.19540992554E+03  0.19540992554E+03  0.00000000000E+00 0.  1.
         21   -1    0    0  501  503 -0.00000000000E+00 -0.00000000000E+00 -0.28578572047E+03  0.28578572047E+03  0.00000000000E+00 0.  1.
          6    1    1    2  501    0 -0.82440105917E+02 -0.12658270131E+03 -0.10491781074E+03  0.25181600097E+03  0.17200000000E+03 0.  1.
         -6    1    1    2    0  502  0.82440105917E+02  0.12658270131E+03  0.14542015807E+02  0.22937964504E+03  0.17200000000E+03 0.  1.
<mgrwt>
<rscale>  2 0.22891822E+03</rscale>
<asrwt>0</asrwt>
<pdfrwt beam="1">  1       21 0.48852482E-01 0.22891822E+03</pdfrwt>
<pdfrwt beam="2">  1       21 0.71446430E-01 0.22891822E+03</pdfrwt>
<totfact> 0.69051668E+03</totfact>
</mgrwt>
</event>
<event>
 4    1  0.1086582E+000  0.2125089E+03  0.7546771E-02  0.1139594E+00
         21   -1    0    0  503  502  0.00000000000E+00  0.00000000000E+00  0.37799302597E+03  0.37799302597E+03  0.00000000000E+00 0.  1.
         21   -1    0    0  501  503 -0.00000000000E+00 -0.00000000000E+00 -0.11976497492E+03  0.11976497492E+03  0.00000000000E+00 0. -1.
          6    1    1    2  501    0  0.67238104163E+02 -0.10514314473E+03  0.14139784006E+03  0.25525162626E+03  0.17200000000E+03 0. -1.
         -6    1    1    2    0  502 -0.67238104163E+02  0.10514314473E+03  0.11683021098E+03  0.24250637463E+03  0.17200000000E+03 0.  1.
<mgrwt>
<rscale>  2 0.21250893E+03</rscale>
<asrwt>0</asrwt>
<pdfrwt beam="1">  1       21 0.94498254E-01 0.21250893E+03</pdfrwt>
<pdfrwt beam="2">  1       21 0.29941245E-01 0.21250893E+03</pdfrwt>
<totfact> 0.98959994E+03</totfact>
</mgrwt>
</event>
<event>
 4    1  0.1086582E+000  0.1741483E+03  0.7546771E-02  0.1173590E+00
         21   -1    0    0  501  502  0.00000000000E+00  0.00000000000E+00  0.49942912801E+03  0.49942912801E+03  0.00000000000E+00 0.  1.
         21   -1    0    0  502  503 -0.00000000000E+00 -0.00000000000E+00 -0.71415511912E+02  0.71415511912E+02  0.00000000000E+00 0.  1.
          6    1    1    2  501    0 -0.12563303059E+02  0.24203117731E+02  0.32443991640E+03  0.36822396289E+03  0.17200000000E+03 0.  1.
         -6    1    1    2    0  503  0.12563303059E+02 -0.24203117731E+02  0.10357369970E+03  0.20262067703E+03  0.17200000000E+03 0.  1.
<mgrwt>
<rscale>  2 0.17414829E+03</rscale>
<asrwt>0</asrwt>
<pdfrwt beam="1">  1       21 0.12485727E+00 0.17414829E+03</pdfrwt>
<pdfrwt beam="2">  1       21 0.17853879E-01 0.17414829E+03</pdfrwt>
<totfact> 0.13813139E+04</totfact>
</mgrwt>
</event>
<event>
 4    1  0.1086582E+000  0.1884805E+03  0.7546771E-02  0.1159839E+00
         21   -1    0    0  503  502  0.00000000000E+00  0.00000000000E+00  0.24983717880E+03  0.24983717880E+03  0.00000000000E+00 0.  1.
         21   -1    0    0  501  503 -0.00000000000E+00 -0.00000000000E+00 -0.66274655899E+03  0.66274655899E+03  0.00000000000E+00 0.  1.
          6    1    1    2  501    0  0.68522207003E+02 -0.35293123607E+02 -0.61084620439E+03  0.63926362546E+03  0.17200000000E+03 0.  1.
         -6    1    1    2    0  502 -0.68522207003E+02  0.35293123607E+02  0.19793682420E+03  0.27332011232E+03  0.17200000000E+03 0.  1.
<mgrwt>
<rscale>  2 0.18848050E+03</rscale>
<asrwt>0</asrwt>
<pdfrwt beam="1">  1       21 0.62459295E-01 0.18848050E+03</pdfrwt>
<pdfrwt beam="2">  1       21 0.16568664E+00 0.18848050E+03</pdfrwt>
<totfact> 0.54672616E+02</totfact>
</mgrwt>
</event>
<event>
 4    1  0.1086582E+000  0.1750699E+03  0.7546771E-02  0.1172662E+00
         21   -1    0    0  501  502  0.00000000000E+00  0.00000000000E+00  0.26180311119E+03  0.26180311119E+03  0.00000000000E+00 0. -1.
         21   -1    0    0  502  503 -0.00000000000E+00 -0.00000000000E+00 -0.12111643451E+03  0.12111643451E+03  0.00000000000E+00 0. -1.
          6    1    1    2  501    0 -0.31325959322E+02 -0.91727570948E+01  0.35350558830E+02  0.17860323964E+03  0.17200000000E+03 0. -1.
         -6    1    1    2    0  503  0.31325959322E+02  0.91727570948E+01  0.10533611785E+03  0.20431630606E+03  0.17200000000E+03 0. -1.
<mgrwt>
<rscale>  2 0.17506986E+03</rscale>
<asrwt>0</asrwt>
<pdfrwt beam="1">  1       21 0.65450777E-01 0.17506986E+03</pdfrwt>
<pdfrwt beam="2">  1       21 0.30279109E-01 0.17506986E+03</pdfrwt>
<totfact> 0.22702527E+04</totfact>
</mgrwt>
</event>
<event>
 4    1  0.1086582E+000  0.2952085E+03  0.7546771E-02  0.1087661E+00
         21   -1    0    0  503  502  0.00000000000E+00  0.00000000000E+00  0.11689410658E+04  0.11689410658E+04  0.00000000000E+00 0. -1.
         21   -1    0    0  501  503 -0.00000000000E+00 -0.00000000000E+00 -0.15099339047E+03  0.15099339047E+03  0.00000000000E+00 0. -1.
          6    1    1    2  501    0  0.19167851248E+03  0.14430326189E+03  0.39399017283E+02  0.29782606686E+03  0.17200000000E+03 0. -1.
         -6    1    1    2    0  502 -0.19167851248E+03 -0.14430326189E+03  0.97854865808E+03  0.10221083894E+04  0.17200000000E+03 0. -1.
<mgrwt>
<rscale>  2 0.29520854E+03</rscale>
<asrwt>0</asrwt>
<pdfrwt beam="1">  1       21 0.29223524E+00 0.29520854E+03</pdfrwt>
<pdfrwt beam="2">  1       21 0.37748351E-01 0.29520854E+03</pdfrwt>
<totfact> 0.22621512E+02</totfact>
</mgrwt>
</event>
<event>
 4    1  0.1086582E+000  0.1819023E+03  0.7546771E-02  0.1165975E+00
         21   -1    0    0  501  502  0.00000000000E+00  0.00000000000E+00  0.60230716743E+03  0.60230716743E+03  0.00000000000E+00 0.  1.
         21   -1    0    0  502  503 -0.00000000000E+00 -0.00000000000E+00 -0.57469753399E+02  0.57469753399E+02  0.00000000000E+00 0.  1.
          6    1    1    2  501    0 -0.46067840491E+02 -0.37178157190E+02  0.34168362131E+03  0.38708675820E+03  0.17200000000E+03 0.  1.
         -6    1    1    2    0  503  0.46067840491E+02  0.37178157190E+02  0.20315379272E+03  0.27269016263E+03  0.17200000000E+03 0.  1.
<mgrwt>
<rscale>  2 0.18190234E+03</rscale>
<asrwt>0</asrwt>
<pdfrwt beam="1">  1       21 0.15057677E+00 0.18190234E+03</pdfrwt>
<pdfrwt beam="2">  1       21 0.14367440E-01 0.18190234E+03</pdfrwt>
<totfact> 0.12652770E+04</totfact>
</mgrwt>
</event>
<event>
 4    1  0.1086582E+000  0.1814283E+03  0.7546771E-02  0.1166428E+00
         21   -1    0    0  503  502  0.00000000000E+00  0.00000000000E+00  0.36855523344E+03  0.36855523344E+03  0.00000000000E+00 0. -1.
         21   -1    0    0  501  503 -0.00000000000E+00 -0.00000000000E+00 -0.90700655669E+02  0.90700655669E+02  0.00000000000E+00 0. -1.
          6    1    1    2  501    0 -0.31056146088E+02 -0.48659479329E+02  0.16734515195E+03  0.24682104655E+03  0.17200000000E+03 0. -1.
         -6    1    1    2    0  502  0.31056146088E+02  0.48659479329E+02  0.11050942582E+03  0.21243484256E+03  0.17200000000E+03 0. -1.
<mgrwt>
<rscale>  2 0.18142830E+03</rscale>
<asrwt>0</asrwt>
<pdfrwt beam="1">  1       21 0.92138805E-01 0.18142830E+03</pdfrwt>
<pdfrwt beam="2">  1       21 0.22675165E-01 0.18142830E+03</pdfrwt>
<totfact> 0.18266346E+04</totfact>
</mgrwt>
</event>
<event>
 4    1  0.1086582E+000  0.2145771E+03  0.7546771E-02  0.1137992E+00
         21   -1    0    0  501  502  0.00000000000E+00  0.00000000000E+00  0.38398559093E+03  0.38398559093E+03  0.00000000000E+00 0.  1.
         21   -1    0    0  502  503 -0.00000000000E+00 -0.00000000000E+00 -0.13836064327E+03  0.13836064327E+03  0.00000000000E+00 0. -1.
          6    1    1    2  501    0 -0.67468715672E+02 -0.10912060522E+03  0.27436380026E+02  0.21632403710E+03  0.17200000000E+03 0. -1.
         -6    1    1    2    0  503  0.67468715672E+02  0.10912060522E+03  0.21818856763E+03  0.30602219711E+03  0.17200000000E+03 0. -1.
<mgrwt>
<rscale>  2 0.21457711E+03</rscale>
<asrwt>0</asrwt>
<pdfrwt beam="1">  1       21 0.95996396E-01 0.21457711E+03</pdfrwt>
<pdfrwt beam="2">  1       21 0.34590162E-01 0.21457711E+03</pdfrwt>
<totfact> 0.71666669E+03</totfact>
</mgrwt>
</event>
<event>
 4    1  0.1086582E+000  0.1936143E+03  0.7546771E-02  0.1155241E+00
         21   -1    0    0  503  502  0.00000000000E+00  0.00000000000E+00  0.16041850174E+03  0.16041850174E+03  0.00000000000E+00 0. -1.
         21   -1    0    0  501  503 -0.00000000000E+00 -0.00000000000E+00 -0.12918343334E+04  0.12918343334E+04  0.00000000000E+00 0. -1.
          6    1    1    2  501    0  0.74302017729E+02 -0.48802771845E+02 -0.12228865796E+04  0.12381187694E+04  0.17200000000E+03 0. -1.
         -6    1    1    2    0  502 -0.74302017729E+02  0.48802771845E+02  0.91470748002E+02  0.21413406576E+03  0.17200000000E+03 0. -1.
<mgrwt>
<rscale>  2 0.19361431E+03</rscale>
<asrwt>0</asrwt>
<pdfrwt beam="1">  1       21 0.40104627E-01 0.19361431E+03</pdfrwt>
<pdfrwt beam="2">  1       21 0.32295857E+00 0.19361431E+03</pdfrwt>
<totfact> 0.15051308E+02</totfact>
</mgrwt>
</event>
<event>
 4    1  0.1086582E+000  0.2536596E+03  0.7546771E-02  0.1111014E+00
         21   -1    0    0  501  502  0.00000000000E+00  0.00000000000E+00  0.74869271444E+03  0.74869271444E+03  0.00000000000E+00 0. -1.
         21   -1    0    0  502  503 -0.00000000000E+00 -0.00000000000E+00 -0.11193752659E+03  0.11193752659E+03  0.00000000000E+00 0.  1.
          6    1    1    2  501    0  0.17198287520E+03  0.71979624302E+02  0.11100138760E+03  0.27688352014E+03  0.17200000000E+03 0.  1.
         -6    1    1    2    0  503 -0.17198287520E+03 -0.71979624302E+02  0.52575380024E+03  0.58374672089E+03  0.17200000000E+03 0. -1.
<mgrwt>
<rscale>  2 0.25365957E+03</rscale>
<asrwt>0</asrwt>
<pdfrwt beam="1">  1       21 0.18717316E+00 0.25365957E+03</pdfrwt>
<pdfrwt beam="2">  1       21 0.27984384E-01 0.25365957E+03</pdfrwt>
<totfact> 0.18793892E+03</totfact>
</mgrwt>
</event>
<event>
 4    1  0.1086582E+000  0.2060923E+03  0.7546771E-02  0.1144698E+00
         21   -1    0    0  501  502  0.00000000000E+00  0.00000000000E+00  0.54447226324E+03  0.54447226324E+03  0.00000000000E+00 0.  1.
         21   -1    0    0  502  503 -0.00000000000E+00 -0.00000000000E+00 -0.11558853917E+03  0.11558853917E+03  0.00000000000E+00 0.  1.
          6    1    1    2  501    0 -0.10929359409E+03 -0.30740116827E+02  0.26263788032E+02  0.20775906973E+03  0.17200000000E+03 0.  1.
         -6    1    1    2    0  503  0.10929359409E+03  0.30740116827E+02  0.40261993604E+03  0.45230173268E+03  0.17200000000E+03 0.  1.
<mgrwt>
<rscale>  2 0.20609232E+03</rscale>
<asrwt>0</asrwt>
<pdfrwt beam="1">  1       21 0.13611806E+00 0.20609232E+03</pdfrwt>
<pdfrwt beam="2">  1       21 0.28897136E-01 0.20609232E+03</pdfrwt>
<totfact> 0.43597806E+03</totfact>
</mgrwt>
</event>
<event>
 4    1  0.1086582E+000  0.2018865E+03  0.7546771E-02  0.1148157E+00
         21   -1    0    0  501  502  0.00000000000E+00  0.00000000000E+00  0.43710637767E+02  0.43710637767E+02  0.00000000000E+00 0. -1.
         21   -1    0    0  502  503 -0.00000000000E+00 -0.00000000000E+00 -0.11337267026E+04  0.11337267026E+04  0.00000000000E+00 0.  1.
          6    1    1    2  501    0  0.10130132030E+03 -0.30202758438E+02 -0.29695420373E+03  0.35908211209E+03  0.17200000000E+03 0. -1.
         -6    1    1    2    0  503 -0.10130132030E+03  0.30202758438E+02 -0.79306186115E+03  0.81835522832E+03  0.17200000000E+03 0.  1.
<mgrwt>
<rscale>  2 0.20188651E+03</rscale>
<asrwt>0</asrwt>
<pdfrwt beam="1">  1       21 0.10927659E-01 0.20188651E+03</pdfrwt>
<pdfrwt beam="2">  1       21 0.28343169E+00 0.20188651E+03</pdfrwt>
<totfact> 0.29170194E+03</totfact>
</mgrwt>
</event>
<event>
 4    1  0.1086582E+000  0.3618252E+03  0.7546771E-02  0.1057864E+00
         21   -1    0    0  501  502  0.00000000000E+00  0.00000000000E+00  0.15764051049E+03  0.15764051049E+03  0.00000000000E+00 0. -1.
         21   -1    0    0  502  503 -0.00000000000E+00 -0.00000000000E+00 -0.87568390853E+03  0.87568390853E+03  0.00000000000E+00 0.  1.
          6    1    1    2  501    0  0.31173795979E+03  0.64443039795E+02 -0.47640757140E+03  0.59823209128E+03  0.17200000000E+03 0.  1.
         -6    1    1    2    0  503 -0.31173795979E+03 -0.64443039795E+02 -0.24163582664E+03  0.43509232775E+03  0.17200000000E+03 0. -1.
<mgrwt>
<rscale>  2 0.36182518E+03</rscale>
<asrwt>0</asrwt>
<pdfrwt beam="1">  1       21 0.39410128E-01 0.36182518E+03</pdfrwt>
<pdfrwt beam="2">  1       21 0.21892097E+00 0.36182518E+03</pdfrwt>
<totfact> 0.54611552E+02</totfact>
</mgrwt>
</event>
<event>
 4    1  0.1086582E+000  0.1935689E+03  0.7546771E-02  0.1155281E+00
         21   -1    0    0  503  502  0.00000000000E+00  0.00000000000E+00  0.82937247845E+03  0.82937247845E+03  0.00000000000E+00 0.  1.
         21   -1    0    0  501  503 -0.00000000000E+00 -0.00000000000E+00 -0.14378010418E+03  0.14378010418E+03  0.00000000000E+00 0.  1.
          6    1    1    2  501    0 -0.84352805202E+02 -0.27740089481E+02 -0.60148948173E+02  0.20269880186E+03  0.17200000000E+03 0.  1.
         -6    1    1    2    0  502  0.84352805202E+02  0.27740089481E+02  0.74574132244E+03  0.77045378077E+03  0.17200000000E+03 0.  1.
<mgrwt>
<rscale>  2 0.19356887E+03</rscale>
<asrwt>0</asrwt>
<pdfrwt beam="1">  1       21 0.20734311E+00 0.19356887E+03</pdfrwt>
<pdfrwt beam="2">  1       21 0.35945028E-01 0.19356887E+03</pdfrwt>
<totfact> 0.89904458E+02</totfact>
</mgrwt>
</event>
<event>
 4    1  0.1086582E+000  0.2296186E+03  0.7546771E-02  0.1126908E+00
         21   -1    0    0  503  502  0.00000000000E+00  0.00000000000E+00  0.13033325423E+03  0.13033325423E+03  0.00000000000E+00 0.  1.
         21   -1    0    0  501  503 -0.00000000000E+00 -0.00000000000E+00 -0.11716006500E+04  0.11716006500E+04  0.00000000000E+00 0.  1.
          6    1    1    2  501    0 -0.13385599684E+03 -0.72272217690E+02 -0.10473595954E+04  0.10722345002E+04  0.17200000000E+03 0.  1.
         -6    1    1    2    0  502  0.13385599684E+03  0.72272217690E+02  0.60921995840E+01  0.22969940408E+03  0.17200000000E+03 0.  1.
<mgrwt>
<rscale>  2 0.22961860E+03</rscale>
<asrwt>0</asrwt>
<pdfrwt beam="1">  1       21 0.32583314E-01 0.22961860E+03</pdfrwt>
<pdfrwt beam="2">  1       21 0.29290016E+00 0.22961860E+03</pdfrwt>
<totfact> 0.32321305E+02</totfact>
</mgrwt>
</event>
<event>
 4    1  0.1086582E+000  0.2087286E+03  0.7546771E-02  0.1142577E+00
         21   -1    0    0  503  502  0.00000000000E+00  0.00000000000E+00  0.12498969272E+03  0.12498969272E+03  0.00000000000E+00 0. -1.
         21   -1    0    0  501  503 -0.00000000000E+00 -0.00000000000E+00 -0.41443986948E+03  0.41443986948E+03  0.00000000000E+00 0.  1.
          6    1    1    2  501    0  0.48432017611E+02 -0.10787947136E+03 -0.25225216056E+03  0.32741226791E+03  0.17200000000E+03 0. -1.
         -6    1    1    2    0  502 -0.48432017611E+02  0.10787947136E+03 -0.37198016196E+02  0.21201729429E+03  0.17200000000E+03 0. -1.
<mgrwt>
<rscale>  2 0.20872863E+03</rscale>
<asrwt>0</asrwt>
<pdfrwt beam="1">  1       21 0.31247424E-01 0.20872863E+03</pdfrwt>
<pdfrwt beam="2">  1       21 0.10360997E+00 0.20872863E+03</pdfrwt>
<totfact> 0.73358873E+03</totfact>
</mgrwt>
</event>
<event>
 4    1  0.1086582E+000  0.1762998E+03  0.7546771E-02  0.1171433E+00
         21   -1    0    0  503  502  0.00000000000E+00  0.00000000000E+00  0.84044781297E+02  0.84044781297E+02  0.00000000000E+00 0.  1.
         21   -1    0    0  501  503 -0.00000000000E+00 -0.00000000000E+00 -0.80502809462E+03  0.80502809462E+03  0.00000000000E+00 0.  1.
          6    1    1    2  501    0 -0.13678501421E+01 -0.38674898585E+02 -0.68734224683E+03  0.70959212444E+03  0.17200000000E+03 0.  1.
         -6    1    1    2    0  502  0.13678501421E+01  0.38674898585E+02 -0.33641066493E+02  0.17948075147E+03  0.17200000000E+03 0.  1.
<mgrwt>
<rscale>  2 0.17629980E+03</rscale>
<asrwt>0</asrwt>
<pdfrwt beam="1">  1       21 0.21011196E-01 0.17629980E+03</pdfrwt>
<pdfrwt beam="2">  1       21 0.20125702E+00 0.17629980E+03</pdfrwt>
<totfact> 0.28214467E+03</totfact>
</mgrwt>
</event>
<event>
 4    1  0.1086582E+000  0.1726743E+03  0.7546771E-02  0.1175087E+00
         21   -1    0    0  503  502  0.00000000000E+00  0.00000000000E+00  0.37853751719E+03  0.37853751719E+03  0.00000000000E+00 0.  1.
         21   -1    0    0  501  503 -0.00000000000E+00 -0.00000000000E+00 -0.14433210146E+03  0.14433210146E+03  0.00000000000E+00 0.  1.
          6    1    1    2  501    0  0.36542690033E+01 -0.14800651847E+02 -0.59101800267E+02  0.18250872793E+03  0.17200000000E+03 0.  1.
         -6    1    1    2    0  502 -0.36542690033E+01  0.14800651847E+02  0.29330721600E+03  0.34036089072E+03  0.17200000000E+03 0.  1.
<mgrwt>
<rscale>  2 0.17267430E+03</rscale>
<asrwt>0</asrwt>
<pdfrwt beam="1">  1       21 0.94634377E-01 0.17267430E+03</pdfrwt>
<pdfrwt beam="2">  1       21 0.36083026E-01 0.17267430E+03</pdfrwt>
<totfact> 0.70305319E+03</totfact>
</mgrwt>
</event>
<event>
 4    1  0.1086582E+000  0.2603213E+03  0.7546771E-02  0.1106950E+00
         21   -1    0    0  501  502  0.00000000000E+00  0.00000000000E+00  0.42339645810E+03  0.42339645810E+03  0.00000000000E+00 0. -1.
         21   -1    0    0  502  503 -0.00000000000E+00 -0.00000000000E+00 -0.16917924449E+03  0.16917924449E+03  0.00000000000E+00 0.  1.
          6    1    1    2  501    0 -0.17253954574E+03  0.91724072710E+02  0.19591230214E+03  0.32580489635E+03  0.17200000000E+03 0. -1.
         -6    1    1    2    0  503  0.17253954574E+03 -0.91724072710E+02  0.58304911464E+02  0.26677080623E+03  0.17200000000E+03 0.  1.
<mgrwt>
<rscale>  2 0.26032134E+03</rscale>
<asrwt>0</asrwt>
<pdfrwt beam="1">  1       21 0.10584911E+00 0.26032134E+03</pdfrwt>
<pdfrwt beam="2">  1       21 0.42294812E-01 0.26032134E+03</pdfrwt>
<totfact> 0.36678843E+03</totfact>
</mgrwt>
</event>
<event>
 4    1  0.1086582E+000  0.1834083E+03  0.7546771E-02  0.1164545E+00
         21   -1    0    0  501  502  0.00000000000E+00  0.00000000000E+00  0.13502868393E+03  0.13502868393E+03  0.00000000000E+00 0. -1.
         21   -1    0    0  502  503 -0.00000000000E+00 -0.00000000000E+00 -0.26814671345E+03  0.26814671345E+03  0.00000000000E+00 0.  1.
          6    1    1    2  501    0  0.36743321990E+02 -0.52005283709E+02 -0.12025432916E+03  0.21931649488E+03  0.17200000000E+03 0.  1.
         -6    1    1    2    0  503 -0.36743321990E+02  0.52005283709E+02 -0.12863700357E+02  0.18385890251E+03  0.17200000000E+03 0. -1.
<mgrwt>
<rscale>  2 0.18340835E+03</rscale>
<asrwt>0</asrwt>
<pdfrwt beam="1">  1       21 0.33757171E-01 0.18340835E+03</pdfrwt>
<pdfrwt beam="2">  1       21 0.67036678E-01 0.18340835E+03</pdfrwt>
<totfact> 0.17323134E+04</totfact>
</mgrwt>
</event>
<event>
 4    1  0.1086582E+000  0.1744426E+03  0.7546771E-02  0.1173292E+00
         21   -1    0    0  503  502  0.00000000000E+00  0.00000000000E+00  0.36544380274E+03  0.36544380274E+03  0.00000000000E+00 0. -1.
         21   -1    0    0  501  503 -0.00000000000E+00 -0.00000000000E+00 -0.11046394241E+03  0.11046394241E+03  0.00000000000E+00 0.  1.
          6    1    1    2  501    0 -0.17585015256E+01 -0.29036939675E+02  0.94240313311E+01  0.17469701932E+03  0.17200000000E+03 0.  1.
         -6    1    1    2    0  502  0.17585015256E+01  0.29036939675E+02  0.24555582900E+03  0.30121072582E+03  0.17200000000E+03 0. -1.
<mgrwt>
<rscale>  2 0.17444264E+03</rscale>
<asrwt>0</asrwt>
<pdfrwt beam="1">  1       21 0.91360948E-01 0.17444264E+03</pdfrwt>
<pdfrwt beam="2">  1       21 0.27615986E-01 0.17444264E+03</pdfrwt>
<totfact> 0.12854771E+04</totfact>
</mgrwt>
</event>
<event>
 4    1  0.1086582E+000  0.1900666E+03  0.7546771E-02  0.1158401E+00
         21   -1    0    0  501  502  0.00000000000E+00  0.00000000000E+00  0.23407338430E+03  0.23407338430E+03  0.00000000000E+00 0. -1.
         21   -1    0    0  502  503 -0.00000000000E+00 -0.00000000000E+00 -0.15571207710E+03  0.15571207710E+03  0.00000000000E+00 0. -1.
          6    1    1    2  501    0 -0.68244499583E+02 -0.43405279858E+02  0.57519554904E+02  0.19857952875E+03  0.17200000000E+03 0. -1.
         -6    1    1    2    0  503  0.68244499583E+02  0.43405279858E+02  0.20841752294E+02  0.19120593265E+03  0.17200000000E+03 0. -1.
<mgrwt>
<rscale>  2 0.19006665E+03</rscale>
<asrwt>0</asrwt>
<pdfrwt beam="1">  1       21 0.58518346E-01 0.19006665E+03</pdfrwt>
<pdfrwt beam="2">  1       21 0.38928019E-01 0.19006665E+03</pdfrwt>
<totfact> 0.17422264E+04</totfact>
</mgrwt>
</event>
<event>
 4    1  0.1086582E+000  0.3623213E+03  0.7546771E-02  0.1057668E+00
         21   -1    0    0  501  502  0.00000000000E+00  0.00000000000E+00  0.27837413210E+03  0.27837413210E+03  0.00000000000E+00 0. -1.
         21   -1    0    0  502  503 -0.00000000000E+00 -0.00000000000E+00 -0.47627770320E+03  0.47627770320E+03  0.00000000000E+00 0. -1.
          6    1    1    2  501    0 -0.31482598794E+03  0.50767501192E+02 -0.61493165187E+02  0.36750258669E+03  0.17200000000E+03 0. -1.
         -6    1    1    2    0  503  0.31482598794E+03 -0.50767501192E+02 -0.13641040591E+03  0.38714924861E+03  0.17200000000E+03 0. -1.
<mgrwt>
<rscale>  2 0.36232132E+03</rscale>
<asrwt>0</asrwt>
<pdfrwt beam="1">  1       21 0.69593534E-01 0.36232132E+03</pdfrwt>
<pdfrwt beam="2">  1       21 0.11906942E+00 0.36232132E+03</pdfrwt>
<totfact> 0.89139284E+02</totfact>
</mgrwt>
</event>
<event>
 4    1  0.1086582E+000  0.2129712E+03  0.7546771E-02  0.1139234E+00
         21   -1    0    0  503  502  0.00000000000E+00  0.00000000000E+00  0.37684262713E+03  0.37684262713E+03  0.00000000000E+00 0. -1.
         21   -1    0    0  501  503 -0.00000000000E+00 -0.00000000000E+00 -0.12374000760E+03  0.12374000760E+03  0.00000000000E+00 0.  1.
          6    1    1    2  501    0 -0.82647152082E+02 -0.94563117016E+02  0.85184025297E+02  0.22937535398E+03  0.17200000000E+03 0.  1.
         -6    1    1    2    0  502  0.82647152082E+02  0.94563117016E+02  0.16791859423E+03  0.27120728076E+03  0.17200000000E+03 0. -1.
<mgrwt>
<rscale>  2 0.21297121E+03</rscale>
<asrwt>0</asrwt>
<pdfrwt beam="1">  1       21 0.94210654E-01 0.21297121E+03</pdfrwt>
<pdfrwt beam="2">  1       21 0.30935003E-01 0.21297121E+03</pdfrwt>
<totfact> 0.93471656E+03</totfact>
</mgrwt>
</event>
<event>
 4    1  0.1086582E+000  0.2758621E+03  0.7546771E-02  0.1097971E+00
         21   -1    0    0  501  502  0.00000000000E+00  0.00000000000E+00  0.16818829004E+03  0.16818829004E+03  0.00000000000E+00 0.  1.
         21   -1    0    0  502  503 -0.00000000000E+00 -0.00000000000E+00 -0.50195491501E+03  0.50195491501E+03  0.00000000000E+00 0. -1.
          6    1    1    2  501    0 -0.20972355607E+03  0.50318073118E+02 -0.27209134821E+03  0.38747074757E+03  0.17200000000E+03 0. -1.
         -6    1    1    2    0  503  0.20972355607E+03 -0.50318073118E+02 -0.61675276767E+02  0.28267245748E+03  0.17200000000E+03 0.  1.
<mgrwt>
<rscale>  2 0.27586206E+03</rscale>
<asrwt>0</asrwt>
<pdfrwt beam="1">  1       21 0.42047073E-01 0.27586206E+03</pdfrwt>
<pdfrwt beam="2">  1       21 0.12548873E+00 0.27586206E+03</pdfrwt>
<totfact> 0.24123683E+03</totfact>
</mgrwt>
</event>
<event>
 4    1  0.1086582E+000  0.1824143E+03  0.7546771E-02  0.1165487E+00
         21   -1    0    0  501  502  0.00000000000E+00  0.00000000000E+00  0.19895684734E+03  0.19895684734E+03  0.00000000000E+00 0. -1.
         21   -1    0    0  502  503 -0.00000000000E+00 -0.00000000000E+00 -0.25435590916E+03  0.25435590916E+03  0.00000000000E+00 0. -1.
          6    1    1    2  501    0 -0.11566774475E+02 -0.59642225633E+02  0.10494144132E+03  0.21044640994E+03  0.17200000000E+03 0. -1.
         -6    1    1    2    0  503  0.11566774475E+02  0.59642225633E+02 -0.16034050313E+03  0.24286634657E+03  0.17200000000E+03 0. -1.
<mgrwt>
<rscale>  2 0.18241432E+03</rscale>
<asrwt>0</asrwt>
<pdfrwt beam="1">  1       21 0.49739212E-01 0.18241432E+03</pdfrwt>
<pdfrwt beam="2">  1       21 0.63588977E-01 0.18241432E+03</pdfrwt>
<totfact> 0.88698140E+03</totfact>
</mgrwt>
</event>
<event>
 4    1  0.1086582E+000  0.2063841E+03  0.7546771E-02  0.1144462E+00
         21   -1    0    0  501  502  0.00000000000E+00  0.00000000000E+00  0.13880032093E+03  0.13880032093E+03  0.00000000000E+00 0.  1.
         21   -1    0    0  502  503 -0.00000000000E+00 -0.00000000000E+00 -0.31438551339E+03  0.31438551339E+03  0.00000000000E+00 0. -1.
          6    1    1    2  501    0  0.74529437498E+02  0.86346800774E+02 -0.52770859513E+02  0.21302387348E+03  0.17200000000E+03 0.  1.
         -6    1    1    2    0  503 -0.74529437498E+02 -0.86346800774E+02 -0.12281433295E+03  0.24016196084E+03  0.17200000000E+03 0. -1.
<mgrwt>
<rscale>  2 0.20638413E+03</rscale>
<asrwt>0</asrwt>
<pdfrwt beam="1">  1       21 0.34700080E-01 0.20638413E+03</pdfrwt>
<pdfrwt beam="2">  1       21 0.78596378E-01 0.20638413E+03</pdfrwt>
<totfact> 0.11352597E+04</totfact>
</mgrwt>
</event>
<event>
 4    1  0.1086582E+000  0.2362713E+03  0.7546771E-02  0.1122302E+00
         21   -1    0    0  503  502  0.00000000000E+00  0.00000000000E+00  0.53203521826E+03  0.53203521826E+03  0.00000000000E+00 0.  1.
         21   -1    0    0  501  503 -0.00000000000E+00 -0.00000000000E+00 -0.15378583360E+03  0.15378583360E+03  0.00000000000E+00 0. -1.
          6    1    1    2  501    0 -0.15704607443E+03 -0.39707227419E+02  0.38241063172E+03  0.44951309731E+03  0.17200000000E+03 0.  1.
         -6    1    1    2    0  502  0.15704607443E+03  0.39707227419E+02 -0.41612470583E+01  0.23630795454E+03  0.17200000000E+03 0. -1.
<mgrwt>
<rscale>  2 0.23627131E+03</rscale>
<asrwt>0</asrwt>
<pdfrwt beam="1">  1       21 0.13300880E+00 0.23627131E+03</pdfrwt>
<pdfrwt beam="2">  1       21 0.38446460E-01 0.23627131E+03</pdfrwt>
<totfact> 0.25657787E+03</totfact>
</mgrwt>
</event>
<event>
 4    1  0.1086582E+000  0.2695083E+03  0.7546771E-02  0.1101561E+00
         21   -1    0    0  501  502  0.00000000000E+00  0.00000000000E+00  0.30347199129E+03  0.30347199129E+03  0.00000000000E+00 0. -1.
         21   -1    0    0  502  503 -0.00000000000E+00 -0.00000000000E+00 -0.23974053725E+03  0.23974053725E+03  0.00000000000E+00 0. -1.
          6    1    1    2  501    0 -0.20737113223E+03 -0.69239449523E+01  0.42887655908E+02  0.27289939268E+03  0.17200000000E+03 0. -1.
         -6    1    1    2    0  503  0.20737113223E+03  0.69239449523E+01  0.20843798141E+02  0.27031313586E+03  0.17200000000E+03 0. -1.
<mgrwt>
<rscale>  2 0.26950831E+03</rscale>
<asrwt>0</asrwt>
<pdfrwt beam="1">  1       21 0.75867998E-01 0.26950831E+03</pdfrwt>
<pdfrwt beam="2">  1       21 0.59935134E-01 0.26950831E+03</pdfrwt>
<totfact> 0.38125733E+03</totfact>
</mgrwt>
</event>
<event>
 4    1  0.1086582E+000  0.1824416E+03  0.7546771E-02  0.1165461E+00
         21   -1    0    0  501  502  0.00000000000E+00  0.00000000000E+00  0.83654170838E+02  0.83654170838E+02  0.00000000000E+00 0.  1.
         21   -1    0    0  502  503 -0.00000000000E+00 -0.00000000000E+00 -0.48984331193E+03  0.48984331193E+03  0.00000000000E+00 0.  1.
          6    1    1    2  501    0  0.52760521252E+02 -0.30286457515E+02 -0.32733493372E+03  0.37474404725E+03  0.17200000000E+03 0. -1.
         -6    1    1    2    0  503 -0.52760521252E+02  0.30286457515E+02 -0.78854207370E+02  0.19875343552E+03  0.17200000000E+03 0. -1.
<mgrwt>
<rscale>  2 0.18244161E+03</rscale>
<asrwt>0</asrwt>
<pdfrwt beam="1">  1       21 0.20913543E-01 0.18244161E+03</pdfrwt>
<pdfrwt beam="2">  1       21 0.12246083E+00 0.18244161E+03</pdfrwt>
<totfact> 0.10739235E+04</totfact>
</mgrwt>
</event>
<event>
 4    1  0.1086582E+000  0.2942915E+03  0.7546771E-02  0.1088130E+00
         21   -1    0    0  501  502  0.00000000000E+00  0.00000000000E+00  0.31438010086E+03  0.31438010086E+03  0.00000000000E+00 0.  1.
         21   -1    0    0  502  503 -0.00000000000E+00 -0.00000000000E+00 -0.50479155382E+03  0.50479155382E+03  0.00000000000E+00 0.  1.
          6    1    1    2  501    0 -0.19697064964E+03 -0.13500378882E+03  0.18084934858E+03  0.34541850949E+03  0.17200000000E+03 0.  1.
         -6    1    1    2    0  503  0.19697064964E+03  0.13500378882E+03 -0.37126080154E+03  0.47375314519E+03  0.17200000000E+03 0.  1.
<mgrwt>
<rscale>  2 0.29429145E+03</rscale>
<asrwt>0</asrwt>
<pdfrwt beam="1">  1       21 0.78595026E-01 0.29429145E+03</pdfrwt>
<pdfrwt beam="2">  1       21 0.12619789E+00 0.29429145E+03</pdfrwt>
<totfact> 0.60950369E+02</totfact>
</mgrwt>
</event>
<event>
 4    1  0.1086582E+000  0.2858221E+03  0.7546771E-02  0.1092551E+00
         21   -1    0    0  501  502  0.00000000000E+00  0.00000000000E+00  0.47960781109E+03  0.47960781109E+03  0.00000000000E+00 0.  1.
         21   -1    0    0  502  503 -0.00000000000E+00 -0.00000000000E+00 -0.20950522862E+03  0.20950522862E+03  0.00000000000E+00 0. -1.
          6    1    1    2  501    0  0.18927181414E+03  0.12761832768E+03 -0.13932176648E+02  0.28616142775E+03  0.17200000000E+03 0. -1.
         -6    1    1    2    0  503 -0.18927181414E+03 -0.12761832768E+03  0.28403475913E+03  0.40295161196E+03  0.17200000000E+03 0.  1.
<mgrwt>
<rscale>  2 0.28582207E+03</rscale>
<asrwt>0</asrwt>
<pdfrwt beam="1">  1       21 0.11990195E+00 0.28582207E+03</pdfrwt>
<pdfrwt beam="2">  1       21 0.52376308E-01 0.28582207E+03</pdfrwt>
<totfact> 0.17007359E+03</totfact>
</mgrwt>
</event>
<event>
 4    1  0.1086582E+000  0.1758522E+03  0.7546771E-02  0.1171879E+00
         21   -1    0    0  503  502  0.00000000000E+00  0.00000000000E+00  0.18706905948E+03  0.18706905948E+03  0.00000000000E+00 0. -1.
         21   -1    0    0  501  503 -0.00000000000E+00 -0.00000000000E+00 -0.53628152449E+03  0.53628152449E+03  0.00000000000E+00 0. -1.
          6    1    1    2  501    0  0.51249057494E+01 -0.36245193748E+02 -0.47541742101E+03  0.50689811888E+03  0.17200000000E+03 0. -1.
         -6    1    1    2    0  502 -0.51249057494E+01  0.36245193748E+02  0.12620495600E+03  0.21645246510E+03  0.17200000000E+03 0. -1.
<mgrwt>
<rscale>  2 0.17585215E+03</rscale>
<asrwt>0</asrwt>
<pdfrwt beam="1">  1       21 0.46767265E-01 0.17585215E+03</pdfrwt>
<pdfrwt beam="2">  1       21 0.13407038E+00 0.17585215E+03</pdfrwt>
<totfact> 0.17793637E+03</totfact>
</mgrwt>
</event>
<event>
 4    1  0.1086582E+000  0.1870971E+03  0.7546771E-02  0.1161106E+00
         21   -1    0    0  501  502  0.00000000000E+00  0.00000000000E+00  0.10819531193E+03  0.10819531193E+03  0.00000000000E+00 0. -1.
         21   -1    0    0  502  503 -0.00000000000E+00 -0.00000000000E+00 -0.34205426701E+03  0.34205426701E+03  0.00000000000E+00 0. -1.
          6    1    1    2  501    0 -0.55080768565E+02  0.48861198502E+02 -0.64551210358E+02  0.19791959616E+03  0.17200000000E+03 0. -1.
         -6    1    1    2    0  503  0.55080768565E+02 -0.48861198502E+02 -0.16930774473E+03  0.25232998278E+03  0.17200000000E+03 0. -1.
<mgrwt>
<rscale>  2 0.18709705E+03</rscale>
<asrwt>0</asrwt>
<pdfrwt beam="1">  1       21 0.27048828E-01 0.18709705E+03</pdfrwt>
<pdfrwt beam="2">  1       21 0.85513566E-01 0.18709705E+03</pdfrwt>
<totfact> 0.15446873E+04</totfact>
</mgrwt>
</event>
<event>
 4    1  0.1086582E+000  0.2249489E+03  0.7546771E-02  0.1130246E+00
         21   -1    0    0  503  502  0.00000000000E+00  0.00000000000E+00  0.16145062293E+03  0.16145062293E+03  0.00000000000E+00 0. -1.
         21   -1    0    0  501  503 -0.00000000000E+00 -0.00000000000E+00 -0.34959496106E+03  0.34959496106E+03  0.00000000000E+00 0. -1.
          6    1    1    2  501    0  0.90888931195E+02  0.11294777372E+03 -0.17626724014E+03  0.28578337487E+03  0.17200000000E+03 0. -1.
         -6    1    1    2    0  502 -0.90888931195E+02 -0.11294777372E+03 -0.11877097991E+02  0.22526220912E+03  0.17200000000E+03 0. -1.
<mgrwt>
<rscale>  2 0.22494888E+03</rscale>
<asrwt>0</asrwt>
<pdfrwt beam="1">  1       21 0.40362656E-01 0.22494888E+03</pdfrwt>
<pdfrwt beam="2">  1       21 0.87398740E-01 0.22494888E+03</pdfrwt>
<totfact> 0.64963934E+03</totfact>
</mgrwt>
</event>
<event>
 4    1  0.1086582E+000  0.1744257E+03  0.7546771E-02  0.1173310E+00
         21   -1    0    0  503  502  0.00000000000E+00  0.00000000000E+00  0.17081382972E+03  0.17081382972E+03  0.00000000000E+00 0.  1.
         21   -1    0    0  501  503 -0.00000000000E+00 -0.00000000000E+00 -0.17838173090E+03  0.17838173090E+03  0.00000000000E+00 0.  1.
          6    1    1    2  501    0  0.21075564917E+02 -0.19903203701E+02 -0.10549388639E+02  0.17474440350E+03  0.17200000000E+03 0. -1.
         -6    1    1    2    0  502 -0.21075564917E+02  0.19903203701E+02  0.29814874615E+01  0.17445115712E+03  0.17200000000E+03 0. -1.
<mgrwt>
<rscale>  2 0.17442568E+03</rscale>
<asrwt>0</asrwt>
<pdfrwt beam="1">  1       21 0.42703457E-01 0.17442568E+03</pdfrwt>
<pdfrwt beam="2">  1       21 0.44595433E-01 0.17442568E+03</pdfrwt>
<totfact> 0.25727931E+04</totfact>
</mgrwt>
</event>
<event>
 4    1  0.1086582E+000  0.1786966E+03  0.7546771E-02  0.1169071E+00
         21   -1    0    0  503  502  0.00000000000E+00  0.00000000000E+00  0.37030766240E+03  0.37030766240E+03  0.00000000000E+00 0. -1.
         21   -1    0    0  501  503 -0.00000000000E+00 -0.00000000000E+00 -0.17334603190E+03  0.17334603190E+03  0.00000000000E+00 0. -1.
          6    1    1    2  501    0 -0.11483470590E+02  0.47080647924E+02 -0.94217920870E+02  0.20201354934E+03  0.17200000000E+03 0. -1.
         -6    1    1    2    0  502  0.11483470590E+02 -0.47080647924E+02  0.29117955137E+03  0.34164014495E+03  0.17200000000E+03 0. -1.
<mgrwt>
<rscale>  2 0.17869655E+03</rscale>
<asrwt>0</asrwt>
<pdfrwt beam="1">  1       21 0.92576914E-01 0.17869655E+03</pdfrwt>
<pdfrwt beam="2">  1       21 0.43336509E-01 0.17869655E+03</pdfrwt>
<totfact> 0.50931657E+03</totfact>
</mgrwt>
</event>
<event>
 4    1  0.1086582E+000  0.1918631E+03  0.7546771E-02  0.1156792E+00
         21   -1    0    0  503  502  0.00000000000E+00  0.00000000000E+00  0.26609804745E+03  0.26609804745E+03  0.00000000000E+00 0. -1.
         21   -1    0    0  501  503 -0.00000000000E+00 -0.00000000000E+00 -0.17624938318E+03  0.17624938318E+03  0.00000000000E+00 0. -1.
          6    1    1    2  501    0 -0.74518946503E+01  0.84687273109E+02 -0.57653772491E+02  0.20033827004E+03  0.17200000000E+03 0. -1.
         -6    1    1    2    0  502  0.74518946503E+01 -0.84687273109E+02  0.14750243675E+03  0.24200916059E+03  0.17200000000E+03 0. -1.
<mgrwt>
<rscale>  2 0.19186314E+03</rscale>
<asrwt>0</asrwt>
<pdfrwt beam="1">  1       21 0.66524511E-01 0.19186314E+03</pdfrwt>
<pdfrwt beam="2">  1       21 0.44062346E-01 0.19186314E+03</pdfrwt>
<totfact> 0.10257985E+04</totfact>
</mgrwt>
</event>
<event>
 4    1  0.1086582E+000  0.1821005E+03  0.7546771E-02  0.1165786E+00
         21   -1    0    0  501  502  0.00000000000E+00  0.00000000000E+00  0.53692859440E+03  0.53692859440E+03  0.00000000000E+00 0. -1.
         21   -1    0    0  502  503 -0.00000000000E+00 -0.00000000000E+00 -0.63860096202E+02  0.63860096202E+02  0.00000000000E+00 0. -1.
          6    1    1    2  501    0 -0.44914896918E+02 -0.39487077298E+02  0.29101237095E+03  0.34329109700E+03  0.17200000000E+03 0. -1.
         -6    1    1    2    0  503  0.44914896918E+02  0.39487077298E+02  0.18205612725E+03  0.25749759360E+03  0.17200000000E+03 0. -1.
<mgrwt>
<rscale>  2 0.18210046E+03</rscale>
<asrwt>0</asrwt>
<pdfrwt beam="1">  1       21 0.13423214E+00 0.18210046E+03</pdfrwt>
<pdfrwt beam="2">  1       21 0.15965026E-01 0.18210046E+03</pdfrwt>
<totfact> 0.14056574E+04</totfact>
</mgrwt>
</event>
<event>
 4    1  0.1086582E+000  0.1748488E+03  0.7546771E-02  0.1172884E+00
         21   -1    0    0  501  502  0.00000000000E+00  0.00000000000E+00  0.13329019062E+04  0.13329019062E+04  0.00000000000E+00 0. -1.
         21   -1    0    0  502  503 -0.00000000000E+00 -0.00000000000E+00 -0.24306484497E+02  0.24306484497E+02  0.00000000000E+00 0.  1.
          6    1    1    2  501    0  0.28477108318E+02 -0.13309587118E+02  0.81540490285E+03  0.83394079310E+03  0.17200000000E+03 0. -1.
         -6    1    1    2    0  503 -0.28477108318E+02  0.13309587118E+02  0.49319051887E+03  0.52326759762E+03  0.17200000000E+03 0.  1.
<mgrwt>
<rscale>  2 0.17484877E+03</rscale>
<asrwt>0</asrwt>
<pdfrwt beam="1">  1       21 0.33322523E+00 0.17484877E+03</pdfrwt>
<pdfrwt beam="2">  1       21 0.60766256E-02 0.17484877E+03</pdfrwt>
<totfact> 0.43316777E+03</totfact>
</mgrwt>
</event>
<event>
 4    1  0.1086582E+000  0.1876219E+03  0.7546771E-02  0.1160624E+00
         21   -1    0    0  501  502  0.00000000000E+00  0.00000000000E+00  0.51613988236E+03  0.51613988236E+03  0.00000000000E+00 0.  1.
         21   -1    0    0  502  503 -0.00000000000E+00 -0.00000000000E+00 -0.72912803561E+02  0.72912803561E+02  0.00000000000E+00 0.  1.
          6    1    1    2  501    0 -0.55185299618E+02  0.50720430321E+02  0.29647378506E+03  0.35085422125E+03  0.17200000000E+03 0.  1.
         -6    1    1    2    0  503  0.55185299618E+02 -0.50720430321E+02  0.14675329375E+03  0.23819846467E+03  0.17200000000E+03 0.  1.
<mgrwt>
<rscale>  2 0.18762191E+03</rscale>
<asrwt>0</asrwt>
<pdfrwt beam="1">  1       21 0.12903496E+00 0.18762191E+03</pdfrwt>
<pdfrwt beam="2">  1       21 0.18228202E-01 0.18762191E+03</pdfrwt>
<totfact> 0.12124127E+04</totfact>
</mgrwt>
</event>
<event>
 4    1  0.1086582E+000  0.2092639E+03  0.7546771E-02  0.1142150E+00
         21   -1    0    0  503  502  0.00000000000E+00  0.00000000000E+00  0.40159514038E+03  0.40159514038E+03  0.00000000000E+00 0.  1.
         21   -1    0    0  501  503 -0.00000000000E+00 -0.00000000000E+00 -0.14002575334E+03  0.14002575334E+03  0.00000000000E+00 0.  1.
          6    1    1    2  501    0 -0.95779896631E+02 -0.70947765963E+02  0.33999682382E+01  0.20929150455E+03  0.17200000000E+03 0.  1.
         -6    1    1    2    0  502  0.95779896631E+02  0.70947765963E+02  0.25816941880E+03  0.33232938916E+03  0.17200000000E+03 0.  1.
<mgrwt>
<rscale>  2 0.20926389E+03</rscale>
<asrwt>0</asrwt>
<pdfrwt beam="1">  1       21 0.10039878E+00 0.20926389E+03</pdfrwt>
<pdfrwt beam="2">  1       21 0.35006439E-01 0.20926389E+03</pdfrwt>
<totfact> 0.63178113E+03</totfact>
</mgrwt>
</event>
<event>
 4    1  0.1086582E+000  0.1912322E+03  0.7546771E-02  0.1157355E+00
         21   -1    0    0  501  502  0.00000000000E+00  0.00000000000E+00  0.13349160374E+03  0.13349160374E+03  0.00000000000E+00 0. -1.
         21   -1    0    0  502  503 -0.00000000000E+00 -0.00000000000E+00 -0.32921106440E+03  0.32921106440E+03  0.00000000000E+00 0. -1.
          6    1    1    2  501    0 -0.60953795150E+02  0.57187295639E+02 -0.30719282484E+01  0.19125686568E+03  0.17200000000E+03 0. -1.
         -6    1    1    2    0  503  0.60953795150E+02 -0.57187295639E+02 -0.19264753242E+03  0.27144580246E+03  0.17200000000E+03 0. -1.
<mgrwt>
<rscale>  2 0.19123219E+03</rscale>
<asrwt>0</asrwt>
<pdfrwt beam="1">  1       21 0.33372901E-01 0.19123219E+03</pdfrwt>
<pdfrwt beam="2">  1       21 0.82302766E-01 0.19123219E+03</pdfrwt>
<totfact> 0.11162859E+04</totfact>
</mgrwt>
</event>
<event>
 4    1  0.1086582E+000  0.1818657E+03  0.7546771E-02  0.1166010E+00
         21   -1    0    0  503  502  0.00000000000E+00  0.00000000000E+00  0.37593826948E+03  0.37593826948E+03  0.00000000000E+00 0.  1.
         21   -1    0    0  501  503 -0.00000000000E+00 -0.00000000000E+00 -0.97138340324E+02  0.97138340324E+02  0.00000000000E+00 0. -1.
          6    1    1    2  501    0 -0.56623821647E+02 -0.16878094190E+02  0.66771043654E+02  0.19373564337E+03  0.17200000000E+03 0. -1.
         -6    1    1    2    0  502  0.56623821647E+02  0.16878094190E+02  0.21202888550E+03  0.27934096643E+03  0.17200000000E+03 0.  1.
<mgrwt>
<rscale>  2 0.18186568E+03</rscale>
<asrwt>0</asrwt>
<pdfrwt beam="1">  1       21 0.93984564E-01 0.18186568E+03</pdfrwt>
<pdfrwt beam="2">  1       21 0.24284586E-01 0.18186568E+03</pdfrwt>
<totfact> 0.15313663E+04</totfact>
</mgrwt>
</event>
<event>
 4    1  0.1086582E+000  0.2107895E+03  0.7546771E-02  0.1140942E+00
         21   -1    0    0  503  502  0.00000000000E+00  0.00000000000E+00  0.37002531911E+02  0.37002531911E+02  0.00000000000E+00 0. -1.
         21   -1    0    0  501  503 -0.00000000000E+00 -0.00000000000E+00 -0.12158727304E+04  0.12158727304E+04  0.00000000000E+00 0.  1.
          6    1    1    2  501    0 -0.46253484770E+02 -0.11273348173E+03 -0.65920888036E+03  0.69209000188E+03  0.17200000000E+03 0.  1.
         -6    1    1    2    0  502  0.46253484770E+02  0.11273348173E+03 -0.51966131811E+03  0.56078526041E+03  0.17200000000E+03 0.  1.
<mgrwt>
<rscale>  2 0.21078952E+03</rscale>
<asrwt>0</asrwt>
<pdfrwt beam="1">  1       21 0.92506326E-02 0.21078952E+03</pdfrwt>
<pdfrwt beam="2">  1       21 0.30396820E+00 0.21078952E+03</pdfrwt>
<totfact> 0.29506529E+03</totfact>
</mgrwt>
</event>
<event>
 4    1  0.1086582E+000  0.1768328E+03  0.7546771E-02  0.1170904E+00
         21   -1    0    0  503  502  0.00000000000E+00  0.00000000000E+00  0.19120920225E+02  0.19120920225E+02  0.00000000000E+00 0.  1.
         21   -1    0    0  501  503 -0.00000000000E+00 -0.00000000000E+00 -0.17996359656E+04  0.17996359656E+04  0.00000000000E+00 0. -1.
          6    1    1    2  501    0  0.35258523302E+02 -0.21040087409E+02 -0.11649971583E+04  0.11783413035E+04  0.17200000000E+03 0. -1.
         -6    1    1    2    0  502 -0.35258523302E+02  0.21040087409E+02 -0.61551788706E+03  0.64041558229E+03  0.17200000000E+03 0.  1.
<mgrwt>
<rscale>  2 0.17683283E+03</rscale>
<asrwt>0</asrwt>
<pdfrwt beam="1">  1       21 0.47802315E-02 0.17683283E+03</pdfrwt>
<pdfrwt beam="2">  1       21 0.44990886E+00 0.17683283E+03</pdfrwt>
<totfact> 0.12416302E+03</totfact>
</mgrwt>
</event>
<event>
 4    1  0.1086582E+000  0.1766925E+03  0.7546771E-02  0.1171043E+00
         21   -1    0    0  503  502  0.00000000000E+00  0.00000000000E+00  0.93651806712E+02  0.93651806712E+02  0.00000000000E+00 0.  1.
         21   -1    0    0  501  503 -0.00000000000E+00 -0.00000000000E+00 -0.39333454797E+03  0.39333454797E+03  0.00000000000E+00 0.  1.
          6    1    1    2  501    0  0.16940361458E+01  0.40414776363E+02 -0.24491751226E+03  0.30200134390E+03  0.17200000000E+03 0.  1.
         -6    1    1    2    0  502 -0.16940361458E+01 -0.40414776363E+02 -0.54765229001E+02  0.18498501078E+03  0.17200000000E+03 0.  1.
<mgrwt>
<rscale>  2 0.17669246E+03</rscale>
<asrwt>0</asrwt>
<pdfrwt beam="1">  1       21 0.23412952E-01 0.17669246E+03</pdfrwt>
<pdfrwt beam="2">  1       21 0.98333635E-01 0.17669246E+03</pdfrwt>
<totfact> 0.14814461E+04</totfact>
</mgrwt>
</event>
<event>
 4    1  0.1086582E+000  0.1819551E+03  0.7546771E-02  0.1165924E+00
         21   -1    0    0  501  502  0.00000000000E+00  0.00000000000E+00  0.73084674426E+03  0.73084674426E+03  0.00000000000E+00 0.  1.
         21   -1    0    0  502  503 -0.00000000000E+00 -0.00000000000E+00 -0.45728853563E+02  0.45728853563E+02  0.00000000000E+00 0. -1.
          6    1    1    2  501    0 -0.59177822844E+02  0.46540735540E+01  0.30497581533E+03  0.35513085342E+03  0.17200000000E+03 0. -1.
         -6    1    1    2    0  503  0.59177822844E+02 -0.46540735540E+01  0.38014207537E+03  0.42144474440E+03  0.17200000000E+03 0.  1.
<mgrwt>
<rscale>  2 0.18195515E+03</rscale>
<asrwt>0</asrwt>
<pdfrwt beam="1">  1       21 0.18271165E+00 0.18195515E+03</pdfrwt>
<pdfrwt beam="2">  1       21 0.11432216E-01 0.18195515E+03</pdfrwt>
<totfact> 0.11257808E+04</totfact>
</mgrwt>
</event>
<event>
 4    1  0.1086582E+000  0.1777128E+03  0.7546771E-02  0.1170035E+00
         21   -1    0    0  501  502  0.00000000000E+00  0.00000000000E+00  0.12488334236E+04  0.12488334236E+04  0.00000000000E+00 0.  1.
         21   -1    0    0  502  503 -0.00000000000E+00 -0.00000000000E+00 -0.27802361111E+02  0.27802361111E+02  0.00000000000E+00 0.  1.
          6    1    1    2  501    0 -0.44660067241E+02  0.18248647807E+01  0.80243387094E+03  0.82187710089E+03  0.17200000000E+03 0.  1.
         -6    1    1    2    0  503  0.44660067241E+02 -0.18248647807E+01  0.41859719155E+03  0.45475868383E+03  0.17200000000E+03 0.  1.
<mgrwt>
<rscale>  2 0.17771284E+03</rscale>
<asrwt>0</asrwt>
<pdfrwt beam="1">  1       21 0.31220817E+00 0.17771284E+03</pdfrwt>
<pdfrwt beam="2">  1       21 0.69505945E-02 0.17771284E+03</pdfrwt>
<totfact> 0.45291571E+03</totfact>
</mgrwt>
</event>
<event>
 4    1  0.1086582E+000  0.1768979E+03  0.7546771E-02  0.1170839E+00
         21   -1    0    0  503  502  0.00000000000E+00  0.00000000000E+00  0.76893001894E+02  0.76893001894E+02  0.00000000000E+00 0. -1.
         21   -1    0    0  501  503 -0.00000000000E+00 -0.00000000000E+00 -0.41080402393E+03  0.41080402393E+03  0.00000000000E+00 0.  1.
          6    1    1    2  501    0  0.41273951476E+02  0.23081761772E+01 -0.19052417785E+03  0.25998524784E+03  0.17200000000E+03 0. -1.
         -6    1    1    2    0  502 -0.41273951476E+02 -0.23081761772E+01 -0.14338684418E+03  0.22771177798E+03  0.17200000000E+03 0. -1.
<mgrwt>
<rscale>  2 0.17689790E+03</rscale>
<asrwt>0</asrwt>
<pdfrwt beam="1">  1       21 0.19223251E-01 0.17689790E+03</pdfrwt>
<pdfrwt beam="2">  1       21 0.10270100E+00 0.17689790E+03</pdfrwt>
<totfact> 0.19337739E+04</totfact>
</mgrwt>
</event>
<event>
 4    1  0.1086582E+000  0.2181087E+03  0.7546771E-02  0.1135301E+00
         21   -1    0    0  503  502  0.00000000000E+00  0.00000000000E+00  0.86700276574E+02  0.86700276574E+02  0.00000000000E+00 0. -1.
         21   -1    0    0  501  503 -0.00000000000E+00 -0.00000000000E+00 -0.93551725875E+03  0.93551725875E+03  0.00000000000E+00 0.  1.
          6    1    1    2  501    0 -0.78429592345E+02 -0.10879429186E+03 -0.75306868164E+03  0.78401775373E+03  0.17200000000E+03 0.  1.
         -6    1    1    2    0  502  0.78429592345E+02  0.10879429186E+03 -0.95748300537E+02  0.23819978160E+03  0.17200000000E+03 0. -1.
<mgrwt>
<rscale>  2 0.21810869E+03</rscale>
<asrwt>0</asrwt>
<pdfrwt beam="1">  1       21 0.21675070E-01 0.21810869E+03</pdfrwt>
<pdfrwt beam="2">  1       21 0.23387931E+00 0.21810869E+03</pdfrwt>
<totfact> 0.16003783E+03</totfact>
</mgrwt>
</event>
<event>
 4    1  0.1086582E+000  0.1746199E+03  0.7546771E-02  0.1173114E+00
         21   -1    0    0  501  502  0.00000000000E+00  0.00000000000E+00  0.66126334359E+03  0.66126334359E+03  0.00000000000E+00 0.  1.
         21   -1    0    0  502  503 -0.00000000000E+00 -0.00000000000E+00 -0.59816398730E+02  0.59816398730E+02  0.00000000000E+00 0.  1.
          6    1    1    2  501    0  0.67650989524E+01 -0.29365669274E+02  0.47329722675E+03  0.50448228308E+03  0.17200000000E+03 0.  1.
         -6    1    1    2    0  503 -0.67650989524E+01  0.29365669274E+02  0.12814971811E+03  0.21659745924E+03  0.17200000000E+03 0.  1.
<mgrwt>
<rscale>  2 0.17461990E+03</rscale>
<asrwt>0</asrwt>
<pdfrwt beam="1">  1       21 0.16531581E+00 0.17461990E+03</pdfrwt>
<pdfrwt beam="2">  1       21 0.14954102E-01 0.17461990E+03</pdfrwt>
<totfact> 0.92210011E+03</totfact>
</mgrwt>
</event>
<event>
 4    1  0.1086582E+000  0.1910674E+03  0.7546771E-02  0.1157502E+00
         21   -1    0    0  501  502  0.00000000000E+00  0.00000000000E+00  0.98189943975E+03  0.98189943975E+03  0.00000000000E+00 0. -1.
         21   -1    0    0  502  503 -0.00000000000E+00 -0.00000000000E+00 -0.58658537874E+02  0.58658537874E+02  0.00000000000E+00 0. -1.
          6    1    1    2  501    0  0.80831263112E+02 -0.19724358767E+02  0.77645029005E+03  0.79961352937E+03  0.17200000000E+03 0. -1.
         -6    1    1    2    0  503 -0.80831263112E+02  0.19724358767E+02  0.14679061182E+03  0.24094444825E+03  0.17200000000E+03 0. -1.
<mgrwt>
<rscale>  2 0.19106738E+03</rscale>
<asrwt>0</asrwt>
<pdfrwt beam="1">  1       21 0.24547481E+00 0.19106738E+03</pdfrwt>
<pdfrwt beam="2">  1       21 0.14664638E-01 0.19106738E+03</pdfrwt>
<totfact> 0.28952009E+03</totfact>
</mgrwt>
</event>
<event>
 4    1  0.1086582E+000  0.1783350E+03  0.7546771E-02  0.1169424E+00
         21   -1    0    0  503  502  0.00000000000E+00  0.00000000000E+00  0.18633291299E+03  0.18633291299E+03  0.00000000000E+00 0. -1.
         21   -1    0    0  501  503 -0.00000000000E+00 -0.00000000000E+00 -0.33202204335E+03  0.33202204335E+03  0.00000000000E+00 0. -1.
          6    1    1    2  501    0 -0.46985570046E+02  0.34233125517E+01 -0.25351501868E+03  0.30995681563E+03  0.17200000000E+03 0. -1.
         -6    1    1    2    0  502  0.46985570046E+02 -0.34233125517E+01  0.10782588832E+03  0.20839814071E+03  0.17200000000E+03 0. -1.
<mgrwt>
<rscale>  2 0.17833497E+03</rscale>
<asrwt>0</asrwt>
<pdfrwt beam="1">  1       21 0.46583228E-01 0.17833497E+03</pdfrwt>
<pdfrwt beam="2">  1       21 0.83005511E-01 0.17833497E+03</pdfrwt>
<totfact> 0.56453272E+03</totfact>
</mgrwt>
</event>
<event>
 4    1  0.1086582E+000  0.2459734E+03  0.7546771E-02  0.1115876E+00
         21   -1    0    0  501  502  0.00000000000E+00  0.00000000000E+00  0.16820112149E+03  0.16820112149E+03  0.00000000000E+00 0.  1.
         21   -1    0    0  502  503 -0.00000000000E+00 -0.00000000000E+00 -0.42690634930E+03  0.42690634930E+03  0.00000000000E+00 0. -1.
          6    1    1    2  501    0  0.98937498008E+02  0.14536252454E+03 -0.24740806042E+03  0.34887482055E+03  0.17200000000E+03 0. -1.
         -6    1    1    2    0  503 -0.98937498008E+02 -0.14536252454E+03 -0.11297167388E+02  0.24623265024E+03  0.17200000000E+03 0.  1.
<mgrwt>
<rscale>  2 0.24597336E+03</rscale>
<asrwt>0</asrwt>
<pdfrwt beam="1">  1       21 0.42050281E-01 0.24597336E+03</pdfrwt>
<pdfrwt beam="2">  1       21 0.10672659E+00 0.24597336E+03</pdfrwt>
<totfact> 0.36721931E+03</totfact>
</mgrwt>
</event>
<event>
 4    1  0.1086582E+000  0.3046922E+03  0.7546771E-02  0.1082918E+00
         21   -1    0    0  503  502  0.00000000000E+00  0.00000000000E+00  0.37928515984E+03  0.37928515984E+03  0.00000000000E+00 0. -1.
         21   -1    0    0  501  503 -0.00000000000E+00 -0.00000000000E+00 -0.33876459704E+03  0.33876459704E+03  0.00000000000E+00 0.  1.
          6    1    1    2  501    0  0.62444399013E+02  0.24362679653E+03 -0.16885597664E+03  0.34835278067E+03  0.17200000000E+03 0.  1.
         -6    1    1    2    0  502 -0.62444399013E+02 -0.24362679653E+03  0.20937653944E+03  0.36969697621E+03  0.17200000000E+03 0. -1.
<mgrwt>
<rscale>  2 0.30469217E+03</rscale>
<asrwt>0</asrwt>
<pdfrwt beam="1">  1       21 0.94821290E-01 0.30469217E+03</pdfrwt>
<pdfrwt beam="2">  1       21 0.84691149E-01 0.30469217E+03</pdfrwt>
<totfact> 0.10282329E+03</totfact>
</mgrwt>
</event>
<event>
 4    1  0.1086582E+000  0.2114349E+03  0.7546771E-02  0.1140435E+00
         21   -1    0    0  501  502  0.00000000000E+00  0.00000000000E+00  0.27571297724E+03  0.27571297724E+03  0.00000000000E+00 0.  1.
         21   -1    0    0  502  503 -0.00000000000E+00 -0.00000000000E+00 -0.59943184411E+03  0.59943184411E+03  0.00000000000E+00 0. -1.
          6    1    1    2  501    0 -0.84235767033E+02  0.89582677986E+02  0.21187628072E+03  0.29932637534E+03  0.17200000000E+03 0.  1.
         -6    1    1    2    0  503  0.84235767033E+02 -0.89582677986E+02 -0.53559514759E+03  0.57581844601E+03  0.17200000000E+03 0. -1.
<mgrwt>
<rscale>  2 0.21143491E+03</rscale>
<asrwt>0</asrwt>
<pdfrwt beam="1">  1       21 0.68928245E-01 0.21143491E+03</pdfrwt>
<pdfrwt beam="2">  1       21 0.14985796E+00 0.21143491E+03</pdfrwt>
<totfact> 0.56275127E+02</totfact>
</mgrwt>
</event>
<event>
 4    1  0.1086582E+000  0.1955987E+03  0.7546771E-02  0.1153506E+00
         21   -1    0    0  501  502  0.00000000000E+00  0.00000000000E+00  0.83854305401E+02  0.83854305401E+02  0.00000000000E+00 0. -1.
         21   -1    0    0  502  503 -0.00000000000E+00 -0.00000000000E+00 -0.45674901064E+03  0.45674901064E+03  0.00000000000E+00 0.  1.
          6    1    1    2  501    0 -0.55715416408E+02  0.74636743451E+02 -0.19534705595E+03  0.27644045176E+03  0.17200000000E+03 0.  1.
         -6    1    1    2    0  503  0.55715416408E+02 -0.74636743451E+02 -0.17754764928E+03  0.26416286428E+03  0.17200000000E+03 0. -1.
<mgrwt>
<rscale>  2 0.19559870E+03</rscale>
<asrwt>0</asrwt>
<pdfrwt beam="1">  1       21 0.20963577E-01 0.19559870E+03</pdfrwt>
<pdfrwt beam="2">  1       21 0.11418725E+00 0.19559870E+03</pdfrwt>
<totfact> 0.12582336E+04</totfact>
</mgrwt>
</event>
<event>
 4    1  0.1086582E+000  0.1936112E+03  0.7546771E-02  0.1155244E+00
         21   -1    0    0  503  502  0.00000000000E+00  0.00000000000E+00  0.15577638571E+04  0.15577638571E+04  0.00000000000E+00 0. -1.
         21   -1    0    0  501  503 -0.00000000000E+00 -0.00000000000E+00 -0.24067400742E+02  0.24067400742E+02  0.00000000000E+00 0. -1.
          6    1    1    2  501    0 -0.44848954604E+02  0.76745442514E+02  0.77688318285E+03  0.80064522197E+03  0.17200000000E+03 0. -1.
         -6    1    1    2    0  502  0.44848954604E+02 -0.76745442514E+02  0.75681327351E+03  0.78118603587E+03  0.17200000000E+03 0. -1.
<mgrwt>
<rscale>  2 0.19361119E+03</rscale>
<asrwt>0</asrwt>
<pdfrwt beam="1">  1       21 0.38944062E+00 0.19361119E+03</pdfrwt>
<pdfrwt beam="2">  1       21 0.60168554E-02 0.19361119E+03</pdfrwt>
<totfact> 0.19839967E+03</totfact>
</mgrwt>
</event>
<event>
 4    1  0.1086582E+000  0.1823196E+03  0.7546771E-02  0.1165577E+00
         21   -1    0    0  501  502  0.00000000000E+00  0.00000000000E+00  0.18723485950E+03  0.18723485950E+03  0.00000000000E+00 0. -1.
         21   -1    0    0  502  503 -0.00000000000E+00 -0.00000000000E+00 -0.57570598172E+03  0.57570598172E+03  0.00000000000E+00 0. -1.
          6    1    1    2  501    0 -0.60425876422E+02 -0.22701332210E+01  0.12301045436E+03  0.21993638155E+03  0.17200000000E+03 0. -1.
         -6    1    1    2    0  503  0.60425876422E+02  0.22701332210E+01 -0.51148157657E+03  0.54300445967E+03  0.17200000000E+03 0. -1.
<mgrwt>
<rscale>  2 0.18231961E+03</rscale>
<asrwt>0</asrwt>
<pdfrwt beam="1">  1       21 0.46808715E-01 0.18231961E+03</pdfrwt>
<pdfrwt beam="2">  1       21 0.14392649E+00 0.18231961E+03</pdfrwt>
<totfact> 0.14705263E+03</totfact>
</mgrwt>
</event>
<event>
 4    1  0.1086582E+000  0.2129859E+03  0.7546771E-02  0.1139223E+00
         21   -1    0    0  501  502  0.00000000000E+00  0.00000000000E+00  0.12234772963E+03  0.12234772963E+03  0.00000000000E+00 0.  1.
         21   -1    0    0  502  503 -0.00000000000E+00 -0.00000000000E+00 -0.61004088827E+03  0.61004088827E+03  0.00000000000E+00 0. -1.
          6    1    1    2  501    0  0.10727469888E+03  0.65354057987E+02 -0.14508608949E+02  0.21347953918E+03  0.17200000000E+03 0.  1.
         -6    1    1    2    0  503 -0.10727469888E+03 -0.65354057987E+02 -0.47318454969E+03  0.51890907872E+03  0.17200000000E+03 0. -1.
<mgrwt>
<rscale>  2 0.21298595E+03</rscale>
<asrwt>0</asrwt>
<pdfrwt beam="1">  1       21 0.30586933E-01 0.21298595E+03</pdfrwt>
<pdfrwt beam="2">  1       21 0.15251022E+00 0.21298595E+03</pdfrwt>
<totfact> 0.28829236E+03</totfact>
</mgrwt>
</event>
<event>
 4    1  0.1086582E+000  0.2124384E+03  0.7546771E-02  0.1139649E+00
         21   -1    0    0  503  502  0.00000000000E+00  0.00000000000E+00  0.41638663241E+03  0.41638663241E+03  0.00000000000E+00 0.  1.
         21   -1    0    0  501  503 -0.00000000000E+00 -0.00000000000E+00 -0.15970960162E+03  0.15970960162E+03  0.00000000000E+00 0.  1.
          6    1    1    2  501    0  0.85109525768E+02  0.91117634098E+02 -0.34952552011E+02  0.21529453201E+03  0.17200000000E+03 0.  1.
         -6    1    1    2    0  502 -0.85109525768E+02 -0.91117634098E+02  0.29162958280E+03  0.36080170203E+03  0.17200000000E+03 0.  1.
<mgrwt>
<rscale>  2 0.21243835E+03</rscale>
<asrwt>0</asrwt>
<pdfrwt beam="1">  1       21 0.10409666E+00 0.21243835E+03</pdfrwt>
<pdfrwt beam="2">  1       21 0.39927401E-01 0.21243835E+03</pdfrwt>
<totfact> 0.44393528E+03</totfact>
</mgrwt>
</event>
<event>
 4    1  0.1086582E+000  0.2331415E+03  0.7546771E-02  0.1124448E+00
         21   -1    0    0  501  502  0.00000000000E+00  0.00000000000E+00  0.75685182883E+02  0.75685182883E+02  0.00000000000E+00 0. -1.
         21   -1    0    0  502  503 -0.00000000000E+00 -0.00000000000E+00 -0.20196407236E+04  0.20196407236E+04  0.00000000000E+00 0. -1.
          6    1    1    2  501    0 -0.51848695253E+02  0.14860232678E+03 -0.13096714173E+03  0.26740854687E+03  0.17200000000E+03 0. -1.
         -6    1    1    2    0  503  0.51848695253E+02 -0.14860232678E+03 -0.18129883989E+04  0.18279173596E+04  0.17200000000E+03 0. -1.
<mgrwt>
<rscale>  2 0.23314146E+03</rscale>
<asrwt>0</asrwt>
<pdfrwt beam="1">  1       21 0.18921296E-01 0.23314146E+03</pdfrwt>
<pdfrwt beam="2">  1       21 0.50491018E+00 0.23314146E+03</pdfrwt>
<totfact> 0.41592370E+01</totfact>
</mgrwt>
</event>
<event>
 4    1  0.1086582E+000  0.1773668E+03  0.7546771E-02  0.1170376E+00
         21   -1    0    0  501  502  0.00000000000E+00  0.00000000000E+00  0.42320215941E+02  0.42320215941E+02  0.00000000000E+00 0.  1.
         21   -1    0    0  502  503 -0.00000000000E+00 -0.00000000000E+00 -0.19005738810E+04  0.19005738810E+04  0.00000000000E+00 0.  1.
          6    1    1    2  501    0  0.16450053507E+02  0.40054466037E+02 -0.17110027777E+03  0.24644323801E+03  0.17200000000E+03 0.  1.
         -6    1    1    2    0  503 -0.16450053507E+02 -0.40054466037E+02 -0.16871533873E+04  0.16964508590E+04  0.17200000000E+03 0.  1.
<mgrwt>
<rscale>  2 0.17736675E+03</rscale>
<asrwt>0</asrwt>
<pdfrwt beam="1">  1       21 0.10580054E-01 0.17736675E+03</pdfrwt>
<pdfrwt beam="2">  1       21 0.47514346E+00 0.17736675E+03</pdfrwt>
<totfact> 0.21296998E+02</totfact>
</mgrwt>
</event>
<event>
 4    1  0.1086582E+000  0.1983408E+03  0.7546771E-02  0.1151146E+00
         21   -1    0    0  501  502  0.00000000000E+00  0.00000000000E+00  0.14479261148E+03  0.14479261148E+03  0.00000000000E+00 0.  1.
         21   -1    0    0  502  503 -0.00000000000E+00 -0.00000000000E+00 -0.35129181323E+03  0.35129181323E+03  0.00000000000E+00 0.  1.
          6    1    1    2  501    0  0.78374778969E+02  0.60103931423E+02  0.14822102479E+02  0.19889389954E+03  0.17200000000E+03 0.  1.
         -6    1    1    2    0  503 -0.78374778969E+02 -0.60103931423E+02 -0.22132130423E+03  0.29719052518E+03  0.17200000000E+03 0.  1.
<mgrwt>
<rscale>  2 0.19834084E+03</rscale>
<asrwt>0</asrwt>
<pdfrwt beam="1">  1       21 0.36198153E-01 0.19834084E+03</pdfrwt>
<pdfrwt beam="2">  1       21 0.87822953E-01 0.19834084E+03</pdfrwt>
<totfact> 0.81481176E+03</totfact>
</mgrwt>
</event>
<event>
 4    1  0.1086582E+000  0.2431737E+03  0.7546771E-02  0.1117696E+00
         21   -1    0    0  501  502  0.00000000000E+00  0.00000000000E+00  0.16636208294E+03  0.16636208294E+03  0.00000000000E+00 0. -1.
         21   -1    0    0  502  503 -0.00000000000E+00 -0.00000000000E+00 -0.47437205917E+03  0.47437205917E+03  0.00000000000E+00 0. -1.
          6    1    1    2  501    0  0.88561918033E+00  0.17189724106E+03  0.64004375016E+01  0.24325791129E+03  0.17200000000E+03 0. -1.
         -6    1    1    2    0  503 -0.88561918033E+00 -0.17189724106E+03 -0.31441041373E+03  0.39747623082E+03  0.17200000000E+03 0. -1.
<mgrwt>
<rscale>  2 0.24317369E+03</rscale>
<asrwt>0</asrwt>
<pdfrwt beam="1">  1       21 0.41590521E-01 0.24317369E+03</pdfrwt>
<pdfrwt beam="2">  1       21 0.11859301E+00 0.24317369E+03</pdfrwt>
<totfact> 0.29069704E+03</totfact>
</mgrwt>
</event>
<event>
 4    1  0.1086582E+000  0.1832083E+03  0.7546771E-02  0.1164734E+00
         21   -1    0    0  501  502  0.00000000000E+00  0.00000000000E+00  0.19012372303E+03  0.19012372303E+03  0.00000000000E+00 0. -1.
         21   -1    0    0  502  503 -0.00000000000E+00 -0.00000000000E+00 -0.20911523326E+03  0.20911523326E+03  0.00000000000E+00 0.  1.
          6    1    1    2  501    0 -0.55657042576E+02  0.29725035355E+02  0.69285758775E+02  0.19587189815E+03  0.17200000000E+03 0.  1.
         -6    1    1    2    0  503  0.55657042576E+02 -0.29725035355E+02 -0.88277269002E+02  0.20336705814E+03  0.17200000000E+03 0.  1.
<mgrwt>
<rscale>  2 0.18320831E+03</rscale>
<asrwt>0</asrwt>
<pdfrwt beam="1">  1       21 0.47530931E-01 0.18320831E+03</pdfrwt>
<pdfrwt beam="2">  1       21 0.52278808E-01 0.18320831E+03</pdfrwt>
<totfact> 0.14782406E+04</totfact>
</mgrwt>
</event>
<event>
 4    1  0.1086582E+000  0.1796790E+03  0.7546771E-02  0.1168114E+00
         21   -1    0    0  503  502  0.00000000000E+00  0.00000000000E+00  0.12894306940E+03  0.12894306940E+03  0.00000000000E+00 0. -1.
         21   -1    0    0  501  503 -0.00000000000E+00 -0.00000000000E+00 -0.29301066845E+03  0.29301066845E+03  0.00000000000E+00 0. -1.
          6    1    1    2  501    0  0.19194896442E+02 -0.48291738040E+02 -0.15583759432E+01  0.17968573830E+03  0.17200000000E+03 0. -1.
         -6    1    1    2    0  502 -0.19194896442E+02  0.48291738040E+02 -0.16250922310E+03  0.24226799955E+03  0.17200000000E+03 0. -1.
<mgrwt>
<rscale>  2 0.17967898E+03</rscale>
<asrwt>0</asrwt>
<pdfrwt beam="1">  1       21 0.32235768E-01 0.17967898E+03</pdfrwt>
<pdfrwt beam="2">  1       21 0.73252666E-01 0.17967898E+03</pdfrwt>
<totfact> 0.15641435E+04</totfact>
</mgrwt>
</event>
<event>
 4    1  0.1086582E+000  0.1965619E+03  0.7546771E-02  0.1152673E+00
         21   -1    0    0  501  502  0.00000000000E+00  0.00000000000E+00  0.12277731230E+03  0.12277731230E+03  0.00000000000E+00 0. -1.
         21   -1    0    0  502  503 -0.00000000000E+00 -0.00000000000E+00 -0.31564820758E+03  0.31564820758E+03  0.00000000000E+00 0. -1.
          6    1    1    2  501    0  0.13098040529E+02  0.94239260903E+02 -0.10852344659E+03  0.22453047771E+03  0.17200000000E+03 0. -1.
         -6    1    1    2    0  503 -0.13098040529E+02 -0.94239260903E+02 -0.84347448688E+02  0.21389504216E+03  0.17200000000E+03 0. -1.
<mgrwt>
<rscale>  2 0.19656194E+03</rscale>
<asrwt>0</asrwt>
<pdfrwt beam="1">  1       21 0.30694328E-01 0.19656194E+03</pdfrwt>
<pdfrwt beam="2">  1       21 0.78912052E-01 0.19656194E+03</pdfrwt>
<totfact> 0.14419541E+04</totfact>
</mgrwt>
</event>
<event>
 4    1  0.1086582E+000  0.1942294E+03  0.7546771E-02  0.1154701E+00
         21   -1    0    0  501  502  0.00000000000E+00  0.00000000000E+00  0.10267985244E+04  0.10267985244E+04  0.00000000000E+00 0.  1.
         21   -1    0    0  502  503 -0.00000000000E+00 -0.00000000000E+00 -0.36996781633E+02  0.36996781633E+02  0.00000000000E+00 0.  1.
          6    1    1    2  501    0  0.69111715926E+02  0.58005352555E+02  0.53917384136E+03  0.57309116326E+03  0.17200000000E+03 0.  1.
         -6    1    1    2    0  503 -0.69111715926E+02 -0.58005352555E+02  0.45062790138E+03  0.49070414274E+03  0.17200000000E+03 0.  1.
<mgrwt>
<rscale>  2 0.19422938E+03</rscale>
<asrwt>0</asrwt>
<pdfrwt beam="1">  1       21 0.25669954E+00 0.19422938E+03</pdfrwt>
<pdfrwt beam="2">  1       21 0.92491988E-02 0.19422938E+03</pdfrwt>
<totfact> 0.56464712E+03</totfact>
</mgrwt>
</event>
<event>
 4    1  0.1086582E+000  0.1811571E+03  0.7546771E-02  0.1166688E+00
         21   -1    0    0  501  502  0.00000000000E+00  0.00000000000E+00  0.35562862378E+03  0.35562862378E+03  0.00000000000E+00 0.  1.
         21   -1    0    0  502  503 -0.00000000000E+00 -0.00000000000E+00 -0.98547572930E+02  0.98547572930E+02  0.00000000000E+00 0.  1.
          6    1    1    2  501    0  0.11039927539E+02 -0.55785310425E+02  0.71277383936E+02  0.19467497610E+03  0.17200000000E+03 0.  1.
         -6    1    1    2    0  503 -0.11039927539E+02  0.55785310425E+02  0.18580366692E+03  0.25950122061E+03  0.17200000000E+03 0.  1.
<mgrwt>
<rscale>  2 0.18115706E+03</rscale>
<asrwt>0</asrwt>
<pdfrwt beam="1">  1       21 0.88907153E-01 0.18115706E+03</pdfrwt>
<pdfrwt beam="2">  1       21 0.24636894E-01 0.18115706E+03</pdfrwt>
<totfact> 0.16954696E+04</totfact>
</mgrwt>
</event>
<event>
 4    1  0.1086582E+000  0.2346551E+03  0.7546771E-02  0.1123406E+00
         21   -1    0    0  501  502  0.00000000000E+00  0.00000000000E+00  0.17482766306E+03  0.17482766306E+03  0.00000000000E+00 0. -1.
         21   -1    0    0  502  503 -0.00000000000E+00 -0.00000000000E+00 -0.35413467130E+03  0.35413467130E+03  0.00000000000E+00 0.  1.
          6    1    1    2  501    0  0.15960749169E+03  0.21126673449E+01 -0.16833015174E+01  0.23466113498E+03  0.17200000000E+03 0. -1.
         -6    1    1    2    0  503 -0.15960749169E+03 -0.21126673449E+01 -0.17762370672E+03  0.29430119938E+03  0.17200000000E+03 0.  1.
<mgrwt>
<rscale>  2 0.23465510E+03</rscale>
<asrwt>0</asrwt>
<pdfrwt beam="1">  1       21 0.43706916E-01 0.23465510E+03</pdfrwt>
<pdfrwt beam="2">  1       21 0.88533667E-01 0.23465510E+03</pdfrwt>
<totfact> 0.53242821E+03</totfact>
</mgrwt>
</event>
<event>
 4    1  0.1086582E+000  0.2161538E+03  0.7546771E-02  0.1136783E+00
         21   -1    0    0  503  502  0.00000000000E+00  0.00000000000E+00  0.30618235359E+03  0.30618235359E+03  0.00000000000E+00 0.  1.
         21   -1    0    0  501  503 -0.00000000000E+00 -0.00000000000E+00 -0.17137889076E+03  0.17137889076E+03  0.00000000000E+00 0.  1.
          6    1    1    2  501    0 -0.11836049581E+02 -0.13037774436E+03 -0.11646534701E+02  0.21646729560E+03  0.17200000000E+03 0.  1.
         -6    1    1    2    0  502  0.11836049581E+02  0.13037774436E+03  0.14644999753E+03  0.26109394874E+03  0.17200000000E+03 0.  1.
<mgrwt>
<rscale>  2 0.21615376E+03</rscale>
<asrwt>0</asrwt>
<pdfrwt beam="1">  1       21 0.76545588E-01 0.21615376E+03</pdfrwt>
<pdfrwt beam="2">  1       21 0.42844723E-01 0.21615376E+03</pdfrwt>
<totfact> 0.78278220E+03</totfact>
</mgrwt>
</event>
<event>
 4    1  0.1086582E+000  0.1733647E+03  0.7546771E-02  0.1174384E+00
         21   -1    0    0  501  502  0.00000000000E+00  0.00000000000E+00  0.22572231719E+03  0.22572231719E+03  0.00000000000E+00 0.  1.
         21   -1    0    0  502  503 -0.00000000000E+00 -0.00000000000E+00 -0.18461689859E+03  0.18461689859E+03  0.00000000000E+00 0.  1.
          6    1    1    2  501    0 -0.21681632224E+02 -0.11074362840E+01  0.12887902063E+03  0.21602111367E+03  0.17200000000E+03 0.  1.
         -6    1    1    2    0  503  0.21681632224E+02  0.11074362840E+01 -0.87773602037E+02  0.19431810210E+03  0.17200000000E+03 0.  1.
<mgrwt>
<rscale>  2 0.17336470E+03</rscale>
<asrwt>0</asrwt>
<pdfrwt beam="1">  1       21 0.56430579E-01 0.17336470E+03</pdfrwt>
<pdfrwt beam="2">  1       21 0.46154225E-01 0.17336470E+03</pdfrwt>
<totfact> 0.13457709E+04</totfact>
</mgrwt>
</event>
<event>
 4    1  0.1086582E+000  0.2814092E+03  0.7546771E-02  0.1094922E+00
         21   -1    0    0  503  502  0.00000000000E+00  0.00000000000E+00  0.10344167736E+03  0.10344167736E+03  0.00000000000E+00 0.  1.
         21   -1    0    0  501  503 -0.00000000000E+00 -0.00000000000E+00 -0.77704658591E+03  0.77704658591E+03  0.00000000000E+00 0. -1.
          6    1    1    2  501    0 -0.21011036090E+03  0.73897013066E+02 -0.28328361134E+03  0.39930030898E+03  0.17200000000E+03 0.  1.
         -6    1    1    2    0  502  0.21011036090E+03 -0.73897013066E+02 -0.39032129721E+03  0.48118795429E+03  0.17200000000E+03 0. -1.
<mgrwt>
<rscale>  2 0.28140919E+03</rscale>
<asrwt>0</asrwt>
<pdfrwt beam="1">  1       21 0.25860420E-01 0.28140919E+03</pdfrwt>
<pdfrwt beam="2">  1       21 0.19426164E+00 0.28140919E+03</pdfrwt>
<totfact> 0.19234328E+03</totfact>
</mgrwt>
</event>
<event>
 4    1  0.1086582E+000  0.2595292E+03  0.7546771E-02  0.1107426E+00
         21   -1    0    0  501  502  0.00000000000E+00  0.00000000000E+00  0.10643486212E+03  0.10643486212E+03  0.00000000000E+00 0.  1.
         21   -1    0    0  502  503 -0.00000000000E+00 -0.00000000000E+00 -0.11786117916E+04  0.11786117916E+04  0.00000000000E+00 0.  1.
          6    1    1    2  501    0  0.10198084565E+03  0.16544271919E+03 -0.98856166403E+02  0.27771915283E+03  0.17200000000E+03 0.  1.
         -6    1    1    2    0  503 -0.10198084565E+03 -0.16544271919E+03 -0.97332076313E+03  0.10073275009E+04  0.17200000000E+03 0.  1.
<mgrwt>
<rscale>  2 0.25952916E+03</rscale>
<asrwt>0</asrwt>
<pdfrwt beam="1">  1       21 0.26608716E-01 0.25952916E+03</pdfrwt>
<pdfrwt beam="2">  1       21 0.29465295E+00 0.25952916E+03</pdfrwt>
<totfact> 0.45348466E+02</totfact>
</mgrwt>
</event>
<event>
 4    1  0.1086582E+000  0.2276717E+03  0.7546771E-02  0.1128289E+00
         21   -1    0    0  501  502  0.00000000000E+00  0.00000000000E+00  0.60617437907E+02  0.60617437907E+02  0.00000000000E+00 0.  1.
         21   -1    0    0  502  503 -0.00000000000E+00 -0.00000000000E+00 -0.88615641309E+03  0.88615641309E+03  0.00000000000E+00 0. -1.
          6    1    1    2  501    0  0.51048193841E+02 -0.14015879130E+03 -0.50138029221E+03  0.55065107127E+03  0.17200000000E+03 0. -1.
         -6    1    1    2    0  503 -0.51048193841E+02  0.14015879130E+03 -0.32415868298E+03  0.39612277974E+03  0.17200000000E+03 0.  1.
<mgrwt>
<rscale>  2 0.22767170E+03</rscale>
<asrwt>0</asrwt>
<pdfrwt beam="1">  1       21 0.15154360E-01 0.22767170E+03</pdfrwt>
<pdfrwt beam="2">  1       21 0.22153910E+00 0.22767170E+03</pdfrwt>
<totfact> 0.36662806E+03</totfact>
</mgrwt>
</event>
<event>
 4    1  0.1086582E+000  0.2226527E+03  0.7546771E-02  0.1131921E+00
         21   -1    0    0  503  502  0.00000000000E+00  0.00000000000E+00  0.77227531954E+03  0.77227531954E+03  0.00000000000E+00 0.  1.
         21   -1    0    0  501  503 -0.00000000000E+00 -0.00000000000E+00 -0.10114139344E+03  0.10114139344E+03  0.00000000000E+00 0.  1.
          6    1    1    2  501    0 -0.11811294077E+03 -0.77714515957E+02  0.71612936102E+02  0.23388592387E+03  0.17200000000E+03 0.  1.
         -6    1    1    2    0  502  0.11811294077E+03  0.77714515957E+02  0.59952098999E+03  0.63953078910E+03  0.17200000000E+03 0.  1.
<mgrwt>
<rscale>  2 0.22265267E+03</rscale>
<asrwt>0</asrwt>
<pdfrwt beam="1">  1       21 0.19306881E+00 0.22265267E+03</pdfrwt>
<pdfrwt beam="2">  1       21 0.25285351E-01 0.22265267E+03</pdfrwt>
<totfact> 0.21438838E+03</totfact>
</mgrwt>
</event>
<event>
 4    1  0.1086582E+000  0.2112401E+03  0.7546771E-02  0.1140588E+00
         21   -1    0    0  503  502  0.00000000000E+00  0.00000000000E+00  0.11140930615E+04  0.11140930615E+04  0.00000000000E+00 0. -1.
         21   -1    0    0  501  503 -0.00000000000E+00 -0.00000000000E+00 -0.41548935200E+02  0.41548935200E+02  0.00000000000E+00 0.  1.
          6    1    1    2  501    0  0.22086466716E+02  0.12062578693E+03  0.64592464564E+03  0.67958887596E+03  0.17200000000E+03 0.  1.
         -6    1    1    2    0  502 -0.22086466716E+02 -0.12062578693E+03  0.42661948063E+03  0.47605312071E+03  0.17200000000E+03 0.  1.
<mgrwt>
<rscale>  2 0.21124013E+03</rscale>
<asrwt>0</asrwt>
<pdfrwt beam="1">  1       21 0.27852317E+00 0.21124013E+03</pdfrwt>
<pdfrwt beam="2">  1       21 0.10387237E-01 0.21124013E+03</pdfrwt>
<totfact> 0.33728285E+03</totfact>
</mgrwt>
</event>
<event>
 4    1  0.1086582E+000  0.1951680E+03  0.7546771E-02  0.1153881E+00
         21   -1    0    0  503  502  0.00000000000E+00  0.00000000000E+00  0.15338800670E+03  0.15338800670E+03  0.00000000000E+00 0.  1.
         21   -1    0    0  501  503 -0.00000000000E+00 -0.00000000000E+00 -0.27871890834E+03  0.27871890834E+03  0.00000000000E+00 0. -1.
          6    1    1    2  501    0 -0.49303870087E+02  0.77946600211E+02  0.86772442295E+01  0.19536079099E+03  0.17200000000E+03 0.  1.
         -6    1    1    2    0  502  0.49303870087E+02 -0.77946600211E+02 -0.13400814588E+03  0.23674612405E+03  0.17200000000E+03 0. -1.
<mgrwt>
<rscale>  2 0.19516799E+03</rscale>
<asrwt>0</asrwt>
<pdfrwt beam="1">  1       21 0.38347002E-01 0.19516799E+03</pdfrwt>
<pdfrwt beam="2">  1       21 0.69679727E-01 0.19516799E+03</pdfrwt>
<totfact> 0.12254461E+04</totfact>
</mgrwt>
</event>
<event>
 4    1  0.1086582E+000  0.1731932E+03  0.7546771E-02  0.1174558E+00
         21   -1    0    0  501  502  0.00000000000E+00  0.00000000000E+00  0.12379437197E+03  0.12379437197E+03  0.00000000000E+00 0.  1.
         21   -1    0    0  502  503 -0.00000000000E+00 -0.00000000000E+00 -0.41101815877E+03  0.41101815877E+03  0.00000000000E+00 0.  1.
          6    1    1    2  501    0  0.13279888830E+01  0.20251771069E+02  0.27711459849E+02  0.17539618808E+03  0.17200000000E+03 0.  1.
         -6    1    1    2    0  503 -0.13279888830E+01 -0.20251771069E+02 -0.31493524665E+03  0.35941634266E+03  0.17200000000E+03 0.  1.
<mgrwt>
<rscale>  2 0.17319324E+03</rscale>
<asrwt>0</asrwt>
<pdfrwt beam="1">  1       21 0.30948593E-01 0.17319324E+03</pdfrwt>
<pdfrwt beam="2">  1       21 0.10275454E+00 0.17319324E+03</pdfrwt>
<totfact> 0.78307898E+03</totfact>
</mgrwt>
</event>
<event>
 4    1  0.1086582E+000  0.1943448E+03  0.7546771E-02  0.1154600E+00
         21   -1    0    0  503  502  0.00000000000E+00  0.00000000000E+00  0.27850904839E+03  0.27850904839E+03  0.00000000000E+00 0.  1.
         21   -1    0    0  501  503 -0.00000000000E+00 -0.00000000000E+00 -0.22511848332E+03  0.22511848332E+03  0.00000000000E+00 0.  1.
          6    1    1    2  501    0  0.35050295178E+02 -0.83410822827E+02 -0.13208437850E+03  0.23498121542E+03  0.17200000000E+03 0.  1.
         -6    1    1    2    0  502 -0.35050295178E+02  0.83410822827E+02  0.18547494357E+03  0.26864631628E+03  0.17200000000E+03 0.  1.
<mgrwt>
<rscale>  2 0.19434477E+03</rscale>
<asrwt>0</asrwt>
<pdfrwt beam="1">  1       21 0.69627262E-01 0.19434477E+03</pdfrwt>
<pdfrwt beam="2">  1       21 0.56279621E-01 0.19434477E+03</pdfrwt>
<totfact> 0.55627720E+03</totfact>
</mgrwt>
</event>
<event>
 4    1  0.1086582E+000  0.2182084E+03  0.7546771E-02  0.1135226E+00
         21   -1    0    0  503  502  0.00000000000E+00  0.00000000000E+00  0.74896525796E+03  0.74896525796E+03  0.00000000000E+00 0.  1.
         21   -1    0    0  501  503 -0.00000000000E+00 -0.00000000000E+00 -0.88879645151E+02  0.88879645151E+02  0.00000000000E+00 0.  1.
          6    1    1    2  501    0  0.13394650650E+03 -0.94455818873E+01  0.55357457738E+03  0.59502915756E+03  0.17200000000E+03 0.  1.
         -6    1    1    2    0  502 -0.13394650650E+03  0.94455818873E+01  0.10651103543E+03  0.24281574556E+03  0.17200000000E+03 0.  1.
<mgrwt>
<rscale>  2 0.21820835E+03</rscale>
<asrwt>0</asrwt>
<pdfrwt beam="1">  1       21 0.18724130E+00 0.21820835E+03</pdfrwt>
<pdfrwt beam="2">  1       21 0.22219914E-01 0.21820835E+03</pdfrwt>
<totfact> 0.30094410E+03</totfact>
</mgrwt>
</event>
<event>
 4    1  0.1086582E+000  0.1770378E+03  0.7546771E-02  0.1170701E+00
         21   -1    0    0  501  502  0.00000000000E+00  0.00000000000E+00  0.22150901106E+02  0.22150901106E+02  0.00000000000E+00 0. -1.
         21   -1    0    0  502  503 -0.00000000000E+00 -0.00000000000E+00 -0.16551357627E+04  0.16551357627E+04  0.00000000000E+00 0. -1.
          6    1    1    2  501    0  0.34510322673E+02 -0.23820686388E+02 -0.49701856012E+03  0.52760765401E+03  0.17200000000E+03 0.  1.
         -6    1    1    2    0  503 -0.34510322673E+02  0.23820686388E+02 -0.11359663015E+04  0.11496790098E+04  0.17200000000E+03 0.  1.
<mgrwt>
<rscale>  2 0.17703781E+03</rscale>
<asrwt>0</asrwt>
<pdfrwt beam="1">  1       21 0.55377254E-02 0.17703781E+03</pdfrwt>
<pdfrwt beam="2">  1       21 0.41378393E+00 0.17703781E+03</pdfrwt>
<totfact> 0.16548783E+03</totfact>
</mgrwt>
</event>
<event>
 4    1  0.1086582E+000  0.2219171E+03  0.7546771E-02  0.1132462E+00
         21   -1    0    0  503  502  0.00000000000E+00  0.00000000000E+00  0.50610632391E+02  0.50610632391E+02  0.00000000000E+00 0. -1.
         21   -1    0    0  501  503 -0.00000000000E+00 -0.00000000000E+00 -0.97306643996E+03  0.97306643996E+03  0.00000000000E+00 0. -1.
          6    1    1    2  501    0  0.13409412097E+03  0.41011827256E+02 -0.45995490383E+03  0.51069141055E+03  0.17200000000E+03 0.  1.
         -6    1    1    2    0  502 -0.13409412097E+03 -0.41011827256E+02 -0.46250090374E+03  0.51298566180E+03  0.17200000000E+03 0.  1.
<mgrwt>
<rscale>  2 0.22191711E+03</rscale>
<asrwt>0</asrwt>
<pdfrwt beam="1">  1       21 0.12652658E-01 0.22191711E+03</pdfrwt>
<pdfrwt beam="2">  1       21 0.24326660E+00 0.22191711E+03</pdfrwt>
<totfact> 0.37762953E+03</totfact>
</mgrwt>
</event>
<event>
 4    1  0.1086582E+000  0.1793077E+03  0.7546771E-02  0.1168475E+00
         21   -1    0    0  501  502  0.00000000000E+00  0.00000000000E+00  0.79059682627E+02  0.79059682627E+02  0.00000000000E+00 0.  1.
         21   -1    0    0  502  503 -0.00000000000E+00 -0.00000000000E+00 -0.45353391137E+03  0.45353391137E+03  0.00000000000E+00 0.  1.
          6    1    1    2  501    0  0.81247210742E+01  0.50012253481E+02 -0.10163623060E+03  0.20610958241E+03  0.17200000000E+03 0. -1.
         -6    1    1    2    0  503 -0.81247210742E+01 -0.50012253481E+02 -0.27283799814E+03  0.32648401158E+03  0.17200000000E+03 0. -1.
<mgrwt>
<rscale>  2 0.17930766E+03</rscale>
<asrwt>0</asrwt>
<pdfrwt beam="1">  1       21 0.19764921E-01 0.17930766E+03</pdfrwt>
<pdfrwt beam="2">  1       21 0.11338348E+00 0.17930766E+03</pdfrwt>
<totfact> 0.14449593E+04</totfact>
</mgrwt>
</event>
<event>
 4    1  0.1086582E+000  0.2409122E+03  0.7546771E-02  0.1119187E+00
         21   -1    0    0  503  502  0.00000000000E+00  0.00000000000E+00  0.23475039890E+03  0.23475039890E+03  0.00000000000E+00 0.  1.
         21   -1    0    0  501  503 -0.00000000000E+00 -0.00000000000E+00 -0.24892962090E+03  0.24892962090E+03  0.00000000000E+00 0.  1.
          6    1    1    2  501    0  0.86665531746E+02 -0.14471956547E+03 -0.27039619090E+02  0.24242485026E+03  0.17200000000E+03 0.  1.
         -6    1    1    2    0  502 -0.86665531746E+02  0.14471956547E+03  0.12860397090E+02  0.24125516955E+03  0.17200000000E+03 0.  1.
<mgrwt>
<rscale>  2 0.24091216E+03</rscale>
<asrwt>0</asrwt>
<pdfrwt beam="1">  1       21 0.58687600E-01 0.24091216E+03</pdfrwt>
<pdfrwt beam="2">  1       21 0.62232405E-01 0.24091216E+03</pdfrwt>
<totfact> 0.62945203E+03</totfact>
</mgrwt>
</event>
<event>
 4    1  0.1086582E+000  0.2219918E+03  0.7546771E-02  0.1132407E+00
         21   -1    0    0  501  502  0.00000000000E+00  0.00000000000E+00  0.43736980246E+03  0.43736980246E+03  0.00000000000E+00 0. -1.
         21   -1    0    0  502  503 -0.00000000000E+00 -0.00000000000E+00 -0.11515490477E+03  0.11515490477E+03  0.00000000000E+00 0.  1.
          6    1    1    2  501    0 -0.64147273608E+01  0.14019697076E+03  0.20165444385E+03  0.29990807602E+03  0.17200000000E+03 0. -1.
         -6    1    1    2    0  503  0.64147273608E+01 -0.14019697076E+03  0.12056045383E+03  0.25261663121E+03  0.17200000000E+03 0.  1.
<mgrwt>
<rscale>  2 0.22199176E+03</rscale>
<asrwt>0</asrwt>
<pdfrwt beam="1">  1       21 0.10934245E+00 0.22199176E+03</pdfrwt>
<pdfrwt beam="2">  1       21 0.28788727E-01 0.22199176E+03</pdfrwt>
<totfact> 0.74905571E+03</totfact>
</mgrwt>
</event>
<event>
 4    1  0.1086582E+000  0.2555732E+03  0.7546771E-02  0.1109832E+00
         21   -1    0    0  503  502  0.00000000000E+00  0.00000000000E+00  0.96960082963E+02  0.96960082963E+02  0.00000000000E+00 0.  1.
         21   -1    0    0  501  503 -0.00000000000E+00 -0.00000000000E+00 -0.98221894846E+03  0.98221894846E+03  0.00000000000E+00 0. -1.
          6    1    1    2  501    0 -0.13020198418E+03  0.13704413125E+03 -0.14019453866E+03  0.29149984437E+03  0.17200000000E+03 0.  1.
         -6    1    1    2    0  502  0.13020198418E+03 -0.13704413125E+03 -0.74506432684E+03  0.78767918706E+03  0.17200000000E+03 0. -1.
<mgrwt>
<rscale>  2 0.25557318E+03</rscale>
<asrwt>0</asrwt>
<pdfrwt beam="1">  1       21 0.24240021E-01 0.25557318E+03</pdfrwt>
<pdfrwt beam="2">  1       21 0.24555474E+00 0.25557318E+03</pdfrwt>
<totfact> 0.10613019E+03</totfact>
</mgrwt>
</event>
<event>
 4    1  0.1086582E+000  0.1811208E+03  0.7546771E-02  0.1166723E+00
         21   -1    0    0  503  502  0.00000000000E+00  0.00000000000E+00  0.92616598756E+03  0.92616598756E+03  0.00000000000E+00 0. -1.
         21   -1    0    0  501  503 -0.00000000000E+00 -0.00000000000E+00 -0.39043301317E+02  0.39043301317E+02  0.00000000000E+00 0. -1.
          6    1    1    2  501    0 -0.57705813578E+01  0.56457614724E+02  0.59058014445E+03  0.61772944635E+03  0.17200000000E+03 0. -1.
         -6    1    1    2    0  502  0.57705813578E+01 -0.56457614724E+02  0.29654254179E+03  0.34747984253E+03  0.17200000000E+03 0. -1.
<mgrwt>
<rscale>  2 0.18112085E+03</rscale>
<asrwt>0</asrwt>
<pdfrwt beam="1">  1       21 0.23154142E+00 0.18112085E+03</pdfrwt>
<pdfrwt beam="2">  1       21 0.97608284E-02 0.18112085E+03</pdfrwt>
<totfact> 0.73311042E+03</totfact>
</mgrwt>
</event>
<event>
 4    1  0.1086582E+000  0.1746415E+03  0.7546771E-02  0.1173092E+00
         21   -1    0    0  501  502  0.00000000000E+00  0.00000000000E+00  0.65051456723E+02  0.65051456723E+02  0.00000000000E+00 0.  1.
         21   -1    0    0  502  503 -0.00000000000E+00 -0.00000000000E+00 -0.47119078438E+03  0.47119078438E+03  0.00000000000E+00 0.  1.
          6    1    1    2  501    0  0.27590658467E+01 -0.30133835623E+02 -0.22194986067E+03  0.28242061034E+03  0.17200000000E+03 0.  1.
         -6    1    1    2    0  503 -0.27590658467E+01  0.30133835623E+02 -0.18418946698E+03  0.25382163076E+03  0.17200000000E+03 0.  1.
<mgrwt>
<rscale>  2 0.17464152E+03</rscale>
<asrwt>0</asrwt>
<pdfrwt beam="1">  1       21 0.16262864E-01 0.17464152E+03</pdfrwt>
<pdfrwt beam="2">  1       21 0.11779770E+00 0.17464152E+03</pdfrwt>
<totfact> 0.18929465E+04</totfact>
</mgrwt>
</event>
<event>
 4    1  0.1086582E+000  0.1898520E+03  0.7546771E-02  0.1158595E+00
         21   -1    0    0  503  502  0.00000000000E+00  0.00000000000E+00  0.22286978531E+03  0.22286978531E+03  0.00000000000E+00 0. -1.
         21   -1    0    0  501  503 -0.00000000000E+00 -0.00000000000E+00 -0.19412299100E+03  0.19412299100E+03  0.00000000000E+00 0.  1.
          6    1    1    2  501    0  0.17498688515E+02  0.78444765833E+02 -0.70801966375E+02  0.20262453906E+03  0.17200000000E+03 0.  1.
         -6    1    1    2    0  502 -0.17498688515E+02 -0.78444765833E+02  0.99548760682E+02  0.21436823725E+03  0.17200000000E+03 0. -1.
<mgrwt>
<rscale>  2 0.18985201E+03</rscale>
<asrwt>0</asrwt>
<pdfrwt beam="1">  1       21 0.55717446E-01 0.18985201E+03</pdfrwt>
<pdfrwt beam="2">  1       21 0.48530748E-01 0.18985201E+03</pdfrwt>
<totfact> 0.12326850E+04</totfact>
</mgrwt>
</event>
<event>
 4    1  0.1086582E+000  0.2280387E+03  0.7546771E-02  0.1128028E+00
         21   -1    0    0  503  502  0.00000000000E+00  0.00000000000E+00  0.70896112615E+02  0.70896112615E+02  0.00000000000E+00 0. -1.
         21   -1    0    0  501  503 -0.00000000000E+00 -0.00000000000E+00 -0.73675373913E+03  0.73675373913E+03  0.00000000000E+00 0. -1.
          6    1    1    2  501    0  0.22281517113E+02 -0.14805809637E+03 -0.30605569361E+03  0.38166969161E+03  0.17200000000E+03 0. -1.
         -6    1    1    2    0  502 -0.22281517113E+02  0.14805809637E+03 -0.35980193291E+03  0.42598016014E+03  0.17200000000E+03 0. -1.
<mgrwt>
<rscale>  2 0.22803874E+03</rscale>
<asrwt>0</asrwt>
<pdfrwt beam="1">  1       21 0.17724028E-01 0.22803874E+03</pdfrwt>
<pdfrwt beam="2">  1       21 0.18418843E+00 0.22803874E+03</pdfrwt>
<totfact> 0.47787618E+03</totfact>
</mgrwt>
</event>
<event>
 4    1  0.1086582E+000  0.2004326E+03  0.7546771E-02  0.1149375E+00
         21   -1    0    0  501  502  0.00000000000E+00  0.00000000000E+00  0.15902825216E+03  0.15902825216E+03  0.00000000000E+00 0.  1.
         21   -1    0    0  502  503 -0.00000000000E+00 -0.00000000000E+00 -0.30173934430E+03  0.30173934430E+03  0.00000000000E+00 0. -1.
          6    1    1    2  501    0  0.27720806899E+02 -0.99099787610E+02  0.21600214697E+02  0.20159310582E+03  0.17200000000E+03 0.  1.
         -6    1    1    2    0  503 -0.27720806899E+02  0.99099787610E+02 -0.16431130684E+03  0.25917449063E+03  0.17200000000E+03 0. -1.
<mgrwt>
<rscale>  2 0.20043256E+03</rscale>
<asrwt>0</asrwt>
<pdfrwt beam="1">  1       21 0.39757063E-01 0.20043256E+03</pdfrwt>
<pdfrwt beam="2">  1       21 0.75434835E-01 0.20043256E+03</pdfrwt>
<totfact> 0.95191261E+03</totfact>
</mgrwt>
</event>
<event>
 4    1  0.1086582E+000  0.2060002E+03  0.7546771E-02  0.1144773E+00
         21   -1    0    0  501  502  0.00000000000E+00  0.00000000000E+00  0.67613814475E+02  0.67613814475E+02  0.00000000000E+00 0.  1.
         21   -1    0    0  502  503 -0.00000000000E+00 -0.00000000000E+00 -0.83666249362E+03  0.83666249362E+03  0.00000000000E+00 0. -1.
          6    1    1    2  501    0 -0.10855239515E+03  0.32687298571E+02 -0.15852420893E+03  0.25993462024E+03  0.17200000000E+03 0.  1.
         -6    1    1    2    0  503  0.10855239515E+03 -0.32687298571E+02 -0.61052447021E+03  0.64434168785E+03  0.17200000000E+03 0. -1.
<mgrwt>
<rscale>  2 0.20600020E+03</rscale>
<asrwt>0</asrwt>
<pdfrwt beam="1">  1       21 0.16903454E-01 0.20600020E+03</pdfrwt>
<pdfrwt beam="2">  1       21 0.20916562E+00 0.20600020E+03</pdfrwt>
<totfact> 0.36551068E+03</totfact>
</mgrwt>
</event>
<event>
 4    1  0.1086582E+000  0.2420452E+03  0.7546771E-02  0.1118438E+00
         21   -1    0    0  501  502  0.00000000000E+00  0.00000000000E+00  0.14056714800E+03  0.14056714800E+03  0.00000000000E+00 0. -1.
         21   -1    0    0  502  503 -0.00000000000E+00 -0.00000000000E+00 -0.93513669085E+03  0.93513669085E+03  0.00000000000E+00 0.  1.
          6    1    1    2  501    0 -0.16217426577E+03 -0.51974631741E+02  0.31563762809E+01  0.24206572978E+03  0.17200000000E+03 0. -1.
         -6    1    1    2    0  503  0.16217426577E+03  0.51974631741E+02 -0.79772591913E+03  0.83363810906E+03  0.17200000000E+03 0.  1.
<mgrwt>
<rscale>  2 0.24204515E+03</rscale>
<asrwt>0</asrwt>
<pdfrwt beam="1">  1       21 0.35141788E-01 0.24204515E+03</pdfrwt>
<pdfrwt beam="2">  1       21 0.23378417E+00 0.24204515E+03</pdfrwt>
<totfact> 0.61251331E+02</totfact>
</mgrwt>
</event>
<event>
 4    1  0.1086582E+000  0.2777022E+03  0.7546771E-02  0.1096951E+00
         21   -1    0    0  503  502  0.00000000000E+00  0.00000000000E+00  0.27058404297E+03  0.27058404297E+03  0.00000000000E+00 0. -1.
         21   -1    0    0  501  503 -0.00000000000E+00 -0.00000000000E+00 -0.73223945969E+03  0.73223945969E+03  0.00000000000E+00 0.  1.
          6    1    1    2  501    0  0.13649093635E+03  0.17001393890E+03 -0.62269074453E+03  0.68180809503E+03  0.17200000000E+03 0.  1.
         -6    1    1    2    0  502 -0.13649093635E+03 -0.17001393890E+03  0.16103532782E+03  0.32101540762E+03  0.17200000000E+03 0. -1.
<mgrwt>
<rscale>  2 0.27770221E+03</rscale>
<asrwt>0</asrwt>
<pdfrwt beam="1">  1       21 0.67646011E-01 0.27770221E+03</pdfrwt>
<pdfrwt beam="2">  1       21 0.18305986E+00 0.27770221E+03</pdfrwt>
<totfact> 0.31718262E+02</totfact>
</mgrwt>
</event>
<event>
 4    1  0.1086582E+000  0.1795617E+03  0.7546771E-02  0.1168228E+00
         21   -1    0    0  501  502  0.00000000000E+00  0.00000000000E+00  0.28639981938E+03  0.28639981938E+03  0.00000000000E+00 0.  1.
         21   -1    0    0  502  503 -0.00000000000E+00 -0.00000000000E+00 -0.16725289052E+03  0.16725289052E+03  0.00000000000E+00 0.  1.
          6    1    1    2  501    0 -0.51124306270E+02  0.66861895398E+01  0.18926138780E+03  0.26088747140E+03  0.17200000000E+03 0.  1.
         -6    1    1    2    0  503  0.51124306270E+02 -0.66861895398E+01 -0.70114458931E+02  0.19276523850E+03  0.17200000000E+03 0.  1.
<mgrwt>
<rscale>  2 0.17956169E+03</rscale>
<asrwt>0</asrwt>
<pdfrwt beam="1">  1       21 0.71599954E-01 0.17956169E+03</pdfrwt>
<pdfrwt beam="2">  1       21 0.41813223E-01 0.17956169E+03</pdfrwt>
<totfact> 0.97943925E+03</totfact>
</mgrwt>
</event>
<event>
 4    1  0.1086582E+000  0.1743731E+03  0.7546771E-02  0.1173363E+00
         21   -1    0    0  503  502  0.00000000000E+00  0.00000000000E+00  0.69336862511E+02  0.69336862511E+02  0.00000000000E+00 0.  1.
         21   -1    0    0  501  503 -0.00000000000E+00 -0.00000000000E+00 -0.60072867609E+03  0.60072867609E+03  0.00000000000E+00 0.  1.
          6    1    1    2  501    0 -0.23887801056E+02  0.15854147071E+02 -0.43978750288E+03  0.47309515819E+03  0.17200000000E+03 0.  1.
         -6    1    1    2    0  502  0.23887801056E+02 -0.15854147071E+02 -0.91604310702E+02  0.19697038041E+03  0.17200000000E+03 0.  1.
<mgrwt>
<rscale>  2 0.17437311E+03</rscale>
<asrwt>0</asrwt>
<pdfrwt beam="1">  1       21 0.17334216E-01 0.17437311E+03</pdfrwt>
<pdfrwt beam="2">  1       21 0.15018217E+00 0.17437311E+03</pdfrwt>
<totfact> 0.90983565E+03</totfact>
</mgrwt>
</event>
<event>
 4    1  0.1086582E+000  0.2044720E+03  0.7546771E-02  0.1146020E+00
         21   -1    0    0  503  502  0.00000000000E+00  0.00000000000E+00  0.55339839210E+02  0.55339839210E+02  0.00000000000E+00 0. -1.
         21   -1    0    0  501  503 -0.00000000000E+00 -0.00000000000E+00 -0.83160383735E+03  0.83160383735E+03  0.00000000000E+00 0. -1.
          6    1    1    2  501    0 -0.61958053599E+02 -0.91575104760E+02 -0.25396855611E+03  0.32605034536E+03  0.17200000000E+03 0. -1.
         -6    1    1    2    0  502  0.61958053599E+02  0.91575104760E+02 -0.52229544203E+03  0.56089333120E+03  0.17200000000E+03 0. -1.
<mgrwt>
<rscale>  2 0.20447200E+03</rscale>
<asrwt>0</asrwt>
<pdfrwt beam="1">  1       21 0.13834960E-01 0.20447200E+03</pdfrwt>
<pdfrwt beam="2">  1       21 0.20790096E+00 0.20447200E+03</pdfrwt>
<totfact> 0.53750720E+03</totfact>
</mgrwt>
</event>
<event>
 4    1  0.1086582E+000  0.1767946E+03  0.7546771E-02  0.1170942E+00
         21   -1    0    0  501  502  0.00000000000E+00  0.00000000000E+00  0.43057863536E+02  0.43057863536E+02  0.00000000000E+00 0. -1.
         21   -1    0    0  502  503 -0.00000000000E+00 -0.00000000000E+00 -0.16663672314E+04  0.16663672314E+04  0.00000000000E+00 0. -1.
          6    1    1    2  501    0  0.64435510944E+00 -0.40889056882E+02 -0.16955391074E+03  0.24495889209E+03  0.17200000000E+03 0. -1.
         -6    1    1    2    0  503 -0.64435510944E+00  0.40889056882E+02 -0.14537554571E+04  0.14644662028E+04  0.17200000000E+03 0. -1.
<mgrwt>
<rscale>  2 0.17679460E+03</rscale>
<asrwt>0</asrwt>
<pdfrwt beam="1">  1       21 0.10764466E-01 0.17679460E+03</pdfrwt>
<pdfrwt beam="2">  1       21 0.41659179E+00 0.17679460E+03</pdfrwt>
<totfact> 0.50174574E+02</totfact>
</mgrwt>
</event>
<event>
 4    1  0.1086582E+000  0.2263576E+03  0.7546771E-02  0.1129230E+00
         21   -1    0    0  501  502  0.00000000000E+00  0.00000000000E+00  0.49821806841E+03  0.49821806841E+03  0.00000000000E+00 0. -1.
         21   -1    0    0  502  503 -0.00000000000E+00 -0.00000000000E+00 -0.16856797907E+03  0.16856797907E+03  0.00000000000E+00 0. -1.
          6    1    1    2  501    0 -0.11999957946E+03  0.85169569569E+02  0.37300428529E+03  0.43631405145E+03  0.17200000000E+03 0. -1.
         -6    1    1    2    0  503  0.11999957946E+03 -0.85169569569E+02 -0.43354195944E+02  0.23047199603E+03  0.17200000000E+03 0. -1.
<mgrwt>
<rscale>  2 0.22635758E+03</rscale>
<asrwt>0</asrwt>
<pdfrwt beam="1">  1       21 0.12455451E+00 0.22635758E+03</pdfrwt>
<pdfrwt beam="2">  1       21 0.42141996E-01 0.22635758E+03</pdfrwt>
<totfact> 0.25343588E+03</totfact>
</mgrwt>
</event>
<event>
 4    1  0.1086582E+000  0.2010657E+03  0.7546771E-02  0.1148843E+00
         21   -1    0    0  501  502  0.00000000000E+00  0.00000000000E+00  0.23125360484E+03  0.23125360484E+03  0.00000000000E+00 0.  1.
         21   -1    0    0  502  503 -0.00000000000E+00 -0.00000000000E+00 -0.45165010528E+03  0.45165010528E+03  0.00000000000E+00 0. -1.
          6    1    1    2  501    0  0.10384470344E+03  0.77267060344E+01  0.15712467177E+03  0.25517755955E+03  0.17200000000E+03 0.  1.
         -6    1    1    2    0  503 -0.10384470344E+03 -0.77267060344E+01 -0.37752117221E+03  0.42772615058E+03  0.17200000000E+03 0. -1.
<mgrwt>
<rscale>  2 0.20106572E+03</rscale>
<asrwt>0</asrwt>
<pdfrwt beam="1">  1       21 0.57813402E-01 0.20106572E+03</pdfrwt>
<pdfrwt beam="2">  1       21 0.11291253E+00 0.20106572E+03</pdfrwt>
<totfact> 0.17062865E+03</totfact>
</mgrwt>
</event>
<event>
 4    1  0.1086582E+000  0.1814361E+03  0.7546771E-02  0.1166420E+00
         21   -1    0    0  501  502  0.00000000000E+00  0.00000000000E+00  0.49276407557E+03  0.49276407557E+03  0.00000000000E+00 0.  1.
         21   -1    0    0  502  503 -0.00000000000E+00 -0.00000000000E+00 -0.11179195249E+03  0.11179195249E+03  0.00000000000E+00 0.  1.
          6    1    1    2  501    0 -0.57263304504E+02  0.74806705545E+01  0.38224037444E+03  0.42311552834E+03  0.17200000000E+03 0.  1.
         -6    1    1    2    0  503  0.57263304504E+02 -0.74806705545E+01 -0.12682513603E+01  0.18144049971E+03  0.17200000000E+03 0.  1.
<mgrwt>
<rscale>  2 0.18143607E+03</rscale>
<asrwt>0</asrwt>
<pdfrwt beam="1">  1       21 0.12319101E+00 0.18143607E+03</pdfrwt>
<pdfrwt beam="2">  1       21 0.27947989E-01 0.18143607E+03</pdfrwt>
<totfact> 0.61034650E+03</totfact>
</mgrwt>
</event>
<event>
 4    1  0.1086582E+000  0.2017089E+03  0.7546771E-02  0.1148305E+00
         21   -1    0    0  501  502  0.00000000000E+00  0.00000000000E+00  0.74299714769E+03  0.74299714769E+03  0.00000000000E+00 0. -1.
         21   -1    0    0  502  503 -0.00000000000E+00 -0.00000000000E+00 -0.56291261555E+02  0.56291261555E+02  0.00000000000E+00 0. -1.
          6    1    1    2  501    0 -0.98720606316E+02 -0.36833656721E+02  0.40926832459E+03  0.45627517782E+03  0.17200000000E+03 0. -1.
         -6    1    1    2    0  503  0.98720606316E+02  0.36833656721E+02  0.27743756154E+03  0.34301323143E+03  0.17200000000E+03 0. -1.
<mgrwt>
<rscale>  2 0.20170889E+03</rscale>
<asrwt>0</asrwt>
<pdfrwt beam="1">  1       21 0.18574926E+00 0.20170889E+03</pdfrwt>
<pdfrwt beam="2">  1       21 0.14072818E-01 0.20170889E+03</pdfrwt>
<totfact> 0.72747054E+03</totfact>
</mgrwt>
</event>
<event>
 4    1  0.1086582E+000  0.1737386E+03  0.7546771E-02  0.1174004E+00
         21   -1    0    0  501  502  0.00000000000E+00  0.00000000000E+00  0.44088380930E+03  0.44088380930E+03  0.00000000000E+00 0.  1.
         21   -1    0    0  502  503 -0.00000000000E+00 -0.00000000000E+00 -0.69731888610E+02  0.69731888610E+02  0.00000000000E+00 0.  1.
          6    1    1    2  501    0  0.23518168841E+02  0.69283436117E+01  0.21998869160E+03  0.28032147732E+03  0.17200000000E+03 0.  1.
         -6    1    1    2    0  503 -0.23518168841E+02 -0.69283436117E+01  0.15116322908E+03  0.23029422059E+03  0.17200000000E+03 0.  1.
<mgrwt>
<rscale>  2 0.17373861E+03</rscale>
<asrwt>0</asrwt>
<pdfrwt beam="1">  1       21 0.11022094E+00 0.17373861E+03</pdfrwt>
<pdfrwt beam="2">  1       21 0.17432973E-01 0.17373861E+03</pdfrwt>
<totfact> 0.19594196E+04</totfact>
</mgrwt>
</event>
<event>
 4    1  0.1086582E+000  0.1760272E+03  0.7546771E-02  0.1171704E+00
         21   -1    0    0  503  502  0.00000000000E+00  0.00000000000E+00  0.37726908428E+03  0.37726908428E+03  0.00000000000E+00 0. -1.
         21   -1    0    0  501  503 -0.00000000000E+00 -0.00000000000E+00 -0.11636852826E+03  0.11636852826E+03  0.00000000000E+00 0. -1.
          6    1    1    2  501    0  0.26849550188E+02  0.26089466555E+02 -0.34281108757E+01  0.17606053094E+03  0.17200000000E+03 0. -1.
         -6    1    1    2    0  502 -0.26849550188E+02 -0.26089466555E+02  0.26432866689E+03  0.31757708159E+03  0.17200000000E+03 0. -1.
<mgrwt>
<rscale>  2 0.17602715E+03</rscale>
<asrwt>0</asrwt>
<pdfrwt beam="1">  1       21 0.94317268E-01 0.17602715E+03</pdfrwt>
<pdfrwt beam="2">  1       21 0.29092133E-01 0.17602715E+03</pdfrwt>
<totfact> 0.10783281E+04</totfact>
</mgrwt>
</event>
<event>
 4    1  0.1086582E+000  0.2590544E+03  0.7546771E-02  0.1107713E+00
         21   -1    0    0  501  502  0.00000000000E+00  0.00000000000E+00  0.82419008263E+03  0.82419008263E+03  0.00000000000E+00 0. -1.
         21   -1    0    0  502  503 -0.00000000000E+00 -0.00000000000E+00 -0.18533283032E+03  0.18533283032E+03  0.00000000000E+00 0.  1.
          6    1    1    2  501    0 -0.16649482378E+03  0.99018470955E+02  0.69737953623E+03  0.74394045560E+03  0.17200000000E+03 0. -1.
         -6    1    1    2    0  503  0.16649482378E+03 -0.99018470955E+02 -0.58522283920E+02  0.26558245735E+03  0.17200000000E+03 0.  1.
<mgrwt>
<rscale>  2 0.25905440E+03</rscale>
<asrwt>0</asrwt>
<pdfrwt beam="1">  1       21 0.20604751E+00 0.25905440E+03</pdfrwt>
<pdfrwt beam="2">  1       21 0.46333210E-01 0.25905440E+03</pdfrwt>
<totfact> 0.51096134E+02</totfact>
</mgrwt>
</event>
<event>
 4    1  0.1086582E+000  0.3711853E+03  0.7546771E-02  0.1054241E+00
         21   -1    0    0  501  502  0.00000000000E+00  0.00000000000E+00  0.21664834906E+03  0.21664834906E+03  0.00000000000E+00 0.  1.
         21   -1    0    0  502  503 -0.00000000000E+00 -0.00000000000E+00 -0.65439763747E+03  0.65439763747E+03  0.00000000000E+00 0. -1.
          6    1    1    2  501    0 -0.32553679103E+03 -0.47120575610E+02 -0.29198930198E+03  0.47226719496E+03  0.17200000000E+03 0. -1.
         -6    1    1    2    0  503  0.32553679103E+03  0.47120575610E+02 -0.14575998643E+03  0.39877879157E+03  0.17200000000E+03 0.  1.
<mgrwt>
<rscale>  2 0.37118533E+03</rscale>
<asrwt>0</asrwt>
<pdfrwt beam="1">  1       21 0.54162088E-01 0.37118533E+03</pdfrwt>
<pdfrwt beam="2">  1       21 0.16359941E+00 0.37118533E+03</pdfrwt>
<totfact> 0.66346747E+02</totfact>
</mgrwt>
</event>
<event>
 4    1  0.1086582E+000  0.2142389E+03  0.7546771E-02  0.1138253E+00
         21   -1    0    0  501  502  0.00000000000E+00  0.00000000000E+00  0.13069055268E+03  0.13069055268E+03  0.00000000000E+00 0.  1.
         21   -1    0    0  502  503 -0.00000000000E+00 -0.00000000000E+00 -0.37294746508E+03  0.37294746508E+03  0.00000000000E+00 0. -1.
          6    1    1    2  501    0  0.10081007171E+03 -0.78432406446E+02 -0.60317059086E+02  0.22256787854E+03  0.17200000000E+03 0.  1.
         -6    1    1    2    0  503 -0.10081007171E+03  0.78432406446E+02 -0.18193985331E+03  0.28107013922E+03  0.17200000000E+03 0. -1.
<mgrwt>
<rscale>  2 0.21423892E+03</rscale>
<asrwt>0</asrwt>
<pdfrwt beam="1">  1       21 0.32672638E-01 0.21423892E+03</pdfrwt>
<pdfrwt beam="2">  1       21 0.93236866E-01 0.21423892E+03</pdfrwt>
<totfact> 0.85938734E+03</totfact>
</mgrwt>
</event>
<event>
 4    1  0.1086582E+000  0.3016962E+03  0.7546771E-02  0.1084396E+00
         21   -1    0    0  501  502  0.00000000000E+00  0.00000000000E+00  0.68240554935E+03  0.68240554935E+03  0.00000000000E+00 0.  1.
         21   -1    0    0  502  503 -0.00000000000E+00 -0.00000000000E+00 -0.28861679329E+03  0.28861679329E+03  0.00000000000E+00 0.  1.
          6    1    1    2  501    0 -0.10592651866E+03 -0.22408967128E+03  0.55296240712E+03  0.62991113009E+03  0.17200000000E+03 0.  1.
         -6    1    1    2    0  503  0.10592651866E+03  0.22408967128E+03 -0.15917365107E+03  0.34111121254E+03  0.17200000000E+03 0.  1.
<mgrwt>
<rscale>  2 0.30169622E+03</rscale>
<asrwt>0</asrwt>
<pdfrwt beam="1">  1       21 0.17060138E+00 0.30169622E+03</pdfrwt>
<pdfrwt beam="2">  1       21 0.72154199E-01 0.30169622E+03</pdfrwt>
<totfact> 0.32935539E+02</totfact>
</mgrwt>
</event>
<event>
 4    1  0.1086582E+000  0.2619538E+03  0.7546771E-02  0.1105975E+00
         21   -1    0    0  503  502  0.00000000000E+00  0.00000000000E+00  0.90101975043E+03  0.90101975043E+03  0.00000000000E+00 0. -1.
         21   -1    0    0  501  503 -0.00000000000E+00 -0.00000000000E+00 -0.85037910829E+02  0.85037910829E+02  0.00000000000E+00 0.  1.
          6    1    1    2  501    0  0.19747602759E+03 -0.62451231052E+01  0.24867012121E+03  0.36118777972E+03  0.17200000000E+03 0. -1.
         -6    1    1    2    0  502 -0.19747602759E+03  0.62451231052E+01  0.56731171839E+03  0.62486988154E+03  0.17200000000E+03 0.  1.
<mgrwt>
<rscale>  2 0.26195378E+03</rscale>
<asrwt>0</asrwt>
<pdfrwt beam="1">  1       21 0.22525491E+00 0.26195378E+03</pdfrwt>
<pdfrwt beam="2">  1       21 0.21259480E-01 0.26195378E+03</pdfrwt>
<totfact> 0.18003836E+03</totfact>
</mgrwt>
</event>
<event>
 4    1  0.1086582E+000  0.2034745E+03  0.7546771E-02  0.1146840E+00
         21   -1    0    0  503  502  0.00000000000E+00  0.00000000000E+00  0.20118322943E+03  0.20118322943E+03  0.00000000000E+00 0. -1.
         21   -1    0    0  501  503 -0.00000000000E+00 -0.00000000000E+00 -0.48108841644E+03  0.48108841644E+03  0.00000000000E+00 0. -1.
          6    1    1    2  501    0 -0.59908018486E+02  0.90713350290E+02 -0.39800934225E+03  0.44700483120E+03  0.17200000000E+03 0. -1.
         -6    1    1    2    0  502  0.59908018486E+02 -0.90713350290E+02  0.11810415524E+03  0.23526681467E+03  0.17200000000E+03 0. -1.
<mgrwt>
<rscale>  2 0.20347453E+03</rscale>
<asrwt>0</asrwt>
<pdfrwt beam="1">  1       21 0.50295808E-01 0.20347453E+03</pdfrwt>
<pdfrwt beam="2">  1       21 0.12027210E+00 0.20347453E+03</pdfrwt>
<totfact> 0.19569423E+03</totfact>
</mgrwt>
</event>
<event>
 4    1  0.1086582E+000  0.2128370E+03  0.7546771E-02  0.1139339E+00
         21   -1    0    0  503  502  0.00000000000E+00  0.00000000000E+00  0.40285649297E+03  0.40285649297E+03  0.00000000000E+00 0.  1.
         21   -1    0    0  501  503 -0.00000000000E+00 -0.00000000000E+00 -0.11866797090E+03  0.11866797090E+03  0.00000000000E+00 0. -1.
          6    1    1    2  501    0 -0.11415028884E+03  0.51819804520E+02  0.82384723694E+02  0.22822537826E+03  0.17200000000E+03 0. -1.
         -6    1    1    2    0  502  0.11415028884E+03 -0.51819804520E+02  0.20180379838E+03  0.29329908561E+03  0.17200000000E+03 0.  1.
<mgrwt>
<rscale>  2 0.21283698E+03</rscale>
<asrwt>0</asrwt>
<pdfrwt beam="1">  1       21 0.10071412E+00 0.21283698E+03</pdfrwt>
<pdfrwt beam="2">  1       21 0.29666994E-01 0.21283698E+03</pdfrwt>
<totfact> 0.86654956E+03</totfact>
</mgrwt>
</event>
<event>
 4    1  0.1086582E+000  0.1861685E+03  0.7546771E-02  0.1161963E+00
         21   -1    0    0  503  502  0.00000000000E+00  0.00000000000E+00  0.87906803432E+03  0.87906803432E+03  0.00000000000E+00 0.  1.
         21   -1    0    0  501  503 -0.00000000000E+00 -0.00000000000E+00 -0.59942095960E+02  0.59942095960E+02  0.00000000000E+00 0.  1.
          6    1    1    2  501    0 -0.94012318783E+01  0.70614018074E+02  0.13489082354E+03  0.22990053716E+03  0.17200000000E+03 0.  1.
         -6    1    1    2    0  502  0.94012318783E+01 -0.70614018074E+02  0.68423511481E+03  0.70910959312E+03  0.17200000000E+03 0.  1.
<mgrwt>
<rscale>  2 0.18616853E+03</rscale>
<asrwt>0</asrwt>
<pdfrwt beam="1">  1       21 0.21976697E+00 0.18616853E+03</pdfrwt>
<pdfrwt beam="2">  1       21 0.14985527E-01 0.18616853E+03</pdfrwt>
<totfact> 0.39923217E+03</totfact>
</mgrwt>
</event>
<event>
 4    1  0.1086582E+000  0.1979617E+03  0.7546771E-02  0.1151470E+00
         21   -1    0    0  503  502  0.00000000000E+00  0.00000000000E+00  0.41341049197E+03  0.41341049197E+03  0.00000000000E+00 0.  1.
         21   -1    0    0  501  503 -0.00000000000E+00 -0.00000000000E+00 -0.19062848685E+03  0.19062848685E+03  0.00000000000E+00 0. -1.
          6    1    1    2  501    0 -0.45849667529E+02 -0.86617795954E+02 -0.10275105801E+03  0.22303949092E+03  0.17200000000E+03 0. -1.
         -6    1    1    2    0  502  0.45849667529E+02  0.86617795954E+02  0.32553306313E+03  0.38099948790E+03  0.17200000000E+03 0.  1.
<mgrwt>
<rscale>  2 0.19796170E+03</rscale>
<asrwt>0</asrwt>
<pdfrwt beam="1">  1       21 0.10335262E+00 0.19796170E+03</pdfrwt>
<pdfrwt beam="2">  1       21 0.47657122E-01 0.19796170E+03</pdfrwt>
<totfact> 0.31802986E+03</totfact>
</mgrwt>
</event>
<event>
 4    1  0.1086582E+000  0.2224298E+03  0.7546771E-02  0.1132084E+00
         21   -1    0    0  503  502  0.00000000000E+00  0.00000000000E+00  0.88719930487E+02  0.88719930487E+02  0.00000000000E+00 0.  1.
         21   -1    0    0  501  503 -0.00000000000E+00 -0.00000000000E+00 -0.11024829276E+04  0.11024829276E+04  0.00000000000E+00 0.  1.
          6    1    1    2  501    0 -0.13253376774E+03  0.48226869276E+02 -0.92557849463E+03  0.95192992401E+03  0.17200000000E+03 0.  1.
         -6    1    1    2    0  502  0.13253376774E+03 -0.48226869276E+02 -0.88184502511E+02  0.23927293410E+03  0.17200000000E+03 0.  1.
<mgrwt>
<rscale>  2 0.22242983E+03</rscale>
<asrwt>0</asrwt>
<pdfrwt beam="1">  1       21 0.22179983E-01 0.22242983E+03</pdfrwt>
<pdfrwt beam="2">  1       21 0.27562073E+00 0.22242983E+03</pdfrwt>
<totfact> 0.86422976E+02</totfact>
</mgrwt>
</event>
<event>
 4    1  0.1086582E+000  0.2397625E+03  0.7546771E-02  0.1119951E+00
         21   -1    0    0  501  502  0.00000000000E+00  0.00000000000E+00  0.30371416945E+03  0.30371416945E+03  0.00000000000E+00 0. -1.
         21   -1    0    0  502  503 -0.00000000000E+00 -0.00000000000E+00 -0.38352627359E+03  0.38352627359E+03  0.00000000000E+00 0.  1.
          6    1    1    2  501    0 -0.16673512964E+03  0.10071448762E+02  0.20464025559E+03  0.31522003703E+03  0.17200000000E+03 0. -1.
         -6    1    1    2    0  503  0.16673512964E+03 -0.10071448762E+02 -0.28445235973E+03  0.37202040602E+03  0.17200000000E+03 0.  1.
<mgrwt>
<rscale>  2 0.23976246E+03</rscale>
<asrwt>0</asrwt>
<pdfrwt beam="1">  1       21 0.75928543E-01 0.23976246E+03</pdfrwt>
<pdfrwt beam="2">  1       21 0.95881568E-01 0.23976246E+03</pdfrwt>
<totfact> 0.13450657E+03</totfact>
</mgrwt>
</event>
<event>
 4    1  0.1086582E+000  0.1837536E+03  0.7546771E-02  0.1164219E+00
         21   -1    0    0  501  502  0.00000000000E+00  0.00000000000E+00  0.41430397961E+03  0.41430397961E+03  0.00000000000E+00 0.  1.
         21   -1    0    0  502  503 -0.00000000000E+00 -0.00000000000E+00 -0.11385700424E+03  0.11385700424E+03  0.00000000000E+00 0.  1.
          6    1    1    2  501    0 -0.22238320207E+02 -0.60719292147E+02  0.29100546482E+03  0.34416501257E+03  0.17200000000E+03 0.  1.
         -6    1    1    2    0  503  0.22238320207E+02  0.60719292147E+02  0.94415105444E+01  0.18399597128E+03  0.17200000000E+03 0.  1.
<mgrwt>
<rscale>  2 0.18375357E+03</rscale>
<asrwt>0</asrwt>
<pdfrwt beam="1">  1       21 0.10357599E+00 0.18375357E+03</pdfrwt>
<pdfrwt beam="2">  1       21 0.28464252E-01 0.18375357E+03</pdfrwt>
<totfact> 0.89671895E+03</totfact>
</mgrwt>
</event>
<event>
 4    1  0.1086582E+000  0.1885119E+03  0.7546771E-02  0.1159810E+00
         21   -1    0    0  501  502  0.00000000000E+00  0.00000000000E+00  0.61398745988E+03  0.61398745988E+03  0.00000000000E+00 0.  1.
         21   -1    0    0  502  503 -0.00000000000E+00 -0.00000000000E+00 -0.10717924911E+03  0.10717924911E+03  0.00000000000E+00 0.  1.
          6    1    1    2  501    0  0.68423429920E+02  0.35650535993E+02  0.49795918985E+03  0.53244725676E+03  0.17200000000E+03 0.  1.
         -6    1    1    2    0  503 -0.68423429920E+02 -0.35650535993E+02  0.88490209224E+01  0.18871945223E+03  0.17200000000E+03 0.  1.
<mgrwt>
<rscale>  2 0.18851187E+03</rscale>
<asrwt>0</asrwt>
<pdfrwt beam="1">  1       21 0.15349686E+00 0.18851187E+03</pdfrwt>
<pdfrwt beam="2">  1       21 0.26794814E-01 0.18851187E+03</pdfrwt>
<totfact> 0.37439656E+03</totfact>
</mgrwt>
</event>
<event>
 4    1  0.1086582E+000  0.1863162E+03  0.7546771E-02  0.1161826E+00
         21   -1    0    0  503  502  0.00000000000E+00  0.00000000000E+00  0.70286798213E+02  0.70286798213E+02  0.00000000000E+00 0.  1.
         21   -1    0    0  501  503 -0.00000000000E+00 -0.00000000000E+00 -0.91440125398E+03  0.91440125398E+03  0.00000000000E+00 0.  1.
          6    1    1    2  501    0  0.32634319907E+02  0.63755218430E+02 -0.75593745061E+03  0.77855966756E+03  0.17200000000E+03 0.  1.
         -6    1    1    2    0  502 -0.32634319907E+02 -0.63755218430E+02 -0.88177005152E+02  0.20612838463E+03  0.17200000000E+03 0.  1.
<mgrwt>
<rscale>  2 0.18631620E+03</rscale>
<asrwt>0</asrwt>
<pdfrwt beam="1">  1       21 0.17571699E-01 0.18631620E+03</pdfrwt>
<pdfrwt beam="2">  1       21 0.22860032E+00 0.18631620E+03</pdfrwt>
<totfact> 0.26355506E+03</totfact>
</mgrwt>
</event>
<event>
 4    1  0.1086582E+000  0.1813288E+03  0.7546771E-02  0.1166523E+00
         21   -1    0    0  501  502  0.00000000000E+00  0.00000000000E+00  0.24589166991E+03  0.24589166991E+03  0.00000000000E+00 0.  1.
         21   -1    0    0  502  503 -0.00000000000E+00 -0.00000000000E+00 -0.14873044831E+03  0.14873044831E+03  0.00000000000E+00 0.  1.
          6    1    1    2  501    0  0.20937883484E+02  0.53457810191E+02  0.11126766012E+03  0.21274544560E+03  0.17200000000E+03 0. -1.
         -6    1    1    2    0  503 -0.20937883484E+02 -0.53457810191E+02 -0.14106438523E+02  0.18187667262E+03  0.17200000000E+03 0. -1.
<mgrwt>
<rscale>  2 0.18132880E+03</rscale>
<asrwt>0</asrwt>
<pdfrwt beam="1">  1       21 0.61472917E-01 0.18132880E+03</pdfrwt>
<pdfrwt beam="2">  1       21 0.37182612E-01 0.18132880E+03</pdfrwt>
<totfact> 0.17277068E+04</totfact>
</mgrwt>
</event>
<event>
 4    1  0.1086582E+000  0.2050725E+03  0.7546771E-02  0.1145529E+00
         21   -1    0    0  501  502  0.00000000000E+00  0.00000000000E+00  0.14139558186E+03  0.14139558186E+03  0.00000000000E+00 0.  1.
         21   -1    0    0  502  503 -0.00000000000E+00 -0.00000000000E+00 -0.29742687734E+03  0.29742687734E+03  0.00000000000E+00 0. -1.
          6    1    1    2  501    0 -0.97387949778E+02  0.54647163655E+02 -0.78388011483E+02  0.21954363029E+03  0.17200000000E+03 0. -1.
         -6    1    1    2    0  503  0.97387949778E+02 -0.54647163655E+02 -0.77643284001E+02  0.21927882891E+03  0.17200000000E+03 0.  1.
<mgrwt>
<rscale>  2 0.20507249E+03</rscale>
<asrwt>0</asrwt>
<pdfrwt beam="1">  1       21 0.35348896E-01 0.20507249E+03</pdfrwt>
<pdfrwt beam="2">  1       21 0.74356718E-01 0.20507249E+03</pdfrwt>
<totfact> 0.12403082E+04</totfact>
</mgrwt>
</event>
<event>
 4    1  0.1086582E+000  0.2070022E+03  0.7546771E-02  0.1143962E+00
         21   -1    0    0  503  502  0.00000000000E+00  0.00000000000E+00  0.55080045378E+03  0.55080045378E+03  0.00000000000E+00 0.  1.
         21   -1    0    0  501  503 -0.00000000000E+00 -0.00000000000E+00 -0.99525811310E+02  0.99525811310E+02  0.00000000000E+00 0.  1.
          6    1    1    2  501    0 -0.85324224292E+02  0.77367244204E+02  0.73700062534E+02  0.21973077378E+03  0.17200000000E+03 0.  1.
         -6    1    1    2    0  502  0.85324224292E+02 -0.77367244204E+02  0.37757457993E+03  0.43059549131E+03  0.17200000000E+03 0.  1.
<mgrwt>
<rscale>  2 0.20700221E+03</rscale>
<asrwt>0</asrwt>
<pdfrwt beam="1">  1       21 0.13770011E+00 0.20700221E+03</pdfrwt>
<pdfrwt beam="2">  1       21 0.24881454E-01 0.20700221E+03</pdfrwt>
<totfact> 0.56426864E+03</totfact>
</mgrwt>
</event>
<event>
 4    1  0.1086582E+000  0.2111258E+03  0.7546771E-02  0.1140678E+00
         21   -1    0    0  501  502  0.00000000000E+00  0.00000000000E+00  0.14318969449E+03  0.14318969449E+03  0.00000000000E+00 0. -1.
         21   -1    0    0  502  503 -0.00000000000E+00 -0.00000000000E+00 -0.45268041255E+03  0.45268041255E+03  0.00000000000E+00 0. -1.
          6    1    1    2  501    0 -0.82326037450E+02  0.90623048573E+02 -0.32125115973E+03  0.38441698845E+03  0.17200000000E+03 0. -1.
         -6    1    1    2    0  503  0.82326037450E+02 -0.90623048573E+02  0.11760441673E+02  0.21145311859E+03  0.17200000000E+03 0. -1.
<mgrwt>
<rscale>  2 0.21112582E+03</rscale>
<asrwt>0</asrwt>
<pdfrwt beam="1">  1       21 0.35797424E-01 0.21112582E+03</pdfrwt>
<pdfrwt beam="2">  1       21 0.11317010E+00 0.21112582E+03</pdfrwt>
<totfact> 0.45199241E+03</totfact>
</mgrwt>
</event>
<event>
 4    1  0.1086582E+000  0.1778357E+03  0.7546771E-02  0.1169914E+00
         21   -1    0    0  503  502  0.00000000000E+00  0.00000000000E+00  0.54154770196E+03  0.54154770196E+03  0.00000000000E+00 0.  1.
         21   -1    0    0  501  503 -0.00000000000E+00 -0.00000000000E+00 -0.67133752884E+02  0.67133752884E+02  0.00000000000E+00 0.  1.
          6    1    1    2  501    0  0.32716263503E+01 -0.45064783277E+02  0.12742552260E+03  0.21877568887E+03  0.17200000000E+03 0.  1.
         -6    1    1    2    0  502 -0.32716263503E+01  0.45064783277E+02  0.34698842647E+03  0.38990576597E+03  0.17200000000E+03 0.  1.
<mgrwt>
<rscale>  2 0.17783571E+03</rscale>
<asrwt>0</asrwt>
<pdfrwt beam="1">  1       21 0.13538691E+00 0.17783571E+03</pdfrwt>
<pdfrwt beam="2">  1       21 0.16783440E-01 0.17783571E+03</pdfrwt>
<totfact> 0.12590296E+04</totfact>
</mgrwt>
</event>
<event>
 4    1  0.1086582E+000  0.1838986E+03  0.7546771E-02  0.1164082E+00
         21   -1    0    0  503  502  0.00000000000E+00  0.00000000000E+00  0.25506980018E+03  0.25506980018E+03  0.00000000000E+00 0.  1.
         21   -1    0    0  501  503 -0.00000000000E+00 -0.00000000000E+00 -0.13323720509E+03  0.13323720509E+03  0.00000000000E+00 0.  1.
          6    1    1    2  501    0 -0.42500941025E+02 -0.49278547444E+02  0.74488936742E+02  0.19841196265E+03  0.17200000000E+03 0. -1.
         -6    1    1    2    0  502  0.42500941025E+02  0.49278547444E+02  0.47343658354E+02  0.18989504262E+03  0.17200000000E+03 0. -1.
<mgrwt>
<rscale>  2 0.18389863E+03</rscale>
<asrwt>0</asrwt>
<pdfrwt beam="1">  1       21 0.63767449E-01 0.18389863E+03</pdfrwt>
<pdfrwt beam="2">  1       21 0.33309302E-01 0.18389863E+03</pdfrwt>
<totfact> 0.19823493E+04</totfact>
</mgrwt>
</event>
<event>
 4    1  0.1086582E+000  0.1741030E+03  0.7546771E-02  0.1173635E+00
         21   -1    0    0  503  502  0.00000000000E+00  0.00000000000E+00  0.62306014531E+03  0.62306014531E+03  0.00000000000E+00 0. -1.
         21   -1    0    0  501  503 -0.00000000000E+00 -0.00000000000E+00 -0.78748849133E+02  0.78748849133E+02  0.00000000000E+00 0. -1.
          6    1    1    2  501    0  0.50261156597E+01  0.26506607803E+02  0.55214500449E+02  0.18264857830E+03  0.17200000000E+03 0. -1.
         -6    1    1    2    0  502 -0.50261156597E+01 -0.26506607803E+02  0.48909679573E+03  0.51916041614E+03  0.17200000000E+03 0. -1.
<mgrwt>
<rscale>  2 0.17410302E+03</rscale>
<asrwt>0</asrwt>
<pdfrwt beam="1">  1       21 0.15576502E+00 0.17410302E+03</pdfrwt>
<pdfrwt beam="2">  1       21 0.19687214E-01 0.17410302E+03</pdfrwt>
<totfact> 0.65318524E+03</totfact>
</mgrwt>
</event>
<event>
 4    1  0.1086582E+000  0.3048142E+03  0.7546771E-02  0.1082858E+00
         21   -1    0    0  503  502  0.00000000000E+00  0.00000000000E+00  0.15987229785E+03  0.15987229785E+03  0.00000000000E+00 0. -1.
         21   -1    0    0  501  503 -0.00000000000E+00 -0.00000000000E+00 -0.93040978112E+03  0.93040978112E+03  0.00000000000E+00 0. -1.
          6    1    1    2  501    0 -0.22387601499E+03 -0.11492271363E+03 -0.71926268261E+03  0.78118532167E+03  0.17200000000E+03 0. -1.
         -6    1    1    2    0  502  0.22387601499E+03  0.11492271363E+03 -0.51274800662E+02  0.30909675731E+03  0.17200000000E+03 0. -1.
<mgrwt>
<rscale>  2 0.30481421E+03</rscale>
<asrwt>0</asrwt>
<pdfrwt beam="1">  1       21 0.39968075E-01 0.30481421E+03</pdfrwt>
<pdfrwt beam="2">  1       21 0.23260244E+00 0.30481421E+03</pdfrwt>
<totfact> 0.45401924E+02</totfact>
</mgrwt>
</event>
<event>
 4    1  0.1086582E+000  0.1907964E+03  0.7546771E-02  0.1157745E+00
         21   -1    0    0  501  502  0.00000000000E+00  0.00000000000E+00  0.74735697152E+02  0.74735697152E+02  0.00000000000E+00 0. -1.
         21   -1    0    0  502  503 -0.00000000000E+00 -0.00000000000E+00 -0.59164720402E+03  0.59164720402E+03  0.00000000000E+00 0. -1.
          6    1    1    2  501    0 -0.22494941323E+02  0.79455832462E+02 -0.11838975379E+03  0.22454261400E+03  0.17200000000E+03 0. -1.
         -6    1    1    2    0  503  0.22494941323E+02 -0.79455832462E+02 -0.39852175307E+03  0.44184028717E+03  0.17200000000E+03 0. -1.
<mgrwt>
<rscale>  2 0.19079636E+03</rscale>
<asrwt>0</asrwt>
<pdfrwt beam="1">  1       21 0.18683924E-01 0.19079636E+03</pdfrwt>
<pdfrwt beam="2">  1       21 0.14791180E+00 0.19079636E+03</pdfrwt>
<totfact> 0.81376834E+03</totfact>
</mgrwt>
</event>
<event>
 4    1  0.1086582E+000  0.1800584E+03  0.7546771E-02  0.1167747E+00
         21   -1    0    0  503  502  0.00000000000E+00  0.00000000000E+00  0.63865082966E+03  0.63865082966E+03  0.00000000000E+00 0.  1.
         21   -1    0    0  501  503 -0.00000000000E+00 -0.00000000000E+00 -0.11482037648E+03  0.11482037648E+03  0.00000000000E+00 0. -1.
          6    1    1    2  501    0  0.14824646494E+01 -0.53242983188E+02 -0.19472718078E+02  0.18110825412E+03  0.17200000000E+03 0. -1.
         -6    1    1    2    0  502 -0.14824646494E+01  0.53242983188E+02  0.54330317125E+03  0.57236295202E+03  0.17200000000E+03 0.  1.
<mgrwt>
<rscale>  2 0.18005836E+03</rscale>
<asrwt>0</asrwt>
<pdfrwt beam="1">  1       21 0.15966270E+00 0.18005836E+03</pdfrwt>
<pdfrwt beam="2">  1       21 0.28705096E-01 0.18005836E+03</pdfrwt>
<totfact> 0.29741764E+03</totfact>
</mgrwt>
</event>
<event>
 4    1  0.1086582E+000  0.2430517E+03  0.7546771E-02  0.1117776E+00
         21   -1    0    0  503  502  0.00000000000E+00  0.00000000000E+00  0.95672860497E+02  0.95672860497E+02  0.00000000000E+00 0.  1.
         21   -1    0    0  501  503 -0.00000000000E+00 -0.00000000000E+00 -0.69173053440E+03  0.69173053440E+03  0.00000000000E+00 0. -1.
          6    1    1    2  501    0 -0.16955384268E+03 -0.27232622882E+02 -0.42703439037E+03  0.49135780433E+03  0.17200000000E+03 0. -1.
         -6    1    1    2    0  502  0.16955384268E+03  0.27232622882E+02 -0.16902328353E+03  0.29604559057E+03  0.17200000000E+03 0. -1.
<mgrwt>
<rscale>  2 0.24305168E+03</rscale>
<asrwt>0</asrwt>
<pdfrwt beam="1">  1       21 0.23918215E-01 0.24305168E+03</pdfrwt>
<pdfrwt beam="2">  1       21 0.17293263E+00 0.24305168E+03</pdfrwt>
<totfact> 0.32137533E+03</totfact>
</mgrwt>
</event>
<event>
 4    1  0.1086582E+000  0.2220155E+03  0.7546771E-02  0.1132389E+00
         21   -1    0    0  503  502  0.00000000000E+00  0.00000000000E+00  0.11629700717E+03  0.11629700717E+03  0.00000000000E+00 0.  1.
         21   -1    0    0  501  503 -0.00000000000E+00 -0.00000000000E+00 -0.44974157709E+03  0.44974157709E+03  0.00000000000E+00 0.  1.
          6    1    1    2  501    0  0.62913302049E+02 -0.12549424507E+03 -0.23464717402E+03  0.32303279306E+03  0.17200000000E+03 0.  1.
         -6    1    1    2    0  502 -0.62913302049E+02  0.12549424507E+03 -0.98797395900E+02  0.24300579120E+03  0.17200000000E+03 0.  1.
<mgrwt>
<rscale>  2 0.22201552E+03</rscale>
<asrwt>0</asrwt>
<pdfrwt beam="1">  1       21 0.29074252E-01 0.22201552E+03</pdfrwt>
<pdfrwt beam="2">  1       21 0.11243539E+00 0.22201552E+03</pdfrwt>
<totfact> 0.68655195E+03</totfact>
</mgrwt>
</event>
<event>
 4    1  0.1086582E+000  0.2123838E+03  0.7546771E-02  0.1139692E+00
         21   -1    0    0  501  502  0.00000000000E+00  0.00000000000E+00  0.41338997946E+02  0.41338997946E+02  0.00000000000E+00 0. -1.
         21   -1    0    0  502  503 -0.00000000000E+00 -0.00000000000E+00 -0.11813808618E+04  0.11813808618E+04  0.00000000000E+00 0. -1.
          6    1    1    2  501    0  0.85350332916E+02 -0.90764475587E+02 -0.73898327921E+03  0.76889736396E+03  0.17200000000E+03 0. -1.
         -6    1    1    2    0  503 -0.85350332916E+02  0.90764475587E+02 -0.40105858461E+03  0.45382249575E+03  0.17200000000E+03 0. -1.
<mgrwt>
<rscale>  2 0.21238378E+03</rscale>
<asrwt>0</asrwt>
<pdfrwt beam="1">  1       21 0.10334749E-01 0.21238378E+03</pdfrwt>
<pdfrwt beam="2">  1       21 0.29534523E+00 0.21238378E+03</pdfrwt>
<totfact> 0.27160667E+03</totfact>
</mgrwt>
</event>
<event>
 4    1  0.1086582E+000  0.1850878E+03  0.7546771E-02  0.1162968E+00
         21   -1    0    0  503  502  0.00000000000E+00  0.00000000000E+00  0.17544159893E+03  0.17544159893E+03  0.00000000000E+00 0.  1.
         21   -1    0    0  501  503 -0.00000000000E+00 -0.00000000000E+00 -0.49737002412E+03  0.49737002412E+03  0.00000000000E+00 0.  1.
          6    1    1    2  501    0 -0.12295649901E+02  0.67248151316E+02 -0.42314634911E+03  0.46185531244E+03  0.17200000000E+03 0.  1.
         -6    1    1    2    0  502  0.12295649901E+02 -0.67248151316E+02  0.10121792393E+03  0.21095631061E+03  0.17200000000E+03 0.  1.
<mgrwt>
<rscale>  2 0.18508781E+03</rscale>
<asrwt>0</asrwt>
<pdfrwt beam="1">  1       21 0.43860400E-01 0.18508781E+03</pdfrwt>
<pdfrwt beam="2">  1       21 0.12434251E+00 0.18508781E+03</pdfrwt>
<totfact> 0.24309377E+03</totfact>
</mgrwt>
</event>
<event>
 4    1  0.1086582E+000  0.2378405E+03  0.7546771E-02  0.1121240E+00
         21   -1    0    0  503  502  0.00000000000E+00  0.00000000000E+00  0.14852510867E+03  0.14852510867E+03  0.00000000000E+00 0.  1.
         21   -1    0    0  501  503 -0.00000000000E+00 -0.00000000000E+00 -0.42864860321E+03  0.42864860321E+03  0.00000000000E+00 0. -1.
          6    1    1    2  501    0  0.12256881230E+03 -0.10936621815E+03 -0.43709197860E+02  0.24182344262E+03  0.17200000000E+03 0.  1.
         -6    1    1    2    0  502 -0.12256881230E+03  0.10936621815E+03 -0.23641429668E+03  0.33535026926E+03  0.17200000000E+03 0. -1.
<mgrwt>
<rscale>  2 0.23784046E+03</rscale>
<asrwt>0</asrwt>
<pdfrwt beam="1">  1       21 0.37131277E-01 0.23784046E+03</pdfrwt>
<pdfrwt beam="2">  1       21 0.10716215E+00 0.23784046E+03</pdfrwt>
<totfact> 0.47049689E+03</totfact>
</mgrwt>
</event>
<event>
 4    1  0.1086582E+000  0.2076427E+03  0.7546771E-02  0.1143446E+00
         21   -1    0    0  503  502  0.00000000000E+00  0.00000000000E+00  0.26764831087E+03  0.26764831087E+03  0.00000000000E+00 0. -1.
         21   -1    0    0  501  503 -0.00000000000E+00 -0.00000000000E+00 -0.37495692364E+03  0.37495692364E+03  0.00000000000E+00 0. -1.
          6    1    1    2  501    0  0.76207409514E+02  0.87885754619E+02 -0.29631271920E+03  0.36182413226E+03  0.17200000000E+03 0. -1.
         -6    1    1    2    0  502 -0.76207409514E+02 -0.87885754619E+02  0.18900410643E+03  0.28078110224E+03  0.17200000000E+03 0. -1.
<mgrwt>
<rscale>  2 0.20764266E+03</rscale>
<asrwt>0</asrwt>
<pdfrwt beam="1">  1       21 0.66912078E-01 0.20764266E+03</pdfrwt>
<pdfrwt beam="2">  1       21 0.93739231E-01 0.20764266E+03</pdfrwt>
<totfact> 0.19291432E+03</totfact>
</mgrwt>
</event>
<event>
 4    1  0.1086582E+000  0.2895149E+03  0.7546771E-02  0.1090603E+00
         21   -1    0    0  501  502  0.00000000000E+00  0.00000000000E+00  0.69517859367E+03  0.69517859367E+03  0.00000000000E+00 0.  1.
         21   -1    0    0  502  503 -0.00000000000E+00 -0.00000000000E+00 -0.13655162777E+03  0.13655162777E+03  0.00000000000E+00 0.  1.
          6    1    1    2  501    0 -0.11983786190E+03 -0.19968410538E+03  0.42157637802E+03  0.51141519100E+03  0.17200000000E+03 0.  1.
         -6    1    1    2    0  503  0.11983786190E+03  0.19968410538E+03  0.13705058789E+03  0.32031503044E+03  0.17200000000E+03 0.  1.
<mgrwt>
<rscale>  2 0.28951486E+03</rscale>
<asrwt>0</asrwt>
<pdfrwt beam="1">  1       21 0.17379464E+00 0.28951486E+03</pdfrwt>
<pdfrwt beam="2">  1       21 0.34137909E-01 0.28951486E+03</pdfrwt>
<totfact> 0.15298402E+03</totfact>
</mgrwt>
</event>
<event>
 4    1  0.1086582E+000  0.1771233E+03  0.7546771E-02  0.1170617E+00
         21   -1    0    0  501  502  0.00000000000E+00  0.00000000000E+00  0.55090040909E+02  0.55090040909E+02  0.00000000000E+00 0.  1.
         21   -1    0    0  502  503 -0.00000000000E+00 -0.00000000000E+00 -0.58718574185E+03  0.58718574185E+03  0.00000000000E+00 0. -1.
          6    1    1    2  501    0  0.26416785642E+02 -0.33027369087E+02 -0.32181339483E+03  0.36733705879E+03  0.17200000000E+03 0. -1.
         -6    1    1    2    0  503 -0.26416785642E+02  0.33027369087E+02 -0.21028230612E+03  0.27493872397E+03  0.17200000000E+03 0.  1.
<mgrwt>
<rscale>  2 0.17712327E+03</rscale>
<asrwt>0</asrwt>
<pdfrwt beam="1">  1       21 0.13772510E-01 0.17712327E+03</pdfrwt>
<pdfrwt beam="2">  1       21 0.14679643E+00 0.17712327E+03</pdfrwt>
<totfact> 0.14650823E+04</totfact>
</mgrwt>
</event>
<event>
 4    1  0.1086582E+000  0.2331605E+03  0.7546771E-02  0.1124435E+00
         21   -1    0    0  501  502  0.00000000000E+00  0.00000000000E+00  0.86484743253E+03  0.86484743253E+03  0.00000000000E+00 0.  1.
         21   -1    0    0  502  503 -0.00000000000E+00 -0.00000000000E+00 -0.85894549254E+02  0.85894549254E+02  0.00000000000E+00 0.  1.
          6    1    1    2  501    0 -0.12743731874E+03  0.92409553616E+02  0.63565222744E+03  0.67706539570E+03  0.17200000000E+03 0.  1.
         -6    1    1    2    0  503  0.12743731874E+03 -0.92409553616E+02  0.14330065584E+03  0.27367658608E+03  0.17200000000E+03 0.  1.
<mgrwt>
<rscale>  2 0.23316045E+03</rscale>
<asrwt>0</asrwt>
<pdfrwt beam="1">  1       21 0.21621183E+00 0.23316045E+03</pdfrwt>
<pdfrwt beam="2">  1       21 0.21473640E-01 0.23316045E+03</pdfrwt>
<totfact> 0.20601370E+03</totfact>
</mgrwt>
</event>
<event>
 4    1  0.1086582E+000  0.1725728E+03  0.7546771E-02  0.1175191E+00
         21   -1    0    0  501  502  0.00000000000E+00  0.00000000000E+00  0.42460956693E+02  0.42460956693E+02  0.00000000000E+00 0.  1.
         21   -1    0    0  502  503 -0.00000000000E+00 -0.00000000000E+00 -0.13172704138E+04  0.13172704138E+04  0.00000000000E+00 0.  1.
          6    1    1    2  501    0  0.33913565572E+00 -0.14045025315E+02 -0.17252945647E+03  0.24402416089E+03  0.17200000000E+03 0.  1.
         -6    1    1    2    0  503 -0.33913565572E+00  0.14045025315E+02 -0.11022800006E+04  0.11157072096E+04  0.17200000000E+03 0.  1.
<mgrwt>
<rscale>  2 0.17257282E+03</rscale>
<asrwt>0</asrwt>
<pdfrwt beam="1">  1       21 0.10615239E-01 0.17257282E+03</pdfrwt>
<pdfrwt beam="2">  1       21 0.32931760E+00 0.17257282E+03</pdfrwt>
<totfact> 0.17363474E+03</totfact>
</mgrwt>
</event>
<event>
 4    1  0.1086582E+000  0.2027879E+03  0.7546771E-02  0.1147408E+00
         21   -1    0    0  503  502  0.00000000000E+00  0.00000000000E+00  0.23762963157E+03  0.23762963157E+03  0.00000000000E+00 0.  1.
         21   -1    0    0  501  503 -0.00000000000E+00 -0.00000000000E+00 -0.24113062651E+03  0.24113062651E+03  0.00000000000E+00 0.  1.
          6    1    1    2  501    0  0.89959542156E+02 -0.58704588828E+02 -0.12894208154E+03  0.24031023359E+03  0.17200000000E+03 0.  1.
         -6    1    1    2    0  502 -0.89959542156E+02  0.58704588828E+02  0.12544108659E+03  0.23845002449E+03  0.17200000000E+03 0.  1.
<mgrwt>
<rscale>  2 0.20278794E+03</rscale>
<asrwt>0</asrwt>
<pdfrwt beam="1">  1       21 0.59407408E-01 0.20278794E+03</pdfrwt>
<pdfrwt beam="2">  1       21 0.60282657E-01 0.20278794E+03</pdfrwt>
<totfact> 0.67392774E+03</totfact>
</mgrwt>
</event>
<event>
 4    1  0.1086582E+000  0.2971147E+03  0.7546771E-02  0.1086692E+00
         21   -1    0    0  503  502  0.00000000000E+00  0.00000000000E+00  0.64883908566E+03  0.64883908566E+03  0.00000000000E+00 0. -1.
         21   -1    0    0  501  503 -0.00000000000E+00 -0.00000000000E+00 -0.21293523463E+03  0.21293523463E+03  0.00000000000E+00 0.  1.
          6    1    1    2  501    0 -0.42080752222E+02  0.23858408783E+03 -0.40958742911E+02  0.29992461602E+03  0.17200000000E+03 0.  1.
         -6    1    1    2    0  502  0.42080752222E+02 -0.23858408783E+03  0.47686259394E+03  0.56184970426E+03  0.17200000000E+03 0. -1.
<mgrwt>
<rscale>  2 0.29711472E+03</rscale>
<asrwt>0</asrwt>
<pdfrwt beam="1">  1       21 0.16220977E+00 0.29711472E+03</pdfrwt>
<pdfrwt beam="2">  1       21 0.53233810E-01 0.29711472E+03</pdfrwt>
<totfact> 0.73866057E+02</totfact>
</mgrwt>
</event>
<event>
 4    1  0.1086582E+000  0.1735321E+03  0.7546771E-02  0.1174214E+00
         21   -1    0    0  503  502  0.00000000000E+00  0.00000000000E+00  0.12833424079E+04  0.12833424079E+04  0.00000000000E+00 0.  1.
         21   -1    0    0  501  503 -0.00000000000E+00 -0.00000000000E+00 -0.75112689519E+02  0.75112689519E+02  0.00000000000E+00 0.  1.
          6    1    1    2  501    0  0.19525595072E+02 -0.12171526184E+02  0.40886059548E+02  0.17828366380E+03  0.17200000000E+03 0.  1.
         -6    1    1    2    0  502 -0.19525595072E+02  0.12171526184E+02  0.11673436588E+04  0.11801714336E+04  0.17200000000E+03 0.  1.
<mgrwt>
<rscale>  2 0.17353211E+03</rscale>
<asrwt>0</asrwt>
<pdfrwt beam="1">  1       21 0.32083553E+00 0.17353211E+03</pdfrwt>
<pdfrwt beam="2">  1       21 0.18778177E-01 0.17353211E+03</pdfrwt>
<totfact> 0.69180913E+02</totfact>
</mgrwt>
</event>
<event>
 4    1  0.1086582E+000  0.1973248E+03  0.7546771E-02  0.1152016E+00
         21   -1    0    0  503  502  0.00000000000E+00  0.00000000000E+00  0.18826967222E+03  0.18826967222E+03  0.00000000000E+00 0.  1.
         21   -1    0    0  501  503 -0.00000000000E+00 -0.00000000000E+00 -0.21796404685E+03  0.21796404685E+03  0.00000000000E+00 0. -1.
          6    1    1    2  501    0 -0.83608734225E+02 -0.48606979607E+02 -0.60784492772E+02  0.20647472840E+03  0.17200000000E+03 0. -1.
         -6    1    1    2    0  502  0.83608734225E+02  0.48606979607E+02  0.31090118143E+02  0.19975899066E+03  0.17200000000E+03 0.  1.
<mgrwt>
<rscale>  2 0.19732475E+03</rscale>
<asrwt>0</asrwt>
<pdfrwt beam="1">  1       21 0.47067418E-01 0.19732475E+03</pdfrwt>
<pdfrwt beam="2">  1       21 0.54491011E-01 0.19732475E+03</pdfrwt>
<totfact> 0.13700212E+04</totfact>
</mgrwt>
</event>
<event>
 4    1  0.1086582E+000  0.2160049E+03  0.7546771E-02  0.1136897E+00
         21   -1    0    0  501  502  0.00000000000E+00  0.00000000000E+00  0.25896850643E+03  0.25896850643E+03  0.00000000000E+00 0.  1.
         21   -1    0    0  502  503 -0.00000000000E+00 -0.00000000000E+00 -0.19847051735E+03  0.19847051735E+03  0.00000000000E+00 0. -1.
          6    1    1    2  501    0  0.13064375953E+03 -0.25177623785E+01  0.99702983995E+02  0.23790505680E+03  0.17200000000E+03 0.  1.
         -6    1    1    2    0  503 -0.13064375953E+03  0.25177623785E+01 -0.39204994915E+02  0.21953396698E+03  0.17200000000E+03 0. -1.
<mgrwt>
<rscale>  2 0.21600493E+03</rscale>
<asrwt>0</asrwt>
<pdfrwt beam="1">  1       21 0.64742126E-01 0.21600493E+03</pdfrwt>
<pdfrwt beam="2">  1       21 0.49617629E-01 0.21600493E+03</pdfrwt>
<totfact> 0.83751083E+03</totfact>
</mgrwt>
</event>
<event>
 4    1  0.1086582E+000  0.2886637E+03  0.7546771E-02  0.1091049E+00
         21   -1    0    0  503  502  0.00000000000E+00  0.00000000000E+00  0.17538648316E+03  0.17538648316E+03  0.00000000000E+00 0.  1.
         21   -1    0    0  501  503 -0.00000000000E+00 -0.00000000000E+00 -0.49345337577E+03  0.49345337577E+03  0.00000000000E+00 0.  1.
          6    1    1    2  501    0 -0.16789986907E+03  0.15985102537E+03 -0.22352260467E+03  0.36508775814E+03  0.17200000000E+03 0.  1.
         -6    1    1    2    0  502  0.16789986907E+03 -0.15985102537E+03 -0.94544287946E+02  0.30375210078E+03  0.17200000000E+03 0.  1.
<mgrwt>
<rscale>  2 0.28866367E+03</rscale>
<asrwt>0</asrwt>
<pdfrwt beam="1">  1       21 0.43846621E-01 0.28866367E+03</pdfrwt>
<pdfrwt beam="2">  1       21 0.12336334E+00 0.28866367E+03</pdfrwt>
<totfact> 0.22923270E+03</totfact>
</mgrwt>
</event>
<event>
 4    1  0.1086582E+000  0.2507447E+03  0.7546771E-02  0.1112835E+00
         21   -1    0    0  501  502  0.00000000000E+00  0.00000000000E+00  0.99262119169E+03  0.99262119169E+03  0.00000000000E+00 0. -1.
         21   -1    0    0  502  503 -0.00000000000E+00 -0.00000000000E+00 -0.63477133267E+02  0.63477133267E+02  0.00000000000E+00 0. -1.
          6    1    1    2  501    0 -0.62051464068E+02 -0.17157653197E+03  0.44005232716E+03  0.50647698976E+03  0.17200000000E+03 0. -1.
         -6    1    1    2    0  503  0.62051464068E+02  0.17157653197E+03  0.48909173126E+03  0.54962133519E+03  0.17200000000E+03 0. -1.
<mgrwt>
<rscale>  2 0.25074467E+03</rscale>
<asrwt>0</asrwt>
<pdfrwt beam="1">  1       21 0.24815525E+00 0.25074467E+03</pdfrwt>
<pdfrwt beam="2">  1       21 0.15869286E-01 0.25074467E+03</pdfrwt>
<totfact> 0.22772804E+03</totfact>
</mgrwt>
</event>
<event>
 4    1  0.1086582E+000  0.2038971E+03  0.7546771E-02  0.1146492E+00
         21   -1    0    0  501  502  0.00000000000E+00  0.00000000000E+00  0.24514793168E+03  0.24514793168E+03  0.00000000000E+00 0. -1.
         21   -1    0    0  502  503 -0.00000000000E+00 -0.00000000000E+00 -0.17141917860E+03  0.17141917860E+03  0.00000000000E+00 0.  1.
          6    1    1    2  501    0  0.60166378001E+02 -0.91487790781E+02  0.58395050832E+02  0.21209429711E+03  0.17200000000E+03 0. -1.
         -6    1    1    2    0  503 -0.60166378001E+02  0.91487790781E+02  0.15333702249E+02  0.20447281318E+03  0.17200000000E+03 0. -1.
<mgrwt>
<rscale>  2 0.20389705E+03</rscale>
<asrwt>0</asrwt>
<pdfrwt beam="1">  1       21 0.61286983E-01 0.20389705E+03</pdfrwt>
<pdfrwt beam="2">  1       21 0.42854795E-01 0.20389705E+03</pdfrwt>
<totfact> 0.12868834E+04</totfact>
</mgrwt>
</event>
<event>
 4    1  0.1086582E+000  0.2629110E+03  0.7546771E-02  0.1105407E+00
         21   -1    0    0  501  502  0.00000000000E+00  0.00000000000E+00  0.23852446941E+03  0.23852446941E+03  0.00000000000E+00 0. -1.
         21   -1    0    0  502  503 -0.00000000000E+00 -0.00000000000E+00 -0.33176578656E+03  0.33176578656E+03  0.00000000000E+00 0.  1.
          6    1    1    2  501    0 -0.22097641507E+02 -0.19761050955E+03  0.54804326684E+02  0.26856234559E+03  0.17200000000E+03 0. -1.
         -6    1    1    2    0  503  0.22097641507E+02  0.19761050955E+03 -0.14804564384E+03  0.30172791038E+03  0.17200000000E+03 0.  1.
<mgrwt>
<rscale>  2 0.26291105E+03</rscale>
<asrwt>0</asrwt>
<pdfrwt beam="1">  1       21 0.59631117E-01 0.26291105E+03</pdfrwt>
<pdfrwt beam="2">  1       21 0.82941446E-01 0.26291105E+03</pdfrwt>
<totfact> 0.31596414E+03</totfact>
</mgrwt>
</event>
<event>
 4    1  0.1086582E+000  0.2601216E+03  0.7546771E-02  0.1107070E+00
         21   -1    0    0  501  502  0.00000000000E+00  0.00000000000E+00  0.31916299568E+03  0.31916299568E+03  0.00000000000E+00 0.  1.
         21   -1    0    0  502  503 -0.00000000000E+00 -0.00000000000E+00 -0.30013449103E+03  0.30013449103E+03  0.00000000000E+00 0.  1.
          6    1    1    2  501    0  0.19501679020E+03  0.69060712138E+01  0.17730925174E+03  0.31480440440E+03  0.17200000000E+03 0.  1.
         -6    1    1    2    0  503 -0.19501679020E+03 -0.69060712138E+01 -0.15828074708E+03  0.30449308231E+03  0.17200000000E+03 0.  1.
<mgrwt>
<rscale>  2 0.26012159E+03</rscale>
<asrwt>0</asrwt>
<pdfrwt beam="1">  1       21 0.79790749E-01 0.26012159E+03</pdfrwt>
<pdfrwt beam="2">  1       21 0.75033623E-01 0.26012159E+03</pdfrwt>
<totfact> 0.20837669E+03</totfact>
</mgrwt>
</event>
<event>
 4    1  0.1086582E+000  0.2007029E+03  0.7546771E-02  0.1149147E+00
         21   -1    0    0  501  502  0.00000000000E+00  0.00000000000E+00  0.29179287399E+03  0.29179287399E+03  0.00000000000E+00 0. -1.
         21   -1    0    0  502  503 -0.00000000000E+00 -0.00000000000E+00 -0.14737150848E+03  0.14737150848E+03  0.00000000000E+00 0.  1.
          6    1    1    2  501    0  0.92107518714E+02 -0.47051769935E+02  0.12743886728E+03  0.23774425114E+03  0.17200000000E+03 0.  1.
         -6    1    1    2    0  503 -0.92107518714E+02  0.47051769935E+02  0.16982498235E+02  0.20142013133E+03  0.17200000000E+03 0. -1.
<mgrwt>
<rscale>  2 0.20070292E+03</rscale>
<asrwt>0</asrwt>
<pdfrwt beam="1">  1       21 0.72948218E-01 0.20070292E+03</pdfrwt>
<pdfrwt beam="2">  1       21 0.36842878E-01 0.20070292E+03</pdfrwt>
<totfact> 0.11951562E+04</totfact>
</mgrwt>
</event>
<event>
 4    1  0.1086582E+000  0.1994578E+03  0.7546771E-02  0.1150197E+00
         21   -1    0    0  503  502  0.00000000000E+00  0.00000000000E+00  0.15658481618E+03  0.15658481618E+03  0.00000000000E+00 0.  1.
         21   -1    0    0  501  503 -0.00000000000E+00 -0.00000000000E+00 -0.40395057149E+03  0.40395057149E+03  0.00000000000E+00 0. -1.
          6    1    1    2  501    0  0.10096143636E+03  0.24870299547E+01 -0.29440216513E+03  0.35560656881E+03  0.17200000000E+03 0. -1.
         -6    1    1    2    0  502 -0.10096143636E+03 -0.24870299547E+01  0.47036409819E+02  0.20492881886E+03  0.17200000000E+03 0.  1.
<mgrwt>
<rscale>  2 0.19945776E+03</rscale>
<asrwt>0</asrwt>
<pdfrwt beam="1">  1       21 0.39146204E-01 0.19945776E+03</pdfrwt>
<pdfrwt beam="2">  1       21 0.10098764E+00 0.19945776E+03</pdfrwt>
<totfact> 0.50185276E+03</totfact>
</mgrwt>
</event>
<event>
 4    1  0.1086582E+000  0.2111872E+03  0.7546771E-02  0.1140629E+00
         21   -1    0    0  501  502  0.00000000000E+00  0.00000000000E+00  0.37350875658E+03  0.37350875658E+03  0.00000000000E+00 0. -1.
         21   -1    0    0  502  503 -0.00000000000E+00 -0.00000000000E+00 -0.20982648875E+03  0.20982648875E+03  0.00000000000E+00 0.  1.
          6    1    1    2  501    0  0.10690157652E+03  0.59900588676E+02  0.27330467326E+03  0.34539176599E+03  0.17200000000E+03 0. -1.
         -6    1    1    2    0  503 -0.10690157652E+03 -0.59900588676E+02 -0.10962240543E+03  0.23794347934E+03  0.17200000000E+03 0.  1.
<mgrwt>
<rscale>  2 0.21118719E+03</rscale>
<asrwt>0</asrwt>
<pdfrwt beam="1">  1       21 0.93377188E-01 0.21118719E+03</pdfrwt>
<pdfrwt beam="2">  1       21 0.52456623E-01 0.21118719E+03</pdfrwt>
<totfact> 0.32733417E+03</totfact>
</mgrwt>
</event>
<event>
 4    1  0.1086582E+000  0.2147973E+03  0.7546771E-02  0.1137822E+00
         21   -1    0    0  503  502  0.00000000000E+00  0.00000000000E+00  0.39102564758E+03  0.39102564758E+03  0.00000000000E+00 0. -1.
         21   -1    0    0  501  503 -0.00000000000E+00 -0.00000000000E+00 -0.17836028999E+03  0.17836028999E+03  0.00000000000E+00 0. -1.
          6    1    1    2  501    0 -0.34781398987E+02 -0.12387144169E+03 -0.59294751144E+02  0.22283120808E+03  0.17200000000E+03 0. -1.
         -6    1    1    2    0  502  0.34781398987E+02  0.12387144169E+03  0.27196010873E+03  0.34655472948E+03  0.17200000000E+03 0. -1.
<mgrwt>
<rscale>  2 0.21479730E+03</rscale>
<asrwt>0</asrwt>
<pdfrwt beam="1">  1       21 0.97756410E-01 0.21479730E+03</pdfrwt>
<pdfrwt beam="2">  1       21 0.44590073E-01 0.21479730E+03</pdfrwt>
<totfact> 0.41093351E+03</totfact>
</mgrwt>
</event>
<event>
 4    1  0.1086582E+000  0.1865955E+03  0.7546771E-02  0.1161568E+00
         21   -1    0    0  501  502  0.00000000000E+00  0.00000000000E+00  0.98060606457E+02  0.98060606457E+02  0.00000000000E+00 0. -1.
         21   -1    0    0  502  503 -0.00000000000E+00 -0.00000000000E+00 -0.35506922283E+03  0.35506922283E+03  0.00000000000E+00 0. -1.
          6    1    1    2  501    0 -0.18226987168E+02  0.70011766829E+02 -0.12770554720E+03  0.22611186908E+03  0.17200000000E+03 0. -1.
         -6    1    1    2    0  503  0.18226987168E+02 -0.70011766829E+02 -0.12930306917E+03  0.22701796020E+03  0.17200000000E+03 0. -1.
<mgrwt>
<rscale>  2 0.18659547E+03</rscale>
<asrwt>0</asrwt>
<pdfrwt beam="1">  1       21 0.24515152E-01 0.18659547E+03</pdfrwt>
<pdfrwt beam="2">  1       21 0.88767305E-01 0.18659547E+03</pdfrwt>
<totfact> 0.17118361E+04</totfact>
</mgrwt>
</event>
<event>
 4    1  0.1086582E+000  0.1769369E+03  0.7546771E-02  0.1170801E+00
         21   -1    0    0  503  502  0.00000000000E+00  0.00000000000E+00  0.77014072029E+03  0.77014072029E+03  0.00000000000E+00 0.  1.
         21   -1    0    0  501  503 -0.00000000000E+00 -0.00000000000E+00 -0.40722427238E+02  0.40722427238E+02  0.00000000000E+00 0.  1.
          6    1    1    2  501    0 -0.41501067941E+02 -0.58245709676E+00  0.34768117725E+03  0.39011393068E+03  0.17200000000E+03 0.  1.
         -6    1    1    2    0  502  0.41501067941E+02  0.58245709676E+00  0.38173711580E+03  0.42074921685E+03  0.17200000000E+03 0.  1.
<mgrwt>
<rscale>  2 0.17693693E+03</rscale>
<asrwt>0</asrwt>
<pdfrwt beam="1">  1       21 0.19253513E+00 0.17693693E+03</pdfrwt>
<pdfrwt beam="2">  1       21 0.10180609E-01 0.17693693E+03</pdfrwt>
<totfact> 0.11955197E+04</totfact>
</mgrwt>
</event>
<event>
 4    1  0.1086582E+000  0.1780460E+03  0.7546771E-02  0.1169708E+00
         21   -1    0    0  501  502  0.00000000000E+00  0.00000000000E+00  0.40141680664E+03  0.40141680664E+03  0.00000000000E+00 0.  1.
         21   -1    0    0  502  503 -0.00000000000E+00 -0.00000000000E+00 -0.81745003309E+02  0.81745003309E+02  0.00000000000E+00 0.  1.
          6    1    1    2  501    0  0.39106786333E+02  0.24228563181E+02  0.20433696562E+03  0.27102390951E+03  0.17200000000E+03 0. -1.
         -6    1    1    2    0  503 -0.39106786333E+02 -0.24228563181E+02  0.11533483772E+03  0.21213790044E+03  0.17200000000E+03 0. -1.
<mgrwt>
<rscale>  2 0.17804596E+03</rscale>
<asrwt>0</asrwt>
<pdfrwt beam="1">  1       21 0.10035420E+00 0.17804596E+03</pdfrwt>
<pdfrwt beam="2">  1       21 0.20436252E-01 0.17804596E+03</pdfrwt>
<totfact> 0.18216805E+04</totfact>
</mgrwt>
</event>
<event>
 4    1  0.1086582E+000  0.2060317E+03  0.7546771E-02  0.1144748E+00
         21   -1    0    0  501  502  0.00000000000E+00  0.00000000000E+00  0.50064869041E+03  0.50064869041E+03  0.00000000000E+00 0. -1.
         21   -1    0    0  502  503 -0.00000000000E+00 -0.00000000000E+00 -0.11341579291E+03  0.11341579291E+03  0.00000000000E+00 0. -1.
          6    1    1    2  501    0 -0.53405408837E+02 -0.10006452004E+03  0.34787188308E+03  0.40430668174E+03  0.17200000000E+03 0. -1.
         -6    1    1    2    0  503  0.53405408837E+02  0.10006452004E+03  0.39361014419E+02  0.20975780157E+03  0.17200000000E+03 0. -1.
<mgrwt>
<rscale>  2 0.20603166E+03</rscale>
<asrwt>0</asrwt>
<pdfrwt beam="1">  1       21 0.12516217E+00 0.20603166E+03</pdfrwt>
<pdfrwt beam="2">  1       21 0.28353950E-01 0.20603166E+03</pdfrwt>
<totfact> 0.55942880E+03</totfact>
</mgrwt>
</event>
<event>
 4    1  0.1086582E+000  0.2071864E+03  0.7546771E-02  0.1143814E+00
         21   -1    0    0  503  502  0.00000000000E+00  0.00000000000E+00  0.51029789700E+03  0.51029789700E+03  0.00000000000E+00 0. -1.
         21   -1    0    0  501  503 -0.00000000000E+00 -0.00000000000E+00 -0.88677565266E+02  0.88677565266E+02  0.00000000000E+00 0.  1.
          6    1    1    2  501    0 -0.11295270183E+03  0.24164240486E+02  0.14291451759E+03  0.25169581384E+03  0.17200000000E+03 0.  1.
         -6    1    1    2    0  502  0.11295270183E+03 -0.24164240486E+02  0.27870581414E+03  0.34727964842E+03  0.17200000000E+03 0. -1.
<mgrwt>
<rscale>  2 0.20718645E+03</rscale>
<asrwt>0</asrwt>
<pdfrwt beam="1">  1       21 0.12757447E+00 0.20718645E+03</pdfrwt>
<pdfrwt beam="2">  1       21 0.22169393E-01 0.20718645E+03</pdfrwt>
<totfact> 0.85309415E+03</totfact>
</mgrwt>
</event>
<event>
 4    1  0.1086582E+000  0.2900015E+03  0.7546771E-02  0.1090348E+00
         21   -1    0    0  503  502  0.00000000000E+00  0.00000000000E+00  0.16367705137E+04  0.16367705137E+04  0.00000000000E+00 0. -1.
         21   -1    0    0  501  503 -0.00000000000E+00 -0.00000000000E+00 -0.51548867477E+02  0.51548867477E+02  0.00000000000E+00 0.  1.
          6    1    1    2  501    0 -0.29393126984E+01  0.23346997894E+03  0.84061067457E+03  0.88922841656E+03  0.17200000000E+03 0. -1.
         -6    1    1    2    0  502  0.29393126984E+01 -0.23346997894E+03  0.74461097168E+03  0.79909096464E+03  0.17200000000E+03 0.  1.
<mgrwt>
<rscale>  2 0.29000150E+03</rscale>
<asrwt>0</asrwt>
<pdfrwt beam="1">  1       21 0.40919246E+00 0.29000150E+03</pdfrwt>
<pdfrwt beam="2">  1       21 0.12887222E-01 0.29000150E+03</pdfrwt>
<totfact> 0.34567368E+02</totfact>
</mgrwt>
</event>
<event>
 4    1  0.1086582E+000  0.1920504E+03  0.7546771E-02  0.1156625E+00
         21   -1    0    0  503  502  0.00000000000E+00  0.00000000000E+00  0.15476366971E+03  0.15476366971E+03  0.00000000000E+00 0. -1.
         21   -1    0    0  501  503 -0.00000000000E+00 -0.00000000000E+00 -0.25418607951E+03  0.25418607951E+03  0.00000000000E+00 0.  1.
          6    1    1    2  501    0  0.52693558226E+02 -0.67251344343E+02 -0.10079605292E+03  0.21689444133E+03  0.17200000000E+03 0.  1.
         -6    1    1    2    0  502 -0.52693558226E+02  0.67251344343E+02  0.13736431115E+01  0.19205530789E+03  0.17200000000E+03 0. -1.
<mgrwt>
<rscale>  2 0.19205040E+03</rscale>
<asrwt>0</asrwt>
<pdfrwt beam="1">  1       21 0.38690918E-01 0.19205040E+03</pdfrwt>
<pdfrwt beam="2">  1       21 0.63546520E-01 0.19205040E+03</pdfrwt>
<totfact> 0.14752054E+04</totfact>
</mgrwt>
</event>
<event>
 4    1  0.1086582E+000  0.1972578E+03  0.7546771E-02  0.1152073E+00
         21   -1    0    0  501  502  0.00000000000E+00  0.00000000000E+00  0.28115552858E+03  0.28115552858E+03  0.00000000000E+00 0.  1.
         21   -1    0    0  502  503 -0.00000000000E+00 -0.00000000000E+00 -0.16054369254E+03  0.16054369254E+03  0.00000000000E+00 0.  1.
          6    1    1    2  501    0 -0.75753177353E+01 -0.96277010724E+02  0.14233532425E+03  0.24324882890E+03  0.17200000000E+03 0.  1.
         -6    1    1    2    0  503  0.75753177353E+01  0.96277010724E+02 -0.21723488203E+02  0.19845039222E+03  0.17200000000E+03 0.  1.
<mgrwt>
<rscale>  2 0.19725782E+03</rscale>
<asrwt>0</asrwt>
<pdfrwt beam="1">  1       21 0.70288881E-01 0.19725782E+03</pdfrwt>
<pdfrwt beam="2">  1       21 0.40135924E-01 0.19725782E+03</pdfrwt>
<totfact> 0.10950267E+04</totfact>
</mgrwt>
</event>
<event>
 4    1  0.1086582E+000  0.1925324E+03  0.7546771E-02  0.1156197E+00
         21   -1    0    0  503  502  0.00000000000E+00  0.00000000000E+00  0.83543350934E+03  0.83543350934E+03  0.00000000000E+00 0. -1.
         21   -1    0    0  501  503 -0.00000000000E+00 -0.00000000000E+00 -0.44678001304E+02  0.44678001304E+02  0.00000000000E+00 0. -1.
          6    1    1    2  501    0 -0.52283913882E+02  0.68928325529E+02  0.35887853672E+03  0.40726223227E+03  0.17200000000E+03 0. -1.
         -6    1    1    2    0  502  0.52283913882E+02 -0.68928325529E+02  0.43187697131E+03  0.47284927838E+03  0.17200000000E+03 0. -1.
<mgrwt>
<rscale>  2 0.19253239E+03</rscale>
<asrwt>0</asrwt>
<pdfrwt beam="1">  1       21 0.20885833E+00 0.19253239E+03</pdfrwt>
<pdfrwt beam="2">  1       21 0.11169503E-01 0.19253239E+03</pdfrwt>
<totfact> 0.78688434E+03</totfact>
</mgrwt>
</event>
<event>
 4    1  0.1086582E+000  0.1889671E+03  0.7546771E-02  0.1159396E+00
         21   -1    0    0  501  502  0.00000000000E+00  0.00000000000E+00  0.63556349986E+03  0.63556349986E+03  0.00000000000E+00 0. -1.
         21   -1    0    0  502  503 -0.00000000000E+00 -0.00000000000E+00 -0.39631217080E+03  0.39631217080E+03  0.00000000000E+00 0. -1.
          6    1    1    2  501    0  0.64670030211E+02 -0.44072029459E+02  0.59759487003E+03  0.62676006994E+03  0.17200000000E+03 0. -1.
         -6    1    1    2    0  503 -0.64670030211E+02  0.44072029459E+02 -0.35834354097E+03  0.40511560071E+03  0.17200000000E+03 0. -1.
<mgrwt>
<rscale>  2 0.18896708E+03</rscale>
<asrwt>0</asrwt>
<pdfrwt beam="1">  1       21 0.15889087E+00 0.18896708E+03</pdfrwt>
<pdfrwt beam="2">  1       21 0.99078043E-01 0.18896708E+03</pdfrwt>
<totfact> 0.21624238E+02</totfact>
</mgrwt>
</event>
<event>
 4    1  0.1086582E+000  0.1758839E+03  0.7546771E-02  0.1171847E+00
         21   -1    0    0  503  502  0.00000000000E+00  0.00000000000E+00  0.81266324519E+03  0.81266324519E+03  0.00000000000E+00 0.  1.
         21   -1    0    0  501  503 -0.00000000000E+00 -0.00000000000E+00 -0.65097386448E+02  0.65097386448E+02  0.00000000000E+00 0.  1.
          6    1    1    2  501    0  0.14162601371E+02 -0.33919868790E+02  0.90972419697E+02  0.19801797373E+03  0.17200000000E+03 0.  1.
         -6    1    1    2    0  502 -0.14162601371E+02  0.33919868790E+02  0.65659343904E+03  0.67974265790E+03  0.17200000000E+03 0.  1.
<mgrwt>
<rscale>  2 0.17588387E+03</rscale>
<asrwt>0</asrwt>
<pdfrwt beam="1">  1       21 0.20316578E+00 0.17588387E+03</pdfrwt>
<pdfrwt beam="2">  1       21 0.16274349E-01 0.17588387E+03</pdfrwt>
<totfact> 0.44034971E+03</totfact>
</mgrwt>
</event>
<event>
 4    1  0.1086582E+000  0.2209923E+03  0.7546771E-02  0.1133145E+00
         21   -1    0    0  503  502  0.00000000000E+00  0.00000000000E+00  0.34414256096E+03  0.34414256096E+03  0.00000000000E+00 0.  1.
         21   -1    0    0  501  503 -0.00000000000E+00 -0.00000000000E+00 -0.15151739885E+03  0.15151739885E+03  0.00000000000E+00 0.  1.
          6    1    1    2  501    0 -0.10644241508E+03 -0.89014599697E+02  0.33909683852E+02  0.22357874082E+03  0.17200000000E+03 0.  1.
         -6    1    1    2    0  502  0.10644241508E+03  0.89014599697E+02  0.15871547826E+03  0.27208121899E+03  0.17200000000E+03 0.  1.
<mgrwt>
<rscale>  2 0.22099228E+03</rscale>
<asrwt>0</asrwt>
<pdfrwt beam="1">  1       21 0.86035639E-01 0.22099228E+03</pdfrwt>
<pdfrwt beam="2">  1       21 0.37879350E-01 0.22099228E+03</pdfrwt>
<totfact> 0.76788062E+03</totfact>
</mgrwt>
</event>
<event>
 4    1  0.1086582E+000  0.1753736E+03  0.7546771E-02  0.1172357E+00
         21   -1    0    0  503  502  0.00000000000E+00  0.00000000000E+00  0.18175720404E+03  0.18175720404E+03  0.00000000000E+00 0. -1.
         21   -1    0    0  501  503 -0.00000000000E+00 -0.00000000000E+00 -0.53558819805E+03  0.53558819805E+03  0.00000000000E+00 0. -1.
          6    1    1    2  501    0  0.30966736127E+02 -0.14593735341E+02 -0.47356600325E+03  0.50499571809E+03  0.17200000000E+03 0. -1.
         -6    1    1    2    0  502 -0.30966736127E+02  0.14593735341E+02  0.11973500924E+03  0.21234968400E+03  0.17200000000E+03 0. -1.
<mgrwt>
<rscale>  2 0.17537365E+03</rscale>
<asrwt>0</asrwt>
<pdfrwt beam="1">  1       21 0.45439301E-01 0.17537365E+03</pdfrwt>
<pdfrwt beam="2">  1       21 0.13389705E+00 0.17537365E+03</pdfrwt>
<totfact> 0.18950361E+03</totfact>
</mgrwt>
</event>
<event>
 4    1  0.1086582E+000  0.2060777E+03  0.7546771E-02  0.1144710E+00
         21   -1    0    0  501  502  0.00000000000E+00  0.00000000000E+00  0.23728880176E+03  0.23728880176E+03  0.00000000000E+00 0.  1.
         21   -1    0    0  502  503 -0.00000000000E+00 -0.00000000000E+00 -0.18019505816E+03  0.18019505816E+03  0.00000000000E+00 0.  1.
          6    1    1    2  501    0 -0.11129658966E+03 -0.22295767846E+02  0.45744804632E+02  0.21109386368E+03  0.17200000000E+03 0.  1.
         -6    1    1    2    0  503  0.11129658966E+03  0.22295767846E+02  0.11348938968E+02  0.20638999624E+03  0.17200000000E+03 0.  1.
<mgrwt>
<rscale>  2 0.20607773E+03</rscale>
<asrwt>0</asrwt>
<pdfrwt beam="1">  1       21 0.59322200E-01 0.20607773E+03</pdfrwt>
<pdfrwt beam="2">  1       21 0.45048765E-01 0.20607773E+03</pdfrwt>
<totfact> 0.12443352E+04</totfact>
</mgrwt>
</event>
<event>
 4    1  0.1086582E+000  0.2197460E+03  0.7546771E-02  0.1134073E+00
         21   -1    0    0  501  502  0.00000000000E+00  0.00000000000E+00  0.69825456887E+03  0.69825456887E+03  0.00000000000E+00 0. -1.
         21   -1    0    0  502  503 -0.00000000000E+00 -0.00000000000E+00 -0.87950037694E+02  0.87950037694E+02  0.00000000000E+00 0.  1.
          6    1    1    2  501    0  0.36781724023E+02 -0.13172480544E+03  0.48687132872E+03  0.53416477824E+03  0.17200000000E+03 0. -1.
         -6    1    1    2    0  503 -0.36781724023E+02  0.13172480544E+03  0.12343320246E+03  0.25203982832E+03  0.17200000000E+03 0.  1.
<mgrwt>
<rscale>  2 0.21974603E+03</rscale>
<asrwt>0</asrwt>
<pdfrwt beam="1">  1       21 0.17456363E+00 0.21974603E+03</pdfrwt>
<pdfrwt beam="2">  1       21 0.21987511E-01 0.21974603E+03</pdfrwt>
<totfact> 0.37417580E+03</totfact>
</mgrwt>
</event>
<event>
 4    1  0.1086582E+000  0.1748332E+03  0.7546771E-02  0.1172899E+00
         21   -1    0    0  501  502  0.00000000000E+00  0.00000000000E+00  0.37091200117E+03  0.37091200117E+03  0.00000000000E+00 0. -1.
         21   -1    0    0  502  503 -0.00000000000E+00 -0.00000000000E+00 -0.19613961095E+03  0.19613961095E+03  0.00000000000E+00 0. -1.
          6    1    1    2  501    0  0.20564951924E+02  0.23658948481E+02  0.30328374770E+03  0.35006812867E+03  0.17200000000E+03 0. -1.
         -6    1    1    2    0  503 -0.20564951924E+02 -0.23658948481E+02 -0.12851135747E+03  0.21698348345E+03  0.17200000000E+03 0. -1.
<mgrwt>
<rscale>  2 0.17483324E+03</rscale>
<asrwt>0</asrwt>
<pdfrwt beam="1">  1       21 0.92727999E-01 0.17483324E+03</pdfrwt>
<pdfrwt beam="2">  1       21 0.49034903E-01 0.17483324E+03</pdfrwt>
<totfact> 0.39487192E+03</totfact>
</mgrwt>
</event>
<event>
 4    1  0.1086582E+000  0.1880621E+03  0.7546771E-02  0.1160221E+00
         21   -1    0    0  501  502  0.00000000000E+00  0.00000000000E+00  0.61274175200E+03  0.61274175200E+03  0.00000000000E+00 0.  1.
         21   -1    0    0  502  503 -0.00000000000E+00 -0.00000000000E+00 -0.70550470378E+02  0.70550470378E+02  0.00000000000E+00 0.  1.
          6    1    1    2  501    0  0.43200331116E+02 -0.62586753713E+02  0.41679247744E+03  0.45725631718E+03  0.17200000000E+03 0.  1.
         -6    1    1    2    0  503 -0.43200331116E+02  0.62586753713E+02  0.12539880418E+03  0.22603590520E+03  0.17200000000E+03 0.  1.
<mgrwt>
<rscale>  2 0.18806214E+03</rscale>
<asrwt>0</asrwt>
<pdfrwt beam="1">  1       21 0.15318542E+00 0.18806214E+03</pdfrwt>
<pdfrwt beam="2">  1       21 0.17637619E-01 0.18806214E+03</pdfrwt>
<totfact> 0.82728641E+03</totfact>
</mgrwt>
</event>
<event>
 4    1  0.1086582E+000  0.1756871E+03  0.7546771E-02  0.1172044E+00
         21   -1    0    0  503  502  0.00000000000E+00  0.00000000000E+00  0.24027266100E+03  0.24027266100E+03  0.00000000000E+00 0. -1.
         21   -1    0    0  501  503 -0.00000000000E+00 -0.00000000000E+00 -0.41389656814E+03  0.41389656814E+03  0.00000000000E+00 0. -1.
          6    1    1    2  501    0 -0.14331272177E+02  0.32810908872E+02 -0.35843547686E+03  0.39917656767E+03  0.17200000000E+03 0. -1.
         -6    1    1    2    0  502  0.14331272177E+02 -0.32810908872E+02  0.18481156972E+03  0.25499266147E+03  0.17200000000E+03 0. -1.
<mgrwt>
<rscale>  2 0.17568705E+03</rscale>
<asrwt>0</asrwt>
<pdfrwt beam="1">  1       21 0.60068166E-01 0.17568705E+03</pdfrwt>
<pdfrwt beam="2">  1       21 0.10347414E+00 0.17568705E+03</pdfrwt>
<totfact> 0.19877159E+03</totfact>
</mgrwt>
</event>
<event>
 4    1  0.1086582E+000  0.1761713E+03  0.7546771E-02  0.1171561E+00
         21   -1    0    0  501  502  0.00000000000E+00  0.00000000000E+00  0.26138600467E+03  0.26138600467E+03  0.00000000000E+00 0. -1.
         21   -1    0    0  502  503 -0.00000000000E+00 -0.00000000000E+00 -0.21582237322E+03  0.21582237322E+03  0.00000000000E+00 0.  1.
          6    1    1    2  501    0  0.21667278021E+02  0.31350266797E+02  0.18281340059E+03  0.25388392939E+03  0.17200000000E+03 0. -1.
         -6    1    1    2    0  503 -0.21667278021E+02 -0.31350266797E+02 -0.13724976914E+03  0.22332444849E+03  0.17200000000E+03 0.  1.
<mgrwt>
<rscale>  2 0.17617125E+03</rscale>
<asrwt>0</asrwt>
<pdfrwt beam="1">  1       21 0.65346501E-01 0.17617125E+03</pdfrwt>
<pdfrwt beam="2">  1       21 0.53955593E-01 0.17617125E+03</pdfrwt>
<totfact> 0.70846918E+03</totfact>
</mgrwt>
</event>
<event>
 4    1  0.1086582E+000  0.1775956E+03  0.7546771E-02  0.1170151E+00
         21   -1    0    0  501  502  0.00000000000E+00  0.00000000000E+00  0.26318710882E+03  0.26318710882E+03  0.00000000000E+00 0.  1.
         21   -1    0    0  502  503 -0.00000000000E+00 -0.00000000000E+00 -0.12036667159E+03  0.12036667159E+03  0.00000000000E+00 0.  1.
          6    1    1    2  501    0  0.11389683413E+01 -0.44214240068E+02  0.58717840032E+02  0.18705074448E+03  0.17200000000E+03 0.  1.
         -6    1    1    2    0  503 -0.11389683413E+01  0.44214240068E+02  0.84102597192E+02  0.19650303593E+03  0.17200000000E+03 0.  1.
<mgrwt>
<rscale>  2 0.17759560E+03</rscale>
<asrwt>0</asrwt>
<pdfrwt beam="1">  1       21 0.65796776E-01 0.17759560E+03</pdfrwt>
<pdfrwt beam="2">  1       21 0.30091668E-01 0.17759560E+03</pdfrwt>
<totfact> 0.22681692E+04</totfact>
</mgrwt>
</event>
<event>
 4    1  0.1086582E+000  0.2413976E+03  0.7546771E-02  0.1118865E+00
         21   -1    0    0  503  502  0.00000000000E+00  0.00000000000E+00  0.56300290690E+03  0.56300290690E+03  0.00000000000E+00 0.  1.
         21   -1    0    0  501  503 -0.00000000000E+00 -0.00000000000E+00 -0.10983143177E+03  0.10983143177E+03  0.00000000000E+00 0. -1.
          6    1    1    2  501    0 -0.90633655868E+02 -0.14308855613E+03  0.14583540569E+03  0.28202971479E+03  0.17200000000E+03 0.  1.
         -6    1    1    2    0  502  0.90633655868E+02  0.14308855613E+03  0.30733606944E+03  0.39080462388E+03  0.17200000000E+03 0. -1.
<mgrwt>
<rscale>  2 0.24139759E+03</rscale>
<asrwt>0</asrwt>
<pdfrwt beam="1">  1       21 0.14075072E+00 0.24139759E+03</pdfrwt>
<pdfrwt beam="2">  1       21 0.27457859E-01 0.24139759E+03</pdfrwt>
<totfact> 0.42990130E+03</totfact>
</mgrwt>
</event>
<event>
 4    1  0.1086582E+000  0.1824799E+03  0.7546771E-02  0.1165424E+00
         21   -1    0    0  501  502  0.00000000000E+00  0.00000000000E+00  0.51982197410E+02  0.51982197410E+02  0.00000000000E+00 0.  1.
         21   -1    0    0  502  503 -0.00000000000E+00 -0.00000000000E+00 -0.64859921161E+03  0.64859921161E+03  0.00000000000E+00 0.  1.
          6    1    1    2  501    0 -0.51837909798E+02 -0.32058516750E+02 -0.33725085785E+03  0.38345411526E+03  0.17200000000E+03 0.  1.
         -6    1    1    2    0  503  0.51837909798E+02  0.32058516750E+02 -0.25936615635E+03  0.31712729376E+03  0.17200000000E+03 0.  1.
<mgrwt>
<rscale>  2 0.18247991E+03</rscale>
<asrwt>0</asrwt>
<pdfrwt beam="1">  1       21 0.12995550E-01 0.18247991E+03</pdfrwt>
<pdfrwt beam="2">  1       21 0.16214980E+00 0.18247991E+03</pdfrwt>
<totfact> 0.12443411E+04</totfact>
</mgrwt>
</event>
<event>
 4    1  0.1086582E+000  0.1763348E+03  0.7546771E-02  0.1171398E+00
         21   -1    0    0  501  502  0.00000000000E+00  0.00000000000E+00  0.18313564052E+03  0.18313564052E+03  0.00000000000E+00 0.  1.
         21   -1    0    0  502  503 -0.00000000000E+00 -0.00000000000E+00 -0.33602026255E+03  0.33602026255E+03  0.00000000000E+00 0.  1.
          6    1    1    2  501    0  0.72685735245E+01  0.38172543563E+02  0.10613406064E+03  0.20581159849E+03  0.17200000000E+03 0.  1.
         -6    1    1    2    0  503 -0.72685735245E+01 -0.38172543563E+02 -0.25901868267E+03  0.31334430458E+03  0.17200000000E+03 0.  1.
<mgrwt>
<rscale>  2 0.17633484E+03</rscale>
<asrwt>0</asrwt>
<pdfrwt beam="1">  1       21 0.45783910E-01 0.17633484E+03</pdfrwt>
<pdfrwt beam="2">  1       21 0.84005065E-01 0.17633484E+03</pdfrwt>
<totfact> 0.57020516E+03</totfact>
</mgrwt>
</event>
<event>
 4    1  0.1086582E+000  0.1802686E+03  0.7546771E-02  0.1167543E+00
         21   -1    0    0  503  502  0.00000000000E+00  0.00000000000E+00  0.16458888415E+03  0.16458888415E+03  0.00000000000E+00 0. -1.
         21   -1    0    0  501  503 -0.00000000000E+00 -0.00000000000E+00 -0.64762951134E+03  0.64762951134E+03  0.00000000000E+00 0. -1.
          6    1    1    2  501    0  0.30830545469E+02  0.44297089930E+02 -0.58011196294E+03  0.60747563265E+03  0.17200000000E+03 0. -1.
         -6    1    1    2    0  502 -0.30830545469E+02 -0.44297089930E+02  0.97071335760E+02  0.20474276284E+03  0.17200000000E+03 0. -1.
<mgrwt>
<rscale>  2 0.18026856E+03</rscale>
<asrwt>0</asrwt>
<pdfrwt beam="1">  1       21 0.41147221E-01 0.18026856E+03</pdfrwt>
<pdfrwt beam="2">  1       21 0.16190738E+00 0.18026856E+03</pdfrwt>
<totfact> 0.14047515E+03</totfact>
</mgrwt>
</event>
<event>
 4    1  0.1086582E+000  0.2183525E+03  0.7546771E-02  0.1135117E+00
         21   -1    0    0  501  502  0.00000000000E+00  0.00000000000E+00  0.42049157187E+03  0.42049157187E+03  0.00000000000E+00 0. -1.
         21   -1    0    0  502  503 -0.00000000000E+00 -0.00000000000E+00 -0.12555986426E+03  0.12555986426E+03  0.00000000000E+00 0. -1.
          6    1    1    2  501    0  0.98419891326E+02  0.91691444002E+02  0.62450968402E+02  0.22710772635E+03  0.17200000000E+03 0. -1.
         -6    1    1    2    0  503 -0.98419891326E+02 -0.91691444002E+02  0.23248073920E+03  0.31894370979E+03  0.17200000000E+03 0. -1.
<mgrwt>
<rscale>  2 0.21835246E+03</rscale>
<asrwt>0</asrwt>
<pdfrwt beam="1">  1       21 0.10512289E+00 0.21835246E+03</pdfrwt>
<pdfrwt beam="2">  1       21 0.31389967E-01 0.21835246E+03</pdfrwt>
<totfact> 0.69739414E+03</totfact>
</mgrwt>
</event>
<event>
 4    1  0.1086582E+000  0.2552728E+03  0.7546771E-02  0.1110017E+00
         21   -1    0    0  503  502  0.00000000000E+00  0.00000000000E+00  0.10070100565E+03  0.10070100565E+03  0.00000000000E+00 0. -1.
         21   -1    0    0  501  503 -0.00000000000E+00 -0.00000000000E+00 -0.65019838737E+03  0.65019838737E+03  0.00000000000E+00 0.  1.
          6    1    1    2  501    0  0.17159400944E+03  0.78330694688E+02 -0.24885512239E+03  0.35650115532E+03  0.17200000000E+03 0.  1.
         -6    1    1    2    0  502 -0.17159400944E+03 -0.78330694688E+02 -0.30064225933E+03  0.39439823770E+03  0.17200000000E+03 0. -1.
<mgrwt>
<rscale>  2 0.25527280E+03</rscale>
<asrwt>0</asrwt>
<pdfrwt beam="1">  1       21 0.25175252E-01 0.25527280E+03</pdfrwt>
<pdfrwt beam="2">  1       21 0.16254960E+00 0.25527280E+03</pdfrwt>
<totfact> 0.34275468E+03</totfact>
</mgrwt>
</event>
<event>
 4    1  0.1086582E+000  0.1775557E+03  0.7546771E-02  0.1170190E+00
         21   -1    0    0  503  502  0.00000000000E+00  0.00000000000E+00  0.11773438445E+03  0.11773438445E+03  0.00000000000E+00 0. -1.
         21   -1    0    0  501  503 -0.00000000000E+00 -0.00000000000E+00 -0.65072913082E+03  0.65072913082E+03  0.00000000000E+00 0. -1.
          6    1    1    2  501    0  0.23274695288E+02  0.37420859968E+02 -0.56125694800E+03  0.58867256933E+03  0.17200000000E+03 0. -1.
         -6    1    1    2    0  502 -0.23274695288E+02 -0.37420859968E+02  0.28262201623E+02  0.17979094594E+03  0.17200000000E+03 0. -1.
<mgrwt>
<rscale>  2 0.17755572E+03</rscale>
<asrwt>0</asrwt>
<pdfrwt beam="1">  1       21 0.29433597E-01 0.17755572E+03</pdfrwt>
<pdfrwt beam="2">  1       21 0.16268228E+00 0.17755572E+03</pdfrwt>
<totfact> 0.27002902E+03</totfact>
</mgrwt>
</event>
<event>
 4    1  0.1086582E+000  0.2315170E+03  0.7546771E-02  0.1125577E+00
         21   -1    0    0  501  502  0.00000000000E+00  0.00000000000E+00  0.79276174915E+02  0.79276174915E+02  0.00000000000E+00 0. -1.
         21   -1    0    0  502  503 -0.00000000000E+00 -0.00000000000E+00 -0.12554463515E+04  0.12554463515E+04  0.00000000000E+00 0. -1.
          6    1    1    2  501    0  0.14452930548E+03  0.55923281750E+02 -0.13474522872E+03  0.26787387004E+03  0.17200000000E+03 0.  1.
         -6    1    1    2    0  503 -0.14452930548E+03 -0.55923281750E+02 -0.10414249479E+04  0.10668486564E+04  0.17200000000E+03 0.  1.
<mgrwt>
<rscale>  2 0.23151703E+03</rscale>
<asrwt>0</asrwt>
<pdfrwt beam="1">  1       21 0.19819044E-01 0.23151703E+03</pdfrwt>
<pdfrwt beam="2">  1       21 0.31386159E+00 0.23151703E+03</pdfrwt>
<totfact> 0.63326197E+02</totfact>
</mgrwt>
</event>
<event>
 4    1  0.1086582E+000  0.2179820E+03  0.7546771E-02  0.1135397E+00
         21   -1    0    0  501  502  0.00000000000E+00  0.00000000000E+00  0.25631102076E+03  0.25631102076E+03  0.00000000000E+00 0. -1.
         21   -1    0    0  502  503 -0.00000000000E+00 -0.00000000000E+00 -0.11663640812E+04  0.11663640812E+04  0.00000000000E+00 0.  1.
          6    1    1    2  501    0 -0.36801578315E+02  0.12875484331E+03  0.19733536493E+03  0.29403641288E+03  0.17200000000E+03 0. -1.
         -6    1    1    2    0  503  0.36801578315E+02 -0.12875484331E+03 -0.11073884254E+04  0.11286386891E+04  0.17200000000E+03 0.  1.
<mgrwt>
<rscale>  2 0.21798203E+03</rscale>
<asrwt>0</asrwt>
<pdfrwt beam="1">  1       21 0.64077757E-01 0.21798203E+03</pdfrwt>
<pdfrwt beam="2">  1       21 0.29159101E+00 0.21798203E+03</pdfrwt>
<totfact> 0.82468861E+01</totfact>
</mgrwt>
</event>
<event>
 4    1  0.1086582E+000  0.1851796E+03  0.7546771E-02  0.1162882E+00
         21   -1    0    0  503  502  0.00000000000E+00  0.00000000000E+00  0.33629762428E+02  0.33629762428E+02  0.00000000000E+00 0. -1.
         21   -1    0    0  501  503 -0.00000000000E+00 -0.00000000000E+00 -0.13341924151E+04  0.13341924151E+04  0.00000000000E+00 0.  1.
          6    1    1    2  501    0 -0.33199272700E+02  0.60044065175E+02 -0.98233757926E+03  0.99963923547E+03  0.17200000000E+03 0.  1.
         -6    1    1    2    0  502  0.33199272700E+02 -0.60044065175E+02 -0.31822507340E+03  0.36818294204E+03  0.17200000000E+03 0. -1.
<mgrwt>
<rscale>  2 0.18517959E+03</rscale>
<asrwt>0</asrwt>
<pdfrwt beam="1">  1       21 0.84074413E-02 0.18517959E+03</pdfrwt>
<pdfrwt beam="2">  1       21 0.33354808E+00 0.18517959E+03</pdfrwt>
<totfact> 0.24275146E+03</totfact>
</mgrwt>
</event>
<event>
 4    1  0.1086582E+000  0.1788816E+03  0.7546771E-02  0.1168890E+00
         21   -1    0    0  501  502  0.00000000000E+00  0.00000000000E+00  0.29607315689E+03  0.29607315689E+03  0.00000000000E+00 0. -1.
         21   -1    0    0  502  503 -0.00000000000E+00 -0.00000000000E+00 -0.10826954513E+03  0.10826954513E+03  0.00000000000E+00 0. -1.
          6    1    1    2  501    0  0.45164383752E+02  0.19360099582E+02  0.85371301660E+02  0.19820921816E+03  0.17200000000E+03 0. -1.
         -6    1    1    2    0  503 -0.45164383752E+02 -0.19360099582E+02  0.10243231010E+03  0.20613348386E+03  0.17200000000E+03 0. -1.
<mgrwt>
<rscale>  2 0.17888162E+03</rscale>
<asrwt>0</asrwt>
<pdfrwt beam="1">  1       21 0.74018288E-01 0.17888162E+03</pdfrwt>
<pdfrwt beam="2">  1       21 0.27067387E-01 0.17888162E+03</pdfrwt>
<totfact> 0.21471348E+04</totfact>
</mgrwt>
</event>
<event>
 4    1  0.1086582E+000  0.1840148E+03  0.7546771E-02  0.1163973E+00
         21   -1    0    0  501  502  0.00000000000E+00  0.00000000000E+00  0.32262190120E+02  0.32262190120E+02  0.00000000000E+00 0.  1.
         21   -1    0    0  502  503 -0.00000000000E+00 -0.00000000000E+00 -0.11054629628E+04  0.11054629628E+04  0.00000000000E+00 0. -1.
          6    1    1    2  501    0  0.48907137600E+02 -0.43422630339E+02 -0.40868785226E+03  0.44820441042E+03  0.17200000000E+03 0.  1.
         -6    1    1    2    0  503 -0.48907137600E+02  0.43422630339E+02 -0.66451292040E+03  0.68952074248E+03  0.17200000000E+03 0. -1.
<mgrwt>
<rscale>  2 0.18401476E+03</rscale>
<asrwt>0</asrwt>
<pdfrwt beam="1">  1       21 0.80655477E-02 0.18401476E+03</pdfrwt>
<pdfrwt beam="2">  1       21 0.27636573E+00 0.18401476E+03</pdfrwt>
<totfact> 0.55787257E+03</totfact>
</mgrwt>
</event>
<event>
 4    1  0.1086582E+000  0.1778900E+03  0.7546771E-02  0.1169861E+00
         21   -1    0    0  501  502  0.00000000000E+00  0.00000000000E+00  0.11078326823E+04  0.11078326823E+04  0.00000000000E+00 0. -1.
         21   -1    0    0  502  503 -0.00000000000E+00 -0.00000000000E+00 -0.29111524150E+02  0.29111524150E+02  0.00000000000E+00 0.  1.
          6    1    1    2  501    0 -0.26936358947E+01 -0.45316619969E+02  0.61727552636E+03  0.64239701677E+03  0.17200000000E+03 0. -1.
         -6    1    1    2    0  503  0.26936358947E+01  0.45316619969E+02  0.46144563184E+03  0.49454718972E+03  0.17200000000E+03 0.  1.
<mgrwt>
<rscale>  2 0.17789000E+03</rscale>
<asrwt>0</asrwt>
<pdfrwt beam="1">  1       21 0.27695803E+00 0.17789000E+03</pdfrwt>
<pdfrwt beam="2">  1       21 0.72778847E-02 0.17789000E+03</pdfrwt>
<totfact> 0.66608254E+03</totfact>
</mgrwt>
</event>
<event>
 4    1  0.1086582E+000  0.1884628E+03  0.7546771E-02  0.1159855E+00
         21   -1    0    0  503  502  0.00000000000E+00  0.00000000000E+00  0.37825766500E+03  0.37825766500E+03  0.00000000000E+00 0.  1.
         21   -1    0    0  501  503 -0.00000000000E+00 -0.00000000000E+00 -0.95736443492E+02  0.95736443492E+02  0.00000000000E+00 0.  1.
          6    1    1    2  501    0  0.65897571961E+02  0.39896685601E+02  0.17408849230E+03  0.25656390756E+03  0.17200000000E+03 0.  1.
         -6    1    1    2    0  502 -0.65897571961E+02 -0.39896685601E+02  0.10843272920E+03  0.21743020093E+03  0.17200000000E+03 0.  1.
<mgrwt>
<rscale>  2 0.18846282E+03</rscale>
<asrwt>0</asrwt>
<pdfrwt beam="1">  1       21 0.94564413E-01 0.18846282E+03</pdfrwt>
<pdfrwt beam="2">  1       21 0.23934112E-01 0.18846282E+03</pdfrwt>
<totfact> 0.15451939E+04</totfact>
</mgrwt>
</event>
<event>
 4    1  0.1086582E+000  0.2188610E+03  0.7546771E-02  0.1134735E+00
         21   -1    0    0  503  502  0.00000000000E+00  0.00000000000E+00  0.96860278502E+02  0.96860278502E+02  0.00000000000E+00 0.  1.
         21   -1    0    0  501  503 -0.00000000000E+00 -0.00000000000E+00 -0.58997724146E+03  0.58997724146E+03  0.00000000000E+00 0. -1.
          6    1    1    2  501    0  0.54539590601E+02 -0.12386113090E+03 -0.38468974853E+03  0.44259049845E+03  0.17200000000E+03 0. -1.
         -6    1    1    2    0  502 -0.54539590601E+02  0.12386113090E+03 -0.10842721443E+03  0.24424702152E+03  0.17200000000E+03 0.  1.
<mgrwt>
<rscale>  2 0.21886102E+03</rscale>
<asrwt>0</asrwt>
<pdfrwt beam="1">  1       21 0.24215070E-01 0.21886102E+03</pdfrwt>
<pdfrwt beam="2">  1       21 0.14749431E+00 0.21886102E+03</pdfrwt>
<totfact> 0.49230544E+03</totfact>
</mgrwt>
</event>
<event>
 4    1  0.1086582E+000  0.2334893E+03  0.7546771E-02  0.1124208E+00
         21   -1    0    0  503  502  0.00000000000E+00  0.00000000000E+00  0.69162164069E+03  0.69162164069E+03  0.00000000000E+00 0.  1.
         21   -1    0    0  501  503 -0.00000000000E+00 -0.00000000000E+00 -0.95258841751E+02  0.95258841751E+02  0.00000000000E+00 0.  1.
          6    1    1    2  501    0  0.15180582057E+02  0.15717130839E+03  0.13476638184E+03  0.26959088992E+03  0.17200000000E+03 0.  1.
         -6    1    1    2    0  502 -0.15180582057E+02 -0.15717130839E+03  0.46159641710E+03  0.51728959252E+03  0.17200000000E+03 0.  1.
<mgrwt>
<rscale>  2 0.23348934E+03</rscale>
<asrwt>0</asrwt>
<pdfrwt beam="1">  1       21 0.17290540E+00 0.23348934E+03</pdfrwt>
<pdfrwt beam="2">  1       21 0.23814712E-01 0.23348934E+03</pdfrwt>
<totfact> 0.32655429E+03</totfact>
</mgrwt>
</event>
<event>
 4    1  0.1086582E+000  0.1845370E+03  0.7546771E-02  0.1163483E+00
         21   -1    0    0  501  502  0.00000000000E+00  0.00000000000E+00  0.12819246634E+04  0.12819246634E+04  0.00000000000E+00 0.  1.
         21   -1    0    0  502  503 -0.00000000000E+00 -0.00000000000E+00 -0.37871337845E+02  0.37871337845E+02  0.00000000000E+00 0.  1.
          6    1    1    2  501    0  0.36209325738E+02  0.56203165293E+02  0.98259594464E+03  0.99977432528E+03  0.17200000000E+03 0.  1.
         -6    1    1    2    0  503 -0.36209325738E+02 -0.56203165293E+02  0.26145738095E+03  0.32002167601E+03  0.17200000000E+03 0.  1.
<mgrwt>
<rscale>  2 0.18453702E+03</rscale>
<asrwt>0</asrwt>
<pdfrwt beam="1">  1       21 0.32048102E+00 0.18453702E+03</pdfrwt>
<pdfrwt beam="2">  1       21 0.94678387E-02 0.18453702E+03</pdfrwt>
<totfact> 0.23491161E+03</totfact>
</mgrwt>
</event>
<event>
 4    1  0.1086582E+000  0.1844923E+03  0.7546771E-02  0.1163525E+00
         21   -1    0    0  503  502  0.00000000000E+00  0.00000000000E+00  0.24771508683E+03  0.24771508683E+03  0.00000000000E+00 0.  1.
         21   -1    0    0  501  503 -0.00000000000E+00 -0.00000000000E+00 -0.18787711026E+03  0.18787711026E+03  0.00000000000E+00 0. -1.
          6    1    1    2  501    0  0.62551937989E+02  0.23251965478E+02 -0.82966217045E+02  0.20228888258E+03  0.17200000000E+03 0. -1.
         -6    1    1    2    0  502 -0.62551937989E+02 -0.23251965478E+02  0.14280419362E+03  0.23330331451E+03  0.17200000000E+03 0.  1.
<mgrwt>
<rscale>  2 0.18449227E+03</rscale>
<asrwt>0</asrwt>
<pdfrwt beam="1">  1       21 0.61928771E-01 0.18449227E+03</pdfrwt>
<pdfrwt beam="2">  1       21 0.46969278E-01 0.18449227E+03</pdfrwt>
<totfact> 0.10560129E+04</totfact>
</mgrwt>
</event>
<event>
 4    1  0.1086582E+000  0.1785274E+03  0.7546771E-02  0.1169236E+00
         21   -1    0    0  501  502  0.00000000000E+00  0.00000000000E+00  0.37681619810E+03  0.37681619810E+03  0.00000000000E+00 0.  1.
         21   -1    0    0  502  503 -0.00000000000E+00 -0.00000000000E+00 -0.11847472716E+03  0.11847472716E+03  0.00000000000E+00 0.  1.
          6    1    1    2  501    0 -0.43743814060E+02 -0.19352265461E+02  0.26162562344E+03  0.31673332361E+03  0.17200000000E+03 0.  1.
         -6    1    1    2    0  503  0.43743814060E+02  0.19352265461E+02 -0.32841524934E+01  0.17855760164E+03  0.17200000000E+03 0.  1.
<mgrwt>
<rscale>  2 0.17852740E+03</rscale>
<asrwt>0</asrwt>
<pdfrwt beam="1">  1       21 0.94204047E-01 0.17852740E+03</pdfrwt>
<pdfrwt beam="2">  1       21 0.29618683E-01 0.17852740E+03</pdfrwt>
<totfact> 0.10424697E+04</totfact>
</mgrwt>
</event>
<event>
 4    1  0.1086582E+000  0.1783382E+03  0.7546771E-02  0.1169421E+00
         21   -1    0    0  501  502  0.00000000000E+00  0.00000000000E+00  0.82895276327E+03  0.82895276327E+03  0.00000000000E+00 0.  1.
         21   -1    0    0  502  503 -0.00000000000E+00 -0.00000000000E+00 -0.51084059043E+02  0.51084059043E+02  0.00000000000E+00 0.  1.
          6    1    1    2  501    0  0.15313576801E+02 -0.44564842090E+02  0.60847726949E+03  0.63407343287E+03  0.17200000000E+03 0.  1.
         -6    1    1    2    0  503 -0.15313576801E+02  0.44564842090E+02  0.16939143474E+03  0.24596338945E+03  0.17200000000E+03 0.  1.
<mgrwt>
<rscale>  2 0.17833825E+03</rscale>
<asrwt>0</asrwt>
<pdfrwt beam="1">  1       21 0.20723815E+00 0.17833825E+03</pdfrwt>
<pdfrwt beam="2">  1       21 0.12771017E-01 0.17833825E+03</pdfrwt>
<totfact> 0.64236859E+03</totfact>
</mgrwt>
</event>
<event>
 4    1  0.1086582E+000  0.1880415E+03  0.7546771E-02  0.1160240E+00
         21   -1    0    0  501  502  0.00000000000E+00  0.00000000000E+00  0.76039673392E+03  0.76039673392E+03  0.00000000000E+00 0.  1.
         21   -1    0    0  502  503 -0.00000000000E+00 -0.00000000000E+00 -0.16546010573E+03  0.16546010573E+03  0.00000000000E+00 0.  1.
          6    1    1    2  501    0  0.56263181907E+01 -0.75788933636E+02  0.68999126704E+03  0.71515562398E+03  0.17200000000E+03 0.  1.
         -6    1    1    2    0  503 -0.56263181907E+01  0.75788933636E+02 -0.95054638856E+02  0.21070121567E+03  0.17200000000E+03 0.  1.
<mgrwt>
<rscale>  2 0.18804153E+03</rscale>
<asrwt>0</asrwt>
<pdfrwt beam="1">  1       21 0.19009917E+00 0.18804153E+03</pdfrwt>
<pdfrwt beam="2">  1       21 0.41365028E-01 0.18804153E+03</pdfrwt>
<totfact> 0.88108573E+02</totfact>
</mgrwt>
</event>
<event>
 4    1  0.1086582E+000  0.1871673E+03  0.7546771E-02  0.1161041E+00
         21   -1    0    0  503  502  0.00000000000E+00  0.00000000000E+00  0.37344197547E+03  0.37344197547E+03  0.00000000000E+00 0.  1.
         21   -1    0    0  501  503 -0.00000000000E+00 -0.00000000000E+00 -0.14580148231E+03  0.14580148231E+03  0.00000000000E+00 0.  1.
          6    1    1    2  501    0 -0.14797114297E+02 -0.72309282005E+02 -0.41217485200E+02  0.19165194479E+03  0.17200000000E+03 0.  1.
         -6    1    1    2    0  502  0.14797114297E+02  0.72309282005E+02  0.26885797836E+03  0.32759151299E+03  0.17200000000E+03 0.  1.
<mgrwt>
<rscale>  2 0.18716727E+03</rscale>
<asrwt>0</asrwt>
<pdfrwt beam="1">  1       21 0.93360492E-01 0.18716727E+03</pdfrwt>
<pdfrwt beam="2">  1       21 0.36450371E-01 0.18716727E+03</pdfrwt>
<totfact> 0.70319128E+03</totfact>
</mgrwt>
</event>
<event>
 4    1  0.1086582E+000  0.1963041E+03  0.7546771E-02  0.1152895E+00
         21   -1    0    0  503  502  0.00000000000E+00  0.00000000000E+00  0.36981732777E+02  0.36981732777E+02  0.00000000000E+00 0.  1.
         21   -1    0    0  501  503 -0.00000000000E+00 -0.00000000000E+00 -0.10436763087E+04  0.10436763087E+04  0.00000000000E+00 0.  1.
          6    1    1    2  501    0  0.51820476172E+02 -0.79157751527E+02 -0.48175306179E+03  0.52021276793E+03  0.17200000000E+03 0.  1.
         -6    1    1    2    0  502 -0.51820476172E+02  0.79157751527E+02 -0.52494151414E+03  0.56044527355E+03  0.17200000000E+03 0.  1.
<mgrwt>
<rscale>  2 0.19630413E+03</rscale>
<asrwt>0</asrwt>
<pdfrwt beam="1">  1       21 0.92454329E-02 0.19630413E+03</pdfrwt>
<pdfrwt beam="2">  1       21 0.26091909E+00 0.19630413E+03</pdfrwt>
<totfact> 0.53274354E+03</totfact>
</mgrwt>
</event>
<event>
 4    1  0.1086582E+000  0.1782327E+03  0.7546771E-02  0.1169524E+00
         21   -1    0    0  503  502  0.00000000000E+00  0.00000000000E+00  0.38443108427E+03  0.38443108427E+03  0.00000000000E+00 0. -1.
         21   -1    0    0  501  503 -0.00000000000E+00 -0.00000000000E+00 -0.88708495534E+02  0.88708495534E+02  0.00000000000E+00 0.  1.
          6    1    1    2  501    0 -0.29019807760E+02 -0.36616238322E+02  0.85953044167E+02  0.19787577910E+03  0.17200000000E+03 0.  1.
         -6    1    1    2    0  502  0.29019807760E+02  0.36616238322E+02  0.20976954457E+03  0.27526380071E+03  0.17200000000E+03 0. -1.
<mgrwt>
<rscale>  2 0.17823271E+03</rscale>
<asrwt>0</asrwt>
<pdfrwt beam="1">  1       21 0.96107767E-01 0.17823271E+03</pdfrwt>
<pdfrwt beam="2">  1       21 0.22177125E-01 0.17823271E+03</pdfrwt>
<totfact> 0.17299256E+04</totfact>
</mgrwt>
</event>
<event>
 4    1  0.1086582E+000  0.2018694E+03  0.7546771E-02  0.1148171E+00
         21   -1    0    0  503  502  0.00000000000E+00  0.00000000000E+00  0.10251008002E+04  0.10251008002E+04  0.00000000000E+00 0.  1.
         21   -1    0    0  501  503 -0.00000000000E+00 -0.00000000000E+00 -0.55870818780E+02  0.55870818780E+02  0.00000000000E+00 0.  1.
          6    1    1    2  501    0 -0.98587219468E+02  0.38050158040E+02  0.19432011975E+03  0.28019914938E+03  0.17200000000E+03 0.  1.
         -6    1    1    2    0  502  0.98587219468E+02 -0.38050158040E+02  0.77490986164E+03  0.80077246958E+03  0.17200000000E+03 0.  1.
<mgrwt>
<rscale>  2 0.20186940E+03</rscale>
<asrwt>0</asrwt>
<pdfrwt beam="1">  1       21 0.25627514E+00 0.20186940E+03</pdfrwt>
<pdfrwt beam="2">  1       21 0.13967708E-01 0.20186940E+03</pdfrwt>
<totfact> 0.27000186E+03</totfact>
</mgrwt>
</event>
<event>
 4    1  0.1086582E+000  0.2816364E+03  0.7546771E-02  0.1094799E+00
         21   -1    0    0  501  502  0.00000000000E+00  0.00000000000E+00  0.63936085689E+03  0.63936085689E+03  0.00000000000E+00 0.  1.
         21   -1    0    0  502  503 -0.00000000000E+00 -0.00000000000E+00 -0.25787370969E+03  0.25787370969E+03  0.00000000000E+00 0.  1.
          6    1    1    2  501    0 -0.18507283318E+03  0.12443116953E+03  0.51390749534E+03  0.58602046321E+03  0.17200000000E+03 0.  1.
         -6    1    1    2    0  503  0.18507283318E+03 -0.12443116953E+03 -0.13242034814E+03  0.31121410337E+03  0.17200000000E+03 0.  1.
<mgrwt>
<rscale>  2 0.28163641E+03</rscale>
<asrwt>0</asrwt>
<pdfrwt beam="1">  1       21 0.15984021E+00 0.28163641E+03</pdfrwt>
<pdfrwt beam="2">  1       21 0.64468429E-01 0.28163641E+03</pdfrwt>
<totfact> 0.51439085E+02</totfact>
</mgrwt>
</event>
<event>
 4    1  0.1086582E+000  0.1947637E+03  0.7546771E-02  0.1154234E+00
         21   -1    0    0  503  502  0.00000000000E+00  0.00000000000E+00  0.56063070827E+02  0.56063070827E+02  0.00000000000E+00 0. -1.
         21   -1    0    0  501  503 -0.00000000000E+00 -0.00000000000E+00 -0.68648109795E+03  0.68648109795E+03  0.00000000000E+00 0. -1.
          6    1    1    2  501    0 -0.58061613061E+02 -0.70553218917E+02 -0.27069138845E+03  0.33347673891E+03  0.17200000000E+03 0. -1.
         -6    1    1    2    0  502  0.58061613061E+02  0.70553218917E+02 -0.35972663867E+03  0.40906742987E+03  0.17200000000E+03 0. -1.
<mgrwt>
<rscale>  2 0.19476372E+03</rscale>
<asrwt>0</asrwt>
<pdfrwt beam="1">  1       21 0.14015768E-01 0.19476372E+03</pdfrwt>
<pdfrwt beam="2">  1       21 0.17162027E+00 0.19476372E+03</pdfrwt>
<totfact> 0.92087266E+03</totfact>
</mgrwt>
</event>
<event>
 4    1  0.1086582E+000  0.1980261E+03  0.7546771E-02  0.1151415E+00
         21   -1    0    0  503  502  0.00000000000E+00  0.00000000000E+00  0.36784745507E+03  0.36784745507E+03  0.00000000000E+00 0.  1.
         21   -1    0    0  501  503 -0.00000000000E+00 -0.00000000000E+00 -0.12938901773E+03  0.12938901773E+03  0.00000000000E+00 0. -1.
          6    1    1    2  501    0  0.62075915379E+02  0.76005991242E+02  0.14901269250E+02  0.19858594563E+03  0.17200000000E+03 0.  1.
         -6    1    1    2    0  502 -0.62075915379E+02 -0.76005991242E+02  0.22355716809E+03  0.29865052717E+03  0.17200000000E+03 0.  1.
<mgrwt>
<rscale>  2 0.19802608E+03</rscale>
<asrwt>0</asrwt>
<pdfrwt beam="1">  1       21 0.91961862E-01 0.19802608E+03</pdfrwt>
<pdfrwt beam="2">  1       21 0.32347255E-01 0.19802608E+03</pdfrwt>
<totfact> 0.91538780E+03</totfact>
</mgrwt>
</event>
<event>
 4    1  0.1086582E+000  0.2467955E+03  0.7546771E-02  0.1115347E+00
         21   -1    0    0  503  502  0.00000000000E+00  0.00000000000E+00  0.45495073965E+03  0.45495073965E+03  0.00000000000E+00 0.  1.
         21   -1    0    0  501  503 -0.00000000000E+00 -0.00000000000E+00 -0.15350815131E+03  0.15350815131E+03  0.00000000000E+00 0.  1.
          6    1    1    2  501    0  0.17203077307E+03 -0.41586605645E+02  0.41930034692E+02  0.25033210034E+03  0.17200000000E+03 0.  1.
         -6    1    1    2    0  502 -0.17203077307E+03  0.41586605645E+02  0.25951255365E+03  0.35812679061E+03  0.17200000000E+03 0.  1.
<mgrwt>
<rscale>  2 0.24679553E+03</rscale>
<asrwt>0</asrwt>
<pdfrwt beam="1">  1       21 0.11373768E+00 0.24679553E+03</pdfrwt>
<pdfrwt beam="2">  1       21 0.38377039E-01 0.24679553E+03</pdfrwt>
<totfact> 0.37845628E+03</totfact>
</mgrwt>
</event>
<event>
 4    1  0.1086582E+000  0.2302837E+03  0.7546771E-02  0.1126440E+00
         21   -1    0    0  501  502  0.00000000000E+00  0.00000000000E+00  0.11602053769E+03  0.11602053769E+03  0.00000000000E+00 0.  1.
         21   -1    0    0  502  503 -0.00000000000E+00 -0.00000000000E+00 -0.46855837545E+03  0.46855837545E+03  0.00000000000E+00 0. -1.
          6    1    1    2  501    0 -0.81644449616E+02 -0.12954060869E+03 -0.22201826241E+03  0.31987918703E+03  0.17200000000E+03 0. -1.
         -6    1    1    2    0  503  0.81644449616E+02  0.12954060869E+03 -0.13051957535E+03  0.26469972611E+03  0.17200000000E+03 0.  1.
<mgrwt>
<rscale>  2 0.23028371E+03</rscale>
<asrwt>0</asrwt>
<pdfrwt beam="1">  1       21 0.29005135E-01 0.23028371E+03</pdfrwt>
<pdfrwt beam="2">  1       21 0.11713959E+00 0.23028371E+03</pdfrwt>
<totfact> 0.62032739E+03</totfact>
</mgrwt>
</event>
<event>
 4    1  0.1086582E+000  0.2162886E+03  0.7546771E-02  0.1136681E+00
         21   -1    0    0  503  502  0.00000000000E+00  0.00000000000E+00  0.34040699056E+03  0.34040699056E+03  0.00000000000E+00 0.  1.
         21   -1    0    0  501  503 -0.00000000000E+00 -0.00000000000E+00 -0.14779977662E+03  0.14779977662E+03  0.00000000000E+00 0.  1.
          6    1    1    2  501    0  0.12222029246E+03 -0.47528447840E+02  0.16097414195E+03  0.26961718717E+03  0.17200000000E+03 0.  1.
         -6    1    1    2    0  502 -0.12222029246E+03  0.47528447840E+02  0.31633071992E+02  0.21858958000E+03  0.17200000000E+03 0.  1.
<mgrwt>
<rscale>  2 0.21628859E+03</rscale>
<asrwt>0</asrwt>
<pdfrwt beam="1">  1       21 0.85101746E-01 0.21628859E+03</pdfrwt>
<pdfrwt beam="2">  1       21 0.36949945E-01 0.21628859E+03</pdfrwt>
<totfact> 0.83025486E+03</totfact>
</mgrwt>
</event>
<event>
 4    1  0.1086582E+000  0.1982085E+03  0.7546771E-02  0.1151259E+00
         21   -1    0    0  501  502  0.00000000000E+00  0.00000000000E+00  0.15534119463E+03  0.15534119463E+03  0.00000000000E+00 0.  1.
         21   -1    0    0  502  503 -0.00000000000E+00 -0.00000000000E+00 -0.27444798715E+03  0.27444798715E+03  0.00000000000E+00 0.  1.
          6    1    1    2  501    0  0.86724700996E+02 -0.46705857717E+02  0.65338781252E+00  0.19820958055E+03  0.17200000000E+03 0.  1.
         -6    1    1    2    0  503 -0.86724700996E+02  0.46705857717E+02 -0.11976018034E+03  0.23157960122E+03  0.17200000000E+03 0.  1.
<mgrwt>
<rscale>  2 0.19820850E+03</rscale>
<asrwt>0</asrwt>
<pdfrwt beam="1">  1       21 0.38835299E-01 0.19820850E+03</pdfrwt>
<pdfrwt beam="2">  1       21 0.68611996E-01 0.19820850E+03</pdfrwt>
<totfact> 0.12334294E+04</totfact>
</mgrwt>
</event>
<event>
 4    1  0.1086582E+000  0.2607630E+03  0.7546771E-02  0.1106686E+00
         21   -1    0    0  503  502  0.00000000000E+00  0.00000000000E+00  0.47552656258E+03  0.47552656258E+03  0.00000000000E+00 0. -1.
         21   -1    0    0  501  503 -0.00000000000E+00 -0.00000000000E+00 -0.14312216772E+03  0.14312216772E+03  0.00000000000E+00 0.  1.
          6    1    1    2  501    0 -0.31534915907E+02  0.19343964557E+03  0.15693819838E+03  0.30434675209E+03  0.17200000000E+03 0. -1.
         -6    1    1    2    0  502  0.31534915907E+02 -0.19343964557E+03  0.17546619649E+03  0.31430197821E+03  0.17200000000E+03 0.  1.
<mgrwt>
<rscale>  2 0.26076301E+03</rscale>
<asrwt>0</asrwt>
<pdfrwt beam="1">  1       21 0.11888164E+00 0.26076301E+03</pdfrwt>
<pdfrwt beam="2">  1       21 0.35780543E-01 0.26076301E+03</pdfrwt>
<totfact> 0.38718106E+03</totfact>
</mgrwt>
</event>
<event>
 4    1  0.1086582E+000  0.1926742E+03  0.7546771E-02  0.1156071E+00
         21   -1    0    0  503  502  0.00000000000E+00  0.00000000000E+00  0.56296051850E+03  0.56296051850E+03  0.00000000000E+00 0.  1.
         21   -1    0    0  501  503 -0.00000000000E+00 -0.00000000000E+00 -0.66210467239E+02  0.66210467239E+02  0.00000000000E+00 0.  1.
          6    1    1    2  501    0  0.81159208789E+02  0.30862895949E+02  0.26836753585E+03  0.33037020116E+03  0.17200000000E+03 0. -1.
         -6    1    1    2    0  502 -0.81159208789E+02 -0.30862895949E+02  0.22838251541E+03  0.29880078457E+03  0.17200000000E+03 0. -1.
<mgrwt>
<rscale>  2 0.19267417E+03</rscale>
<asrwt>0</asrwt>
<pdfrwt beam="1">  1       21 0.14074012E+00 0.19267417E+03</pdfrwt>
<pdfrwt beam="2">  1       21 0.16552618E-01 0.19267417E+03</pdfrwt>
<totfact> 0.11565571E+04</totfact>
</mgrwt>
</event>
<event>
 4    1  0.1086582E+000  0.1813548E+03  0.7546771E-02  0.1166498E+00
         21   -1    0    0  503  502  0.00000000000E+00  0.00000000000E+00  0.44371225656E+03  0.44371225656E+03  0.00000000000E+00 0.  1.
         21   -1    0    0  501  503 -0.00000000000E+00 -0.00000000000E+00 -0.81872459355E+02  0.81872459355E+02  0.00000000000E+00 0.  1.
          6    1    1    2  501    0  0.36803957747E+02  0.44170420697E+02  0.10007321195E+03  0.20713330278E+03  0.17200000000E+03 0.  1.
         -6    1    1    2    0  502 -0.36803957747E+02 -0.44170420697E+02  0.26176658526E+03  0.31845141313E+03  0.17200000000E+03 0.  1.
<mgrwt>
<rscale>  2 0.18135478E+03</rscale>
<asrwt>0</asrwt>
<pdfrwt beam="1">  1       21 0.11092806E+00 0.18135478E+03</pdfrwt>
<pdfrwt beam="2">  1       21 0.20468116E-01 0.18135478E+03</pdfrwt>
<totfact> 0.14254401E+04</totfact>
</mgrwt>
</event>
<event>
 4    1  0.1086582E+000  0.1892858E+03  0.7546771E-02  0.1159107E+00
         21   -1    0    0  503  502  0.00000000000E+00  0.00000000000E+00  0.41343813845E+02  0.41343813845E+02  0.00000000000E+00 0. -1.
         21   -1    0    0  501  503 -0.00000000000E+00 -0.00000000000E+00 -0.87031491116E+03  0.87031491116E+03  0.00000000000E+00 0. -1.
          6    1    1    2  501    0  0.39065666761E+02 -0.68694834183E+02 -0.44421238427E+03  0.48285996821E+03  0.17200000000E+03 0. -1.
         -6    1    1    2    0  502 -0.39065666761E+02  0.68694834183E+02 -0.38475871304E+03  0.42879875679E+03  0.17200000000E+03 0. -1.
<mgrwt>
<rscale>  2 0.18928578E+03</rscale>
<asrwt>0</asrwt>
<pdfrwt beam="1">  1       21 0.10335953E-01 0.18928578E+03</pdfrwt>
<pdfrwt beam="2">  1       21 0.21757873E+00 0.18928578E+03</pdfrwt>
<totfact> 0.79928570E+03</totfact>
</mgrwt>
</event>
<event>
 4    1  0.1086582E+000  0.1925200E+03  0.7546771E-02  0.1156208E+00
         21   -1    0    0  501  502  0.00000000000E+00  0.00000000000E+00  0.71369964515E+03  0.71369964515E+03  0.00000000000E+00 0.  1.
         21   -1    0    0  502  503 -0.00000000000E+00 -0.00000000000E+00 -0.54045076555E+02  0.54045076555E+02  0.00000000000E+00 0.  1.
          6    1    1    2  501    0  0.23585706084E+02  0.83208501814E+02  0.40572931302E+03  0.44908820486E+03  0.17200000000E+03 0.  1.
         -6    1    1    2    0  503 -0.23585706084E+02 -0.83208501814E+02  0.25392525558E+03  0.31865651684E+03  0.17200000000E+03 0.  1.
<mgrwt>
<rscale>  2 0.19251997E+03</rscale>
<asrwt>0</asrwt>
<pdfrwt beam="1">  1       21 0.17842488E+00 0.19251997E+03</pdfrwt>
<pdfrwt beam="2">  1       21 0.13511271E-01 0.19251997E+03</pdfrwt>
<totfact> 0.88451592E+03</totfact>
</mgrwt>
</event>
<event>
 4    1  0.1086582E+000  0.2427779E+03  0.7546771E-02  0.1117956E+00
         21   -1    0    0  503  502  0.00000000000E+00  0.00000000000E+00  0.26322573112E+03  0.26322573112E+03  0.00000000000E+00 0.  1.
         21   -1    0    0  501  503 -0.00000000000E+00 -0.00000000000E+00 -0.31599774186E+03  0.31599774186E+03  0.00000000000E+00 0.  1.
          6    1    1    2  501    0  0.13259897564E+03 -0.10851099155E+03 -0.18272053857E+03  0.30385509514E+03  0.17200000000E+03 0.  1.
         -6    1    1    2    0  502 -0.13259897564E+03  0.10851099155E+03  0.12994852783E+03  0.27536837784E+03  0.17200000000E+03 0.  1.
<mgrwt>
<rscale>  2 0.24277793E+03</rscale>
<asrwt>0</asrwt>
<pdfrwt beam="1">  1       21 0.65806433E-01 0.24277793E+03</pdfrwt>
<pdfrwt beam="2">  1       21 0.78999435E-01 0.24277793E+03</pdfrwt>
<totfact> 0.28870978E+03</totfact>
</mgrwt>
</event>
<event>
 4    1  0.1086582E+000  0.1786809E+03  0.7546771E-02  0.1169086E+00
         21   -1    0    0  503  502  0.00000000000E+00  0.00000000000E+00  0.76061815083E+03  0.76061815083E+03  0.00000000000E+00 0. -1.
         21   -1    0    0  501  503 -0.00000000000E+00 -0.00000000000E+00 -0.73382536208E+02  0.73382536208E+02  0.00000000000E+00 0. -1.
          6    1    1    2  501    0  0.37207471107E+02  0.30958952486E+02  0.70809340329E+02  0.19219993580E+03  0.17200000000E+03 0. -1.
         -6    1    1    2    0  502 -0.37207471107E+02 -0.30958952486E+02  0.61642627429E+03  0.64180075123E+03  0.17200000000E+03 0. -1.
<mgrwt>
<rscale>  2 0.17868087E+03</rscale>
<asrwt>0</asrwt>
<pdfrwt beam="1">  1       21 0.19015451E+00 0.17868087E+03</pdfrwt>
<pdfrwt beam="2">  1       21 0.18345636E-01 0.17868087E+03</pdfrwt>
<totfact> 0.42741659E+03</totfact>
</mgrwt>
</event>
<event>
 4    1  0.1086582E+000  0.2234907E+03  0.7546771E-02  0.1131307E+00
         21   -1    0    0  503  502  0.00000000000E+00  0.00000000000E+00  0.75283054060E+02  0.75283054060E+02  0.00000000000E+00 0. -1.
         21   -1    0    0  501  503 -0.00000000000E+00 -0.00000000000E+00 -0.68046398539E+03  0.68046398539E+03  0.00000000000E+00 0. -1.
          6    1    1    2  501    0  0.10699375359E+03 -0.94426909735E+02 -0.24287567957E+03  0.33005560185E+03  0.17200000000E+03 0. -1.
         -6    1    1    2    0  502 -0.10699375359E+03  0.94426909735E+02 -0.36230525176E+03  0.42569143760E+03  0.17200000000E+03 0. -1.
<mgrwt>
<rscale>  2 0.22349073E+03</rscale>
<asrwt>0</asrwt>
<pdfrwt beam="1">  1       21 0.18820764E-01 0.22349073E+03</pdfrwt>
<pdfrwt beam="2">  1       21 0.17011600E+00 0.22349073E+03</pdfrwt>
<totfact> 0.53672837E+03</totfact>
</mgrwt>
</event>
<event>
 4    1  0.1086582E+000  0.1785077E+03  0.7546771E-02  0.1169255E+00
         21   -1    0    0  501  502  0.00000000000E+00  0.00000000000E+00  0.63881994754E+03  0.63881994754E+03  0.00000000000E+00 0. -1.
         21   -1    0    0  502  503 -0.00000000000E+00 -0.00000000000E+00 -0.10082625881E+03  0.10082625881E+03  0.00000000000E+00 0. -1.
          6    1    1    2  501    0 -0.40074475689E+02 -0.25981631875E+02  0.53187765884E+03  0.56103373586E+03  0.17200000000E+03 0. -1.
         -6    1    1    2    0  503  0.40074475689E+02  0.25981631875E+02  0.61160298931E+01  0.17861247050E+03  0.17200000000E+03 0. -1.
<mgrwt>
<rscale>  2 0.17850773E+03</rscale>
<asrwt>0</asrwt>
<pdfrwt beam="1">  1       21 0.15970498E+00 0.17850773E+03</pdfrwt>
<pdfrwt beam="2">  1       21 0.25206567E-01 0.17850773E+03</pdfrwt>
<totfact> 0.38207093E+03</totfact>
</mgrwt>
</event>
<event>
 4    1  0.1086582E+000  0.2034124E+03  0.7546771E-02  0.1146892E+00
         21   -1    0    0  503  502  0.00000000000E+00  0.00000000000E+00  0.20916322383E+03  0.20916322383E+03  0.00000000000E+00 0.  1.
         21   -1    0    0  501  503 -0.00000000000E+00 -0.00000000000E+00 -0.21125767536E+03  0.21125767536E+03  0.00000000000E+00 0.  1.
          6    1    1    2  501    0  0.99086876316E+02  0.44434005964E+02 -0.54064357459E+02  0.21047457018E+03  0.17200000000E+03 0.  1.
         -6    1    1    2    0  502 -0.99086876316E+02 -0.44434005964E+02  0.51969905921E+02  0.20994632901E+03  0.17200000000E+03 0.  1.
<mgrwt>
<rscale>  2 0.20341236E+03</rscale>
<asrwt>0</asrwt>
<pdfrwt beam="1">  1       21 0.52290806E-01 0.20341236E+03</pdfrwt>
<pdfrwt beam="2">  1       21 0.52814419E-01 0.20341236E+03</pdfrwt>
<totfact> 0.11703831E+04</totfact>
</mgrwt>
</event>
<event>
 4    1  0.1086582E+000  0.2194667E+03  0.7546771E-02  0.1134281E+00
         21   -1    0    0  503  502  0.00000000000E+00  0.00000000000E+00  0.24934902317E+03  0.24934902317E+03  0.00000000000E+00 0.  1.
         21   -1    0    0  501  503 -0.00000000000E+00 -0.00000000000E+00 -0.32168426623E+03  0.32168426623E+03  0.00000000000E+00 0.  1.
          6    1    1    2  501    0  0.24782971204E+02 -0.13404265065E+03 -0.21663545358E+03  0.30837728127E+03  0.17200000000E+03 0.  1.
         -6    1    1    2    0  502 -0.24782971204E+02  0.13404265065E+03  0.14430021051E+03  0.26265600814E+03  0.17200000000E+03 0.  1.
<mgrwt>
<rscale>  2 0.21946669E+03</rscale>
<asrwt>0</asrwt>
<pdfrwt beam="1">  1       21 0.62337256E-01 0.21946669E+03</pdfrwt>
<pdfrwt beam="2">  1       21 0.80421066E-01 0.21946669E+03</pdfrwt>
<totfact> 0.31736809E+03</totfact>
</mgrwt>
</event>
<event>
 4    1  0.1086582E+000  0.1811287E+03  0.7546771E-02  0.1166715E+00
         21   -1    0    0  501  502  0.00000000000E+00  0.00000000000E+00  0.12458790957E+03  0.12458790957E+03  0.00000000000E+00 0.  1.
         21   -1    0    0  502  503 -0.00000000000E+00 -0.00000000000E+00 -0.44582427968E+03  0.44582427968E+03  0.00000000000E+00 0.  1.
          6    1    1    2  501    0 -0.56770695004E+02  0.83504341473E+00  0.21856560375E+02  0.18244264397E+03  0.17200000000E+03 0.  1.
         -6    1    1    2    0  503  0.56770695004E+02 -0.83504341473E+00 -0.34309293049E+03  0.38796954527E+03  0.17200000000E+03 0.  1.
<mgrwt>
<rscale>  2 0.18112871E+03</rscale>
<asrwt>0</asrwt>
<pdfrwt beam="1">  1       21 0.31146978E-01 0.18112871E+03</pdfrwt>
<pdfrwt beam="2">  1       21 0.11145607E+00 0.18112871E+03</pdfrwt>
<totfact> 0.63217014E+03</totfact>
</mgrwt>
</event>
<event>
 4    1  0.1086582E+000  0.1920757E+03  0.7546771E-02  0.1156602E+00
         21   -1    0    0  501  502  0.00000000000E+00  0.00000000000E+00  0.30223680315E+03  0.30223680315E+03  0.00000000000E+00 0. -1.
         21   -1    0    0  502  503 -0.00000000000E+00 -0.00000000000E+00 -0.12416322968E+03  0.12416322968E+03  0.00000000000E+00 0. -1.
          6    1    1    2  501    0 -0.61533087080E+02 -0.59352698859E+02  0.11674039109E+03  0.22476962112E+03  0.17200000000E+03 0. -1.
         -6    1    1    2    0  503  0.61533087080E+02  0.59352698859E+02  0.61333182376E+02  0.20163041171E+03  0.17200000000E+03 0. -1.
<mgrwt>
<rscale>  2 0.19207567E+03</rscale>
<asrwt>0</asrwt>
<pdfrwt beam="1">  1       21 0.75559199E-01 0.19207567E+03</pdfrwt>
<pdfrwt beam="2">  1       21 0.31040808E-01 0.19207567E+03</pdfrwt>
<totfact> 0.15596502E+04</totfact>
</mgrwt>
</event>
<event>
 4    1  0.1086582E+000  0.2252833E+03  0.7546771E-02  0.1130004E+00
         21   -1    0    0  503  502  0.00000000000E+00  0.00000000000E+00  0.19485319923E+03  0.19485319923E+03  0.00000000000E+00 0. -1.
         21   -1    0    0  501  503 -0.00000000000E+00 -0.00000000000E+00 -0.31253514508E+03  0.31253514508E+03  0.00000000000E+00 0.  1.
          6    1    1    2  501    0  0.20818931183E+02 -0.14399706051E+03 -0.16239152001E+03  0.27771133773E+03  0.17200000000E+03 0.  1.
         -6    1    1    2    0  502 -0.20818931183E+02  0.14399706051E+03  0.44709574151E+02  0.22967700658E+03  0.17200000000E+03 0. -1.
<mgrwt>
<rscale>  2 0.22528334E+03</rscale>
<asrwt>0</asrwt>
<pdfrwt beam="1">  1       21 0.48713300E-01 0.22528334E+03</pdfrwt>
<pdfrwt beam="2">  1       21 0.78133786E-01 0.22528334E+03</pdfrwt>
<totfact> 0.56980323E+03</totfact>
</mgrwt>
</event>
<event>
 4    1  0.1086582E+000  0.1820735E+03  0.7546771E-02  0.1165811E+00
         21   -1    0    0  503  502  0.00000000000E+00  0.00000000000E+00  0.45726501419E+03  0.45726501419E+03  0.00000000000E+00 0.  1.
         21   -1    0    0  501  503 -0.00000000000E+00 -0.00000000000E+00 -0.23937314593E+03  0.23937314593E+03  0.00000000000E+00 0.  1.
          6    1    1    2  501    0 -0.50334293777E+02  0.32143658104E+02 -0.18188158786E+03  0.25735513962E+03  0.17200000000E+03 0.  1.
         -6    1    1    2    0  502  0.50334293777E+02 -0.32143658104E+02  0.39977345611E+03  0.43928302050E+03  0.17200000000E+03 0.  1.
<mgrwt>
<rscale>  2 0.18207349E+03</rscale>
<asrwt>0</asrwt>
<pdfrwt beam="1">  1       21 0.11431625E+00 0.18207349E+03</pdfrwt>
<pdfrwt beam="2">  1       21 0.59843287E-01 0.18207349E+03</pdfrwt>
<totfact> 0.15661029E+03</totfact>
</mgrwt>
</event>
<event>
 4    1  0.1086582E+000  0.2140928E+03  0.7546771E-02  0.1138365E+00
         21   -1    0    0  501  502  0.00000000000E+00  0.00000000000E+00  0.97780523002E+02  0.97780523002E+02  0.00000000000E+00 0.  1.
         21   -1    0    0  502  503 -0.00000000000E+00 -0.00000000000E+00 -0.54939240033E+03  0.54939240033E+03  0.00000000000E+00 0.  1.
          6    1    1    2  501    0  0.50558846564E+02  0.11702791026E+03 -0.10184061704E+03  0.23708066144E+03  0.17200000000E+03 0.  1.
         -6    1    1    2    0  503 -0.50558846564E+02 -0.11702791026E+03 -0.34977126028E+03  0.41009226189E+03  0.17200000000E+03 0.  1.
<mgrwt>
<rscale>  2 0.21409280E+03</rscale>
<asrwt>0</asrwt>
<pdfrwt beam="1">  1       21 0.24445131E-01 0.21409280E+03</pdfrwt>
<pdfrwt beam="2">  1       21 0.13734810E+00 0.21409280E+03</pdfrwt>
<totfact> 0.58434347E+03</totfact>
</mgrwt>
</event>
<event>
 4    1  0.1086582E+000  0.1777307E+03  0.7546771E-02  0.1170017E+00
         21   -1    0    0  503  502  0.00000000000E+00  0.00000000000E+00  0.25296141701E+03  0.25296141701E+03  0.00000000000E+00 0. -1.
         21   -1    0    0  501  503 -0.00000000000E+00 -0.00000000000E+00 -0.37244471377E+03  0.37244471377E+03  0.00000000000E+00 0. -1.
          6    1    1    2  501    0  0.40049202411E+02  0.20006978435E+02 -0.31468938724E+03  0.36141060893E+03  0.17200000000E+03 0. -1.
         -6    1    1    2    0  502 -0.40049202411E+02 -0.20006978435E+02  0.19520609048E+03  0.26399552185E+03  0.17200000000E+03 0. -1.
<mgrwt>
<rscale>  2 0.17773075E+03</rscale>
<asrwt>0</asrwt>
<pdfrwt beam="1">  1       21 0.63240355E-01 0.17773075E+03</pdfrwt>
<pdfrwt beam="2">  1       21 0.93111178E-01 0.17773075E+03</pdfrwt>
<totfact> 0.22768312E+03</totfact>
</mgrwt>
</event>
<event>
 4    1  0.1086582E+000  0.2119634E+03  0.7546771E-02  0.1140021E+00
         21   -1    0    0  503  502  0.00000000000E+00  0.00000000000E+00  0.13016863837E+03  0.13016863837E+03  0.00000000000E+00 0. -1.
         21   -1    0    0  501  503 -0.00000000000E+00 -0.00000000000E+00 -0.42969096875E+03  0.42969096875E+03  0.00000000000E+00 0.  1.
          6    1    1    2  501    0  0.34737645714E+02 -0.11890247950E+03 -0.27392321876E+03  0.34635593460E+03  0.17200000000E+03 0.  1.
         -6    1    1    2    0  502 -0.34737645714E+02  0.11890247950E+03 -0.25599111617E+02  0.21350367251E+03  0.17200000000E+03 0. -1.
<mgrwt>
<rscale>  2 0.21196345E+03</rscale>
<asrwt>0</asrwt>
<pdfrwt beam="1">  1       21 0.32542160E-01 0.21196345E+03</pdfrwt>
<pdfrwt beam="2">  1       21 0.10742274E+00 0.21196345E+03</pdfrwt>
<totfact> 0.61935483E+03</totfact>
</mgrwt>
</event>
<event>
 4    1  0.1086582E+000  0.1812378E+03  0.7546771E-02  0.1166610E+00
         21   -1    0    0  503  502  0.00000000000E+00  0.00000000000E+00  0.39392946643E+03  0.39392946643E+03  0.00000000000E+00 0. -1.
         21   -1    0    0  501  503 -0.00000000000E+00 -0.00000000000E+00 -0.92959587802E+02  0.92959587802E+02  0.00000000000E+00 0.  1.
          6    1    1    2  501    0 -0.10082380232E+02 -0.56227177932E+02  0.72348992394E+02  0.19514488625E+03  0.17200000000E+03 0.  1.
         -6    1    1    2    0  502  0.10082380232E+02  0.56227177932E+02  0.22862088624E+03  0.29174416798E+03  0.17200000000E+03 0. -1.
<mgrwt>
<rscale>  2 0.18123783E+03</rscale>
<asrwt>0</asrwt>
<pdfrwt beam="1">  1       21 0.98482362E-01 0.18123783E+03</pdfrwt>
<pdfrwt beam="2">  1       21 0.23239898E-01 0.18123783E+03</pdfrwt>
<totfact> 0.14924550E+04</totfact>
</mgrwt>
</event>
<event>
 4    1  0.1086582E+000  0.1802285E+03  0.7546771E-02  0.1167582E+00
         21   -1    0    0  501  502  0.00000000000E+00  0.00000000000E+00  0.20481891935E+03  0.20481891935E+03  0.00000000000E+00 0.  1.
         21   -1    0    0  502  503 -0.00000000000E+00 -0.00000000000E+00 -0.38810853029E+03  0.38810853029E+03  0.00000000000E+00 0.  1.
          6    1    1    2  501    0  0.50152234533E+02  0.19572406292E+02  0.13633869256E+03  0.22598797491E+03  0.17200000000E+03 0.  1.
         -6    1    1    2    0  503 -0.50152234533E+02 -0.19572406292E+02 -0.31962830350E+03  0.36693947473E+03  0.17200000000E+03 0.  1.
<mgrwt>
<rscale>  2 0.18022854E+03</rscale>
<asrwt>0</asrwt>
<pdfrwt beam="1">  1       21 0.51204730E-01 0.18022854E+03</pdfrwt>
<pdfrwt beam="2">  1       21 0.97027131E-01 0.18022854E+03</pdfrwt>
<totfact> 0.32307048E+03</totfact>
</mgrwt>
</event>
<event>
 4    1  0.1086582E+000  0.1758253E+03  0.7546771E-02  0.1171906E+00
         21   -1    0    0  501  502  0.00000000000E+00  0.00000000000E+00  0.19507722426E+03  0.19507722426E+03  0.00000000000E+00 0. -1.
         21   -1    0    0  502  503 -0.00000000000E+00 -0.00000000000E+00 -0.35251631838E+03  0.35251631838E+03  0.00000000000E+00 0. -1.
          6    1    1    2  501    0  0.58573170816E+00 -0.36472020986E+02 -0.28185587905E+03  0.33220067422E+03  0.17200000000E+03 0. -1.
         -6    1    1    2    0  503 -0.58573170816E+00  0.36472020986E+02  0.12441678493E+03  0.21539286842E+03  0.17200000000E+03 0. -1.
<mgrwt>
<rscale>  2 0.17582534E+03</rscale>
<asrwt>0</asrwt>
<pdfrwt beam="1">  1       21 0.48769307E-01 0.17582534E+03</pdfrwt>
<pdfrwt beam="2">  1       21 0.88129079E-01 0.17582534E+03</pdfrwt>
<totfact> 0.44875396E+03</totfact>
</mgrwt>
</event>
<event>
 4    1  0.1086582E+000  0.1903673E+03  0.7546771E-02  0.1158130E+00
         21   -1    0    0  501  502  0.00000000000E+00  0.00000000000E+00  0.84302880234E+02  0.84302880234E+02  0.00000000000E+00 0. -1.
         21   -1    0    0  502  503 -0.00000000000E+00 -0.00000000000E+00 -0.52209277708E+03  0.52209277708E+03  0.00000000000E+00 0.  1.
          6    1    1    2  501    0 -0.76155133352E+02  0.29259507353E+02 -0.91468687009E+02  0.21120190295E+03  0.17200000000E+03 0. -1.
         -6    1    1    2    0  503  0.76155133352E+02 -0.29259507353E+02 -0.34632120984E+03  0.39519375436E+03  0.17200000000E+03 0.  1.
<mgrwt>
<rscale>  2 0.19036734E+03</rscale>
<asrwt>0</asrwt>
<pdfrwt beam="1">  1       21 0.21075720E-01 0.19036734E+03</pdfrwt>
<pdfrwt beam="2">  1       21 0.13052319E+00 0.19036734E+03</pdfrwt>
<totfact> 0.89696343E+03</totfact>
</mgrwt>
</event>
<event>
 4    1  0.1086582E+000  0.2282551E+03  0.7546771E-02  0.1127874E+00
         21   -1    0    0  503  502  0.00000000000E+00  0.00000000000E+00  0.34598466393E+03  0.34598466393E+03  0.00000000000E+00 0. -1.
         21   -1    0    0  501  503 -0.00000000000E+00 -0.00000000000E+00 -0.16187277988E+03  0.16187277988E+03  0.00000000000E+00 0. -1.
          6    1    1    2  501    0  0.72268144810E+02 -0.13150555786E+03  0.25003788949E+02  0.22962052601E+03  0.17200000000E+03 0. -1.
         -6    1    1    2    0  502 -0.72268144810E+02  0.13150555786E+03  0.15910809510E+03  0.27823691781E+03  0.17200000000E+03 0. -1.
<mgrwt>
<rscale>  2 0.22825511E+03</rscale>
<asrwt>0</asrwt>
<pdfrwt beam="1">  1       21 0.86496165E-01 0.22825511E+03</pdfrwt>
<pdfrwt beam="2">  1       21 0.40468196E-01 0.22825511E+03</pdfrwt>
<totfact> 0.66041976E+03</totfact>
</mgrwt>
</event>
<event>
 4    1  0.1086582E+000  0.1893763E+03  0.7546771E-02  0.1159025E+00
         21   -1    0    0  503  502  0.00000000000E+00  0.00000000000E+00  0.79834851358E+03  0.79834851358E+03  0.00000000000E+00 0. -1.
         21   -1    0    0  501  503 -0.00000000000E+00 -0.00000000000E+00 -0.61567934647E+02  0.61567934647E+02  0.00000000000E+00 0. -1.
          6    1    1    2  501    0  0.30514778751E+02 -0.73131518090E+02  0.14482533022E+03  0.23840668391E+03  0.17200000000E+03 0. -1.
         -6    1    1    2    0  502 -0.30514778751E+02  0.73131518090E+02  0.59195524872E+03  0.62150976432E+03  0.17200000000E+03 0. -1.
<mgrwt>
<rscale>  2 0.18937627E+03</rscale>
<asrwt>0</asrwt>
<pdfrwt beam="1">  1       21 0.19958710E+00 0.18937627E+03</pdfrwt>
<pdfrwt beam="2">  1       21 0.15391986E-01 0.18937627E+03</pdfrwt>
<totfact> 0.50714769E+03</totfact>
</mgrwt>
</event>
<event>
 4    1  0.1086582E+000  0.1888353E+03  0.7546771E-02  0.1159516E+00
         21   -1    0    0  501  502  0.00000000000E+00  0.00000000000E+00  0.40016272121E+03  0.40016272121E+03  0.00000000000E+00 0. -1.
         21   -1    0    0  502  503 -0.00000000000E+00 -0.00000000000E+00 -0.17883686246E+03  0.17883686246E+03  0.00000000000E+00 0. -1.
          6    1    1    2  501    0  0.60047175280E+02  0.49689942908E+02  0.31572221591E+03  0.36788486148E+03  0.17200000000E+03 0. -1.
         -6    1    1    2    0  503 -0.60047175280E+02 -0.49689942908E+02 -0.94396357150E+02  0.21111472220E+03  0.17200000000E+03 0. -1.
<mgrwt>
<rscale>  2 0.18883526E+03</rscale>
<asrwt>0</asrwt>
<pdfrwt beam="1">  1       21 0.10004068E+00 0.18883526E+03</pdfrwt>
<pdfrwt beam="2">  1       21 0.44709216E-01 0.18883526E+03</pdfrwt>
<totfact> 0.39511218E+03</totfact>
</mgrwt>
</event>
<event>
 4    1  0.1086582E+000  0.1818151E+03  0.7546771E-02  0.1166058E+00
         21   -1    0    0  503  502  0.00000000000E+00  0.00000000000E+00  0.13956608632E+03  0.13956608632E+03  0.00000000000E+00 0.  1.
         21   -1    0    0  501  503 -0.00000000000E+00 -0.00000000000E+00 -0.27753674864E+03  0.27753674864E+03  0.00000000000E+00 0. -1.
          6    1    1    2  501    0 -0.19126413984E+02 -0.55739660663E+02 -0.14883262390E+03  0.23496357041E+03  0.17200000000E+03 0. -1.
         -6    1    1    2    0  502  0.19126413984E+02  0.55739660663E+02  0.10861961577E+02  0.18213926455E+03  0.17200000000E+03 0.  1.
<mgrwt>
<rscale>  2 0.18181510E+03</rscale>
<asrwt>0</asrwt>
<pdfrwt beam="1">  1       21 0.34891522E-01 0.18181510E+03</pdfrwt>
<pdfrwt beam="2">  1       21 0.69384186E-01 0.18181510E+03</pdfrwt>
<totfact> 0.15063431E+04</totfact>
</mgrwt>
</event>
<event>
 4    1  0.1086582E+000  0.1897381E+03  0.7546771E-02  0.1158698E+00
         21   -1    0    0  503  502  0.00000000000E+00  0.00000000000E+00  0.32898753268E+03  0.32898753268E+03  0.00000000000E+00 0.  1.
         21   -1    0    0  501  503 -0.00000000000E+00 -0.00000000000E+00 -0.11621866762E+03  0.11621866762E+03  0.00000000000E+00 0.  1.
          6    1    1    2  501    0  0.80042275096E+02 -0.31270474659E+01  0.52577266450E+02  0.19688807271E+03  0.17200000000E+03 0.  1.
         -6    1    1    2    0  502 -0.80042275096E+02  0.31270474659E+01  0.16019159861E+03  0.24831812759E+03  0.17200000000E+03 0.  1.
<mgrwt>
<rscale>  2 0.18973809E+03</rscale>
<asrwt>0</asrwt>
<pdfrwt beam="1">  1       21 0.82246881E-01 0.18973809E+03</pdfrwt>
<pdfrwt beam="2">  1       21 0.29054668E-01 0.18973809E+03</pdfrwt>
<totfact> 0.14676707E+04</totfact>
</mgrwt>
</event>
<event>
 4    1  0.1086582E+000  0.1872146E+03  0.7546771E-02  0.1160998E+00
         21   -1    0    0  503  502  0.00000000000E+00  0.00000000000E+00  0.75863961805E+03  0.75863961805E+03  0.00000000000E+00 0.  1.
         21   -1    0    0  501  503 -0.00000000000E+00 -0.00000000000E+00 -0.67863700598E+02  0.67863700598E+02  0.00000000000E+00 0.  1.
          6    1    1    2  501    0 -0.58497146991E+02  0.45203940393E+02  0.11190240335E+03  0.21810882675E+03  0.17200000000E+03 0.  1.
         -6    1    1    2    0  502  0.58497146991E+02 -0.45203940393E+02  0.57887351411E+03  0.60839449189E+03  0.17200000000E+03 0.  1.
<mgrwt>
<rscale>  2 0.18721462E+03</rscale>
<asrwt>0</asrwt>
<pdfrwt beam="1">  1       21 0.18965988E+00 0.18721462E+03</pdfrwt>
<pdfrwt beam="2">  1       21 0.16965928E-01 0.18721462E+03</pdfrwt>
<totfact> 0.49336344E+03</totfact>
</mgrwt>
</event>
<event>
 4    1  0.1086582E+000  0.2706180E+03  0.7546771E-02  0.1100926E+00
         21   -1    0    0  501  502  0.00000000000E+00  0.00000000000E+00  0.47827350740E+03  0.47827350740E+03  0.00000000000E+00 0.  1.
         21   -1    0    0  502  503 -0.00000000000E+00 -0.00000000000E+00 -0.16620695620E+03  0.16620695620E+03  0.00000000000E+00 0. -1.
          6    1    1    2  501    0  0.14514547896E+03 -0.15027607215E+03  0.24644908114E+03  0.36602084301E+03  0.17200000000E+03 0.  1.
         -6    1    1    2    0  503 -0.14514547896E+03  0.15027607215E+03  0.65617470057E+02  0.27845962059E+03  0.17200000000E+03 0. -1.
<mgrwt>
<rscale>  2 0.27061801E+03</rscale>
<asrwt>0</asrwt>
<pdfrwt beam="1">  1       21 0.11956837E+00 0.27061801E+03</pdfrwt>
<pdfrwt beam="2">  1       21 0.41551740E-01 0.27061801E+03</pdfrwt>
<totfact> 0.28013577E+03</totfact>
</mgrwt>
</event>
<event>
 4    1  0.1086582E+000  0.1800319E+03  0.7546771E-02  0.1167772E+00
         21   -1    0    0  501  502  0.00000000000E+00  0.00000000000E+00  0.10092915705E+03  0.10092915705E+03  0.00000000000E+00 0.  1.
         21   -1    0    0  502  503 -0.00000000000E+00 -0.00000000000E+00 -0.37766453195E+03  0.37766453195E+03  0.00000000000E+00 0.  1.
          6    1    1    2  501    0  0.22080956782E+02 -0.48372534429E+02 -0.23095198305E+03  0.29283150311E+03  0.17200000000E+03 0.  1.
         -6    1    1    2    0  503 -0.22080956782E+02  0.48372534429E+02 -0.45783391853E+02  0.18576218590E+03  0.17200000000E+03 0.  1.
<mgrwt>
<rscale>  2 0.18003186E+03</rscale>
<asrwt>0</asrwt>
<pdfrwt beam="1">  1       21 0.25232290E-01 0.18003186E+03</pdfrwt>
<pdfrwt beam="2">  1       21 0.94416132E-01 0.18003186E+03</pdfrwt>
<totfact> 0.14102994E+04</totfact>
</mgrwt>
</event>
<event>
 4    1  0.1086582E+000  0.1911035E+03  0.7546771E-02  0.1157470E+00
         21   -1    0    0  503  502  0.00000000000E+00  0.00000000000E+00  0.17627204627E+03  0.17627204627E+03  0.00000000000E+00 0. -1.
         21   -1    0    0  501  503 -0.00000000000E+00 -0.00000000000E+00 -0.21005013598E+03  0.21005013598E+03  0.00000000000E+00 0. -1.
          6    1    1    2  501    0  0.80835711545E+02 -0.20053017569E+02  0.56791904520E+01  0.19118783690E+03  0.17200000000E+03 0.  1.
         -6    1    1    2    0  502 -0.80835711545E+02  0.20053017569E+02 -0.39457280162E+02  0.19513434534E+03  0.17200000000E+03 0.  1.
<mgrwt>
<rscale>  2 0.19110347E+03</rscale>
<asrwt>0</asrwt>
<pdfrwt beam="1">  1       21 0.44068012E-01 0.19110347E+03</pdfrwt>
<pdfrwt beam="2">  1       21 0.52512534E-01 0.19110347E+03</pdfrwt>
<totfact> 0.17026817E+04</totfact>
</mgrwt>
</event>
<event>
 4    1  0.1086582E+000  0.1770716E+03  0.7546771E-02  0.1170668E+00
         21   -1    0    0  503  502  0.00000000000E+00  0.00000000000E+00  0.47660767603E+03  0.47660767603E+03  0.00000000000E+00 0. -1.
         21   -1    0    0  501  503 -0.00000000000E+00 -0.00000000000E+00 -0.65829996871E+02  0.65829996871E+02  0.00000000000E+00 0. -1.
          6    1    1    2  501    0 -0.34173766797E+02 -0.24545639887E+02  0.21236321893E+03  0.27650040059E+03  0.17200000000E+03 0.  1.
         -6    1    1    2    0  502  0.34173766797E+02  0.24545639887E+02  0.19841446024E+03  0.26593727231E+03  0.17200000000E+03 0.  1.
<mgrwt>
<rscale>  2 0.17707155E+03</rscale>
<asrwt>0</asrwt>
<pdfrwt beam="1">  1       21 0.11915191E+00 0.17707155E+03</pdfrwt>
<pdfrwt beam="2">  1       21 0.16457501E-01 0.17707155E+03</pdfrwt>
<totfact> 0.17979372E+04</totfact>
</mgrwt>
</event>
<event>
 4    1  0.1086582E+000  0.1846331E+03  0.7546771E-02  0.1163393E+00
         21   -1    0    0  503  502  0.00000000000E+00  0.00000000000E+00  0.46258354955E+02  0.46258354955E+02  0.00000000000E+00 0. -1.
         21   -1    0    0  501  503 -0.00000000000E+00 -0.00000000000E+00 -0.98836143183E+03  0.98836143183E+03  0.00000000000E+00 0.  1.
          6    1    1    2  501    0 -0.48896251104E+02 -0.45983975108E+02 -0.73196647564E+03  0.75489356257E+03  0.17200000000E+03 0.  1.
         -6    1    1    2    0  502  0.48896251104E+02  0.45983975108E+02 -0.21013660123E+03  0.27972622422E+03  0.17200000000E+03 0.  1.
<mgrwt>
<rscale>  2 0.18463307E+03</rscale>
<asrwt>0</asrwt>
<pdfrwt beam="1">  1       21 0.11564589E-01 0.18463307E+03</pdfrwt>
<pdfrwt beam="2">  1       21 0.24709035E+00 0.18463307E+03</pdfrwt>
<totfact> 0.43734438E+03</totfact>
</mgrwt>
</event>
<event>
 4    1  0.1086582E+000  0.1870123E+03  0.7546771E-02  0.1161184E+00
         21   -1    0    0  503  502  0.00000000000E+00  0.00000000000E+00  0.17012497614E+03  0.17012497614E+03  0.00000000000E+00 0. -1.
         21   -1    0    0  501  503 -0.00000000000E+00 -0.00000000000E+00 -0.66010400980E+03  0.66010400980E+03  0.00000000000E+00 0. -1.
          6    1    1    2  501    0 -0.72718805101E+02  0.10077675451E+02 -0.58945214824E+03  0.61840716298E+03  0.17200000000E+03 0. -1.
         -6    1    1    2    0  502  0.72718805101E+02 -0.10077675451E+02  0.99473114575E+02  0.21182182296E+03  0.17200000000E+03 0. -1.
<mgrwt>
<rscale>  2 0.18701226E+03</rscale>
<asrwt>0</asrwt>
<pdfrwt beam="1">  1       21 0.42531244E-01 0.18701226E+03</pdfrwt>
<pdfrwt beam="2">  1       21 0.16502600E+00 0.18701226E+03</pdfrwt>
<totfact> 0.12383270E+03</totfact>
</mgrwt>
</event>
<event>
 4    1  0.1086582E+000  0.2371854E+03  0.7546771E-02  0.1121682E+00
         21   -1    0    0  501  502  0.00000000000E+00  0.00000000000E+00  0.32804034990E+02  0.32804034990E+02  0.00000000000E+00 0.  1.
         21   -1    0    0  502  503 -0.00000000000E+00 -0.00000000000E+00 -0.18419068848E+04  0.18419068848E+04  0.00000000000E+00 0. -1.
          6    1    1    2  501    0  0.32606592920E+02 -0.16003033762E+03 -0.65844754073E+03  0.69986431738E+03  0.17200000000E+03 0.  1.
         -6    1    1    2    0  503 -0.32606592920E+02  0.16003033762E+03 -0.11506553090E+04  0.11748466024E+04  0.17200000000E+03 0. -1.
<mgrwt>
<rscale>  2 0.23718537E+03</rscale>
<asrwt>0</asrwt>
<pdfrwt beam="1">  1       21 0.82010089E-02 0.23718537E+03</pdfrwt>
<pdfrwt beam="2">  1       21 0.46047671E+00 0.23718537E+03</pdfrwt>
<totfact> 0.38001360E+02</totfact>
</mgrwt>
</event>
<event>
 4    1  0.1086582E+000  0.1793823E+03  0.7546771E-02  0.1168402E+00
         21   -1    0    0  501  502  0.00000000000E+00  0.00000000000E+00  0.44597514480E+03  0.44597514480E+03  0.00000000000E+00 0. -1.
         21   -1    0    0  502  503 -0.00000000000E+00 -0.00000000000E+00 -0.93384475779E+02  0.93384475779E+02  0.00000000000E+00 0. -1.
          6    1    1    2  501    0 -0.26772403083E+02  0.43327374061E+02  0.30488641742E+03  0.35374249171E+03  0.17200000000E+03 0. -1.
         -6    1    1    2    0  503  0.26772403083E+02 -0.43327374061E+02  0.47704251595E+02  0.18561712887E+03  0.17200000000E+03 0. -1.
<mgrwt>
<rscale>  2 0.17938234E+03</rscale>
<asrwt>0</asrwt>
<pdfrwt beam="1">  1       21 0.11149378E+00 0.17938234E+03</pdfrwt>
<pdfrwt beam="2">  1       21 0.23346120E-01 0.17938234E+03</pdfrwt>
<totfact> 0.11009101E+04</totfact>
</mgrwt>
</event>
<event>
 4    1  0.1086582E+000  0.1858219E+03  0.7546771E-02  0.1162285E+00
         21   -1    0    0  503  502  0.00000000000E+00  0.00000000000E+00  0.80480163477E+02  0.80480163477E+02  0.00000000000E+00 0.  1.
         21   -1    0    0  501  503 -0.00000000000E+00 -0.00000000000E+00 -0.44433661382E+03  0.44433661382E+03  0.00000000000E+00 0.  1.
          6    1    1    2  501    0  0.69604685586E+02  0.10047276165E+02 -0.23060504093E+03  0.29615611578E+03  0.17200000000E+03 0.  1.
         -6    1    1    2    0  502 -0.69604685586E+02 -0.10047276165E+02 -0.13325140942E+03  0.22866066152E+03  0.17200000000E+03 0.  1.
<mgrwt>
<rscale>  2 0.18582185E+03</rscale>
<asrwt>0</asrwt>
<pdfrwt beam="1">  1       21 0.20120041E-01 0.18582185E+03</pdfrwt>
<pdfrwt beam="2">  1       21 0.11108415E+00 0.18582185E+03</pdfrwt>
<totfact> 0.14624323E+04</totfact>
</mgrwt>
</event>
<event>
 4    1  0.1086582E+000  0.1918918E+03  0.7546771E-02  0.1156766E+00
         21   -1    0    0  503  502  0.00000000000E+00  0.00000000000E+00  0.79291626700E+02  0.79291626700E+02  0.00000000000E+00 0. -1.
         21   -1    0    0  501  503 -0.00000000000E+00 -0.00000000000E+00 -0.48654807422E+03  0.48654807422E+03  0.00000000000E+00 0. -1.
          6    1    1    2  501    0 -0.79928461371E+02  0.29152933146E+02 -0.26400085523E+03  0.32637233953E+03  0.17200000000E+03 0. -1.
         -6    1    1    2    0  502  0.79928461371E+02 -0.29152933146E+02 -0.14325559229E+03  0.23946736139E+03  0.17200000000E+03 0. -1.
<mgrwt>
<rscale>  2 0.19189177E+03</rscale>
<asrwt>0</asrwt>
<pdfrwt beam="1">  1       21 0.19822907E-01 0.19189177E+03</pdfrwt>
<pdfrwt beam="2">  1       21 0.12163702E+00 0.19189177E+03</pdfrwt>
<totfact> 0.11990919E+04</totfact>
</mgrwt>
</event>
<event>
 4    1  0.1086582E+000  0.2056734E+03  0.7546771E-02  0.1145039E+00
         21   -1    0    0  503  502  0.00000000000E+00  0.00000000000E+00  0.25844219939E+03  0.25844219939E+03  0.00000000000E+00 0.  1.
         21   -1    0    0  501  503 -0.00000000000E+00 -0.00000000000E+00 -0.46626146598E+03  0.46626146598E+03  0.00000000000E+00 0. -1.
          6    1    1    2  501    0  0.10091988665E+03  0.50326175347E+02 -0.39581199968E+03  0.44605906172E+03  0.17200000000E+03 0. -1.
         -6    1    1    2    0  502 -0.10091988665E+03 -0.50326175347E+02  0.18799273310E+03  0.27864460365E+03  0.17200000000E+03 0.  1.
<mgrwt>
<rscale>  2 0.20567340E+03</rscale>
<asrwt>0</asrwt>
<pdfrwt beam="1">  1       21 0.64610550E-01 0.20567340E+03</pdfrwt>
<pdfrwt beam="2">  1       21 0.11656537E+00 0.20567340E+03</pdfrwt>
<totfact> 0.12367749E+03</totfact>
</mgrwt>
</event>
<event>
 4    1  0.1086582E+000  0.2312744E+03  0.7546771E-02  0.1125746E+00
         21   -1    0    0  503  502  0.00000000000E+00  0.00000000000E+00  0.88629468125E+03  0.88629468125E+03  0.00000000000E+00 0. -1.
         21   -1    0    0  501  503 -0.00000000000E+00 -0.00000000000E+00 -0.90123446782E+02  0.90123446782E+02  0.00000000000E+00 0. -1.
          6    1    1    2  501    0  0.82157649081E+02 -0.13097317187E+03  0.11747650473E+03  0.25940042447E+03  0.17200000000E+03 0. -1.
         -6    1    1    2    0  502 -0.82157649081E+02  0.13097317187E+03  0.67869472974E+03  0.71701770357E+03  0.17200000000E+03 0. -1.
<mgrwt>
<rscale>  2 0.23127441E+03</rscale>
<asrwt>0</asrwt>
<pdfrwt beam="1">  1       21 0.22157364E+00 0.23127441E+03</pdfrwt>
<pdfrwt beam="2">  1       21 0.22530864E-01 0.23127441E+03</pdfrwt>
<totfact> 0.17451691E+03</totfact>
</mgrwt>
</event>
<event>
 4    1  0.1086582E+000  0.2337416E+03  0.7546771E-02  0.1124034E+00
         21   -1    0    0  501  502  0.00000000000E+00  0.00000000000E+00  0.93595498228E+02  0.93595498228E+02  0.00000000000E+00 0. -1.
         21   -1    0    0  502  503 -0.00000000000E+00 -0.00000000000E+00 -0.64903828699E+03  0.64903828699E+03  0.00000000000E+00 0. -1.
          6    1    1    2  501    0 -0.88611499031E+02 -0.13114554995E+03 -0.39550111008E+03  0.45940862106E+03  0.17200000000E+03 0. -1.
         -6    1    1    2    0  503  0.88611499031E+02  0.13114554995E+03 -0.15994167868E+03  0.28322516415E+03  0.17200000000E+03 0. -1.
<mgrwt>
<rscale>  2 0.23374164E+03</rscale>
<asrwt>0</asrwt>
<pdfrwt beam="1">  1       21 0.23398875E-01 0.23374164E+03</pdfrwt>
<pdfrwt beam="2">  1       21 0.16225957E+00 0.23374164E+03</pdfrwt>
<totfact> 0.40238768E+03</totfact>
</mgrwt>
</event>
<event>
 4    1  0.1086582E+000  0.1790842E+03  0.7546771E-02  0.1168692E+00
         21   -1    0    0  503  502  0.00000000000E+00  0.00000000000E+00  0.42766467928E+02  0.42766467928E+02  0.00000000000E+00 0. -1.
         21   -1    0    0  501  503 -0.00000000000E+00 -0.00000000000E+00 -0.96337241823E+03  0.96337241823E+03  0.00000000000E+00 0. -1.
          6    1    1    2  501    0  0.28237818221E+02  0.41106718934E+02 -0.69710659767E+03  0.71974213802E+03  0.17200000000E+03 0. -1.
         -6    1    1    2    0  502 -0.28237818221E+02 -0.41106718934E+02 -0.22349935263E+03  0.28639674814E+03  0.17200000000E+03 0. -1.
<mgrwt>
<rscale>  2 0.17908416E+03</rscale>
<asrwt>0</asrwt>
<pdfrwt beam="1">  1       21 0.10691617E-01 0.17908416E+03</pdfrwt>
<pdfrwt beam="2">  1       21 0.24084309E+00 0.17908416E+03</pdfrwt>
<totfact> 0.55056833E+03</totfact>
</mgrwt>
</event>
<event>
 4    1  0.1086582E+000  0.3332805E+03  0.7546771E-02  0.1069695E+00
         21   -1    0    0  503  502  0.00000000000E+00  0.00000000000E+00  0.85754725635E+03  0.85754725635E+03  0.00000000000E+00 0. -1.
         21   -1    0    0  501  503 -0.00000000000E+00 -0.00000000000E+00 -0.24801562519E+03  0.24801562519E+03  0.00000000000E+00 0. -1.
          6    1    1    2  501    0  0.12121196818E+03  0.25845607057E+03 -0.77311713905E+02  0.34213006701E+03  0.17200000000E+03 0. -1.
         -6    1    1    2    0  502 -0.12121196818E+03 -0.25845607057E+03  0.68684334507E+03  0.76343281453E+03  0.17200000000E+03 0. -1.
<mgrwt>
<rscale>  2 0.33328048E+03</rscale>
<asrwt>0</asrwt>
<pdfrwt beam="1">  1       21 0.21438681E+00 0.33328048E+03</pdfrwt>
<pdfrwt beam="2">  1       21 0.62003908E-01 0.33328048E+03</pdfrwt>
<totfact> 0.22840984E+02</totfact>
</mgrwt>
</event>
<event>
 4    1  0.1086582E+000  0.1753716E+03  0.7546771E-02  0.1172359E+00
         21   -1    0    0  501  502  0.00000000000E+00  0.00000000000E+00  0.40487578490E+03  0.40487578490E+03  0.00000000000E+00 0.  1.
         21   -1    0    0  502  503 -0.00000000000E+00 -0.00000000000E+00 -0.76044987210E+02  0.76044987210E+02  0.00000000000E+00 0.  1.
          6    1    1    2  501    0  0.27632994916E+02  0.20189727852E+02  0.15647578272E+03  0.23503165340E+03  0.17200000000E+03 0.  1.
         -6    1    1    2    0  503 -0.27632994916E+02 -0.20189727852E+02  0.17235501497E+03  0.24588911872E+03  0.17200000000E+03 0.  1.
<mgrwt>
<rscale>  2 0.17537163E+03</rscale>
<asrwt>0</asrwt>
<pdfrwt beam="1">  1       21 0.10121894E+00 0.17537163E+03</pdfrwt>
<pdfrwt beam="2">  1       21 0.19011248E-01 0.17537163E+03</pdfrwt>
<totfact> 0.20455310E+04</totfact>
</mgrwt>
</event>
<event>
 4    1  0.1086582E+000  0.1797565E+03  0.7546771E-02  0.1168039E+00
         21   -1    0    0  501  502  0.00000000000E+00  0.00000000000E+00  0.17087869225E+03  0.17087869225E+03  0.00000000000E+00 0.  1.
         21   -1    0    0  502  503 -0.00000000000E+00 -0.00000000000E+00 -0.34472177883E+03  0.34472177883E+03  0.00000000000E+00 0.  1.
          6    1    1    2  501    0  0.11655433394E+02  0.50917195231E+02  0.86295358793E+02  0.19939733912E+03  0.17200000000E+03 0.  1.
         -6    1    1    2    0  503 -0.11655433394E+02 -0.50917195231E+02 -0.26013844537E+03  0.31620313196E+03  0.17200000000E+03 0.  1.
<mgrwt>
<rscale>  2 0.17975653E+03</rscale>
<asrwt>0</asrwt>
<pdfrwt beam="1">  1       21 0.42719673E-01 0.17975653E+03</pdfrwt>
<pdfrwt beam="2">  1       21 0.86180444E-01 0.17975653E+03</pdfrwt>
<totfact> 0.61801794E+03</totfact>
</mgrwt>
</event>
<event>
 4    1  0.1086582E+000  0.1983561E+03  0.7546771E-02  0.1151133E+00
         21   -1    0    0  503  502  0.00000000000E+00  0.00000000000E+00  0.22350087731E+03  0.22350087731E+03  0.00000000000E+00 0.  1.
         21   -1    0    0  501  503 -0.00000000000E+00 -0.00000000000E+00 -0.87865815393E+03  0.87865815393E+03  0.00000000000E+00 0. -1.
          6    1    1    2  501    0  0.95157896885E+02 -0.26572637691E+02 -0.82037095709E+03  0.84401044878E+03  0.17200000000E+03 0. -1.
         -6    1    1    2    0  502 -0.95157896885E+02  0.26572637691E+02  0.16521368047E+03  0.25814858246E+03  0.17200000000E+03 0.  1.
<mgrwt>
<rscale>  2 0.19835607E+03</rscale>
<asrwt>0</asrwt>
<pdfrwt beam="1">  1       21 0.55875220E-01 0.19835607E+03</pdfrwt>
<pdfrwt beam="2">  1       21 0.21966454E+00 0.19835607E+03</pdfrwt>
<totfact> 0.30263737E+02</totfact>
</mgrwt>
</event>
<event>
 4    1  0.1086582E+000  0.1758413E+03  0.7546771E-02  0.1171890E+00
         21   -1    0    0  503  502  0.00000000000E+00  0.00000000000E+00  0.32911597653E+03  0.32911597653E+03  0.00000000000E+00 0.  1.
         21   -1    0    0  501  503 -0.00000000000E+00 -0.00000000000E+00 -0.98819729038E+02  0.98819729038E+02  0.00000000000E+00 0.  1.
          6    1    1    2  501    0  0.35749588894E+02 -0.76237692313E+01  0.67645398587E+02  0.18840396735E+03  0.17200000000E+03 0. -1.
         -6    1    1    2    0  502 -0.35749588894E+02  0.76237692313E+01  0.16265084890E+03  0.23953173821E+03  0.17200000000E+03 0. -1.
<mgrwt>
<rscale>  2 0.17584128E+03</rscale>
<asrwt>0</asrwt>
<pdfrwt beam="1">  1       21 0.82278992E-01 0.17584128E+03</pdfrwt>
<pdfrwt beam="2">  1       21 0.24704933E-01 0.17584128E+03</pdfrwt>
<totfact> 0.20201627E+04</totfact>
</mgrwt>
</event>
<event>
 4    1  0.1086582E+000  0.1773431E+03  0.7546771E-02  0.1170399E+00
         21   -1    0    0  503  502  0.00000000000E+00  0.00000000000E+00  0.11161157518E+03  0.11161157518E+03  0.00000000000E+00 0.  1.
         21   -1    0    0  501  503 -0.00000000000E+00 -0.00000000000E+00 -0.39073949187E+03  0.39073949187E+03  0.00000000000E+00 0.  1.
          6    1    1    2  501    0  0.41520426105E+02  0.11943318625E+02 -0.27219772097E+03  0.32487257185E+03  0.17200000000E+03 0.  1.
         -6    1    1    2    0  502 -0.41520426105E+02 -0.11943318625E+02 -0.69301957198E+01  0.17747849519E+03  0.17200000000E+03 0.  1.
<mgrwt>
<rscale>  2 0.17734314E+03</rscale>
<asrwt>0</asrwt>
<pdfrwt beam="1">  1       21 0.27902894E-01 0.17734314E+03</pdfrwt>
<pdfrwt beam="2">  1       21 0.97684872E-01 0.17734314E+03</pdfrwt>
<totfact> 0.10757835E+04</totfact>
</mgrwt>
</event>
<event>
 4    1  0.1086582E+000  0.4272525E+03  0.7546771E-02  0.1034731E+00
         21   -1    0    0  503  502  0.00000000000E+00  0.00000000000E+00  0.64045542541E+03  0.64045542541E+03  0.00000000000E+00 0. -1.
         21   -1    0    0  501  503 -0.00000000000E+00 -0.00000000000E+00 -0.75084031873E+03  0.75084031873E+03  0.00000000000E+00 0.  1.
          6    1    1    2  501    0 -0.23952998826E+03  0.30917002636E+03 -0.60312025583E+03  0.73912026320E+03  0.17200000000E+03 0.  1.
         -6    1    1    2    0  502  0.23952998826E+03 -0.30917002636E+03  0.49273536251E+03  0.65217548094E+03  0.17200000000E+03 0. -1.
<mgrwt>
<rscale>  2 0.42725253E+03</rscale>
<asrwt>0</asrwt>
<pdfrwt beam="1">  1       21 0.16011386E+00 0.42725253E+03</pdfrwt>
<pdfrwt beam="2">  1       21 0.18771008E+00 0.42725253E+03</pdfrwt>
<totfact> 0.31836424E+01</totfact>
</mgrwt>
</event>
<event>
 4    1  0.1086582E+000  0.2095950E+03  0.7546771E-02  0.1141887E+00
         21   -1    0    0  501  502  0.00000000000E+00  0.00000000000E+00  0.35247230091E+03  0.35247230091E+03  0.00000000000E+00 0. -1.
         21   -1    0    0  502  503 -0.00000000000E+00 -0.00000000000E+00 -0.64103466392E+03  0.64103466392E+03  0.00000000000E+00 0. -1.
          6    1    1    2  501    0  0.10143497647E+03  0.63694709085E+02  0.30157368783E+03  0.36725571419E+03  0.17200000000E+03 0. -1.
         -6    1    1    2    0  503 -0.10143497647E+03 -0.63694709085E+02 -0.59013605085E+03  0.62625125064E+03  0.17200000000E+03 0. -1.
<mgrwt>
<rscale>  2 0.20959502E+03</rscale>
<asrwt>0</asrwt>
<pdfrwt beam="1">  1       21 0.88118076E-01 0.20959502E+03</pdfrwt>
<pdfrwt beam="2">  1       21 0.16025866E+00 0.20959502E+03</pdfrwt>
<totfact> 0.27085728E+02</totfact>
</mgrwt>
</event>
<event>
 4    1  0.1086582E+000  0.2082705E+03  0.7546771E-02  0.1142943E+00
         21   -1    0    0  501  502  0.00000000000E+00  0.00000000000E+00  0.26590637383E+03  0.26590637383E+03  0.00000000000E+00 0. -1.
         21   -1    0    0  502  503 -0.00000000000E+00 -0.00000000000E+00 -0.17079639445E+03  0.17079639445E+03  0.00000000000E+00 0.  1.
          6    1    1    2  501    0 -0.11243934050E+03 -0.33911511640E+02  0.93823752558E+02  0.22842830923E+03  0.17200000000E+03 0.  1.
         -6    1    1    2    0  503  0.11243934050E+03  0.33911511640E+02  0.12862268175E+01  0.20827445905E+03  0.17200000000E+03 0. -1.
<mgrwt>
<rscale>  2 0.20827049E+03</rscale>
<asrwt>0</asrwt>
<pdfrwt beam="1">  1       21 0.66476593E-01 0.20827049E+03</pdfrwt>
<pdfrwt beam="2">  1       21 0.42699099E-01 0.20827049E+03</pdfrwt>
<totfact> 0.10834412E+04</totfact>
</mgrwt>
</event>
<event>
 4    1  0.1086582E+000  0.1776027E+03  0.7546771E-02  0.1170144E+00
         21   -1    0    0  503  502  0.00000000000E+00  0.00000000000E+00  0.97018856643E+02  0.97018856643E+02  0.00000000000E+00 0. -1.
         21   -1    0    0  501  503 -0.00000000000E+00 -0.00000000000E+00 -0.32523457749E+03  0.32523457749E+03  0.00000000000E+00 0. -1.
          6    1    1    2  501    0 -0.18365530418E+02 -0.40267032707E+02 -0.11807843276E+03  0.21327269613E+03  0.17200000000E+03 0. -1.
         -6    1    1    2    0  502  0.18365530418E+02  0.40267032707E+02 -0.11013728809E+03  0.20898073801E+03  0.17200000000E+03 0. -1.
<mgrwt>
<rscale>  2 0.17760272E+03</rscale>
<asrwt>0</asrwt>
<pdfrwt beam="1">  1       21 0.24254714E-01 0.17760272E+03</pdfrwt>
<pdfrwt beam="2">  1       21 0.81308644E-01 0.17760272E+03</pdfrwt>
<totfact> 0.21466306E+04</totfact>
</mgrwt>
</event>
<event>
 4    1  0.1086582E+000  0.2464650E+03  0.7546771E-02  0.1115559E+00
         21   -1    0    0  503  502  0.00000000000E+00  0.00000000000E+00  0.37235904851E+02  0.37235904851E+02  0.00000000000E+00 0. -1.
         21   -1    0    0  501  503 -0.00000000000E+00 -0.00000000000E+00 -0.19662221538E+04  0.19662221538E+04  0.00000000000E+00 0.  1.
          6    1    1    2  501    0  0.29999944927E+02 -0.17395685008E+03 -0.13778928587E+04  0.13997620199E+04  0.17200000000E+03 0.  1.
         -6    1    1    2    0  502 -0.29999944927E+02  0.17395685008E+03 -0.55109339023E+03  0.60369603870E+03  0.17200000000E+03 0. -1.
<mgrwt>
<rscale>  2 0.24646497E+03</rscale>
<asrwt>0</asrwt>
<pdfrwt beam="1">  1       21 0.93089769E-02 0.24646497E+03</pdfrwt>
<pdfrwt beam="2">  1       21 0.49155550E+00 0.24646497E+03</pdfrwt>
<totfact> 0.18351631E+02</totfact>
</mgrwt>
</event>
<event>
 4    1  0.1086582E+000  0.1759910E+03  0.7546771E-02  0.1171740E+00
         21   -1    0    0  503  502  0.00000000000E+00  0.00000000000E+00  0.76917366984E+02  0.76917366984E+02  0.00000000000E+00 0.  1.
         21   -1    0    0  501  503 -0.00000000000E+00 -0.00000000000E+00 -0.66048872247E+03  0.66048872247E+03  0.00000000000E+00 0.  1.
          6    1    1    2  501    0  0.20891910968E+02  0.30860467099E+02 -0.52213954436E+03  0.55100140123E+03  0.17200000000E+03 0.  1.
         -6    1    1    2    0  502 -0.20891910968E+02 -0.30860467099E+02 -0.61431811125E+02  0.18640468822E+03  0.17200000000E+03 0.  1.
<mgrwt>
<rscale>  2 0.17599102E+03</rscale>
<asrwt>0</asrwt>
<pdfrwt beam="1">  1       21 0.19229342E-01 0.17599102E+03</pdfrwt>
<pdfrwt beam="2">  1       21 0.16512218E+00 0.17599102E+03</pdfrwt>
<totfact> 0.58235942E+03</totfact>
</mgrwt>
</event>
<event>
 4    1  0.1086582E+000  0.2660875E+03  0.7546771E-02  0.1103540E+00
         21   -1    0    0  501  502  0.00000000000E+00  0.00000000000E+00  0.34540729011E+03  0.34540729011E+03  0.00000000000E+00 0.  1.
         21   -1    0    0  502  503 -0.00000000000E+00 -0.00000000000E+00 -0.46913713730E+03  0.46913713730E+03  0.00000000000E+00 0.  1.
          6    1    1    2  501    0  0.19188619639E+03 -0.66319199535E+02  0.24374240112E+03  0.36085025523E+03  0.17200000000E+03 0.  1.
         -6    1    1    2    0  503 -0.19188619639E+03  0.66319199535E+02 -0.36747224831E+03  0.45369417218E+03  0.17200000000E+03 0.  1.
<mgrwt>
<rscale>  2 0.26608748E+03</rscale>
<asrwt>0</asrwt>
<pdfrwt beam="1">  1       21 0.86351823E-01 0.26608748E+03</pdfrwt>
<pdfrwt beam="2">  1       21 0.11728428E+00 0.26608748E+03</pdfrwt>
<totfact> 0.60299448E+02</totfact>
</mgrwt>
</event>
<event>
 4    1  0.1086582E+000  0.2563046E+03  0.7546771E-02  0.1109384E+00
         21   -1    0    0  503  502  0.00000000000E+00  0.00000000000E+00  0.22086541127E+03  0.22086541127E+03  0.00000000000E+00 0.  1.
         21   -1    0    0  501  503 -0.00000000000E+00 -0.00000000000E+00 -0.42432415234E+03  0.42432415234E+03  0.00000000000E+00 0. -1.
          6    1    1    2  501    0 -0.18962728489E+03  0.12228489462E+02 -0.27814169671E+03  0.37822592003E+03  0.17200000000E+03 0. -1.
         -6    1    1    2    0  502  0.18962728489E+03 -0.12228489462E+02  0.74682955640E+02  0.26696364358E+03  0.17200000000E+03 0. -1.
<mgrwt>
<rscale>  2 0.25630459E+03</rscale>
<asrwt>0</asrwt>
<pdfrwt beam="1">  1       21 0.55216354E-01 0.25630459E+03</pdfrwt>
<pdfrwt beam="2">  1       21 0.10608104E+00 0.25630459E+03</pdfrwt>
<totfact> 0.20952966E+03</totfact>
</mgrwt>
</event>
<event>
 4    1  0.1086582E+000  0.2157753E+03  0.7546771E-02  0.1137072E+00
         21   -1    0    0  503  502  0.00000000000E+00  0.00000000000E+00  0.11421618637E+04  0.11421618637E+04  0.00000000000E+00 0.  1.
         21   -1    0    0  501  503 -0.00000000000E+00 -0.00000000000E+00 -0.12607910916E+03  0.12607910916E+03  0.00000000000E+00 0.  1.
          6    1    1    2  501    0 -0.11894852476E+03 -0.53162373017E+02 -0.13589642155E+02  0.21620283953E+03  0.17200000000E+03 0.  1.
         -6    1    1    2    0  502  0.11894852476E+03  0.53162373017E+02  0.10296723967E+04  0.10520381333E+04  0.17200000000E+03 0.  1.
<mgrwt>
<rscale>  2 0.21577532E+03</rscale>
<asrwt>0</asrwt>
<pdfrwt beam="1">  1       21 0.28554043E+00 0.21577532E+03</pdfrwt>
<pdfrwt beam="2">  1       21 0.31519781E-01 0.21577532E+03</pdfrwt>
<totfact> 0.38759739E+02</totfact>
</mgrwt>
</event>
<event>
 4    1  0.1086582E+000  0.2097910E+03  0.7546771E-02  0.1141732E+00
         21   -1    0    0  501  502  0.00000000000E+00  0.00000000000E+00  0.24740242087E+03  0.24740242087E+03  0.00000000000E+00 0. -1.
         21   -1    0    0  502  503 -0.00000000000E+00 -0.00000000000E+00 -0.21768003110E+03  0.21768003110E+03  0.00000000000E+00 0. -1.
          6    1    1    2  501    0 -0.91860064881E+02 -0.77395099556E+02  0.11427274608E+03  0.23889439812E+03  0.17200000000E+03 0. -1.
         -6    1    1    2    0  503  0.91860064881E+02  0.77395099556E+02 -0.84550356308E+02  0.22618805386E+03  0.17200000000E+03 0. -1.
<mgrwt>
<rscale>  2 0.20979102E+03</rscale>
<asrwt>0</asrwt>
<pdfrwt beam="1">  1       21 0.61850605E-01 0.20979102E+03</pdfrwt>
<pdfrwt beam="2">  1       21 0.54420008E-01 0.20979102E+03</pdfrwt>
<totfact> 0.76481914E+03</totfact>
</mgrwt>
</event>
<event>
 4    1  0.1086582E+000  0.2062176E+03  0.7546771E-02  0.1144597E+00
         21   -1    0    0  501  502  0.00000000000E+00  0.00000000000E+00  0.20953695421E+03  0.20953695421E+03  0.00000000000E+00 0. -1.
         21   -1    0    0  502  503 -0.00000000000E+00 -0.00000000000E+00 -0.32952931969E+03  0.32952931969E+03  0.00000000000E+00 0. -1.
          6    1    1    2  501    0  0.94861023421E+02  0.62793906148E+02  0.10705331512E+03  0.23234909230E+03  0.17200000000E+03 0. -1.
         -6    1    1    2    0  503 -0.94861023421E+02 -0.62793906148E+02 -0.22704568060E+03  0.30671718161E+03  0.17200000000E+03 0. -1.
<mgrwt>
<rscale>  2 0.20621758E+03</rscale>
<asrwt>0</asrwt>
<pdfrwt beam="1">  1       21 0.52384239E-01 0.20621758E+03</pdfrwt>
<pdfrwt beam="2">  1       21 0.82382329E-01 0.20621758E+03</pdfrwt>
<totfact> 0.44004937E+03</totfact>
</mgrwt>
</event>
<event>
 4    1  0.1086582E+000  0.1957055E+03  0.7546771E-02  0.1153414E+00
         21   -1    0    0  503  502  0.00000000000E+00  0.00000000000E+00  0.11259402454E+03  0.11259402454E+03  0.00000000000E+00 0. -1.
         21   -1    0    0  501  503 -0.00000000000E+00 -0.00000000000E+00 -0.53617547071E+03  0.53617547071E+03  0.00000000000E+00 0. -1.
          6    1    1    2  501    0  0.62813116310E+02  0.69073485630E+02 -0.40792149084E+03  0.45243847834E+03  0.17200000000E+03 0. -1.
         -6    1    1    2    0  502 -0.62813116310E+02 -0.69073485630E+02 -0.15659955339E+02  0.19633101690E+03  0.17200000000E+03 0. -1.
<mgrwt>
<rscale>  2 0.19570548E+03</rscale>
<asrwt>0</asrwt>
<pdfrwt beam="1">  1       21 0.28148507E-01 0.19570548E+03</pdfrwt>
<pdfrwt beam="2">  1       21 0.13404387E+00 0.19570548E+03</pdfrwt>
<totfact> 0.48117001E+03</totfact>
</mgrwt>
</event>
<event>
 4    1  0.1086582E+000  0.2207791E+03  0.7546771E-02  0.1133304E+00
         21   -1    0    0  503  502  0.00000000000E+00  0.00000000000E+00  0.46136921419E+03  0.46136921419E+03  0.00000000000E+00 0.  1.
         21   -1    0    0  501  503 -0.00000000000E+00 -0.00000000000E+00 -0.11067056850E+03  0.11067056850E+03  0.00000000000E+00 0.  1.
          6    1    1    2  501    0 -0.11515413018E+03  0.76804524202E+02  0.11442651062E+03  0.24867013284E+03  0.17200000000E+03 0.  1.
         -6    1    1    2    0  502  0.11515413018E+03 -0.76804524202E+02  0.23627213507E+03  0.32336964985E+03  0.17200000000E+03 0.  1.
<mgrwt>
<rscale>  2 0.22077909E+03</rscale>
<asrwt>0</asrwt>
<pdfrwt beam="1">  1       21 0.11534230E+00 0.22077909E+03</pdfrwt>
<pdfrwt beam="2">  1       21 0.27667643E-01 0.22077909E+03</pdfrwt>
<totfact> 0.71087393E+03</totfact>
</mgrwt>
</event>
<event>
 4    1  0.1086582E+000  0.2020865E+03  0.7546771E-02  0.1147990E+00
         21   -1    0    0  503  502  0.00000000000E+00  0.00000000000E+00  0.14042856501E+03  0.14042856501E+03  0.00000000000E+00 0. -1.
         21   -1    0    0  501  503 -0.00000000000E+00 -0.00000000000E+00 -0.29526881637E+03  0.29526881637E+03  0.00000000000E+00 0. -1.
          6    1    1    2  501    0  0.44385624018E+02  0.96358001299E+02 -0.50669269145E+02  0.20834184138E+03  0.17200000000E+03 0. -1.
         -6    1    1    2    0  502 -0.44385624018E+02 -0.96358001299E+02 -0.10417098221E+03  0.22735554000E+03  0.17200000000E+03 0. -1.
<mgrwt>
<rscale>  2 0.20208649E+03</rscale>
<asrwt>0</asrwt>
<pdfrwt beam="1">  1       21 0.35107141E-01 0.20208649E+03</pdfrwt>
<pdfrwt beam="2">  1       21 0.73817204E-01 0.20208649E+03</pdfrwt>
<totfact> 0.12804459E+04</totfact>
</mgrwt>
</event>
<event>
 4    1  0.1086582E+000  0.1832172E+03  0.7546771E-02  0.1164725E+00
         21   -1    0    0  503  502  0.00000000000E+00  0.00000000000E+00  0.74163377996E+02  0.74163377996E+02  0.00000000000E+00 0.  1.
         21   -1    0    0  501  503 -0.00000000000E+00 -0.00000000000E+00 -0.46262573257E+03  0.46262573257E+03  0.00000000000E+00 0.  1.
          6    1    1    2  501    0 -0.61213686662E+02  0.15408687938E+02 -0.23368362370E+03  0.29694541432E+03  0.17200000000E+03 0.  1.
         -6    1    1    2    0  502  0.61213686662E+02 -0.15408687938E+02 -0.15477873088E+03  0.23984369625E+03  0.17200000000E+03 0.  1.
<mgrwt>
<rscale>  2 0.18321720E+03</rscale>
<asrwt>0</asrwt>
<pdfrwt beam="1">  1       21 0.18540845E-01 0.18321720E+03</pdfrwt>
<pdfrwt beam="2">  1       21 0.11565643E+00 0.18321720E+03</pdfrwt>
<totfact> 0.15463499E+04</totfact>
</mgrwt>
</event>
<event>
 4    1  0.1086582E+000  0.2315411E+03  0.7546771E-02  0.1125560E+00
         21   -1    0    0  501  502  0.00000000000E+00  0.00000000000E+00  0.15972688117E+04  0.15972688117E+04  0.00000000000E+00 0. -1.
         21   -1    0    0  502  503 -0.00000000000E+00 -0.00000000000E+00 -0.42013373341E+02  0.42013373341E+02  0.00000000000E+00 0. -1.
          6    1    1    2  501    0 -0.15047484770E+03 -0.37210355672E+02  0.11451919037E+04  0.11683645778E+04  0.17200000000E+03 0. -1.
         -6    1    1    2    0  503  0.15047484770E+03  0.37210355672E+02  0.41006353470E+03  0.47091760729E+03  0.17200000000E+03 0. -1.
<mgrwt>
<rscale>  2 0.23154112E+03</rscale>
<asrwt>0</asrwt>
<pdfrwt beam="1">  1       21 0.39931700E+00 0.23154112E+03</pdfrwt>
<pdfrwt beam="2">  1       21 0.10503349E-01 0.23154112E+03</pdfrwt>
<totfact> 0.61804709E+02</totfact>
</mgrwt>
</event>
<event>
 4    1  0.1086582E+000  0.1901085E+03  0.7546771E-02  0.1158363E+00
         21   -1    0    0  501  502  0.00000000000E+00  0.00000000000E+00  0.85751722737E+03  0.85751722737E+03  0.00000000000E+00 0. -1.
         21   -1    0    0  502  503 -0.00000000000E+00 -0.00000000000E+00 -0.62733322133E+02  0.62733322133E+02  0.00000000000E+00 0. -1.
          6    1    1    2  501    0  0.73471927031E+02 -0.34046070347E+02  0.66097818355E+03  0.68777424937E+03  0.17200000000E+03 0. -1.
         -6    1    1    2    0  503 -0.73471927031E+02  0.34046070347E+02  0.13380572169E+03  0.23247630013E+03  0.17200000000E+03 0. -1.
<mgrwt>
<rscale>  2 0.19010855E+03</rscale>
<asrwt>0</asrwt>
<pdfrwt beam="1">  1       21 0.21437927E+00 0.19010855E+03</pdfrwt>
<pdfrwt beam="2">  1       21 0.15683333E-01 0.19010855E+03</pdfrwt>
<totfact> 0.39508826E+03</totfact>
</mgrwt>
</event>
<event>
 4    1  0.1086582E+000  0.2026607E+03  0.7546771E-02  0.1147513E+00
         21   -1    0    0  503  502  0.00000000000E+00  0.00000000000E+00  0.25678295810E+03  0.25678295810E+03  0.00000000000E+00 0. -1.
         21   -1    0    0  501  503 -0.00000000000E+00 -0.00000000000E+00 -0.20825596768E+03  0.20825596768E+03  0.00000000000E+00 0. -1.
          6    1    1    2  501    0  0.15166239874E+02  0.10610071044E+03 -0.87726572456E+02  0.22083325633E+03  0.17200000000E+03 0. -1.
         -6    1    1    2    0  502 -0.15166239874E+02 -0.10610071044E+03  0.13625356288E+03  0.24420566944E+03  0.17200000000E+03 0. -1.
<mgrwt>
<rscale>  2 0.20266074E+03</rscale>
<asrwt>0</asrwt>
<pdfrwt beam="1">  1       21 0.64195739E-01 0.20266074E+03</pdfrwt>
<pdfrwt beam="2">  1       21 0.52063992E-01 0.20266074E+03</pdfrwt>
<totfact> 0.77841078E+03</totfact>
</mgrwt>
</event>
<event>
 4    1  0.1086582E+000  0.2277315E+03  0.7546771E-02  0.1128247E+00
         21   -1    0    0  501  502  0.00000000000E+00  0.00000000000E+00  0.16673700537E+03  0.16673700537E+03  0.00000000000E+00 0. -1.
         21   -1    0    0  502  503 -0.00000000000E+00 -0.00000000000E+00 -0.37453645346E+03  0.37453645346E+03  0.00000000000E+00 0.  1.
          6    1    1    2  501    0  0.14924702081E+03 -0.17169382389E+01  0.75347829742E+01  0.22785608189E+03  0.17200000000E+03 0.  1.
         -6    1    1    2    0  503 -0.14924702081E+03  0.17169382389E+01 -0.21533423107E+03  0.31341737694E+03  0.17200000000E+03 0.  1.
<mgrwt>
<rscale>  2 0.22773147E+03</rscale>
<asrwt>0</asrwt>
<pdfrwt beam="1">  1       21 0.41684251E-01 0.22773147E+03</pdfrwt>
<pdfrwt beam="2">  1       21 0.93634113E-01 0.22773147E+03</pdfrwt>
<totfact> 0.51724561E+03</totfact>
</mgrwt>
</event>
<event>
 4    1  0.1086582E+000  0.2096313E+03  0.7546771E-02  0.1141858E+00
         21   -1    0    0  503  502  0.00000000000E+00  0.00000000000E+00  0.74457544132E+02  0.74457544132E+02  0.00000000000E+00 0. -1.
         21   -1    0    0  501  503 -0.00000000000E+00 -0.00000000000E+00 -0.64818994110E+03  0.64818994110E+03  0.00000000000E+00 0.  1.
          6    1    1    2  501    0 -0.10382268065E+03  0.59851023265E+02 -0.39493466395E+03  0.44712267086E+03  0.17200000000E+03 0.  1.
         -6    1    1    2    0  502  0.10382268065E+03 -0.59851023265E+02 -0.17879773301E+03  0.27552481437E+03  0.17200000000E+03 0. -1.
<mgrwt>
<rscale>  2 0.20963133E+03</rscale>
<asrwt>0</asrwt>
<pdfrwt beam="1">  1       21 0.18614386E-01 0.20963133E+03</pdfrwt>
<pdfrwt beam="2">  1       21 0.16204749E+00 0.20963133E+03</pdfrwt>
<totfact> 0.63280468E+03</totfact>
</mgrwt>
</event>
<event>
 4    1  0.1086582E+000  0.1756698E+03  0.7546771E-02  0.1172061E+00
         21   -1    0    0  503  502  0.00000000000E+00  0.00000000000E+00  0.39536612083E+03  0.39536612083E+03  0.00000000000E+00 0.  1.
         21   -1    0    0  501  503 -0.00000000000E+00 -0.00000000000E+00 -0.11480877497E+03  0.11480877497E+03  0.00000000000E+00 0.  1.
          6    1    1    2  501    0  0.17949643926E+02 -0.30881846523E+02 -0.40520760167E+01  0.17571652592E+03  0.17200000000E+03 0.  1.
         -6    1    1    2    0  502 -0.17949643926E+02  0.30881846523E+02  0.28460942188E+03  0.33445836988E+03  0.17200000000E+03 0.  1.
<mgrwt>
<rscale>  2 0.17566980E+03</rscale>
<asrwt>0</asrwt>
<pdfrwt beam="1">  1       21 0.98841527E-01 0.17566980E+03</pdfrwt>
<pdfrwt beam="2">  1       21 0.28702195E-01 0.17566980E+03</pdfrwt>
<totfact> 0.99206349E+03</totfact>
</mgrwt>
</event>
<event>
 4    1  0.1086582E+000  0.1852687E+03  0.7546771E-02  0.1162799E+00
         21   -1    0    0  501  502  0.00000000000E+00  0.00000000000E+00  0.18123978419E+03  0.18123978419E+03  0.00000000000E+00 0. -1.
         21   -1    0    0  502  503 -0.00000000000E+00 -0.00000000000E+00 -0.20814939977E+03  0.20814939977E+03  0.00000000000E+00 0. -1.
          6    1    1    2  501    0 -0.26386660578E+02 -0.63594381648E+02 -0.71907942067E+02  0.19873412733E+03  0.17200000000E+03 0. -1.
         -6    1    1    2    0  503  0.26386660578E+02  0.63594381648E+02  0.44998326481E+02  0.19065505663E+03  0.17200000000E+03 0. -1.
<mgrwt>
<rscale>  2 0.18526873E+03</rscale>
<asrwt>0</asrwt>
<pdfrwt beam="1">  1       21 0.45309946E-01 0.18526873E+03</pdfrwt>
<pdfrwt beam="2">  1       21 0.52037350E-01 0.18526873E+03</pdfrwt>
<totfact> 0.16451718E+04</totfact>
</mgrwt>
</event>
<event>
 4    1  0.1086582E+000  0.1829845E+03  0.7546771E-02  0.1164945E+00
         21   -1    0    0  503  502  0.00000000000E+00  0.00000000000E+00  0.24152062328E+03  0.24152062328E+03  0.00000000000E+00 0. -1.
         21   -1    0    0  501  503 -0.00000000000E+00 -0.00000000000E+00 -0.23380303209E+03  0.23380303209E+03  0.00000000000E+00 0. -1.
          6    1    1    2  501    0 -0.61234058819E+02  0.12236264860E+02 -0.14776896857E+03  0.23519992392E+03  0.17200000000E+03 0. -1.
         -6    1    1    2    0  502  0.61234058819E+02 -0.12236264860E+02  0.15548655977E+03  0.24012373145E+03  0.17200000000E+03 0. -1.
<mgrwt>
<rscale>  2 0.18298452E+03</rscale>
<asrwt>0</asrwt>
<pdfrwt beam="1">  1       21 0.60380156E-01 0.18298452E+03</pdfrwt>
<pdfrwt beam="2">  1       21 0.58450758E-01 0.18298452E+03</pdfrwt>
<totfact> 0.70559115E+03</totfact>
</mgrwt>
</event>
<event>
 4    1  0.1086582E+000  0.1815231E+03  0.7546771E-02  0.1166337E+00
         21   -1    0    0  501  502  0.00000000000E+00  0.00000000000E+00  0.13218601843E+04  0.13218601843E+04  0.00000000000E+00 0. -1.
         21   -1    0    0  502  503 -0.00000000000E+00 -0.00000000000E+00 -0.34643956165E+02  0.34643956165E+02  0.00000000000E+00 0. -1.
          6    1    1    2  501    0 -0.57201036561E+02  0.97298899674E+01  0.10028045499E+04  0.10191013663E+04  0.17200000000E+03 0. -1.
         -6    1    1    2    0  503  0.57201036561E+02 -0.97298899674E+01  0.28441167818E+03  0.33740277418E+03  0.17200000000E+03 0. -1.
<mgrwt>
<rscale>  2 0.18152308E+03</rscale>
<asrwt>0</asrwt>
<pdfrwt beam="1">  1       21 0.33046488E+00 0.18152308E+03</pdfrwt>
<pdfrwt beam="2">  1       21 0.86609935E-02 0.18152308E+03</pdfrwt>
<totfact> 0.24140360E+03</totfact>
</mgrwt>
</event>
<event>
 4    1  0.1086582E+000  0.1730281E+03  0.7546771E-02  0.1174726E+00
         21   -1    0    0  501  502  0.00000000000E+00  0.00000000000E+00  0.34482504928E+03  0.34482504928E+03  0.00000000000E+00 0.  1.
         21   -1    0    0  502  503 -0.00000000000E+00 -0.00000000000E+00 -0.99609497327E+02  0.99609497327E+02  0.00000000000E+00 0.  1.
          6    1    1    2  501    0 -0.18653643630E+02  0.25991675585E+01  0.20222458562E+03  0.26614563142E+03  0.17200000000E+03 0.  1.
         -6    1    1    2    0  503  0.18653643630E+02 -0.25991675585E+01  0.42990966328E+02  0.17828891519E+03  0.17200000000E+03 0.  1.
<mgrwt>
<rscale>  2 0.17302807E+03</rscale>
<asrwt>0</asrwt>
<pdfrwt beam="1">  1       21 0.86206260E-01 0.17302807E+03</pdfrwt>
<pdfrwt beam="2">  1       21 0.24902375E-01 0.17302807E+03</pdfrwt>
<totfact> 0.17926464E+04</totfact>
</mgrwt>
</event>
<event>
 4    1  0.1086582E+000  0.2047387E+03  0.7546771E-02  0.1145801E+00
         21   -1    0    0  503  502  0.00000000000E+00  0.00000000000E+00  0.44261595825E+03  0.44261595825E+03  0.00000000000E+00 0.  1.
         21   -1    0    0  501  503 -0.00000000000E+00 -0.00000000000E+00 -0.13225532925E+03  0.13225532925E+03  0.00000000000E+00 0. -1.
          6    1    1    2  501    0  0.26338473394E+02 -0.10788985172E+03  0.20218426187E+01  0.20474868286E+03  0.17200000000E+03 0. -1.
         -6    1    1    2    0  502 -0.26338473394E+02  0.10788985172E+03  0.30833878638E+03  0.37012260464E+03  0.17200000000E+03 0.  1.
<mgrwt>
<rscale>  2 0.20473870E+03</rscale>
<asrwt>0</asrwt>
<pdfrwt beam="1">  1       21 0.11065399E+00 0.20473870E+03</pdfrwt>
<pdfrwt beam="2">  1       21 0.33063833E-01 0.20473870E+03</pdfrwt>
<totfact> 0.56166480E+03</totfact>
</mgrwt>
</event>
<event>
 4    1  0.1086582E+000  0.2264211E+03  0.7546771E-02  0.1129184E+00
         21   -1    0    0  503  502  0.00000000000E+00  0.00000000000E+00  0.13455068005E+03  0.13455068005E+03  0.00000000000E+00 0. -1.
         21   -1    0    0  501  503 -0.00000000000E+00 -0.00000000000E+00 -0.57557140383E+03  0.57557140383E+03  0.00000000000E+00 0. -1.
          6    1    1    2  501    0  0.14034945593E+03 -0.44548200646E+02 -0.42693926505E+03  0.48326353887E+03  0.17200000000E+03 0. -1.
         -6    1    1    2    0  502 -0.14034945593E+03  0.44548200646E+02 -0.14081458730E+02  0.22685854500E+03  0.17200000000E+03 0. -1.
<mgrwt>
<rscale>  2 0.22642109E+03</rscale>
<asrwt>0</asrwt>
<pdfrwt beam="1">  1       21 0.33637671E-01 0.22642109E+03</pdfrwt>
<pdfrwt beam="2">  1       21 0.14389285E+00 0.22642109E+03</pdfrwt>
<totfact> 0.27557121E+03</totfact>
</mgrwt>
</event>
<event>
 4    1  0.1086582E+000  0.1815196E+03  0.7546771E-02  0.1166340E+00
         21   -1    0    0  503  502  0.00000000000E+00  0.00000000000E+00  0.13240716458E+03  0.13240716458E+03  0.00000000000E+00 0.  1.
         21   -1    0    0  501  503 -0.00000000000E+00 -0.00000000000E+00 -0.60440341390E+03  0.60440341390E+03  0.00000000000E+00 0.  1.
          6    1    1    2  501    0 -0.12212321751E+02 -0.56711673405E+02 -0.51856132756E+03  0.54941351016E+03  0.17200000000E+03 0.  1.
         -6    1    1    2    0  502  0.12212321751E+02  0.56711673405E+02  0.46565078239E+02  0.18739706832E+03  0.17200000000E+03 0.  1.
<mgrwt>
<rscale>  2 0.18151957E+03</rscale>
<asrwt>0</asrwt>
<pdfrwt beam="1">  1       21 0.33101792E-01 0.18151957E+03</pdfrwt>
<pdfrwt beam="2">  1       21 0.15110085E+00 0.18151957E+03</pdfrwt>
<totfact> 0.26036486E+03</totfact>
</mgrwt>
</event>
<event>
 4    1  0.1086582E+000  0.1739473E+03  0.7546771E-02  0.1173793E+00
         21   -1    0    0  503  502  0.00000000000E+00  0.00000000000E+00  0.23870744944E+03  0.23870744944E+03  0.00000000000E+00 0.  1.
         21   -1    0    0  501  503 -0.00000000000E+00 -0.00000000000E+00 -0.13274637765E+03  0.13274637765E+03  0.00000000000E+00 0.  1.
          6    1    1    2  501    0  0.23972011711E+02  0.99500349919E+01  0.92433681153E+02  0.19698133402E+03  0.17200000000E+03 0.  1.
         -6    1    1    2    0  502 -0.23972011711E+02 -0.99500349919E+01  0.13527390633E+02  0.17447249307E+03  0.17200000000E+03 0.  1.
<mgrwt>
<rscale>  2 0.17394729E+03</rscale>
<asrwt>0</asrwt>
<pdfrwt beam="1">  1       21 0.59676862E-01 0.17394729E+03</pdfrwt>
<pdfrwt beam="2">  1       21 0.33186595E-01 0.17394729E+03</pdfrwt>
<totfact> 0.23171105E+04</totfact>
</mgrwt>
</event>
<event>
 4    1  0.1086582E+000  0.1771658E+03  0.7546771E-02  0.1170575E+00
         21   -1    0    0  501  502  0.00000000000E+00  0.00000000000E+00  0.97528186031E+02  0.97528186031E+02  0.00000000000E+00 0.  1.
         21   -1    0    0  502  503 -0.00000000000E+00 -0.00000000000E+00 -0.32404300619E+03  0.32404300619E+03  0.00000000000E+00 0.  1.
          6    1    1    2  501    0  0.11350972701E+02  0.40925168673E+02 -0.95846896735E+02  0.20143073655E+03  0.17200000000E+03 0.  1.
         -6    1    1    2    0  503 -0.11350972701E+02 -0.40925168673E+02 -0.13066792342E+03  0.22014045567E+03  0.17200000000E+03 0.  1.
<mgrwt>
<rscale>  2 0.17716578E+03</rscale>
<asrwt>0</asrwt>
<pdfrwt beam="1">  1       21 0.24382047E-01 0.17716578E+03</pdfrwt>
<pdfrwt beam="2">  1       21 0.81010751E-01 0.17716578E+03</pdfrwt>
<totfact> 0.21436757E+04</totfact>
</mgrwt>
</event>
<event>
 4    1  0.1086582E+000  0.1831337E+03  0.7546771E-02  0.1164804E+00
         21   -1    0    0  501  502  0.00000000000E+00  0.00000000000E+00  0.75191410985E+03  0.75191410985E+03  0.00000000000E+00 0. -1.
         21   -1    0    0  502  503 -0.00000000000E+00 -0.00000000000E+00 -0.16366244504E+03  0.16366244504E+03  0.00000000000E+00 0. -1.
          6    1    1    2  501    0 -0.31320298853E+02  0.54525269677E+02  0.68458106702E+03  0.70865309106E+03  0.17200000000E+03 0. -1.
         -6    1    1    2    0  503  0.31320298853E+02 -0.54525269677E+02 -0.96329402213E+02  0.20692346383E+03  0.17200000000E+03 0. -1.
<mgrwt>
<rscale>  2 0.18313374E+03</rscale>
<asrwt>0</asrwt>
<pdfrwt beam="1">  1       21 0.18797852E+00 0.18313374E+03</pdfrwt>
<pdfrwt beam="2">  1       21 0.40915613E-01 0.18313374E+03</pdfrwt>
<totfact> 0.93558276E+02</totfact>
</mgrwt>
</event>
<event>
 4    1  0.1086582E+000  0.1743545E+03  0.7546771E-02  0.1173381E+00
         21   -1    0    0  503  502  0.00000000000E+00  0.00000000000E+00  0.40867033883E+03  0.40867033883E+03  0.00000000000E+00 0. -1.
         21   -1    0    0  501  503 -0.00000000000E+00 -0.00000000000E+00 -0.82624103463E+02  0.82624103463E+02  0.00000000000E+00 0. -1.
          6    1    1    2  501    0 -0.26884741669E+02  0.96276704101E+01  0.85458484914E+02  0.19417166121E+03  0.17200000000E+03 0. -1.
         -6    1    1    2    0  502  0.26884741669E+02 -0.96276704101E+01  0.24058775046E+03  0.29712278109E+03  0.17200000000E+03 0. -1.
<mgrwt>
<rscale>  2 0.17435447E+03</rscale>
<asrwt>0</asrwt>
<pdfrwt beam="1">  1       21 0.10216758E+00 0.17435447E+03</pdfrwt>
<pdfrwt beam="2">  1       21 0.20656027E-01 0.17435447E+03</pdfrwt>
<totfact> 0.17153995E+04</totfact>
</mgrwt>
</event>
<event>
 4    1  0.1086582E+000  0.1892945E+03  0.7546771E-02  0.1159099E+00
         21   -1    0    0  503  502  0.00000000000E+00  0.00000000000E+00  0.12868369971E+03  0.12868369971E+03  0.00000000000E+00 0. -1.
         21   -1    0    0  501  503 -0.00000000000E+00 -0.00000000000E+00 -0.49345528817E+03  0.49345528817E+03  0.00000000000E+00 0. -1.
          6    1    1    2  501    0  0.41732920739E+02 -0.67132463183E+02 -0.38771689238E+03  0.43145891221E+03  0.17200000000E+03 0. -1.
         -6    1    1    2    0  502 -0.41732920739E+02  0.67132463183E+02  0.22945303915E+02  0.19068007567E+03  0.17200000000E+03 0. -1.
<mgrwt>
<rscale>  2 0.18929449E+03</rscale>
<asrwt>0</asrwt>
<pdfrwt beam="1">  1       21 0.32170925E-01 0.18929449E+03</pdfrwt>
<pdfrwt beam="2">  1       21 0.12336382E+00 0.18929449E+03</pdfrwt>
<totfact> 0.45949415E+03</totfact>
</mgrwt>
</event>
<event>
 4    1  0.1086582E+000  0.2231397E+03  0.7546771E-02  0.1131564E+00
         21   -1    0    0  501  502  0.00000000000E+00  0.00000000000E+00  0.18957831701E+03  0.18957831701E+03  0.00000000000E+00 0. -1.
         21   -1    0    0  502  503 -0.00000000000E+00 -0.00000000000E+00 -0.32923680615E+03  0.32923680615E+03  0.00000000000E+00 0. -1.
          6    1    1    2  501    0  0.80015820968E+02  0.11749381256E+03  0.46837455409E+02  0.22800235706E+03  0.17200000000E+03 0. -1.
         -6    1    1    2    0  503 -0.80015820968E+02 -0.11749381256E+03 -0.18649594455E+03  0.29081276610E+03  0.17200000000E+03 0. -1.
<mgrwt>
<rscale>  2 0.22313970E+03</rscale>
<asrwt>0</asrwt>
<pdfrwt beam="1">  1       21 0.47394580E-01 0.22313970E+03</pdfrwt>
<pdfrwt beam="2">  1       21 0.82309201E-01 0.22313970E+03</pdfrwt>
<totfact> 0.53682174E+03</totfact>
</mgrwt>
</event>
<event>
 4    1  0.1086582E+000  0.1786393E+03  0.7546771E-02  0.1169126E+00
         21   -1    0    0  501  502  0.00000000000E+00  0.00000000000E+00  0.35120689975E+02  0.35120689975E+02  0.00000000000E+00 0.  1.
         21   -1    0    0  502  503 -0.00000000000E+00 -0.00000000000E+00 -0.93206591256E+03  0.93206591256E+03  0.00000000000E+00 0.  1.
          6    1    1    2  501    0  0.47607424166E+02 -0.78436820278E+01 -0.37180275740E+03  0.41249155215E+03  0.17200000000E+03 0.  1.
         -6    1    1    2    0  503 -0.47607424166E+02  0.78436820278E+01 -0.52514246518E+03  0.55469505039E+03  0.17200000000E+03 0.  1.
<mgrwt>
<rscale>  2 0.17863927E+03</rscale>
<asrwt>0</asrwt>
<pdfrwt beam="1">  1       21 0.87801727E-02 0.17863927E+03</pdfrwt>
<pdfrwt beam="2">  1       21 0.23301647E+00 0.17863927E+03</pdfrwt>
<totfact> 0.86713385E+03</totfact>
</mgrwt>
</event>
<event>
 4    1  0.1086582E+000  0.2102914E+03  0.7546771E-02  0.1141335E+00
         21   -1    0    0  503  502  0.00000000000E+00  0.00000000000E+00  0.22378614073E+03  0.22378614073E+03  0.00000000000E+00 0. -1.
         21   -1    0    0  501  503 -0.00000000000E+00 -0.00000000000E+00 -0.20171705894E+03  0.20171705894E+03  0.00000000000E+00 0. -1.
          6    1    1    2  501    0  0.23709924823E+02  0.11864366878E+03 -0.19321353186E+02  0.21117716582E+03  0.17200000000E+03 0.  1.
         -6    1    1    2    0  502 -0.23709924823E+02 -0.11864366878E+03  0.41390434980E+02  0.21432603385E+03  0.17200000000E+03 0.  1.
<mgrwt>
<rscale>  2 0.21029142E+03</rscale>
<asrwt>0</asrwt>
<pdfrwt beam="1">  1       21 0.55946535E-01 0.21029142E+03</pdfrwt>
<pdfrwt beam="2">  1       21 0.50429265E-01 0.21029142E+03</pdfrwt>
<totfact> 0.11129191E+04</totfact>
</mgrwt>
</event>
<event>
 4    1  0.1086582E+000  0.2225718E+03  0.7546771E-02  0.1131980E+00
         21   -1    0    0  501  502  0.00000000000E+00  0.00000000000E+00  0.45677758357E+03  0.45677758357E+03  0.00000000000E+00 0.  1.
         21   -1    0    0  502  503 -0.00000000000E+00 -0.00000000000E+00 -0.11075681918E+03  0.11075681918E+03  0.00000000000E+00 0. -1.
          6    1    1    2  501    0 -0.10753910361E+03  0.91594559266E+02  0.21394972282E+03  0.30872755949E+03  0.17200000000E+03 0.  1.
         -6    1    1    2    0  503  0.10753910361E+03 -0.91594559266E+02  0.13207104157E+03  0.25880684325E+03  0.17200000000E+03 0. -1.
<mgrwt>
<rscale>  2 0.22257184E+03</rscale>
<asrwt>0</asrwt>
<pdfrwt beam="1">  1       21 0.11419439E+00 0.22257184E+03</pdfrwt>
<pdfrwt beam="2">  1       21 0.27689206E-01 0.22257184E+03</pdfrwt>
<totfact> 0.72650000E+03</totfact>
</mgrwt>
</event>
<event>
 4    1  0.1086582E+000  0.1901358E+03  0.7546771E-02  0.1158339E+00
         21   -1    0    0  503  502  0.00000000000E+00  0.00000000000E+00  0.11552188844E+03  0.11552188844E+03  0.00000000000E+00 0. -1.
         21   -1    0    0  501  503 -0.00000000000E+00 -0.00000000000E+00 -0.66944952558E+03  0.66944952558E+03  0.00000000000E+00 0.  1.
          6    1    1    2  501    0  0.55826074797E+02 -0.58745873402E+02 -0.56338121761E+03  0.59460072707E+03  0.17200000000E+03 0.  1.
         -6    1    1    2    0  502 -0.55826074797E+02  0.58745873402E+02  0.94535804763E+01  0.19037068696E+03  0.17200000000E+03 0. -1.
<mgrwt>
<rscale>  2 0.19013582E+03</rscale>
<asrwt>0</asrwt>
<pdfrwt beam="1">  1       21 0.28880473E-01 0.19013582E+03</pdfrwt>
<pdfrwt beam="2">  1       21 0.16736238E+00 0.19013582E+03</pdfrwt>
<totfact> 0.25619610E+03</totfact>
</mgrwt>
</event>
<event>
 4    1  0.1086582E+000  0.3541916E+03  0.7546771E-02  0.1060908E+00
         21   -1    0    0  503  502  0.00000000000E+00  0.00000000000E+00  0.61686454990E+03  0.61686454990E+03  0.00000000000E+00 0. -1.
         21   -1    0    0  501  503 -0.00000000000E+00 -0.00000000000E+00 -0.28119403133E+03  0.28119403133E+03  0.00000000000E+00 0.  1.
          6    1    1    2  501    0 -0.78256277204E+02 -0.29957242060E+03 -0.68391325393E+02  0.36073404815E+03  0.17200000000E+03 0.  1.
         -6    1    1    2    0  502  0.78256277204E+02  0.29957242060E+03  0.40406184396E+03  0.53732453309E+03  0.17200000000E+03 0. -1.
<mgrwt>
<rscale>  2 0.35419159E+03</rscale>
<asrwt>0</asrwt>
<pdfrwt beam="1">  1       21 0.15421614E+00 0.35419159E+03</pdfrwt>
<pdfrwt beam="2">  1       21 0.70298509E-01 0.35419159E+03</pdfrwt>
<totfact> 0.44529918E+02</totfact>
</mgrwt>
</event>
<event>
 4    1  0.1086582E+000  0.1800593E+03  0.7546771E-02  0.1167746E+00
         21   -1    0    0  503  502  0.00000000000E+00  0.00000000000E+00  0.98412768683E+02  0.98412768683E+02  0.00000000000E+00 0. -1.
         21   -1    0    0  501  503 -0.00000000000E+00 -0.00000000000E+00 -0.32960675242E+03  0.32960675242E+03  0.00000000000E+00 0. -1.
          6    1    1    2  501    0  0.25577089629E+02 -0.46724393516E+02 -0.12037321986E+03  0.21658963162E+03  0.17200000000E+03 0.  1.
         -6    1    1    2    0  502 -0.25577089629E+02  0.46724393516E+02 -0.11082076388E+03  0.21142988949E+03  0.17200000000E+03 0.  1.
<mgrwt>
<rscale>  2 0.18005931E+03</rscale>
<asrwt>0</asrwt>
<pdfrwt beam="1">  1       21 0.24603192E-01 0.18005931E+03</pdfrwt>
<pdfrwt beam="2">  1       21 0.82401687E-01 0.18005931E+03</pdfrwt>
<totfact> 0.20238629E+04</totfact>
</mgrwt>
</event>
<event>
 4    1  0.1086582E+000  0.2766518E+03  0.7546771E-02  0.1097532E+00
         21   -1    0    0  503  502  0.00000000000E+00  0.00000000000E+00  0.63213293411E+03  0.63213293411E+03  0.00000000000E+00 0.  1.
         21   -1    0    0  501  503 -0.00000000000E+00 -0.00000000000E+00 -0.17030082994E+03  0.17030082994E+03  0.00000000000E+00 0. -1.
          6    1    1    2  501    0  0.15278975395E+03  0.15364732768E+03  0.15209990850E+02  0.27706958339E+03  0.17200000000E+03 0. -1.
         -6    1    1    2    0  502 -0.15278975395E+03 -0.15364732768E+03  0.44662211333E+03  0.52536418067E+03  0.17200000000E+03 0.  1.
<mgrwt>
<rscale>  2 0.27665179E+03</rscale>
<asrwt>0</asrwt>
<pdfrwt beam="1">  1       21 0.15803323E+00 0.27665179E+03</pdfrwt>
<pdfrwt beam="2">  1       21 0.42575209E-01 0.27665179E+03</pdfrwt>
<totfact> 0.12843462E+03</totfact>
</mgrwt>
</event>
<event>
 4    1  0.1086582E+000  0.1951876E+03  0.7546771E-02  0.1153864E+00
         21   -1    0    0  501  502  0.00000000000E+00  0.00000000000E+00  0.32720881984E+03  0.32720881984E+03  0.00000000000E+00 0. -1.
         21   -1    0    0  502  503 -0.00000000000E+00 -0.00000000000E+00 -0.17307450559E+03  0.17307450559E+03  0.00000000000E+00 0. -1.
          6    1    1    2  501    0 -0.81316825549E+02 -0.43609454695E+02  0.22016506689E+03  0.29422927681E+03  0.17200000000E+03 0. -1.
         -6    1    1    2    0  503  0.81316825549E+02  0.43609454695E+02 -0.66030752639E+02  0.20605404861E+03  0.17200000000E+03 0. -1.
<mgrwt>
<rscale>  2 0.19518763E+03</rscale>
<asrwt>0</asrwt>
<pdfrwt beam="1">  1       21 0.81802204E-01 0.19518763E+03</pdfrwt>
<pdfrwt beam="2">  1       21 0.43268627E-01 0.19518763E+03</pdfrwt>
<totfact> 0.67026056E+03</totfact>
</mgrwt>
</event>
<event>
 4    1  0.1086582E+000  0.2015804E+03  0.7546771E-02  0.1148412E+00
         21   -1    0    0  503  502  0.00000000000E+00  0.00000000000E+00  0.42712171704E+02  0.42712171704E+02  0.00000000000E+00 0. -1.
         21   -1    0    0  501  503 -0.00000000000E+00 -0.00000000000E+00 -0.11832458837E+04  0.11832458837E+04  0.00000000000E+00 0.  1.
          6    1    1    2  501    0  0.81557615676E+02 -0.66324922643E+02 -0.84162666535E+03  0.86543057715E+03  0.17200000000E+03 0. -1.
         -6    1    1    2    0  502 -0.81557615676E+02  0.66324922643E+02 -0.29890704662E+03  0.36052747823E+03  0.17200000000E+03 0. -1.
<mgrwt>
<rscale>  2 0.20158036E+03</rscale>
<asrwt>0</asrwt>
<pdfrwt beam="1">  1       21 0.10678043E-01 0.20158036E+03</pdfrwt>
<pdfrwt beam="2">  1       21 0.29581146E+00 0.20158036E+03</pdfrwt>
<totfact> 0.25790622E+03</totfact>
</mgrwt>
</event>
<event>
 4    1  0.1086582E+000  0.1875653E+03  0.7546771E-02  0.1160676E+00
         21   -1    0    0  503  502  0.00000000000E+00  0.00000000000E+00  0.45872932385E+03  0.45872932385E+03  0.00000000000E+00 0. -1.
         21   -1    0    0  501  503 -0.00000000000E+00 -0.00000000000E+00 -0.79938648742E+02  0.79938648742E+02  0.00000000000E+00 0.  1.
          6    1    1    2  501    0 -0.13738739897E+02 -0.73539059641E+02  0.13511427403E+03  0.23116360724E+03  0.17200000000E+03 0.  1.
         -6    1    1    2    0  502  0.13738739897E+02  0.73539059641E+02  0.24367640108E+03  0.30750436535E+03  0.17200000000E+03 0. -1.
<mgrwt>
<rscale>  2 0.18756531E+03</rscale>
<asrwt>0</asrwt>
<pdfrwt beam="1">  1       21 0.11468232E+00 0.18756531E+03</pdfrwt>
<pdfrwt beam="2">  1       21 0.19984663E-01 0.18756531E+03</pdfrwt>
<totfact> 0.13690815E+04</totfact>
</mgrwt>
</event>
<event>
 4    1  0.1086582E+000  0.1762783E+03  0.7546771E-02  0.1171454E+00
         21   -1    0    0  503  502  0.00000000000E+00  0.00000000000E+00  0.92619083825E+02  0.92619083825E+02  0.00000000000E+00 0. -1.
         21   -1    0    0  501  503 -0.00000000000E+00 -0.00000000000E+00 -0.33655559326E+03  0.33655559326E+03  0.00000000000E+00 0. -1.
          6    1    1    2  501    0  0.21248930096E+02 -0.32225935003E+02 -0.13396601817E+03  0.22140668902E+03  0.17200000000E+03 0. -1.
         -6    1    1    2    0  502 -0.21248930096E+02  0.32225935003E+02 -0.10997049127E+03  0.20776798807E+03  0.17200000000E+03 0. -1.
<mgrwt>
<rscale>  2 0.17627827E+03</rscale>
<asrwt>0</asrwt>
<pdfrwt beam="1">  1       21 0.23154771E-01 0.17627827E+03</pdfrwt>
<pdfrwt beam="2">  1       21 0.84138898E-01 0.17627827E+03</pdfrwt>
<totfact> 0.21705982E+04</totfact>
</mgrwt>
</event>
<event>
 4    1  0.1086582E+000  0.2259932E+03  0.7546771E-02  0.1129492E+00
         21   -1    0    0  501  502  0.00000000000E+00  0.00000000000E+00  0.11384327884E+03  0.11384327884E+03  0.00000000000E+00 0.  1.
         21   -1    0    0  502  503 -0.00000000000E+00 -0.00000000000E+00 -0.62792019960E+03  0.62792019960E+03  0.00000000000E+00 0.  1.
          6    1    1    2  501    0  0.14524807406E+03 -0.19797576407E+02 -0.45522195865E+03  0.50823220942E+03  0.17200000000E+03 0.  1.
         -6    1    1    2    0  503 -0.14524807406E+03  0.19797576407E+02 -0.58854962104E+02  0.23353126903E+03  0.17200000000E+03 0.  1.
<mgrwt>
<rscale>  2 0.22599325E+03</rscale>
<asrwt>0</asrwt>
<pdfrwt beam="1">  1       21 0.28460820E-01 0.22599325E+03</pdfrwt>
<pdfrwt beam="2">  1       21 0.15698005E+00 0.22599325E+03</pdfrwt>
<totfact> 0.30382946E+03</totfact>
</mgrwt>
</event>
<event>
 4    1  0.1086582E+000  0.1974264E+03  0.7546771E-02  0.1151929E+00
         21   -1    0    0  501  502  0.00000000000E+00  0.00000000000E+00  0.28348496855E+03  0.28348496855E+03  0.00000000000E+00 0. -1.
         21   -1    0    0  502  503 -0.00000000000E+00 -0.00000000000E+00 -0.20587272980E+03  0.20587272980E+03  0.00000000000E+00 0. -1.
          6    1    1    2  501    0  0.93742400296E+02 -0.24607943462E+02  0.17981966190E+03  0.26704362808E+03  0.17200000000E+03 0. -1.
         -6    1    1    2    0  503 -0.93742400296E+02  0.24607943462E+02 -0.10220742315E+03  0.22231407027E+03  0.17200000000E+03 0. -1.
<mgrwt>
<rscale>  2 0.19742641E+03</rscale>
<asrwt>0</asrwt>
<pdfrwt beam="1">  1       21 0.70871242E-01 0.19742641E+03</pdfrwt>
<pdfrwt beam="2">  1       21 0.51468183E-01 0.19742641E+03</pdfrwt>
<totfact> 0.64440313E+03</totfact>
</mgrwt>
</event>
<event>
 4    1  0.1086582E+000  0.2409927E+03  0.7546771E-02  0.1119133E+00
         21   -1    0    0  503  502  0.00000000000E+00  0.00000000000E+00  0.20107453350E+03  0.20107453350E+03  0.00000000000E+00 0.  1.
         21   -1    0    0  501  503 -0.00000000000E+00 -0.00000000000E+00 -0.28884002351E+03  0.28884002351E+03  0.00000000000E+00 0. -1.
          6    1    1    2  501    0  0.16879964991E+03  0.38690163621E+00 -0.44847821738E+02  0.24513016668E+03  0.17200000000E+03 0.  1.
         -6    1    1    2    0  502 -0.16879964991E+03 -0.38690163621E+00 -0.42917668273E+02  0.24478439033E+03  0.17200000000E+03 0.  1.
<mgrwt>
<rscale>  2 0.24099268E+03</rscale>
<asrwt>0</asrwt>
<pdfrwt beam="1">  1       21 0.50268634E-01 0.24099268E+03</pdfrwt>
<pdfrwt beam="2">  1       21 0.72210006E-01 0.24099268E+03</pdfrwt>
<totfact> 0.63041081E+03</totfact>
</mgrwt>
</event>
<event>
 4    1  0.1086582E+000  0.1725971E+03  0.7546771E-02  0.1175166E+00
         21   -1    0    0  501  502  0.00000000000E+00  0.00000000000E+00  0.55216487053E+03  0.55216487053E+03  0.00000000000E+00 0.  1.
         21   -1    0    0  502  503 -0.00000000000E+00 -0.00000000000E+00 -0.12869423883E+03  0.12869423883E+03  0.00000000000E+00 0.  1.
          6    1    1    2  501    0  0.27855421571E+01  0.14070715135E+02  0.47117368198E+03  0.50179117455E+03  0.17200000000E+03 0.  1.
         -6    1    1    2    0  503 -0.27855421571E+01 -0.14070715135E+02 -0.47703050284E+02  0.17906793481E+03  0.17200000000E+03 0.  1.
<mgrwt>
<rscale>  2 0.17259706E+03</rscale>
<asrwt>0</asrwt>
<pdfrwt beam="1">  1       21 0.13804121E+00 0.17259706E+03</pdfrwt>
<pdfrwt beam="2">  1       21 0.32173561E-01 0.17259706E+03</pdfrwt>
<totfact> 0.35117079E+03</totfact>
</mgrwt>
</event>
<event>
 4    1  0.1086582E+000  0.1922705E+03  0.7546771E-02  0.1156429E+00
         21   -1    0    0  503  502  0.00000000000E+00  0.00000000000E+00  0.17608566811E+03  0.17608566811E+03  0.00000000000E+00 0. -1.
         21   -1    0    0  501  503 -0.00000000000E+00 -0.00000000000E+00 -0.22766800252E+03  0.22766800252E+03  0.00000000000E+00 0.  1.
          6    1    1    2  501    0  0.85404228827E+02  0.94908316555E+01 -0.82119683312E+02  0.20907319430E+03  0.17200000000E+03 0. -1.
         -6    1    1    2    0  502 -0.85404228827E+02 -0.94908316555E+01  0.30537348904E+02  0.19468047633E+03  0.17200000000E+03 0. -1.
<mgrwt>
<rscale>  2 0.19227053E+03</rscale>
<asrwt>0</asrwt>
<pdfrwt beam="1">  1       21 0.44021417E-01 0.19227053E+03</pdfrwt>
<pdfrwt beam="2">  1       21 0.56917000E-01 0.19227053E+03</pdfrwt>
<totfact> 0.14382714E+04</totfact>
</mgrwt>
</event>
<event>
 4    1  0.1086582E+000  0.1821754E+03  0.7546771E-02  0.1165714E+00
         21   -1    0    0  501  502  0.00000000000E+00  0.00000000000E+00  0.83896965635E+02  0.83896965635E+02  0.00000000000E+00 0. -1.
         21   -1    0    0  502  503 -0.00000000000E+00 -0.00000000000E+00 -0.51950729882E+03  0.51950729882E+03  0.00000000000E+00 0. -1.
          6    1    1    2  501    0  0.25637327924E+02  0.54282585092E+02 -0.70449132320E+02  0.19532268653E+03  0.17200000000E+03 0.  1.
         -6    1    1    2    0  503 -0.25637327924E+02 -0.54282585092E+02 -0.36516120087E+03  0.40808157793E+03  0.17200000000E+03 0.  1.
<mgrwt>
<rscale>  2 0.18217539E+03</rscale>
<asrwt>0</asrwt>
<pdfrwt beam="1">  1       21 0.20974242E-01 0.18217539E+03</pdfrwt>
<pdfrwt beam="2">  1       21 0.12987682E+00 0.18217539E+03</pdfrwt>
<totfact> 0.92215718E+03</totfact>
</mgrwt>
</event>
<event>
 4    1  0.1086582E+000  0.3148548E+03  0.7546771E-02  0.1078042E+00
         21   -1    0    0  503  502  0.00000000000E+00  0.00000000000E+00  0.16280972901E+03  0.16280972901E+03  0.00000000000E+00 0.  1.
         21   -1    0    0  501  503 -0.00000000000E+00 -0.00000000000E+00 -0.78848772822E+03  0.78848772822E+03  0.00000000000E+00 0. -1.
          6    1    1    2  501    0  0.15332311995E+03 -0.21457303986E+03 -0.53984465219E+03  0.62495265184E+03  0.17200000000E+03 0. -1.
         -6    1    1    2    0  502 -0.15332311995E+03  0.21457303986E+03 -0.85833347026E+02  0.32634480539E+03  0.17200000000E+03 0.  1.
<mgrwt>
<rscale>  2 0.31485484E+03</rscale>
<asrwt>0</asrwt>
<pdfrwt beam="1">  1       21 0.40702433E-01 0.31485484E+03</pdfrwt>
<pdfrwt beam="2">  1       21 0.19712193E+00 0.31485484E+03</pdfrwt>
<totfact> 0.72992619E+02</totfact>
</mgrwt>
</event>
<event>
 4    1  0.1086582E+000  0.2092885E+03  0.7546771E-02  0.1142131E+00
         21   -1    0    0  503  502  0.00000000000E+00  0.00000000000E+00  0.31956267556E+02  0.31956267556E+02  0.00000000000E+00 0.  1.
         21   -1    0    0  501  503 -0.00000000000E+00 -0.00000000000E+00 -0.18483188310E+04  0.18483188310E+04  0.00000000000E+00 0.  1.
          6    1    1    2  501    0 -0.10399511040E+01  0.11923330878E+03 -0.13861010012E+04  0.14018122731E+04  0.17200000000E+03 0.  1.
         -6    1    1    2    0  502  0.10399511040E+01 -0.11923330878E+03 -0.43026156226E+03  0.47846282549E+03  0.17200000000E+03 0.  1.
<mgrwt>
<rscale>  2 0.20928847E+03</rscale>
<asrwt>0</asrwt>
<pdfrwt beam="1">  1       21 0.79890674E-02 0.20928847E+03</pdfrwt>
<pdfrwt beam="2">  1       21 0.46207968E+00 0.20928847E+03</pdfrwt>
<totfact> 0.40453187E+02</totfact>
</mgrwt>
</event>
<event>
 4    1  0.1086582E+000  0.1821090E+03  0.7546771E-02  0.1165777E+00
         21   -1    0    0  501  502  0.00000000000E+00  0.00000000000E+00  0.11237166237E+04  0.11237166237E+04  0.00000000000E+00 0. -1.
         21   -1    0    0  502  503 -0.00000000000E+00 -0.00000000000E+00 -0.55993275184E+02  0.55993275184E+02  0.00000000000E+00 0. -1.
          6    1    1    2  501    0  0.25081186639E+02  0.54319681618E+02  0.93950336972E+03  0.95699021701E+03  0.17200000000E+03 0. -1.
         -6    1    1    2    0  503 -0.25081186639E+02 -0.54319681618E+02  0.12821997881E+03  0.22271968189E+03  0.17200000000E+03 0. -1.
<mgrwt>
<rscale>  2 0.18210902E+03</rscale>
<asrwt>0</asrwt>
<pdfrwt beam="1">  1       21 0.28092908E+00 0.18210902E+03</pdfrwt>
<pdfrwt beam="2">  1       21 0.13998322E-01 0.18210902E+03</pdfrwt>
<totfact> 0.19810554E+03</totfact>
</mgrwt>
</event>
<event>
 4    1  0.1086582E+000  0.1745633E+03  0.7546771E-02  0.1173171E+00
         21   -1    0    0  501  502  0.00000000000E+00  0.00000000000E+00  0.20049185266E+03  0.20049185266E+03  0.00000000000E+00 0.  1.
         21   -1    0    0  502  503 -0.00000000000E+00 -0.00000000000E+00 -0.15222943947E+03  0.15222943947E+03  0.00000000000E+00 0.  1.
          6    1    1    2  501    0  0.17915562679E+02 -0.23819712711E+02  0.31155450140E+02  0.17732176452E+03  0.17200000000E+03 0.  1.
         -6    1    1    2    0  503 -0.17915562679E+02  0.23819712711E+02  0.17106963043E+02  0.17539952761E+03  0.17200000000E+03 0.  1.
<mgrwt>
<rscale>  2 0.17456330E+03</rscale>
<asrwt>0</asrwt>
<pdfrwt beam="1">  1       21 0.50122963E-01 0.17456330E+03</pdfrwt>
<pdfrwt beam="2">  1       21 0.38057360E-01 0.17456330E+03</pdfrwt>
<totfact> 0.25503230E+04</totfact>
</mgrwt>
</event>
<event>
 4    1  0.1086582E+000  0.2514725E+03  0.7546771E-02  0.1112378E+00
         21   -1    0    0  503  502  0.00000000000E+00  0.00000000000E+00  0.99364716569E+03  0.99364716569E+03  0.00000000000E+00 0.  1.
         21   -1    0    0  501  503 -0.00000000000E+00 -0.00000000000E+00 -0.48544246270E+03  0.48544246270E+03  0.00000000000E+00 0.  1.
          6    1    1    2  501    0  0.19854076249E+02 -0.18237388334E+03 -0.43526191104E+03  0.50268414424E+03  0.17200000000E+03 0.  1.
         -6    1    1    2    0  502 -0.19854076249E+02  0.18237388334E+03  0.94346661403E+03  0.97640548414E+03  0.17200000000E+03 0.  1.
<mgrwt>
<rscale>  2 0.25147250E+03</rscale>
<asrwt>0</asrwt>
<pdfrwt beam="1">  1       21 0.24841179E+00 0.25147250E+03</pdfrwt>
<pdfrwt beam="2">  1       21 0.12136062E+00 0.25147250E+03</pdfrwt>
<totfact> 0.31960187E+01</totfact>
</mgrwt>
</event>
<event>
 4    1  0.1086582E+000  0.2099602E+03  0.7546771E-02  0.1141598E+00
         21   -1    0    0  503  502  0.00000000000E+00  0.00000000000E+00  0.31351430410E+03  0.31351430410E+03  0.00000000000E+00 0. -1.
         21   -1    0    0  501  503 -0.00000000000E+00 -0.00000000000E+00 -0.14149143891E+03  0.14149143891E+03  0.00000000000E+00 0. -1.
          6    1    1    2  501    0  0.36431978439E+02  0.11476924251E+03  0.68055796471E+02  0.22071442978E+03  0.17200000000E+03 0. -1.
         -6    1    1    2    0  502 -0.36431978439E+02 -0.11476924251E+03  0.10396706871E+03  0.23429131323E+03  0.17200000000E+03 0. -1.
<mgrwt>
<rscale>  2 0.20996016E+03</rscale>
<asrwt>0</asrwt>
<pdfrwt beam="1">  1       21 0.78378575E-01 0.20996016E+03</pdfrwt>
<pdfrwt beam="2">  1       21 0.35372860E-01 0.20996016E+03</pdfrwt>
<totfact> 0.10970086E+04</totfact>
</mgrwt>
</event>
<event>
 4    1  0.1086582E+000  0.1729341E+03  0.7546771E-02  0.1174822E+00
         21   -1    0    0  503  502  0.00000000000E+00  0.00000000000E+00  0.27304644494E+03  0.27304644494E+03  0.00000000000E+00 0. -1.
         21   -1    0    0  501  503 -0.00000000000E+00 -0.00000000000E+00 -0.15552976529E+03  0.15552976529E+03  0.00000000000E+00 0. -1.
          6    1    1    2  501    0  0.15639754388E+02 -0.88090315673E+01 -0.57782749973E+02  0.18233224385E+03  0.17200000000E+03 0.  1.
         -6    1    1    2    0  502 -0.15639754388E+02  0.88090315673E+01  0.17529942962E+03  0.24624396638E+03  0.17200000000E+03 0.  1.
<mgrwt>
<rscale>  2 0.17293409E+03</rscale>
<asrwt>0</asrwt>
<pdfrwt beam="1">  1       21 0.68261611E-01 0.17293409E+03</pdfrwt>
<pdfrwt beam="2">  1       21 0.38882442E-01 0.17293409E+03</pdfrwt>
<totfact> 0.12656453E+04</totfact>
</mgrwt>
</event>
<event>
 4    1  0.1086582E+000  0.2443502E+03  0.7546771E-02  0.1116928E+00
         21   -1    0    0  503  502  0.00000000000E+00  0.00000000000E+00  0.28851534220E+03  0.28851534220E+03  0.00000000000E+00 0. -1.
         21   -1    0    0  501  503 -0.00000000000E+00 -0.00000000000E+00 -0.72133311347E+03  0.72133311347E+03  0.00000000000E+00 0. -1.
          6    1    1    2  501    0 -0.17326962515E+03  0.10033496853E+02 -0.64279534648E+03  0.68767208139E+03  0.17200000000E+03 0. -1.
         -6    1    1    2    0  502  0.17326962515E+03 -0.10033496853E+02  0.20997757521E+03  0.32217637429E+03  0.17200000000E+03 0. -1.
<mgrwt>
<rscale>  2 0.24435023E+03</rscale>
<asrwt>0</asrwt>
<pdfrwt beam="1">  1       21 0.72128836E-01 0.24435023E+03</pdfrwt>
<pdfrwt beam="2">  1       21 0.18033328E+00 0.24435023E+03</pdfrwt>
<totfact> 0.29617297E+02</totfact>
</mgrwt>
</event>
<event>
 4    1  0.1086582E+000  0.2041130E+03  0.7546771E-02  0.1146315E+00
         21   -1    0    0  501  502  0.00000000000E+00  0.00000000000E+00  0.20135733256E+03  0.20135733256E+03  0.00000000000E+00 0.  1.
         21   -1    0    0  502  503 -0.00000000000E+00 -0.00000000000E+00 -0.20692086299E+03  0.20692086299E+03  0.00000000000E+00 0.  1.
          6    1    1    2  501    0 -0.10936279190E+03 -0.10857859074E+02 -0.10729033680E+01  0.20411581143E+03  0.17200000000E+03 0.  1.
         -6    1    1    2    0  503  0.10936279190E+03  0.10857859074E+02 -0.44906270591E+01  0.20416238411E+03  0.17200000000E+03 0.  1.
<mgrwt>
<rscale>  2 0.20411299E+03</rscale>
<asrwt>0</asrwt>
<pdfrwt beam="1">  1       21 0.50339333E-01 0.20411299E+03</pdfrwt>
<pdfrwt beam="2">  1       21 0.51730216E-01 0.20411299E+03</pdfrwt>
<totfact> 0.13233930E+04</totfact>
</mgrwt>
</event>
<event>
 4    1  0.1086582E+000  0.1867239E+03  0.7546771E-02  0.1161450E+00
         21   -1    0    0  501  502  0.00000000000E+00  0.00000000000E+00  0.45737115865E+03  0.45737115865E+03  0.00000000000E+00 0. -1.
         21   -1    0    0  502  503 -0.00000000000E+00 -0.00000000000E+00 -0.82524622766E+02  0.82524622766E+02  0.00000000000E+00 0. -1.
          6    1    1    2  501    0 -0.32589781607E+02 -0.64959505309E+02  0.26197208414E+03  0.32170670504E+03  0.17200000000E+03 0. -1.
         -6    1    1    2    0  503  0.32589781607E+02  0.64959505309E+02  0.11287445174E+03  0.21818907638E+03  0.17200000000E+03 0. -1.
<mgrwt>
<rscale>  2 0.18672394E+03</rscale>
<asrwt>0</asrwt>
<pdfrwt beam="1">  1       21 0.11434278E+00 0.18672394E+03</pdfrwt>
<pdfrwt beam="2">  1       21 0.20631157E-01 0.18672394E+03</pdfrwt>
<totfact> 0.13000688E+04</totfact>
</mgrwt>
</event>
<event>
 4    1  0.1086582E+000  0.1930144E+03  0.7546771E-02  0.1155770E+00
         21   -1    0    0  503  502  0.00000000000E+00  0.00000000000E+00  0.56565667420E+03  0.56565667420E+03  0.00000000000E+00 0. -1.
         21   -1    0    0  501  503 -0.00000000000E+00 -0.00000000000E+00 -0.10930707492E+03  0.10930707492E+03  0.00000000000E+00 0. -1.
          6    1    1    2  501    0  0.85894418823E+02 -0.17108351056E+02  0.15408388276E+02  0.19362842067E+03  0.17200000000E+03 0. -1.
         -6    1    1    2    0  502 -0.85894418823E+02  0.17108351056E+02  0.44094121100E+03  0.48133532845E+03  0.17200000000E+03 0. -1.
<mgrwt>
<rscale>  2 0.19301437E+03</rscale>
<asrwt>0</asrwt>
<pdfrwt beam="1">  1       21 0.14141416E+00 0.19301437E+03</pdfrwt>
<pdfrwt beam="2">  1       21 0.27326770E-01 0.19301437E+03</pdfrwt>
<totfact> 0.44510086E+03</totfact>
</mgrwt>
</event>
<event>
 4    1  0.1086582E+000  0.2039804E+03  0.7546771E-02  0.1146424E+00
         21   -1    0    0  501  502  0.00000000000E+00  0.00000000000E+00  0.48834734735E+03  0.48834734735E+03  0.00000000000E+00 0. -1.
         21   -1    0    0  502  503 -0.00000000000E+00 -0.00000000000E+00 -0.86076938961E+02  0.86076938961E+02  0.00000000000E+00 0. -1.
          6    1    1    2  501    0  0.10884698092E+03 -0.13279254635E+02  0.23009750348E+03  0.30749449583E+03  0.17200000000E+03 0. -1.
         -6    1    1    2    0  503 -0.10884698092E+03  0.13279254635E+02  0.17217290491E+03  0.26692979048E+03  0.17200000000E+03 0. -1.
<mgrwt>
<rscale>  2 0.20398040E+03</rscale>
<asrwt>0</asrwt>
<pdfrwt beam="1">  1       21 0.12208683E+00 0.20398040E+03</pdfrwt>
<pdfrwt beam="2">  1       21 0.21519236E-01 0.20398040E+03</pdfrwt>
<totfact> 0.10098495E+04</totfact>
</mgrwt>
</event>
<event>
 4    1  0.1086582E+000  0.1918417E+03  0.7546771E-02  0.1156811E+00
         21   -1    0    0  503  502  0.00000000000E+00  0.00000000000E+00  0.10468434867E+04  0.10468434867E+04  0.00000000000E+00 0.  1.
         21   -1    0    0  501  503 -0.00000000000E+00 -0.00000000000E+00 -0.38812305465E+02  0.38812305465E+02  0.00000000000E+00 0. -1.
          6    1    1    2  501    0  0.58476292440E+01  0.84764586606E+02  0.33741522017E+03  0.38813948615E+03  0.17200000000E+03 0. -1.
         -6    1    1    2    0  502 -0.58476292440E+01 -0.84764586606E+02  0.67061596102E+03  0.69751630596E+03  0.17200000000E+03 0.  1.
<mgrwt>
<rscale>  2 0.19184168E+03</rscale>
<asrwt>0</asrwt>
<pdfrwt beam="1">  1       21 0.26171078E+00 0.19184168E+03</pdfrwt>
<pdfrwt beam="2">  1       21 0.97030798E-02 0.19184168E+03</pdfrwt>
<totfact> 0.48643185E+03</totfact>
</mgrwt>
</event>
<event>
 4    1  0.1086582E+000  0.1941554E+03  0.7546771E-02  0.1154766E+00
         21   -1    0    0  503  502  0.00000000000E+00  0.00000000000E+00  0.57530368499E+02  0.57530368499E+02  0.00000000000E+00 0. -1.
         21   -1    0    0  501  503 -0.00000000000E+00 -0.00000000000E+00 -0.91700026471E+03  0.91700026471E+03  0.00000000000E+00 0. -1.
          6    1    1    2  501    0 -0.84915643236E+02  0.30027648186E+02 -0.69006888833E+03  0.71686218812E+03  0.17200000000E+03 0. -1.
         -6    1    1    2    0  502  0.84915643236E+02 -0.30027648186E+02 -0.16940100788E+03  0.25766844509E+03  0.17200000000E+03 0. -1.
<mgrwt>
<rscale>  2 0.19415542E+03</rscale>
<asrwt>0</asrwt>
<pdfrwt beam="1">  1       21 0.14382592E-01 0.19415542E+03</pdfrwt>
<pdfrwt beam="2">  1       21 0.22925006E+00 0.19415542E+03</pdfrwt>
<totfact> 0.37362119E+03</totfact>
</mgrwt>
</event>
<event>
 4    1  0.1086582E+000  0.2243087E+03  0.7546771E-02  0.1130711E+00
         21   -1    0    0  503  502  0.00000000000E+00  0.00000000000E+00  0.63656736407E+03  0.63656736407E+03  0.00000000000E+00 0. -1.
         21   -1    0    0  501  503 -0.00000000000E+00 -0.00000000000E+00 -0.82859947310E+02  0.82859947310E+02  0.00000000000E+00 0.  1.
          6    1    1    2  501    0 -0.45990474995E+02 -0.13643781957E+03  0.19962073546E+03  0.30027127806E+03  0.17200000000E+03 0.  1.
         -6    1    1    2    0  502  0.45990474995E+02  0.13643781957E+03  0.35408668130E+03  0.41915603332E+03  0.17200000000E+03 0.  1.
<mgrwt>
<rscale>  2 0.22430872E+03</rscale>
<asrwt>0</asrwt>
<pdfrwt beam="1">  1       21 0.15914183E+00 0.22430872E+03</pdfrwt>
<pdfrwt beam="2">  1       21 0.20714989E-01 0.22430872E+03</pdfrwt>
<totfact> 0.53805535E+03</totfact>
</mgrwt>
</event>
<event>
 4    1  0.1086582E+000  0.1722953E+03  0.7546771E-02  0.1175475E+00
         21   -1    0    0  503  502  0.00000000000E+00  0.00000000000E+00  0.39788552137E+03  0.39788552137E+03  0.00000000000E+00 0.  1.
         21   -1    0    0  501  503 -0.00000000000E+00 -0.00000000000E+00 -0.74806448666E+02  0.74806448666E+02  0.00000000000E+00 0.  1.
          6    1    1    2  501    0 -0.22160388507E+01 -0.98366350170E+01  0.14938392026E+03  0.22803777286E+03  0.17200000000E+03 0.  1.
         -6    1    1    2    0  502  0.22160388507E+01  0.98366350170E+01  0.17369515244E+03  0.24465419718E+03  0.17200000000E+03 0.  1.
<mgrwt>
<rscale>  2 0.17229530E+03</rscale>
<asrwt>0</asrwt>
<pdfrwt beam="1">  1       21 0.99471375E-01 0.17229530E+03</pdfrwt>
<pdfrwt beam="2">  1       21 0.18701613E-01 0.17229530E+03</pdfrwt>
<totfact> 0.22019305E+04</totfact>
</mgrwt>
</event>
<event>
 4    1  0.1086582E+000  0.2472496E+03  0.7546771E-02  0.1115055E+00
         21   -1    0    0  503  502  0.00000000000E+00  0.00000000000E+00  0.43399534712E+03  0.43399534712E+03  0.00000000000E+00 0.  1.
         21   -1    0    0  501  503 -0.00000000000E+00 -0.00000000000E+00 -0.37155126640E+03  0.37155126640E+03  0.00000000000E+00 0.  1.
          6    1    1    2  501    0 -0.93265767000E+02  0.15116164734E+03 -0.28614907614E+03  0.37817144352E+03  0.17200000000E+03 0.  1.
         -6    1    1    2    0  502  0.93265767000E+02 -0.15116164734E+03  0.34859315686E+03  0.42737516999E+03  0.17200000000E+03 0.  1.
<mgrwt>
<rscale>  2 0.24724956E+03</rscale>
<asrwt>0</asrwt>
<pdfrwt beam="1">  1       21 0.10849884E+00 0.24724956E+03</pdfrwt>
<pdfrwt beam="2">  1       21 0.92887817E-01 0.24724956E+03</pdfrwt>
<totfact> 0.62527968E+02</totfact>
</mgrwt>
</event>
<event>
 4    1  0.1086582E+000  0.1735337E+03  0.7546771E-02  0.1174212E+00
         21   -1    0    0  501  502  0.00000000000E+00  0.00000000000E+00  0.16847068328E+03  0.16847068328E+03  0.00000000000E+00 0. -1.
         21   -1    0    0  502  503 -0.00000000000E+00 -0.00000000000E+00 -0.49026258818E+03  0.49026258818E+03  0.00000000000E+00 0. -1.
          6    1    1    2  501    0 -0.12689662348E+02  0.19206813777E+02  0.10164912349E+03  0.20111308643E+03  0.17200000000E+03 0. -1.
         -6    1    1    2    0  503  0.12689662348E+02 -0.19206813777E+02 -0.42344102839E+03  0.45762018504E+03  0.17200000000E+03 0. -1.
<mgrwt>
<rscale>  2 0.17353365E+03</rscale>
<asrwt>0</asrwt>
<pdfrwt beam="1">  1       21 0.42117671E-01 0.17353365E+03</pdfrwt>
<pdfrwt beam="2">  1       21 0.12256565E+00 0.17353365E+03</pdfrwt>
<totfact> 0.27665363E+03</totfact>
</mgrwt>
</event>
<event>
 4    1  0.1086582E+000  0.2534644E+03  0.7546771E-02  0.1111135E+00
         21   -1    0    0  503  502  0.00000000000E+00  0.00000000000E+00  0.10415225679E+04  0.10415225679E+04  0.00000000000E+00 0.  1.
         21   -1    0    0  501  503 -0.00000000000E+00 -0.00000000000E+00 -0.71958832336E+02  0.71958832336E+02  0.00000000000E+00 0.  1.
          6    1    1    2  501    0 -0.16348581758E+03  0.89065198639E+02  0.27439447369E+03  0.37354591331E+03  0.17200000000E+03 0.  1.
         -6    1    1    2    0  502  0.16348581758E+03 -0.89065198639E+02  0.69516926191E+03  0.73993548696E+03  0.17200000000E+03 0.  1.
<mgrwt>
<rscale>  2 0.25346444E+03</rscale>
<asrwt>0</asrwt>
<pdfrwt beam="1">  1       21 0.26038059E+00 0.25346444E+03</pdfrwt>
<pdfrwt beam="2">  1       21 0.17989711E-01 0.25346444E+03</pdfrwt>
<totfact> 0.15236689E+03</totfact>
</mgrwt>
</event>
<event>
 4    1  0.1086582E+000  0.2263673E+03  0.7546771E-02  0.1129223E+00
         21   -1    0    0  501  502  0.00000000000E+00  0.00000000000E+00  0.10432024088E+04  0.10432024088E+04  0.00000000000E+00 0.  1.
         21   -1    0    0  502  503 -0.00000000000E+00 -0.00000000000E+00 -0.54435563811E+02  0.54435563811E+02  0.00000000000E+00 0.  1.
          6    1    1    2  501    0  0.30802085252E+02  0.14390763256E+03  0.32288521699E+03  0.39433112800E+03  0.17200000000E+03 0.  1.
         -6    1    1    2    0  503 -0.30802085252E+02 -0.14390763256E+03  0.66588162803E+03  0.70330684464E+03  0.17200000000E+03 0.  1.
<mgrwt>
<rscale>  2 0.22636735E+03</rscale>
<asrwt>0</asrwt>
<pdfrwt beam="1">  1       21 0.26080054E+00 0.22636735E+03</pdfrwt>
<pdfrwt beam="2">  1       21 0.13608894E-01 0.22636735E+03</pdfrwt>
<totfact> 0.25951984E+03</totfact>
</mgrwt>
</event>
<event>
 4    1  0.1086582E+000  0.2297047E+03  0.7546771E-02  0.1126848E+00
         21   -1    0    0  501  502  0.00000000000E+00  0.00000000000E+00  0.11442496185E+04  0.11442496185E+04  0.00000000000E+00 0.  1.
         21   -1    0    0  502  503 -0.00000000000E+00 -0.00000000000E+00 -0.24482529504E+03  0.24482529504E+03  0.00000000000E+00 0.  1.
          6    1    1    2  501    0  0.14951825289E+03  0.28715062397E+02  0.10754326785E+04  0.10996907332E+04  0.17200000000E+03 0.  1.
         -6    1    1    2    0  503 -0.14951825289E+03 -0.28715062397E+02 -0.17600835506E+03  0.28938418030E+03  0.17200000000E+03 0.  1.
<mgrwt>
<rscale>  2 0.22970473E+03</rscale>
<asrwt>0</asrwt>
<pdfrwt beam="1">  1       21 0.28606239E+00 0.22970473E+03</pdfrwt>
<pdfrwt beam="2">  1       21 0.61206327E-01 0.22970473E+03</pdfrwt>
<totfact> 0.96450225E+01</totfact>
</mgrwt>
</event>
<event>
 4    1  0.1086582E+000  0.1877774E+03  0.7546771E-02  0.1160481E+00
         21   -1    0    0  503  502  0.00000000000E+00  0.00000000000E+00  0.76370533062E+03  0.76370533062E+03  0.00000000000E+00 0.  1.
         21   -1    0    0  501  503 -0.00000000000E+00 -0.00000000000E+00 -0.51046624024E+02  0.51046624024E+02  0.00000000000E+00 0.  1.
          6    1    1    2  501    0 -0.31292656018E+02  0.68535616248E+02  0.23041752470E+03  0.29724164699E+03  0.17200000000E+03 0.  1.
         -6    1    1    2    0  502  0.31292656018E+02 -0.68535616248E+02  0.48224118190E+03  0.51751030766E+03  0.17200000000E+03 0.  1.
<mgrwt>
<rscale>  2 0.18777742E+03</rscale>
<asrwt>0</asrwt>
<pdfrwt beam="1">  1       21 0.19092630E+00 0.18777742E+03</pdfrwt>
<pdfrwt beam="2">  1       21 0.12761658E-01 0.18777742E+03</pdfrwt>
<totfact> 0.81160462E+03</totfact>
</mgrwt>
</event>
<event>
 4    1  0.1086582E+000  0.2029652E+03  0.7546771E-02  0.1147261E+00
         21   -1    0    0  501  502  0.00000000000E+00  0.00000000000E+00  0.16310962857E+03  0.16310962857E+03  0.00000000000E+00 0.  1.
         21   -1    0    0  502  503 -0.00000000000E+00 -0.00000000000E+00 -0.42478132341E+03  0.42478132341E+03  0.00000000000E+00 0.  1.
          6    1    1    2  501    0  0.18380105471E+02  0.10617466416E+03  0.56330667939E+02  0.21063720406E+03  0.17200000000E+03 0.  1.
         -6    1    1    2    0  503 -0.18380105471E+02 -0.10617466416E+03 -0.31800236278E+03  0.37725374792E+03  0.17200000000E+03 0.  1.
<mgrwt>
<rscale>  2 0.20296524E+03</rscale>
<asrwt>0</asrwt>
<pdfrwt beam="1">  1       21 0.40777408E-01 0.20296524E+03</pdfrwt>
<pdfrwt beam="2">  1       21 0.10619533E+00 0.20296524E+03</pdfrwt>
<totfact> 0.40845062E+03</totfact>
</mgrwt>
</event>
<event>
 4    1  0.1086582E+000  0.2631506E+03  0.7546771E-02  0.1105265E+00
         21   -1    0    0  503  502  0.00000000000E+00  0.00000000000E+00  0.31880556807E+03  0.31880556807E+03  0.00000000000E+00 0.  1.
         21   -1    0    0  501  503 -0.00000000000E+00 -0.00000000000E+00 -0.30924586419E+03  0.30924586419E+03  0.00000000000E+00 0.  1.
          6    1    1    2  501    0 -0.10633322371E+03  0.16839682126E+03 -0.16653231634E+03  0.31141813733E+03  0.17200000000E+03 0.  1.
         -6    1    1    2    0  502  0.10633322371E+03 -0.16839682126E+03  0.17609202021E+03  0.31663329493E+03  0.17200000000E+03 0.  1.
<mgrwt>
<rscale>  2 0.26315061E+03</rscale>
<asrwt>0</asrwt>
<pdfrwt beam="1">  1       21 0.79701392E-01 0.26315061E+03</pdfrwt>
<pdfrwt beam="2">  1       21 0.77311466E-01 0.26315061E+03</pdfrwt>
<totfact> 0.19487074E+03</totfact>
</mgrwt>
</event>
<event>
 4    1  0.1086582E+000  0.1771646E+03  0.7546771E-02  0.1170576E+00
         21   -1    0    0  501  502  0.00000000000E+00  0.00000000000E+00  0.67067771844E+03  0.67067771844E+03  0.00000000000E+00 0. -1.
         21   -1    0    0  502  503 -0.00000000000E+00 -0.00000000000E+00 -0.48516210874E+02  0.48516210874E+02  0.00000000000E+00 0. -1.
          6    1    1    2  501    0  0.42247171365E+02 -0.42981439599E+01  0.24343554098E+03  0.30107832891E+03  0.17200000000E+03 0. -1.
         -6    1    1    2    0  503 -0.42247171365E+02  0.42981439599E+01  0.37872596659E+03  0.41811560041E+03  0.17200000000E+03 0. -1.
<mgrwt>
<rscale>  2 0.17716461E+03</rscale>
<asrwt>0</asrwt>
<pdfrwt beam="1">  1       21 0.16766940E+00 0.17716461E+03</pdfrwt>
<pdfrwt beam="2">  1       21 0.12129055E-01 0.17716461E+03</pdfrwt>
<totfact> 0.12911337E+04</totfact>
</mgrwt>
</event>
<event>
 4    1  0.1086582E+000  0.2783044E+03  0.7546771E-02  0.1096619E+00
         21   -1    0    0  501  502  0.00000000000E+00  0.00000000000E+00  0.72668937939E+03  0.72668937939E+03  0.00000000000E+00 0.  1.
         21   -1    0    0  502  503 -0.00000000000E+00 -0.00000000000E+00 -0.12372320646E+03  0.12372320646E+03  0.00000000000E+00 0.  1.
          6    1    1    2  501    0 -0.14182086720E+03 -0.16660194086E+03  0.14322310001E+03  0.31299556139E+03  0.17200000000E+03 0.  1.
         -6    1    1    2    0  503  0.14182086720E+03  0.16660194086E+03  0.45974307293E+03  0.53741702446E+03  0.17200000000E+03 0.  1.
<mgrwt>
<rscale>  2 0.27830445E+03</rscale>
<asrwt>0</asrwt>
<pdfrwt beam="1">  1       21 0.18167233E+00 0.27830445E+03</pdfrwt>
<pdfrwt beam="2">  1       21 0.30930804E-01 0.27830445E+03</pdfrwt>
<totfact> 0.16525145E+03</totfact>
</mgrwt>
</event>
<event>
 4    1  0.1086582E+000  0.1752869E+03  0.7546771E-02  0.1172444E+00
         21   -1    0    0  501  502  0.00000000000E+00  0.00000000000E+00  0.32728835397E+02  0.32728835397E+02  0.00000000000E+00 0.  1.
         21   -1    0    0  502  503 -0.00000000000E+00 -0.00000000000E+00 -0.10575169344E+04  0.10575169344E+04  0.00000000000E+00 0.  1.
          6    1    1    2  501    0 -0.33462920853E+02  0.46620576215E+01 -0.32974161639E+03  0.37343678907E+03  0.17200000000E+03 0.  1.
         -6    1    1    2    0  503  0.33462920853E+02 -0.46620576215E+01 -0.69504648261E+03  0.71680898072E+03  0.17200000000E+03 0.  1.
<mgrwt>
<rscale>  2 0.17528691E+03</rscale>
<asrwt>0</asrwt>
<pdfrwt beam="1">  1       21 0.81822087E-02 0.17528691E+03</pdfrwt>
<pdfrwt beam="2">  1       21 0.26437924E+00 0.17528691E+03</pdfrwt>
<totfact> 0.64431551E+03</totfact>
</mgrwt>
</event>
<event>
 4    1  0.1086582E+000  0.1860767E+03  0.7546771E-02  0.1162048E+00
         21   -1    0    0  503  502  0.00000000000E+00  0.00000000000E+00  0.10697169130E+03  0.10697169130E+03  0.00000000000E+00 0.  1.
         21   -1    0    0  501  503 -0.00000000000E+00 -0.00000000000E+00 -0.61009393753E+03  0.61009393753E+03  0.00000000000E+00 0.  1.
          6    1    1    2  501    0  0.64190598545E+02  0.30333231772E+02 -0.49721750363E+03  0.53089526632E+03  0.17200000000E+03 0.  1.
         -6    1    1    2    0  502 -0.64190598545E+02 -0.30333231772E+02 -0.59047425985E+01  0.18617036251E+03  0.17200000000E+03 0.  1.
<mgrwt>
<rscale>  2 0.18607670E+03</rscale>
<asrwt>0</asrwt>
<pdfrwt beam="1">  1       21 0.26742923E-01 0.18607670E+03</pdfrwt>
<pdfrwt beam="2">  1       21 0.15252348E+00 0.18607670E+03</pdfrwt>
<totfact> 0.38299905E+03</totfact>
</mgrwt>
</event>
<event>
 4    1  0.1086582E+000  0.2842945E+03  0.7546771E-02  0.1093366E+00
         21   -1    0    0  501  502  0.00000000000E+00  0.00000000000E+00  0.58381158804E+03  0.58381158804E+03  0.00000000000E+00 0.  1.
         21   -1    0    0  502  503 -0.00000000000E+00 -0.00000000000E+00 -0.17074429350E+03  0.17074429350E+03  0.00000000000E+00 0.  1.
          6    1    1    2  501    0  0.48121443722E+02 -0.22118694631E+03  0.37063536030E+03  0.46711230863E+03  0.17200000000E+03 0.  1.
         -6    1    1    2    0  503 -0.48121443722E+02  0.22118694631E+03  0.42431934234E+02  0.28744357291E+03  0.17200000000E+03 0.  1.
<mgrwt>
<rscale>  2 0.28429446E+03</rscale>
<asrwt>0</asrwt>
<pdfrwt beam="1">  1       21 0.14595289E+00 0.28429446E+03</pdfrwt>
<pdfrwt beam="2">  1       21 0.42686075E-01 0.28429446E+03</pdfrwt>
<totfact> 0.15729948E+03</totfact>
</mgrwt>
</event>
