<event>
 4    1  0.2247963E-002  0.5285265E+03  0.7818608E-02  0.1006590E+00
          2   -1    0    0  502    0  0.00000000000E+00  0.00000000000E+00  0.20983461451E+04  0.20983461451E+04  0.00000000000E+00 0. -1.
         -2   -1    0    0    0  501 -0.00000000000E+00 -0.00000000000E+00 -0.13660908116E+03  0.13660908116E+03  0.00000000000E+00 0.  1.
    9000007    1    1    2  502    0 -0.22169565535E+03  0.26493649134E+03  0.80238290751E+03  0.96081144785E+03  0.40000000000E+03 0. -1.
   -9000007    1    1    2    0  501  0.22169565535E+03 -0.26493649134E+03  0.11593541564E+04  0.12741437784E+04  0.40000000000E+03 0. -1.
<mgrwt>
<rscale>  2 0.52852654E+03</rscale>
<asrwt>0</asrwt>
<pdfrwt beam="1">  1        2 0.32282246E+00 0.52852654E+03</pdfrwt>
<pdfrwt beam="2">  1       -2 0.21016783E-01 0.52852654E+03</pdfrwt>
<totfact> 0.12160125E+02</totfact>
</mgrwt>
</event>
<event>
 4    1  0.2247963E-002  0.4012540E+03  0.7818608E-02  0.1043346E+00
         -2   -1    0    0    0  501 -0.00000000000E+00  0.00000000000E+00  0.24652082656E+03  0.24652082656E+03  0.00000000000E+00 0. -1.
          2   -1    0    0  502    0  0.00000000000E+00 -0.00000000000E+00 -0.74686887519E+03  0.74686887519E+03  0.00000000000E+00 0.  1.
    9000007    1    1    2  502    0 -0.31254004884E+02 -0.52890648530E+01 -0.74188190068E+02  0.40805474458E+03  0.40000000000E+03 0. -1.
   -9000007    1    1    2    0  501  0.31254004884E+02  0.52890648530E+01 -0.42615985857E+03  0.58533495717E+03  0.40000000000E+03 0.  1.
<mgrwt>
<rscale>  2 0.40125402E+03</rscale>
<asrwt>0</asrwt>
<pdfrwt beam="1">  1        2 0.11490290E+00 0.40125402E+03</pdfrwt>
<pdfrwt beam="2">  1       -2 0.37926282E-01 0.40125402E+03</pdfrwt>
<totfact> 0.25461756E+02</totfact>
</mgrwt>
</event>
<event>
 4    1  0.2247963E-002  0.4087254E+03  0.7818608E-02  0.1040800E+00
         -1   -1    0    0    0  501 -0.00000000000E+00  0.00000000000E+00  0.72404394500E+03  0.72404394500E+03  0.00000000000E+00 0. -1.
          1   -1    0    0  502    0  0.00000000000E+00 -0.00000000000E+00 -0.25011549661E+03  0.25011549661E+03  0.00000000000E+00 0.  1.
    9000007    1    1    2  502    0 -0.15255126049E+02  0.82606014836E+02  0.37257744910E+03  0.55305553802E+03  0.40000000000E+03 0. -1.
   -9000007    1    1    2    0  501  0.15255126049E+02 -0.82606014836E+02  0.10135099929E+03  0.42110390359E+03  0.40000000000E+03 0.  1.
<mgrwt>
<rscale>  2 0.40872542E+03</rscale>
<asrwt>0</asrwt>
<pdfrwt beam="1">  1        1 0.38479308E-01 0.40872542E+03</pdfrwt>
<pdfrwt beam="2">  1       -1 0.11139137E+00 0.40872542E+03</pdfrwt>
<totfact> 0.86152845E+01</totfact>
</mgrwt>
</event>
<event>
 4    1  0.2247963E-002  0.4360057E+03  0.7818608E-02  0.1031979E+00
         -2   -1    0    0    0  501 -0.00000000000E+00  0.00000000000E+00  0.15870651130E+03  0.15870651130E+03  0.00000000000E+00 0.  1.
          2   -1    0    0  502    0  0.00000000000E+00 -0.00000000000E+00 -0.24980455570E+04  0.24980455570E+04  0.00000000000E+00 0. -1.
    9000007    1    1    2  502    0  0.17338962389E+03 -0.60814201976E+01 -0.21280349496E+04  0.21722416284E+04  0.40000000000E+03 0. -1.
   -9000007    1    1    2    0  501 -0.17338962389E+03  0.60814201976E+01 -0.21130409607E+03  0.48451043989E+03  0.40000000000E+03 0.  1.
<mgrwt>
<rscale>  2 0.43600567E+03</rscale>
<asrwt>0</asrwt>
<pdfrwt beam="1">  1        2 0.38431471E+00 0.43600567E+03</pdfrwt>
<pdfrwt beam="2">  1       -2 0.24416386E-01 0.43600567E+03</pdfrwt>
<totfact> 0.57324938E+01</totfact>
</mgrwt>
</event>
<event>
 4    1  0.2247963E-002  0.4675723E+03  0.7818608E-02  0.1022608E+00
          1   -1    0    0  502    0  0.00000000000E+00  0.00000000000E+00  0.52894484891E+03  0.52894484891E+03  0.00000000000E+00 0. -1.
         -1   -1    0    0    0  501 -0.00000000000E+00 -0.00000000000E+00 -0.45471481182E+03  0.45471481182E+03  0.00000000000E+00 0.  1.
    9000007    1    1    2  502    0  0.21436863822E+03  0.11256072889E+03  0.18550850629E+03  0.50302806746E+03  0.40000000000E+03 0.  1.
   -9000007    1    1    2    0  501 -0.21436863822E+03 -0.11256072889E+03 -0.11127846921E+03  0.48063159327E+03  0.40000000000E+03 0.  1.
<mgrwt>
<rscale>  2 0.46757227E+03</rscale>
<asrwt>0</asrwt>
<pdfrwt beam="1">  1        1 0.81376131E-01 0.46757227E+03</pdfrwt>
<pdfrwt beam="2">  1       -1 0.69956125E-01 0.46757227E+03</pdfrwt>
<totfact> 0.88441678E+01</totfact>
</mgrwt>
</event>
<event>
 4    1  0.2247963E-002  0.4109965E+03  0.7818608E-02  0.1040037E+00
          1   -1    0    0  502    0  0.00000000000E+00  0.00000000000E+00  0.90198668909E+03  0.90198668909E+03  0.00000000000E+00 0. -1.
         -1   -1    0    0    0  501 -0.00000000000E+00 -0.00000000000E+00 -0.19941959436E+03  0.19941959436E+03  0.00000000000E+00 0.  1.
    9000007    1    1    2  502    0  0.85334549265E+02 -0.40449496807E+02  0.48719407468E+03  0.63739800242E+03  0.40000000000E+03 0. -1.
   -9000007    1    1    2    0  501 -0.85334549265E+02  0.40449496807E+02  0.21537302005E+03  0.46400828102E+03  0.40000000000E+03 0.  1.
<mgrwt>
<rscale>  2 0.41099653E+03</rscale>
<asrwt>0</asrwt>
<pdfrwt beam="1">  1        1 0.13876718E+00 0.41099653E+03</pdfrwt>
<pdfrwt beam="2">  1       -1 0.30679938E-01 0.41099653E+03</pdfrwt>
<totfact> 0.18547480E+02</totfact>
</mgrwt>
</event>
<event>
 4    1  0.2247963E-002  0.4965681E+03  0.7818608E-02  0.1014679E+00
          2   -1    0    0  502    0  0.00000000000E+00  0.00000000000E+00  0.17310225824E+04  0.17310225824E+04  0.00000000000E+00 0. -1.
         -2   -1    0    0    0  501 -0.00000000000E+00 -0.00000000000E+00 -0.14594482491E+03  0.14594482491E+03  0.00000000000E+00 0.  1.
    9000007    1    1    2  502    0 -0.78909174538E+02  0.28346639028E+03  0.93781689867E+03  0.10611693492E+04  0.40000000000E+03 0. -1.
   -9000007    1    1    2    0  501  0.78909174538E+02 -0.28346639028E+03  0.64726085881E+03  0.81579805810E+03  0.40000000000E+03 0. -1.
<mgrwt>
<rscale>  2 0.49656807E+03</rscale>
<asrwt>0</asrwt>
<pdfrwt beam="1">  1        2 0.26631115E+00 0.49656807E+03</pdfrwt>
<pdfrwt beam="2">  1       -2 0.22453051E-01 0.49656807E+03</pdfrwt>
<totfact> 0.17150453E+02</totfact>
</mgrwt>
</event>
<event>
 4    1  0.2247963E-002  0.6021236E+03  0.7818608E-02  0.9901010E-01
          2   -1    0    0  502    0  0.00000000000E+00  0.00000000000E+00  0.11284267153E+04  0.11284267153E+04  0.00000000000E+00 0. -1.
         -2   -1    0    0    0  501 -0.00000000000E+00 -0.00000000000E+00 -0.32241555579E+03  0.32241555579E+03  0.00000000000E+00 0.  1.
    9000007    1    1    2  502    0 -0.43793310367E+03  0.10376620317E+03  0.36015451595E+03  0.70161535300E+03  0.40000000000E+03 0.  1.
   -9000007    1    1    2    0  501  0.43793310367E+03 -0.10376620317E+03  0.44585664359E+03  0.74922691812E+03  0.40000000000E+03 0.  1.
<mgrwt>
<rscale>  2 0.60212360E+03</rscale>
<asrwt>0</asrwt>
<pdfrwt beam="1">  1        2 0.17360411E+00 0.60212360E+03</pdfrwt>
<pdfrwt beam="2">  1       -2 0.49602394E-01 0.60212360E+03</pdfrwt>
<totfact> 0.82840416E+01</totfact>
</mgrwt>
</event>
<event>
 4    1  0.2247963E-002  0.4610620E+03  0.7818608E-02  0.1024474E+00
         -2   -1    0    0    0  501 -0.00000000000E+00  0.00000000000E+00  0.10764035347E+03  0.10764035347E+03  0.00000000000E+00 0. -1.
          2   -1    0    0  502    0  0.00000000000E+00 -0.00000000000E+00 -0.22359820203E+04  0.22359820203E+04  0.00000000000E+00 0.  1.
    9000007    1    1    2  502    0  0.17210960453E+03 -0.15151378264E+03 -0.66374868971E+03  0.80817106196E+03  0.40000000000E+03 0. -1.
   -9000007    1    1    2    0  501 -0.17210960453E+03  0.15151378264E+03 -0.14645929771E+04  0.15354513118E+04  0.40000000000E+03 0. -1.
<mgrwt>
<rscale>  2 0.46106197E+03</rscale>
<asrwt>0</asrwt>
<pdfrwt beam="1">  1        2 0.34399728E+00 0.46106197E+03</pdfrwt>
<pdfrwt beam="2">  1       -2 0.16560052E-01 0.46106197E+03</pdfrwt>
<totfact> 0.15599068E+02</totfact>
</mgrwt>
</event>
<event>
 4    1  0.2247963E-002  0.4229553E+03  0.7818608E-02  0.1036109E+00
          2   -1    0    0  502    0  0.00000000000E+00  0.00000000000E+00  0.13389461278E+04  0.13389461278E+04  0.00000000000E+00 0. -1.
         -2   -1    0    0    0  501 -0.00000000000E+00 -0.00000000000E+00 -0.13413942396E+03  0.13413942396E+03  0.00000000000E+00 0.  1.
    9000007    1    1    2  502    0 -0.12278277703E+03  0.61770364390E+02  0.64885173915E+03  0.77453196683E+03  0.40000000000E+03 0. -1.
   -9000007    1    1    2    0  501  0.12278277703E+03 -0.61770364390E+02  0.55595496467E+03  0.69855358492E+03  0.40000000000E+03 0.  1.
<mgrwt>
<rscale>  2 0.42295530E+03</rscale>
<asrwt>0</asrwt>
<pdfrwt beam="1">  1        2 0.20599170E+00 0.42295530E+03</pdfrwt>
<pdfrwt beam="2">  1       -2 0.20636835E-01 0.42295530E+03</pdfrwt>
<totfact> 0.32847014E+02</totfact>
</mgrwt>
</event>
<event>
 4    1  0.2247963E-002  0.4802789E+03  0.7818608E-02  0.1019059E+00
         -2   -1    0    0    0  501 -0.00000000000E+00  0.00000000000E+00  0.87141818190E+03  0.87141818190E+03  0.00000000000E+00 0.  1.
          2   -1    0    0  502    0  0.00000000000E+00 -0.00000000000E+00 -0.89620168155E+03  0.89620168155E+03  0.00000000000E+00 0. -1.
    9000007    1    1    2  502    0 -0.25305166757E+03  0.81441272418E+02 -0.75428582154E+03  0.89421190324E+03  0.40000000000E+03 0. -1.
   -9000007    1    1    2    0  501  0.25305166757E+03 -0.81441272418E+02  0.72950232190E+03  0.87340796022E+03  0.40000000000E+03 0.  1.
<mgrwt>
<rscale>  2 0.48027891E+03</rscale>
<asrwt>0</asrwt>
<pdfrwt beam="1">  1        2 0.13787718E+00 0.48027891E+03</pdfrwt>
<pdfrwt beam="2">  1       -2 0.13406434E+00 0.48027891E+03</pdfrwt>
<totfact> 0.12498146E+01</totfact>
</mgrwt>
</event>
<event>
 4    1  0.2247963E-002  0.4570918E+03  0.7818608E-02  0.1025628E+00
          2   -1    0    0  502    0  0.00000000000E+00  0.00000000000E+00  0.20512612273E+04  0.20512612273E+04  0.00000000000E+00 0. -1.
         -2   -1    0    0    0  501 -0.00000000000E+00 -0.00000000000E+00 -0.10261091454E+03  0.10261091454E+03  0.00000000000E+00 0.  1.
    9000007    1    1    2  502    0  0.15442415228E+03 -0.15838593691E+03  0.10667076492E+04  0.11605163216E+04  0.40000000000E+03 0. -1.
   -9000007    1    1    2    0  501 -0.15442415228E+03  0.15838593691E+03  0.88194266357E+03  0.99335582026E+03  0.40000000000E+03 0.  1.
<mgrwt>
<rscale>  2 0.45709181E+03</rscale>
<asrwt>0</asrwt>
<pdfrwt beam="1">  1        2 0.31557862E+00 0.45709181E+03</pdfrwt>
<pdfrwt beam="2">  1       -2 0.15786296E-01 0.45709181E+03</pdfrwt>
<totfact> 0.21297933E+02</totfact>
</mgrwt>
</event>
<event>
 4    1  0.2247963E-002  0.4126201E+03  0.7818608E-02  0.1039495E+00
         -1   -1    0    0    0  501 -0.00000000000E+00  0.00000000000E+00  0.11625146640E+04  0.11625146640E+04  0.00000000000E+00 0.  1.
          1   -1    0    0  502    0  0.00000000000E+00 -0.00000000000E+00 -0.28571207810E+03  0.28571207810E+03  0.00000000000E+00 0. -1.
    9000007    1    1    2  502    0 -0.77872655174E+02  0.64739545189E+02 -0.67134465188E+02  0.41804592517E+03  0.40000000000E+03 0. -1.
   -9000007    1    1    2    0  501  0.77872655174E+02 -0.64739545189E+02  0.94393705107E+03  0.10301808169E+04  0.40000000000E+03 0.  1.
<mgrwt>
<rscale>  2 0.41262011E+03</rscale>
<asrwt>0</asrwt>
<pdfrwt beam="1">  1        1 0.43955705E-01 0.41262011E+03</pdfrwt>
<pdfrwt beam="2">  1       -1 0.17884841E+00 0.41262011E+03</pdfrwt>
<totfact> 0.21274696E+01</totfact>
</mgrwt>
</event>
<event>
 4    1  0.2247963E-002  0.4025102E+03  0.7818608E-02  0.1042914E+00
          2   -1    0    0  502    0  0.00000000000E+00  0.00000000000E+00  0.45812624180E+03  0.45812624180E+03  0.00000000000E+00 0.  1.
         -2   -1    0    0    0  501 -0.00000000000E+00 -0.00000000000E+00 -0.38205196302E+03  0.38205196302E+03  0.00000000000E+00 0. -1.
    9000007    1    1    2  502    0  0.43120929080E+02 -0.12451550667E+02  0.15258471772E+03  0.43046085969E+03  0.40000000000E+03 0.  1.
   -9000007    1    1    2    0  501 -0.43120929080E+02  0.12451550667E+02 -0.76510438941E+02  0.40971734514E+03  0.40000000000E+03 0. -1.
<mgrwt>
<rscale>  2 0.40251019E+03</rscale>
<asrwt>0</asrwt>
<pdfrwt beam="1">  1        2 0.70480960E-01 0.40251019E+03</pdfrwt>
<pdfrwt beam="2">  1       -2 0.58777226E-01 0.40251019E+03</pdfrwt>
<totfact> 0.18939085E+02</totfact>
</mgrwt>
</event>
<event>
 4    1  0.2247963E-002  0.4411427E+03  0.7818608E-02  0.1030397E+00
          1   -1    0    0  502    0  0.00000000000E+00  0.00000000000E+00  0.24573307433E+04  0.24573307433E+04  0.00000000000E+00 0. -1.
         -1   -1    0    0    0  501 -0.00000000000E+00 -0.00000000000E+00 -0.79285151525E+02  0.79285151525E+02  0.00000000000E+00 0.  1.
    9000007    1    1    2  502    0  0.18207736755E+03 -0.38140328337E+02  0.12319307331E+04  0.13085336005E+04  0.40000000000E+03 0. -1.
   -9000007    1    1    2    0  501 -0.18207736755E+03  0.38140328337E+02  0.11461148587E+04  0.12280822944E+04  0.40000000000E+03 0. -1.
<mgrwt>
<rscale>  2 0.44114267E+03</rscale>
<asrwt>0</asrwt>
<pdfrwt beam="1">  1        1 0.37805083E+00 0.44114267E+03</pdfrwt>
<pdfrwt beam="2">  1       -1 0.12197718E-01 0.44114267E+03</pdfrwt>
<totfact> 0.72684047E+01</totfact>
</mgrwt>
</event>
<event>
 4    1  0.2247963E-002  0.6373165E+03  0.7818608E-02  0.9830874E-01
         -1   -1    0    0    0  501 -0.00000000000E+00  0.00000000000E+00  0.97404401941E+03  0.97404401941E+03  0.00000000000E+00 0. -1.
          1   -1    0    0  502    0  0.00000000000E+00 -0.00000000000E+00 -0.44613260059E+03  0.44613260059E+03  0.00000000000E+00 0.  1.
    9000007    1    1    2  502    0  0.48733031032E+03 -0.93174854545E+02  0.44542385347E+03  0.77754407857E+03  0.40000000000E+03 0. -1.
   -9000007    1    1    2    0  501 -0.48733031032E+03  0.93174854545E+02  0.82487565351E+02  0.64263254144E+03  0.40000000000E+03 0.  1.
<mgrwt>
<rscale>  2 0.63731655E+03</rscale>
<asrwt>0</asrwt>
<pdfrwt beam="1">  1        1 0.68635785E-01 0.63731655E+03</pdfrwt>
<pdfrwt beam="2">  1       -1 0.14985293E+00 0.63731655E+03</pdfrwt>
<totfact> 0.18847034E+01</totfact>
</mgrwt>
</event>
<event>
 4    1  0.2247963E-002  0.4918240E+03  0.7818608E-02  0.1015935E+00
         -1   -1    0    0    0  501 -0.00000000000E+00  0.00000000000E+00  0.11857914586E+03  0.11857914586E+03  0.00000000000E+00 0.  1.
          1   -1    0    0  502    0  0.00000000000E+00 -0.00000000000E+00 -0.21920346388E+04  0.21920346388E+04  0.00000000000E+00 0. -1.
    9000007    1    1    2  502    0  0.80064207315E+02 -0.27473731705E+03 -0.73237837317E+03  0.88219552944E+03  0.40000000000E+03 0.  1.
   -9000007    1    1    2    0  501 -0.80064207315E+02  0.27473731705E+03 -0.13410771198E+04  0.14284182552E+04  0.40000000000E+03 0.  1.
<mgrwt>
<rscale>  2 0.49182402E+03</rscale>
<asrwt>0</asrwt>
<pdfrwt beam="1">  1        1 0.33723607E+00 0.49182402E+03</pdfrwt>
<pdfrwt beam="2">  1       -1 0.18242947E-01 0.49182402E+03</pdfrwt>
<totfact> 0.56568047E+01</totfact>
</mgrwt>
</event>
<event>
 4    1  0.2247963E-002  0.4168310E+03  0.7818608E-02  0.1038103E+00
          2   -1    0    0  502    0  0.00000000000E+00  0.00000000000E+00  0.14942058939E+04  0.14942058939E+04  0.00000000000E+00 0. -1.
         -2   -1    0    0    0  501 -0.00000000000E+00 -0.00000000000E+00 -0.30560075090E+03  0.30560075090E+03  0.00000000000E+00 0.  1.
    9000007    1    1    2  502    0 -0.10976538417E+03  0.41226273827E+02 -0.11399603363E+03  0.43213787256E+03  0.40000000000E+03 0.  1.
   -9000007    1    1    2    0  501  0.10976538417E+03 -0.41226273827E+02  0.13026011766E+04  0.13676687722E+04  0.40000000000E+03 0. -1.
<mgrwt>
<rscale>  2 0.41683096E+03</rscale>
<asrwt>0</asrwt>
<pdfrwt beam="1">  1        2 0.22987783E+00 0.41683096E+03</pdfrwt>
<pdfrwt beam="2">  1       -2 0.47015501E-01 0.41683096E+03</pdfrwt>
<totfact> 0.58591762E+01</totfact>
</mgrwt>
</event>
<event>
 4    1  0.2247963E-002  0.6737359E+03  0.7818608E-02  0.9763232E-01
         -1   -1    0    0    0  501 -0.00000000000E+00  0.00000000000E+00  0.42671415938E+03  0.42671415938E+03  0.00000000000E+00 0. -1.
          1   -1    0    0  502    0  0.00000000000E+00 -0.00000000000E+00 -0.10910843643E+04  0.10910843643E+04  0.00000000000E+00 0.  1.
    9000007    1    1    2  502    0 -0.44315674127E+03 -0.31230149101E+03 -0.21208182214E+03  0.70632769867E+03  0.40000000000E+03 0. -1.
   -9000007    1    1    2    0  501  0.44315674127E+03  0.31230149101E+03 -0.45228838275E+03  0.81147082498E+03  0.40000000000E+03 0. -1.
<mgrwt>
<rscale>  2 0.67373594E+03</rscale>
<asrwt>0</asrwt>
<pdfrwt beam="1">  1        1 0.16785913E+00 0.67373594E+03</pdfrwt>
<pdfrwt beam="2">  1       -1 0.65648332E-01 0.67373594E+03</pdfrwt>
<totfact> 0.31405545E+01</totfact>
</mgrwt>
</event>
<event>
 4    1  0.2247963E-002  0.5588262E+03  0.7818608E-02  0.9994714E-01
         -2   -1    0    0    0  501 -0.00000000000E+00  0.00000000000E+00  0.42402144211E+03  0.42402144211E+03  0.00000000000E+00 0. -1.
          2   -1    0    0  502    0  0.00000000000E+00 -0.00000000000E+00 -0.76201987004E+03  0.76201987004E+03  0.00000000000E+00 0.  1.
    9000007    1    1    2  502    0  0.39003065766E+03 -0.12758921733E+02 -0.27754875281E+03  0.62395513796E+03  0.40000000000E+03 0.  1.
   -9000007    1    1    2    0  501 -0.39003065766E+03  0.12758921733E+02 -0.60449675116E+02  0.56208617419E+03  0.40000000000E+03 0. -1.
<mgrwt>
<rscale>  2 0.55882618E+03</rscale>
<asrwt>0</asrwt>
<pdfrwt beam="1">  1        2 0.11723383E+00 0.55882618E+03</pdfrwt>
<pdfrwt beam="2">  1       -2 0.65234069E-01 0.55882618E+03</pdfrwt>
<totfact> 0.81796940E+01</totfact>
</mgrwt>
</event>
<event>
 4    1  0.2247963E-002  0.5398206E+03  0.7818608E-02  0.1003878E+00
         -1   -1    0    0    0  501 -0.00000000000E+00  0.00000000000E+00  0.46488632539E+03  0.46488632539E+03  0.00000000000E+00 0. -1.
          1   -1    0    0  502    0  0.00000000000E+00 -0.00000000000E+00 -0.77627120590E+03  0.77627120590E+03  0.00000000000E+00 0.  1.
    9000007    1    1    2  502    0 -0.66558947510E+02  0.35633720523E+03 -0.42797532744E+03  0.68888981574E+03  0.40000000000E+03 0.  1.
   -9000007    1    1    2    0  501  0.66558947510E+02 -0.35633720523E+03  0.11659044694E+03  0.55226771555E+03  0.40000000000E+03 0. -1.
<mgrwt>
<rscale>  2 0.53982062E+03</rscale>
<asrwt>0</asrwt>
<pdfrwt beam="1">  1        1 0.11942634E+00 0.53982062E+03</pdfrwt>
<pdfrwt beam="2">  1       -1 0.71520975E-01 0.53982062E+03</pdfrwt>
<totfact> 0.47943822E+01</totfact>
</mgrwt>
</event>
<event>
 4    1  0.2247963E-002  0.4491451E+03  0.7818608E-02  0.1027977E+00
         -1   -1    0    0    0  501 -0.00000000000E+00  0.00000000000E+00  0.17460949393E+03  0.17460949393E+03  0.00000000000E+00 0.  1.
          1   -1    0    0  502    0  0.00000000000E+00 -0.00000000000E+00 -0.11824609099E+04  0.11824609099E+04  0.00000000000E+00 0. -1.
    9000007    1    1    2  502    0  0.51625126838E+02 -0.19765172761E+03 -0.60670877989E+03  0.75486879836E+03  0.40000000000E+03 0. -1.
   -9000007    1    1    2    0  501 -0.51625126838E+02  0.19765172761E+03 -0.40114263608E+03  0.60220160547E+03  0.40000000000E+03 0.  1.
<mgrwt>
<rscale>  2 0.44914514E+03</rscale>
<asrwt>0</asrwt>
<pdfrwt beam="1">  1        1 0.18191706E+00 0.44914514E+03</pdfrwt>
<pdfrwt beam="2">  1       -1 0.26862999E-01 0.44914514E+03</pdfrwt>
<totfact> 0.14268293E+02</totfact>
</mgrwt>
</event>
<event>
 4    1  0.2247963E-002  0.4700501E+03  0.7818608E-02  0.1021906E+00
          2   -1    0    0  502    0  0.00000000000E+00  0.00000000000E+00  0.98866457761E+03  0.98866457761E+03  0.00000000000E+00 0. -1.
         -2   -1    0    0    0  501 -0.00000000000E+00 -0.00000000000E+00 -0.23748092729E+03  0.23748092729E+03  0.00000000000E+00 0.  1.
    9000007    1    1    2  502    0  0.13739839294E+03 -0.20510671926E+03  0.52444940386E+03  0.70426860066E+03  0.40000000000E+03 0. -1.
   -9000007    1    1    2    0  501 -0.13739839294E+03  0.20510671926E+03  0.22673424645E+03  0.52187690424E+03  0.40000000000E+03 0.  1.
<mgrwt>
<rscale>  2 0.47005009E+03</rscale>
<asrwt>0</asrwt>
<pdfrwt beam="1">  1        2 0.15210224E+00 0.47005009E+03</pdfrwt>
<pdfrwt beam="2">  1       -2 0.36535528E-01 0.47005009E+03</pdfrwt>
<totfact> 0.18646022E+02</totfact>
</mgrwt>
</event>
<event>
 4    1  0.2247963E-002  0.4078604E+03  0.7818608E-02  0.1041091E+00
          1   -1    0    0  502    0  0.00000000000E+00  0.00000000000E+00  0.21475210099E+04  0.21475210099E+04  0.00000000000E+00 0.  1.
         -1   -1    0    0    0  501 -0.00000000000E+00 -0.00000000000E+00 -0.10881299386E+03  0.10881299386E+03  0.00000000000E+00 0. -1.
    9000007    1    1    2  502    0 -0.79303340700E+02 -0.78145970843E+01  0.41378660383E+03  0.58100726440E+03  0.40000000000E+03 0. -1.
   -9000007    1    1    2    0  501  0.79303340700E+02  0.78145970843E+01  0.16249214122E+04  0.16753267394E+04  0.40000000000E+03 0.  1.
<mgrwt>
<rscale>  2 0.40786038E+03</rscale>
<asrwt>0</asrwt>
<pdfrwt beam="1">  1        1 0.33038782E+00 0.40786038E+03</pdfrwt>
<pdfrwt beam="2">  1       -1 0.16740462E-01 0.40786038E+03</pdfrwt>
<totfact> 0.70787487E+01</totfact>
</mgrwt>
</event>
<event>
 4    1  0.2247963E-002  0.5947555E+03  0.7818608E-02  0.9916347E-01
          2   -1    0    0  502    0  0.00000000000E+00  0.00000000000E+00  0.38197655479E+04  0.38197655479E+04  0.00000000000E+00 0. -1.
         -2   -1    0    0    0  501 -0.00000000000E+00 -0.00000000000E+00 -0.17298072509E+03  0.17298072509E+03  0.00000000000E+00 0.  1.
    9000007    1    1    2  502    0  0.36859673689E+03 -0.24056303682E+03  0.46256841263E+03  0.75346112408E+03  0.40000000000E+03 0.  1.
   -9000007    1    1    2    0  501 -0.36859673689E+03  0.24056303682E+03  0.31842164102E+04  0.32392851489E+04  0.40000000000E+03 0. -1.
<mgrwt>
<rscale>  2 0.59475552E+03</rscale>
<asrwt>0</asrwt>
<pdfrwt beam="1">  1        2 0.58765618E+00 0.59475552E+03</pdfrwt>
<pdfrwt beam="2">  1       -2 0.26612422E-01 0.59475552E+03</pdfrwt>
<totfact> 0.68887734E+00</totfact>
</mgrwt>
</event>
<event>
 4    1  0.2247963E-002  0.5458725E+03  0.7818608E-02  0.1002454E+00
          1   -1    0    0  502    0  0.00000000000E+00  0.00000000000E+00  0.17139932436E+04  0.17139932436E+04  0.00000000000E+00 0.  1.
         -1   -1    0    0    0  501 -0.00000000000E+00 -0.00000000000E+00 -0.19016841687E+03  0.19016841687E+03  0.00000000000E+00 0. -1.
    9000007    1    1    2  502    0 -0.21251861807E+03  0.30465159764E+03  0.10408140995E+04  0.11752747546E+04  0.40000000000E+03 0.  1.
   -9000007    1    1    2    0  501  0.21251861807E+03 -0.30465159764E+03  0.48301072719E+03  0.72888690588E+03  0.40000000000E+03 0. -1.
<mgrwt>
<rscale>  2 0.54587248E+03</rscale>
<asrwt>0</asrwt>
<pdfrwt beam="1">  1        1 0.26369126E+00 0.54587248E+03</pdfrwt>
<pdfrwt beam="2">  1       -1 0.29256681E-01 0.54587248E+03</pdfrwt>
<totfact> 0.52590783E+01</totfact>
</mgrwt>
</event>
<event>
 4    1  0.2247963E-002  0.7588599E+03  0.7818608E-02  0.9621552E-01
         -2   -1    0    0    0  501 -0.00000000000E+00  0.00000000000E+00  0.78701843379E+03  0.78701843379E+03  0.00000000000E+00 0. -1.
          2   -1    0    0  502    0  0.00000000000E+00 -0.00000000000E+00 -0.13366873627E+04  0.13366873627E+04  0.00000000000E+00 0.  1.
    9000007    1    1    2  502    0  0.48861408072E+03  0.42086169532E+03  0.43952933919E+03  0.87695742569E+03  0.40000000000E+03 0. -1.
   -9000007    1    1    2    0  501 -0.48861408072E+03 -0.42086169532E+03 -0.98919826812E+03  0.12467483708E+04  0.40000000000E+03 0.  1.
<mgrwt>
<rscale>  2 0.75885986E+03</rscale>
<asrwt>0</asrwt>
<pdfrwt beam="1">  1        2 0.20564421E+00 0.75885986E+03</pdfrwt>
<pdfrwt beam="2">  1       -2 0.12107976E+00 0.75885986E+03</pdfrwt>
<totfact> 0.83436037E+00</totfact>
</mgrwt>
</event>
<event>
 4    1  0.2247963E-002  0.4882609E+03  0.7818608E-02  0.1016889E+00
          1   -1    0    0  502    0  0.00000000000E+00  0.00000000000E+00  0.12960722152E+03  0.12960722152E+03  0.00000000000E+00 0.  1.
         -1   -1    0    0    0  501 -0.00000000000E+00 -0.00000000000E+00 -0.18420833186E+04  0.18420833186E+04  0.00000000000E+00 0. -1.
    9000007    1    1    2  502    0 -0.90783288267E+02 -0.26487184664E+03 -0.81856738122E+03  0.95312709445E+03  0.40000000000E+03 0. -1.
   -9000007    1    1    2    0  501  0.90783288267E+02  0.26487184664E+03 -0.89390871589E+03  0.10185634457E+04  0.40000000000E+03 0.  1.
<mgrwt>
<rscale>  2 0.48826089E+03</rscale>
<asrwt>0</asrwt>
<pdfrwt beam="1">  1        1 0.19939574E-01 0.48826089E+03</pdfrwt>
<pdfrwt beam="2">  1       -1 0.28339741E+00 0.48826089E+03</pdfrwt>
<totfact> 0.12010527E+01</totfact>
</mgrwt>
</event>
<event>
 4    1  0.2247963E-002  0.6008472E+03  0.7818608E-02  0.9903650E-01
         -2   -1    0    0    0  501 -0.00000000000E+00  0.00000000000E+00  0.11534121068E+04  0.11534121068E+04  0.00000000000E+00 0.  1.
          2   -1    0    0  502    0  0.00000000000E+00 -0.00000000000E+00 -0.31523650793E+03  0.31523650793E+03  0.00000000000E+00 0. -1.
    9000007    1    1    2  502    0 -0.41324746872E+03  0.17390764729E+03  0.48094774239E+03  0.76962852799E+03  0.40000000000E+03 0.  1.
   -9000007    1    1    2    0  501  0.41324746872E+03 -0.17390764729E+03  0.35722785645E+03  0.69902008670E+03  0.40000000000E+03 0. -1.
<mgrwt>
<rscale>  2 0.60084719E+03</rscale>
<asrwt>0</asrwt>
<pdfrwt beam="1">  1        2 0.48497925E-01 0.60084719E+03</pdfrwt>
<pdfrwt beam="2">  1       -2 0.17744801E+00 0.60084719E+03</pdfrwt>
<totfact> 0.20179853E+01</totfact>
</mgrwt>
</event>
<event>
 4    1  0.2247963E-002  0.4239888E+03  0.7818608E-02  0.1035776E+00
         -2   -1    0    0    0  501 -0.00000000000E+00  0.00000000000E+00  0.57221111505E+03  0.57221111505E+03  0.00000000000E+00 0.  1.
          2   -1    0    0  502    0  0.00000000000E+00 -0.00000000000E+00 -0.32383514393E+03  0.32383514393E+03  0.00000000000E+00 0. -1.
    9000007    1    1    2  502    0  0.48608580766E+02 -0.13192305826E+03  0.46752162076E+02  0.42655861506E+03  0.40000000000E+03 0. -1.
   -9000007    1    1    2    0  501 -0.48608580766E+02  0.13192305826E+03  0.20162380904E+03  0.46948764393E+03  0.40000000000E+03 0.  1.
<mgrwt>
<rscale>  2 0.42398878E+03</rscale>
<asrwt>0</asrwt>
<pdfrwt beam="1">  1        2 0.49820791E-01 0.42398878E+03</pdfrwt>
<pdfrwt beam="2">  1       -2 0.88032479E-01 0.42398878E+03</pdfrwt>
<totfact> 0.11521114E+02</totfact>
</mgrwt>
</event>
<event>
 4    1  0.2247963E-002  0.4119012E+03  0.7818608E-02  0.1039735E+00
          1   -1    0    0  502    0  0.00000000000E+00  0.00000000000E+00  0.67681370311E+03  0.67681370311E+03  0.00000000000E+00 0.  1.
         -1   -1    0    0    0  501 -0.00000000000E+00 -0.00000000000E+00 -0.37102708344E+03  0.37102708344E+03  0.00000000000E+00 0. -1.
    9000007    1    1    2  502    0  0.81811970317E+02  0.54491928160E+02  0.45128257087E+03  0.61099797667E+03  0.40000000000E+03 0.  1.
   -9000007    1    1    2    0  501 -0.81811970317E+02 -0.54491928160E+02 -0.14549595121E+03  0.43684280988E+03  0.40000000000E+03 0. -1.
<mgrwt>
<rscale>  2 0.41190116E+03</rscale>
<asrwt>0</asrwt>
<pdfrwt beam="1">  1        1 0.10412518E+00 0.41190116E+03</pdfrwt>
<pdfrwt beam="2">  1       -1 0.57081090E-01 0.41190116E+03</pdfrwt>
<totfact> 0.93840291E+01</totfact>
</mgrwt>
</event>
<event>
 4    1  0.2247963E-002  0.5679837E+03  0.7818608E-02  0.9974150E-01
         -2   -1    0    0    0  501 -0.00000000000E+00  0.00000000000E+00  0.42015050524E+03  0.42015050524E+03  0.00000000000E+00 0.  1.
          2   -1    0    0  502    0  0.00000000000E+00 -0.00000000000E+00 -0.96036205327E+03  0.96036205327E+03  0.00000000000E+00 0. -1.
    9000007    1    1    2  502    0 -0.13462421910E+03  0.38010767916E+03  0.38952749524E+02  0.56931787678E+03  0.40000000000E+03 0.  1.
   -9000007    1    1    2    0  501  0.13462421910E+03 -0.38010767916E+03 -0.57916429755E+03  0.81119468174E+03  0.40000000000E+03 0. -1.
<mgrwt>
<rscale>  2 0.56798374E+03</rscale>
<asrwt>0</asrwt>
<pdfrwt beam="1">  1        2 0.14774801E+00 0.56798374E+03</pdfrwt>
<pdfrwt beam="2">  1       -2 0.64638540E-01 0.56798374E+03</pdfrwt>
<totfact> 0.60954753E+01</totfact>
</mgrwt>
</event>
<event>
 4    1  0.2247963E-002  0.4769632E+03  0.7818608E-02  0.1019973E+00
          2   -1    0    0  502    0  0.00000000000E+00  0.00000000000E+00  0.15098630238E+04  0.15098630238E+04  0.00000000000E+00 0. -1.
         -2   -1    0    0    0  501 -0.00000000000E+00 -0.00000000000E+00 -0.18231920773E+03  0.18231920773E+03  0.00000000000E+00 0.  1.
    9000007    1    1    2  502    0  0.24475435210E+03 -0.87115923486E+02  0.31126344284E+03  0.56954263040E+03  0.40000000000E+03 0.  1.
   -9000007    1    1    2    0  501 -0.24475435210E+03  0.87115923486E+02  0.10162803732E+04  0.11226396011E+04  0.40000000000E+03 0. -1.
<mgrwt>
<rscale>  2 0.47696318E+03</rscale>
<asrwt>0</asrwt>
<pdfrwt beam="1">  1        2 0.23228661E+00 0.47696318E+03</pdfrwt>
<pdfrwt beam="2">  1       -2 0.28049110E-01 0.47696318E+03</pdfrwt>
<totfact> 0.15208662E+02</totfact>
</mgrwt>
</event>
<event>
 4    1  0.2247963E-002  0.4477202E+03  0.7818608E-02  0.1028404E+00
         -1   -1    0    0    0  501 -0.00000000000E+00  0.00000000000E+00  0.10815010094E+03  0.10815010094E+03  0.00000000000E+00 0.  1.
          1   -1    0    0  502    0  0.00000000000E+00 -0.00000000000E+00 -0.20518300113E+04  0.20518300113E+04  0.00000000000E+00 0. -1.
    9000007    1    1    2  502    0  0.19073891191E+03  0.63812301940E+02 -0.63604641577E+03  0.77782284963E+03  0.40000000000E+03 0.  1.
   -9000007    1    1    2    0  501 -0.19073891191E+03 -0.63812301940E+02 -0.13076334946E+04  0.13821572626E+04  0.40000000000E+03 0. -1.
<mgrwt>
<rscale>  2 0.44772016E+03</rscale>
<asrwt>0</asrwt>
<pdfrwt beam="1">  1        1 0.31566617E+00 0.44772016E+03</pdfrwt>
<pdfrwt beam="2">  1       -1 0.16638477E-01 0.44772016E+03</pdfrwt>
<totfact> 0.82045555E+01</totfact>
</mgrwt>
</event>
<event>
 4    1  0.2247963E-002  0.5579157E+03  0.7818608E-02  0.9996782E-01
          2   -1    0    0  502    0  0.00000000000E+00  0.00000000000E+00  0.79819512634E+03  0.79819512634E+03  0.00000000000E+00 0.  1.
         -2   -1    0    0    0  501 -0.00000000000E+00 -0.00000000000E+00 -0.99896744551E+03  0.99896744551E+03  0.00000000000E+00 0. -1.
    9000007    1    1    2  502    0  0.17548352064E+03 -0.34709570867E+03  0.60121523768E+03  0.82020098696E+03  0.40000000000E+03 0.  1.
   -9000007    1    1    2    0  501 -0.17548352064E+03  0.34709570867E+03 -0.80198755686E+03  0.97696158489E+03  0.40000000000E+03 0. -1.
<mgrwt>
<rscale>  2 0.55791567E+03</rscale>
<asrwt>0</asrwt>
<pdfrwt beam="1">  1        2 0.12279925E+00 0.55791567E+03</pdfrwt>
<pdfrwt beam="2">  1       -2 0.15368730E+00 0.55791567E+03</pdfrwt>
<totfact> 0.10115200E+01</totfact>
</mgrwt>
</event>
<event>
 4    1  0.2247963E-002  0.4519090E+03  0.7818608E-02  0.1027154E+00
         -2   -1    0    0    0  501 -0.00000000000E+00  0.00000000000E+00  0.11293335246E+04  0.11293335246E+04  0.00000000000E+00 0. -1.
          2   -1    0    0  502    0  0.00000000000E+00 -0.00000000000E+00 -0.18881777261E+03  0.18881777261E+03  0.00000000000E+00 0.  1.
    9000007    1    1    2  502    0 -0.13515432569E+03 -0.16110563384E+03  0.33473198123E+03  0.56237640088E+03  0.40000000000E+03 0.  1.
   -9000007    1    1    2    0  501  0.13515432569E+03  0.16110563384E+03  0.60578377076E+03  0.75577489633E+03  0.40000000000E+03 0.  1.
<mgrwt>
<rscale>  2 0.45190897E+03</rscale>
<asrwt>0</asrwt>
<pdfrwt beam="1">  1        2 0.29048889E-01 0.45190897E+03</pdfrwt>
<pdfrwt beam="2">  1       -2 0.17374361E+00 0.45190897E+03</pdfrwt>
<totfact> 0.38377103E+01</totfact>
</mgrwt>
</event>
<event>
 4    1  0.2247963E-002  0.4960352E+03  0.7818608E-02  0.1014819E+00
         -2   -1    0    0    0  501 -0.00000000000E+00  0.00000000000E+00  0.15857595796E+04  0.15857595796E+04  0.00000000000E+00 0.  1.
          2   -1    0    0  502    0  0.00000000000E+00 -0.00000000000E+00 -0.12324403041E+04  0.12324403041E+04  0.00000000000E+00 0. -1.
    9000007    1    1    2  502    0  0.81673689141E+02 -0.28174518367E+03 -0.11407554736E+04  0.12439348820E+04  0.40000000000E+03 0. -1.
   -9000007    1    1    2    0  501 -0.81673689141E+02  0.28174518367E+03  0.14940747490E+04  0.15742650017E+04  0.40000000000E+03 0.  1.
<mgrwt>
<rscale>  2 0.49603522E+03</rscale>
<asrwt>0</asrwt>
<pdfrwt beam="1">  1        2 0.18960620E+00 0.49603522E+03</pdfrwt>
<pdfrwt beam="2">  1       -2 0.24396301E+00 0.49603522E+03</pdfrwt>
<totfact> 0.13916863E+00</totfact>
</mgrwt>
</event>
<event>
 4    1  0.2247963E-002  0.4712177E+03  0.7818608E-02  0.1021577E+00
         -2   -1    0    0    0  501 -0.00000000000E+00  0.00000000000E+00  0.19228148017E+04  0.19228148017E+04  0.00000000000E+00 0.  1.
          2   -1    0    0  502    0  0.00000000000E+00 -0.00000000000E+00 -0.40106069777E+03  0.40106069777E+03  0.00000000000E+00 0. -1.
    9000007    1    1    2  502    0  0.16282137064E+03  0.18850814627E+03 -0.21961131453E+03  0.51988003368E+03  0.40000000000E+03 0. -1.
   -9000007    1    1    2    0  501 -0.16282137064E+03 -0.18850814627E+03  0.17413654184E+04  0.18039954658E+04  0.40000000000E+03 0.  1.
<mgrwt>
<rscale>  2 0.47121770E+03</rscale>
<asrwt>0</asrwt>
<pdfrwt beam="1">  1        2 0.61701647E-01 0.47121770E+03</pdfrwt>
<pdfrwt beam="2">  1       -2 0.29581766E+00 0.47121770E+03</pdfrwt>
<totfact> 0.29248281E+00</totfact>
</mgrwt>
</event>
<event>
 4    1  0.2247963E-002  0.4525426E+03  0.7818608E-02  0.1026967E+00
         -2   -1    0    0    0  501 -0.00000000000E+00  0.00000000000E+00  0.42640076153E+03  0.42640076153E+03  0.00000000000E+00 0. -1.
          2   -1    0    0  502    0  0.00000000000E+00 -0.00000000000E+00 -0.64881032831E+03  0.64881032831E+03  0.00000000000E+00 0.  1.
    9000007    1    1    2  502    0  0.14955326829E+03  0.14976200672E+03 -0.38519470327E+03  0.59428090844E+03  0.40000000000E+03 0.  1.
   -9000007    1    1    2    0  501 -0.14955326829E+03 -0.14976200672E+03  0.16278513649E+03  0.48093018139E+03  0.40000000000E+03 0. -1.
<mgrwt>
<rscale>  2 0.45254264E+03</rscale>
<asrwt>0</asrwt>
<pdfrwt beam="1">  1        2 0.99816973E-01 0.45254264E+03</pdfrwt>
<pdfrwt beam="2">  1       -2 0.65600117E-01 0.45254264E+03</pdfrwt>
<totfact> 0.99796856E+01</totfact>
</mgrwt>
</event>
<event>
 4    1  0.2247963E-002  0.5297098E+03  0.7818608E-02  0.1006303E+00
         -2   -1    0    0    0  501 -0.00000000000E+00  0.00000000000E+00  0.19006578422E+03  0.19006578422E+03  0.00000000000E+00 0. -1.
          2   -1    0    0  502    0  0.00000000000E+00 -0.00000000000E+00 -0.15115217680E+04  0.15115217680E+04  0.00000000000E+00 0.  1.
    9000007    1    1    2  502    0 -0.12811787254E+03 -0.32276657923E+03 -0.79061826301E+03  0.95166679659E+03  0.40000000000E+03 0. -1.
   -9000007    1    1    2    0  501  0.12811787254E+03  0.32276657923E+03 -0.53083772078E+03  0.74992075563E+03  0.40000000000E+03 0. -1.
<mgrwt>
<rscale>  2 0.52970978E+03</rscale>
<asrwt>0</asrwt>
<pdfrwt beam="1">  1        2 0.23254181E+00 0.52970978E+03</pdfrwt>
<pdfrwt beam="2">  1       -2 0.29240889E-01 0.52970978E+03</pdfrwt>
<totfact> 0.13972856E+02</totfact>
</mgrwt>
</event>
<event>
 4    1  0.2247963E-002  0.4492610E+03  0.7818608E-02  0.1027943E+00
         -2   -1    0    0    0  501 -0.00000000000E+00  0.00000000000E+00  0.98169488024E+02  0.98169488024E+02  0.00000000000E+00 0. -1.
          2   -1    0    0  502    0  0.00000000000E+00 -0.00000000000E+00 -0.21556973922E+04  0.21556973922E+04  0.00000000000E+00 0.  1.
    9000007    1    1    2  502    0  0.17637857437E+03 -0.10356656401E+03 -0.78639935670E+03  0.90568172273E+03  0.40000000000E+03 0.  1.
   -9000007    1    1    2    0  501 -0.17637857437E+03  0.10356656401E+03 -0.12711285475E+04  0.13481851575E+04  0.40000000000E+03 0.  1.
<mgrwt>
<rscale>  2 0.44926099E+03</rscale>
<asrwt>0</asrwt>
<pdfrwt beam="1">  1        2 0.33164575E+00 0.44926099E+03</pdfrwt>
<pdfrwt beam="2">  1       -2 0.15102998E-01 0.44926099E+03</pdfrwt>
<totfact> 0.20178145E+02</totfact>
</mgrwt>
</event>
<event>
 4    1  0.2247963E-002  0.4696258E+03  0.7818608E-02  0.1022026E+00
         -2   -1    0    0    0  501 -0.00000000000E+00  0.00000000000E+00  0.12170639613E+03  0.12170639613E+03  0.00000000000E+00 0.  1.
          2   -1    0    0  502    0  0.00000000000E+00 -0.00000000000E+00 -0.18618213165E+04  0.18618213165E+04  0.00000000000E+00 0. -1.
    9000007    1    1    2  502    0  0.22908921866E+03 -0.89813888232E+02 -0.10320735836E+04  0.11338978289E+04  0.40000000000E+03 0. -1.
   -9000007    1    1    2    0  501 -0.22908921866E+03  0.89813888232E+02 -0.70804133685E+03  0.84962988373E+03  0.40000000000E+03 0.  1.
<mgrwt>
<rscale>  2 0.46962581E+03</rscale>
<asrwt>0</asrwt>
<pdfrwt beam="1">  1        2 0.28643405E+00 0.46962581E+03</pdfrwt>
<pdfrwt beam="2">  1       -2 0.18724061E-01 0.46962581E+03</pdfrwt>
<totfact> 0.20091231E+02</totfact>
</mgrwt>
</event>
<event>
 4    1  0.2247963E-002  0.5494111E+03  0.7818608E-02  0.1001630E+00
         -2   -1    0    0    0  501 -0.00000000000E+00  0.00000000000E+00  0.17054209944E+03  0.17054209944E+03  0.00000000000E+00 0.  1.
          2   -1    0    0  502    0  0.00000000000E+00 -0.00000000000E+00 -0.18667653121E+04  0.18667653121E+04  0.00000000000E+00 0. -1.
    9000007    1    1    2  502    0  0.34732376585E+03  0.14566671437E+03 -0.10800820619E+04  0.12117878735E+04  0.40000000000E+03 0. -1.
   -9000007    1    1    2    0  501 -0.34732376585E+03 -0.14566671437E+03 -0.61614115081E+03  0.82551953806E+03  0.40000000000E+03 0.  1.
<mgrwt>
<rscale>  2 0.54941113E+03</rscale>
<asrwt>0</asrwt>
<pdfrwt beam="1">  1        2 0.28719463E+00 0.54941113E+03</pdfrwt>
<pdfrwt beam="2">  1       -2 0.26237249E-01 0.54941113E+03</pdfrwt>
<totfact> 0.10896922E+02</totfact>
</mgrwt>
</event>
<event>
 4    1  0.2247963E-002  0.4445348E+03  0.7818608E-02  0.1029364E+00
          2   -1    0    0  502    0  0.00000000000E+00  0.00000000000E+00  0.14971240833E+04  0.14971240833E+04  0.00000000000E+00 0. -1.
         -2   -1    0    0    0  501 -0.00000000000E+00 -0.00000000000E+00 -0.13374330666E+03  0.13374330666E+03  0.00000000000E+00 0.  1.
    9000007    1    1    2  502    0  0.18677158543E+01 -0.19392707065E+03  0.77495182733E+03  0.89339886488E+03  0.40000000000E+03 0. -1.
   -9000007    1    1    2    0  501 -0.18677158543E+01  0.19392707065E+03  0.58842894934E+03  0.73746852510E+03  0.40000000000E+03 0.  1.
<mgrwt>
<rscale>  2 0.44453481E+03</rscale>
<asrwt>0</asrwt>
<pdfrwt beam="1">  1        2 0.23032677E+00 0.44453481E+03</pdfrwt>
<pdfrwt beam="2">  1       -2 0.20575894E-01 0.44453481E+03</pdfrwt>
<totfact> 0.26930994E+02</totfact>
</mgrwt>
</event>
<event>
 4    1  0.2247963E-002  0.4418840E+03  0.7818608E-02  0.1030170E+00
         -2   -1    0    0    0  501 -0.00000000000E+00  0.00000000000E+00  0.90322911631E+02  0.90322911631E+02  0.00000000000E+00 0.  1.
          2   -1    0    0  502    0  0.00000000000E+00 -0.00000000000E+00 -0.30881551746E+04  0.30881551746E+04  0.00000000000E+00 0. -1.
    9000007    1    1    2  502    0 -0.10567534838E+03  0.15522292368E+03 -0.23693281760E+04  0.24101820348E+04  0.40000000000E+03 0.  1.
   -9000007    1    1    2    0  501  0.10567534838E+03 -0.15522292368E+03 -0.62850408693E+03  0.76829605139E+03  0.40000000000E+03 0.  1.
<mgrwt>
<rscale>  2 0.44188396E+03</rscale>
<asrwt>0</asrwt>
<pdfrwt beam="1">  1        2 0.47510085E+00 0.44188396E+03</pdfrwt>
<pdfrwt beam="2">  1       -2 0.13895831E-01 0.44188396E+03</pdfrwt>
<totfact> 0.68338311E+01</totfact>
</mgrwt>
</event>
<event>
 4    1  0.2247963E-002  0.4592185E+03  0.7818608E-02  0.1025008E+00
         -1   -1    0    0    0  501 -0.00000000000E+00  0.00000000000E+00  0.67129456886E+03  0.67129456886E+03  0.00000000000E+00 0.  1.
          1   -1    0    0  502    0  0.00000000000E+00 -0.00000000000E+00 -0.32132391486E+03  0.32132391486E+03  0.00000000000E+00 0. -1.
    9000007    1    1    2  502    0 -0.13033350883E+03 -0.18410534383E+03  0.10078415745E+03  0.47014789965E+03  0.40000000000E+03 0. -1.
   -9000007    1    1    2    0  501  0.13033350883E+03  0.18410534383E+03  0.24918649656E+03  0.52247058407E+03  0.40000000000E+03 0. -1.
<mgrwt>
<rscale>  2 0.45921847E+03</rscale>
<asrwt>0</asrwt>
<pdfrwt beam="1">  1        1 0.49434449E-01 0.45921847E+03</pdfrwt>
<pdfrwt beam="2">  1       -1 0.10327609E+00 0.45921847E+03</pdfrwt>
<totfact> 0.74067119E+01</totfact>
</mgrwt>
</event>
<event>
 4    1  0.2247963E-002  0.4188635E+03  0.7818608E-02  0.1037437E+00
         -1   -1    0    0    0  501 -0.00000000000E+00  0.00000000000E+00  0.19731705731E+03  0.19731705731E+03  0.00000000000E+00 0. -1.
          1   -1    0    0  502    0  0.00000000000E+00 -0.00000000000E+00 -0.10752827728E+04  0.10752827728E+04  0.00000000000E+00 0.  1.
    9000007    1    1    2  502    0 -0.10286114373E+03 -0.69758082792E+02 -0.70371048745E+03  0.81893531805E+03  0.40000000000E+03 0.  1.
   -9000007    1    1    2    0  501  0.10286114373E+03  0.69758082792E+02 -0.17425522805E+03  0.45366451206E+03  0.40000000000E+03 0. -1.
<mgrwt>
<rscale>  2 0.41886347E+03</rscale>
<asrwt>0</asrwt>
<pdfrwt beam="1">  1        1 0.16542811E+00 0.41886347E+03</pdfrwt>
<pdfrwt beam="2">  1       -1 0.30356471E-01 0.41886347E+03</pdfrwt>
<totfact> 0.13899488E+02</totfact>
</mgrwt>
</event>
<event>
 4    1  0.2247963E-002  0.4265295E+03  0.7818608E-02  0.1034962E+00
         -2   -1    0    0    0  501 -0.00000000000E+00  0.00000000000E+00  0.10502155037E+03  0.10502155037E+03  0.00000000000E+00 0.  1.
          2   -1    0    0  502    0  0.00000000000E+00 -0.00000000000E+00 -0.17377201987E+04  0.17377201987E+04  0.00000000000E+00 0. -1.
    9000007    1    1    2  502    0 -0.10528013041E+03 -0.10413204544E+03 -0.76482623342E+03  0.87572059246E+03  0.40000000000E+03 0.  1.
   -9000007    1    1    2    0  501  0.10528013041E+03  0.10413204544E+03 -0.86787241492E+03  0.96702115661E+03  0.40000000000E+03 0. -1.
<mgrwt>
<rscale>  2 0.42652947E+03</rscale>
<asrwt>0</asrwt>
<pdfrwt beam="1">  1        2 0.26734154E+00 0.42652947E+03</pdfrwt>
<pdfrwt beam="2">  1       -2 0.16157163E-01 0.42652947E+03</pdfrwt>
<totfact> 0.30274078E+02</totfact>
</mgrwt>
</event>
<event>
 4    1  0.2247963E-002  0.4320746E+03  0.7818608E-02  0.1033207E+00
          1   -1    0    0  502    0  0.00000000000E+00  0.00000000000E+00  0.71067080422E+03  0.71067080422E+03  0.00000000000E+00 0.  1.
         -1   -1    0    0    0  501 -0.00000000000E+00 -0.00000000000E+00 -0.27340864007E+03  0.27340864007E+03  0.00000000000E+00 0. -1.
    9000007    1    1    2  502    0 -0.15105766430E+03  0.62209439119E+02  0.12122237417E+03  0.44875750273E+03  0.40000000000E+03 0. -1.
   -9000007    1    1    2    0  501  0.15105766430E+03 -0.62209439119E+02  0.31603978998E+03  0.53532194155E+03  0.40000000000E+03 0.  1.
<mgrwt>
<rscale>  2 0.43207457E+03</rscale>
<asrwt>0</asrwt>
<pdfrwt beam="1">  1        1 0.10933397E+00 0.43207457E+03</pdfrwt>
<pdfrwt beam="2">  1       -1 0.42062868E-01 0.43207457E+03</pdfrwt>
<totfact> 0.15398702E+02</totfact>
</mgrwt>
</event>
<event>
 4    1  0.2247963E-002  0.4483144E+03  0.7818608E-02  0.1028226E+00
         -2   -1    0    0    0  501 -0.00000000000E+00  0.00000000000E+00  0.33513143660E+03  0.33513143660E+03  0.00000000000E+00 0. -1.
          2   -1    0    0  502    0  0.00000000000E+00 -0.00000000000E+00 -0.60410551702E+03  0.60410551702E+03  0.00000000000E+00 0.  1.
    9000007    1    1    2  502    0 -0.16351128671E+03  0.11937271421E+03 -0.17448950639E+03  0.48107418723E+03  0.40000000000E+03 0.  1.
   -9000007    1    1    2    0  501  0.16351128671E+03 -0.11937271421E+03 -0.94484574027E+02  0.45816276639E+03  0.40000000000E+03 0.  1.
<mgrwt>
<rscale>  2 0.44831438E+03</rscale>
<asrwt>0</asrwt>
<pdfrwt beam="1">  1        2 0.92939310E-01 0.44831438E+03</pdfrwt>
<pdfrwt beam="2">  1       -2 0.51558682E-01 0.44831438E+03</pdfrwt>
<totfact> 0.17964749E+02</totfact>
</mgrwt>
</event>
<event>
 4    1  0.2247963E-002  0.4225509E+03  0.7818608E-02  0.1036239E+00
         -1   -1    0    0    0  501 -0.00000000000E+00  0.00000000000E+00  0.33644936149E+03  0.33644936149E+03  0.00000000000E+00 0. -1.
          1   -1    0    0  502    0  0.00000000000E+00 -0.00000000000E+00 -0.55754964102E+03  0.55754964102E+03  0.00000000000E+00 0.  1.
    9000007    1    1    2  502    0  0.10011165707E+02  0.13582720478E+03 -0.20866635946E+03  0.47126521468E+03  0.40000000000E+03 0.  1.
   -9000007    1    1    2    0  501 -0.10011165707E+02 -0.13582720478E+03 -0.12433920070E+02  0.42273378782E+03  0.40000000000E+03 0. -1.
<mgrwt>
<rscale>  2 0.42255089E+03</rscale>
<asrwt>0</asrwt>
<pdfrwt beam="1">  1        1 0.85776868E-01 0.42255089E+03</pdfrwt>
<pdfrwt beam="2">  1       -1 0.51761440E-01 0.42255089E+03</pdfrwt>
<totfact> 0.14884695E+02</totfact>
</mgrwt>
</event>
<event>
 4    1  0.2247963E-002  0.4048693E+03  0.7818608E-02  0.1042107E+00
          2   -1    0    0  502    0  0.00000000000E+00  0.00000000000E+00  0.11445235491E+04  0.11445235491E+04  0.00000000000E+00 0. -1.
         -2   -1    0    0    0  501 -0.00000000000E+00 -0.00000000000E+00 -0.24154271909E+03  0.24154271909E+03  0.00000000000E+00 0.  1.
    9000007    1    1    2  502    0  0.84777948291E+00  0.62597075676E+02  0.93267051796E+01  0.40497666605E+03  0.40000000000E+03 0.  1.
   -9000007    1    1    2    0  501 -0.84777948291E+00 -0.62597075676E+02  0.89365412478E+03  0.98108960210E+03  0.40000000000E+03 0. -1.
<mgrwt>
<rscale>  2 0.40486925E+03</rscale>
<asrwt>0</asrwt>
<pdfrwt beam="1">  1        2 0.17608054E+00 0.40486925E+03</pdfrwt>
<pdfrwt beam="2">  1       -2 0.37160419E-01 0.40486925E+03</pdfrwt>
<totfact> 0.14614949E+02</totfact>
</mgrwt>
</event>
<event>
 4    1  0.2247963E-002  0.4931137E+03  0.7818608E-02  0.1015592E+00
          1   -1    0    0  502    0  0.00000000000E+00  0.00000000000E+00  0.25124859430E+03  0.25124859430E+03  0.00000000000E+00 0.  1.
         -1   -1    0    0    0  501 -0.00000000000E+00 -0.00000000000E+00 -0.18480191796E+04  0.18480191796E+04  0.00000000000E+00 0. -1.
    9000007    1    1    2  502    0  0.28751119560E+03  0.22326577655E+02 -0.73987203561E+02  0.49863340236E+03  0.40000000000E+03 0.  1.
   -9000007    1    1    2    0  501 -0.28751119560E+03 -0.22326577655E+02 -0.15227833818E+04  0.16006343716E+04  0.40000000000E+03 0. -1.
<mgrwt>
<rscale>  2 0.49311374E+03</rscale>
<asrwt>0</asrwt>
<pdfrwt beam="1">  1        1 0.38653629E-01 0.49311374E+03</pdfrwt>
<pdfrwt beam="2">  1       -1 0.28431065E+00 0.49311374E+03</pdfrwt>
<totfact> 0.50291192E+00</totfact>
</mgrwt>
</event>
<event>
 4    1  0.2247963E-002  0.4759892E+03  0.7818608E-02  0.1020243E+00
          2   -1    0    0  502    0  0.00000000000E+00  0.00000000000E+00  0.22854675286E+04  0.22854675286E+04  0.00000000000E+00 0.  1.
         -2   -1    0    0    0  501 -0.00000000000E+00 -0.00000000000E+00 -0.30821523819E+03  0.30821523819E+03  0.00000000000E+00 0. -1.
    9000007    1    1    2  502    0  0.56144319677E+02 -0.25182035636E+03 -0.79489275447E+02  0.48258079264E+03  0.40000000000E+03 0. -1.
   -9000007    1    1    2    0  501 -0.56144319677E+02  0.25182035636E+03  0.20567415658E+04  0.21111019741E+04  0.40000000000E+03 0.  1.
<mgrwt>
<rscale>  2 0.47598916E+03</rscale>
<asrwt>0</asrwt>
<pdfrwt beam="1">  1        2 0.35161038E+00 0.47598916E+03</pdfrwt>
<pdfrwt beam="2">  1       -2 0.47417730E-01 0.47598916E+03</pdfrwt>
<totfact> 0.21312211E+01</totfact>
</mgrwt>
</event>
<event>
 4    1  0.2247963E-002  0.4825692E+03  0.7818608E-02  0.1018431E+00
          3   -1    0    0  502    0  0.00000000000E+00  0.00000000000E+00  0.67296210818E+03  0.67296210818E+03  0.00000000000E+00 0.  1.
         -3   -1    0    0    0  501 -0.00000000000E+00 -0.00000000000E+00 -0.44616796168E+03  0.44616796168E+03  0.00000000000E+00 0. -1.
    9000007    1    1    2  502    0 -0.21339323172E+03 -0.16533702616E+03  0.37847600581E+03  0.61328385805E+03  0.40000000000E+03 0.  1.
   -9000007    1    1    2    0  501  0.21339323172E+03  0.16533702616E+03 -0.15168185931E+03  0.50584621182E+03  0.40000000000E+03 0. -1.
<mgrwt>
<rscale>  2 0.48256917E+03</rscale>
<asrwt>0</asrwt>
<pdfrwt beam="1">  1        3 0.10353263E+00 0.48256917E+03</pdfrwt>
<pdfrwt beam="2">  1       -3 0.68641224E-01 0.48256917E+03</pdfrwt>
<totfact> 0.42912081E+00</totfact>
</mgrwt>
</event>
<event>
 4    1  0.2247963E-002  0.5343623E+03  0.7818608E-02  0.1005180E+00
          1   -1    0    0  502    0  0.00000000000E+00  0.00000000000E+00  0.11529496949E+04  0.11529496949E+04  0.00000000000E+00 0. -1.
         -1   -1    0    0    0  501 -0.00000000000E+00 -0.00000000000E+00 -0.36948160811E+03  0.36948160811E+03  0.00000000000E+00 0.  1.
    9000007    1    1    2  502    0 -0.92896047466E+02 -0.34192600363E+03  0.82882113243E+03  0.98614782724E+03  0.40000000000E+03 0. -1.
   -9000007    1    1    2    0  501  0.92896047466E+02  0.34192600363E+03 -0.45353045676E+02  0.53628347574E+03  0.40000000000E+03 0.  1.
<mgrwt>
<rscale>  2 0.53436230E+03</rscale>
<asrwt>0</asrwt>
<pdfrwt beam="1">  1        1 0.17737687E+00 0.53436230E+03</pdfrwt>
<pdfrwt beam="2">  1       -1 0.56843325E-01 0.53436230E+03</pdfrwt>
<totfact> 0.38296009E+01</totfact>
</mgrwt>
</event>
<event>
 4    1  0.2247963E-002  0.4239401E+03  0.7818608E-02  0.1035792E+00
          2   -1    0    0  502    0  0.00000000000E+00  0.00000000000E+00  0.51730651048E+03  0.51730651048E+03  0.00000000000E+00 0. -1.
         -2   -1    0    0    0  501 -0.00000000000E+00 -0.00000000000E+00 -0.35838295133E+03  0.35838295133E+03  0.00000000000E+00 0.  1.
    9000007    1    1    2  502    0 -0.93774130840E+02 -0.10455430038E+03  0.15602357344E+03  0.45173946563E+03  0.40000000000E+03 0. -1.
   -9000007    1    1    2    0  501  0.93774130840E+02  0.10455430038E+03  0.28999857136E+01  0.42394999618E+03  0.40000000000E+03 0.  1.
<mgrwt>
<rscale>  2 0.42394008E+03</rscale>
<asrwt>0</asrwt>
<pdfrwt beam="1">  1        2 0.79585616E-01 0.42394008E+03</pdfrwt>
<pdfrwt beam="2">  1       -2 0.55135839E-01 0.42394008E+03</pdfrwt>
<totfact> 0.18806064E+02</totfact>
</mgrwt>
</event>
<event>
 4    1  0.2247963E-002  0.4006176E+03  0.7818608E-02  0.1043566E+00
          2   -1    0    0  502    0  0.00000000000E+00  0.00000000000E+00  0.11952532482E+04  0.11952532482E+04  0.00000000000E+00 0.  1.
         -2   -1    0    0    0  501 -0.00000000000E+00 -0.00000000000E+00 -0.18418189642E+03  0.18418189642E+03  0.00000000000E+00 0. -1.
    9000007    1    1    2  502    0 -0.94959796368E+00 -0.22216527059E+02  0.86455794089E+03  0.95286667953E+03  0.40000000000E+03 0.  1.
   -9000007    1    1    2    0  501  0.94959796368E+00  0.22216527059E+02  0.14651341084E+03  0.42656846504E+03  0.40000000000E+03 0. -1.
<mgrwt>
<rscale>  2 0.40061762E+03</rscale>
<asrwt>0</asrwt>
<pdfrwt beam="1">  1        2 0.18388511E+00 0.40061762E+03</pdfrwt>
<pdfrwt beam="2">  1       -2 0.28335677E-01 0.40061762E+03</pdfrwt>
<totfact> 0.22622667E+02</totfact>
</mgrwt>
</event>
<event>
 4    1  0.2247963E-002  0.4833136E+03  0.7818608E-02  0.1018228E+00
         -2   -1    0    0    0  501 -0.00000000000E+00  0.00000000000E+00  0.10976782616E+03  0.10976782616E+03  0.00000000000E+00 0.  1.
          2   -1    0    0  502    0  0.00000000000E+00 -0.00000000000E+00 -0.21357576293E+04  0.21357576293E+04  0.00000000000E+00 0. -1.
    9000007    1    1    2  502    0  0.26944899953E+03 -0.31452789232E+02 -0.10804187473E+04  0.11835948255E+04  0.40000000000E+03 0. -1.
   -9000007    1    1    2    0  501 -0.26944899953E+03  0.31452789232E+02 -0.94557105578E+03  0.10619306300E+04  0.40000000000E+03 0. -1.
<mgrwt>
<rscale>  2 0.48331361E+03</rscale>
<asrwt>0</asrwt>
<pdfrwt beam="1">  1        2 0.32857810E+00 0.48331361E+03</pdfrwt>
<pdfrwt beam="2">  1       -2 0.16887358E-01 0.48331361E+03</pdfrwt>
<totfact> 0.17040791E+02</totfact>
</mgrwt>
</event>
<event>
 4    1  0.2247963E-002  0.4293349E+03  0.7818608E-02  0.1034070E+00
          1   -1    0    0  502    0  0.00000000000E+00  0.00000000000E+00  0.16209101556E+04  0.16209101556E+04  0.00000000000E+00 0. -1.
         -1   -1    0    0    0  501 -0.00000000000E+00 -0.00000000000E+00 -0.11657243274E+03  0.11657243274E+03  0.00000000000E+00 0.  1.
    9000007    1    1    2  502    0 -0.11185498161E+03  0.10870563938E+03  0.61625356746E+03  0.75106385371E+03  0.40000000000E+03 0.  1.
   -9000007    1    1    2    0  501  0.11185498161E+03 -0.10870563938E+03  0.88808415544E+03  0.98641873466E+03  0.40000000000E+03 0.  1.
<mgrwt>
<rscale>  2 0.42933490E+03</rscale>
<asrwt>0</asrwt>
<pdfrwt beam="1">  1        1 0.24937078E+00 0.42933490E+03</pdfrwt>
<pdfrwt beam="2">  1       -1 0.17934222E-01 0.42933490E+03</pdfrwt>
<totfact> 0.14029674E+02</totfact>
</mgrwt>
</event>
<event>
 4    1  0.2247963E-002  0.4647697E+03  0.7818608E-02  0.1023407E+00
         -2   -1    0    0    0  501 -0.00000000000E+00  0.00000000000E+00  0.74161124062E+02  0.74161124062E+02  0.00000000000E+00 0. -1.
          2   -1    0    0  502    0  0.00000000000E+00 -0.00000000000E+00 -0.29131342323E+04  0.29131342323E+04  0.00000000000E+00 0.  1.
    9000007    1    1    2  502    0  0.21001288319E+03  0.10911223652E+03 -0.14372098596E+04  0.15104910036E+04  0.40000000000E+03 0.  1.
   -9000007    1    1    2    0  501 -0.21001288319E+03 -0.10911223652E+03 -0.14017632486E+04  0.14768043528E+04  0.40000000000E+03 0. -1.
<mgrwt>
<rscale>  2 0.46476972E+03</rscale>
<asrwt>0</asrwt>
<pdfrwt beam="1">  1        2 0.44817452E+00 0.46476972E+03</pdfrwt>
<pdfrwt beam="2">  1       -2 0.11409403E-01 0.46476972E+03</pdfrwt>
<totfact> 0.11993980E+02</totfact>
</mgrwt>
</event>
<event>
 4    1  0.2247963E-002  0.4058623E+03  0.7818608E-02  0.1041768E+00
          2   -1    0    0  502    0  0.00000000000E+00  0.00000000000E+00  0.16043524097E+04  0.16043524097E+04  0.00000000000E+00 0. -1.
         -2   -1    0    0    0  501 -0.00000000000E+00 -0.00000000000E+00 -0.10296324911E+03  0.10296324911E+03  0.00000000000E+00 0.  1.
    9000007    1    1    2  502    0 -0.51702354325E+02  0.45288525231E+02  0.70539536584E+03  0.81382234309E+03  0.40000000000E+03 0.  1.
   -9000007    1    1    2    0  501  0.51702354325E+02 -0.45288525231E+02  0.79599379469E+03  0.89349331567E+03  0.40000000000E+03 0.  1.
<mgrwt>
<rscale>  2 0.40586227E+03</rscale>
<asrwt>0</asrwt>
<pdfrwt beam="1">  1        2 0.24682343E+00 0.40586227E+03</pdfrwt>
<pdfrwt beam="2">  1       -2 0.15840501E-01 0.40586227E+03</pdfrwt>
<totfact> 0.37005753E+02</totfact>
</mgrwt>
</event>
<event>
 4    1  0.2247963E-002  0.5197958E+03  0.7818608E-02  0.1008737E+00
          1   -1    0    0  502    0  0.00000000000E+00  0.00000000000E+00  0.12209774689E+04  0.12209774689E+04  0.00000000000E+00 0. -1.
         -1   -1    0    0    0  501 -0.00000000000E+00 -0.00000000000E+00 -0.23057530868E+03  0.23057530868E+03  0.00000000000E+00 0.  1.
    9000007    1    1    2  502    0  0.15378259772E+03 -0.29417440292E+03  0.64086140999E+03  0.82516120456E+03  0.40000000000E+03 0. -1.
   -9000007    1    1    2    0  501 -0.15378259772E+03  0.29417440292E+03  0.34954075024E+03  0.62639157304E+03  0.40000000000E+03 0.  1.
<mgrwt>
<rscale>  2 0.51979579E+03</rscale>
<asrwt>0</asrwt>
<pdfrwt beam="1">  1        1 0.18784268E+00 0.51979579E+03</pdfrwt>
<pdfrwt beam="2">  1       -1 0.35473125E-01 0.51979579E+03</pdfrwt>
<totfact> 0.81894826E+01</totfact>
</mgrwt>
</event>
<event>
 4    1  0.2247963E-002  0.6693563E+03  0.7818608E-02  0.9771121E-01
          2   -1    0    0  502    0  0.00000000000E+00  0.00000000000E+00  0.32642012678E+03  0.32642012678E+03  0.00000000000E+00 0. -1.
         -2   -1    0    0    0  501 -0.00000000000E+00 -0.00000000000E+00 -0.16196785884E+04  0.16196785884E+04  0.00000000000E+00 0.  1.
    9000007    1    1    2  502    0  0.49339384429E+03 -0.21118787244E+03 -0.26656639386E+03  0.72048278632E+03  0.40000000000E+03 0.  1.
   -9000007    1    1    2    0  501 -0.49339384429E+03  0.21118787244E+03 -0.10266920678E+04  0.12256159288E+04  0.40000000000E+03 0.  1.
<mgrwt>
<rscale>  2 0.66935626E+03</rscale>
<asrwt>0</asrwt>
<pdfrwt beam="1">  1        2 0.50218481E-01 0.66935626E+03</pdfrwt>
<pdfrwt beam="2">  1       -2 0.24918132E+00 0.66935626E+03</pdfrwt>
<totfact> 0.67402517E+00</totfact>
</mgrwt>
</event>
<event>
 4    1  0.2247963E-002  0.4037856E+03  0.7818608E-02  0.1042477E+00
          2   -1    0    0  502    0  0.00000000000E+00  0.00000000000E+00  0.21907983738E+04  0.21907983738E+04  0.00000000000E+00 0. -1.
         -2   -1    0    0    0  501 -0.00000000000E+00 -0.00000000000E+00 -0.10783865211E+03  0.10783865211E+03  0.00000000000E+00 0.  1.
    9000007    1    1    2  502    0 -0.18104696981E+02 -0.52106273726E+02  0.16812690219E+04  0.17290773169E+04  0.40000000000E+03 0. -1.
   -9000007    1    1    2    0  501  0.18104696981E+02  0.52106273726E+02  0.40169069976E+03  0.56955970898E+03  0.40000000000E+03 0.  1.
<mgrwt>
<rscale>  2 0.40378564E+03</rscale>
<asrwt>0</asrwt>
<pdfrwt beam="1">  1        2 0.33704587E+00 0.40378564E+03</pdfrwt>
<pdfrwt beam="2">  1       -2 0.16590563E-01 0.40378564E+03</pdfrwt>
<totfact> 0.16617028E+02</totfact>
</mgrwt>
</event>
<event>
 4    1  0.2247963E-002  0.5032064E+03  0.7818608E-02  0.1012945E+00
          1   -1    0    0  502    0  0.00000000000E+00  0.00000000000E+00  0.47597127399E+03  0.47597127399E+03  0.00000000000E+00 0. -1.
         -1   -1    0    0    0  501 -0.00000000000E+00 -0.00000000000E+00 -0.56814086489E+03  0.56814086489E+03  0.00000000000E+00 0.  1.
    9000007    1    1    2  502    0  0.17964960738E+03  0.24686581025E+03  0.85585711498E+02  0.51043278080E+03  0.40000000000E+03 0. -1.
   -9000007    1    1    2    0  501 -0.17964960738E+03 -0.24686581025E+03 -0.17775530239E+03  0.53367935807E+03  0.40000000000E+03 0.  1.
<mgrwt>
<rscale>  2 0.50320643E+03</rscale>
<asrwt>0</asrwt>
<pdfrwt beam="1">  1        1 0.73226351E-01 0.50320643E+03</pdfrwt>
<pdfrwt beam="2">  1       -1 0.87406286E-01 0.50320643E+03</pdfrwt>
<totfact> 0.63799191E+01</totfact>
</mgrwt>
</event>
<event>
 4    1  0.2247963E-002  0.5425911E+03  0.7818608E-02  0.1003223E+00
         -2   -1    0    0    0  501 -0.00000000000E+00  0.00000000000E+00  0.50396920069E+03  0.50396920069E+03  0.00000000000E+00 0.  1.
          2   -1    0    0  502    0  0.00000000000E+00 -0.00000000000E+00 -0.61631144603E+03  0.61631144603E+03  0.00000000000E+00 0. -1.
    9000007    1    1    2  502    0  0.29906822500E+03  0.21204540811E+03 -0.18408305386E+03  0.57296738915E+03  0.40000000000E+03 0. -1.
   -9000007    1    1    2    0  501 -0.29906822500E+03 -0.21204540811E+03  0.71740808515E+02  0.54731325757E+03  0.40000000000E+03 0. -1.
<mgrwt>
<rscale>  2 0.54259106E+03</rscale>
<asrwt>0</asrwt>
<pdfrwt beam="1">  1        2 0.94817146E-01 0.54259106E+03</pdfrwt>
<pdfrwt beam="2">  1       -2 0.77533723E-01 0.54259106E+03</pdfrwt>
<totfact> 0.73169671E+01</totfact>
</mgrwt>
</event>
<event>
 4    1  0.2247963E-002  0.4114930E+03  0.7818608E-02  0.1039871E+00
         -2   -1    0    0    0  501 -0.00000000000E+00  0.00000000000E+00  0.86113334968E+02  0.86113334968E+02  0.00000000000E+00 0. -1.
          2   -1    0    0  502    0  0.00000000000E+00 -0.00000000000E+00 -0.21268743175E+04  0.21268743175E+04  0.00000000000E+00 0.  1.
    9000007    1    1    2  502    0  0.89266748883E+02 -0.36849895974E+02 -0.71637068535E+03  0.82614370791E+03  0.40000000000E+03 0. -1.
   -9000007    1    1    2    0  501 -0.89266748883E+02  0.36849895974E+02 -0.13243902972E+04  0.13868439446E+04  0.40000000000E+03 0.  1.
<mgrwt>
<rscale>  2 0.41149297E+03</rscale>
<asrwt>0</asrwt>
<pdfrwt beam="1">  1        2 0.32721143E+00 0.41149297E+03</pdfrwt>
<pdfrwt beam="2">  1       -2 0.13248206E-01 0.41149297E+03</pdfrwt>
<totfact> 0.26162394E+02</totfact>
</mgrwt>
</event>
<event>
 4    1  0.2247963E-002  0.4343625E+03  0.7818608E-02  0.1032491E+00
          1   -1    0    0  502    0  0.00000000000E+00  0.00000000000E+00  0.39246102473E+04  0.39246102473E+04  0.00000000000E+00 0. -1.
         -1   -1    0    0    0  501 -0.00000000000E+00 -0.00000000000E+00 -0.11136324071E+03  0.11136324071E+03  0.00000000000E+00 0.  1.
    9000007    1    1    2  502    0  0.85598967645E+02  0.14609455431E+03  0.38532962424E+03  0.58064595183E+03  0.40000000000E+03 0.  1.
   -9000007    1    1    2    0  501 -0.85598967645E+02 -0.14609455431E+03  0.34279173824E+04  0.34553275362E+04  0.40000000000E+03 0. -1.
<mgrwt>
<rscale>  2 0.43436252E+03</rscale>
<asrwt>0</asrwt>
<pdfrwt beam="1">  1        1 0.60378608E+00 0.43436252E+03</pdfrwt>
<pdfrwt beam="2">  1       -1 0.17132809E-01 0.43436252E+03</pdfrwt>
<totfact> 0.35137446E+00</totfact>
</mgrwt>
</event>
<event>
 4    1  0.2247963E-002  0.4414503E+03  0.7818608E-02  0.1030303E+00
         -2   -1    0    0    0  501 -0.00000000000E+00  0.00000000000E+00  0.10384817627E+03  0.10384817627E+03  0.00000000000E+00 0.  1.
          2   -1    0    0  502    0  0.00000000000E+00 -0.00000000000E+00 -0.18766437923E+04  0.18766437923E+04  0.00000000000E+00 0. -1.
    9000007    1    1    2  502    0  0.16205050021E+03  0.92833212284E+02 -0.89260822371E+03  0.99580510691E+03  0.40000000000E+03 0.  1.
   -9000007    1    1    2    0  501 -0.16205050021E+03 -0.92833212284E+02 -0.88018739230E+03  0.98468686164E+03  0.40000000000E+03 0. -1.
<mgrwt>
<rscale>  2 0.44145030E+03</rscale>
<asrwt>0</asrwt>
<pdfrwt beam="1">  1        2 0.28871441E+00 0.44145030E+03</pdfrwt>
<pdfrwt beam="2">  1       -2 0.15976644E-01 0.44145030E+03</pdfrwt>
<totfact> 0.25949003E+02</totfact>
</mgrwt>
</event>
<event>
 4    1  0.2247963E-002  0.4141233E+03  0.7818608E-02  0.1038996E+00
         -2   -1    0    0    0  501 -0.00000000000E+00  0.00000000000E+00  0.21926330323E+03  0.21926330323E+03  0.00000000000E+00 0.  1.
          2   -1    0    0  502    0  0.00000000000E+00 -0.00000000000E+00 -0.78458882557E+03  0.78458882557E+03  0.00000000000E+00 0. -1.
    9000007    1    1    2  502    0 -0.95057857115E+02 -0.49619424228E+02 -0.25471260439E+03  0.48618576110E+03  0.40000000000E+03 0.  1.
   -9000007    1    1    2    0  501  0.95057857115E+02  0.49619424228E+02 -0.31061291795E+03  0.51766636771E+03  0.40000000000E+03 0.  1.
<mgrwt>
<rscale>  2 0.41412327E+03</rscale>
<asrwt>0</asrwt>
<pdfrwt beam="1">  1        2 0.12070597E+00 0.41412327E+03</pdfrwt>
<pdfrwt beam="2">  1       -2 0.33732816E-01 0.41412327E+03</pdfrwt>
<totfact> 0.29817083E+02</totfact>
</mgrwt>
</event>
<event>
 4    1  0.2247963E-002  0.4292570E+03  0.7818608E-02  0.1034095E+00
          2   -1    0    0  502    0  0.00000000000E+00  0.00000000000E+00  0.45538750349E+04  0.45538750349E+04  0.00000000000E+00 0.  1.
         -2   -1    0    0    0  501 -0.00000000000E+00 -0.00000000000E+00 -0.50236688966E+02  0.50236688966E+02  0.00000000000E+00 0. -1.
    9000007    1    1    2  502    0  0.13697090644E+03  0.74165873357E+02  0.12364041468E+04  0.13087997632E+04  0.40000000000E+03 0. -1.
   -9000007    1    1    2    0  501 -0.13697090644E+03 -0.74165873357E+02  0.32672341991E+04  0.32953119606E+04  0.40000000000E+03 0.  1.
<mgrwt>
<rscale>  2 0.42925704E+03</rscale>
<asrwt>0</asrwt>
<pdfrwt beam="1">  1        2 0.70059583E+00 0.42925704E+03</pdfrwt>
<pdfrwt beam="2">  1       -2 0.77287250E-02 0.42925704E+03</pdfrwt>
<totfact> 0.14032798E+01</totfact>
</mgrwt>
</event>
<event>
 4    1  0.2247963E-002  0.4265387E+03  0.7818608E-02  0.1034959E+00
         -1   -1    0    0    0  501 -0.00000000000E+00  0.00000000000E+00  0.22035002952E+03  0.22035002952E+03  0.00000000000E+00 0.  1.
          1   -1    0    0  502    0  0.00000000000E+00 -0.00000000000E+00 -0.95427179143E+03  0.95427179143E+03  0.00000000000E+00 0. -1.
    9000007    1    1    2  502    0 -0.78288972419E+02 -0.12572236318E+03 -0.15135320547E+03  0.45259592200E+03  0.40000000000E+03 0.  1.
   -9000007    1    1    2    0  501  0.78288972419E+02  0.12572236318E+03 -0.58256855643E+03  0.72202589894E+03  0.40000000000E+03 0. -1.
<mgrwt>
<rscale>  2 0.42653872E+03</rscale>
<asrwt>0</asrwt>
<pdfrwt beam="1">  1        1 0.14681105E+00 0.42653872E+03</pdfrwt>
<pdfrwt beam="2">  1       -1 0.33900004E-01 0.42653872E+03</pdfrwt>
<totfact> 0.14152862E+02</totfact>
</mgrwt>
</event>
<event>
 4    1  0.2247963E-002  0.5334829E+03  0.7818608E-02  0.1005391E+00
          2   -1    0    0  502    0  0.00000000000E+00  0.00000000000E+00  0.40074117891E+03  0.40074117891E+03  0.00000000000E+00 0.  1.
         -2   -1    0    0    0  501 -0.00000000000E+00 -0.00000000000E+00 -0.16785052465E+04  0.16785052465E+04  0.00000000000E+00 0. -1.
    9000007    1    1    2  502    0  0.94557834916E+02 -0.34009233199E+03 -0.14285092443E+04  0.15248746307E+04  0.40000000000E+03 0. -1.
   -9000007    1    1    2    0  501 -0.94557834916E+02  0.34009233199E+03  0.15074517671E+03  0.55437179467E+03  0.40000000000E+03 0.  1.
<mgrwt>
<rscale>  2 0.53348288E+03</rscale>
<asrwt>0</asrwt>
<pdfrwt beam="1">  1        2 0.61652488E-01 0.53348288E+03</pdfrwt>
<pdfrwt beam="2">  1       -2 0.25823158E+00 0.53348288E+03</pdfrwt>
<totfact> 0.48331983E+00</totfact>
</mgrwt>
</event>
<event>
 4    1  0.2247963E-002  0.4098188E+03  0.7818608E-02  0.1040432E+00
          1   -1    0    0  502    0  0.00000000000E+00  0.00000000000E+00  0.16460420478E+04  0.16460420478E+04  0.00000000000E+00 0. -1.
         -1   -1    0    0    0  501 -0.00000000000E+00 -0.00000000000E+00 -0.10846894849E+03  0.10846894849E+03  0.00000000000E+00 0.  1.
    9000007    1    1    2  502    0 -0.26777998883E+02 -0.85055268328E+02  0.55510737050E+03  0.68999684976E+03  0.40000000000E+03 0.  1.
   -9000007    1    1    2    0  501  0.26777998883E+02  0.85055268328E+02  0.98246572885E+03  0.10645141466E+04  0.40000000000E+03 0. -1.
<mgrwt>
<rscale>  2 0.40981881E+03</rscale>
<asrwt>0</asrwt>
<pdfrwt beam="1">  1        1 0.25323722E+00 0.40981881E+03</pdfrwt>
<pdfrwt beam="2">  1       -1 0.16687532E-01 0.40981881E+03</pdfrwt>
<totfact> 0.15223200E+02</totfact>
</mgrwt>
</event>
<event>
 4    1  0.2247963E-002  0.5704619E+03  0.7818608E-02  0.9968657E-01
          2   -1    0    0  502    0  0.00000000000E+00  0.00000000000E+00  0.83806665075E+03  0.83806665075E+03  0.00000000000E+00 0.  1.
         -2   -1    0    0    0  501 -0.00000000000E+00 -0.00000000000E+00 -0.43913453702E+03  0.43913453702E+03  0.00000000000E+00 0. -1.
    9000007    1    1    2  502    0 -0.16258311611E+03 -0.37281832400E+03 -0.17795037600E+02  0.57073937635E+03  0.40000000000E+03 0. -1.
   -9000007    1    1    2    0  501  0.16258311611E+03  0.37281832400E+03  0.41672715132E+03  0.70646181142E+03  0.40000000000E+03 0.  1.
<mgrwt>
<rscale>  2 0.57046189E+03</rscale>
<asrwt>0</asrwt>
<pdfrwt beam="1">  1        2 0.12893333E+00 0.57046189E+03</pdfrwt>
<pdfrwt beam="2">  1       -2 0.67559160E-01 0.57046189E+03</pdfrwt>
<totfact> 0.66886868E+01</totfact>
</mgrwt>
</event>
<event>
 4    1  0.2247963E-002  0.4098877E+03  0.7818608E-02  0.1040409E+00
          2   -1    0    0  502    0  0.00000000000E+00  0.00000000000E+00  0.17512253738E+04  0.17512253738E+04  0.00000000000E+00 0. -1.
         -2   -1    0    0    0  501 -0.00000000000E+00 -0.00000000000E+00 -0.10277958548E+03  0.10277958548E+03  0.00000000000E+00 0.  1.
    9000007    1    1    2  502    0  0.18959470962E+02 -0.87455646557E+02  0.58504230638E+03  0.71434057137E+03  0.40000000000E+03 0.  1.
   -9000007    1    1    2    0  501 -0.18959470962E+02  0.87455646557E+02  0.10634034819E+04  0.11396643879E+04  0.40000000000E+03 0. -1.
<mgrwt>
<rscale>  2 0.40988773E+03</rscale>
<asrwt>0</asrwt>
<pdfrwt beam="1">  1        2 0.26941927E+00 0.40988773E+03</pdfrwt>
<pdfrwt beam="2">  1       -2 0.15812245E-01 0.40988773E+03</pdfrwt>
<totfact> 0.30942574E+02</totfact>
</mgrwt>
</event>
<event>
 4    1  0.2247963E-002  0.5801572E+03  0.7818608E-02  0.9947451E-01
          1   -1    0    0  502    0  0.00000000000E+00  0.00000000000E+00  0.15167060676E+04  0.15167060676E+04  0.00000000000E+00 0. -1.
         -1   -1    0    0    0  501 -0.00000000000E+00 -0.00000000000E+00 -0.25296359231E+03  0.25296359231E+03  0.00000000000E+00 0.  1.
    9000007    1    1    2  502    0  0.33245626250E+03 -0.25701204898E+03  0.94185752123E+03  0.11061997786E+04  0.40000000000E+03 0.  1.
   -9000007    1    1    2    0  501 -0.33245626250E+03  0.25701204898E+03  0.32188495405E+03  0.66346988134E+03  0.40000000000E+03 0.  1.
<mgrwt>
<rscale>  2 0.58015719E+03</rscale>
<asrwt>0</asrwt>
<pdfrwt beam="1">  1        1 0.23333939E+00 0.58015719E+03</pdfrwt>
<pdfrwt beam="2">  1       -1 0.38917477E-01 0.58015719E+03</pdfrwt>
<totfact> 0.42929095E+01</totfact>
</mgrwt>
</event>
<event>
 4    1  0.2247963E-002  0.5149674E+03  0.7818608E-02  0.1009944E+00
          2   -1    0    0  502    0  0.00000000000E+00  0.00000000000E+00  0.10879225323E+04  0.10879225323E+04  0.00000000000E+00 0. -1.
         -2   -1    0    0    0  501 -0.00000000000E+00 -0.00000000000E+00 -0.27417684957E+03  0.27417684957E+03  0.00000000000E+00 0.  1.
    9000007    1    1    2  502    0 -0.22351907537E+03 -0.23501201124E+03  0.63371527130E+03  0.81656994040E+03  0.40000000000E+03 0.  1.
   -9000007    1    1    2    0  501  0.22351907537E+03  0.23501201124E+03  0.18003041145E+03  0.54552944149E+03  0.40000000000E+03 0. -1.
<mgrwt>
<rscale>  2 0.51496740E+03</rscale>
<asrwt>0</asrwt>
<pdfrwt beam="1">  1        2 0.16737270E+00 0.51496740E+03</pdfrwt>
<pdfrwt beam="2">  1       -2 0.42181054E-01 0.51496740E+03</pdfrwt>
<totfact> 0.12211833E+02</totfact>
</mgrwt>
</event>
<event>
 4    1  0.2247963E-002  0.6208712E+03  0.7818608E-02  0.9863027E-01
         -1   -1    0    0    0  501 -0.00000000000E+00  0.00000000000E+00  0.57116590913E+03  0.57116590913E+03  0.00000000000E+00 0. -1.
          1   -1    0    0  502    0  0.00000000000E+00 -0.00000000000E+00 -0.76601368357E+03  0.76601368357E+03  0.00000000000E+00 0.  1.
    9000007    1    1    2  502    0 -0.31599541893E+03 -0.35444037365E+03  0.13315961386E+03  0.63499020939E+03  0.40000000000E+03 0.  1.
   -9000007    1    1    2    0  501  0.31599541893E+03  0.35444037365E+03 -0.32800738830E+03  0.70218938331E+03  0.40000000000E+03 0. -1.
<mgrwt>
<rscale>  2 0.62087123E+03</rscale>
<asrwt>0</asrwt>
<pdfrwt beam="1">  1        1 0.11784826E+00 0.62087123E+03</pdfrwt>
<pdfrwt beam="2">  1       -1 0.87871678E-01 0.62087123E+03</pdfrwt>
<totfact> 0.31386543E+01</totfact>
</mgrwt>
</event>
<event>
 4    1  0.2247963E-002  0.4117889E+03  0.7818608E-02  0.1039772E+00
         -2   -1    0    0    0  501 -0.00000000000E+00  0.00000000000E+00  0.40574096146E+03  0.40574096146E+03  0.00000000000E+00 0.  1.
          2   -1    0    0  502    0  0.00000000000E+00 -0.00000000000E+00 -0.58155136743E+03  0.58155136743E+03  0.00000000000E+00 0. -1.
    9000007    1    1    2  502    0 -0.71633222444E+02  0.66624252119E+02  0.17394064670E+03  0.44701840913E+03  0.40000000000E+03 0.  1.
   -9000007    1    1    2    0  501  0.71633222444E+02 -0.66624252119E+02 -0.34975105266E+03  0.54027391976E+03  0.40000000000E+03 0. -1.
<mgrwt>
<rscale>  2 0.41178891E+03</rscale>
<asrwt>0</asrwt>
<pdfrwt beam="1">  1        2 0.89469441E-01 0.41178891E+03</pdfrwt>
<pdfrwt beam="2">  1       -2 0.62421686E-01 0.41178891E+03</pdfrwt>
<totfact> 0.12686422E+02</totfact>
</mgrwt>
</event>
<event>
 4    1  0.2247963E-002  0.5580832E+03  0.7818608E-02  0.9996401E-01
         -2   -1    0    0    0  501 -0.00000000000E+00  0.00000000000E+00  0.65489111862E+03  0.65489111862E+03  0.00000000000E+00 0.  1.
          2   -1    0    0  502    0  0.00000000000E+00 -0.00000000000E+00 -0.48288141669E+03  0.48288141669E+03  0.00000000000E+00 0. -1.
    9000007    1    1    2  502    0 -0.16729913479E+03 -0.35137996830E+03  0.16079001533E+02  0.55831480091E+03  0.40000000000E+03 0.  1.
   -9000007    1    1    2    0  501  0.16729913479E+03  0.35137996830E+03  0.15593070039E+03  0.57945773440E+03  0.40000000000E+03 0. -1.
<mgrwt>
<rscale>  2 0.55808322E+03</rscale>
<asrwt>0</asrwt>
<pdfrwt beam="1">  1        2 0.74289449E-01 0.55808322E+03</pdfrwt>
<pdfrwt beam="2">  1       -2 0.10075248E+00 0.55808322E+03</pdfrwt>
<totfact> 0.53391495E+01</totfact>
</mgrwt>
</event>
<event>
 4    1  0.2247963E-002  0.4731323E+03  0.7818608E-02  0.1021040E+00
          3   -1    0    0  502    0  0.00000000000E+00  0.00000000000E+00  0.23600000631E+04  0.23600000631E+04  0.00000000000E+00 0.  1.
         -3   -1    0    0    0  501 -0.00000000000E+00 -0.00000000000E+00 -0.12068482765E+03  0.12068482765E+03  0.00000000000E+00 0. -1.
    9000007    1    1    2  502    0  0.24855425923E+03  0.45551801311E+02  0.54582013043E+03  0.72233911784E+03  0.40000000000E+03 0. -1.
   -9000007    1    1    2    0  501 -0.24855425923E+03 -0.45551801311E+02  0.16934951050E+04  0.17583457729E+04  0.40000000000E+03 0.  1.
<mgrwt>
<rscale>  2 0.47313231E+03</rscale>
<asrwt>0</asrwt>
<pdfrwt beam="1">  1        3 0.36307690E+00 0.47313231E+03</pdfrwt>
<pdfrwt beam="2">  1       -3 0.18566898E-01 0.47313231E+03</pdfrwt>
<totfact> 0.12802764E+00</totfact>
</mgrwt>
</event>
<event>
 4    1  0.2247963E-002  0.4611741E+03  0.7818608E-02  0.1024441E+00
         -2   -1    0    0    0  501 -0.00000000000E+00  0.00000000000E+00  0.22418953145E+03  0.22418953145E+03  0.00000000000E+00 0. -1.
          2   -1    0    0  502    0  0.00000000000E+00 -0.00000000000E+00 -0.37055343848E+04  0.37055343848E+04  0.00000000000E+00 0.  1.
    9000007    1    1    2  502    0 -0.21015416012E+03 -0.92286313660E+02 -0.34354567739E+04  0.34662724619E+04  0.40000000000E+03 0.  1.
   -9000007    1    1    2    0  501  0.21015416012E+03  0.92286313660E+02 -0.45888079427E+02  0.46345145435E+03  0.40000000000E+03 0. -1.
<mgrwt>
<rscale>  2 0.46117408E+03</rscale>
<asrwt>0</asrwt>
<pdfrwt beam="1">  1        2 0.57008223E+00 0.46117408E+03</pdfrwt>
<pdfrwt beam="2">  1       -2 0.34490696E-01 0.46117408E+03</pdfrwt>
<totfact> 0.53786320E+00</totfact>
</mgrwt>
</event>
<event>
 4    1  0.2247963E-002  0.4528066E+03  0.7818608E-02  0.1026888E+00
         -2   -1    0    0    0  501 -0.00000000000E+00  0.00000000000E+00  0.46305504258E+03  0.46305504258E+03  0.00000000000E+00 0.  1.
          2   -1    0    0  502    0  0.00000000000E+00 -0.00000000000E+00 -0.44319848089E+03  0.44319848089E+03  0.00000000000E+00 0. -1.
    9000007    1    1    2  502    0  0.21220678235E+03 -0.14586207644E+01 -0.39114207761E+01  0.45282352552E+03  0.40000000000E+03 0. -1.
   -9000007    1    1    2    0  501 -0.21220678235E+03  0.14586207644E+01  0.23767982467E+02  0.45342999795E+03  0.40000000000E+03 0. -1.
<mgrwt>
<rscale>  2 0.45280663E+03</rscale>
<asrwt>0</asrwt>
<pdfrwt beam="1">  1        2 0.68184381E-01 0.45280663E+03</pdfrwt>
<pdfrwt beam="2">  1       -2 0.71239238E-01 0.45280663E+03</pdfrwt>
<totfact> 0.13009870E+02</totfact>
</mgrwt>
</event>
<event>
 4    1  0.2247963E-002  0.4004897E+03  0.7818608E-02  0.1043610E+00
         -2   -1    0    0    0  501 -0.00000000000E+00  0.00000000000E+00  0.53472404781E+03  0.53472404781E+03  0.00000000000E+00 0. -1.
          2   -1    0    0  502    0  0.00000000000E+00 -0.00000000000E+00 -0.37384458520E+03  0.37384458520E+03  0.00000000000E+00 0.  1.
    9000007    1    1    2  502    0  0.19787272218E+02 -0.69783962955E+00 -0.12152708217E+03  0.41852222739E+03  0.40000000000E+03 0.  1.
   -9000007    1    1    2    0  501 -0.19787272218E+02  0.69783962955E+00  0.28240654478E+03  0.49004640562E+03  0.40000000000E+03 0. -1.
<mgrwt>
<rscale>  2 0.40048973E+03</rscale>
<asrwt>0</asrwt>
<pdfrwt beam="1">  1        2 0.57514552E-01 0.40048973E+03</pdfrwt>
<pdfrwt beam="2">  1       -2 0.82265238E-01 0.40048973E+03</pdfrwt>
<totfact> 0.11484259E+02</totfact>
</mgrwt>
</event>
<event>
 4    1  0.2247963E-002  0.4776430E+03  0.7818608E-02  0.1019785E+00
          2   -1    0    0  502    0  0.00000000000E+00  0.00000000000E+00  0.17030269398E+04  0.17030269398E+04  0.00000000000E+00 0.  1.
         -2   -1    0    0    0  501 -0.00000000000E+00 -0.00000000000E+00 -0.13945909619E+03  0.13945909619E+03  0.00000000000E+00 0. -1.
    9000007    1    1    2  502    0 -0.11841336389E+03  0.23263938142E+03  0.59890101784E+03  0.76604519169E+03  0.40000000000E+03 0. -1.
   -9000007    1    1    2    0  501  0.11841336389E+03 -0.23263938142E+03  0.96466682575E+03  0.10764408443E+04  0.40000000000E+03 0.  1.
<mgrwt>
<rscale>  2 0.47764297E+03</rscale>
<asrwt>0</asrwt>
<pdfrwt beam="1">  1        2 0.26200413E+00 0.47764297E+03</pdfrwt>
<pdfrwt beam="2">  1       -2 0.21455247E-01 0.47764297E+03</pdfrwt>
<totfact> 0.19281473E+02</totfact>
</mgrwt>
</event>
<event>
 4    1  0.2247963E-002  0.4297974E+03  0.7818608E-02  0.1033924E+00
          4   -1    0    0  502    0  0.00000000000E+00  0.00000000000E+00  0.13993995988E+03  0.13993995988E+03  0.00000000000E+00 0. -1.
         -4   -1    0    0    0  501 -0.00000000000E+00 -0.00000000000E+00 -0.14617682509E+04  0.14617682509E+04  0.00000000000E+00 0.  1.
    9000007    1    1    2  502    0  0.20821283466E+02 -0.15585978071E+03 -0.91028652674E+03  0.10066515573E+04  0.40000000000E+03 0.  1.
   -9000007    1    1    2    0  501 -0.20821283466E+02  0.15585978071E+03 -0.41154176427E+03  0.59505665346E+03  0.40000000000E+03 0. -1.
<mgrwt>
<rscale>  2 0.42979739E+03</rscale>
<asrwt>0</asrwt>
<pdfrwt beam="1">  1        4 0.21529226E-01 0.42979739E+03</pdfrwt>
<pdfrwt beam="2">  1       -4 0.22488741E+00 0.42979739E+03</pdfrwt>
<totfact> 0.36570225E+00</totfact>
</mgrwt>
</event>
<event>
 4    1  0.2247963E-002  0.4416565E+03  0.7818608E-02  0.1030240E+00
          1   -1    0    0  502    0  0.00000000000E+00  0.00000000000E+00  0.28670689979E+04  0.28670689979E+04  0.00000000000E+00 0. -1.
         -1   -1    0    0    0  501 -0.00000000000E+00 -0.00000000000E+00 -0.99693378709E+02  0.99693378709E+02  0.00000000000E+00 0.  1.
    9000007    1    1    2  502    0 -0.38738509823E+02 -0.18319320980E+03  0.22196091566E+04  0.22631228938E+04  0.40000000000E+03 0. -1.
   -9000007    1    1    2    0  501  0.38738509823E+02  0.18319320980E+03  0.54776646258E+03  0.70363948283E+03  0.40000000000E+03 0.  1.
<mgrwt>
<rscale>  2 0.44165646E+03</rscale>
<asrwt>0</asrwt>
<pdfrwt beam="1">  1        1 0.44108748E+00 0.44165646E+03</pdfrwt>
<pdfrwt beam="2">  1       -1 0.15337445E-01 0.44165646E+03</pdfrwt>
<totfact> 0.26435145E+01</totfact>
</mgrwt>
</event>
<event>
 4    1  0.2247963E-002  0.4328012E+03  0.7818608E-02  0.1032979E+00
          1   -1    0    0  502    0  0.00000000000E+00  0.00000000000E+00  0.14737902927E+03  0.14737902927E+03  0.00000000000E+00 0.  1.
         -1   -1    0    0    0  501 -0.00000000000E+00 -0.00000000000E+00 -0.12794774699E+04  0.12794774699E+04  0.00000000000E+00 0. -1.
    9000007    1    1    2  502    0  0.16131647889E+03  0.35970906152E+02 -0.50793457600E+03  0.66731884879E+03  0.40000000000E+03 0.  1.
   -9000007    1    1    2    0  501 -0.16131647889E+03 -0.35970906152E+02 -0.62416386465E+03  0.75953765041E+03  0.40000000000E+03 0. -1.
<mgrwt>
<rscale>  2 0.43280124E+03</rscale>
<asrwt>0</asrwt>
<pdfrwt beam="1">  1        1 0.22673697E-01 0.43280124E+03</pdfrwt>
<pdfrwt beam="2">  1       -1 0.19684269E+00 0.43280124E+03</pdfrwt>
<totfact> 0.37222074E+01</totfact>
</mgrwt>
</event>
<event>
 4    1  0.2247963E-002  0.4363588E+03  0.7818608E-02  0.1031870E+00
          1   -1    0    0  502    0  0.00000000000E+00  0.00000000000E+00  0.34679306345E+04  0.34679306345E+04  0.00000000000E+00 0.  1.
         -1   -1    0    0    0  501 -0.00000000000E+00 -0.00000000000E+00 -0.74228587136E+02  0.74228587136E+02  0.00000000000E+00 0. -1.
    9000007    1    1    2  502    0  0.14498474782E+03  0.96893782670E+02  0.79322429665E+03  0.90532522720E+03  0.40000000000E+03 0.  1.
   -9000007    1    1    2    0  501 -0.14498474782E+03 -0.96893782670E+02  0.26004777507E+04  0.26368339944E+04  0.40000000000E+03 0. -1.
<mgrwt>
<rscale>  2 0.43635878E+03</rscale>
<asrwt>0</asrwt>
<pdfrwt beam="1">  1        1 0.53352767E+00 0.43635878E+03</pdfrwt>
<pdfrwt beam="2">  1       -1 0.11419785E-01 0.43635878E+03</pdfrwt>
<totfact> 0.15523309E+01</totfact>
</mgrwt>
</event>
<event>
 4    1  0.2247963E-002  0.4332394E+03  0.7818608E-02  0.1032842E+00
         -1   -1    0    0    0  501 -0.00000000000E+00  0.00000000000E+00  0.15782901110E+03  0.15782901110E+03  0.00000000000E+00 0.  1.
          1   -1    0    0  502    0  0.00000000000E+00 -0.00000000000E+00 -0.11904657349E+04  0.11904657349E+04  0.00000000000E+00 0. -1.
    9000007    1    1    2  502    0  0.15897812182E+03  0.49217629015E+02 -0.53795892279E+03  0.69072152191E+03  0.40000000000E+03 0. -1.
   -9000007    1    1    2    0  501 -0.15897812182E+03 -0.49217629015E+02 -0.49467780100E+03  0.65757322408E+03  0.40000000000E+03 0. -1.
<mgrwt>
<rscale>  2 0.43323945E+03</rscale>
<asrwt>0</asrwt>
<pdfrwt beam="1">  1        1 0.18314857E+00 0.43323945E+03</pdfrwt>
<pdfrwt beam="2">  1       -1 0.24281387E-01 0.43323945E+03</pdfrwt>
<totfact> 0.16739497E+02</totfact>
</mgrwt>
</event>
<event>
 4    1  0.2247963E-002  0.4318263E+03  0.7818608E-02  0.1033285E+00
         -1   -1    0    0    0  501 -0.00000000000E+00  0.00000000000E+00  0.63550843431E+03  0.63550843431E+03  0.00000000000E+00 0.  1.
          1   -1    0    0  502    0  0.00000000000E+00 -0.00000000000E+00 -0.29481018255E+03  0.29481018255E+03  0.00000000000E+00 0. -1.
    9000007    1    1    2  502    0 -0.30994498119E+02 -0.15972873048E+03  0.13846184059E+03  0.45348165074E+03  0.40000000000E+03 0. -1.
   -9000007    1    1    2    0  501  0.30994498119E+02  0.15972873048E+03  0.20223641117E+03  0.47683696612E+03  0.40000000000E+03 0.  1.
<mgrwt>
<rscale>  2 0.43182627E+03</rscale>
<asrwt>0</asrwt>
<pdfrwt beam="1">  1        1 0.45355413E-01 0.43182627E+03</pdfrwt>
<pdfrwt beam="2">  1       -1 0.97770528E-01 0.43182627E+03</pdfrwt>
<totfact> 0.93910325E+01</totfact>
</mgrwt>
</event>
<event>
 4    1  0.2247963E-002  0.4337617E+03  0.7818608E-02  0.1032678E+00
          1   -1    0    0  502    0  0.00000000000E+00  0.00000000000E+00  0.72063241683E+03  0.72063241683E+03  0.00000000000E+00 0.  1.
         -1   -1    0    0    0  501 -0.00000000000E+00 -0.00000000000E+00 -0.32518491846E+03  0.32518491846E+03  0.00000000000E+00 0. -1.
    9000007    1    1    2  502    0 -0.30248082431E+02  0.16502816580E+03 -0.34429955945E+02  0.43512603216E+03  0.40000000000E+03 0. -1.
   -9000007    1    1    2    0  501  0.30248082431E+02 -0.16502816580E+03  0.42987745431E+03  0.61069130313E+03  0.40000000000E+03 0.  1.
<mgrwt>
<rscale>  2 0.43376173E+03</rscale>
<asrwt>0</asrwt>
<pdfrwt beam="1">  1        1 0.11086653E+00 0.43376173E+03</pdfrwt>
<pdfrwt beam="2">  1       -1 0.50028449E-01 0.43376173E+03</pdfrwt>
<totfact> 0.10950967E+02</totfact>
</mgrwt>
</event>
<event>
 4    1  0.2247963E-002  0.4718951E+03  0.7818608E-02  0.1021387E+00
          2   -1    0    0  502    0  0.00000000000E+00  0.00000000000E+00  0.32997892782E+04  0.32997892782E+04  0.00000000000E+00 0. -1.
         -2   -1    0    0    0  501 -0.00000000000E+00 -0.00000000000E+00 -0.71596394297E+02  0.71596394297E+02  0.00000000000E+00 0.  1.
    9000007    1    1    2  502    0  0.19613835146E+03 -0.15561095304E+03  0.12101278861E+04  0.12988820279E+04  0.40000000000E+03 0.  1.
   -9000007    1    1    2    0  501 -0.19613835146E+03  0.15561095304E+03  0.20180649978E+04  0.20725036447E+04  0.40000000000E+03 0. -1.
<mgrwt>
<rscale>  2 0.47189514E+03</rscale>
<asrwt>0</asrwt>
<pdfrwt beam="1">  1        2 0.50765977E+00 0.47189514E+03</pdfrwt>
<pdfrwt beam="2">  1       -2 0.11014832E-01 0.47189514E+03</pdfrwt>
<totfact> 0.73252370E+01</totfact>
</mgrwt>
</event>
<event>
 4    1  0.2247963E-002  0.4046561E+03  0.7818608E-02  0.1042179E+00
         -2   -1    0    0    0  501 -0.00000000000E+00  0.00000000000E+00  0.28008402314E+03  0.28008402314E+03  0.00000000000E+00 0. -1.
          2   -1    0    0  502    0  0.00000000000E+00 -0.00000000000E+00 -0.80590311194E+03  0.80590311194E+03  0.00000000000E+00 0.  1.
    9000007    1    1    2  502    0  0.10593072978E+02 -0.60285354513E+02  0.21611264628E+02  0.40523275278E+03  0.40000000000E+03 0. -1.
   -9000007    1    1    2    0  501 -0.10593072978E+02  0.60285354513E+02 -0.54743035343E+03  0.68075438230E+03  0.40000000000E+03 0.  1.
<mgrwt>
<rscale>  2 0.40465607E+03</rscale>
<asrwt>0</asrwt>
<pdfrwt beam="1">  1        2 0.12398509E+00 0.40465607E+03</pdfrwt>
<pdfrwt beam="2">  1       -2 0.43089850E-01 0.40465607E+03</pdfrwt>
<totfact> 0.18035800E+02</totfact>
</mgrwt>
</event>
<event>
 4    1  0.2247963E-002  0.5357895E+03  0.7818608E-02  0.1004838E+00
          1   -1    0    0  502    0  0.00000000000E+00  0.00000000000E+00  0.49979161269E+03  0.49979161269E+03  0.00000000000E+00 0. -1.
         -1   -1    0    0    0  501 -0.00000000000E+00 -0.00000000000E+00 -0.62017011595E+03  0.62017011595E+03  0.00000000000E+00 0.  1.
    9000007    1    1    2  502    0 -0.15430047603E+03  0.32134371618E+03  0.91971468763E+02  0.54362594852E+03  0.40000000000E+03 0. -1.
   -9000007    1    1    2    0  501  0.15430047603E+03 -0.32134371618E+03 -0.21234997202E+03  0.57633578012E+03  0.40000000000E+03 0.  1.
<mgrwt>
<rscale>  2 0.53578953E+03</rscale>
<asrwt>0</asrwt>
<pdfrwt beam="1">  1        1 0.76891018E-01 0.53578953E+03</pdfrwt>
<pdfrwt beam="2">  1       -1 0.95410787E-01 0.53578953E+03</pdfrwt>
<totfact> 0.49080827E+01</totfact>
</mgrwt>
</event>
<event>
 4    1  0.2247963E-002  0.4370350E+03  0.7818608E-02  0.1031660E+00
         -1   -1    0    0    0  501 -0.00000000000E+00  0.00000000000E+00  0.82491264812E+02  0.82491264812E+02  0.00000000000E+00 0. -1.
          1   -1    0    0  502    0  0.00000000000E+00 -0.00000000000E+00 -0.24371871977E+04  0.24371871977E+04  0.00000000000E+00 0.  1.
    9000007    1    1    2  502    0 -0.14654935464E+03  0.97585138997E+02 -0.89571293609E+03  0.99664499024E+03  0.40000000000E+03 0. -1.
   -9000007    1    1    2    0  501  0.14654935464E+03 -0.97585138997E+02 -0.14589829968E+04  0.15230334722E+04  0.40000000000E+03 0.  1.
<mgrwt>
<rscale>  2 0.43703498E+03</rscale>
<asrwt>0</asrwt>
<pdfrwt beam="1">  1        1 0.37495191E+00 0.43703498E+03</pdfrwt>
<pdfrwt beam="2">  1       -1 0.12690963E-01 0.43703498E+03</pdfrwt>
<totfact> 0.70463289E+01</totfact>
</mgrwt>
</event>
<event>
 4    1  0.2247963E-002  0.4129131E+03  0.7818608E-02  0.1039398E+00
          2   -1    0    0  502    0  0.00000000000E+00  0.00000000000E+00  0.81622483217E+03  0.81622483217E+03  0.00000000000E+00 0. -1.
         -2   -1    0    0    0  501 -0.00000000000E+00 -0.00000000000E+00 -0.25753922659E+03  0.25753922659E+03  0.00000000000E+00 0.  1.
    9000007    1    1    2  502    0 -0.17283639324E+01  0.10244153652E+03  0.45988001432E+02  0.41546618625E+03  0.40000000000E+03 0.  1.
   -9000007    1    1    2    0  501  0.17283639324E+01 -0.10244153652E+03  0.51269760414E+03  0.65829787250E+03  0.40000000000E+03 0. -1.
<mgrwt>
<rscale>  2 0.41291313E+03</rscale>
<asrwt>0</asrwt>
<pdfrwt beam="1">  1        2 0.12557305E+00 0.41291313E+03</pdfrwt>
<pdfrwt beam="2">  1       -2 0.39621420E-01 0.41291313E+03</pdfrwt>
<totfact> 0.20864302E+02</totfact>
</mgrwt>
</event>
<event>
 4    1  0.2247963E-002  0.4953469E+03  0.7818608E-02  0.1015001E+00
         -1   -1    0    0    0  501 -0.00000000000E+00  0.00000000000E+00  0.83806793497E+03  0.83806793497E+03  0.00000000000E+00 0.  1.
          1   -1    0    0  502    0  0.00000000000E+00 -0.00000000000E+00 -0.30865691387E+03  0.30865691387E+03  0.00000000000E+00 0. -1.
    9000007    1    1    2  502    0 -0.29060248857E+03  0.30310508829E+02  0.13466144674E+03  0.51332469115E+03  0.40000000000E+03 0. -1.
   -9000007    1    1    2    0  501  0.29060248857E+03 -0.30310508829E+02  0.39474957436E+03  0.63340015769E+03  0.40000000000E+03 0.  1.
<mgrwt>
<rscale>  2 0.49534688E+03</rscale>
<asrwt>0</asrwt>
<pdfrwt beam="1">  1        1 0.47485679E-01 0.49534688E+03</pdfrwt>
<pdfrwt beam="2">  1       -1 0.12893353E+00 0.49534688E+03</pdfrwt>
<totfact> 0.45786021E+01</totfact>
</mgrwt>
</event>
<event>
 4    1  0.2247963E-002  0.6210470E+03  0.7818608E-02  0.9862677E-01
         -2   -1    0    0    0  501 -0.00000000000E+00  0.00000000000E+00  0.25685196090E+03  0.25685196090E+03  0.00000000000E+00 0.  1.
          2   -1    0    0  502    0  0.00000000000E+00 -0.00000000000E+00 -0.18809530352E+04  0.18809530352E+04  0.00000000000E+00 0. -1.
    9000007    1    1    2  502    0 -0.36778577031E+03  0.30072089932E+03 -0.12920573868E+04  0.14335660860E+04  0.40000000000E+03 0. -1.
   -9000007    1    1    2    0  501  0.36778577031E+03 -0.30072089932E+03 -0.33204368753E+03  0.70423891014E+03  0.40000000000E+03 0.  1.
<mgrwt>
<rscale>  2 0.62104705E+03</rscale>
<asrwt>0</asrwt>
<pdfrwt beam="1">  1        2 0.28937738E+00 0.62104705E+03</pdfrwt>
<pdfrwt beam="2">  1       -2 0.39515687E-01 0.62104705E+03</pdfrwt>
<totfact> 0.49255452E+01</totfact>
</mgrwt>
</event>
<event>
 4    1  0.2247963E-002  0.4003696E+03  0.7818608E-02  0.1043652E+00
          1   -1    0    0  502    0  0.00000000000E+00  0.00000000000E+00  0.27682883127E+03  0.27682883127E+03  0.00000000000E+00 0.  1.
         -1   -1    0    0    0  501 -0.00000000000E+00 -0.00000000000E+00 -0.57984702697E+03  0.57984702697E+03  0.00000000000E+00 0. -1.
    9000007    1    1    2  502    0 -0.56006139319E+01  0.16260726089E+02 -0.16745993636E+03  0.43397996310E+03  0.40000000000E+03 0. -1.
   -9000007    1    1    2    0  501  0.56006139319E+01 -0.16260726089E+02 -0.13555825933E+03  0.42269589513E+03  0.40000000000E+03 0. -1.
<mgrwt>
<rscale>  2 0.40036955E+03</rscale>
<asrwt>0</asrwt>
<pdfrwt beam="1">  1        1 0.42589051E-01 0.40036955E+03</pdfrwt>
<pdfrwt beam="2">  1       -1 0.89207235E-01 0.40036955E+03</pdfrwt>
<totfact> 0.12492081E+02</totfact>
</mgrwt>
</event>
<event>
 4    1  0.2247963E-002  0.5859492E+03  0.7818608E-02  0.9934994E-01
         -2   -1    0    0    0  501 -0.00000000000E+00  0.00000000000E+00  0.46132386889E+03  0.46132386889E+03  0.00000000000E+00 0. -1.
          2   -1    0    0  502    0  0.00000000000E+00 -0.00000000000E+00 -0.93112615846E+03  0.93112615846E+03  0.00000000000E+00 0.  1.
    9000007    1    1    2  502    0  0.63473716773E+02 -0.42344723218E+03  0.77010741270E+02  0.59098826167E+03  0.40000000000E+03 0. -1.
   -9000007    1    1    2    0  501 -0.63473716773E+02  0.42344723218E+03 -0.54681303084E+03  0.80146176569E+03  0.40000000000E+03 0.  1.
<mgrwt>
<rscale>  2 0.58594921E+03</rscale>
<asrwt>0</asrwt>
<pdfrwt beam="1">  1        2 0.14325018E+00 0.58594921E+03</pdfrwt>
<pdfrwt beam="2">  1       -2 0.70972903E-01 0.58594921E+03</pdfrwt>
<totfact> 0.51940576E+01</totfact>
</mgrwt>
</event>
<event>
 4    1  0.2247963E-002  0.4649418E+03  0.7818608E-02  0.1023358E+00
         -1   -1    0    0    0  501 -0.00000000000E+00  0.00000000000E+00  0.39750997891E+03  0.39750997891E+03  0.00000000000E+00 0. -1.
          1   -1    0    0  502    0  0.00000000000E+00 -0.00000000000E+00 -0.63598575398E+03  0.63598575398E+03  0.00000000000E+00 0.  1.
    9000007    1    1    2  502    0  0.12566464103E+03  0.20094602031E+03 -0.31596191222E+03  0.56214129456E+03  0.40000000000E+03 0.  1.
   -9000007    1    1    2    0  501 -0.12566464103E+03 -0.20094602031E+03  0.77486137150E+02  0.47135443833E+03  0.40000000000E+03 0. -1.
<mgrwt>
<rscale>  2 0.46494183E+03</rscale>
<asrwt>0</asrwt>
<pdfrwt beam="1">  1        1 0.97843961E-01 0.46494183E+03</pdfrwt>
<pdfrwt beam="2">  1       -1 0.61155382E-01 0.46494183E+03</pdfrwt>
<totfact> 0.89253768E+01</totfact>
</mgrwt>
</event>
<event>
 4    1  0.2247963E-002  0.4366029E+03  0.7818608E-02  0.1031794E+00
         -1   -1    0    0    0  501 -0.00000000000E+00  0.00000000000E+00  0.23703985088E+03  0.23703985088E+03  0.00000000000E+00 0.  1.
          1   -1    0    0  502    0  0.00000000000E+00 -0.00000000000E+00 -0.97197182991E+03  0.97197182991E+03  0.00000000000E+00 0. -1.
    9000007    1    1    2  502    0  0.13916277868E+03  0.10609328484E+03 -0.61863298988E+03  0.75718481246E+03  0.40000000000E+03 0. -1.
   -9000007    1    1    2    0  501 -0.13916277868E+03 -0.10609328484E+03 -0.11629898915E+03  0.45182686832E+03  0.40000000000E+03 0.  1.
<mgrwt>
<rscale>  2 0.43660287E+03</rscale>
<asrwt>0</asrwt>
<pdfrwt beam="1">  1        1 0.14953413E+00 0.43660287E+03</pdfrwt>
<pdfrwt beam="2">  1       -1 0.36467670E-01 0.43660287E+03</pdfrwt>
<totfact> 0.12041160E+02</totfact>
</mgrwt>
</event>
<event>
 4    1  0.2247963E-002  0.4691175E+03  0.7818608E-02  0.1022170E+00
          2   -1    0    0  502    0  0.00000000000E+00  0.00000000000E+00  0.15119110793E+04  0.15119110793E+04  0.00000000000E+00 0.  1.
         -2   -1    0    0    0  501 -0.00000000000E+00 -0.00000000000E+00 -0.14644191973E+03  0.14644191973E+03  0.00000000000E+00 0. -1.
    9000007    1    1    2  502    0  0.75636903649E+02  0.23313139492E+03  0.74714407566E+03  0.88221055213E+03  0.40000000000E+03 0.  1.
   -9000007    1    1    2    0  501 -0.75636903649E+02 -0.23313139492E+03  0.61832508388E+03  0.77614244688E+03  0.40000000000E+03 0. -1.
<mgrwt>
<rscale>  2 0.46911746E+03</rscale>
<asrwt>0</asrwt>
<pdfrwt beam="1">  1        2 0.23260169E+00 0.46911746E+03</pdfrwt>
<pdfrwt beam="2">  1       -2 0.22529527E-01 0.46911746E+03</pdfrwt>
<totfact> 0.22486648E+02</totfact>
</mgrwt>
</event>
<event>
 4    1  0.2247963E-002  0.5446032E+03  0.7818608E-02  0.1002751E+00
          2   -1    0    0  502    0  0.00000000000E+00  0.00000000000E+00  0.13890009514E+04  0.13890009514E+04  0.00000000000E+00 0.  1.
         -2   -1    0    0    0  501 -0.00000000000E+00 -0.00000000000E+00 -0.44099266932E+03  0.44099266932E+03  0.00000000000E+00 0. -1.
    9000007    1    1    2  502    0 -0.35799140439E+03  0.91841006344E+02  0.11311465282E+04  0.12554222733E+04  0.40000000000E+03 0.  1.
   -9000007    1    1    2    0  501  0.35799140439E+03 -0.91841006344E+02 -0.18313824613E+03  0.57457134740E+03  0.40000000000E+03 0. -1.
<mgrwt>
<rscale>  2 0.54460317E+03</rscale>
<asrwt>0</asrwt>
<pdfrwt beam="1">  1        2 0.21369245E+00 0.54460317E+03</pdfrwt>
<pdfrwt beam="2">  1       -2 0.67845027E-01 0.54460317E+03</pdfrwt>
<totfact> 0.30653480E+01</totfact>
</mgrwt>
</event>
<event>
 4    1  0.2247963E-002  0.4701772E+03  0.7818608E-02  0.1021870E+00
         -2   -1    0    0    0  501 -0.00000000000E+00  0.00000000000E+00  0.69617485012E+02  0.69617485012E+02  0.00000000000E+00 0. -1.
          2   -1    0    0  502    0  0.00000000000E+00 -0.00000000000E+00 -0.41390452945E+04  0.41390452945E+04  0.00000000000E+00 0.  1.
    9000007    1    1    2  502    0 -0.23388384243E+03  0.79780456944E+02 -0.10193721361E+04  0.11225801196E+04  0.40000000000E+03 0. -1.
   -9000007    1    1    2    0  501  0.23388384243E+03 -0.79780456944E+02 -0.30500556734E+04  0.30860826599E+04  0.40000000000E+03 0.  1.
<mgrwt>
<rscale>  2 0.47017717E+03</rscale>
<asrwt>0</asrwt>
<pdfrwt beam="1">  1        2 0.63677664E+00 0.47017717E+03</pdfrwt>
<pdfrwt beam="2">  1       -2 0.10710375E-01 0.47017717E+03</pdfrwt>
<totfact> 0.19103915E+01</totfact>
</mgrwt>
</event>
<event>
 4    1  0.2247963E-002  0.5246471E+03  0.7818608E-02  0.1007539E+00
         -1   -1    0    0    0  501 -0.00000000000E+00  0.00000000000E+00  0.23328442548E+03  0.23328442548E+03  0.00000000000E+00 0.  1.
          1   -1    0    0  502    0  0.00000000000E+00 -0.00000000000E+00 -0.17834034800E+04  0.17834034800E+04  0.00000000000E+00 0. -1.
    9000007    1    1    2  502    0  0.27952847588E+03 -0.19266129354E+03 -0.18848889777E+03  0.55747879551E+03  0.40000000000E+03 0.  1.
   -9000007    1    1    2    0  501 -0.27952847588E+03  0.19266129354E+03 -0.13616301568E+04  0.14592091100E+04  0.40000000000E+03 0. -1.
<mgrwt>
<rscale>  2 0.52464707E+03</rscale>
<asrwt>0</asrwt>
<pdfrwt beam="1">  1        1 0.27436977E+00 0.52464707E+03</pdfrwt>
<pdfrwt beam="2">  1       -1 0.35889911E-01 0.52464707E+03</pdfrwt>
<totfact> 0.33182908E+01</totfact>
</mgrwt>
</event>
<event>
 4    1  0.2247963E-002  0.5105522E+03  0.7818608E-02  0.1011061E+00
         -1   -1    0    0    0  501 -0.00000000000E+00  0.00000000000E+00  0.16674061450E+04  0.16674061450E+04  0.00000000000E+00 0. -1.
          1   -1    0    0  502    0  0.00000000000E+00 -0.00000000000E+00 -0.16374458220E+03  0.16374458220E+03  0.00000000000E+00 0.  1.
    9000007    1    1    2  502    0 -0.30787012698E+03  0.76678335404E+02  0.94667586625E+03  0.10755736971E+04  0.40000000000E+03 0. -1.
   -9000007    1    1    2    0  501  0.30787012698E+03 -0.76678335404E+02  0.55698569654E+03  0.75557703006E+03  0.40000000000E+03 0. -1.
<mgrwt>
<rscale>  2 0.51055223E+03</rscale>
<asrwt>0</asrwt>
<pdfrwt beam="1">  1        1 0.25191475E-01 0.51055223E+03</pdfrwt>
<pdfrwt beam="2">  1       -1 0.25652401E+00 0.51055223E+03</pdfrwt>
<totfact> 0.13055297E+01</totfact>
</mgrwt>
</event>
<event>
 4    1  0.2247963E-002  0.6439861E+03  0.7818608E-02  0.9818130E-01
          2   -1    0    0  502    0  0.00000000000E+00  0.00000000000E+00  0.79194180483E+03  0.79194180483E+03  0.00000000000E+00 0. -1.
         -2   -1    0    0    0  501 -0.00000000000E+00 -0.00000000000E+00 -0.60269104337E+03  0.60269104337E+03  0.00000000000E+00 0.  1.
    9000007    1    1    2  502    0 -0.49505812447E+03  0.98160779974E+02  0.34711715946E+03  0.73157939263E+03  0.40000000000E+03 0. -1.
   -9000007    1    1    2    0  501  0.49505812447E+03 -0.98160779974E+02 -0.15786639800E+03  0.66305345557E+03  0.40000000000E+03 0.  1.
<mgrwt>
<rscale>  2 0.64398609E+03</rscale>
<asrwt>0</asrwt>
<pdfrwt beam="1">  1        2 0.12183720E+00 0.64398609E+03</pdfrwt>
<pdfrwt beam="2">  1       -2 0.92721698E-01 0.64398609E+03</pdfrwt>
<totfact> 0.35259489E+01</totfact>
</mgrwt>
</event>
<event>
 4    1  0.2247963E-002  0.4078851E+03  0.7818608E-02  0.1041083E+00
          1   -1    0    0  502    0  0.00000000000E+00  0.00000000000E+00  0.11233545391E+03  0.11233545391E+03  0.00000000000E+00 0. -1.
         -1   -1    0    0    0  501 -0.00000000000E+00 -0.00000000000E+00 -0.15088404970E+04  0.15088404970E+04  0.00000000000E+00 0.  1.
    9000007    1    1    2  502    0 -0.61153150485E+02  0.51288479159E+02 -0.80833524216E+03  0.90541486603E+03  0.40000000000E+03 0.  1.
   -9000007    1    1    2    0  501  0.61153150485E+02 -0.51288479159E+02 -0.58816980089E+03  0.71576108485E+03  0.40000000000E+03 0. -1.
<mgrwt>
<rscale>  2 0.40788505E+03</rscale>
<asrwt>0</asrwt>
<pdfrwt beam="1">  1        1 0.17282377E-01 0.40788505E+03</pdfrwt>
<pdfrwt beam="2">  1       -1 0.23212931E+00 0.40788505E+03</pdfrwt>
<totfact> 0.31165266E+01</totfact>
</mgrwt>
</event>
<event>
 4    1  0.2247963E-002  0.4246921E+03  0.7818608E-02  0.1035550E+00
         -2   -1    0    0    0  501 -0.00000000000E+00  0.00000000000E+00  0.71539536781E+02  0.71539536781E+02  0.00000000000E+00 0. -1.
          2   -1    0    0  502    0  0.00000000000E+00 -0.00000000000E+00 -0.26099652357E+04  0.26099652357E+04  0.00000000000E+00 0.  1.
    9000007    1    1    2  502    0 -0.54912559079E+02 -0.13171175880E+03 -0.15165131210E+04  0.15748572706E+04  0.40000000000E+03 0. -1.
   -9000007    1    1    2    0  501  0.54912559079E+02  0.13171175880E+03 -0.10219125780E+04  0.11066475020E+04  0.40000000000E+03 0. -1.
<mgrwt>
<rscale>  2 0.42469210E+03</rscale>
<asrwt>0</asrwt>
<pdfrwt beam="1">  1        2 0.40153305E+00 0.42469210E+03</pdfrwt>
<pdfrwt beam="2">  1       -2 0.11006084E-01 0.42469210E+03</pdfrwt>
<totfact> 0.19193725E+02</totfact>
</mgrwt>
</event>
<event>
 4    1  0.2247963E-002  0.4246243E+03  0.7818608E-02  0.1035572E+00
          2   -1    0    0  502    0  0.00000000000E+00  0.00000000000E+00  0.20630459099E+04  0.20630459099E+04  0.00000000000E+00 0.  1.
         -2   -1    0    0    0  501 -0.00000000000E+00 -0.00000000000E+00 -0.89351743269E+02  0.89351743269E+02  0.00000000000E+00 0. -1.
    9000007    1    1    2  502    0 -0.96881701751E+02  0.10449766893E+03  0.82770364914E+03  0.93026832567E+03  0.40000000000E+03 0. -1.
   -9000007    1    1    2    0  501  0.96881701751E+02 -0.10449766893E+03  0.11459905174E+04  0.12221293275E+04  0.40000000000E+03 0.  1.
<mgrwt>
<rscale>  2 0.42462434E+03</rscale>
<asrwt>0</asrwt>
<pdfrwt beam="1">  1        2 0.31739164E+00 0.42462434E+03</pdfrwt>
<pdfrwt beam="2">  1       -2 0.13746424E-01 0.42462434E+03</pdfrwt>
<totfact> 0.26580422E+02</totfact>
</mgrwt>
</event>
<event>
 4    1  0.2247963E-002  0.4941425E+03  0.7818608E-02  0.1015319E+00
          2   -1    0    0  502    0  0.00000000000E+00  0.00000000000E+00  0.18651369530E+04  0.18651369530E+04  0.00000000000E+00 0.  1.
         -2   -1    0    0    0  501 -0.00000000000E+00 -0.00000000000E+00 -0.14120065059E+03  0.14120065059E+03  0.00000000000E+00 0. -1.
    9000007    1    1    2  502    0 -0.14856621300E+03 -0.24920849642E+03  0.59123309374E+03  0.77054095638E+03  0.40000000000E+03 0. -1.
   -9000007    1    1    2    0  501  0.14856621300E+03  0.24920849642E+03  0.11327032087E+04  0.12357966472E+04  0.40000000000E+03 0. -1.
<mgrwt>
<rscale>  2 0.49414248E+03</rscale>
<asrwt>0</asrwt>
<pdfrwt beam="1">  1        2 0.28694413E+00 0.49414248E+03</pdfrwt>
<pdfrwt beam="2">  1       -2 0.21723178E-01 0.49414248E+03</pdfrwt>
<totfact> 0.15401334E+02</totfact>
</mgrwt>
</event>
<event>
 4    1  0.2247963E-002  0.5423302E+03  0.7818608E-02  0.1003285E+00
          2   -1    0    0  502    0  0.00000000000E+00  0.00000000000E+00  0.24107904040E+04  0.24107904040E+04  0.00000000000E+00 0. -1.
         -2   -1    0    0    0  501 -0.00000000000E+00 -0.00000000000E+00 -0.17486008106E+03  0.17486008106E+03  0.00000000000E+00 0.  1.
    9000007    1    1    2  502    0 -0.12009849636E+03 -0.34597457562E+03  0.18287674381E+04  0.19074885055E+04  0.40000000000E+03 0.  1.
   -9000007    1    1    2    0  501  0.12009849636E+03  0.34597457562E+03  0.40716288489E+03  0.67816197964E+03  0.40000000000E+03 0. -1.
<mgrwt>
<rscale>  2 0.54233021E+03</rscale>
<asrwt>0</asrwt>
<pdfrwt beam="1">  1        2 0.37089081E+00 0.54233021E+03</pdfrwt>
<pdfrwt beam="2">  1       -2 0.26901553E-01 0.54233021E+03</pdfrwt>
<totfact> 0.52697580E+01</totfact>
</mgrwt>
</event>
<event>
 4    1  0.2247963E-002  0.4481327E+03  0.7818608E-02  0.1028280E+00
          2   -1    0    0  502    0  0.00000000000E+00  0.00000000000E+00  0.49559934509E+03  0.49559934509E+03  0.00000000000E+00 0. -1.
         -2   -1    0    0    0  501 -0.00000000000E+00 -0.00000000000E+00 -0.40717212549E+03  0.40717212549E+03  0.00000000000E+00 0.  1.
    9000007    1    1    2  502    0 -0.13973267587E+03 -0.14593723463E+03  0.12896661315E+02  0.44831821403E+03  0.40000000000E+03 0. -1.
   -9000007    1    1    2    0  501  0.13973267587E+03  0.14593723463E+03  0.75530558283E+02  0.45445325655E+03  0.40000000000E+03 0.  1.
<mgrwt>
<rscale>  2 0.44813268E+03</rscale>
<asrwt>0</asrwt>
<pdfrwt beam="1">  1        2 0.76246053E-01 0.44813268E+03</pdfrwt>
<pdfrwt beam="2">  1       -2 0.62641866E-01 0.44813268E+03</pdfrwt>
<totfact> 0.15109617E+02</totfact>
</mgrwt>
</event>
<event>
 4    1  0.2247963E-002  0.4854285E+03  0.7818608E-02  0.1017654E+00
         -1   -1    0    0    0  501 -0.00000000000E+00  0.00000000000E+00  0.11463402211E+04  0.11463402211E+04  0.00000000000E+00 0. -1.
          1   -1    0    0  502    0  0.00000000000E+00 -0.00000000000E+00 -0.93259914985E+03  0.93259914985E+03  0.00000000000E+00 0.  1.
    9000007    1    1    2  502    0 -0.23922479072E+03  0.13569200114E+03 -0.81091973137E+03  0.94510932193E+03  0.40000000000E+03 0.  1.
   -9000007    1    1    2    0  501  0.23922479072E+03 -0.13569200114E+03  0.10246608027E+04  0.11338300491E+04  0.40000000000E+03 0. -1.
<mgrwt>
<rscale>  2 0.48542849E+03</rscale>
<asrwt>0</asrwt>
<pdfrwt beam="1">  1        1 0.14347679E+00 0.48542849E+03</pdfrwt>
<pdfrwt beam="2">  1       -1 0.17636003E+00 0.48542849E+03</pdfrwt>
<totfact> 0.41420337E+00</totfact>
</mgrwt>
</event>
<event>
 4    1  0.2247963E-002  0.4743790E+03  0.7818608E-02  0.1020692E+00
          2   -1    0    0  502    0  0.00000000000E+00  0.00000000000E+00  0.15207139123E+04  0.15207139123E+04  0.00000000000E+00 0.  1.
         -2   -1    0    0    0  501 -0.00000000000E+00 -0.00000000000E+00 -0.14905561725E+03  0.14905561725E+03  0.00000000000E+00 0. -1.
    9000007    1    1    2  502    0  0.77084510162E+02 -0.24309131772E+03  0.75674759840E+03  0.89314183540E+03  0.40000000000E+03 0.  1.
   -9000007    1    1    2    0  501 -0.77084510162E+02  0.24309131772E+03  0.61491069661E+03  0.77662769411E+03  0.40000000000E+03 0.  1.
<mgrwt>
<rscale>  2 0.47437897E+03</rscale>
<asrwt>0</asrwt>
<pdfrwt beam="1">  1        2 0.23395598E+00 0.47437897E+03</pdfrwt>
<pdfrwt beam="2">  1       -2 0.22931634E-01 0.47437897E+03</pdfrwt>
<totfact> 0.21541604E+02</totfact>
</mgrwt>
</event>
<event>
 4    1  0.2247963E-002  0.4599545E+03  0.7818608E-02  0.1024794E+00
         -2   -1    0    0    0  501 -0.00000000000E+00  0.00000000000E+00  0.20013340711E+03  0.20013340711E+03  0.00000000000E+00 0. -1.
          2   -1    0    0  502    0  0.00000000000E+00 -0.00000000000E+00 -0.20511916879E+04  0.20511916879E+04  0.00000000000E+00 0.  1.
    9000007    1    1    2  502    0 -0.14924106468E+03 -0.17112933161E+03 -0.17091779146E+04  0.17699851093E+04  0.40000000000E+03 0.  1.
   -9000007    1    1    2    0  501  0.14924106468E+03  0.17112933161E+03 -0.14188036622E+03  0.48133998571E+03  0.40000000000E+03 0. -1.
<mgrwt>
<rscale>  2 0.45995450E+03</rscale>
<asrwt>0</asrwt>
<pdfrwt beam="1">  1        2 0.31556793E+00 0.45995450E+03</pdfrwt>
<pdfrwt beam="2">  1       -2 0.30789757E-01 0.45995450E+03</pdfrwt>
<totfact> 0.65663998E+01</totfact>
</mgrwt>
</event>
<event>
 4    1  0.2247963E-002  0.4107416E+03  0.7818608E-02  0.1040122E+00
          2   -1    0    0  502    0  0.00000000000E+00  0.00000000000E+00  0.78732051834E+03  0.78732051834E+03  0.00000000000E+00 0. -1.
         -2   -1    0    0    0  501 -0.00000000000E+00 -0.00000000000E+00 -0.21614850099E+03  0.21614850099E+03  0.00000000000E+00 0.  1.
    9000007    1    1    2  502    0 -0.93172275947E+02 -0.52563836630E+01  0.33220888639E+03  0.52827213325E+03  0.40000000000E+03 0. -1.
   -9000007    1    1    2    0  501  0.93172275947E+02  0.52563836630E+01  0.23896313096E+03  0.47519688607E+03  0.40000000000E+03 0.  1.
<mgrwt>
<rscale>  2 0.41074165E+03</rscale>
<asrwt>0</asrwt>
<pdfrwt beam="1">  1        2 0.12112623E+00 0.41074165E+03</pdfrwt>
<pdfrwt beam="2">  1       -2 0.33253616E-01 0.41074165E+03</pdfrwt>
<totfact> 0.30496749E+02</totfact>
</mgrwt>
</event>
<event>
 4    1  0.2247963E-002  0.4552921E+03  0.7818608E-02  0.1026156E+00
         -1   -1    0    0    0  501 -0.00000000000E+00  0.00000000000E+00  0.93960577825E+02  0.93960577825E+02  0.00000000000E+00 0. -1.
          1   -1    0    0  502    0  0.00000000000E+00 -0.00000000000E+00 -0.28761994682E+04  0.28761994682E+04  0.00000000000E+00 0.  1.
    9000007    1    1    2  502    0  0.32653001335E+01 -0.21744020706E+03 -0.67432512129E+03  0.81363706591E+03  0.40000000000E+03 0. -1.
   -9000007    1    1    2    0  501 -0.32653001335E+01  0.21744020706E+03 -0.21079137691E+04  0.21565229801E+04  0.40000000000E+03 0.  1.
<mgrwt>
<rscale>  2 0.45529211E+03</rscale>
<asrwt>0</asrwt>
<pdfrwt beam="1">  1        1 0.44249215E+00 0.45529211E+03</pdfrwt>
<pdfrwt beam="2">  1       -1 0.14455476E-01 0.45529211E+03</pdfrwt>
<totfact> 0.28560547E+01</totfact>
</mgrwt>
</event>
<event>
 4    1  0.2247963E-002  0.4165328E+03  0.7818608E-02  0.1038201E+00
          1   -1    0    0  502    0  0.00000000000E+00  0.00000000000E+00  0.48415922404E+03  0.48415922404E+03  0.00000000000E+00 0. -1.
         -1   -1    0    0    0  501 -0.00000000000E+00 -0.00000000000E+00 -0.36796886160E+03  0.36796886160E+03  0.00000000000E+00 0.  1.
    9000007    1    1    2  502    0  0.11576504592E+03  0.99012612281E+01  0.12697291083E+03  0.43545573933E+03  0.40000000000E+03 0. -1.
   -9000007    1    1    2    0  501 -0.11576504592E+03 -0.99012612281E+01 -0.10782548387E+02  0.41667234631E+03  0.40000000000E+03 0.  1.
<mgrwt>
<rscale>  2 0.41653281E+03</rscale>
<asrwt>0</asrwt>
<pdfrwt beam="1">  1        1 0.74486035E-01 0.41653281E+03</pdfrwt>
<pdfrwt beam="2">  1       -1 0.56610594E-01 0.41653281E+03</pdfrwt>
<totfact> 0.15226595E+02</totfact>
</mgrwt>
</event>
<event>
 4    1  0.2247963E-002  0.4012211E+03  0.7818608E-02  0.1043358E+00
         -2   -1    0    0    0  501 -0.00000000000E+00  0.00000000000E+00  0.74050840030E+02  0.74050840030E+02  0.00000000000E+00 0. -1.
          2   -1    0    0  502    0  0.00000000000E+00 -0.00000000000E+00 -0.23722137830E+04  0.23722137830E+04  0.00000000000E+00 0.  1.
    9000007    1    1    2  502    0 -0.14772061750E+01  0.31243992151E+02 -0.79542297610E+03  0.89088499824E+03  0.40000000000E+03 0. -1.
   -9000007    1    1    2    0  501  0.14772061750E+01 -0.31243992151E+02 -0.15027399669E+04  0.15553796248E+04  0.40000000000E+03 0.  1.
<mgrwt>
<rscale>  2 0.40122110E+03</rscale>
<asrwt>0</asrwt>
<pdfrwt beam="1">  1        2 0.36495597E+00 0.40122110E+03</pdfrwt>
<pdfrwt beam="2">  1       -2 0.11392437E-01 0.40122110E+03</pdfrwt>
<totfact> 0.24705428E+02</totfact>
</mgrwt>
</event>
<event>
 4    1  0.2247963E-002  0.5429216E+03  0.7818608E-02  0.1003146E+00
         -3   -1    0    0    0  501 -0.00000000000E+00  0.00000000000E+00  0.13466053057E+03  0.13466053057E+03  0.00000000000E+00 0.  1.
          3   -1    0    0  502    0  0.00000000000E+00 -0.00000000000E+00 -0.22484064036E+04  0.22484064036E+04  0.00000000000E+00 0. -1.
    9000007    1    1    2  502    0 -0.22720799841E+03 -0.28834075542E+03 -0.12506504962E+04  0.13634113573E+04  0.40000000000E+03 0.  1.
   -9000007    1    1    2    0  501  0.22720799841E+03  0.28834075542E+03 -0.86309537684E+03  0.10196555768E+04  0.40000000000E+03 0. -1.
<mgrwt>
<rscale>  2 0.54292160E+03</rscale>
<asrwt>0</asrwt>
<pdfrwt beam="1">  1        3 0.34590868E+00 0.54292160E+03</pdfrwt>
<pdfrwt beam="2">  1       -3 0.20717004E-01 0.54292160E+03</pdfrwt>
<totfact> 0.12864031E+00</totfact>
</mgrwt>
</event>
<event>
 4    1  0.2247963E-002  0.5142846E+03  0.7818608E-02  0.1010116E+00
         -2   -1    0    0    0  501 -0.00000000000E+00  0.00000000000E+00  0.24643349040E+03  0.24643349040E+03  0.00000000000E+00 0. -1.
          2   -1    0    0  502    0  0.00000000000E+00 -0.00000000000E+00 -0.10767117136E+04  0.10767117136E+04  0.00000000000E+00 0.  1.
    9000007    1    1    2  502    0 -0.23130420421E+03 -0.22580293759E+03 -0.45256646504E+03  0.68505839662E+03  0.40000000000E+03 0.  1.
   -9000007    1    1    2    0  501  0.23130420421E+03  0.22580293759E+03 -0.37771175818E+03  0.63808680740E+03  0.40000000000E+03 0.  1.
<mgrwt>
<rscale>  2 0.51428455E+03</rscale>
<asrwt>0</asrwt>
<pdfrwt beam="1">  1        2 0.16564795E+00 0.51428455E+03</pdfrwt>
<pdfrwt beam="2">  1       -2 0.37912845E-01 0.51428455E+03</pdfrwt>
<totfact> 0.15256201E+02</totfact>
</mgrwt>
</event>
<event>
 4    1  0.2247963E-002  0.4176559E+03  0.7818608E-02  0.1037832E+00
         -1   -1    0    0    0  501 -0.00000000000E+00  0.00000000000E+00  0.95141961331E+02  0.95141961331E+02  0.00000000000E+00 0.  1.
          1   -1    0    0  502    0  0.00000000000E+00 -0.00000000000E+00 -0.18436693081E+04  0.18436693081E+04  0.00000000000E+00 0. -1.
    9000007    1    1    2  502    0 -0.35338255837E+02  0.11483767261E+03 -0.94649401935E+03  0.10345469598E+04  0.40000000000E+03 0.  1.
   -9000007    1    1    2    0  501  0.35338255837E+02 -0.11483767261E+03 -0.80203332743E+03  0.90426430964E+03  0.40000000000E+03 0.  1.
<mgrwt>
<rscale>  2 0.41765594E+03</rscale>
<asrwt>0</asrwt>
<pdfrwt beam="1">  1        1 0.28364141E+00 0.41765594E+03</pdfrwt>
<pdfrwt beam="2">  1       -1 0.14637226E-01 0.41765594E+03</pdfrwt>
<totfact> 0.13907023E+02</totfact>
</mgrwt>
</event>
<event>
 4    1  0.2247963E-002  0.5266718E+03  0.7818608E-02  0.1007042E+00
          2   -1    0    0  502    0  0.00000000000E+00  0.00000000000E+00  0.16317994792E+04  0.16317994792E+04  0.00000000000E+00 0.  1.
         -2   -1    0    0    0  501 -0.00000000000E+00 -0.00000000000E+00 -0.17402568143E+03  0.17402568143E+03  0.00000000000E+00 0. -1.
    9000007    1    1    2  502    0  0.16587533709E+03  0.29978086916E+03  0.86645200458E+03  0.10139636449E+04  0.40000000000E+03 0. -1.
   -9000007    1    1    2    0  501 -0.16587533709E+03 -0.29978086916E+03  0.59132179316E+03  0.79186151569E+03  0.40000000000E+03 0. -1.
<mgrwt>
<rscale>  2 0.52667181E+03</rscale>
<asrwt>0</asrwt>
<pdfrwt beam="1">  1        2 0.25104606E+00 0.52667181E+03</pdfrwt>
<pdfrwt beam="2">  1       -2 0.26773183E-01 0.52667181E+03</pdfrwt>
<totfact> 0.14114350E+02</totfact>
</mgrwt>
</event>
<event>
 4    1  0.2247963E-002  0.4030280E+03  0.7818608E-02  0.1042736E+00
          2   -1    0    0  502    0  0.00000000000E+00  0.00000000000E+00  0.95271947174E+03  0.95271947174E+03  0.00000000000E+00 0. -1.
         -2   -1    0    0    0  501 -0.00000000000E+00 -0.00000000000E+00 -0.24066893899E+03  0.24066893899E+03  0.00000000000E+00 0.  1.
    9000007    1    1    2  502    0  0.29107432421E+02  0.39803544591E+02  0.33816515455E+02  0.40444421309E+03  0.40000000000E+03 0.  1.
   -9000007    1    1    2    0  501 -0.29107432421E+02 -0.39803544591E+02  0.67823401730E+03  0.78894419765E+03  0.40000000000E+03 0. -1.
<mgrwt>
<rscale>  2 0.40302800E+03</rscale>
<asrwt>0</asrwt>
<pdfrwt beam="1">  1        2 0.14657222E+00 0.40302800E+03</pdfrwt>
<pdfrwt beam="2">  1       -2 0.37025991E-01 0.40302800E+03</pdfrwt>
<totfact> 0.19287572E+02</totfact>
</mgrwt>
</event>
<event>
 4    1  0.2247963E-002  0.4053988E+03  0.7818608E-02  0.1041926E+00
          1   -1    0    0  502    0  0.00000000000E+00  0.00000000000E+00  0.64045585532E+03  0.64045585532E+03  0.00000000000E+00 0.  1.
         -1   -1    0    0    0  501 -0.00000000000E+00 -0.00000000000E+00 -0.31012254224E+03  0.31012254224E+03  0.00000000000E+00 0. -1.
    9000007    1    1    2  502    0  0.60207217496E+02  0.26894160256E+02 -0.32263651719E+02  0.40668064635E+03  0.40000000000E+03 0. -1.
   -9000007    1    1    2    0  501 -0.60207217496E+02 -0.26894160256E+02  0.36259696480E+03  0.54389775122E+03  0.40000000000E+03 0.  1.
<mgrwt>
<rscale>  2 0.40539882E+03</rscale>
<asrwt>0</asrwt>
<pdfrwt beam="1">  1        1 0.98531670E-01 0.40539882E+03</pdfrwt>
<pdfrwt beam="2">  1       -1 0.47711160E-01 0.40539882E+03</pdfrwt>
<totfact> 0.14277867E+02</totfact>
</mgrwt>
</event>
<event>
 4    1  0.2247963E-002  0.5393007E+03  0.7818608E-02  0.1004001E+00
         -1   -1    0    0    0  501 -0.00000000000E+00  0.00000000000E+00  0.10479407955E+03  0.10479407955E+03  0.00000000000E+00 0. -1.
          1   -1    0    0  502    0  0.00000000000E+00 -0.00000000000E+00 -0.31154000971E+04  0.31154000971E+04  0.00000000000E+00 0.  1.
    9000007    1    1    2  502    0  0.75007642945E+02 -0.35386308036E+03 -0.97339531923E+03  0.11128089116E+04  0.40000000000E+03 0. -1.
   -9000007    1    1    2    0  501 -0.75007642945E+02  0.35386308036E+03 -0.20372106983E+04  0.21073852650E+04  0.40000000000E+03 0. -1.
<mgrwt>
<rscale>  2 0.53930068E+03</rscale>
<asrwt>0</asrwt>
<pdfrwt beam="1">  1        1 0.47929231E+00 0.53930068E+03</pdfrwt>
<pdfrwt beam="2">  1       -1 0.16122167E-01 0.53930068E+03</pdfrwt>
<totfact> 0.15880682E+01</totfact>
</mgrwt>
</event>
<event>
 4    1  0.2247963E-002  0.5254659E+03  0.7818608E-02  0.1007338E+00
         -2   -1    0    0    0  501 -0.00000000000E+00  0.00000000000E+00  0.16313445948E+03  0.16313445948E+03  0.00000000000E+00 0.  1.
          2   -1    0    0  502    0  0.00000000000E+00 -0.00000000000E+00 -0.18566795867E+04  0.18566795867E+04  0.00000000000E+00 0. -1.
    9000007    1    1    2  502    0 -0.32103587855E+03 -0.11423810504E+03 -0.11470322438E+04  0.12616645149E+04  0.40000000000E+03 0.  1.
   -9000007    1    1    2    0  501  0.32103587855E+03  0.11423810504E+03 -0.54651288340E+03  0.75814953122E+03  0.40000000000E+03 0.  1.
<mgrwt>
<rscale>  2 0.52546587E+03</rscale>
<asrwt>0</asrwt>
<pdfrwt beam="1">  1        2 0.28564299E+00 0.52546587E+03</pdfrwt>
<pdfrwt beam="2">  1       -2 0.25097611E-01 0.52546587E+03</pdfrwt>
<totfact> 0.11992334E+02</totfact>
</mgrwt>
</event>
<event>
 4    1  0.2247963E-002  0.4428834E+03  0.7818608E-02  0.1029866E+00
          2   -1    0    0  502    0  0.00000000000E+00  0.00000000000E+00  0.83800813381E+03  0.83800813381E+03  0.00000000000E+00 0.  1.
         -2   -1    0    0    0  501 -0.00000000000E+00 -0.00000000000E+00 -0.23712502399E+03  0.23712502399E+03  0.00000000000E+00 0. -1.
    9000007    1    1    2  502    0  0.97319802135E+02 -0.16332355562E+03  0.23934314031E+03  0.50341917576E+03  0.40000000000E+03 0.  1.
   -9000007    1    1    2    0  501 -0.97319802135E+02  0.16332355562E+03  0.36153996950E+03  0.57171398204E+03  0.40000000000E+03 0.  1.
<mgrwt>
<rscale>  2 0.44288342E+03</rscale>
<asrwt>0</asrwt>
<pdfrwt beam="1">  1        2 0.12892433E+00 0.44288342E+03</pdfrwt>
<pdfrwt beam="2">  1       -2 0.36480773E-01 0.44288342E+03</pdfrwt>
<totfact> 0.23544707E+02</totfact>
</mgrwt>
</event>
<event>
 4    1  0.2247963E-002  0.4776054E+03  0.7818608E-02  0.1019795E+00
          1   -1    0    0  502    0  0.00000000000E+00  0.00000000000E+00  0.63948614233E+03  0.63948614233E+03  0.00000000000E+00 0. -1.
         -1   -1    0    0    0  501 -0.00000000000E+00 -0.00000000000E+00 -0.39087387105E+03  0.39087387105E+03  0.00000000000E+00 0.  1.
    9000007    1    1    2  502    0 -0.20359961414E+03 -0.16326087644E+03 -0.28016978945E+02  0.47842644969E+03  0.40000000000E+03 0. -1.
   -9000007    1    1    2    0  501  0.20359961414E+03  0.16326087644E+03  0.27662925022E+03  0.55193356369E+03  0.40000000000E+03 0.  1.
<mgrwt>
<rscale>  2 0.47760540E+03</rscale>
<asrwt>0</asrwt>
<pdfrwt beam="1">  1        1 0.98382483E-01 0.47760540E+03</pdfrwt>
<pdfrwt beam="2">  1       -1 0.60134442E-01 0.47760540E+03</pdfrwt>
<totfact> 0.91380943E+01</totfact>
</mgrwt>
</event>
<event>
 4    1  0.2247963E-002  0.4457912E+03  0.7818608E-02  0.1028985E+00
          2   -1    0    0  502    0  0.00000000000E+00  0.00000000000E+00  0.92915575080E+03  0.92915575080E+03  0.00000000000E+00 0.  1.
         -2   -1    0    0    0  501 -0.00000000000E+00 -0.00000000000E+00 -0.27381200693E+03  0.27381200693E+03  0.00000000000E+00 0. -1.
    9000007    1    1    2  502    0  0.87705218557E+02  0.17617496875E+03  0.46274921699E+02  0.44818656088E+03  0.40000000000E+03 0. -1.
   -9000007    1    1    2    0  501 -0.87705218557E+02 -0.17617496875E+03  0.60906882217E+03  0.75478119685E+03  0.40000000000E+03 0.  1.
<mgrwt>
<rscale>  2 0.44579123E+03</rscale>
<asrwt>0</asrwt>
<pdfrwt beam="1">  1        2 0.14294704E+00 0.44579123E+03</pdfrwt>
<pdfrwt beam="2">  1       -2 0.42124925E-01 0.44579123E+03</pdfrwt>
<totfact> 0.15506544E+02</totfact>
</mgrwt>
</event>
<event>
 4    1  0.2247963E-002  0.6236168E+03  0.7818608E-02  0.9857585E-01
         -1   -1    0    0    0  501 -0.00000000000E+00  0.00000000000E+00  0.37270353757E+03  0.37270353757E+03  0.00000000000E+00 0. -1.
          1   -1    0    0  502    0  0.00000000000E+00 -0.00000000000E+00 -0.12581631593E+04  0.12581631593E+04  0.00000000000E+00 0.  1.
    9000007    1    1    2  502    0 -0.13910059064E+03  0.45776515797E+03 -0.77958885404E+03  0.99832694820E+03  0.40000000000E+03 0.  1.
   -9000007    1    1    2    0  501  0.13910059064E+03 -0.45776515797E+03 -0.10587076766E+03  0.63253974864E+03  0.40000000000E+03 0. -1.
<mgrwt>
<rscale>  2 0.62361680E+03</rscale>
<asrwt>0</asrwt>
<pdfrwt beam="1">  1        1 0.19356356E+00 0.62361680E+03</pdfrwt>
<pdfrwt beam="2">  1       -1 0.57339006E-01 0.62361680E+03</pdfrwt>
<totfact> 0.31233584E+01</totfact>
</mgrwt>
</event>
<event>
 4    1  0.2247963E-002  0.5140153E+03  0.7818608E-02  0.1010184E+00
          1   -1    0    0  502    0  0.00000000000E+00  0.00000000000E+00  0.31906356859E+03  0.31906356859E+03  0.00000000000E+00 0.  1.
         -1   -1    0    0    0  501 -0.00000000000E+00 -0.00000000000E+00 -0.10483427951E+04  0.10483427951E+04  0.00000000000E+00 0. -1.
    9000007    1    1    2  502    0  0.10405489699E+03  0.30558848626E+03 -0.51252149032E+02  0.51656415604E+03  0.40000000000E+03 0.  1.
   -9000007    1    1    2    0  501 -0.10405489699E+03 -0.30558848626E+03 -0.67802707749E+03  0.85084220765E+03  0.40000000000E+03 0. -1.
<mgrwt>
<rscale>  2 0.51401532E+03</rscale>
<asrwt>0</asrwt>
<pdfrwt beam="1">  1        1 0.49086703E-01 0.51401532E+03</pdfrwt>
<pdfrwt beam="2">  1       -1 0.16128351E+00 0.51401532E+03</pdfrwt>
<totfact> 0.24348717E+01</totfact>
</mgrwt>
</event>
<event>
 4    1  0.2247963E-002  0.4719251E+03  0.7818608E-02  0.1021378E+00
         -1   -1    0    0    0  501 -0.00000000000E+00  0.00000000000E+00  0.44576816343E+03  0.44576816343E+03  0.00000000000E+00 0. -1.
          1   -1    0    0  502    0  0.00000000000E+00 -0.00000000000E+00 -0.52592686417E+03  0.52592686417E+03  0.00000000000E+00 0.  1.
    9000007    1    1    2  502    0  0.91621929915E+02  0.23306372890E+03 -0.14874642025E+03  0.49481186052E+03  0.40000000000E+03 0.  1.
   -9000007    1    1    2    0  501 -0.91621929915E+02 -0.23306372890E+03  0.68587719514E+02  0.47688316708E+03  0.40000000000E+03 0. -1.
<mgrwt>
<rscale>  2 0.47192508E+03</rscale>
<asrwt>0</asrwt>
<pdfrwt beam="1">  1        1 0.80911826E-01 0.47192508E+03</pdfrwt>
<pdfrwt beam="2">  1       -1 0.68579717E-01 0.47192508E+03</pdfrwt>
<totfact> 0.92749602E+01</totfact>
</mgrwt>
</event>
<event>
 4    1  0.2247963E-002  0.6658721E+03  0.7818608E-02  0.9777444E-01
          1   -1    0    0  502    0  0.00000000000E+00  0.00000000000E+00  0.71798567862E+03  0.71798567862E+03  0.00000000000E+00 0.  1.
         -1   -1    0    0    0  501 -0.00000000000E+00 -0.00000000000E+00 -0.62259354214E+03  0.62259354214E+03  0.00000000000E+00 0. -1.
    9000007    1    1    2  502    0 -0.34575407117E+03 -0.40477121294E+03 -0.12686842039E+02  0.66599291927E+03  0.40000000000E+03 0. -1.
   -9000007    1    1    2    0  501  0.34575407117E+03  0.40477121294E+03  0.10807897852E+03  0.67458630149E+03  0.40000000000E+03 0. -1.
<mgrwt>
<rscale>  2 0.66587207E+03</rscale>
<asrwt>0</asrwt>
<pdfrwt beam="1">  1        1 0.11045933E+00 0.66587207E+03</pdfrwt>
<pdfrwt beam="2">  1       -1 0.95783623E-01 0.66587207E+03</pdfrwt>
<totfact> 0.28508935E+01</totfact>
</mgrwt>
</event>
<event>
 4    1  0.2247963E-002  0.4063156E+03  0.7818608E-02  0.1041614E+00
          2   -1    0    0  502    0  0.00000000000E+00  0.00000000000E+00  0.29379628029E+04  0.29379628029E+04  0.00000000000E+00 0. -1.
         -2   -1    0    0    0  501 -0.00000000000E+00 -0.00000000000E+00 -0.62722985881E+02  0.62722985881E+02  0.00000000000E+00 0.  1.
    9000007    1    1    2  502    0 -0.69966555615E+02 -0.14036397701E+02  0.19217255301E+04  0.19642101090E+04  0.40000000000E+03 0. -1.
   -9000007    1    1    2    0  501  0.69966555615E+02  0.14036397701E+02  0.95351428692E+03  0.10364756798E+04  0.40000000000E+03 0.  1.
<mgrwt>
<rscale>  2 0.40631557E+03</rscale>
<asrwt>0</asrwt>
<pdfrwt beam="1">  1        2 0.45199417E+00 0.40631557E+03</pdfrwt>
<pdfrwt beam="2">  1       -2 0.96496924E-02 0.40631557E+03</pdfrwt>
<totfact> 0.15390865E+02</totfact>
</mgrwt>
</event>
<event>
 4    1  0.2247963E-002  0.4487414E+03  0.7818608E-02  0.1028098E+00
          2   -1    0    0  502    0  0.00000000000E+00  0.00000000000E+00  0.13814497189E+04  0.13814497189E+04  0.00000000000E+00 0.  1.
         -2   -1    0    0    0  501 -0.00000000000E+00 -0.00000000000E+00 -0.22768113329E+03  0.22768113329E+03  0.00000000000E+00 0. -1.
    9000007    1    1    2  502    0 -0.44640354616E+02 -0.19843402857E+03  0.10594751602E+04  0.11505896054E+04  0.40000000000E+03 0.  1.
   -9000007    1    1    2    0  501  0.44640354616E+02  0.19843402857E+03  0.94293425436E+02  0.45854124682E+03  0.40000000000E+03 0. -1.
<mgrwt>
<rscale>  2 0.44874138E+03</rscale>
<asrwt>0</asrwt>
<pdfrwt beam="1">  1        2 0.21253072E+00 0.44874138E+03</pdfrwt>
<pdfrwt beam="2">  1       -2 0.35027868E-01 0.44874138E+03</pdfrwt>
<totfact> 0.11901578E+02</totfact>
</mgrwt>
</event>
<event>
 4    1  0.2247963E-002  0.4032624E+03  0.7818608E-02  0.1042656E+00
          1   -1    0    0  502    0  0.00000000000E+00  0.00000000000E+00  0.18451063047E+04  0.18451063047E+04  0.00000000000E+00 0.  1.
         -1   -1    0    0    0  501 -0.00000000000E+00 -0.00000000000E+00 -0.11615585940E+03  0.11615585940E+03  0.00000000000E+00 0. -1.
    9000007    1    1    2  502    0  0.47048945235E+02  0.20172852257E+02  0.13461090544E+04  0.14052153335E+04  0.40000000000E+03 0.  1.
   -9000007    1    1    2    0  501 -0.47048945235E+02 -0.20172852257E+02  0.38284139089E+03  0.55604683058E+03  0.40000000000E+03 0. -1.
<mgrwt>
<rscale>  2 0.40326238E+03</rscale>
<asrwt>0</asrwt>
<pdfrwt beam="1">  1        1 0.28386249E+00 0.40326238E+03</pdfrwt>
<pdfrwt beam="2">  1       -1 0.17870134E-01 0.40326238E+03</pdfrwt>
<totfact> 0.10074400E+02</totfact>
</mgrwt>
</event>
<event>
 4    1  0.2247963E-002  0.4026041E+03  0.7818608E-02  0.1042882E+00
         -1   -1    0    0    0  501 -0.00000000000E+00  0.00000000000E+00  0.11819133307E+03  0.11819133307E+03  0.00000000000E+00 0. -1.
          1   -1    0    0  502    0  0.00000000000E+00 -0.00000000000E+00 -0.13757175109E+04  0.13757175109E+04  0.00000000000E+00 0.  1.
    9000007    1    1    2  502    0  0.24426673898E+02 -0.38644550562E+02 -0.58701921236E+03  0.71181572009E+03  0.40000000000E+03 0.  1.
   -9000007    1    1    2    0  501 -0.24426673898E+02  0.38644550562E+02 -0.67050696546E+03  0.78209312388E+03  0.40000000000E+03 0.  1.
<mgrwt>
<rscale>  2 0.40260410E+03</rscale>
<asrwt>0</asrwt>
<pdfrwt beam="1">  1        1 0.21164885E+00 0.40260410E+03</pdfrwt>
<pdfrwt beam="2">  1       -1 0.18183282E-01 0.40260410E+03</pdfrwt>
<totfact> 0.20143445E+02</totfact>
</mgrwt>
</event>
<event>
 4    1  0.2247963E-002  0.4103343E+03  0.7818608E-02  0.1040259E+00
          1   -1    0    0  502    0  0.00000000000E+00  0.00000000000E+00  0.10313383551E+04  0.10313383551E+04  0.00000000000E+00 0. -1.
         -1   -1    0    0    0  501 -0.00000000000E+00 -0.00000000000E+00 -0.16618890231E+03  0.16618890231E+03  0.00000000000E+00 0.  1.
    9000007    1    1    2  502    0 -0.24851490032E+02  0.88071676871E+02  0.35305835820E+03  0.54131730170E+03  0.40000000000E+03 0.  1.
   -9000007    1    1    2    0  501  0.24851490032E+02 -0.88071676871E+02  0.51209109462E+03  0.65620995574E+03  0.40000000000E+03 0. -1.
<mgrwt>
<rscale>  2 0.41033427E+03</rscale>
<asrwt>0</asrwt>
<pdfrwt beam="1">  1        1 0.15866744E+00 0.41033427E+03</pdfrwt>
<pdfrwt beam="2">  1       -1 0.25567524E-01 0.41033427E+03</pdfrwt>
<totfact> 0.20114996E+02</totfact>
</mgrwt>
</event>
<event>
 4    1  0.2247963E-002  0.8761359E+03  0.7818608E-02  0.9455914E-01
         -2   -1    0    0    0  501 -0.00000000000E+00  0.00000000000E+00  0.11838651495E+04  0.11838651495E+04  0.00000000000E+00 0.  1.
          2   -1    0    0  502    0  0.00000000000E+00 -0.00000000000E+00 -0.82872472267E+03  0.82872472267E+03  0.00000000000E+00 0. -1.
    9000007    1    1    2  502    0  0.23825980930E+03 -0.74219019994E+03  0.64697982783E+03  0.10891266810E+04  0.40000000000E+03 0.  1.
   -9000007    1    1    2    0  501 -0.23825980930E+03  0.74219019994E+03 -0.29183940095E+03  0.92346319123E+03  0.40000000000E+03 0. -1.
<mgrwt>
<rscale>  2 0.87613585E+03</rscale>
<asrwt>0</asrwt>
<pdfrwt beam="1">  1        2 0.12749611E+00 0.87613585E+03</pdfrwt>
<pdfrwt beam="2">  1       -2 0.18213310E+00 0.87613585E+03</pdfrwt>
<totfact> 0.57848517E+00</totfact>
</mgrwt>
</event>
<event>
 4    1  0.2247963E-002  0.4718785E+03  0.7818608E-02  0.1021391E+00
         -2   -1    0    0    0  501 -0.00000000000E+00  0.00000000000E+00  0.19943532546E+03  0.19943532546E+03  0.00000000000E+00 0.  1.
          2   -1    0    0  502    0  0.00000000000E+00 -0.00000000000E+00 -0.11677972431E+04  0.11677972431E+04  0.00000000000E+00 0. -1.
    9000007    1    1    2  502    0 -0.88565756925E+02 -0.23414829117E+03 -0.62745927590E+03  0.78509519071E+03  0.40000000000E+03 0. -1.
   -9000007    1    1    2    0  501  0.88565756925E+02  0.23414829117E+03 -0.34090264175E+03  0.58213737787E+03  0.40000000000E+03 0.  1.
<mgrwt>
<rscale>  2 0.47187850E+03</rscale>
<asrwt>0</asrwt>
<pdfrwt beam="1">  1        2 0.17966112E+00 0.47187850E+03</pdfrwt>
<pdfrwt beam="2">  1       -2 0.30682358E-01 0.47187850E+03</pdfrwt>
<totfact> 0.20130721E+02</totfact>
</mgrwt>
</event>
<event>
 4    1  0.2247963E-002  0.5420416E+03  0.7818608E-02  0.1003353E+00
          1   -1    0    0  502    0  0.00000000000E+00  0.00000000000E+00  0.22967005021E+04  0.22967005021E+04  0.00000000000E+00 0. -1.
         -1   -1    0    0    0  501 -0.00000000000E+00 -0.00000000000E+00 -0.13536552016E+03  0.13536552016E+03  0.00000000000E+00 0.  1.
    9000007    1    1    2  502    0 -0.11285501200E+03  0.34795526058E+03  0.79560117989E+03  0.96269951415E+03  0.40000000000E+03 0.  1.
   -9000007    1    1    2    0  501  0.11285501200E+03 -0.34795526058E+03  0.13657338020E+04  0.14693665081E+04  0.40000000000E+03 0. -1.
<mgrwt>
<rscale>  2 0.54204162E+03</rscale>
<asrwt>0</asrwt>
<pdfrwt beam="1">  1        1 0.35333851E+00 0.54204162E+03</pdfrwt>
<pdfrwt beam="2">  1       -1 0.20825466E-01 0.54204162E+03</pdfrwt>
<totfact> 0.38369721E+01</totfact>
</mgrwt>
</event>
<event>
 4    1  0.2247963E-002  0.5306510E+03  0.7818608E-02  0.1006074E+00
          2   -1    0    0  502    0  0.00000000000E+00  0.00000000000E+00  0.18706829244E+04  0.18706829244E+04  0.00000000000E+00 0. -1.
         -2   -1    0    0    0  501 -0.00000000000E+00 -0.00000000000E+00 -0.15394932700E+03  0.15394932700E+03  0.00000000000E+00 0.  1.
    9000007    1    1    2  502    0 -0.28521343205E+03  0.20060851183E+03  0.10092753235E+04  0.11402750350E+04  0.40000000000E+03 0.  1.
   -9000007    1    1    2    0  501  0.28521343205E+03 -0.20060851183E+03  0.70745827381E+03  0.88435721630E+03  0.40000000000E+03 0.  1.
<mgrwt>
<rscale>  2 0.53065099E+03</rscale>
<asrwt>0</asrwt>
<pdfrwt beam="1">  1        2 0.28779736E+00 0.53065099E+03</pdfrwt>
<pdfrwt beam="2">  1       -2 0.23684513E-01 0.53065099E+03</pdfrwt>
<totfact> 0.13062644E+02</totfact>
</mgrwt>
</event>
<event>
 4    1  0.2247963E-002  0.4127029E+03  0.7818608E-02  0.1039468E+00
         -2   -1    0    0    0  501 -0.00000000000E+00  0.00000000000E+00  0.70743491954E+02  0.70743491954E+02  0.00000000000E+00 0. -1.
          2   -1    0    0  502    0  0.00000000000E+00 -0.00000000000E+00 -0.24173922331E+04  0.24173922331E+04  0.00000000000E+00 0.  1.
    9000007    1    1    2  502    0 -0.64539310533E+02  0.78475413529E+02 -0.10942412994E+04  0.11694818231E+04  0.40000000000E+03 0. -1.
   -9000007    1    1    2    0  501  0.64539310533E+02 -0.78475413529E+02 -0.12524074418E+04  0.13186539020E+04  0.40000000000E+03 0.  1.
<mgrwt>
<rscale>  2 0.41270294E+03</rscale>
<asrwt>0</asrwt>
<pdfrwt beam="1">  1        2 0.37190650E+00 0.41270294E+03</pdfrwt>
<pdfrwt beam="2">  1       -2 0.10883614E-01 0.41270294E+03</pdfrwt>
<totfact> 0.25080436E+02</totfact>
</mgrwt>
</event>
<event>
 4    1  0.2247963E-002  0.7477048E+03  0.7818608E-02  0.9638958E-01
          2   -1    0    0  502    0  0.00000000000E+00  0.00000000000E+00  0.88834643024E+03  0.88834643024E+03  0.00000000000E+00 0.  1.
         -2   -1    0    0    0  501 -0.00000000000E+00 -0.00000000000E+00 -0.62932947592E+03  0.62932947592E+03  0.00000000000E+00 0. -1.
    9000007    1    1    2  502    0  0.15581592429E+03  0.61219593934E+03  0.12915257520E+03  0.75877721242E+03  0.40000000000E+03 0.  1.
   -9000007    1    1    2    0  501 -0.15581592429E+03 -0.61219593934E+03  0.12986437912E+03  0.75889869375E+03  0.40000000000E+03 0. -1.
<mgrwt>
<rscale>  2 0.74770480E+03</rscale>
<asrwt>0</asrwt>
<pdfrwt beam="1">  1        2 0.13666868E+00 0.74770480E+03</pdfrwt>
<pdfrwt beam="2">  1       -2 0.96819920E-01 0.74770480E+03</pdfrwt>
<totfact> 0.27026838E+01</totfact>
</mgrwt>
</event>
<event>
 4    1  0.2247963E-002  0.4283608E+03  0.7818608E-02  0.1034379E+00
          1   -1    0    0  502    0  0.00000000000E+00  0.00000000000E+00  0.71138386343E+03  0.71138386343E+03  0.00000000000E+00 0. -1.
         -1   -1    0    0    0  501 -0.00000000000E+00 -0.00000000000E+00 -0.29297474716E+03  0.29297474716E+03  0.00000000000E+00 0.  1.
    9000007    1    1    2  502    0 -0.14681135286E+03  0.44038338265E+02  0.35542296069E+02  0.42983276210E+03  0.40000000000E+03 0.  1.
   -9000007    1    1    2    0  501  0.14681135286E+03 -0.44038338265E+02  0.38286682020E+03  0.57452584849E+03  0.40000000000E+03 0. -1.
<mgrwt>
<rscale>  2 0.42836077E+03</rscale>
<asrwt>0</asrwt>
<pdfrwt beam="1">  1        1 0.10944367E+00 0.42836077E+03</pdfrwt>
<pdfrwt beam="2">  1       -1 0.45073038E-01 0.42836077E+03</pdfrwt>
<totfact> 0.13557865E+02</totfact>
</mgrwt>
</event>
<event>
 4    1  0.2247963E-002  0.4914836E+03  0.7818608E-02  0.1016026E+00
         -1   -1    0    0    0  501 -0.00000000000E+00  0.00000000000E+00  0.56006679062E+03  0.56006679062E+03  0.00000000000E+00 0.  1.
          1   -1    0    0  502    0  0.00000000000E+00 -0.00000000000E+00 -0.56512032495E+03  0.56512032495E+03  0.00000000000E+00 0. -1.
    9000007    1    1    2  502    0 -0.14320817725E+02  0.28522097785E+03  0.27124420748E+03  0.56136397472E+03  0.40000000000E+03 0.  1.
   -9000007    1    1    2    0  501  0.14320817725E+02 -0.28522097785E+03 -0.27629774181E+03  0.56382314085E+03  0.40000000000E+03 0. -1.
<mgrwt>
<rscale>  2 0.49148356E+03</rscale>
<asrwt>0</asrwt>
<pdfrwt beam="1">  1        1 0.86941589E-01 0.49148356E+03</pdfrwt>
<pdfrwt beam="2">  1       -1 0.86164121E-01 0.49148356E+03</pdfrwt>
<totfact> 0.52076767E+01</totfact>
</mgrwt>
</event>
<event>
 4    1  0.2247963E-002  0.4492794E+03  0.7818608E-02  0.1027937E+00
         -2   -1    0    0    0  501 -0.00000000000E+00  0.00000000000E+00  0.17971525363E+03  0.17971525363E+03  0.00000000000E+00 0. -1.
          2   -1    0    0  502    0  0.00000000000E+00 -0.00000000000E+00 -0.11306597482E+04  0.11306597482E+04  0.00000000000E+00 0.  1.
    9000007    1    1    2  502    0  0.61035412339E+02  0.19526045992E+03 -0.52877401511E+03  0.69386881168E+03  0.40000000000E+03 0.  1.
   -9000007    1    1    2    0  501 -0.61035412339E+02 -0.19526045992E+03 -0.42217047949E+03  0.61650619017E+03  0.40000000000E+03 0. -1.
<mgrwt>
<rscale>  2 0.44927939E+03</rscale>
<asrwt>0</asrwt>
<pdfrwt beam="1">  1        2 0.17394765E+00 0.44927939E+03</pdfrwt>
<pdfrwt beam="2">  1       -2 0.27648501E-01 0.44927939E+03</pdfrwt>
<totfact> 0.25681952E+02</totfact>
</mgrwt>
</event>
<event>
 4    1  0.2247963E-002  0.4812806E+03  0.7818608E-02  0.1018784E+00
          4   -1    0    0  502    0  0.00000000000E+00  0.00000000000E+00  0.70802405769E+03  0.70802405769E+03  0.00000000000E+00 0. -1.
         -4   -1    0    0    0  501 -0.00000000000E+00 -0.00000000000E+00 -0.10272122899E+04  0.10272122899E+04  0.00000000000E+00 0.  1.
    9000007    1    1    2  502    0 -0.15637629728E+03  0.21720365463E+03  0.55665893240E+03  0.73586693155E+03  0.40000000000E+03 0. -1.
   -9000007    1    1    2    0  501  0.15637629728E+03 -0.21720365463E+03 -0.87584716459E+03  0.99936941601E+03  0.40000000000E+03 0.  1.
<mgrwt>
<rscale>  2 0.48128056E+03</rscale>
<asrwt>0</asrwt>
<pdfrwt beam="1">  1        4 0.10892678E+00 0.48128056E+03</pdfrwt>
<pdfrwt beam="2">  1       -4 0.15803266E+00 0.48128056E+03</pdfrwt>
<totfact> 0.34221993E-01</totfact>
</mgrwt>
</event>
<event>
 4    1  0.2247963E-002  0.4051369E+03  0.7818608E-02  0.1042015E+00
          2   -1    0    0  502    0  0.00000000000E+00  0.00000000000E+00  0.31836810021E+03  0.31836810021E+03  0.00000000000E+00 0. -1.
         -2   -1    0    0    0  501 -0.00000000000E+00 -0.00000000000E+00 -0.53147950299E+03  0.53147950299E+03  0.00000000000E+00 0.  1.
    9000007    1    1    2  502    0 -0.64125702359E+02  0.48777701935E+01 -0.32999975822E+02  0.40647865473E+03  0.40000000000E+03 0.  1.
   -9000007    1    1    2    0  501  0.64125702359E+02 -0.48777701935E+01 -0.18011142696E+03  0.44336894847E+03  0.40000000000E+03 0.  1.
<mgrwt>
<rscale>  2 0.40513689E+03</rscale>
<asrwt>0</asrwt>
<pdfrwt beam="1">  1        2 0.48979708E-01 0.40513689E+03</pdfrwt>
<pdfrwt beam="2">  1       -2 0.81766077E-01 0.40513689E+03</pdfrwt>
<totfact> 0.13884215E+02</totfact>
</mgrwt>
</event>
<event>
 4    1  0.2247963E-002  0.4602808E+03  0.7818608E-02  0.1024700E+00
         -1   -1    0    0    0  501 -0.00000000000E+00  0.00000000000E+00  0.14571115329E+03  0.14571115329E+03  0.00000000000E+00 0. -1.
          1   -1    0    0  502    0  0.00000000000E+00 -0.00000000000E+00 -0.15173992214E+04  0.15173992214E+04  0.00000000000E+00 0.  1.
    9000007    1    1    2  502    0  0.22772308210E+03 -0.76505338512E+00 -0.85587005682E+03  0.97178801268E+03  0.40000000000E+03 0.  1.
   -9000007    1    1    2    0  501 -0.22772308210E+03  0.76505338512E+00 -0.51581801128E+03  0.69132236199E+03  0.40000000000E+03 0. -1.
<mgrwt>
<rscale>  2 0.46028077E+03</rscale>
<asrwt>0</asrwt>
<pdfrwt beam="1">  1        1 0.23344606E+00 0.46028077E+03</pdfrwt>
<pdfrwt beam="2">  1       -1 0.22417098E-01 0.46028077E+03</pdfrwt>
<totfact> 0.11336102E+02</totfact>
</mgrwt>
</event>
<event>
 4    1  0.2247963E-002  0.4766263E+03  0.7818608E-02  0.1020066E+00
         -2   -1    0    0    0  501 -0.00000000000E+00  0.00000000000E+00  0.96113429853E+03  0.96113429853E+03  0.00000000000E+00 0. -1.
          2   -1    0    0  502    0  0.00000000000E+00 -0.00000000000E+00 -0.26087360783E+03  0.26087360783E+03  0.00000000000E+00 0.  1.
    9000007    1    1    2  502    0 -0.10815098340E+03  0.23553340549E+03  0.16282829077E+03  0.50367218762E+03  0.40000000000E+03 0. -1.
   -9000007    1    1    2    0  501  0.10815098340E+03 -0.23553340549E+03  0.53743239994E+03  0.71833571874E+03  0.40000000000E+03 0. -1.
<mgrwt>
<rscale>  2 0.47662629E+03</rscale>
<asrwt>0</asrwt>
<pdfrwt beam="1">  1        2 0.40134402E-01 0.47662629E+03</pdfrwt>
<pdfrwt beam="2">  1       -2 0.14786681E+00 0.47662629E+03</pdfrwt>
<totfact> 0.41227202E+01</totfact>
</mgrwt>
</event>
<event>
 4    1  0.2247963E-002  0.5469633E+03  0.7818608E-02  0.1002199E+00
          1   -1    0    0  502    0  0.00000000000E+00  0.00000000000E+00  0.87262820650E+03  0.87262820650E+03  0.00000000000E+00 0. -1.
         -1   -1    0    0    0  501 -0.00000000000E+00 -0.00000000000E+00 -0.36401924757E+03  0.36401924757E+03  0.00000000000E+00 0.  1.
    9000007    1    1    2  502    0  0.36692844451E+03  0.67322521220E+02  0.40346188596E+03  0.67966925683E+03  0.40000000000E+03 0.  1.
   -9000007    1    1    2    0  501 -0.36692844451E+03 -0.67322521220E+02  0.10514707296E+03  0.55697819724E+03  0.40000000000E+03 0. -1.
<mgrwt>
<rscale>  2 0.54696326E+03</rscale>
<asrwt>0</asrwt>
<pdfrwt beam="1">  1        1 0.13425049E+00 0.54696326E+03</pdfrwt>
<pdfrwt beam="2">  1       -1 0.56002962E-01 0.54696326E+03</pdfrwt>
<totfact> 0.64532354E+01</totfact>
</mgrwt>
</event>
<event>
 4    1  0.2247963E-002  0.4064202E+03  0.7818608E-02  0.1041579E+00
         -2   -1    0    0    0  501 -0.00000000000E+00  0.00000000000E+00  0.68508365162E+02  0.68508365162E+02  0.00000000000E+00 0.  1.
          2   -1    0    0  502    0  0.00000000000E+00 -0.00000000000E+00 -0.24444730385E+04  0.24444730385E+04  0.00000000000E+00 0. -1.
    9000007    1    1    2  502    0  0.14875721277E+02 -0.70399534620E+02 -0.10410686256E+04  0.11175872515E+04  0.40000000000E+03 0. -1.
   -9000007    1    1    2    0  501 -0.14875721277E+02  0.70399534620E+02 -0.13348960478E+04  0.13953941522E+04  0.40000000000E+03 0.  1.
<mgrwt>
<rscale>  2 0.40642020E+03</rscale>
<asrwt>0</asrwt>
<pdfrwt beam="1">  1        2 0.37607276E+00 0.40642020E+03</pdfrwt>
<pdfrwt beam="2">  1       -2 0.10539749E-01 0.40642020E+03</pdfrwt>
<totfact> 0.25553039E+02</totfact>
</mgrwt>
</event>
<event>
 4    1  0.2247963E-002  0.4941434E+03  0.7818608E-02  0.1015319E+00
         -2   -1    0    0    0  501 -0.00000000000E+00  0.00000000000E+00  0.30884201143E+03  0.30884201143E+03  0.00000000000E+00 0. -1.
          2   -1    0    0  502    0  0.00000000000E+00 -0.00000000000E+00 -0.89428450221E+03  0.89428450221E+03  0.00000000000E+00 0.  1.
    9000007    1    1    2  502    0  0.18418789167E+03  0.22417076076E+03 -0.87911112052E+02  0.50190245371E+03  0.40000000000E+03 0. -1.
   -9000007    1    1    2    0  501 -0.18418789167E+03 -0.22417076076E+03 -0.49753137872E+03  0.70122405993E+03  0.40000000000E+03 0.  1.
<mgrwt>
<rscale>  2 0.49414341E+03</rscale>
<asrwt>0</asrwt>
<pdfrwt beam="1">  1        2 0.13758223E+00 0.49414341E+03</pdfrwt>
<pdfrwt beam="2">  1       -2 0.47514155E-01 0.49414341E+03</pdfrwt>
<totfact> 0.12822990E+02</totfact>
</mgrwt>
</event>
<event>
 4    1  0.2247963E-002  0.6975846E+03  0.7818608E-02  0.9721372E-01
          2   -1    0    0  502    0  0.00000000000E+00  0.00000000000E+00  0.52736042189E+03  0.52736042189E+03  0.00000000000E+00 0.  1.
         -2   -1    0    0    0  501 -0.00000000000E+00 -0.00000000000E+00 -0.10020859231E+04  0.10020859231E+04  0.00000000000E+00 0. -1.
    9000007    1    1    2  502    0 -0.20124679554E+03 -0.53490562177E+03 -0.22196624030E+02  0.69793766701E+03  0.40000000000E+03 0.  1.
   -9000007    1    1    2    0  501  0.20124679554E+03  0.53490562177E+03 -0.45252887721E+03  0.83150867802E+03  0.40000000000E+03 0. -1.
<mgrwt>
<rscale>  2 0.69758462E+03</rscale>
<asrwt>0</asrwt>
<pdfrwt beam="1">  1        2 0.81132374E-01 0.69758462E+03</pdfrwt>
<pdfrwt beam="2">  1       -2 0.15416706E+00 0.69758462E+03</pdfrwt>
<totfact> 0.16424699E+01</totfact>
</mgrwt>
</event>
<event>
 4    1  0.2247963E-002  0.5781719E+03  0.7818608E-02  0.9951757E-01
          2   -1    0    0  502    0  0.00000000000E+00  0.00000000000E+00  0.32643780936E+04  0.32643780936E+04  0.00000000000E+00 0. -1.
         -2   -1    0    0    0  501 -0.00000000000E+00 -0.00000000000E+00 -0.11339818649E+03  0.11339818649E+03  0.00000000000E+00 0.  1.
    9000007    1    1    2  502    0 -0.22248893776E+03 -0.35324408370E+03  0.21013806650E+04  0.21794686071E+04  0.40000000000E+03 0. -1.
   -9000007    1    1    2    0  501  0.22248893776E+03  0.35324408370E+03  0.10495992421E+04  0.11983076730E+04  0.40000000000E+03 0.  1.
<mgrwt>
<rscale>  2 0.57817187E+03</rscale>
<asrwt>0</asrwt>
<pdfrwt beam="1">  1        2 0.50221194E+00 0.57817187E+03</pdfrwt>
<pdfrwt beam="2">  1       -2 0.17445877E-01 0.57817187E+03</pdfrwt>
<totfact> 0.35018114E+01</totfact>
</mgrwt>
</event>
<event>
 4    1  0.2247963E-002  0.5743302E+03  0.7818608E-02  0.9960142E-01
         -2   -1    0    0    0  501 -0.00000000000E+00  0.00000000000E+00  0.10604642667E+03  0.10604642667E+03  0.00000000000E+00 0.  1.
          2   -1    0    0  502    0  0.00000000000E+00 -0.00000000000E+00 -0.34059105972E+04  0.34059105972E+04  0.00000000000E+00 0. -1.
    9000007    1    1    2  502    0 -0.39372435899E+03  0.12180453503E+03 -0.11327650658E+04  0.12700440582E+04  0.40000000000E+03 0.  1.
   -9000007    1    1    2    0  501  0.39372435899E+03 -0.12180453503E+03 -0.21670991047E+04  0.22419129656E+04  0.40000000000E+03 0. -1.
<mgrwt>
<rscale>  2 0.57433023E+03</rscale>
<asrwt>0</asrwt>
<pdfrwt beam="1">  1        2 0.52398623E+00 0.57433023E+03</pdfrwt>
<pdfrwt beam="2">  1       -2 0.16314835E-01 0.57433023E+03</pdfrwt>
<totfact> 0.31780871E+01</totfact>
</mgrwt>
</event>
<event>
 4    1  0.2247963E-002  0.5438903E+03  0.7818608E-02  0.1002918E+00
         -3   -1    0    0    0  501 -0.00000000000E+00  0.00000000000E+00  0.92876907225E+03  0.92876907225E+03  0.00000000000E+00 0.  1.
          3   -1    0    0  502    0  0.00000000000E+00 -0.00000000000E+00 -0.33811633922E+03  0.33811633922E+03  0.00000000000E+00 0. -1.
    9000007    1    1    2  502    0 -0.31752827801E+03 -0.18706277688E+03  0.44788565610E+03  0.70456954999E+03  0.40000000000E+03 0. -1.
   -9000007    1    1    2    0  501  0.31752827801E+03  0.18706277688E+03  0.14276707693E+03  0.56231586149E+03  0.40000000000E+03 0.  1.
<mgrwt>
<rscale>  2 0.54389033E+03</rscale>
<asrwt>0</asrwt>
<pdfrwt beam="1">  1        3 0.52017899E-01 0.54389033E+03</pdfrwt>
<pdfrwt beam="2">  1       -3 0.14288755E+00 0.54389033E+03</pdfrwt>
<totfact> 0.35047650E+00</totfact>
</mgrwt>
</event>
<event>
 4    1  0.2247963E-002  0.5962679E+03  0.7818608E-02  0.9913179E-01
         -1   -1    0    0    0  501 -0.00000000000E+00  0.00000000000E+00  0.34639527856E+03  0.34639527856E+03  0.00000000000E+00 0. -1.
          1   -1    0    0  502    0  0.00000000000E+00 -0.00000000000E+00 -0.16305923325E+04  0.16305923325E+04  0.00000000000E+00 0.  1.
    9000007    1    1    2  502    0  0.36547770713E+03  0.24892046071E+03 -0.12438176329E+04  0.13793540713E+04  0.40000000000E+03 0.  1.
   -9000007    1    1    2    0  501 -0.36547770713E+03 -0.24892046071E+03 -0.40379421038E+02  0.59763353973E+03  0.40000000000E+03 0. -1.
<mgrwt>
<rscale>  2 0.59626785E+03</rscale>
<asrwt>0</asrwt>
<pdfrwt beam="1">  1        1 0.25086036E+00 0.59626785E+03</pdfrwt>
<pdfrwt beam="2">  1       -1 0.53291581E-01 0.59626785E+03</pdfrwt>
<totfact> 0.20030477E+01</totfact>
</mgrwt>
</event>
<event>
 4    1  0.2247963E-002  0.7870907E+03  0.7818608E-02  0.9578893E-01
         -2   -1    0    0    0  501 -0.00000000000E+00  0.00000000000E+00  0.62300396507E+03  0.62300396507E+03  0.00000000000E+00 0. -1.
          2   -1    0    0  502    0  0.00000000000E+00 -0.00000000000E+00 -0.10572450846E+04  0.10572450846E+04  0.00000000000E+00 0.  1.
    9000007    1    1    2  502    0  0.55787017261E+03 -0.38508778466E+03 -0.42195850134E+03  0.89306254442E+03  0.40000000000E+03 0. -1.
   -9000007    1    1    2    0  501 -0.55787017261E+03  0.38508778466E+03 -0.12282618205E+02  0.78718650528E+03  0.40000000000E+03 0.  1.
<mgrwt>
<rscale>  2 0.78709068E+03</rscale>
<asrwt>0</asrwt>
<pdfrwt beam="1">  1        2 0.16265309E+00 0.78709068E+03</pdfrwt>
<pdfrwt beam="2">  1       -2 0.95846765E-01 0.78709068E+03</pdfrwt>
<totfact> 0.21425674E+01</totfact>
</mgrwt>
</event>
<event>
 4    1  0.2247963E-002  0.5530937E+03  0.7818608E-02  0.1000780E+00
         -1   -1    0    0    0  501 -0.00000000000E+00  0.00000000000E+00  0.12577724958E+04  0.12577724958E+04  0.00000000000E+00 0. -1.
          1   -1    0    0  502    0  0.00000000000E+00 -0.00000000000E+00 -0.34494510890E+03  0.34494510890E+03  0.00000000000E+00 0.  1.
    9000007    1    1    2  502    0 -0.20359458343E+03 -0.32320568474E+03  0.21231840075E+02  0.55350109312E+03  0.40000000000E+03 0.  1.
   -9000007    1    1    2    0  501  0.20359458343E+03  0.32320568474E+03  0.89159554682E+03  0.10492165116E+04  0.40000000000E+03 0. -1.
<mgrwt>
<rscale>  2 0.55309373E+03</rscale>
<asrwt>0</asrwt>
<pdfrwt beam="1">  1        1 0.53068479E-01 0.55309373E+03</pdfrwt>
<pdfrwt beam="2">  1       -1 0.19350346E+00 0.55309373E+03</pdfrwt>
<totfact> 0.12886483E+01</totfact>
</mgrwt>
</event>
<event>
 4    1  0.2247963E-002  0.7702548E+03  0.7818608E-02  0.9604099E-01
         -1   -1    0    0    0  501 -0.00000000000E+00  0.00000000000E+00  0.14093282266E+04  0.14093282266E+04  0.00000000000E+00 0.  1.
          1   -1    0    0  502    0  0.00000000000E+00 -0.00000000000E+00 -0.42134614246E+03  0.42134614246E+03  0.00000000000E+00 0. -1.
    9000007    1    1    2  502    0 -0.41215631071E+03 -0.51324415612E+03  0.46683603136E+03  0.90068211286E+03  0.40000000000E+03 0. -1.
   -9000007    1    1    2    0  501  0.41215631071E+03  0.51324415612E+03  0.52114605276E+03  0.92999225618E+03  0.40000000000E+03 0.  1.
<mgrwt>
<rscale>  2 0.77025476E+03</rscale>
<asrwt>0</asrwt>
<pdfrwt beam="1">  1        1 0.64822484E-01 0.77025476E+03</pdfrwt>
<pdfrwt beam="2">  1       -1 0.21681973E+00 0.77025476E+03</pdfrwt>
<totfact> 0.66781022E+00</totfact>
</mgrwt>
</event>
<event>
 4    1  0.2247963E-002  0.4108582E+03  0.7818608E-02  0.1040083E+00
         -1   -1    0    0    0  501 -0.00000000000E+00  0.00000000000E+00  0.12065807231E+03  0.12065807231E+03  0.00000000000E+00 0. -1.
          1   -1    0    0  502    0  0.00000000000E+00 -0.00000000000E+00 -0.17022156749E+04  0.17022156749E+04  0.00000000000E+00 0.  1.
    9000007    1    1    2  502    0  0.90110827579E+02  0.26162530384E+02 -0.11754348748E+04  0.12451713071E+04  0.40000000000E+03 0.  1.
   -9000007    1    1    2    0  501 -0.90110827579E+02 -0.26162530384E+02 -0.40612272785E+03  0.57770244012E+03  0.40000000000E+03 0. -1.
<mgrwt>
<rscale>  2 0.41085817E+03</rscale>
<asrwt>0</asrwt>
<pdfrwt beam="1">  1        1 0.26187933E+00 0.41085817E+03</pdfrwt>
<pdfrwt beam="2">  1       -1 0.18562780E-01 0.41085817E+03</pdfrwt>
<totfact> 0.11746460E+02</totfact>
</mgrwt>
</event>
<event>
 4    1  0.2247963E-002  0.5373655E+03  0.7818608E-02  0.1004461E+00
          2   -1    0    0  502    0  0.00000000000E+00  0.00000000000E+00  0.31484360098E+04  0.31484360098E+04  0.00000000000E+00 0.  1.
         -2   -1    0    0    0  501 -0.00000000000E+00 -0.00000000000E+00 -0.12122145653E+03  0.12122145653E+03  0.00000000000E+00 0. -1.
    9000007    1    1    2  502    0 -0.93368364543E+02 -0.34647363607E+03  0.23201631209E+04  0.23815790014E+04  0.40000000000E+03 0.  1.
   -9000007    1    1    2    0  501  0.93368364543E+02  0.34647363607E+03  0.70705143235E+03  0.88807846499E+03  0.40000000000E+03 0. -1.
<mgrwt>
<rscale>  2 0.53736545E+03</rscale>
<asrwt>0</asrwt>
<pdfrwt beam="1">  1        2 0.48437471E+00 0.53736545E+03</pdfrwt>
<pdfrwt beam="2">  1       -2 0.18649457E-01 0.53736545E+03</pdfrwt>
<totfact> 0.37292001E+01</totfact>
</mgrwt>
</event>
<event>
 4    1  0.2247963E-002  0.5891936E+03  0.7818608E-02  0.9928083E-01
         -2   -1    0    0    0  501 -0.00000000000E+00  0.00000000000E+00  0.87272546185E+03  0.87272546185E+03  0.00000000000E+00 0. -1.
          2   -1    0    0  502    0  0.00000000000E+00 -0.00000000000E+00 -0.45587881770E+03  0.45587881770E+03  0.00000000000E+00 0.  1.
    9000007    1    1    2  502    0 -0.43059103313E+03 -0.41718350421E+02  0.44558271656E+03  0.73871037346E+03  0.40000000000E+03 0. -1.
   -9000007    1    1    2    0  501  0.43059103313E+03  0.41718350421E+02 -0.28736072408E+02  0.58989390608E+03  0.40000000000E+03 0.  1.
<mgrwt>
<rscale>  2 0.58919357E+03</rscale>
<asrwt>0</asrwt>
<pdfrwt beam="1">  1        2 0.70135203E-01 0.58919357E+03</pdfrwt>
<pdfrwt beam="2">  1       -2 0.13426545E+00 0.58919357E+03</pdfrwt>
<totfact> 0.28142943E+01</totfact>
</mgrwt>
</event>
<event>
 4    1  0.2247963E-002  0.4186830E+03  0.7818608E-02  0.1037496E+00
         -1   -1    0    0    0  501 -0.00000000000E+00  0.00000000000E+00  0.41005628965E+03  0.41005628965E+03  0.00000000000E+00 0.  1.
          1   -1    0    0  502    0  0.00000000000E+00 -0.00000000000E+00 -0.56520219447E+03  0.56520219447E+03  0.00000000000E+00 0. -1.
    9000007    1    1    2  502    0  0.41642741101E+02 -0.11645322632E+03 -0.31827072183E+03  0.52591988381E+03  0.40000000000E+03 0. -1.
   -9000007    1    1    2    0  501 -0.41642741101E+02  0.11645322632E+03  0.16312481702E+03  0.44933860032E+03  0.40000000000E+03 0.  1.
<mgrwt>
<rscale>  2 0.41868302E+03</rscale>
<asrwt>0</asrwt>
<pdfrwt beam="1">  1        1 0.86954184E-01 0.41868302E+03</pdfrwt>
<pdfrwt beam="2">  1       -1 0.63085583E-01 0.41868302E+03</pdfrwt>
<totfact> 0.99792903E+01</totfact>
</mgrwt>
</event>
<event>
 4    1  0.2247963E-002  0.4340302E+03  0.7818608E-02  0.1032594E+00
         -1   -1    0    0    0  501 -0.00000000000E+00  0.00000000000E+00  0.31489877100E+03  0.31489877100E+03  0.00000000000E+00 0. -1.
          1   -1    0    0  502    0  0.00000000000E+00 -0.00000000000E+00 -0.14266434572E+04  0.14266434572E+04  0.00000000000E+00 0.  1.
    9000007    1    1    2  502    0 -0.16278592865E+03 -0.43392848484E+02  0.10767147459E+03  0.44718602875E+03  0.40000000000E+03 0. -1.
   -9000007    1    1    2    0  501  0.16278592865E+03  0.43392848484E+02 -0.12194161608E+04  0.12943561994E+04  0.40000000000E+03 0.  1.
<mgrwt>
<rscale>  2 0.43403018E+03</rscale>
<asrwt>0</asrwt>
<pdfrwt beam="1">  1        1 0.21948361E+00 0.43403018E+03</pdfrwt>
<pdfrwt beam="2">  1       -1 0.48445964E-01 0.43403018E+03</pdfrwt>
<totfact> 0.33952205E+01</totfact>
</mgrwt>
</event>
<event>
 4    1  0.2247963E-002  0.4268007E+03  0.7818608E-02  0.1034875E+00
          1   -1    0    0  502    0  0.00000000000E+00  0.00000000000E+00  0.65202299367E+03  0.65202299367E+03  0.00000000000E+00 0.  1.
         -1   -1    0    0    0  501 -0.00000000000E+00 -0.00000000000E+00 -0.28000893359E+03  0.28000893359E+03  0.00000000000E+00 0. -1.
    9000007    1    1    2  502    0 -0.88152259206E+02  0.11994994249E+03  0.16383033641E+03  0.45716429064E+03  0.40000000000E+03 0.  1.
   -9000007    1    1    2    0  501  0.88152259206E+02 -0.11994994249E+03  0.20818372368E+03  0.47486763662E+03  0.40000000000E+03 0. -1.
<mgrwt>
<rscale>  2 0.42680067E+03</rscale>
<asrwt>0</asrwt>
<pdfrwt beam="1">  1        1 0.10031123E+00 0.42680067E+03</pdfrwt>
<pdfrwt beam="2">  1       -1 0.43078298E-01 0.42680067E+03</pdfrwt>
<totfact> 0.16748739E+02</totfact>
</mgrwt>
</event>
<event>
 4    1  0.2247963E-002  0.5951495E+03  0.7818608E-02  0.9915521E-01
         -2   -1    0    0    0  501 -0.00000000000E+00  0.00000000000E+00  0.28251718098E+03  0.28251718098E+03  0.00000000000E+00 0.  1.
          2   -1    0    0  502    0  0.00000000000E+00 -0.00000000000E+00 -0.12664259715E+04  0.12664259715E+04  0.00000000000E+00 0. -1.
    9000007    1    1    2  502    0  0.25797764283E+03 -0.35728203848E+03 -0.56946976483E+03  0.82371034489E+03  0.40000000000E+03 0.  1.
   -9000007    1    1    2    0  501 -0.25797764283E+03  0.35728203848E+03 -0.41443902574E+03  0.72523280764E+03  0.40000000000E+03 0.  1.
<mgrwt>
<rscale>  2 0.59514949E+03</rscale>
<asrwt>0</asrwt>
<pdfrwt beam="1">  1        2 0.19483476E+00 0.59514949E+03</pdfrwt>
<pdfrwt beam="2">  1       -2 0.43464182E-01 0.59514949E+03</pdfrwt>
<totfact> 0.89557660E+01</totfact>
</mgrwt>
</event>
<event>
 4    1  0.2247963E-002  0.4833083E+03  0.7818608E-02  0.1018230E+00
         -1   -1    0    0    0  501 -0.00000000000E+00  0.00000000000E+00  0.11705120811E+03  0.11705120811E+03  0.00000000000E+00 0. -1.
          1   -1    0    0  502    0  0.00000000000E+00 -0.00000000000E+00 -0.20805693410E+04  0.20805693410E+04  0.00000000000E+00 0.  1.
    9000007    1    1    2  502    0  0.27108630188E+03 -0.99552632926E+01 -0.75969736226E+03  0.90040378307E+03  0.40000000000E+03 0.  1.
   -9000007    1    1    2    0  501 -0.27108630188E+03  0.99552632926E+01 -0.12038207706E+04  0.12972167661E+04  0.40000000000E+03 0.  1.
<mgrwt>
<rscale>  2 0.48330828E+03</rscale>
<asrwt>0</asrwt>
<pdfrwt beam="1">  1        1 0.32008755E+00 0.48330828E+03</pdfrwt>
<pdfrwt beam="2">  1       -1 0.18007880E-01 0.48330828E+03</pdfrwt>
<totfact> 0.68600498E+01</totfact>
</mgrwt>
</event>
<event>
 4    1  0.2247963E-002  0.4178679E+03  0.7818608E-02  0.1037762E+00
         -2   -1    0    0    0  501 -0.00000000000E+00  0.00000000000E+00  0.50307675212E+03  0.50307675212E+03  0.00000000000E+00 0. -1.
          2   -1    0    0  502    0  0.00000000000E+00 -0.00000000000E+00 -0.35887108753E+03  0.35887108753E+03  0.00000000000E+00 0.  1.
    9000007    1    1    2  502    0 -0.60179281841E+02 -0.10484298747E+03  0.15018452754E+03  0.44403714968E+03  0.40000000000E+03 0. -1.
   -9000007    1    1    2    0  501  0.60179281841E+02  0.10484298747E+03 -0.59788629474E+01  0.41791068996E+03  0.40000000000E+03 0.  1.
<mgrwt>
<rscale>  2 0.41786792E+03</rscale>
<asrwt>0</asrwt>
<pdfrwt beam="1">  1        2 0.55210936E-01 0.41786792E+03</pdfrwt>
<pdfrwt beam="2">  1       -2 0.77396424E-01 0.41786792E+03</pdfrwt>
<totfact> 0.13744601E+02</totfact>
</mgrwt>
</event>
<event>
 4    1  0.2247963E-002  0.4276321E+03  0.7818608E-02  0.1034611E+00
          2   -1    0    0  502    0  0.00000000000E+00  0.00000000000E+00  0.31288488374E+03  0.31288488374E+03  0.00000000000E+00 0. -1.
         -2   -1    0    0    0  501 -0.00000000000E+00 -0.00000000000E+00 -0.66447149589E+03  0.66447149589E+03  0.00000000000E+00 0.  1.
    9000007    1    1    2  502    0 -0.14982773982E+03 -0.20515616652E+02 -0.34536613434E+03  0.54967900533E+03  0.40000000000E+03 0. -1.
   -9000007    1    1    2    0  501  0.14982773982E+03  0.20515616652E+02 -0.62204778079E+01  0.42767737430E+03  0.40000000000E+03 0.  1.
<mgrwt>
<rscale>  2 0.42763213E+03</rscale>
<asrwt>0</asrwt>
<pdfrwt beam="1">  1        2 0.48136136E-01 0.42763213E+03</pdfrwt>
<pdfrwt beam="2">  1       -2 0.10222638E+00 0.42763213E+03</pdfrwt>
<totfact> 0.84585949E+01</totfact>
</mgrwt>
</event>
<event>
 4    1  0.2247963E-002  0.7665626E+03  0.7818608E-02  0.9609719E-01
          2   -1    0    0  502    0  0.00000000000E+00  0.00000000000E+00  0.25938972125E+03  0.25938972125E+03  0.00000000000E+00 0. -1.
         -2   -1    0    0    0  501 -0.00000000000E+00 -0.00000000000E+00 -0.22655491653E+04  0.22655491653E+04  0.00000000000E+00 0.  1.
    9000007    1    1    2  502    0 -0.32234410122E+03 -0.56895732406E+03 -0.10137539266E+04  0.12709505026E+04  0.40000000000E+03 0. -1.
   -9000007    1    1    2    0  501  0.32234410122E+03  0.56895732406E+03 -0.99240551741E+03  0.12539883840E+04  0.40000000000E+03 0.  1.
<mgrwt>
<rscale>  2 0.76656256E+03</rscale>
<asrwt>0</asrwt>
<pdfrwt beam="1">  1        2 0.39906109E-01 0.76656256E+03</pdfrwt>
<pdfrwt beam="2">  1       -2 0.34854604E+00 0.76656256E+03</pdfrwt>
<totfact> 0.21517871E+00</totfact>
</mgrwt>
</event>
<event>
 4    1  0.2247963E-002  0.7105709E+03  0.7818608E-02  0.9699323E-01
          2   -1    0    0  502    0  0.00000000000E+00  0.00000000000E+00  0.90678209375E+03  0.90678209375E+03  0.00000000000E+00 0. -1.
         -2   -1    0    0    0  501 -0.00000000000E+00 -0.00000000000E+00 -0.57570803586E+03  0.57570803586E+03  0.00000000000E+00 0.  1.
    9000007    1    1    2  502    0 -0.42275792468E+03  0.40766007919E+03  0.31261398178E+02  0.71125823584E+03  0.40000000000E+03 0.  1.
   -9000007    1    1    2    0  501  0.42275792468E+03 -0.40766007919E+03  0.29981265971E+03  0.77123189377E+03  0.40000000000E+03 0. -1.
<mgrwt>
<rscale>  2 0.71057090E+03</rscale>
<asrwt>0</asrwt>
<pdfrwt beam="1">  1        2 0.13950494E+00 0.71057090E+03</pdfrwt>
<pdfrwt beam="2">  1       -2 0.88570467E-01 0.71057090E+03</pdfrwt>
<totfact> 0.32414327E+01</totfact>
</mgrwt>
</event>
<event>
 4    1  0.2247963E-002  0.8857643E+03  0.7818608E-02  0.9443554E-01
         -1   -1    0    0    0  501 -0.00000000000E+00  0.00000000000E+00  0.10803959354E+04  0.10803959354E+04  0.00000000000E+00 0.  1.
          1   -1    0    0  502    0  0.00000000000E+00 -0.00000000000E+00 -0.79087154498E+03  0.79087154498E+03  0.00000000000E+00 0. -1.
    9000007    1    1    2  502    0 -0.78591083929E+03 -0.83201829473E+02  0.41232484020E+03  0.97703130226E+03  0.40000000000E+03 0.  1.
   -9000007    1    1    2    0  501  0.78591083929E+03  0.83201829473E+02 -0.12280044981E+03  0.89423617810E+03  0.40000000000E+03 0. -1.
<mgrwt>
<rscale>  2 0.88576430E+03</rscale>
<asrwt>0</asrwt>
<pdfrwt beam="1">  1        1 0.12167255E+00 0.88576430E+03</pdfrwt>
<pdfrwt beam="2">  1       -1 0.16621476E+00 0.88576430E+03</pdfrwt>
<totfact> 0.60041002E+00</totfact>
</mgrwt>
</event>
<event>
 4    1  0.2247963E-002  0.4400958E+03  0.7818608E-02  0.1030717E+00
          2   -1    0    0  502    0  0.00000000000E+00  0.00000000000E+00  0.40202826018E+04  0.40202826018E+04  0.00000000000E+00 0. -1.
         -2   -1    0    0    0  501 -0.00000000000E+00 -0.00000000000E+00 -0.51011651839E+02  0.51011651839E+02  0.00000000000E+00 0.  1.
    9000007    1    1    2  502    0  0.10744650898E+03  0.14879360574E+03  0.15047538101E+04  0.15677909040E+04  0.40000000000E+03 0.  1.
   -9000007    1    1    2    0  501 -0.10744650898E+03 -0.14879360574E+03  0.24645171399E+04  0.25035033497E+04  0.40000000000E+03 0.  1.
<mgrwt>
<rscale>  2 0.44009577E+03</rscale>
<asrwt>0</asrwt>
<pdfrwt beam="1">  1        2 0.61850477E+00 0.44009577E+03</pdfrwt>
<pdfrwt beam="2">  1       -2 0.78479496E-02 0.44009577E+03</pdfrwt>
<totfact> 0.39492541E+01</totfact>
</mgrwt>
</event>
<event>
 4    1  0.2247963E-002  0.5054129E+03  0.7818608E-02  0.1012376E+00
          1   -1    0    0  502    0  0.00000000000E+00  0.00000000000E+00  0.17392415939E+04  0.17392415939E+04  0.00000000000E+00 0. -1.
         -1   -1    0    0    0  501 -0.00000000000E+00 -0.00000000000E+00 -0.20017693935E+03  0.20017693935E+03  0.00000000000E+00 0.  1.
    9000007    1    1    2  502    0 -0.18008937221E+03 -0.25101804654E+03  0.12699432704E+04  0.13668204534E+04  0.40000000000E+03 0.  1.
   -9000007    1    1    2    0  501  0.18008937221E+03  0.25101804654E+03  0.26912138411E+03  0.57259807986E+03  0.40000000000E+03 0.  1.
<mgrwt>
<rscale>  2 0.50541294E+03</rscale>
<asrwt>0</asrwt>
<pdfrwt beam="1">  1        1 0.26757562E+00 0.50541294E+03</pdfrwt>
<pdfrwt beam="2">  1       -1 0.30796453E-01 0.50541294E+03</pdfrwt>
<totfact> 0.46602039E+01</totfact>
</mgrwt>
</event>
<event>
 4    1  0.2247963E-002  0.4233747E+03  0.7818608E-02  0.1035974E+00
         -3   -1    0    0    0  501 -0.00000000000E+00  0.00000000000E+00  0.49789424822E+03  0.49789424822E+03  0.00000000000E+00 0.  1.
          3   -1    0    0  502    0  0.00000000000E+00 -0.00000000000E+00 -0.45216204356E+03  0.45216204356E+03  0.00000000000E+00 0. -1.
    9000007    1    1    2  502    0 -0.12773401692E+03  0.54131113534E+02  0.23731723008E+03  0.48535103196E+03  0.40000000000E+03 0.  1.
   -9000007    1    1    2    0  501  0.12773401692E+03 -0.54131113534E+02 -0.19158502542E+03  0.46470525981E+03  0.40000000000E+03 0. -1.
<mgrwt>
<rscale>  2 0.42337472E+03</rscale>
<asrwt>0</asrwt>
<pdfrwt beam="1">  1        3 0.69563391E-01 0.42337472E+03</pdfrwt>
<pdfrwt beam="2">  1       -3 0.76599115E-01 0.42337472E+03</pdfrwt>
<totfact> 0.82491984E+00</totfact>
</mgrwt>
</event>
<event>
 4    1  0.2247963E-002  0.4736775E+03  0.7818608E-02  0.1020887E+00
          1   -1    0    0  502    0  0.00000000000E+00  0.00000000000E+00  0.43244369922E+03  0.43244369922E+03  0.00000000000E+00 0.  1.
         -1   -1    0    0    0  501 -0.00000000000E+00 -0.00000000000E+00 -0.51994632117E+03  0.51994632117E+03  0.00000000000E+00 0. -1.
    9000007    1    1    2  502    0 -0.50436582464E+02 -0.24864939577E+03 -0.65687619916E+02  0.47821044978E+03  0.40000000000E+03 0. -1.
   -9000007    1    1    2    0  501  0.50436582464E+02  0.24864939577E+03 -0.21815002027E+02  0.47417957061E+03  0.40000000000E+03 0. -1.
<mgrwt>
<rscale>  2 0.47367750E+03</rscale>
<asrwt>0</asrwt>
<pdfrwt beam="1">  1        1 0.66529800E-01 0.47367750E+03</pdfrwt>
<pdfrwt beam="2">  1       -1 0.79991741E-01 0.47367750E+03</pdfrwt>
<totfact> 0.87892568E+01</totfact>
</mgrwt>
</event>
<event>
 4    1  0.2247963E-002  0.4494604E+03  0.7818608E-02  0.1027883E+00
         -2   -1    0    0    0  501 -0.00000000000E+00  0.00000000000E+00  0.61850261990E+03  0.61850261990E+03  0.00000000000E+00 0.  1.
          2   -1    0    0  502    0  0.00000000000E+00 -0.00000000000E+00 -0.32992866585E+03  0.32992866585E+03  0.00000000000E+00 0. -1.
    9000007    1    1    2  502    0 -0.20205035131E+03  0.34500363544E+02  0.96789862863E+02  0.45976395803E+03  0.40000000000E+03 0. -1.
   -9000007    1    1    2    0  501  0.20205035131E+03 -0.34500363544E+02  0.19178409120E+03  0.48866732772E+03  0.40000000000E+03 0.  1.
<mgrwt>
<rscale>  2 0.44946036E+03</rscale>
<asrwt>0</asrwt>
<pdfrwt beam="1">  1        2 0.50758256E-01 0.44946036E+03</pdfrwt>
<pdfrwt beam="2">  1       -2 0.95154249E-01 0.44946036E+03</pdfrwt>
<totfact> 0.94226890E+01</totfact>
</mgrwt>
</event>
<event>
 4    1  0.2247963E-002  0.4558176E+03  0.7818608E-02  0.1026001E+00
          2   -1    0    0  502    0  0.00000000000E+00  0.00000000000E+00  0.76914700406E+03  0.76914700406E+03  0.00000000000E+00 0. -1.
         -2   -1    0    0    0  501 -0.00000000000E+00 -0.00000000000E+00 -0.27736234566E+03  0.27736234566E+03  0.00000000000E+00 0.  1.
    9000007    1    1    2  502    0 -0.18064513526E+03  0.12303247712E+03  0.33038711809E+03  0.56296119149E+03  0.40000000000E+03 0. -1.
   -9000007    1    1    2    0  501  0.18064513526E+03 -0.12303247712E+03  0.16139754031E+03  0.48354815824E+03  0.40000000000E+03 0. -1.
<mgrwt>
<rscale>  2 0.45581757E+03</rscale>
<asrwt>0</asrwt>
<pdfrwt beam="1">  1        2 0.11833031E+00 0.45581757E+03</pdfrwt>
<pdfrwt beam="2">  1       -2 0.42671130E-01 0.45581757E+03</pdfrwt>
<totfact> 0.19439254E+02</totfact>
</mgrwt>
</event>
<event>
 4    1  0.2247963E-002  0.4496462E+03  0.7818608E-02  0.1027828E+00
         -2   -1    0    0    0  501 -0.00000000000E+00  0.00000000000E+00  0.16448451711E+04  0.16448451711E+04  0.00000000000E+00 0. -1.
          2   -1    0    0  502    0  0.00000000000E+00 -0.00000000000E+00 -0.12518782572E+03  0.12518782572E+03  0.00000000000E+00 0.  1.
    9000007    1    1    2  502    0 -0.19703167497E+03  0.57967255139E+02  0.87898891876E+03  0.98732122580E+03  0.40000000000E+03 0. -1.
   -9000007    1    1    2    0  501  0.19703167497E+03 -0.57967255139E+02  0.64066842659E+03  0.78271177098E+03  0.40000000000E+03 0. -1.
<mgrwt>
<rscale>  2 0.44964618E+03</rscale>
<asrwt>0</asrwt>
<pdfrwt beam="1">  1        2 0.19259667E-01 0.44964618E+03</pdfrwt>
<pdfrwt beam="2">  1       -2 0.25305309E+00 0.44964618E+03</pdfrwt>
<totfact> 0.19402648E+01</totfact>
</mgrwt>
</event>
<event>
 4    1  0.2247963E-002  0.4024626E+03  0.7818608E-02  0.1042930E+00
          1   -1    0    0  502    0  0.00000000000E+00  0.00000000000E+00  0.47190747266E+03  0.47190747266E+03  0.00000000000E+00 0. -1.
         -1   -1    0    0    0  501 -0.00000000000E+00 -0.00000000000E+00 -0.92501178510E+03  0.92501178510E+03  0.00000000000E+00 0.  1.
    9000007    1    1    2  502    0  0.12882693455E+02 -0.42546098500E+02 -0.78046967409E+03  0.87812814923E+03  0.40000000000E+03 0.  1.
   -9000007    1    1    2    0  501 -0.12882693455E+02  0.42546098500E+02  0.32736536165E+03  0.51879110854E+03  0.40000000000E+03 0. -1.
<mgrwt>
<rscale>  2 0.40246259E+03</rscale>
<asrwt>0</asrwt>
<pdfrwt beam="1">  1        1 0.72601150E-01 0.40246259E+03</pdfrwt>
<pdfrwt beam="2">  1       -1 0.14230951E+00 0.40246259E+03</pdfrwt>
<totfact> 0.20785831E+01</totfact>
</mgrwt>
</event>
<event>
 4    1  0.2247963E-002  0.6195414E+03  0.7818608E-02  0.9865673E-01
         -2   -1    0    0    0  501 -0.00000000000E+00  0.00000000000E+00  0.71407857997E+03  0.71407857997E+03  0.00000000000E+00 0.  1.
          2   -1    0    0  502    0  0.00000000000E+00 -0.00000000000E+00 -0.78176944579E+03  0.78176944579E+03  0.00000000000E+00 0. -1.
    9000007    1    1    2  502    0  0.47305695176E+03 -0.69768765588E+01  0.38421096727E+03  0.72900591478E+03  0.40000000000E+03 0.  1.
   -9000007    1    1    2    0  501 -0.47305695176E+03  0.69768765588E+01 -0.45190183309E+03  0.76684211098E+03  0.40000000000E+03 0. -1.
<mgrwt>
<rscale>  2 0.61954141E+03</rscale>
<asrwt>0</asrwt>
<pdfrwt beam="1">  1        2 0.12027222E+00 0.61954141E+03</pdfrwt>
<pdfrwt beam="2">  1       -2 0.10985824E+00 0.61954141E+03</pdfrwt>
<totfact> 0.24060648E+01</totfact>
</mgrwt>
</event>
<event>
 4    1  0.2247963E-002  0.5025355E+03  0.7818608E-02  0.1013119E+00
          2   -1    0    0  502    0  0.00000000000E+00  0.00000000000E+00  0.44846624346E+04  0.44846624346E+04  0.00000000000E+00 0. -1.
         -2   -1    0    0    0  501 -0.00000000000E+00 -0.00000000000E+00 -0.63830904144E+02  0.63830904144E+02  0.00000000000E+00 0.  1.
    9000007    1    1    2  502    0  0.59635242912E+02 -0.29830449741E+03  0.14298870545E+04  0.15156249285E+04  0.40000000000E+03 0.  1.
   -9000007    1    1    2    0  501 -0.59635242912E+02  0.29830449741E+03  0.29909444760E+04  0.30328684102E+04  0.40000000000E+03 0. -1.
<mgrwt>
<rscale>  2 0.50253551E+03</rscale>
<asrwt>0</asrwt>
<pdfrwt beam="1">  1        2 0.68994782E+00 0.50253551E+03</pdfrwt>
<pdfrwt beam="2">  1       -2 0.98201426E-02 0.50253551E+03</pdfrwt>
<totfact> 0.10856390E+01</totfact>
</mgrwt>
</event>
<event>
 4    1  0.2247963E-002  0.4077316E+03  0.7818608E-02  0.1041135E+00
         -2   -1    0    0    0  501 -0.00000000000E+00  0.00000000000E+00  0.19814542910E+03  0.19814542910E+03  0.00000000000E+00 0.  1.
          2   -1    0    0  502    0  0.00000000000E+00 -0.00000000000E+00 -0.85001597967E+03  0.85001597967E+03  0.00000000000E+00 0. -1.
    9000007    1    1    2  502    0 -0.78316333855E+02 -0.10564899984E+02 -0.38558269782E+03  0.56117651601E+03  0.40000000000E+03 0. -1.
   -9000007    1    1    2    0  501  0.78316333855E+02  0.10564899984E+02 -0.26628785275E+03  0.48698489277E+03  0.40000000000E+03 0.  1.
<mgrwt>
<rscale>  2 0.40773161E+03</rscale>
<asrwt>0</asrwt>
<pdfrwt beam="1">  1        2 0.13077169E+00 0.40773161E+03</pdfrwt>
<pdfrwt beam="2">  1       -2 0.30483912E-01 0.40773161E+03</pdfrwt>
<totfact> 0.32420557E+02</totfact>
</mgrwt>
</event>
<event>
 4    1  0.2247963E-002  0.4697675E+03  0.7818608E-02  0.1021986E+00
         -2   -1    0    0    0  501 -0.00000000000E+00  0.00000000000E+00  0.35388586078E+03  0.35388586078E+03  0.00000000000E+00 0.  1.
          2   -1    0    0  502    0  0.00000000000E+00 -0.00000000000E+00 -0.76122196672E+03  0.76122196672E+03  0.00000000000E+00 0. -1.
    9000007    1    1    2  502    0  0.19637206688E+03  0.14872641486E+03 -0.44074133770E+03  0.64415406689E+03  0.40000000000E+03 0. -1.
   -9000007    1    1    2    0  501 -0.19637206688E+03 -0.14872641486E+03  0.33405231766E+02  0.47095376061E+03  0.40000000000E+03 0.  1.
<mgrwt>
<rscale>  2 0.46976753E+03</rscale>
<asrwt>0</asrwt>
<pdfrwt beam="1">  1        2 0.11711107E+00 0.46976753E+03</pdfrwt>
<pdfrwt beam="2">  1       -2 0.54443979E-01 0.46976753E+03</pdfrwt>
<totfact> 0.12067623E+02</totfact>
</mgrwt>
</event>
<event>
 4    1  0.2247963E-002  0.4000704E+03  0.7818608E-02  0.1043755E+00
          2   -1    0    0  502    0  0.00000000000E+00  0.00000000000E+00  0.15889462562E+04  0.15889462562E+04  0.00000000000E+00 0.  1.
         -2   -1    0    0    0  501 -0.00000000000E+00 -0.00000000000E+00 -0.10145447348E+03  0.10145447348E+03  0.00000000000E+00 0. -1.
    9000007    1    1    2  502    0 -0.33943395543E+01  0.66949351300E+01  0.81511296828E+03  0.90800082310E+03  0.40000000000E+03 0.  1.
   -9000007    1    1    2    0  501  0.33943395543E+01 -0.66949351300E+01  0.67237881441E+03  0.78239990655E+03  0.40000000000E+03 0. -1.
<mgrwt>
<rscale>  2 0.40007042E+03</rscale>
<asrwt>0</asrwt>
<pdfrwt beam="1">  1        2 0.24445325E+00 0.40007042E+03</pdfrwt>
<pdfrwt beam="2">  1       -2 0.15608382E-01 0.40007042E+03</pdfrwt>
<totfact> 0.38693979E+02</totfact>
</mgrwt>
</event>
<event>
 4    1  0.2247963E-002  0.5211599E+03  0.7818608E-02  0.1008399E+00
         -1   -1    0    0    0  501 -0.00000000000E+00  0.00000000000E+00  0.28511411471E+03  0.28511411471E+03  0.00000000000E+00 0.  1.
          1   -1    0    0  502    0  0.00000000000E+00 -0.00000000000E+00 -0.10155157148E+04  0.10155157148E+04  0.00000000000E+00 0. -1.
    9000007    1    1    2  502    0 -0.21149203545E+03  0.25860929225E+03 -0.20336902298E+03  0.55943418434E+03  0.40000000000E+03 0.  1.
   -9000007    1    1    2    0  501  0.21149203545E+03 -0.25860929225E+03 -0.52703257713E+03  0.74119564519E+03  0.40000000000E+03 0. -1.
<mgrwt>
<rscale>  2 0.52115991E+03</rscale>
<asrwt>0</asrwt>
<pdfrwt beam="1">  1        1 0.15623319E+00 0.52115991E+03</pdfrwt>
<pdfrwt beam="2">  1       -1 0.43863709E-01 0.52115991E+03</pdfrwt>
<totfact> 0.79056640E+01</totfact>
</mgrwt>
</event>
<event>
 4    1  0.2247963E-002  0.5743525E+03  0.7818608E-02  0.9960093E-01
         -2   -1    0    0    0  501 -0.00000000000E+00  0.00000000000E+00  0.19494125899E+03  0.19494125899E+03  0.00000000000E+00 0. -1.
          2   -1    0    0  502    0  0.00000000000E+00 -0.00000000000E+00 -0.17888551591E+04  0.17888551591E+04  0.00000000000E+00 0.  1.
    9000007    1    1    2  502    0  0.11685081018E+03 -0.39525513938E+03 -0.10275142700E+04  0.11771432844E+04  0.40000000000E+03 0.  1.
   -9000007    1    1    2    0  501 -0.11685081018E+03  0.39525513938E+03 -0.56639963017E+03  0.80665313370E+03  0.40000000000E+03 0. -1.
<mgrwt>
<rscale>  2 0.57435245E+03</rscale>
<asrwt>0</asrwt>
<pdfrwt beam="1">  1        2 0.27520848E+00 0.57435245E+03</pdfrwt>
<pdfrwt beam="2">  1       -2 0.29990964E-01 0.57435245E+03</pdfrwt>
<totfact> 0.93704821E+01</totfact>
</mgrwt>
</event>
<event>
 4    1  0.2247963E-002  0.4905931E+03  0.7818608E-02  0.1016264E+00
         -2   -1    0    0    0  501 -0.00000000000E+00  0.00000000000E+00  0.19235179909E+03  0.19235179909E+03  0.00000000000E+00 0. -1.
          2   -1    0    0  502    0  0.00000000000E+00 -0.00000000000E+00 -0.14022744984E+04  0.14022744984E+04  0.00000000000E+00 0.  1.
    9000007    1    1    2  502    0  0.28334913201E+03  0.19871667042E+02 -0.86661419138E+03  0.99584224175E+03  0.40000000000E+03 0.  1.
   -9000007    1    1    2    0  501 -0.28334913201E+03 -0.19871667042E+02 -0.34330850790E+03  0.59878405570E+03  0.40000000000E+03 0.  1.
<mgrwt>
<rscale>  2 0.49059312E+03</rscale>
<asrwt>0</asrwt>
<pdfrwt beam="1">  1        2 0.21573454E+00 0.49059312E+03</pdfrwt>
<pdfrwt beam="2">  1       -2 0.29592584E-01 0.49059312E+03</pdfrwt>
<totfact> 0.15781069E+02</totfact>
</mgrwt>
</event>
<event>
 4    1  0.2247963E-002  0.5664831E+03  0.7818608E-02  0.9977491E-01
         -1   -1    0    0    0  501 -0.00000000000E+00  0.00000000000E+00  0.16017529127E+03  0.16017529127E+03  0.00000000000E+00 0.  1.
          1   -1    0    0  502    0  0.00000000000E+00 -0.00000000000E+00 -0.20876789982E+04  0.20876789982E+04  0.00000000000E+00 0. -1.
    9000007    1    1    2  502    0 -0.40040774798E+03 -0.24016291671E+02 -0.11895070557E+04  0.13175090825E+04  0.40000000000E+03 0.  1.
   -9000007    1    1    2    0  501  0.40040774798E+03  0.24016291671E+02 -0.73799665120E+03  0.93034520695E+03  0.40000000000E+03 0. -1.
<mgrwt>
<rscale>  2 0.56648314E+03</rscale>
<asrwt>0</asrwt>
<pdfrwt beam="1">  1        1 0.32118141E+00 0.56648314E+03</pdfrwt>
<pdfrwt beam="2">  1       -1 0.24642351E-01 0.56648314E+03</pdfrwt>
<totfact> 0.39699586E+01</totfact>
</mgrwt>
</event>
<event>
 4    1  0.2247963E-002  0.4634534E+03  0.7818608E-02  0.1023784E+00
         -2   -1    0    0    0  501 -0.00000000000E+00  0.00000000000E+00  0.14025249645E+03  0.14025249645E+03  0.00000000000E+00 0.  1.
          2   -1    0    0  502    0  0.00000000000E+00 -0.00000000000E+00 -0.17627621723E+04  0.17627621723E+04  0.00000000000E+00 0. -1.
    9000007    1    1    2  502    0  0.24265749118E+01  0.23405807294E+03 -0.11559368704E+04  0.12453831210E+04  0.40000000000E+03 0.  1.
   -9000007    1    1    2    0  501 -0.24265749118E+01 -0.23405807294E+03 -0.46657280547E+03  0.65763154774E+03  0.40000000000E+03 0.  1.
<mgrwt>
<rscale>  2 0.46345342E+03</rscale>
<asrwt>0</asrwt>
<pdfrwt beam="1">  1        2 0.27119418E+00 0.46345342E+03</pdfrwt>
<pdfrwt beam="2">  1       -2 0.21577307E-01 0.46345342E+03</pdfrwt>
<totfact> 0.17763390E+02</totfact>
</mgrwt>
</event>
<event>
 4    1  0.2247963E-002  0.4322490E+03  0.7818608E-02  0.1033152E+00
          1   -1    0    0  502    0  0.00000000000E+00  0.00000000000E+00  0.22435851972E+04  0.22435851972E+04  0.00000000000E+00 0. -1.
         -1   -1    0    0    0  501 -0.00000000000E+00 -0.00000000000E+00 -0.16638666050E+03  0.16638666050E+03  0.00000000000E+00 0.  1.
    9000007    1    1    2  502    0  0.14321541128E+03 -0.79552349896E+02  0.18697454577E+03  0.47095510526E+03  0.40000000000E+03 0.  1.
   -9000007    1    1    2    0  501 -0.14321541128E+03  0.79552349896E+02  0.18902239910E+04  0.19390167525E+04  0.40000000000E+03 0. -1.
<mgrwt>
<rscale>  2 0.43224904E+03</rscale>
<asrwt>0</asrwt>
<pdfrwt beam="1">  1        1 0.34516693E+00 0.43224904E+03</pdfrwt>
<pdfrwt beam="2">  1       -1 0.25597949E-01 0.43224904E+03</pdfrwt>
<totfact> 0.30128743E+01</totfact>
</mgrwt>
</event>
<event>
 4    1  0.2247963E-002  0.4910118E+03  0.7818608E-02  0.1016152E+00
          1   -1    0    0  502    0  0.00000000000E+00  0.00000000000E+00  0.27466455099E+04  0.27466455099E+04  0.00000000000E+00 0. -1.
         -1   -1    0    0    0  501 -0.00000000000E+00 -0.00000000000E+00 -0.87934718555E+02  0.87934718555E+02  0.00000000000E+00 0.  1.
    9000007    1    1    2  502    0 -0.90449850867E+02 -0.27002111191E+03  0.13893597597E+04  0.14735715518E+04  0.40000000000E+03 0.  1.
   -9000007    1    1    2    0  501  0.90449850867E+02  0.27002111191E+03  0.12693510316E+04  0.13610086766E+04  0.40000000000E+03 0. -1.
<mgrwt>
<rscale>  2 0.49101179E+03</rscale>
<asrwt>0</asrwt>
<pdfrwt beam="1">  1        1 0.42256078E+00 0.49101179E+03</pdfrwt>
<pdfrwt beam="2">  1       -1 0.13528420E-01 0.49101179E+03</pdfrwt>
<totfact> 0.38764976E+01</totfact>
</mgrwt>
</event>
<event>
 4    1  0.2247963E-002  0.6176075E+03  0.7818608E-02  0.9869535E-01
          1   -1    0    0  502    0  0.00000000000E+00  0.00000000000E+00  0.48242920287E+03  0.48242920287E+03  0.00000000000E+00 0. -1.
         -1   -1    0    0    0  501 -0.00000000000E+00 -0.00000000000E+00 -0.10444581154E+04  0.10444581154E+04  0.00000000000E+00 0.  1.
    9000007    1    1    2  502    0 -0.17131123389E+03  0.43828248143E+03  0.95319008527E+02  0.62491982347E+03  0.40000000000E+03 0. -1.
   -9000007    1    1    2    0  501  0.17131123389E+03 -0.43828248143E+03 -0.65734792109E+03  0.90196749484E+03  0.40000000000E+03 0.  1.
<mgrwt>
<rscale>  2 0.61760754E+03</rscale>
<asrwt>0</asrwt>
<pdfrwt beam="1">  1        1 0.74219877E-01 0.61760754E+03</pdfrwt>
<pdfrwt beam="2">  1       -1 0.16068586E+00 0.61760754E+03</pdfrwt>
<totfact> 0.14062819E+01</totfact>
</mgrwt>
</event>
<event>
 4    1  0.2247963E-002  0.5550321E+03  0.7818608E-02  0.1000336E+00
          2   -1    0    0  502    0  0.00000000000E+00  0.00000000000E+00  0.19849400359E+03  0.19849400359E+03  0.00000000000E+00 0.  1.
         -2   -1    0    0    0  501 -0.00000000000E+00 -0.00000000000E+00 -0.17445706193E+04  0.17445706193E+04  0.00000000000E+00 0. -1.
    9000007    1    1    2  502    0  0.31204880955E+03  0.22513588823E+03 -0.45024856855E+03  0.71469182253E+03  0.40000000000E+03 0.  1.
   -9000007    1    1    2    0  501 -0.31204880955E+03 -0.22513588823E+03 -0.10958280472E+04  0.12283728004E+04  0.40000000000E+03 0. -1.
<mgrwt>
<rscale>  2 0.55503210E+03</rscale>
<asrwt>0</asrwt>
<pdfrwt beam="1">  1        2 0.30537539E-01 0.55503210E+03</pdfrwt>
<pdfrwt beam="2">  1       -2 0.26839548E+00 0.55503210E+03</pdfrwt>
<totfact> 0.91311031E+00</totfact>
</mgrwt>
</event>
<event>
 4    1  0.2247963E-002  0.4772274E+03  0.7818608E-02  0.1019900E+00
          1   -1    0    0  502    0  0.00000000000E+00  0.00000000000E+00  0.44718257555E+03  0.44718257555E+03  0.00000000000E+00 0.  1.
         -1   -1    0    0    0  501 -0.00000000000E+00 -0.00000000000E+00 -0.61209020956E+03  0.61209020956E+03  0.00000000000E+00 0. -1.
    9000007    1    1    2  502    0  0.22029316540E+03  0.13862511592E+03  0.13459892246E+03  0.49584561248E+03  0.40000000000E+03 0.  1.
   -9000007    1    1    2    0  501 -0.22029316540E+03 -0.13862511592E+03 -0.29950655647E+03  0.56342717263E+03  0.40000000000E+03 0.  1.
<mgrwt>
<rscale>  2 0.47722741E+03</rscale>
<asrwt>0</asrwt>
<pdfrwt beam="1">  1        1 0.68797320E-01 0.47722741E+03</pdfrwt>
<pdfrwt beam="2">  1       -1 0.94167724E-01 0.47722741E+03</pdfrwt>
<totfact> 0.59107265E+01</totfact>
</mgrwt>
</event>
<event>
 4    1  0.2247963E-002  0.5480753E+03  0.7818608E-02  0.1001940E+00
          2   -1    0    0  502    0  0.00000000000E+00  0.00000000000E+00  0.49911550145E+03  0.49911550145E+03  0.00000000000E+00 0. -1.
         -2   -1    0    0    0  501 -0.00000000000E+00 -0.00000000000E+00 -0.60189327762E+03  0.60189327762E+03  0.00000000000E+00 0.  1.
    9000007    1    1    2  502    0 -0.12745949056E+03  0.35233586895E+03 -0.46095213742E+02  0.55001023173E+03  0.40000000000E+03 0. -1.
   -9000007    1    1    2    0  501  0.12745949056E+03 -0.35233586895E+03 -0.56682562423E+02  0.55099854734E+03  0.40000000000E+03 0.  1.
<mgrwt>
<rscale>  2 0.54807526E+03</rscale>
<asrwt>0</asrwt>
<pdfrwt beam="1">  1        2 0.76787000E-01 0.54807526E+03</pdfrwt>
<pdfrwt beam="2">  1       -2 0.92598966E-01 0.54807526E+03</pdfrwt>
<totfact> 0.62660832E+01</totfact>
</mgrwt>
</event>
<event>
 4    1  0.2247963E-002  0.4355737E+03  0.7818608E-02  0.1032114E+00
         -1   -1    0    0    0  501 -0.00000000000E+00  0.00000000000E+00  0.21692140389E+03  0.21692140389E+03  0.00000000000E+00 0.  1.
          1   -1    0    0  502    0  0.00000000000E+00 -0.00000000000E+00 -0.93632962908E+03  0.93632962908E+03  0.00000000000E+00 0. -1.
    9000007    1    1    2  502    0  0.14585153781E+03 -0.91933482079E+02 -0.21167552593E+03  0.48428397091E+03  0.40000000000E+03 0.  1.
   -9000007    1    1    2    0  501 -0.14585153781E+03  0.91933482079E+02 -0.50773269927E+03  0.66896706205E+03  0.40000000000E+03 0.  1.
<mgrwt>
<rscale>  2 0.43557369E+03</rscale>
<asrwt>0</asrwt>
<pdfrwt beam="1">  1        1 0.14405071E+00 0.43557369E+03</pdfrwt>
<pdfrwt beam="2">  1       -1 0.33372523E-01 0.43557369E+03</pdfrwt>
<totfact> 0.15008223E+02</totfact>
</mgrwt>
</event>
<event>
 4    1  0.2247963E-002  0.4207643E+03  0.7818608E-02  0.1036818E+00
         -2   -1    0    0    0  501 -0.00000000000E+00  0.00000000000E+00  0.17066004176E+03  0.17066004176E+03  0.00000000000E+00 0.  1.
          2   -1    0    0  502    0  0.00000000000E+00 -0.00000000000E+00 -0.10375600423E+04  0.10375600423E+04  0.00000000000E+00 0. -1.
    9000007    1    1    2  502    0 -0.14118179126E+02 -0.12978179275E+03 -0.42593470681E+03  0.59871780596E+03  0.40000000000E+03 0.  1.
   -9000007    1    1    2    0  501  0.14118179126E+02  0.12978179275E+03 -0.44096529368E+03  0.60950227805E+03  0.40000000000E+03 0.  1.
<mgrwt>
<rscale>  2 0.42076435E+03</rscale>
<asrwt>0</asrwt>
<pdfrwt beam="1">  1        2 0.15962462E+00 0.42076435E+03</pdfrwt>
<pdfrwt beam="2">  1       -2 0.26255391E-01 0.42076435E+03</pdfrwt>
<totfact> 0.32178662E+02</totfact>
</mgrwt>
</event>
<event>
 4    1  0.2247963E-002  0.6212651E+03  0.7818608E-02  0.9862244E-01
         -2   -1    0    0    0  501 -0.00000000000E+00  0.00000000000E+00  0.19285584369E+03  0.19285584369E+03  0.00000000000E+00 0.  1.
          2   -1    0    0  502    0  0.00000000000E+00 -0.00000000000E+00 -0.20319000844E+04  0.20319000844E+04  0.00000000000E+00 0. -1.
    9000007    1    1    2  502    0  0.45071210292E+03  0.15109238727E+03 -0.10559399992E+04  0.12251447225E+04  0.40000000000E+03 0. -1.
   -9000007    1    1    2    0  501 -0.45071210292E+03 -0.15109238727E+03 -0.78310424150E+03  0.99961120555E+03  0.40000000000E+03 0. -1.
<mgrwt>
<rscale>  2 0.62126509E+03</rscale>
<asrwt>0</asrwt>
<pdfrwt beam="1">  1        2 0.31260005E+00 0.62126509E+03</pdfrwt>
<pdfrwt beam="2">  1       -2 0.29670126E-01 0.62126509E+03</pdfrwt>
<totfact> 0.70164174E+01</totfact>
</mgrwt>
</event>
<event>
 4    1  0.2247963E-002  0.6308367E+03  0.7818608E-02  0.9843417E-01
         -2   -1    0    0    0  501 -0.00000000000E+00  0.00000000000E+00  0.46145261217E+03  0.46145261217E+03  0.00000000000E+00 0. -1.
          2   -1    0    0  502    0  0.00000000000E+00 -0.00000000000E+00 -0.31643472082E+04  0.31643472082E+04  0.00000000000E+00 0.  1.
    9000007    1    1    2  502    0 -0.17970248018E+03  0.45349972632E+03 -0.28976976078E+04  0.29655701660E+04  0.40000000000E+03 0.  1.
   -9000007    1    1    2    0  501  0.17970248018E+03 -0.45349972632E+03  0.19480301175E+03  0.66022965440E+03  0.40000000000E+03 0. -1.
<mgrwt>
<rscale>  2 0.63083673E+03</rscale>
<asrwt>0</asrwt>
<pdfrwt beam="1">  1        2 0.48682265E+00 0.63083673E+03</pdfrwt>
<pdfrwt beam="2">  1       -2 0.70992709E-01 0.63083673E+03</pdfrwt>
<totfact> 0.27201490E+00</totfact>
</mgrwt>
</event>
<event>
 4    1  0.2247963E-002  0.4109768E+03  0.7818608E-02  0.1040044E+00
         -2   -1    0    0    0  501 -0.00000000000E+00  0.00000000000E+00  0.13392071663E+03  0.13392071663E+03  0.00000000000E+00 0.  1.
          2   -1    0    0  502    0  0.00000000000E+00 -0.00000000000E+00 -0.13076533641E+04  0.13076533641E+04  0.00000000000E+00 0. -1.
    9000007    1    1    2  502    0 -0.18307368452E+02 -0.92556813456E+02 -0.45102550455E+03  0.61018515978E+03  0.40000000000E+03 0.  1.
   -9000007    1    1    2    0  501  0.18307368452E+02  0.92556813456E+02 -0.72270714294E+03  0.83138892097E+03  0.40000000000E+03 0. -1.
<mgrwt>
<rscale>  2 0.41097679E+03</rscale>
<asrwt>0</asrwt>
<pdfrwt beam="1">  1        2 0.20117744E+00 0.41097679E+03</pdfrwt>
<pdfrwt beam="2">  1       -2 0.20603188E-01 0.41097679E+03</pdfrwt>
<totfact> 0.34342680E+02</totfact>
</mgrwt>
</event>
<event>
 4    1  0.2247963E-002  0.4842356E+03  0.7818608E-02  0.1017978E+00
         -2   -1    0    0    0  501 -0.00000000000E+00  0.00000000000E+00  0.32287236354E+03  0.32287236354E+03  0.00000000000E+00 0.  1.
          2   -1    0    0  502    0  0.00000000000E+00 -0.00000000000E+00 -0.73332566464E+03  0.73332566464E+03  0.00000000000E+00 0. -1.
    9000007    1    1    2  502    0 -0.14685234084E+03 -0.23004030811E+03 -0.25712232000E+03  0.54826639584E+03  0.40000000000E+03 0.  1.
   -9000007    1    1    2    0  501  0.14685234084E+03  0.23004030811E+03 -0.15333098111E+03  0.50793163234E+03  0.40000000000E+03 0. -1.
<mgrwt>
<rscale>  2 0.48423564E+03</rscale>
<asrwt>0</asrwt>
<pdfrwt beam="1">  1        2 0.11281933E+00 0.48423564E+03</pdfrwt>
<pdfrwt beam="2">  1       -2 0.49672671E-01 0.48423564E+03</pdfrwt>
<totfact> 0.15235396E+02</totfact>
</mgrwt>
</event>
<event>
 4    1  0.2247963E-002  0.5266954E+03  0.7818608E-02  0.1007037E+00
          2   -1    0    0  502    0  0.00000000000E+00  0.00000000000E+00  0.87197336471E+03  0.87197336471E+03  0.00000000000E+00 0.  1.
         -2   -1    0    0    0  501 -0.00000000000E+00 -0.00000000000E+00 -0.37102813824E+03  0.37102813824E+03  0.00000000000E+00 0. -1.
    9000007    1    1    2  502    0  0.18444776700E+02 -0.34215171198E+03  0.15820257056E+02  0.52693290306E+03  0.40000000000E+03 0. -1.
   -9000007    1    1    2    0  501 -0.18444776700E+02  0.34215171198E+03  0.48512496942E+03  0.71606859989E+03  0.40000000000E+03 0.  1.
<mgrwt>
<rscale>  2 0.52669536E+03</rscale>
<asrwt>0</asrwt>
<pdfrwt beam="1">  1        2 0.13414975E+00 0.52669536E+03</pdfrwt>
<pdfrwt beam="2">  1       -2 0.57081252E-01 0.52669536E+03</pdfrwt>
<totfact> 0.90990854E+01</totfact>
</mgrwt>
</event>
<event>
 4    1  0.2247963E-002  0.4575600E+03  0.7818608E-02  0.1025491E+00
         -1   -1    0    0    0  501 -0.00000000000E+00  0.00000000000E+00  0.13124820257E+04  0.13124820257E+04  0.00000000000E+00 0. -1.
          1   -1    0    0  502    0  0.00000000000E+00 -0.00000000000E+00 -0.16915462958E+03  0.16915462958E+03  0.00000000000E+00 0.  1.
    9000007    1    1    2  502    0  0.90850430861E+01  0.22198780621E+03  0.74850774371E+03  0.87728271755E+03  0.40000000000E+03 0.  1.
   -9000007    1    1    2    0  501 -0.90850430861E+01 -0.22198780621E+03  0.39481965236E+03  0.60435393769E+03  0.40000000000E+03 0.  1.
<mgrwt>
<rscale>  2 0.45755997E+03</rscale>
<asrwt>0</asrwt>
<pdfrwt beam="1">  1        1 0.26023790E-01 0.45755997E+03</pdfrwt>
<pdfrwt beam="2">  1       -1 0.20192031E+00 0.45755997E+03</pdfrwt>
<totfact> 0.28655949E+01</totfact>
</mgrwt>
</event>
<event>
 4    1  0.2247963E-002  0.4362147E+03  0.7818608E-02  0.1031915E+00
          2   -1    0    0  502    0  0.00000000000E+00  0.00000000000E+00  0.50626515486E+03  0.50626515486E+03  0.00000000000E+00 0.  1.
         -2   -1    0    0    0  501 -0.00000000000E+00 -0.00000000000E+00 -0.38435341048E+03  0.38435341048E+03  0.00000000000E+00 0. -1.
    9000007    1    1    2  502    0 -0.17364877853E+03 -0.11372091885E+02 -0.52532969221E+01  0.43624628352E+03  0.40000000000E+03 0. -1.
   -9000007    1    1    2    0  501  0.17364877853E+03  0.11372091885E+02  0.12716504130E+03  0.45437228182E+03  0.40000000000E+03 0.  1.
<mgrwt>
<rscale>  2 0.43621465E+03</rscale>
<asrwt>0</asrwt>
<pdfrwt beam="1">  1        2 0.77886947E-01 0.43621465E+03</pdfrwt>
<pdfrwt beam="2">  1       -2 0.59131294E-01 0.43621465E+03</pdfrwt>
<totfact> 0.16660239E+02</totfact>
</mgrwt>
</event>
<event>
 4    1  0.2247963E-002  0.4100285E+03  0.7818608E-02  0.1040361E+00
         -1   -1    0    0    0  501 -0.00000000000E+00  0.00000000000E+00  0.80107255310E+03  0.80107255310E+03  0.00000000000E+00 0.  1.
          1   -1    0    0  502    0  0.00000000000E+00 -0.00000000000E+00 -0.25104454836E+03  0.25104454836E+03  0.00000000000E+00 0. -1.
    9000007    1    1    2  502    0 -0.80948271870E+02  0.39632564637E+02  0.61975456518E+02  0.41468580891E+03  0.40000000000E+03 0. -1.
   -9000007    1    1    2    0  501  0.80948271870E+02 -0.39632564637E+02  0.48805254823E+03  0.63743129256E+03  0.40000000000E+03 0.  1.
<mgrwt>
<rscale>  2 0.41002849E+03</rscale>
<asrwt>0</asrwt>
<pdfrwt beam="1">  1        1 0.38622238E-01 0.41002849E+03</pdfrwt>
<pdfrwt beam="2">  1       -1 0.12324193E+00 0.41002849E+03</pdfrwt>
<totfact> 0.67363283E+01</totfact>
</mgrwt>
</event>
<event>
 4    1  0.2247963E-002  0.4102253E+03  0.7818608E-02  0.1040295E+00
         -2   -1    0    0    0  501 -0.00000000000E+00  0.00000000000E+00  0.55969816825E+03  0.55969816825E+03  0.00000000000E+00 0.  1.
          2   -1    0    0  502    0  0.00000000000E+00 -0.00000000000E+00 -0.33333805365E+03  0.33333805365E+03  0.00000000000E+00 0. -1.
    9000007    1    1    2  502    0  0.19223829764E+02 -0.88967602969E+02 -0.26602892905E+02  0.41108697853E+03  0.40000000000E+03 0. -1.
   -9000007    1    1    2    0  501 -0.19223829764E+02  0.88967602969E+02  0.25296300751E+03  0.48194924336E+03  0.40000000000E+03 0.  1.
<mgrwt>
<rscale>  2 0.41022529E+03</rscale>
<asrwt>0</asrwt>
<pdfrwt beam="1">  1        2 0.51282777E-01 0.41022529E+03</pdfrwt>
<pdfrwt beam="2">  1       -2 0.86107411E-01 0.41022529E+03</pdfrwt>
<totfact> 0.11747086E+02</totfact>
</mgrwt>
</event>
<event>
 4    1  0.2247963E-002  0.4052273E+03  0.7818608E-02  0.1041985E+00
          2   -1    0    0  502    0  0.00000000000E+00  0.00000000000E+00  0.15102471385E+04  0.15102471385E+04  0.00000000000E+00 0. -1.
         -2   -1    0    0    0  501 -0.00000000000E+00 -0.00000000000E+00 -0.24108065122E+03  0.24108065122E+03  0.00000000000E+00 0.  1.
    9000007    1    1    2  502    0 -0.60461334426E+02  0.23527839963E+02  0.12833959540E+04  0.13458507744E+04  0.40000000000E+03 0. -1.
   -9000007    1    1    2    0  501  0.60461334426E+02 -0.23527839963E+02 -0.14229466744E+02  0.40547701530E+03  0.40000000000E+03 0.  1.
<mgrwt>
<rscale>  2 0.40522726E+03</rscale>
<asrwt>0</asrwt>
<pdfrwt beam="1">  1        2 0.23234571E+00 0.40522726E+03</pdfrwt>
<pdfrwt beam="2">  1       -2 0.37089332E-01 0.40522726E+03</pdfrwt>
<totfact> 0.91321704E+01</totfact>
</mgrwt>
</event>
<event>
 4    1  0.2247963E-002  0.5222792E+03  0.7818608E-02  0.1008122E+00
          2   -1    0    0  502    0  0.00000000000E+00  0.00000000000E+00  0.69739500130E+03  0.69739500130E+03  0.00000000000E+00 0.  1.
         -2   -1    0    0    0  501 -0.00000000000E+00 -0.00000000000E+00 -0.46760511784E+03  0.46760511784E+03  0.00000000000E+00 0. -1.
    9000007    1    1    2  502    0 -0.19045086675E+03  0.27659363512E+03  0.35045535976E+03  0.62896305998E+03  0.40000000000E+03 0.  1.
   -9000007    1    1    2    0  501  0.19045086675E+03 -0.27659363512E+03 -0.12066547630E+03  0.53603705917E+03  0.40000000000E+03 0. -1.
<mgrwt>
<rscale>  2 0.52227921E+03</rscale>
<asrwt>0</asrwt>
<pdfrwt beam="1">  1        2 0.10729154E+00 0.52227921E+03</pdfrwt>
<pdfrwt beam="2">  1       -2 0.71939249E-01 0.52227921E+03</pdfrwt>
<totfact> 0.74316746E+01</totfact>
</mgrwt>
</event>
<event>
 4    1  0.2247963E-002  0.4092126E+03  0.7818608E-02  0.1040636E+00
          2   -1    0    0  502    0  0.00000000000E+00  0.00000000000E+00  0.53090121875E+03  0.53090121875E+03  0.00000000000E+00 0. -1.
         -2   -1    0    0    0  501 -0.00000000000E+00 -0.00000000000E+00 -0.32481648110E+03  0.32481648110E+03  0.00000000000E+00 0.  1.
    9000007    1    1    2  502    0 -0.78862100754E+02 -0.35152943830E+02  0.30256530243E+02  0.41032964555E+03  0.40000000000E+03 0.  1.
   -9000007    1    1    2    0  501  0.78862100754E+02  0.35152943830E+02  0.17582820740E+03  0.44538805430E+03  0.40000000000E+03 0. -1.
<mgrwt>
<rscale>  2 0.40921261E+03</rscale>
<asrwt>0</asrwt>
<pdfrwt beam="1">  1        2 0.81677111E-01 0.40921261E+03</pdfrwt>
<pdfrwt beam="2">  1       -2 0.49971766E-01 0.40921261E+03</pdfrwt>
<totfact> 0.22323680E+02</totfact>
</mgrwt>
</event>
<event>
 4    1  0.2247963E-002  0.5233398E+03  0.7818608E-02  0.1007860E+00
         -2   -1    0    0    0  501 -0.00000000000E+00  0.00000000000E+00  0.22292545400E+03  0.22292545400E+03  0.00000000000E+00 0.  1.
          2   -1    0    0  502    0  0.00000000000E+00 -0.00000000000E+00 -0.12371204868E+04  0.12371204868E+04  0.00000000000E+00 0. -1.
    9000007    1    1    2  502    0 -0.17216517293E+03  0.29024770438E+03 -0.56770827120E+03  0.77212515686E+03  0.40000000000E+03 0.  1.
   -9000007    1    1    2    0  501  0.17216517293E+03 -0.29024770438E+03 -0.44648676156E+03  0.68792078389E+03  0.40000000000E+03 0. -1.
<mgrwt>
<rscale>  2 0.52333983E+03</rscale>
<asrwt>0</asrwt>
<pdfrwt beam="1">  1        2 0.19032623E+00 0.52333983E+03</pdfrwt>
<pdfrwt beam="2">  1       -2 0.34296224E-01 0.52333983E+03</pdfrwt>
<totfact> 0.14819357E+02</totfact>
</mgrwt>
</event>
<event>
 4    1  0.2247963E-002  0.4438768E+03  0.7818608E-02  0.1029564E+00
          2   -1    0    0  502    0  0.00000000000E+00  0.00000000000E+00  0.24624883184E+03  0.24624883184E+03  0.00000000000E+00 0. -1.
         -2   -1    0    0    0  501 -0.00000000000E+00 -0.00000000000E+00 -0.83688887485E+03  0.83688887485E+03  0.00000000000E+00 0.  1.
    9000007    1    1    2  502    0  0.18181391098E+03  0.63010689947E+02 -0.18179092163E+03  0.47966090570E+03  0.40000000000E+03 0. -1.
   -9000007    1    1    2    0  501 -0.18181391098E+03 -0.63010689947E+02 -0.40884912138E+03  0.60347680098E+03  0.40000000000E+03 0.  1.
<mgrwt>
<rscale>  2 0.44387684E+03</rscale>
<asrwt>0</asrwt>
<pdfrwt beam="1">  1        2 0.37884436E-01 0.44387684E+03</pdfrwt>
<pdfrwt beam="2">  1       -2 0.12875213E+00 0.44387684E+03</pdfrwt>
<totfact> 0.62750981E+01</totfact>
</mgrwt>
</event>
<event>
 4    1  0.2247963E-002  0.4341864E+03  0.7818608E-02  0.1032546E+00
          2   -1    0    0  502    0  0.00000000000E+00  0.00000000000E+00  0.16670146981E+04  0.16670146981E+04  0.00000000000E+00 0.  1.
         -2   -1    0    0    0  501 -0.00000000000E+00 -0.00000000000E+00 -0.12112702863E+03  0.12112702863E+03  0.00000000000E+00 0. -1.
    9000007    1    1    2  502    0  0.13847565137E+03  0.96655731988E+02  0.10032883376E+04  0.10932087289E+04  0.40000000000E+03 0.  1.
   -9000007    1    1    2    0  501 -0.13847565137E+03 -0.96655731988E+02  0.54259933191E+03  0.69493299787E+03  0.40000000000E+03 0. -1.
<mgrwt>
<rscale>  2 0.43418641E+03</rscale>
<asrwt>0</asrwt>
<pdfrwt beam="1">  1        2 0.25646378E+00 0.43418641E+03</pdfrwt>
<pdfrwt beam="2">  1       -2 0.18634929E-01 0.43418641E+03</pdfrwt>
<totfact> 0.25889928E+02</totfact>
</mgrwt>
</event>
<event>
 4    1  0.2247963E-002  0.4206429E+03  0.7818608E-02  0.1036857E+00
          2   -1    0    0  502    0  0.00000000000E+00  0.00000000000E+00  0.14841682789E+03  0.14841682789E+03  0.00000000000E+00 0.  1.
         -2   -1    0    0    0  501 -0.00000000000E+00 -0.00000000000E+00 -0.14430671273E+04  0.14430671273E+04  0.00000000000E+00 0. -1.
    9000007    1    1    2  502    0 -0.13157939511E+02  0.12948859113E+03 -0.97911509334E+03  0.10656485315E+04  0.40000000000E+03 0. -1.
   -9000007    1    1    2    0  501  0.13157939511E+02 -0.12948859113E+03 -0.31553520612E+03  0.52583542378E+03  0.40000000000E+03 0.  1.
<mgrwt>
<rscale>  2 0.42064287E+03</rscale>
<asrwt>0</asrwt>
<pdfrwt beam="1">  1        2 0.22833357E-01 0.42064287E+03</pdfrwt>
<pdfrwt beam="2">  1       -2 0.22201033E+00 0.42064287E+03</pdfrwt>
<totfact> 0.24627980E+01</totfact>
</mgrwt>
</event>
<event>
 4    1  0.2247963E-002  0.4160346E+03  0.7818608E-02  0.1038365E+00
          2   -1    0    0  502    0  0.00000000000E+00  0.00000000000E+00  0.42993416400E+03  0.42993416400E+03  0.00000000000E+00 0.  1.
         -2   -1    0    0    0  501 -0.00000000000E+00 -0.00000000000E+00 -0.43477284694E+03  0.43477284694E+03  0.00000000000E+00 0. -1.
    9000007    1    1    2  502    0  0.16760530148E+02 -0.11315427033E+03  0.11522133838E+03  0.43169521781E+03  0.40000000000E+03 0.  1.
   -9000007    1    1    2    0  501 -0.16760530148E+02  0.11315427033E+03 -0.12006002132E+03  0.43301179312E+03  0.40000000000E+03 0. -1.
<mgrwt>
<rscale>  2 0.41603462E+03</rscale>
<asrwt>0</asrwt>
<pdfrwt beam="1">  1        2 0.66143718E-01 0.41603462E+03</pdfrwt>
<pdfrwt beam="2">  1       -2 0.66888130E-01 0.41603462E+03</pdfrwt>
<totfact> 0.15462310E+02</totfact>
</mgrwt>
</event>
<event>
 4    1  0.2247963E-002  0.4092467E+03  0.7818608E-02  0.1040624E+00
          1   -1    0    0  502    0  0.00000000000E+00  0.00000000000E+00  0.10969415632E+04  0.10969415632E+04  0.00000000000E+00 0. -1.
         -1   -1    0    0    0  501 -0.00000000000E+00 -0.00000000000E+00 -0.15476323657E+03  0.15476323657E+03  0.00000000000E+00 0.  1.
    9000007    1    1    2  502    0  0.22882607058E+02 -0.83422253221E+02  0.39850671318E+03  0.57121842275E+03  0.40000000000E+03 0.  1.
   -9000007    1    1    2    0  501 -0.22882607058E+02  0.83422253221E+02  0.54367161347E+03  0.68048637703E+03  0.40000000000E+03 0. -1.
<mgrwt>
<rscale>  2 0.40924673E+03</rscale>
<asrwt>0</asrwt>
<pdfrwt beam="1">  1        1 0.16876024E+00 0.40924673E+03</pdfrwt>
<pdfrwt beam="2">  1       -1 0.23809729E-01 0.40924673E+03</pdfrwt>
<totfact> 0.20273981E+02</totfact>
</mgrwt>
</event>
<event>
 4    1  0.2247963E-002  0.7882837E+03  0.7818608E-02  0.9577132E-01
         -1   -1    0    0    0  501 -0.00000000000E+00  0.00000000000E+00  0.12673566645E+04  0.12673566645E+04  0.00000000000E+00 0. -1.
          1   -1    0    0  502    0  0.00000000000E+00 -0.00000000000E+00 -0.52304980047E+03  0.52304980047E+03  0.00000000000E+00 0.  1.
    9000007    1    1    2  502    0 -0.60597726063E+03  0.30689213841E+03  0.59613987710E+03  0.98831876340E+03  0.40000000000E+03 0.  1.
   -9000007    1    1    2    0  501  0.60597726063E+03 -0.30689213841E+03  0.14816698697E+03  0.80208770160E+03  0.40000000000E+03 0. -1.
<mgrwt>
<rscale>  2 0.78828372E+03</rscale>
<asrwt>0</asrwt>
<pdfrwt beam="1">  1        1 0.80469200E-01 0.78828372E+03</pdfrwt>
<pdfrwt beam="2">  1       -1 0.19497795E+00 0.78828372E+03</pdfrwt>
<totfact> 0.69820410E+00</totfact>
</mgrwt>
</event>
<event>
 4    1  0.2247963E-002  0.4697562E+03  0.7818608E-02  0.1021989E+00
         -1   -1    0    0    0  501 -0.00000000000E+00  0.00000000000E+00  0.21131748027E+03  0.21131748027E+03  0.00000000000E+00 0. -1.
          1   -1    0    0  502    0  0.00000000000E+00 -0.00000000000E+00 -0.13547274279E+04  0.13547274279E+04  0.00000000000E+00 0.  1.
    9000007    1    1    2  502    0  0.75123601079E+02  0.23457902913E+03 -0.94655252062E+03  0.10567083565E+04  0.40000000000E+03 0.  1.
   -9000007    1    1    2    0  501 -0.75123601079E+02 -0.23457902913E+03 -0.19685742704E+03  0.50933655173E+03  0.40000000000E+03 0. -1.
<mgrwt>
<rscale>  2 0.46975619E+03</rscale>
<asrwt>0</asrwt>
<pdfrwt beam="1">  1        1 0.20841959E+00 0.46975619E+03</pdfrwt>
<pdfrwt beam="2">  1       -1 0.32510383E-01 0.46975619E+03</pdfrwt>
<totfact> 0.77497508E+01</totfact>
</mgrwt>
</event>
<event>
 4    1  0.2247963E-002  0.4041839E+03  0.7818608E-02  0.1042340E+00
         -1   -1    0    0    0  501 -0.00000000000E+00  0.00000000000E+00  0.19338789892E+03  0.19338789892E+03  0.00000000000E+00 0.  1.
          1   -1    0    0  502    0  0.00000000000E+00 -0.00000000000E+00 -0.10313192765E+04  0.10313192765E+04  0.00000000000E+00 0. -1.
    9000007    1    1    2  502    0 -0.32168254139E+02 -0.48268603103E+02 -0.67941570957E+03  0.79055066949E+03  0.40000000000E+03 0. -1.
   -9000007    1    1    2    0  501  0.32168254139E+02  0.48268603103E+02 -0.15851566797E+03  0.43415650590E+03  0.40000000000E+03 0.  1.
<mgrwt>
<rscale>  2 0.40418394E+03</rscale>
<asrwt>0</asrwt>
<pdfrwt beam="1">  1        1 0.15866451E+00 0.40418394E+03</pdfrwt>
<pdfrwt beam="2">  1       -1 0.29751984E-01 0.40418394E+03</pdfrwt>
<totfact> 0.15547008E+02</totfact>
</mgrwt>
</event>
<event>
 4    1  0.2247963E-002  0.4089441E+03  0.7818608E-02  0.1040726E+00
         -1   -1    0    0    0  501 -0.00000000000E+00  0.00000000000E+00  0.94767235032E+02  0.94767235032E+02  0.00000000000E+00 0.  1.
          1   -1    0    0  502    0  0.00000000000E+00 -0.00000000000E+00 -0.20692857681E+04  0.20692857681E+04  0.00000000000E+00 0. -1.
    9000007    1    1    2  502    0 -0.33121658549E+02 -0.78347043871E+02 -0.14023908220E+04  0.14607995486E+04  0.40000000000E+03 0. -1.
   -9000007    1    1    2    0  501  0.33121658549E+02  0.78347043871E+02 -0.57212771109E+03  0.70325345455E+03  0.40000000000E+03 0.  1.
<mgrwt>
<rscale>  2 0.40894413E+03</rscale>
<asrwt>0</asrwt>
<pdfrwt beam="1">  1        1 0.31835162E+00 0.40894413E+03</pdfrwt>
<pdfrwt beam="2">  1       -1 0.14579576E-01 0.40894413E+03</pdfrwt>
<totfact> 0.99585874E+01</totfact>
</mgrwt>
</event>
<event>
 4    1  0.2247963E-002  0.7090632E+03  0.7818608E-02  0.9701857E-01
         -2   -1    0    0    0  501 -0.00000000000E+00  0.00000000000E+00  0.12495472912E+04  0.12495472912E+04  0.00000000000E+00 0. -1.
          2   -1    0    0  502    0  0.00000000000E+00 -0.00000000000E+00 -0.47824126484E+03  0.47824126484E+03  0.00000000000E+00 0.  1.
    9000007    1    1    2  502    0  0.30019179816E+03 -0.50264847623E+03  0.72976360304E+03  0.10175094705E+04  0.40000000000E+03 0. -1.
   -9000007    1    1    2    0  501 -0.30019179816E+03  0.50264847623E+03  0.41542423322E+02  0.71027908548E+03  0.40000000000E+03 0.  1.
<mgrwt>
<rscale>  2 0.70906319E+03</rscale>
<asrwt>0</asrwt>
<pdfrwt beam="1">  1        2 0.73575580E-01 0.70906319E+03</pdfrwt>
<pdfrwt beam="2">  1       -2 0.19223804E+00 0.70906319E+03</pdfrwt>
<totfact> 0.99285625E+00</totfact>
</mgrwt>
</event>
<event>
 4    1  0.2247963E-002  0.7495187E+03  0.7818608E-02  0.9636106E-01
         -1   -1    0    0    0  501 -0.00000000000E+00  0.00000000000E+00  0.64413009671E+03  0.64413009671E+03  0.00000000000E+00 0.  1.
          1   -1    0    0  502    0  0.00000000000E+00 -0.00000000000E+00 -0.14626791281E+04  0.14626791281E+04  0.00000000000E+00 0. -1.
    9000007    1    1    2  502    0  0.31404242247E+02  0.63308145070E+03 -0.10786058897E+04  0.13134568950E+04  0.40000000000E+03 0. -1.
   -9000007    1    1    2    0  501 -0.31404242247E+02 -0.63308145070E+03  0.26005685834E+03  0.79335232981E+03  0.40000000000E+03 0.  1.
<mgrwt>
<rscale>  2 0.74951875E+03</rscale>
<asrwt>0</asrwt>
<pdfrwt beam="1">  1        1 0.22502756E+00 0.74951875E+03</pdfrwt>
<pdfrwt beam="2">  1       -1 0.99096939E-01 0.74951875E+03</pdfrwt>
<totfact> 0.70265113E+00</totfact>
</mgrwt>
</event>
<event>
 4    1  0.2247963E-002  0.4880979E+03  0.7818608E-02  0.1016933E+00
          2   -1    0    0  502    0  0.00000000000E+00  0.00000000000E+00  0.19668110619E+03  0.19668110619E+03  0.00000000000E+00 0.  1.
         -2   -1    0    0    0  501 -0.00000000000E+00 -0.00000000000E+00 -0.13738555955E+04  0.13738555955E+04  0.00000000000E+00 0. -1.
    9000007    1    1    2  502    0 -0.21340690092E+03  0.18082317723E+03 -0.85870338202E+03  0.98773023902E+03  0.40000000000E+03 0. -1.
   -9000007    1    1    2    0  501  0.21340690092E+03 -0.18082317723E+03 -0.31847110733E+03  0.58280646272E+03  0.40000000000E+03 0.  1.
<mgrwt>
<rscale>  2 0.48809787E+03</rscale>
<asrwt>0</asrwt>
<pdfrwt beam="1">  1        2 0.30258631E-01 0.48809787E+03</pdfrwt>
<pdfrwt beam="2">  1       -2 0.21136240E+00 0.48809787E+03</pdfrwt>
<totfact> 0.20669568E+01</totfact>
</mgrwt>
</event>
<event>
 4    1  0.2247963E-002  0.6313954E+03  0.7818608E-02  0.9842330E-01
         -1   -1    0    0    0  501 -0.00000000000E+00  0.00000000000E+00  0.14612825415E+04  0.14612825415E+04  0.00000000000E+00 0.  1.
          1   -1    0    0  502    0  0.00000000000E+00 -0.00000000000E+00 -0.33489610062E+03  0.33489610062E+03  0.00000000000E+00 0. -1.
    9000007    1    1    2  502    0  0.45497479912E+03 -0.17792710586E+03  0.17652061044E+03  0.65560632146E+03  0.40000000000E+03 0.  1.
   -9000007    1    1    2    0  501 -0.45497479912E+03  0.17792710586E+03  0.94986583045E+03  0.11405723207E+04  0.40000000000E+03 0.  1.
<mgrwt>
<rscale>  2 0.63139538E+03</rscale>
<asrwt>0</asrwt>
<pdfrwt beam="1">  1        1 0.51522478E-01 0.63139538E+03</pdfrwt>
<pdfrwt beam="2">  1       -1 0.22481269E+00 0.63139538E+03</pdfrwt>
<totfact> 0.81553294E+00</totfact>
</mgrwt>
</event>
<event>
 4    1  0.2247963E-002  0.8918869E+03  0.7818608E-02  0.9435780E-01
          2   -1    0    0  502    0  0.00000000000E+00  0.00000000000E+00  0.39157530598E+04  0.39157530598E+04  0.00000000000E+00 0. -1.
         -2   -1    0    0    0  501 -0.00000000000E+00 -0.00000000000E+00 -0.35146568065E+03  0.35146568065E+03  0.00000000000E+00 0.  1.
    9000007    1    1    2  502    0  0.16774804700E+03  0.77930920509E+03  0.39610428238E+03  0.97588977192E+03  0.40000000000E+03 0.  1.
   -9000007    1    1    2    0  501 -0.16774804700E+03 -0.77930920509E+03  0.31681830968E+04  0.32913289685E+04  0.40000000000E+03 0. -1.
<mgrwt>
<rscale>  2 0.89188690E+03</rscale>
<asrwt>0</asrwt>
<pdfrwt beam="1">  1        2 0.60242352E+00 0.89188690E+03</pdfrwt>
<pdfrwt beam="2">  1       -2 0.54071646E-01 0.89188690E+03</pdfrwt>
<totfact> 0.13808421E+00</totfact>
</mgrwt>
</event>
<event>
 4    1  0.2247963E-002  0.6137853E+03  0.7818608E-02  0.9877212E-01
         -2   -1    0    0    0  501 -0.00000000000E+00  0.00000000000E+00  0.18527036721E+03  0.18527036721E+03  0.00000000000E+00 0.  1.
          2   -1    0    0  502    0  0.00000000000E+00 -0.00000000000E+00 -0.25544037811E+04  0.25544037811E+04  0.00000000000E+00 0. -1.
    9000007    1    1    2  502    0  0.26723203909E+03 -0.38120785095E+03 -0.56592894293E+03  0.83487002389E+03  0.40000000000E+03 0.  1.
   -9000007    1    1    2    0  501 -0.26723203909E+03  0.38120785095E+03 -0.18032044709E+04  0.19048041244E+04  0.40000000000E+03 0. -1.
<mgrwt>
<rscale>  2 0.61378529E+03</rscale>
<asrwt>0</asrwt>
<pdfrwt beam="1">  1        2 0.39298520E+00 0.61378529E+03</pdfrwt>
<pdfrwt beam="2">  1       -2 0.28503133E-01 0.61378529E+03</pdfrwt>
<totfact> 0.38889090E+01</totfact>
</mgrwt>
</event>
<event>
 4    1  0.2247963E-002  0.5332095E+03  0.7818608E-02  0.1005457E+00
          2   -1    0    0  502    0  0.00000000000E+00  0.00000000000E+00  0.54867465004E+03  0.54867465004E+03  0.00000000000E+00 0. -1.
         -2   -1    0    0    0  501 -0.00000000000E+00 -0.00000000000E+00 -0.62635506200E+03  0.62635506200E+03  0.00000000000E+00 0.  1.
    9000007    1    1    2  502    0 -0.46588587574E+02 -0.34948794519E+03  0.20531826887E+03  0.57137370595E+03  0.40000000000E+03 0. -1.
   -9000007    1    1    2    0  501  0.46588587574E+02  0.34948794519E+03 -0.28299868083E+03  0.60365600608E+03  0.40000000000E+03 0.  1.
<mgrwt>
<rscale>  2 0.53320945E+03</rscale>
<asrwt>0</asrwt>
<pdfrwt beam="1">  1        2 0.84411484E-01 0.53320945E+03</pdfrwt>
<pdfrwt beam="2">  1       -2 0.96362318E-01 0.53320945E+03</pdfrwt>
<totfact> 0.51250298E+01</totfact>
</mgrwt>
</event>
<event>
 4    1  0.2247963E-002  0.4387966E+03  0.7818608E-02  0.1031117E+00
          2   -1    0    0  502    0  0.00000000000E+00  0.00000000000E+00  0.15276079024E+04  0.15276079024E+04  0.00000000000E+00 0. -1.
         -2   -1    0    0    0  501 -0.00000000000E+00 -0.00000000000E+00 -0.15866908040E+03  0.15866908040E+03  0.00000000000E+00 0.  1.
    9000007    1    1    2  502    0 -0.15805854787E+03 -0.86948030777E+02  0.10668036014E+04  0.11535217330E+04  0.40000000000E+03 0. -1.
   -9000007    1    1    2    0  501  0.15805854787E+03  0.86948030777E+02  0.30213522056E+03  0.53275524973E+03  0.40000000000E+03 0.  1.
<mgrwt>
<rscale>  2 0.43879661E+03</rscale>
<asrwt>0</asrwt>
<pdfrwt beam="1">  1        2 0.23501659E+00 0.43879661E+03</pdfrwt>
<pdfrwt beam="2">  1       -2 0.24410629E-01 0.43879661E+03</pdfrwt>
<totfact> 0.19197792E+02</totfact>
</mgrwt>
</event>
<event>
 4    1  0.2247963E-002  0.6406599E+03  0.7818608E-02  0.9824465E-01
         -2   -1    0    0    0  501 -0.00000000000E+00  0.00000000000E+00  0.21202494168E+03  0.21202494168E+03  0.00000000000E+00 0. -1.
          2   -1    0    0  502    0  0.00000000000E+00 -0.00000000000E+00 -0.26447531132E+04  0.26447531132E+04  0.00000000000E+00 0.  1.
    9000007    1    1    2  502    0  0.39920548576E+03  0.30179478436E+03 -0.19558880463E+04  0.20581407049E+04  0.40000000000E+03 0.  1.
   -9000007    1    1    2    0  501 -0.39920548576E+03 -0.30179478436E+03 -0.47684012528E+03  0.79863734999E+03  0.40000000000E+03 0. -1.
<mgrwt>
<rscale>  2 0.64065990E+03</rscale>
<asrwt>0</asrwt>
<pdfrwt beam="1">  1        2 0.40688512E+00 0.64065990E+03</pdfrwt>
<pdfrwt beam="2">  1       -2 0.32619220E-01 0.64065990E+03</pdfrwt>
<totfact> 0.26760721E+01</totfact>
</mgrwt>
</event>
<event>
 4    1  0.2247963E-002  0.4965708E+03  0.7818608E-02  0.1014678E+00
         -2   -1    0    0    0  501 -0.00000000000E+00  0.00000000000E+00  0.50241988145E+03  0.50241988145E+03  0.00000000000E+00 0.  1.
          2   -1    0    0  502    0  0.00000000000E+00 -0.00000000000E+00 -0.49133972059E+03  0.49133972059E+03  0.00000000000E+00 0. -1.
    9000007    1    1    2  502    0 -0.26835446740E+03 -0.12069968591E+03  0.22163683222E+02  0.49706514986E+03  0.40000000000E+03 0. -1.
   -9000007    1    1    2    0  501  0.26835446740E+03  0.12069968591E+03 -0.11083522366E+02  0.49669445218E+03  0.40000000000E+03 0. -1.
<mgrwt>
<rscale>  2 0.49657077E+03</rscale>
<asrwt>0</asrwt>
<pdfrwt beam="1">  1        2 0.75590726E-01 0.49657077E+03</pdfrwt>
<pdfrwt beam="2">  1       -2 0.77295366E-01 0.49657077E+03</pdfrwt>
<totfact> 0.96440627E+01</totfact>
</mgrwt>
</event>
<event>
 4    1  0.2247963E-002  0.4069524E+03  0.7818608E-02  0.1041399E+00
          2   -1    0    0  502    0  0.00000000000E+00  0.00000000000E+00  0.52272461422E+03  0.52272461422E+03  0.00000000000E+00 0.  1.
         -2   -1    0    0    0  501 -0.00000000000E+00 -0.00000000000E+00 -0.35555065486E+03  0.35555065486E+03  0.00000000000E+00 0. -1.
    9000007    1    1    2  502    0 -0.50878252587E+02 -0.54969417859E+02  0.22852111164E+03  0.46672489965E+03  0.40000000000E+03 0.  1.
   -9000007    1    1    2    0  501  0.50878252587E+02  0.54969417859E+02 -0.61347152274E+02  0.41155036943E+03  0.40000000000E+03 0. -1.
<mgrwt>
<rscale>  2 0.40695237E+03</rscale>
<asrwt>0</asrwt>
<pdfrwt beam="1">  1        2 0.80419171E-01 0.40695237E+03</pdfrwt>
<pdfrwt beam="2">  1       -2 0.54700101E-01 0.40695237E+03</pdfrwt>
<totfact> 0.18910447E+02</totfact>
</mgrwt>
</event>
<event>
 4    1  0.2247963E-002  0.4661489E+03  0.7818608E-02  0.1023013E+00
         -2   -1    0    0    0  501 -0.00000000000E+00  0.00000000000E+00  0.15533341571E+03  0.15533341571E+03  0.00000000000E+00 0.  1.
          2   -1    0    0  502    0  0.00000000000E+00 -0.00000000000E+00 -0.16560195934E+04  0.16560195934E+04  0.00000000000E+00 0. -1.
    9000007    1    1    2  502    0 -0.57875568911E+01 -0.23929325455E+03 -0.11072165448E+04  0.12013422637E+04  0.40000000000E+03 0.  1.
   -9000007    1    1    2    0  501  0.57875568911E+01  0.23929325455E+03 -0.39346963284E+03  0.61001074536E+03  0.40000000000E+03 0.  1.
<mgrwt>
<rscale>  2 0.46614886E+03</rscale>
<asrwt>0</asrwt>
<pdfrwt beam="1">  1        2 0.25477225E+00 0.46614886E+03</pdfrwt>
<pdfrwt beam="2">  1       -2 0.23897449E-01 0.46614886E+03</pdfrwt>
<totfact> 0.16924237E+02</totfact>
</mgrwt>
</event>
<event>
 4    1  0.2247963E-002  0.5512018E+03  0.7818608E-02  0.1001216E+00
         -1   -1    0    0    0  501 -0.00000000000E+00  0.00000000000E+00  0.27042745356E+03  0.27042745356E+03  0.00000000000E+00 0.  1.
          1   -1    0    0  502    0  0.00000000000E+00 -0.00000000000E+00 -0.11245747338E+04  0.11245747338E+04  0.00000000000E+00 0. -1.
    9000007    1    1    2  502    0  0.22677148375E+03 -0.30397062246E+03 -0.44870287119E+03  0.71074447714E+03  0.40000000000E+03 0.  1.
   -9000007    1    1    2    0  501 -0.22677148375E+03  0.30397062246E+03 -0.40544440902E+03  0.68425771020E+03  0.40000000000E+03 0.  1.
<mgrwt>
<rscale>  2 0.55120182E+03</rscale>
<asrwt>0</asrwt>
<pdfrwt beam="1">  1        1 0.17301149E+00 0.55120182E+03</pdfrwt>
<pdfrwt beam="2">  1       -1 0.41604224E-01 0.55120182E+03</pdfrwt>
<totfact> 0.71915279E+01</totfact>
</mgrwt>
</event>
<event>
 4    1  0.2247963E-002  0.5413215E+03  0.7818608E-02  0.1003523E+00
          2   -1    0    0  502    0  0.00000000000E+00  0.00000000000E+00  0.16308154373E+04  0.16308154373E+04  0.00000000000E+00 0.  1.
         -2   -1    0    0    0  501 -0.00000000000E+00 -0.00000000000E+00 -0.18223213910E+03  0.18223213910E+03  0.00000000000E+00 0. -1.
    9000007    1    1    2  502    0 -0.13671453125E+03  0.33813924727E+03  0.83151888064E+03  0.99219587908E+03  0.40000000000E+03 0.  1.
   -9000007    1    1    2    0  501  0.13671453125E+03 -0.33813924727E+03  0.61706441759E+03  0.82085169736E+03  0.40000000000E+03 0. -1.
<mgrwt>
<rscale>  2 0.54132154E+03</rscale>
<asrwt>0</asrwt>
<pdfrwt beam="1">  1        2 0.25089467E+00 0.54132154E+03</pdfrwt>
<pdfrwt beam="2">  1       -2 0.28035715E-01 0.54132154E+03</pdfrwt>
<totfact> 0.12971885E+02</totfact>
</mgrwt>
</event>
<event>
 4    1  0.2247963E-002  0.4003357E+03  0.7818608E-02  0.1043663E+00
          1   -1    0    0  502    0  0.00000000000E+00  0.00000000000E+00  0.11061001623E+03  0.11061001623E+03  0.00000000000E+00 0.  1.
         -1   -1    0    0    0  501 -0.00000000000E+00 -0.00000000000E+00 -0.14533635275E+04  0.14533635275E+04  0.00000000000E+00 0. -1.
    9000007    1    1    2  502    0  0.41940705296E+01  0.15846787154E+02 -0.71445513029E+03  0.81897182130E+03  0.40000000000E+03 0. -1.
   -9000007    1    1    2    0  501 -0.41940705296E+01 -0.15846787154E+02 -0.62829838101E+03  0.74500172246E+03  0.40000000000E+03 0.  1.
<mgrwt>
<rscale>  2 0.40033575E+03</rscale>
<asrwt>0</asrwt>
<pdfrwt beam="1">  1        1 0.17016926E-01 0.40033575E+03</pdfrwt>
<pdfrwt beam="2">  1       -1 0.22359438E+00 0.40033575E+03</pdfrwt>
<totfact> 0.36175636E+01</totfact>
</mgrwt>
</event>
<event>
 4    1  0.2247963E-002  0.4228949E+03  0.7818608E-02  0.1036128E+00
         -1   -1    0    0    0  501 -0.00000000000E+00  0.00000000000E+00  0.39394571825E+03  0.39394571825E+03  0.00000000000E+00 0.  1.
          1   -1    0    0  502    0  0.00000000000E+00 -0.00000000000E+00 -0.45410811127E+03  0.45410811127E+03  0.00000000000E+00 0. -1.
    9000007    1    1    2  502    0 -0.11455749017E+03  0.75608453764E+02 -0.37440666898E+02  0.42454900821E+03  0.40000000000E+03 0. -1.
   -9000007    1    1    2    0  501  0.11455749017E+03 -0.75608453764E+02 -0.22721726122E+02  0.42350482131E+03  0.40000000000E+03 0.  1.
<mgrwt>
<rscale>  2 0.42289485E+03</rscale>
<asrwt>0</asrwt>
<pdfrwt beam="1">  1        1 0.69862786E-01 0.42289485E+03</pdfrwt>
<pdfrwt beam="2">  1       -1 0.60607034E-01 0.42289485E+03</pdfrwt>
<totfact> 0.14524896E+02</totfact>
</mgrwt>
</event>
<event>
 4    1  0.2247963E-002  0.4379566E+03  0.7818608E-02  0.1031376E+00
         -3   -1    0    0    0  501 -0.00000000000E+00  0.00000000000E+00  0.47284873609E+03  0.47284873609E+03  0.00000000000E+00 0. -1.
          3   -1    0    0  502    0  0.00000000000E+00 -0.00000000000E+00 -0.40709966946E+03  0.40709966946E+03  0.00000000000E+00 0.  1.
    9000007    1    1    2  502    0 -0.15615900404E+01  0.17833544787E+03  0.59227348047E+02  0.44194326478E+03  0.40000000000E+03 0. -1.
   -9000007    1    1    2    0  501  0.15615900404E+01 -0.17833544787E+03  0.65217185883E+01  0.43800514077E+03  0.40000000000E+03 0.  1.
<mgrwt>
<rscale>  2 0.43795659E+03</rscale>
<asrwt>0</asrwt>
<pdfrwt beam="1">  1        3 0.62630719E-01 0.43795659E+03</pdfrwt>
<pdfrwt beam="2">  1       -3 0.72745959E-01 0.43795659E+03</pdfrwt>
<totfact> 0.11572982E+01</totfact>
</mgrwt>
</event>
<event>
 4    1  0.2247963E-002  0.4505972E+03  0.7818608E-02  0.1027544E+00
          1   -1    0    0  502    0  0.00000000000E+00  0.00000000000E+00  0.12826869845E+04  0.12826869845E+04  0.00000000000E+00 0.  1.
         -1   -1    0    0    0  501 -0.00000000000E+00 -0.00000000000E+00 -0.19625596420E+03  0.19625596420E+03  0.00000000000E+00 0. -1.
    9000007    1    1    2  502    0 -0.11559910817E+03  0.17226344301E+03  0.86845352599E+03  0.97839121746E+03  0.40000000000E+03 0.  1.
   -9000007    1    1    2    0  501  0.11559910817E+03 -0.17226344301E+03  0.21797749428E+03  0.50055173121E+03  0.40000000000E+03 0.  1.
<mgrwt>
<rscale>  2 0.45059721E+03</rscale>
<asrwt>0</asrwt>
<pdfrwt beam="1">  1        1 0.19733645E+00 0.45059721E+03</pdfrwt>
<pdfrwt beam="2">  1       -1 0.30193226E-01 0.45059721E+03</pdfrwt>
<totfact> 0.99162950E+01</totfact>
</mgrwt>
</event>
<event>
 4    1  0.2247963E-002  0.5768687E+03  0.7818608E-02  0.9954593E-01
          2   -1    0    0  502    0  0.00000000000E+00  0.00000000000E+00  0.42460310555E+03  0.42460310555E+03  0.00000000000E+00 0. -1.
         -2   -1    0    0    0  501 -0.00000000000E+00 -0.00000000000E+00 -0.96602236706E+03  0.96602236706E+03  0.00000000000E+00 0.  1.
    9000007    1    1    2  502    0 -0.13492381227E+03 -0.39315782406E+03  0.31328328659E+02  0.57771876715E+03  0.40000000000E+03 0. -1.
   -9000007    1    1    2    0  501  0.13492381227E+03  0.39315782406E+03 -0.57274759017E+03  0.81290670546E+03  0.40000000000E+03 0.  1.
<mgrwt>
<rscale>  2 0.57686871E+03</rscale>
<asrwt>0</asrwt>
<pdfrwt beam="1">  1        2 0.65323555E-01 0.57686871E+03</pdfrwt>
<pdfrwt beam="2">  1       -2 0.14861883E+00 0.57686871E+03</pdfrwt>
<totfact> 0.23485438E+01</totfact>
</mgrwt>
</event>
<event>
 4    1  0.2247963E-002  0.5047474E+03  0.7818608E-02  0.1012547E+00
          2   -1    0    0  502    0  0.00000000000E+00  0.00000000000E+00  0.21854398748E+04  0.21854398748E+04  0.00000000000E+00 0.  1.
         -2   -1    0    0    0  501 -0.00000000000E+00 -0.00000000000E+00 -0.12168604622E+03  0.12168604622E+03  0.00000000000E+00 0. -1.
    9000007    1    1    2  502    0 -0.30763629178E+03 -0.11393742379E+02  0.12682685104E+04  0.13650182856E+04  0.40000000000E+03 0. -1.
   -9000007    1    1    2    0  501  0.30763629178E+03  0.11393742379E+02  0.79548531811E+03  0.94210763542E+03  0.40000000000E+03 0.  1.
<mgrwt>
<rscale>  2 0.50474737E+03</rscale>
<asrwt>0</asrwt>
<pdfrwt beam="1">  1        2 0.33622149E+00 0.50474737E+03</pdfrwt>
<pdfrwt beam="2">  1       -2 0.18720932E-01 0.50474737E+03</pdfrwt>
<totfact> 0.13381675E+02</totfact>
</mgrwt>
</event>
<event>
 4    1  0.2247963E-002  0.6709889E+03  0.7818608E-02  0.9768173E-01
         -2   -1    0    0    0  501 -0.00000000000E+00  0.00000000000E+00  0.70157929241E+03  0.70157929241E+03  0.00000000000E+00 0.  1.
          2   -1    0    0  502    0  0.00000000000E+00 -0.00000000000E+00 -0.73829749757E+03  0.73829749757E+03  0.00000000000E+00 0. -1.
    9000007    1    1    2  502    0  0.19391760283E+03  0.50261522968E+03  0.24201027975E+03  0.71329873216E+03  0.40000000000E+03 0.  1.
   -9000007    1    1    2    0  501 -0.19391760283E+03 -0.50261522968E+03 -0.27872848491E+03  0.72657805782E+03  0.40000000000E+03 0. -1.
<mgrwt>
<rscale>  2 0.67098890E+03</rscale>
<asrwt>0</asrwt>
<pdfrwt beam="1">  1        2 0.11358423E+00 0.67098890E+03</pdfrwt>
<pdfrwt beam="2">  1       -2 0.10793528E+00 0.67098890E+03</pdfrwt>
<totfact> 0.26887964E+01</totfact>
</mgrwt>
</event>
<event>
 4    1  0.2247963E-002  0.6289427E+03  0.7818608E-02  0.9847114E-01
         -2   -1    0    0    0  501 -0.00000000000E+00  0.00000000000E+00  0.30599796024E+03  0.30599796024E+03  0.00000000000E+00 0. -1.
          2   -1    0    0  502    0  0.00000000000E+00 -0.00000000000E+00 -0.16212757411E+04  0.16212757411E+04  0.00000000000E+00 0.  1.
    9000007    1    1    2  502    0 -0.12544319766E+03  0.46886341894E+03 -0.10914405168E+04  0.12596869862E+04  0.40000000000E+03 0.  1.
   -9000007    1    1    2    0  501  0.12544319766E+03 -0.46886341894E+03 -0.22383726406E+03  0.66758671514E+03  0.40000000000E+03 0.  1.
<mgrwt>
<rscale>  2 0.62894269E+03</rscale>
<asrwt>0</asrwt>
<pdfrwt beam="1">  1        2 0.24942704E+00 0.62894269E+03</pdfrwt>
<pdfrwt beam="2">  1       -2 0.47076609E-01 0.62894269E+03</pdfrwt>
<totfact> 0.48201773E+01</totfact>
</mgrwt>
</event>
<event>
 4    1  0.2247963E-002  0.4230414E+03  0.7818608E-02  0.1036081E+00
         -1   -1    0    0    0  501 -0.00000000000E+00  0.00000000000E+00  0.20902443963E+03  0.20902443963E+03  0.00000000000E+00 0.  1.
          1   -1    0    0  502    0  0.00000000000E+00 -0.00000000000E+00 -0.90404909001E+03  0.90404909001E+03  0.00000000000E+00 0. -1.
    9000007    1    1    2  502    0  0.56175782417E+02 -0.12573123929E+03 -0.21945852113E+03  0.47657749167E+03  0.40000000000E+03 0.  1.
   -9000007    1    1    2    0  501 -0.56175782417E+02  0.12573123929E+03 -0.47556612925E+03  0.63649603797E+03  0.40000000000E+03 0. -1.
<mgrwt>
<rscale>  2 0.42304144E+03</rscale>
<asrwt>0</asrwt>
<pdfrwt beam="1">  1        1 0.13908447E+00 0.42304144E+03</pdfrwt>
<pdfrwt beam="2">  1       -1 0.32157606E-01 0.42304144E+03</pdfrwt>
<totfact> 0.17006787E+02</totfact>
</mgrwt>
</event>
<event>
 4    1  0.2247963E-002  0.5127883E+03  0.7818608E-02  0.1010494E+00
         -1   -1    0    0    0  501 -0.00000000000E+00  0.00000000000E+00  0.96645074942E+02  0.96645074942E+02  0.00000000000E+00 0.  1.
          1   -1    0    0  502    0  0.00000000000E+00 -0.00000000000E+00 -0.28091011285E+04  0.28091011285E+04  0.00000000000E+00 0. -1.
    9000007    1    1    2  502    0  0.23464459222E+03 -0.21884648865E+03 -0.16138176634E+04  0.16933278835E+04  0.40000000000E+03 0.  1.
   -9000007    1    1    2    0  501 -0.23464459222E+03  0.21884648865E+03 -0.10986383901E+04  0.12124183199E+04  0.40000000000E+03 0. -1.
<mgrwt>
<rscale>  2 0.51278833E+03</rscale>
<asrwt>0</asrwt>
<pdfrwt beam="1">  1        1 0.43216935E+00 0.51278833E+03</pdfrwt>
<pdfrwt beam="2">  1       -1 0.14868475E-01 0.51278833E+03</pdfrwt>
<totfact> 0.30011060E+01</totfact>
</mgrwt>
</event>
<event>
 4    1  0.2247963E-002  0.4680033E+03  0.7818608E-02  0.1022485E+00
         -2   -1    0    0    0  501 -0.00000000000E+00  0.00000000000E+00  0.10334231941E+04  0.10334231941E+04  0.00000000000E+00 0.  1.
          2   -1    0    0  502    0  0.00000000000E+00 -0.00000000000E+00 -0.25271931775E+03  0.25271931775E+03  0.00000000000E+00 0. -1.
    9000007    1    1    2  502    0 -0.10896395829E+03 -0.21714954596E+03  0.64866273152E+03  0.79986899476E+03  0.40000000000E+03 0.  1.
   -9000007    1    1    2    0  501  0.10896395829E+03  0.21714954596E+03  0.13204114486E+03  0.48627351712E+03  0.40000000000E+03 0. -1.
<mgrwt>
<rscale>  2 0.46800328E+03</rscale>
<asrwt>0</asrwt>
<pdfrwt beam="1">  1        2 0.38879896E-01 0.46800328E+03</pdfrwt>
<pdfrwt beam="2">  1       -2 0.15898818E+00 0.46800328E+03</pdfrwt>
<totfact> 0.35281105E+01</totfact>
</mgrwt>
</event>
<event>
 4    1  0.2247963E-002  0.4074635E+03  0.7818608E-02  0.1041226E+00
         -1   -1    0    0    0  501 -0.00000000000E+00  0.00000000000E+00  0.13346404804E+04  0.13346404804E+04  0.00000000000E+00 0.  1.
          1   -1    0    0  502    0  0.00000000000E+00 -0.00000000000E+00 -0.13477606406E+03  0.13477606406E+03  0.00000000000E+00 0. -1.
    9000007    1    1    2  502    0 -0.76781492567E+02 -0.11449353565E+02  0.80380938839E+03  0.90118589545E+03  0.40000000000E+03 0. -1.
   -9000007    1    1    2    0  501  0.76781492567E+02  0.11449353565E+02  0.39605502794E+03  0.56823064900E+03  0.40000000000E+03 0. -1.
<mgrwt>
<rscale>  2 0.40746348E+03</rscale>
<asrwt>0</asrwt>
<pdfrwt beam="1">  1        1 0.20734780E-01 0.40746348E+03</pdfrwt>
<pdfrwt beam="2">  1       -1 0.20532930E+00 0.40746348E+03</pdfrwt>
<totfact> 0.36792293E+01</totfact>
</mgrwt>
</event>
<event>
 4    1  0.2247963E-002  0.4171767E+03  0.7818608E-02  0.1037989E+00
         -1   -1    0    0    0  501 -0.00000000000E+00  0.00000000000E+00  0.15458553562E+03  0.15458553562E+03  0.00000000000E+00 0. -1.
          1   -1    0    0  502    0  0.00000000000E+00 -0.00000000000E+00 -0.13825292246E+04  0.13825292246E+04  0.00000000000E+00 0.  1.
    9000007    1    1    2  502    0  0.49358759038E+02  0.10770375633E+03 -0.28279881734E+03  0.50399559255E+03  0.40000000000E+03 0. -1.
   -9000007    1    1    2    0  501 -0.49358759038E+02 -0.10770375633E+03 -0.94514487165E+03  0.10331191677E+04  0.40000000000E+03 0.  1.
<mgrwt>
<rscale>  2 0.41717668E+03</rscale>
<asrwt>0</asrwt>
<pdfrwt beam="1">  1        1 0.21269681E+00 0.41717668E+03</pdfrwt>
<pdfrwt beam="2">  1       -1 0.23782389E-01 0.41717668E+03</pdfrwt>
<totfact> 0.12758670E+02</totfact>
</mgrwt>
</event>
<event>
 4    1  0.2247963E-002  0.4040601E+03  0.7818608E-02  0.1042383E+00
         -2   -1    0    0    0  501 -0.00000000000E+00  0.00000000000E+00  0.64776227485E+02  0.64776227485E+02  0.00000000000E+00 0. -1.
          2   -1    0    0  502    0  0.00000000000E+00 -0.00000000000E+00 -0.25235912003E+04  0.25235912003E+04  0.00000000000E+00 0.  1.
    9000007    1    1    2  502    0  0.56930512917E+02  0.48434440925E+01 -0.11836691539E+04  0.12507346674E+04  0.40000000000E+03 0.  1.
   -9000007    1    1    2    0  501 -0.56930512917E+02 -0.48434440925E+01 -0.12751458188E+04  0.13376327604E+04  0.40000000000E+03 0. -1.
<mgrwt>
<rscale>  2 0.40406007E+03</rscale>
<asrwt>0</asrwt>
<pdfrwt beam="1">  1        2 0.38824471E+00 0.40406007E+03</pdfrwt>
<pdfrwt beam="2">  1       -2 0.99655758E-02 0.40406007E+03</pdfrwt>
<totfact> 0.25291148E+02</totfact>
</mgrwt>
</event>
<event>
 4    1  0.2247963E-002  0.6912842E+03  0.7818608E-02  0.9732255E-01
          2   -1    0    0  502    0  0.00000000000E+00  0.00000000000E+00  0.16874611716E+04  0.16874611716E+04  0.00000000000E+00 0. -1.
         -2   -1    0    0    0  501 -0.00000000000E+00 -0.00000000000E+00 -0.32427636727E+03  0.32427636727E+03  0.00000000000E+00 0.  1.
    9000007    1    1    2  502    0  0.51372608760E+03  0.23229145825E+03  0.32355593130E+03  0.76325765986E+03  0.40000000000E+03 0. -1.
   -9000007    1    1    2    0  501 -0.51372608760E+03 -0.23229145825E+03  0.10396288730E+04  0.12484798790E+04  0.40000000000E+03 0.  1.
<mgrwt>
<rscale>  2 0.69128418E+03</rscale>
<asrwt>0</asrwt>
<pdfrwt beam="1">  1        2 0.25960941E+00 0.69128418E+03</pdfrwt>
<pdfrwt beam="2">  1       -2 0.49888673E-01 0.69128418E+03</pdfrwt>
<totfact> 0.39133155E+01</totfact>
</mgrwt>
</event>
<event>
 4    1  0.2247963E-002  0.4330548E+03  0.7818608E-02  0.1032899E+00
         -2   -1    0    0    0  501 -0.00000000000E+00  0.00000000000E+00  0.32767152164E+03  0.32767152164E+03  0.00000000000E+00 0.  1.
          2   -1    0    0  502    0  0.00000000000E+00 -0.00000000000E+00 -0.59252510510E+03  0.59252510510E+03  0.00000000000E+00 0. -1.
    9000007    1    1    2  502    0  0.16526984422E+03  0.14912103923E+02 -0.47486820560E+02  0.43565065176E+03  0.40000000000E+03 0.  1.
   -9000007    1    1    2    0  501 -0.16526984422E+03 -0.14912103923E+02 -0.21736676290E+03  0.48454597498E+03  0.40000000000E+03 0. -1.
<mgrwt>
<rscale>  2 0.43305484E+03</rscale>
<asrwt>0</asrwt>
<pdfrwt beam="1">  1        2 0.91157708E-01 0.43305484E+03</pdfrwt>
<pdfrwt beam="2">  1       -2 0.50411004E-01 0.43305484E+03</pdfrwt>
<totfact> 0.19261757E+02</totfact>
</mgrwt>
</event>
<event>
 4    1  0.2247963E-002  0.4360013E+03  0.7818608E-02  0.1031981E+00
         -1   -1    0    0    0  501 -0.00000000000E+00  0.00000000000E+00  0.35023719236E+03  0.35023719236E+03  0.00000000000E+00 0. -1.
          1   -1    0    0  502    0  0.00000000000E+00 -0.00000000000E+00 -0.54430811789E+03  0.54430811789E+03  0.00000000000E+00 0.  1.
    9000007    1    1    2  502    0  0.28004871723E+02  0.17121007373E+03 -0.73235343351E+02  0.44210923730E+03  0.40000000000E+03 0. -1.
   -9000007    1    1    2    0  501 -0.28004871723E+02 -0.17121007373E+03 -0.12083558218E+03  0.45243607295E+03  0.40000000000E+03 0.  1.
<mgrwt>
<rscale>  2 0.43600133E+03</rscale>
<asrwt>0</asrwt>
<pdfrwt beam="1">  1        1 0.83739710E-01 0.43600133E+03</pdfrwt>
<pdfrwt beam="2">  1       -1 0.53882645E-01 0.43600133E+03</pdfrwt>
<totfact> 0.14241442E+02</totfact>
</mgrwt>
</event>
<event>
 4    1  0.2247963E-002  0.4420541E+03  0.7818608E-02  0.1030118E+00
          1   -1    0    0  502    0  0.00000000000E+00  0.00000000000E+00  0.19344137384E+04  0.19344137384E+04  0.00000000000E+00 0. -1.
         -1   -1    0    0    0  501 -0.00000000000E+00 -0.00000000000E+00 -0.10603146972E+03  0.10603146972E+03  0.00000000000E+00 0.  1.
    9000007    1    1    2  502    0  0.12786696057E+03  0.13806482915E+03  0.69236190658E+03  0.82144803021E+03  0.40000000000E+03 0. -1.
   -9000007    1    1    2    0  501 -0.12786696057E+03 -0.13806482915E+03  0.11360203621E+04  0.12189971779E+04  0.40000000000E+03 0. -1.
<mgrwt>
<rscale>  2 0.44205413E+03</rscale>
<asrwt>0</asrwt>
<pdfrwt beam="1">  1        1 0.29760209E+00 0.44205413E+03</pdfrwt>
<pdfrwt beam="2">  1       -1 0.16312535E-01 0.44205413E+03</pdfrwt>
<totfact> 0.10134935E+02</totfact>
</mgrwt>
</event>
<event>
 4    1  0.2247963E-002  0.5512607E+03  0.7818608E-02  0.1001203E+00
          2   -1    0    0  502    0  0.00000000000E+00  0.00000000000E+00  0.20571960214E+03  0.20571960214E+03  0.00000000000E+00 0. -1.
         -2   -1    0    0    0  501 -0.00000000000E+00 -0.00000000000E+00 -0.14811379520E+04  0.14811379520E+04  0.00000000000E+00 0.  1.
    9000007    1    1    2  502    0 -0.51637855412E+02 -0.37579498405E+03 -0.68121648260E+03  0.87632427463E+03  0.40000000000E+03 0. -1.
   -9000007    1    1    2    0  501  0.51637855412E+02  0.37579498405E+03 -0.59420186729E+03  0.81053327954E+03  0.40000000000E+03 0.  1.
<mgrwt>
<rscale>  2 0.55126068E+03</rscale>
<asrwt>0</asrwt>
<pdfrwt beam="1">  1        2 0.31649171E-01 0.55126068E+03</pdfrwt>
<pdfrwt beam="2">  1       -2 0.22786737E+00 0.55126068E+03</pdfrwt>
<totfact> 0.15404471E+01</totfact>
</mgrwt>
</event>
<event>
 4    1  0.2247963E-002  0.4285742E+03  0.7818608E-02  0.1034311E+00
         -2   -1    0    0    0  501 -0.00000000000E+00  0.00000000000E+00  0.24155132285E+03  0.24155132285E+03  0.00000000000E+00 0. -1.
          2   -1    0    0  502    0  0.00000000000E+00 -0.00000000000E+00 -0.76411654922E+03  0.76411654922E+03  0.00000000000E+00 0.  1.
    9000007    1    1    2  502    0 -0.14177247983E+03 -0.59803259175E+02 -0.22621899946E+03  0.48461417805E+03  0.40000000000E+03 0. -1.
   -9000007    1    1    2    0  501  0.14177247983E+03  0.59803259175E+02 -0.29634622691E+03  0.52105369402E+03  0.40000000000E+03 0.  1.
<mgrwt>
<rscale>  2 0.42857422E+03</rscale>
<asrwt>0</asrwt>
<pdfrwt beam="1">  1        2 0.11755639E+00 0.42857422E+03</pdfrwt>
<pdfrwt beam="2">  1       -2 0.37161742E-01 0.42857422E+03</pdfrwt>
<totfact> 0.25660591E+02</totfact>
</mgrwt>
</event>
<event>
 4    1  0.2247963E-002  0.4015071E+03  0.7818608E-02  0.1043259E+00
          2   -1    0    0  502    0  0.00000000000E+00  0.00000000000E+00  0.25226184534E+04  0.25226184534E+04  0.00000000000E+00 0. -1.
         -2   -1    0    0    0  501 -0.00000000000E+00 -0.00000000000E+00 -0.64954896398E+02  0.64954896398E+02  0.00000000000E+00 0.  1.
    9000007    1    1    2  502    0  0.32134950867E+02  0.13240027807E+02  0.10643460523E+04  0.11375589974E+04  0.40000000000E+03 0.  1.
   -9000007    1    1    2    0  501 -0.32134950867E+02 -0.13240027807E+02  0.13933175047E+04  0.14500143524E+04  0.40000000000E+03 0. -1.
<mgrwt>
<rscale>  2 0.40150710E+03</rscale>
<asrwt>0</asrwt>
<pdfrwt beam="1">  1        2 0.38809507E+00 0.40150710E+03</pdfrwt>
<pdfrwt beam="2">  1       -2 0.99930629E-02 0.40150710E+03</pdfrwt>
<totfact> 0.25222496E+02</totfact>
</mgrwt>
</event>
<event>
 4    1  0.2247963E-002  0.4814863E+03  0.7818608E-02  0.1018727E+00
         -2   -1    0    0    0  501 -0.00000000000E+00  0.00000000000E+00  0.26254036111E+03  0.26254036111E+03  0.00000000000E+00 0. -1.
          2   -1    0    0  502    0  0.00000000000E+00 -0.00000000000E+00 -0.88761117978E+03  0.88761117978E+03  0.00000000000E+00 0.  1.
    9000007    1    1    2  502    0  0.18689939965E+03 -0.19208772407E+03 -0.35388312864E+03  0.59754694214E+03  0.40000000000E+03 0.  1.
   -9000007    1    1    2    0  501 -0.18689939965E+03  0.19208772407E+03 -0.27118769003E+03  0.55260459874E+03  0.40000000000E+03 0. -1.
<mgrwt>
<rscale>  2 0.48148632E+03</rscale>
<asrwt>0</asrwt>
<pdfrwt beam="1">  1        2 0.13655557E+00 0.48148632E+03</pdfrwt>
<pdfrwt beam="2">  1       -2 0.40390825E-01 0.48148632E+03</pdfrwt>
<totfact> 0.17862908E+02</totfact>
</mgrwt>
</event>
<event>
 4    1  0.2247963E-002  0.6697942E+03  0.7818608E-02  0.9770330E-01
         -2   -1    0    0    0  501 -0.00000000000E+00  0.00000000000E+00  0.28666178452E+03  0.28666178452E+03  0.00000000000E+00 0.  1.
          2   -1    0    0  502    0  0.00000000000E+00 -0.00000000000E+00 -0.18346329547E+04  0.18346329547E+04  0.00000000000E+00 0. -1.
    9000007    1    1    2  502    0  0.13102067029E+03 -0.52101612049E+03 -0.11806040199E+04  0.13573688023E+04  0.40000000000E+03 0.  1.
   -9000007    1    1    2    0  501 -0.13102067029E+03  0.52101612049E+03 -0.36736715028E+03  0.76392593683E+03  0.40000000000E+03 0.  1.
<mgrwt>
<rscale>  2 0.66979416E+03</rscale>
<asrwt>0</asrwt>
<pdfrwt beam="1">  1        2 0.28225122E+00 0.66979416E+03</pdfrwt>
<pdfrwt beam="2">  1       -2 0.44101814E-01 0.66979416E+03</pdfrwt>
<totfact> 0.41795362E+01</totfact>
</mgrwt>
</event>
<event>
 4    1  0.2247963E-002  0.4690085E+03  0.7818608E-02  0.1022200E+00
          2   -1    0    0  502    0  0.00000000000E+00  0.00000000000E+00  0.63904485758E+03  0.63904485758E+03  0.00000000000E+00 0. -1.
         -2   -1    0    0    0  501 -0.00000000000E+00 -0.00000000000E+00 -0.37198997655E+03  0.37198997655E+03  0.00000000000E+00 0.  1.
    9000007    1    1    2  502    0  0.19357496450E+03 -0.14999227981E+03 -0.46050438578E+01  0.46903108352E+03  0.40000000000E+03 0.  1.
   -9000007    1    1    2    0  501 -0.19357496450E+03  0.14999227981E+03  0.27165992489E+03  0.54200375061E+03  0.40000000000E+03 0. -1.
<mgrwt>
<rscale>  2 0.46900848E+03</rscale>
<asrwt>0</asrwt>
<pdfrwt beam="1">  1        2 0.98314593E-01 0.46900848E+03</pdfrwt>
<pdfrwt beam="2">  1       -2 0.57229227E-01 0.46900848E+03</pdfrwt>
<totfact> 0.13530510E+02</totfact>
</mgrwt>
</event>
<event>
 4    1  0.2247963E-002  0.6411835E+03  0.7818608E-02  0.9823465E-01
         -2   -1    0    0    0  501 -0.00000000000E+00  0.00000000000E+00  0.27308517799E+03  0.27308517799E+03  0.00000000000E+00 0.  1.
          2   -1    0    0  502    0  0.00000000000E+00 -0.00000000000E+00 -0.15116113417E+04  0.15116113417E+04  0.00000000000E+00 0. -1.
    9000007    1    1    2  502    0 -0.24632786743E+03 -0.43639300450E+03 -0.67623059360E+03  0.93188201419E+03  0.40000000000E+03 0. -1.
   -9000007    1    1    2    0  501  0.24632786743E+03  0.43639300450E+03 -0.56229557013E+03  0.85281450553E+03  0.40000000000E+03 0. -1.
<mgrwt>
<rscale>  2 0.64118349E+03</rscale>
<asrwt>0</asrwt>
<pdfrwt beam="1">  1        2 0.23255560E+00 0.64118349E+03</pdfrwt>
<pdfrwt beam="2">  1       -2 0.42013103E-01 0.64118349E+03</pdfrwt>
<totfact> 0.69306795E+01</totfact>
</mgrwt>
</event>
<event>
 4    1  0.2247963E-002  0.4213519E+03  0.7818608E-02  0.1036627E+00
         -2   -1    0    0    0  501 -0.00000000000E+00  0.00000000000E+00  0.52023643167E+03  0.52023643167E+03  0.00000000000E+00 0. -1.
          2   -1    0    0  502    0  0.00000000000E+00 -0.00000000000E+00 -0.34347081206E+03  0.34347081206E+03  0.00000000000E+00 0.  1.
    9000007    1    1    2  502    0 -0.12302098410E+03 -0.49022927232E+02  0.53758637323E+02  0.42476746699E+03  0.40000000000E+03 0.  1.
   -9000007    1    1    2    0  501  0.12302098410E+03  0.49022927232E+02  0.12300698228E+03  0.43893977675E+03  0.40000000000E+03 0. -1.
<mgrwt>
<rscale>  2 0.42135188E+03</rscale>
<asrwt>0</asrwt>
<pdfrwt beam="1">  1        2 0.52841663E-01 0.42135188E+03</pdfrwt>
<pdfrwt beam="2">  1       -2 0.80036374E-01 0.42135188E+03</pdfrwt>
<totfact> 0.13385566E+02</totfact>
</mgrwt>
</event>
<event>
 4    1  0.2247963E-002  0.4122867E+03  0.7818608E-02  0.1039606E+00
          1   -1    0    0  502    0  0.00000000000E+00  0.00000000000E+00  0.10380517415E+04  0.10380517415E+04  0.00000000000E+00 0.  1.
         -1   -1    0    0    0  501 -0.00000000000E+00 -0.00000000000E+00 -0.24429063969E+03  0.24429063969E+03  0.00000000000E+00 0. -1.
    9000007    1    1    2  502    0  0.85870004413E+02 -0.51055606272E+02  0.28726327824E+02  0.41328626217E+03  0.40000000000E+03 0. -1.
   -9000007    1    1    2    0  501 -0.85870004413E+02  0.51055606272E+02  0.76503477396E+03  0.86905611900E+03  0.40000000000E+03 0.  1.
<mgrwt>
<rscale>  2 0.41228671E+03</rscale>
<asrwt>0</asrwt>
<pdfrwt beam="1">  1        1 0.15970027E+00 0.41228671E+03</pdfrwt>
<pdfrwt beam="2">  1       -1 0.37583176E-01 0.41228671E+03</pdfrwt>
<totfact> 0.10200800E+02</totfact>
</mgrwt>
</event>
<event>
 4    1  0.2247963E-002  0.4573416E+03  0.7818608E-02  0.1025555E+00
         -2   -1    0    0    0  501 -0.00000000000E+00  0.00000000000E+00  0.18543015735E+03  0.18543015735E+03  0.00000000000E+00 0. -1.
          2   -1    0    0  502    0  0.00000000000E+00 -0.00000000000E+00 -0.13116482114E+04  0.13116482114E+04  0.00000000000E+00 0.  1.
    9000007    1    1    2  502    0 -0.18164872935E+03  0.12714192566E+03 -0.28300200775E+03  0.53782103578E+03  0.40000000000E+03 0. -1.
   -9000007    1    1    2    0  501  0.18164872935E+03 -0.12714192566E+03 -0.84321604628E+03  0.95925733296E+03  0.40000000000E+03 0.  1.
<mgrwt>
<rscale>  2 0.45734159E+03</rscale>
<asrwt>0</asrwt>
<pdfrwt beam="1">  1        2 0.20179204E+00 0.45734159E+03</pdfrwt>
<pdfrwt beam="2">  1       -2 0.28527716E-01 0.45734159E+03</pdfrwt>
<totfact> 0.19045920E+02</totfact>
</mgrwt>
</event>
<event>
 4    1  0.2247963E-002  0.5184369E+03  0.7818608E-02  0.1009076E+00
          2   -1    0    0  502    0  0.00000000000E+00  0.00000000000E+00  0.51417210190E+03  0.51417210190E+03  0.00000000000E+00 0.  1.
         -2   -1    0    0    0  501 -0.00000000000E+00 -0.00000000000E+00 -0.53735075671E+03  0.53735075671E+03  0.00000000000E+00 0. -1.
    9000007    1    1    2  502    0  0.55754713654E+01 -0.32976614582E+03  0.75114905343E+02  0.52385021315E+03  0.40000000000E+03 0. -1.
   -9000007    1    1    2    0  501 -0.55754713654E+01  0.32976614582E+03 -0.98293560148E+02  0.52767264547E+03  0.40000000000E+03 0. -1.
<mgrwt>
<rscale>  2 0.51843688E+03</rscale>
<asrwt>0</asrwt>
<pdfrwt beam="1">  1        2 0.79103400E-01 0.51843688E+03</pdfrwt>
<pdfrwt beam="2">  1       -2 0.82669348E-01 0.51843688E+03</pdfrwt>
<totfact> 0.78625451E+01</totfact>
</mgrwt>
</event>
<event>
 4    1  0.2247963E-002  0.9186763E+03  0.7818608E-02  0.9402532E-01
          1   -1    0    0  502    0  0.00000000000E+00  0.00000000000E+00  0.17933073979E+04  0.17933073979E+04  0.00000000000E+00 0.  1.
         -1   -1    0    0    0  501 -0.00000000000E+00 -0.00000000000E+00 -0.51064417042E+03  0.51064417042E+03  0.00000000000E+00 0. -1.
    9000007    1    1    2  502    0 -0.74727997655E+03 -0.35431448138E+03  0.31881954340E+03  0.97242584104E+03  0.40000000000E+03 0. -1.
   -9000007    1    1    2    0  501  0.74727997655E+03  0.35431448138E+03  0.96384368407E+03  0.13315257273E+04  0.40000000000E+03 0. -1.
<mgrwt>
<rscale>  2 0.91867628E+03</rscale>
<asrwt>0</asrwt>
<pdfrwt beam="1">  1        1 0.27589344E+00 0.91867628E+03</pdfrwt>
<pdfrwt beam="2">  1       -1 0.78560642E-01 0.91867628E+03</pdfrwt>
<totfact> 0.68032231E+00</totfact>
</mgrwt>
</event>
<event>
 4    1  0.2247963E-002  0.5209430E+03  0.7818608E-02  0.1008453E+00
         -1   -1    0    0    0  501 -0.00000000000E+00  0.00000000000E+00  0.20541840820E+03  0.20541840820E+03  0.00000000000E+00 0. -1.
          1   -1    0    0  502    0  0.00000000000E+00 -0.00000000000E+00 -0.14353029528E+04  0.14353029528E+04  0.00000000000E+00 0.  1.
    9000007    1    1    2  502    0 -0.33362885471E+03  0.85675880935E+01 -0.84633016802E+03  0.99380902067E+03  0.40000000000E+03 0.  1.
   -9000007    1    1    2    0  501  0.33362885471E+03 -0.85675880935E+01 -0.38355437657E+03  0.64691234031E+03  0.40000000000E+03 0. -1.
<mgrwt>
<rscale>  2 0.52094301E+03</rscale>
<asrwt>0</asrwt>
<pdfrwt beam="1">  1        1 0.22081584E+00 0.52094301E+03</pdfrwt>
<pdfrwt beam="2">  1       -1 0.31602832E-01 0.52094301E+03</pdfrwt>
<totfact> 0.71139866E+01</totfact>
</mgrwt>
</event>
<event>
 4    1  0.2247963E-002  0.4220897E+03  0.7818608E-02  0.1036388E+00
          2   -1    0    0  502    0  0.00000000000E+00  0.00000000000E+00  0.32750411874E+03  0.32750411874E+03  0.00000000000E+00 0. -1.
         -2   -1    0    0    0  501 -0.00000000000E+00 -0.00000000000E+00 -0.59544901920E+03  0.59544901920E+03  0.00000000000E+00 0.  1.
    9000007    1    1    2  502    0  0.17983959013E+02  0.13355264500E+03  0.16864345175E+01  0.42209308906E+03  0.40000000000E+03 0. -1.
   -9000007    1    1    2    0  501 -0.17983959013E+02 -0.13355264500E+03 -0.26963133498E+03  0.50086004889E+03  0.40000000000E+03 0.  1.
<mgrwt>
<rscale>  2 0.42208972E+03</rscale>
<asrwt>0</asrwt>
<pdfrwt beam="1">  1        2 0.50385250E-01 0.42208972E+03</pdfrwt>
<pdfrwt beam="2">  1       -2 0.91607541E-01 0.42208972E+03</pdfrwt>
<totfact> 0.10390970E+02</totfact>
</mgrwt>
</event>
<event>
 4    1  0.2247963E-002  0.4535456E+03  0.7818608E-02  0.1026670E+00
         -1   -1    0    0    0  501 -0.00000000000E+00  0.00000000000E+00  0.45931287863E+03  0.45931287863E+03  0.00000000000E+00 0. -1.
          1   -1    0    0  502    0  0.00000000000E+00 -0.00000000000E+00 -0.48026076908E+03  0.48026076908E+03  0.00000000000E+00 0.  1.
    9000007    1    1    2  502    0  0.15663825506E+03 -0.14549236308E+03  0.11156616685E+03  0.46706592709E+03  0.40000000000E+03 0.  1.
   -9000007    1    1    2    0  501 -0.15663825506E+03  0.14549236308E+03 -0.13251405730E+03  0.47250772062E+03  0.40000000000E+03 0. -1.
<mgrwt>
<rscale>  2 0.45354556E+03</rscale>
<asrwt>0</asrwt>
<pdfrwt beam="1">  1        1 0.73886272E-01 0.45354556E+03</pdfrwt>
<pdfrwt beam="2">  1       -1 0.70663520E-01 0.45354556E+03</pdfrwt>
<totfact> 0.98956033E+01</totfact>
</mgrwt>
</event>
<event>
 4    1  0.2247963E-002  0.4828779E+03  0.7818608E-02  0.1018347E+00
         -1   -1    0    0    0  501 -0.00000000000E+00  0.00000000000E+00  0.26112842120E+03  0.26112842120E+03  0.00000000000E+00 0. -1.
          1   -1    0    0  502    0  0.00000000000E+00 -0.00000000000E+00 -0.91506391616E+03  0.91506391616E+03  0.00000000000E+00 0.  1.
    9000007    1    1    2  502    0  0.18113315946E+03  0.20090246891E+03 -0.23551625326E+03  0.53725127177E+03  0.40000000000E+03 0. -1.
   -9000007    1    1    2    0  501 -0.18113315946E+03 -0.20090246891E+03 -0.41841924170E+03  0.63894106559E+03  0.40000000000E+03 0.  1.
<mgrwt>
<rscale>  2 0.48287786E+03</rscale>
<asrwt>0</asrwt>
<pdfrwt beam="1">  1        1 0.14077906E+00 0.48287786E+03</pdfrwt>
<pdfrwt beam="2">  1       -1 0.40173604E-01 0.48287786E+03</pdfrwt>
<totfact> 0.11159264E+02</totfact>
</mgrwt>
</event>
<event>
 4    1  0.2247963E-002  0.4199318E+03  0.7818608E-02  0.1037089E+00
          2   -1    0    0  502    0  0.00000000000E+00  0.00000000000E+00  0.20373745539E+04  0.20373745539E+04  0.00000000000E+00 0. -1.
         -2   -1    0    0    0  501 -0.00000000000E+00 -0.00000000000E+00 -0.86589474678E+02  0.86589474678E+02  0.00000000000E+00 0.  1.
    9000007    1    1    2  502    0  0.65318190503E+02  0.10989189543E+03  0.95386416941E+03  0.10422089754E+04  0.40000000000E+03 0. -1.
   -9000007    1    1    2    0  501 -0.65318190503E+02 -0.10989189543E+03  0.99692090983E+03  0.10817550532E+04  0.40000000000E+03 0. -1.
<mgrwt>
<rscale>  2 0.41993177E+03</rscale>
<asrwt>0</asrwt>
<pdfrwt beam="1">  1        2 0.31344220E+00 0.41993177E+03</pdfrwt>
<pdfrwt beam="2">  1       -2 0.13321459E-01 0.41993177E+03</pdfrwt>
<totfact> 0.28920843E+02</totfact>
</mgrwt>
</event>
<event>
 4    1  0.2247963E-002  0.1026677E+04  0.7818608E-02  0.9279760E-01
         -2   -1    0    0    0  501 -0.00000000000E+00  0.00000000000E+00  0.94351080186E+03  0.94351080186E+03  0.00000000000E+00 0.  1.
          2   -1    0    0  502    0  0.00000000000E+00 -0.00000000000E+00 -0.12072031754E+04  0.12072031754E+04  0.00000000000E+00 0. -1.
    9000007    1    1    2  502    0  0.12306047740E+02 -0.94547036812E+03  0.16182025419E+03  0.10393514567E+04  0.40000000000E+03 0. -1.
   -9000007    1    1    2    0  501 -0.12306047740E+02  0.94547036812E+03 -0.42551262769E+03  0.11113625206E+04  0.40000000000E+03 0.  1.
<mgrwt>
<rscale>  2 0.10266770E+04</rscale>
<asrwt>0</asrwt>
<pdfrwt beam="1">  1        2 0.18572356E+00 0.10266770E+04</pdfrwt>
<pdfrwt beam="2">  1       -2 0.14515551E+00 0.10266770E+04</pdfrwt>
<totfact> 0.60596909E+00</totfact>
</mgrwt>
</event>
<event>
 4    1  0.2247963E-002  0.4320808E+03  0.7818608E-02  0.1033205E+00
          1   -1    0    0  502    0  0.00000000000E+00  0.00000000000E+00  0.96289622928E+03  0.96289622928E+03  0.00000000000E+00 0.  1.
         -1   -1    0    0    0  501 -0.00000000000E+00 -0.00000000000E+00 -0.19395170523E+03  0.19395170523E+03  0.00000000000E+00 0. -1.
    9000007    1    1    2  502    0  0.14473926036E+03 -0.75791674663E+02  0.39497174684E+03  0.58540286320E+03  0.40000000000E+03 0.  1.
   -9000007    1    1    2    0  501 -0.14473926036E+03  0.75791674663E+02  0.37397277722E+03  0.57144507132E+03  0.40000000000E+03 0.  1.
<mgrwt>
<rscale>  2 0.43208082E+03</rscale>
<asrwt>0</asrwt>
<pdfrwt beam="1">  1        1 0.14813788E+00 0.43208082E+03</pdfrwt>
<pdfrwt beam="2">  1       -1 0.29838724E-01 0.43208082E+03</pdfrwt>
<totfact> 0.17385769E+02</totfact>
</mgrwt>
</event>
<event>
 4    1  0.2247963E-002  0.5121615E+03  0.7818608E-02  0.1010652E+00
         -2   -1    0    0    0  501 -0.00000000000E+00  0.00000000000E+00  0.39565267119E+03  0.39565267119E+03  0.00000000000E+00 0. -1.
          2   -1    0    0  502    0  0.00000000000E+00 -0.00000000000E+00 -0.66303570776E+03  0.66303570776E+03  0.00000000000E+00 0.  1.
    9000007    1    1    2  502    0  0.17944211470E+03 -0.26478274596E+03 -0.13859100709E+03  0.53058160761E+03  0.40000000000E+03 0.  1.
   -9000007    1    1    2    0  501 -0.17944211470E+03  0.26478274596E+03 -0.12879202948E+03  0.52810677135E+03  0.40000000000E+03 0. -1.
<mgrwt>
<rscale>  2 0.51216147E+03</rscale>
<asrwt>0</asrwt>
<pdfrwt beam="1">  1        2 0.10200549E+00 0.51216147E+03</pdfrwt>
<pdfrwt beam="2">  1       -2 0.60869643E-01 0.51216147E+03</pdfrwt>
<totfact> 0.11330632E+02</totfact>
</mgrwt>
</event>
<event>
 4    1  0.2247963E-002  0.4399893E+03  0.7818608E-02  0.1030750E+00
          1   -1    0    0  502    0  0.00000000000E+00  0.00000000000E+00  0.40916263219E+03  0.40916263219E+03  0.00000000000E+00 0. -1.
         -1   -1    0    0    0  501 -0.00000000000E+00 -0.00000000000E+00 -0.13077963366E+04  0.13077963366E+04  0.00000000000E+00 0.  1.
    9000007    1    1    2  502    0 -0.32303746646E+02 -0.18040797825E+03  0.23650941611E+03  0.49952705089E+03  0.40000000000E+03 0. -1.
   -9000007    1    1    2    0  501  0.32303746646E+02  0.18040797825E+03 -0.11351431205E+04  0.12174319179E+04  0.40000000000E+03 0.  1.
<mgrwt>
<rscale>  2 0.43998928E+03</rscale>
<asrwt>0</asrwt>
<pdfrwt beam="1">  1        1 0.62948097E-01 0.43998928E+03</pdfrwt>
<pdfrwt beam="2">  1       -1 0.20119944E+00 0.43998928E+03</pdfrwt>
<totfact> 0.93346020E+00</totfact>
</mgrwt>
</event>
<event>
 4    1  0.2247963E-002  0.7610600E+03  0.7818608E-02  0.9618157E-01
          1   -1    0    0  502    0  0.00000000000E+00  0.00000000000E+00  0.10327044306E+04  0.10327044306E+04  0.00000000000E+00 0.  1.
         -1   -1    0    0    0  501 -0.00000000000E+00 -0.00000000000E+00 -0.58047995570E+03  0.58047995570E+03  0.00000000000E+00 0. -1.
    9000007    1    1    2  502    0 -0.16132988501E+03 -0.62704465128E+03  0.37436582807E+03  0.84815216779E+03  0.40000000000E+03 0.  1.
   -9000007    1    1    2    0  501  0.16132988501E+03  0.62704465128E+03  0.77858646844E+02  0.76503221853E+03  0.40000000000E+03 0. -1.
<mgrwt>
<rscale>  2 0.76106000E+03</rscale>
<asrwt>0</asrwt>
<pdfrwt beam="1">  1        1 0.15887760E+00 0.76106000E+03</pdfrwt>
<pdfrwt beam="2">  1       -1 0.89304608E-01 0.76106000E+03</pdfrwt>
<totfact> 0.18036104E+01</totfact>
</mgrwt>
</event>
<event>
 4    1  0.2247963E-002  0.4058752E+03  0.7818608E-02  0.1041764E+00
          2   -1    0    0  502    0  0.00000000000E+00  0.00000000000E+00  0.28216178013E+03  0.28216178013E+03  0.00000000000E+00 0.  1.
         -2   -1    0    0    0  501 -0.00000000000E+00 -0.00000000000E+00 -0.58592579754E+03  0.58592579754E+03  0.00000000000E+00 0. -1.
    9000007    1    1    2  502    0 -0.39641441332E+01 -0.68694691037E+02 -0.12592664825E+03  0.42496140502E+03  0.40000000000E+03 0.  1.
   -9000007    1    1    2    0  501  0.39641441332E+01  0.68694691037E+02 -0.17783736917E+03  0.44312617265E+03  0.40000000000E+03 0. -1.
<mgrwt>
<rscale>  2 0.40587520E+03</rscale>
<asrwt>0</asrwt>
<pdfrwt beam="1">  1        2 0.43409505E-01 0.40587520E+03</pdfrwt>
<pdfrwt beam="2">  1       -2 0.90142430E-01 0.40587520E+03</pdfrwt>
<totfact> 0.12708811E+02</totfact>
</mgrwt>
</event>
<event>
 4    1  0.2247963E-002  0.4068279E+03  0.7818608E-02  0.1041441E+00
          1   -1    0    0  502    0  0.00000000000E+00  0.00000000000E+00  0.15927620645E+04  0.15927620645E+04  0.00000000000E+00 0. -1.
         -1   -1    0    0    0  501 -0.00000000000E+00 -0.00000000000E+00 -0.10760727503E+03  0.10760727503E+03  0.00000000000E+00 0.  1.
    9000007    1    1    2  502    0 -0.34037006925E+02 -0.65957824997E+02  0.90010155408E+03  0.98777110718E+03  0.40000000000E+03 0. -1.
   -9000007    1    1    2    0  501  0.34037006925E+02  0.65957824997E+02  0.58505323537E+03  0.71259823234E+03  0.40000000000E+03 0.  1.
<mgrwt>
<rscale>  2 0.40682792E+03</rscale>
<asrwt>0</asrwt>
<pdfrwt beam="1">  1        1 0.24504030E+00 0.40682792E+03</pdfrwt>
<pdfrwt beam="2">  1       -1 0.16554966E-01 0.40682792E+03</pdfrwt>
<totfact> 0.16739867E+02</totfact>
</mgrwt>
</event>
<event>
 4    1  0.2247963E-002  0.5791468E+03  0.7818608E-02  0.9949640E-01
         -2   -1    0    0    0  501 -0.00000000000E+00  0.00000000000E+00  0.16635773749E+03  0.16635773749E+03  0.00000000000E+00 0.  1.
          2   -1    0    0  502    0  0.00000000000E+00 -0.00000000000E+00 -0.20966469268E+04  0.20966469268E+04  0.00000000000E+00 0. -1.
    9000007    1    1    2  502    0 -0.29139510861E+03  0.30083192906E+03 -0.74350895147E+03  0.94245239656E+03  0.40000000000E+03 0. -1.
   -9000007    1    1    2    0  501  0.29139510861E+03 -0.30083192906E+03 -0.11867802378E+04  0.13205522677E+04  0.40000000000E+03 0.  1.
<mgrwt>
<rscale>  2 0.57914675E+03</rscale>
<asrwt>0</asrwt>
<pdfrwt beam="1">  1        2 0.32256107E+00 0.57914675E+03</pdfrwt>
<pdfrwt beam="2">  1       -2 0.25593498E-01 0.57914675E+03</pdfrwt>
<totfact> 0.85242969E+01</totfact>
</mgrwt>
</event>
<event>
 4    1  0.2247963E-002  0.4117000E+03  0.7818608E-02  0.1039802E+00
         -2   -1    0    0    0  501 -0.00000000000E+00  0.00000000000E+00  0.12197941613E+03  0.12197941613E+03  0.00000000000E+00 0. -1.
          2   -1    0    0  502    0  0.00000000000E+00 -0.00000000000E+00 -0.16458840032E+04  0.16458840032E+04  0.00000000000E+00 0.  1.
    9000007    1    1    2  502    0  0.79314994569E+02  0.56621412726E+02 -0.41311754019E+03  0.58323490529E+03  0.40000000000E+03 0. -1.
   -9000007    1    1    2    0  501 -0.79314994569E+02 -0.56621412726E+02 -0.11107870468E+04  0.11846285140E+04  0.40000000000E+03 0.  1.
<mgrwt>
<rscale>  2 0.41169995E+03</rscale>
<asrwt>0</asrwt>
<pdfrwt beam="1">  1        2 0.25321291E+00 0.41169995E+03</pdfrwt>
<pdfrwt beam="2">  1       -2 0.18766065E-01 0.41169995E+03</pdfrwt>
<totfact> 0.26334263E+02</totfact>
</mgrwt>
</event>
<event>
 4    1  0.2247963E-002  0.5593606E+03  0.7818608E-02  0.9993502E-01
         -2   -1    0    0    0  501 -0.00000000000E+00  0.00000000000E+00  0.45768720974E+03  0.45768720974E+03  0.00000000000E+00 0.  1.
          2   -1    0    0  502    0  0.00000000000E+00 -0.00000000000E+00 -0.75361474742E+03  0.75361474742E+03  0.00000000000E+00 0. -1.
    9000007    1    1    2  502    0  0.38084677447E+03 -0.88543900375E+02  0.36613997500E+02  0.56055764443E+03  0.40000000000E+03 0.  1.
   -9000007    1    1    2    0  501 -0.38084677447E+03  0.88543900375E+02 -0.33254153518E+03  0.65074431272E+03  0.40000000000E+03 0. -1.
<mgrwt>
<rscale>  2 0.55936061E+03</rscale>
<asrwt>0</asrwt>
<pdfrwt beam="1">  1        2 0.11594073E+00 0.55936061E+03</pdfrwt>
<pdfrwt beam="2">  1       -2 0.70413418E-01 0.55936061E+03</pdfrwt>
<totfact> 0.70354070E+01</totfact>
</mgrwt>
</event>
<event>
 4    1  0.2247963E-002  0.4675142E+03  0.7818608E-02  0.1022624E+00
         -2   -1    0    0    0  501 -0.00000000000E+00  0.00000000000E+00  0.21002106013E+03  0.21002106013E+03  0.00000000000E+00 0. -1.
          2   -1    0    0  502    0  0.00000000000E+00 -0.00000000000E+00 -0.12972679621E+04  0.12972679621E+04  0.00000000000E+00 0.  1.
    9000007    1    1    2  502    0 -0.24186214033E+03 -0.84985360803E+01 -0.20846476628E+03  0.51188580642E+03  0.40000000000E+03 0. -1.
   -9000007    1    1    2    0  501  0.24186214033E+03  0.84985360803E+01 -0.87878213570E+03  0.99540321582E+03  0.40000000000E+03 0.  1.
<mgrwt>
<rscale>  2 0.46751419E+03</rscale>
<asrwt>0</asrwt>
<pdfrwt beam="1">  1        2 0.19957969E+00 0.46751419E+03</pdfrwt>
<pdfrwt beam="2">  1       -2 0.32310932E-01 0.46751419E+03</pdfrwt>
<totfact> 0.15404676E+02</totfact>
</mgrwt>
</event>
<event>
 4    1  0.2247963E-002  0.8273526E+03  0.7818608E-02  0.9521248E-01
          1   -1    0    0  502    0  0.00000000000E+00  0.00000000000E+00  0.13154043952E+04  0.13154043952E+04  0.00000000000E+00 0.  1.
         -1   -1    0    0    0  501 -0.00000000000E+00 -0.00000000000E+00 -0.62996344103E+03  0.62996344103E+03  0.00000000000E+00 0. -1.
    9000007    1    1    2  502    0 -0.16641327893E+03  0.70485386885E+03  0.74840009611E+03  0.11156231710E+04  0.40000000000E+03 0. -1.
   -9000007    1    1    2    0  501  0.16641327893E+03 -0.70485386885E+03 -0.62959141985E+02  0.82974466518E+03  0.40000000000E+03 0. -1.
<mgrwt>
<rscale>  2 0.82735262E+03</rscale>
<asrwt>0</asrwt>
<pdfrwt beam="1">  1        1 0.20236991E+00 0.82735262E+03</pdfrwt>
<pdfrwt beam="2">  1       -1 0.96917452E-01 0.82735262E+03</pdfrwt>
<totfact> 0.92544925E+00</totfact>
</mgrwt>
</event>
<event>
 4    1  0.2247963E-002  0.4022707E+03  0.7818608E-02  0.1042996E+00
          1   -1    0    0  502    0  0.00000000000E+00  0.00000000000E+00  0.33500935993E+03  0.33500935993E+03  0.00000000000E+00 0.  1.
         -1   -1    0    0    0  501 -0.00000000000E+00 -0.00000000000E+00 -0.88141854178E+03  0.88141854178E+03  0.00000000000E+00 0. -1.
    9000007    1    1    2  502    0 -0.40344820786E+02 -0.13927799414E+02  0.13569366809E+03  0.42454029222E+03  0.40000000000E+03 0.  1.
   -9000007    1    1    2    0  501  0.40344820786E+02  0.13927799414E+02 -0.68210284994E+03  0.79188760948E+03  0.40000000000E+03 0. -1.
<mgrwt>
<rscale>  2 0.40227067E+03</rscale>
<asrwt>0</asrwt>
<pdfrwt beam="1">  1        1 0.51539902E-01 0.40227067E+03</pdfrwt>
<pdfrwt beam="2">  1       -1 0.13560285E+00 0.40227067E+03</pdfrwt>
<totfact> 0.36795364E+01</totfact>
</mgrwt>
</event>
<event>
 4    1  0.2247963E-002  0.4696302E+03  0.7818608E-02  0.1022025E+00
         -1   -1    0    0    0  501 -0.00000000000E+00  0.00000000000E+00  0.10669243696E+03  0.10669243696E+03  0.00000000000E+00 0. -1.
          1   -1    0    0  502    0  0.00000000000E+00 -0.00000000000E+00 -0.23238424946E+04  0.23238424946E+04  0.00000000000E+00 0.  1.
    9000007    1    1    2  502    0 -0.17178629426E+03 -0.17618732626E+03 -0.15124523535E+04  0.15836870355E+04  0.40000000000E+03 0. -1.
   -9000007    1    1    2    0  501  0.17178629426E+03  0.17618732626E+03 -0.70469770419E+03  0.84684789609E+03  0.40000000000E+03 0. -1.
<mgrwt>
<rscale>  2 0.46963018E+03</rscale>
<asrwt>0</asrwt>
<pdfrwt beam="1">  1        1 0.35751421E+00 0.46963018E+03</pdfrwt>
<pdfrwt beam="2">  1       -1 0.16414222E-01 0.46963018E+03</pdfrwt>
<totfact> 0.55144371E+01</totfact>
</mgrwt>
</event>
<event>
 4    1  0.2247963E-002  0.4918136E+03  0.7818608E-02  0.1015938E+00
         -2   -1    0    0    0  501 -0.00000000000E+00  0.00000000000E+00  0.52367980216E+03  0.52367980216E+03  0.00000000000E+00 0.  1.
          2   -1    0    0  502    0  0.00000000000E+00 -0.00000000000E+00 -0.46481918539E+03  0.46481918539E+03  0.00000000000E+00 0. -1.
    9000007    1    1    2  502    0  0.25190183432E+03  0.13574271304E+03  0.68689263697E+02  0.49658718592E+03  0.40000000000E+03 0.  1.
   -9000007    1    1    2    0  501 -0.25190183432E+03 -0.13574271304E+03 -0.98286469360E+01  0.49191180163E+03  0.40000000000E+03 0. -1.
<mgrwt>
<rscale>  2 0.49181360E+03</rscale>
<asrwt>0</asrwt>
<pdfrwt beam="1">  1        2 0.71510644E-01 0.49181360E+03</pdfrwt>
<pdfrwt beam="2">  1       -2 0.80566123E-01 0.49181360E+03</pdfrwt>
<totfact> 0.93704312E+01</totfact>
</mgrwt>
</event>
<event>
 4    1  0.2247963E-002  0.5546639E+03  0.7818608E-02  0.1000420E+00
         -2   -1    0    0    0  501 -0.00000000000E+00  0.00000000000E+00  0.24395568129E+03  0.24395568129E+03  0.00000000000E+00 0.  1.
          2   -1    0    0  502    0  0.00000000000E+00 -0.00000000000E+00 -0.22698998574E+04  0.22698998574E+04  0.00000000000E+00 0. -1.
    9000007    1    1    2  502    0 -0.37401225444E+03 -0.88130163348E+02 -0.18509061541E+04  0.19322281654E+04  0.40000000000E+03 0. -1.
   -9000007    1    1    2    0  501  0.37401225444E+03  0.88130163348E+02 -0.17503802206E+03  0.58162737326E+03  0.40000000000E+03 0.  1.
<mgrwt>
<rscale>  2 0.55466395E+03</rscale>
<asrwt>0</asrwt>
<pdfrwt beam="1">  1        2 0.34921537E+00 0.55466395E+03</pdfrwt>
<pdfrwt beam="2">  1       -2 0.37531643E-01 0.55466395E+03</pdfrwt>
<totfact> 0.33796700E+01</totfact>
</mgrwt>
</event>
<event>
 4    1  0.2247963E-002  0.5220586E+03  0.7818608E-02  0.1008176E+00
         -2   -1    0    0    0  501 -0.00000000000E+00  0.00000000000E+00  0.16781880380E+03  0.16781880380E+03  0.00000000000E+00 0. -1.
          2   -1    0    0  502    0  0.00000000000E+00 -0.00000000000E+00 -0.16778116517E+04  0.16778116517E+04  0.00000000000E+00 0.  1.
    9000007    1    1    2  502    0  0.10013333579E+03  0.32018503806E+03 -0.58979904549E+03  0.78765986161E+03  0.40000000000E+03 0. -1.
   -9000007    1    1    2    0  501 -0.10013333579E+03 -0.32018503806E+03 -0.92019380244E+03  0.10579705939E+04  0.40000000000E+03 0.  1.
<mgrwt>
<rscale>  2 0.52205856E+03</rscale>
<asrwt>0</asrwt>
<pdfrwt beam="1">  1        2 0.25812487E+00 0.52205856E+03</pdfrwt>
<pdfrwt beam="2">  1       -2 0.25818277E-01 0.52205856E+03</pdfrwt>
<totfact> 0.14238597E+02</totfact>
</mgrwt>
</event>
<event>
 4    1  0.2247963E-002  0.5786555E+03  0.7818608E-02  0.9950706E-01
          2   -1    0    0  502    0  0.00000000000E+00  0.00000000000E+00  0.55359693916E+04  0.55359693916E+04  0.00000000000E+00 0. -1.
         -2   -1    0    0    0  501 -0.00000000000E+00 -0.00000000000E+00 -0.60643980465E+02  0.60643980465E+02  0.00000000000E+00 0.  1.
    9000007    1    1    2  502    0  0.41524787885E+03 -0.49105335468E+02  0.28810179114E+04  0.29385551451E+04  0.40000000000E+03 0. -1.
   -9000007    1    1    2    0  501 -0.41524787885E+03  0.49105335468E+02  0.25943074997E+04  0.26580582269E+04  0.40000000000E+03 0.  1.
<mgrwt>
<rscale>  2 0.57865545E+03</rscale>
<asrwt>0</asrwt>
<pdfrwt beam="1">  1        2 0.85168720E+00 0.57865545E+03</pdfrwt>
<pdfrwt beam="2">  1       -2 0.93298475E-02 0.57865545E+03</pdfrwt>
<totfact> 0.51651550E-01</totfact>
</mgrwt>
</event>
<event>
 4    1  0.2247963E-002  0.4659055E+03  0.7818608E-02  0.1023082E+00
         -1   -1    0    0    0  501 -0.00000000000E+00  0.00000000000E+00  0.25168727639E+04  0.25168727639E+04  0.00000000000E+00 0.  1.
          1   -1    0    0  502    0  0.00000000000E+00 -0.00000000000E+00 -0.10192137441E+03  0.10192137441E+03  0.00000000000E+00 0. -1.
    9000007    1    1    2  502    0  0.61138506472E+02 -0.23093283120E+03  0.17209993487E+04  0.17829488629E+04  0.40000000000E+03 0.  1.
   -9000007    1    1    2    0  501 -0.61138506472E+02  0.23093283120E+03  0.69395204077E+03  0.83584527539E+03  0.40000000000E+03 0. -1.
<mgrwt>
<rscale>  2 0.46590545E+03</rscale>
<asrwt>0</asrwt>
<pdfrwt beam="1">  1        1 0.15680213E-01 0.46590545E+03</pdfrwt>
<pdfrwt beam="2">  1       -1 0.38721115E+00 0.46590545E+03</pdfrwt>
<totfact> 0.35465854E+00</totfact>
</mgrwt>
</event>
<event>
 4    1  0.2247963E-002  0.6369677E+03  0.7818608E-02  0.9831545E-01
          2   -1    0    0  502    0  0.00000000000E+00  0.00000000000E+00  0.87463231002E+03  0.87463231002E+03  0.00000000000E+00 0.  1.
         -2   -1    0    0    0  501 -0.00000000000E+00 -0.00000000000E+00 -0.65153132941E+03  0.65153132941E+03  0.00000000000E+00 0. -1.
    9000007    1    1    2  502    0 -0.69823656255E+02 -0.49076723679E+03  0.52107018740E+03  0.82294712095E+03  0.40000000000E+03 0.  1.
   -9000007    1    1    2    0  501  0.69823656255E+02  0.49076723679E+03 -0.29796920679E+03  0.70321651849E+03  0.40000000000E+03 0. -1.
<mgrwt>
<rscale>  2 0.63696768E+03</rscale>
<asrwt>0</asrwt>
<pdfrwt beam="1">  1        2 0.13455882E+00 0.63696768E+03</pdfrwt>
<pdfrwt beam="2">  1       -2 0.10023559E+00 0.63696768E+03</pdfrwt>
<totfact> 0.25739119E+01</totfact>
</mgrwt>
</event>
<event>
 4    1  0.2247963E-002  0.5499694E+03  0.7818608E-02  0.1001501E+00
          2   -1    0    0  502    0  0.00000000000E+00  0.00000000000E+00  0.11605833474E+04  0.11605833474E+04  0.00000000000E+00 0.  1.
         -2   -1    0    0    0  501 -0.00000000000E+00 -0.00000000000E+00 -0.28991165881E+03  0.28991165881E+03  0.00000000000E+00 0. -1.
    9000007    1    1    2  502    0  0.12876034858E+03  0.35480567581E+03  0.20479020157E+03  0.58686056403E+03  0.40000000000E+03 0. -1.
   -9000007    1    1    2    0  501 -0.12876034858E+03 -0.35480567581E+03  0.66588148698E+03  0.86363444214E+03  0.40000000000E+03 0.  1.
<mgrwt>
<rscale>  2 0.54996936E+03</rscale>
<asrwt>0</asrwt>
<pdfrwt beam="1">  1        2 0.17855128E+00 0.54996936E+03</pdfrwt>
<pdfrwt beam="2">  1       -2 0.44601794E-01 0.54996936E+03</pdfrwt>
<totfact> 0.98599641E+01</totfact>
</mgrwt>
</event>
<event>
 4    1  0.2247963E-002  0.5759607E+03  0.7818608E-02  0.9956575E-01
          2   -1    0    0  502    0  0.00000000000E+00  0.00000000000E+00  0.14510053864E+04  0.14510053864E+04  0.00000000000E+00 0. -1.
         -2   -1    0    0    0  501 -0.00000000000E+00 -0.00000000000E+00 -0.22864161913E+03  0.22864161913E+03  0.00000000000E+00 0.  1.
    9000007    1    1    2  502    0 -0.16286545096E+03  0.38105847579E+03  0.61910169823E+03  0.84558715094E+03  0.40000000000E+03 0.  1.
   -9000007    1    1    2    0  501  0.16286545096E+03 -0.38105847579E+03  0.60326206900E+03  0.83405985456E+03  0.40000000000E+03 0.  1.
<mgrwt>
<rscale>  2 0.57596069E+03</rscale>
<asrwt>0</asrwt>
<pdfrwt beam="1">  1        2 0.22323159E+00 0.57596069E+03</pdfrwt>
<pdfrwt beam="2">  1       -2 0.35175634E-01 0.57596069E+03</pdfrwt>
<totfact> 0.10629556E+02</totfact>
</mgrwt>
</event>
<event>
 4    1  0.2247963E-002  0.4884030E+03  0.7818608E-02  0.1016851E+00
         -2   -1    0    0    0  501 -0.00000000000E+00  0.00000000000E+00  0.10774332883E+03  0.10774332883E+03  0.00000000000E+00 0.  1.
          2   -1    0    0  502    0  0.00000000000E+00 -0.00000000000E+00 -0.29526842996E+04  0.29526842996E+04  0.00000000000E+00 0. -1.
    9000007    1    1    2  502    0 -0.26380354812E+03 -0.94578875214E+02 -0.65706757581E+03  0.81870341077E+03  0.40000000000E+03 0.  1.
   -9000007    1    1    2    0  501  0.26380354812E+03  0.94578875214E+02 -0.21878733950E+04  0.22417242177E+04  0.40000000000E+03 0. -1.
<mgrwt>
<rscale>  2 0.48840298E+03</rscale>
<asrwt>0</asrwt>
<pdfrwt beam="1">  1        2 0.45425908E+00 0.48840298E+03</pdfrwt>
<pdfrwt beam="2">  1       -2 0.16575898E-01 0.48840298E+03</pdfrwt>
<totfact> 0.60728959E+01</totfact>
</mgrwt>
</event>
<event>
 4    1  0.2247963E-002  0.4481459E+03  0.7818608E-02  0.1028276E+00
         -2   -1    0    0    0  501 -0.00000000000E+00  0.00000000000E+00  0.12854606625E+03  0.12854606625E+03  0.00000000000E+00 0. -1.
          2   -1    0    0  502    0  0.00000000000E+00 -0.00000000000E+00 -0.18001954441E+04  0.18001954441E+04  0.00000000000E+00 0.  1.
    9000007    1    1    2  502    0  0.19700505702E+02 -0.20111352274E+03 -0.48529415733E+03  0.66056428763E+03  0.40000000000E+03 0.  1.
   -9000007    1    1    2    0  501 -0.19700505702E+02  0.20111352274E+03 -0.11863552205E+04  0.12681772227E+04  0.40000000000E+03 0.  1.
<mgrwt>
<rscale>  2 0.44814591E+03</rscale>
<asrwt>0</asrwt>
<pdfrwt beam="1">  1        2 0.27695315E+00 0.44814591E+03</pdfrwt>
<pdfrwt beam="2">  1       -2 0.19776317E-01 0.44814591E+03</pdfrwt>
<totfact> 0.19784696E+02</totfact>
</mgrwt>
</event>
<event>
 4    1  0.2247963E-002  0.4160769E+03  0.7818608E-02  0.1038351E+00
         -2   -1    0    0    0  501 -0.00000000000E+00  0.00000000000E+00  0.29758604885E+03  0.29758604885E+03  0.00000000000E+00 0.  1.
          2   -1    0    0  502    0  0.00000000000E+00 -0.00000000000E+00 -0.58405103229E+03  0.58405103229E+03  0.00000000000E+00 0. -1.
    9000007    1    1    2  502    0  0.70185396656E+02  0.90520917236E+02 -0.11555006030E+03  0.43182385622E+03  0.40000000000E+03 0.  1.
   -9000007    1    1    2    0  501 -0.70185396656E+02 -0.90520917236E+02 -0.17091492314E+03  0.44981322492E+03  0.40000000000E+03 0.  1.
<mgrwt>
<rscale>  2 0.41607695E+03</rscale>
<asrwt>0</asrwt>
<pdfrwt beam="1">  1        2 0.89854004E-01 0.41607695E+03</pdfrwt>
<pdfrwt beam="2">  1       -2 0.45782470E-01 0.41607695E+03</pdfrwt>
<totfact> 0.23785786E+02</totfact>
</mgrwt>
</event>
<event>
 4    1  0.2247963E-002  0.5122119E+03  0.7818608E-02  0.1010640E+00
          1   -1    0    0  502    0  0.00000000000E+00  0.00000000000E+00  0.20590102119E+04  0.20590102119E+04  0.00000000000E+00 0. -1.
         -1   -1    0    0    0  501 -0.00000000000E+00 -0.00000000000E+00 -0.15348857693E+03  0.15348857693E+03  0.00000000000E+00 0.  1.
    9000007    1    1    2  502    0 -0.27373944923E+03 -0.16561327480E+03  0.49686485918E+03  0.71360754701E+03  0.40000000000E+03 0.  1.
   -9000007    1    1    2    0  501  0.27373944923E+03  0.16561327480E+03  0.14086567758E+04  0.14988912418E+04  0.40000000000E+03 0. -1.
<mgrwt>
<rscale>  2 0.51221191E+03</rscale>
<asrwt>0</asrwt>
<pdfrwt beam="1">  1        1 0.31677078E+00 0.51221191E+03</pdfrwt>
<pdfrwt beam="2">  1       -1 0.23613629E-01 0.51221191E+03</pdfrwt>
<totfact> 0.44992437E+01</totfact>
</mgrwt>
</event>
<event>
 4    1  0.2247963E-002  0.4352372E+03  0.7818608E-02  0.1032218E+00
          2   -1    0    0  502    0  0.00000000000E+00  0.00000000000E+00  0.40323302920E+03  0.40323302920E+03  0.00000000000E+00 0. -1.
         -2   -1    0    0    0  501 -0.00000000000E+00 -0.00000000000E+00 -0.47683331438E+03  0.47683331438E+03  0.00000000000E+00 0.  1.
    9000007    1    1    2  502    0  0.15589504309E+03 -0.71611328771E+02  0.16711748688E+02  0.43555795184E+03  0.40000000000E+03 0. -1.
   -9000007    1    1    2    0  501 -0.15589504309E+03  0.71611328771E+02 -0.90312033866E+02  0.44450839174E+03  0.40000000000E+03 0.  1.
<mgrwt>
<rscale>  2 0.43523723E+03</rscale>
<asrwt>0</asrwt>
<pdfrwt beam="1">  1        2 0.62035851E-01 0.43523723E+03</pdfrwt>
<pdfrwt beam="2">  1       -2 0.73358971E-01 0.43523723E+03</pdfrwt>
<totfact> 0.13578899E+02</totfact>
</mgrwt>
</event>
<event>
 4    1  0.2247963E-002  0.4005512E+03  0.7818608E-02  0.1043589E+00
         -3   -1    0    0    0  501 -0.00000000000E+00  0.00000000000E+00  0.14266113100E+03  0.14266113100E+03  0.00000000000E+00 0.  1.
          3   -1    0    0  502    0  0.00000000000E+00 -0.00000000000E+00 -0.12795686167E+04  0.12795686167E+04  0.00000000000E+00 0. -1.
    9000007    1    1    2  502    0 -0.12117119827E+02  0.17158699723E+02 -0.81590250012E+03  0.90892141314E+03  0.40000000000E+03 0. -1.
   -9000007    1    1    2    0  501  0.12117119827E+02 -0.17158699723E+02 -0.32100498563E+03  0.51330833460E+03  0.40000000000E+03 0.  1.
<mgrwt>
<rscale>  2 0.40055118E+03</rscale>
<asrwt>0</asrwt>
<pdfrwt beam="1">  1        3 0.19685671E+00 0.40055118E+03</pdfrwt>
<pdfrwt beam="2">  1       -3 0.21947867E-01 0.40055118E+03</pdfrwt>
<totfact> 0.79112069E+00</totfact>
</mgrwt>
</event>
<event>
 4    1  0.2247963E-002  0.4831900E+03  0.7818608E-02  0.1018262E+00
         -2   -1    0    0    0  501 -0.00000000000E+00  0.00000000000E+00  0.94984148737E+02  0.94984148737E+02  0.00000000000E+00 0. -1.
          2   -1    0    0  502    0  0.00000000000E+00 -0.00000000000E+00 -0.39088562215E+04  0.39088562215E+04  0.00000000000E+00 0.  1.
    9000007    1    1    2  502    0 -0.26692617458E+03 -0.47149132447E+02 -0.68729620319E+03  0.84014801927E+03  0.40000000000E+03 0. -1.
   -9000007    1    1    2    0  501  0.26692617458E+03  0.47149132447E+02 -0.31265758696E+04  0.31636923510E+04  0.40000000000E+03 0.  1.
<mgrwt>
<rscale>  2 0.48319005E+03</rscale>
<asrwt>0</asrwt>
<pdfrwt beam="1">  1        2 0.60136243E+00 0.48319005E+03</pdfrwt>
<pdfrwt beam="2">  1       -2 0.14612948E-01 0.48319005E+03</pdfrwt>
<totfact> 0.17295092E+01</totfact>
</mgrwt>
</event>
<event>
 4    1  0.2247963E-002  0.6102644E+03  0.7818608E-02  0.9884337E-01
         -2   -1    0    0    0  501 -0.00000000000E+00  0.00000000000E+00  0.26747047954E+04  0.26747047954E+04  0.00000000000E+00 0. -1.
          2   -1    0    0  502    0  0.00000000000E+00 -0.00000000000E+00 -0.14844940373E+03  0.14844940373E+03  0.00000000000E+00 0.  1.
    9000007    1    1    2  502    0  0.17111376672E+03 -0.42795171803E+03  0.16147368996E+04  0.17262090977E+04  0.40000000000E+03 0. -1.
   -9000007    1    1    2    0  501 -0.17111376672E+03  0.42795171803E+03  0.91151849211E+03  0.10969451014E+04  0.40000000000E+03 0.  1.
<mgrwt>
<rscale>  2 0.61026436E+03</rscale>
<asrwt>0</asrwt>
<pdfrwt beam="1">  1        2 0.22838372E-01 0.61026436E+03</pdfrwt>
<pdfrwt beam="2">  1       -2 0.41149301E+00 0.61026436E+03</pdfrwt>
<totfact> 0.16517982E+00</totfact>
</mgrwt>
</event>
<event>
 4    1  0.2247963E-002  0.5776468E+03  0.7818608E-02  0.9952899E-01
         -2   -1    0    0    0  501 -0.00000000000E+00  0.00000000000E+00  0.46951042554E+03  0.46951042554E+03  0.00000000000E+00 0.  1.
          2   -1    0    0  502    0  0.00000000000E+00 -0.00000000000E+00 -0.83896003643E+03  0.83896003643E+03  0.00000000000E+00 0. -1.
    9000007    1    1    2  502    0 -0.27327331017E+03  0.31463873266E+03 -0.44054086866E+03  0.72646547826E+03  0.40000000000E+03 0. -1.
   -9000007    1    1    2    0  501  0.27327331017E+03 -0.31463873266E+03  0.71091257766E+02  0.58200498371E+03  0.40000000000E+03 0.  1.
<mgrwt>
<rscale>  2 0.57764681E+03</rscale>
<asrwt>0</asrwt>
<pdfrwt beam="1">  1        2 0.12907077E+00 0.57764681E+03</pdfrwt>
<pdfrwt beam="2">  1       -2 0.72232374E-01 0.57764681E+03</pdfrwt>
<totfact> 0.57712774E+01</totfact>
</mgrwt>
</event>
<event>
 4    1  0.2247963E-002  0.4499068E+03  0.7818608E-02  0.1027750E+00
         -3   -1    0    0    0  501 -0.00000000000E+00  0.00000000000E+00  0.26467048258E+03  0.26467048258E+03  0.00000000000E+00 0. -1.
          3   -1    0    0  502    0  0.00000000000E+00 -0.00000000000E+00 -0.11528889627E+04  0.11528889627E+04  0.00000000000E+00 0.  1.
    9000007    1    1    2  502    0 -0.13867510845E+02 -0.20548435926E+03 -0.32873037943E+02  0.45110615866E+03  0.40000000000E+03 0. -1.
   -9000007    1    1    2    0  501  0.13867510845E+02  0.20548435926E+03 -0.85534544213E+03  0.96645328658E+03  0.40000000000E+03 0.  1.
<mgrwt>
<rscale>  2 0.44990680E+03</rscale>
<asrwt>0</asrwt>
<pdfrwt beam="1">  1        3 0.17736753E+00 0.44990680E+03</pdfrwt>
<pdfrwt beam="2">  1       -3 0.40718535E-01 0.44990680E+03</pdfrwt>
<totfact> 0.32762070E+00</totfact>
</mgrwt>
</event>
<event>
 4    1  0.2247963E-002  0.4453382E+03  0.7818608E-02  0.1029121E+00
         -1   -1    0    0    0  501 -0.00000000000E+00  0.00000000000E+00  0.18855100595E+03  0.18855100595E+03  0.00000000000E+00 0. -1.
          1   -1    0    0  502    0  0.00000000000E+00 -0.00000000000E+00 -0.11340805542E+04  0.11340805542E+04  0.00000000000E+00 0.  1.
    9000007    1    1    2  502    0  0.19490840694E+03 -0.18351717989E+02 -0.29468205011E+03  0.53400710043E+03  0.40000000000E+03 0.  1.
   -9000007    1    1    2    0  501 -0.19490840694E+03  0.18351717989E+02 -0.65084749814E+03  0.78862445973E+03  0.40000000000E+03 0.  1.
<mgrwt>
<rscale>  2 0.44533816E+03</rscale>
<asrwt>0</asrwt>
<pdfrwt beam="1">  1        1 0.17447394E+00 0.44533816E+03</pdfrwt>
<pdfrwt beam="2">  1       -1 0.29007846E-01 0.44533816E+03</pdfrwt>
<totfact> 0.13564844E+02</totfact>
</mgrwt>
</event>
<event>
 4    1  0.2247963E-002  0.4187063E+03  0.7818608E-02  0.1037488E+00
         -1   -1    0    0    0  501 -0.00000000000E+00  0.00000000000E+00  0.72787609366E+02  0.72787609366E+02  0.00000000000E+00 0.  1.
          1   -1    0    0  502    0  0.00000000000E+00 -0.00000000000E+00 -0.24395762226E+04  0.24395762226E+04  0.00000000000E+00 0. -1.
    9000007    1    1    2  502    0  0.58646304406E+02 -0.10897493437E+03 -0.13249853407E+04  0.13895686663E+04  0.40000000000E+03 0.  1.
   -9000007    1    1    2    0  501 -0.58646304406E+02  0.10897493437E+03 -0.10418032725E+04  0.11227951656E+04  0.40000000000E+03 0.  1.
<mgrwt>
<rscale>  2 0.41870625E+03</rscale>
<asrwt>0</asrwt>
<pdfrwt beam="1">  1        1 0.37531940E+00 0.41870625E+03</pdfrwt>
<pdfrwt beam="2">  1       -1 0.11198094E-01 0.41870625E+03</pdfrwt>
<totfact> 0.85900515E+01</totfact>
</mgrwt>
</event>
<event>
 4    1  0.2247963E-002  0.7476138E+03  0.7818608E-02  0.9639101E-01
         -2   -1    0    0    0  501 -0.00000000000E+00  0.00000000000E+00  0.21230204058E+03  0.21230204058E+03  0.00000000000E+00 0. -1.
          2   -1    0    0  502    0  0.00000000000E+00 -0.00000000000E+00 -0.35418731135E+04  0.35418731135E+04  0.00000000000E+00 0.  1.
    9000007    1    1    2  502    0  0.46721755750E+03 -0.42501079961E+03 -0.71375901329E+03  0.10336238943E+04  0.40000000000E+03 0. -1.
   -9000007    1    1    2    0  501 -0.46721755750E+03  0.42501079961E+03 -0.26158120596E+04  0.27205512598E+04  0.40000000000E+03 0.  1.
<mgrwt>
<rscale>  2 0.74761382E+03</rscale>
<asrwt>0</asrwt>
<pdfrwt beam="1">  1        2 0.54490356E+00 0.74761382E+03</pdfrwt>
<pdfrwt beam="2">  1       -2 0.32661852E-01 0.74761382E+03</pdfrwt>
<totfact> 0.71933170E+00</totfact>
</mgrwt>
</event>
<event>
 4    1  0.2247963E-002  0.4066255E+03  0.7818608E-02  0.1041509E+00
         -2   -1    0    0    0  501 -0.00000000000E+00  0.00000000000E+00  0.55483342706E+02  0.55483342706E+02  0.00000000000E+00 0.  1.
          2   -1    0    0  502    0  0.00000000000E+00 -0.00000000000E+00 -0.31877961334E+04  0.31877961334E+04  0.00000000000E+00 0. -1.
    9000007    1    1    2  502    0  0.67659017598E+02  0.27686578312E+02 -0.11522007168E+04  0.12218472822E+04  0.40000000000E+03 0.  1.
   -9000007    1    1    2    0  501 -0.67659017598E+02 -0.27686578312E+02 -0.19801120739E+04  0.20214321939E+04  0.40000000000E+03 0. -1.
<mgrwt>
<rscale>  2 0.40662549E+03</rscale>
<asrwt>0</asrwt>
<pdfrwt beam="1">  1        2 0.49043019E+00 0.40662549E+03</pdfrwt>
<pdfrwt beam="2">  1       -2 0.85358986E-02 0.40662549E+03</pdfrwt>
<totfact> 0.13193874E+02</totfact>
</mgrwt>
</event>
<event>
 4    1  0.2247963E-002  0.4124409E+03  0.7818608E-02  0.1039555E+00
          1   -1    0    0  502    0  0.00000000000E+00  0.00000000000E+00  0.49920562249E+03  0.49920562249E+03  0.00000000000E+00 0.  1.
         -1   -1    0    0    0  501 -0.00000000000E+00 -0.00000000000E+00 -0.37080634913E+03  0.37080634913E+03  0.00000000000E+00 0. -1.
    9000007    1    1    2  502    0 -0.98167935177E+02  0.21691854148E+02 -0.59635522795E+02  0.41672997926E+03  0.40000000000E+03 0. -1.
   -9000007    1    1    2    0  501  0.98167935177E+02 -0.21691854148E+02  0.18803479616E+03  0.45328199236E+03  0.40000000000E+03 0.  1.
<mgrwt>
<rscale>  2 0.41244088E+03</rscale>
<asrwt>0</asrwt>
<pdfrwt beam="1">  1        1 0.76800865E-01 0.41244088E+03</pdfrwt>
<pdfrwt beam="2">  1       -1 0.57047131E-01 0.41244088E+03</pdfrwt>
<totfact> 0.14403068E+02</totfact>
</mgrwt>
</event>
<event>
 4    1  0.2247963E-002  0.4096937E+03  0.7818608E-02  0.1040474E+00
          1   -1    0    0  502    0  0.00000000000E+00  0.00000000000E+00  0.10849118072E+04  0.10849118072E+04  0.00000000000E+00 0.  1.
         -1   -1    0    0    0  501 -0.00000000000E+00 -0.00000000000E+00 -0.19240362661E+03  0.19240362661E+03  0.00000000000E+00 0. -1.
    9000007    1    1    2  502    0  0.17424415495E+02 -0.86863857562E+02  0.72892663904E+03  0.83617162419E+03  0.40000000000E+03 0.  1.
   -9000007    1    1    2    0  501 -0.17424415495E+02  0.86863857562E+02  0.16358154151E+03  0.44114380958E+03  0.40000000000E+03 0. -1.
<mgrwt>
<rscale>  2 0.40969371E+03</rscale>
<asrwt>0</asrwt>
<pdfrwt beam="1">  1        1 0.16690951E+00 0.40969371E+03</pdfrwt>
<pdfrwt beam="2">  1       -1 0.29600559E-01 0.40969371E+03</pdfrwt>
<totfact> 0.14298659E+02</totfact>
</mgrwt>
</event>
<event>
 4    1  0.2247963E-002  0.4401177E+03  0.7818608E-02  0.1030711E+00
          2   -1    0    0  502    0  0.00000000000E+00  0.00000000000E+00  0.12662159044E+04  0.12662159044E+04  0.00000000000E+00 0. -1.
         -2   -1    0    0    0  501 -0.00000000000E+00 -0.00000000000E+00 -0.23725061684E+03  0.23725061684E+03  0.00000000000E+00 0.  1.
    9000007    1    1    2  502    0 -0.17948161811E+03  0.38599371943E+02  0.96250794987E+03  0.10583596347E+04  0.40000000000E+03 0. -1.
   -9000007    1    1    2    0  501  0.17948161811E+03 -0.38599371943E+02  0.66457337715E+02  0.44510688659E+03  0.40000000000E+03 0.  1.
<mgrwt>
<rscale>  2 0.44011767E+03</rscale>
<asrwt>0</asrwt>
<pdfrwt beam="1">  1        2 0.19480244E+00 0.44011767E+03</pdfrwt>
<pdfrwt beam="2">  1       -2 0.36500096E-01 0.44011767E+03</pdfrwt>
<totfact> 0.12797675E+02</totfact>
</mgrwt>
</event>
<event>
 4    1  0.2247963E-002  0.4033811E+03  0.7818608E-02  0.1042615E+00
          1   -1    0    0  502    0  0.00000000000E+00  0.00000000000E+00  0.75457397704E+03  0.75457397704E+03  0.00000000000E+00 0. -1.
         -1   -1    0    0    0  501 -0.00000000000E+00 -0.00000000000E+00 -0.26426167324E+03  0.26426167324E+03  0.00000000000E+00 0.  1.
    9000007    1    1    2  502    0  0.37828890608E+02 -0.35850477089E+02  0.26645658533E+02  0.40426015484E+03  0.40000000000E+03 0.  1.
   -9000007    1    1    2    0  501 -0.37828890608E+02  0.35850477089E+02  0.46366664526E+03  0.61457549544E+03  0.40000000000E+03 0. -1.
<mgrwt>
<rscale>  2 0.40338106E+03</rscale>
<asrwt>0</asrwt>
<pdfrwt beam="1">  1        1 0.11608830E+00 0.40338106E+03</pdfrwt>
<pdfrwt beam="2">  1       -1 0.40655642E-01 0.40338106E+03</pdfrwt>
<totfact> 0.15006223E+02</totfact>
</mgrwt>
</event>
<event>
 4    1  0.2247963E-002  0.4037550E+03  0.7818608E-02  0.1042487E+00
         -1   -1    0    0    0  501 -0.00000000000E+00  0.00000000000E+00  0.51627918939E+03  0.51627918939E+03  0.00000000000E+00 0. -1.
          1   -1    0    0  502    0  0.00000000000E+00 -0.00000000000E+00 -0.31628604490E+03  0.31628604490E+03  0.00000000000E+00 0.  1.
    9000007    1    1    2  502    0  0.78481145400E+01 -0.54373572980E+02  0.82949801029E+02  0.41218775798E+03  0.40000000000E+03 0.  1.
   -9000007    1    1    2    0  501 -0.78481145400E+01  0.54373572980E+02  0.11704334345E+03  0.42037747631E+03  0.40000000000E+03 0.  1.
<mgrwt>
<rscale>  2 0.40375497E+03</rscale>
<asrwt>0</asrwt>
<pdfrwt beam="1">  1        1 0.48659392E-01 0.40375497E+03</pdfrwt>
<pdfrwt beam="2">  1       -1 0.79427568E-01 0.40375497E+03</pdfrwt>
<totfact> 0.13487860E+02</totfact>
</mgrwt>
</event>
<event>
 4    1  0.2247963E-002  0.4227780E+03  0.7818608E-02  0.1036166E+00
          1   -1    0    0  502    0  0.00000000000E+00  0.00000000000E+00  0.94814714446E+03  0.94814714446E+03  0.00000000000E+00 0.  1.
         -1   -1    0    0    0  501 -0.00000000000E+00 -0.00000000000E+00 -0.19051382304E+03  0.19051382304E+03  0.00000000000E+00 0. -1.
    9000007    1    1    2  502    0  0.47698173879E+02 -0.12832047804E+03  0.43711271208E+03  0.60811905409E+03  0.40000000000E+03 0.  1.
   -9000007    1    1    2    0  501 -0.47698173879E+02  0.12832047804E+03  0.32052060934E+03  0.53054191342E+03  0.40000000000E+03 0. -1.
<mgrwt>
<rscale>  2 0.42277803E+03</rscale>
<asrwt>0</asrwt>
<pdfrwt beam="1">  1        1 0.14586879E+00 0.42277803E+03</pdfrwt>
<pdfrwt beam="2">  1       -1 0.29309819E-01 0.42277803E+03</pdfrwt>
<totfact> 0.18428365E+02</totfact>
</mgrwt>
</event>
<event>
 4    1  0.2247963E-002  0.5298853E+03  0.7818608E-02  0.1006260E+00
          2   -1    0    0  502    0  0.00000000000E+00  0.00000000000E+00  0.10013325556E+04  0.10013325556E+04  0.00000000000E+00 0. -1.
         -2   -1    0    0    0  501 -0.00000000000E+00 -0.00000000000E+00 -0.28494281186E+03  0.28494281186E+03  0.00000000000E+00 0.  1.
    9000007    1    1    2  502    0  0.92105673067E+02 -0.33510437417E+03  0.43935836082E+03  0.68834160547E+03  0.40000000000E+03 0. -1.
   -9000007    1    1    2    0  501 -0.92105673067E+02  0.33510437417E+03  0.27703138292E+03  0.59793376198E+03  0.40000000000E+03 0.  1.
<mgrwt>
<rscale>  2 0.52988527E+03</rscale>
<asrwt>0</asrwt>
<pdfrwt beam="1">  1        2 0.15405116E+00 0.52988527E+03</pdfrwt>
<pdfrwt beam="2">  1       -2 0.43837356E-01 0.52988527E+03</pdfrwt>
<totfact> 0.12786702E+02</totfact>
</mgrwt>
</event>
<event>
 4    1  0.2247963E-002  0.4333662E+03  0.7818608E-02  0.1032802E+00
         -2   -1    0    0    0  501 -0.00000000000E+00  0.00000000000E+00  0.77486531361E+02  0.77486531361E+02  0.00000000000E+00 0.  1.
          2   -1    0    0  502    0  0.00000000000E+00 -0.00000000000E+00 -0.29263949597E+04  0.29263949597E+04  0.00000000000E+00 0. -1.
    9000007    1    1    2  502    0 -0.73607628228E+02  0.14962682286E+03 -0.80197258903E+03  0.91157353110E+03  0.40000000000E+03 0.  1.
   -9000007    1    1    2    0  501  0.73607628228E+02 -0.14962682286E+03 -0.20469358394E+04  0.20923079600E+04  0.40000000000E+03 0. -1.
<mgrwt>
<rscale>  2 0.43336621E+03</rscale>
<asrwt>0</asrwt>
<pdfrwt beam="1">  1        2 0.45021467E+00 0.43336621E+03</pdfrwt>
<pdfrwt beam="2">  1       -2 0.11921003E-01 0.43336621E+03</pdfrwt>
<totfact> 0.11036277E+02</totfact>
</mgrwt>
</event>
<event>
 4    1  0.2247963E-002  0.6168489E+03  0.7818608E-02  0.9871054E-01
          2   -1    0    0  502    0  0.00000000000E+00  0.00000000000E+00  0.38747753846E+03  0.38747753846E+03  0.00000000000E+00 0. -1.
         -2   -1    0    0    0  501 -0.00000000000E+00 -0.00000000000E+00 -0.10091736421E+04  0.10091736421E+04  0.00000000000E+00 0.  1.
    9000007    1    1    2  502    0  0.44382224951E+03 -0.15337639171E+03 -0.42544100882E+03  0.74933474408E+03  0.40000000000E+03 0.  1.
   -9000007    1    1    2    0  501 -0.44382224951E+03  0.15337639171E+03 -0.19625509482E+03  0.64731643648E+03  0.40000000000E+03 0. -1.
<mgrwt>
<rscale>  2 0.61684885E+03</rscale>
<asrwt>0</asrwt>
<pdfrwt beam="1">  1        2 0.59611929E-01 0.61684885E+03</pdfrwt>
<pdfrwt beam="2">  1       -2 0.15525748E+00 0.61684885E+03</pdfrwt>
<totfact> 0.23091953E+01</totfact>
</mgrwt>
</event>
<event>
 4    1  0.2247963E-002  0.4284009E+03  0.7818608E-02  0.1034366E+00
         -2   -1    0    0    0  501 -0.00000000000E+00  0.00000000000E+00  0.71953974190E+02  0.71953974190E+02  0.00000000000E+00 0. -1.
          2   -1    0    0  502    0  0.00000000000E+00 -0.00000000000E+00 -0.25675262520E+04  0.25675262520E+04  0.00000000000E+00 0.  1.
    9000007    1    1    2  502    0  0.14730163646E+03 -0.42773147774E+02 -0.11406977487E+04  0.12184903233E+04  0.40000000000E+03 0. -1.
   -9000007    1    1    2    0  501 -0.14730163646E+03  0.42773147774E+02 -0.13548745292E+04  0.14209899029E+04  0.40000000000E+03 0.  1.
<mgrwt>
<rscale>  2 0.42840088E+03</rscale>
<asrwt>0</asrwt>
<pdfrwt beam="1">  1        2 0.39500402E+00 0.42840088E+03</pdfrwt>
<pdfrwt beam="2">  1       -2 0.11069843E-01 0.42840088E+03</pdfrwt>
<totfact> 0.20076480E+02</totfact>
</mgrwt>
</event>
<event>
 4    1  0.2247963E-002  0.4129807E+03  0.7818608E-02  0.1039375E+00
          1   -1    0    0  502    0  0.00000000000E+00  0.00000000000E+00  0.27633053380E+04  0.27633053380E+04  0.00000000000E+00 0.  1.
         -1   -1    0    0    0  501 -0.00000000000E+00 -0.00000000000E+00 -0.67508342233E+02  0.67508342233E+02  0.00000000000E+00 0. -1.
    9000007    1    1    2  502    0  0.83725624992E+02  0.59523676226E+02  0.93346519333E+03  0.10207400822E+04  0.40000000000E+03 0. -1.
   -9000007    1    1    2    0  501 -0.83725624992E+02 -0.59523676226E+02  0.17623318025E+04  0.18100735980E+04  0.40000000000E+03 0.  1.
<mgrwt>
<rscale>  2 0.41298069E+03</rscale>
<asrwt>0</asrwt>
<pdfrwt beam="1">  1        1 0.42512381E+00 0.41298069E+03</pdfrwt>
<pdfrwt beam="2">  1       -1 0.10385901E-01 0.41298069E+03</pdfrwt>
<totfact> 0.58373557E+01</totfact>
</mgrwt>
</event>
<event>
 4    1  0.2247963E-002  0.5228763E+03  0.7818608E-02  0.1007975E+00
          2   -1    0    0  502    0  0.00000000000E+00  0.00000000000E+00  0.24213013724E+04  0.24213013724E+04  0.00000000000E+00 0.  1.
         -2   -1    0    0    0  501 -0.00000000000E+00 -0.00000000000E+00 -0.12821887768E+03  0.12821887768E+03  0.00000000000E+00 0. -1.
    9000007    1    1    2  502    0 -0.59848929081E+02 -0.33138756855E+03  0.15869569315E+04  0.16708775890E+04  0.40000000000E+03 0.  1.
   -9000007    1    1    2    0  501  0.59848929081E+02  0.33138756855E+03  0.70612556324E+03  0.87864266114E+03  0.40000000000E+03 0. -1.
<mgrwt>
<rscale>  2 0.52287629E+03</rscale>
<asrwt>0</asrwt>
<pdfrwt beam="1">  1        2 0.37250787E+00 0.52287629E+03</pdfrwt>
<pdfrwt beam="2">  1       -2 0.19725983E-01 0.52287629E+03</pdfrwt>
<totfact> 0.90454168E+01</totfact>
</mgrwt>
</event>
<event>
 4    1  0.2247963E-002  0.4540992E+03  0.7818608E-02  0.1026507E+00
          1   -1    0    0  502    0  0.00000000000E+00  0.00000000000E+00  0.11350313644E+04  0.11350313644E+04  0.00000000000E+00 0.  1.
         -1   -1    0    0    0  501 -0.00000000000E+00 -0.00000000000E+00 -0.36957026050E+03  0.36957026050E+03  0.00000000000E+00 0. -1.
    9000007    1    1    2  502    0  0.21461363008E+03  0.12128843795E+02 -0.15368536048E+03  0.47940098988E+03  0.40000000000E+03 0. -1.
   -9000007    1    1    2    0  501 -0.21461363008E+03 -0.12128843795E+02  0.91914646439E+03  0.10252006350E+04  0.40000000000E+03 0.  1.
<mgrwt>
<rscale>  2 0.45409924E+03</rscale>
<asrwt>0</asrwt>
<pdfrwt beam="1">  1        1 0.17462021E+00 0.45409924E+03</pdfrwt>
<pdfrwt beam="2">  1       -1 0.56856964E-01 0.45409924E+03</pdfrwt>
<totfact> 0.39975054E+01</totfact>
</mgrwt>
</event>
<event>
 4    1  0.2247963E-002  0.6170753E+03  0.7818608E-02  0.9870600E-01
         -1   -1    0    0    0  501 -0.00000000000E+00  0.00000000000E+00  0.27328875306E+04  0.27328875306E+04  0.00000000000E+00 0.  1.
          1   -1    0    0  502    0  0.00000000000E+00 -0.00000000000E+00 -0.23869719417E+03  0.23869719417E+03  0.00000000000E+00 0. -1.
    9000007    1    1    2  502    0 -0.46215519626E+03 -0.84820725304E+02  0.22057206567E+04  0.22904116653E+04  0.40000000000E+03 0.  1.
   -9000007    1    1    2    0  501  0.46215519626E+03  0.84820725304E+02  0.28846967970E+03  0.68117305950E+03  0.40000000000E+03 0. -1.
<mgrwt>
<rscale>  2 0.61707534E+03</rscale>
<asrwt>0</asrwt>
<pdfrwt beam="1">  1        1 0.36722647E-01 0.61707534E+03</pdfrwt>
<pdfrwt beam="2">  1       -1 0.42044421E+00 0.61707534E+03</pdfrwt>
<totfact> 0.67155968E-01</totfact>
</mgrwt>
</event>
<event>
 4    1  0.2247963E-002  0.4543091E+03  0.7818608E-02  0.1026445E+00
          2   -1    0    0  502    0  0.00000000000E+00  0.00000000000E+00  0.36636571635E+04  0.36636571635E+04  0.00000000000E+00 0.  1.
         -2   -1    0    0    0  501 -0.00000000000E+00 -0.00000000000E+00 -0.56341950205E+02  0.56341950205E+02  0.00000000000E+00 0. -1.
    9000007    1    1    2  502    0 -0.43436473109E+02  0.21097403325E+03  0.17849776702E+04  0.18418854614E+04  0.40000000000E+03 0.  1.
   -9000007    1    1    2    0  501  0.43436473109E+02 -0.21097403325E+03  0.18223375431E+04  0.18781136523E+04  0.40000000000E+03 0.  1.
<mgrwt>
<rscale>  2 0.45430911E+03</rscale>
<asrwt>0</asrwt>
<pdfrwt beam="1">  1        2 0.56363938E+00 0.45430911E+03</pdfrwt>
<pdfrwt beam="2">  1       -2 0.86679952E-02 0.45430911E+03</pdfrwt>
<totfact> 0.61701241E+01</totfact>
</mgrwt>
</event>
<event>
 4    1  0.2247963E-002  0.4040326E+03  0.7818608E-02  0.1042392E+00
          2   -1    0    0  502    0  0.00000000000E+00  0.00000000000E+00  0.10497504813E+04  0.10497504813E+04  0.00000000000E+00 0. -1.
         -2   -1    0    0    0  501 -0.00000000000E+00 -0.00000000000E+00 -0.17637589947E+03  0.17637589947E+03  0.00000000000E+00 0.  1.
    9000007    1    1    2  502    0 -0.56434352404E+02  0.75849116764E+01  0.22580160601E+03  0.46284849821E+03  0.40000000000E+03 0.  1.
   -9000007    1    1    2    0  501  0.56434352404E+02 -0.75849116764E+01  0.64757297586E+03  0.76327788261E+03  0.40000000000E+03 0. -1.
<mgrwt>
<rscale>  2 0.40403263E+03</rscale>
<asrwt>0</asrwt>
<pdfrwt beam="1">  1        2 0.16150007E+00 0.40403263E+03</pdfrwt>
<pdfrwt beam="2">  1       -2 0.27134754E-01 0.40403263E+03</pdfrwt>
<totfact> 0.29849925E+02</totfact>
</mgrwt>
</event>
<event>
 4    1  0.2247963E-002  0.5094302E+03  0.7818608E-02  0.1011346E+00
         -1   -1    0    0    0  501 -0.00000000000E+00  0.00000000000E+00  0.15693840687E+03  0.15693840687E+03  0.00000000000E+00 0.  1.
          1   -1    0    0  502    0  0.00000000000E+00 -0.00000000000E+00 -0.20207033782E+04  0.20207033782E+04  0.00000000000E+00 0. -1.
    9000007    1    1    2  502    0  0.28015243293E+03  0.14503021222E+03 -0.46781889495E+03  0.69164562212E+03  0.40000000000E+03 0.  1.
   -9000007    1    1    2    0  501 -0.28015243293E+03 -0.14503021222E+03 -0.13959460764E+04  0.14859961630E+04  0.40000000000E+03 0. -1.
<mgrwt>
<rscale>  2 0.50943022E+03</rscale>
<asrwt>0</asrwt>
<pdfrwt beam="1">  1        1 0.31087743E+00 0.50943022E+03</pdfrwt>
<pdfrwt beam="2">  1       -1 0.24144371E-01 0.50943022E+03</pdfrwt>
<totfact> 0.45968207E+01</totfact>
</mgrwt>
</event>
<event>
 4    1  0.2247963E-002  0.6497400E+03  0.7818608E-02  0.9807267E-01
          2   -1    0    0  502    0  0.00000000000E+00  0.00000000000E+00  0.38218957003E+03  0.38218957003E+03  0.00000000000E+00 0.  1.
         -2   -1    0    0    0  501 -0.00000000000E+00 -0.00000000000E+00 -0.11178612216E+04  0.11178612216E+04  0.00000000000E+00 0. -1.
    9000007    1    1    2  502    0  0.41416425889E+03  0.30104812989E+03 -0.44956372247E+03  0.79010730310E+03  0.40000000000E+03 0. -1.
   -9000007    1    1    2    0  501 -0.41416425889E+03 -0.30104812989E+03 -0.28610792913E+03  0.70994348857E+03  0.40000000000E+03 0.  1.
<mgrwt>
<rscale>  2 0.64973996E+03</rscale>
<asrwt>0</asrwt>
<pdfrwt beam="1">  1        2 0.58798397E-01 0.64973996E+03</pdfrwt>
<pdfrwt beam="2">  1       -2 0.17197865E+00 0.64973996E+03</pdfrwt>
<totfact> 0.17692209E+01</totfact>
</mgrwt>
</event>
<event>
 4    1  0.2247963E-002  0.4385698E+03  0.7818608E-02  0.1031187E+00
         -2   -1    0    0    0  501 -0.00000000000E+00  0.00000000000E+00  0.13287182756E+03  0.13287182756E+03  0.00000000000E+00 0. -1.
          2   -1    0    0  502    0  0.00000000000E+00 -0.00000000000E+00 -0.19725770180E+04  0.19725770180E+04  0.00000000000E+00 0.  1.
    9000007    1    1    2  502    0  0.17344254729E+03 -0.47551903149E+02 -0.37676069091E+03  0.57818000564E+03  0.40000000000E+03 0. -1.
   -9000007    1    1    2    0  501 -0.17344254729E+03  0.47551903149E+02 -0.14629444996E+04  0.15272688400E+04  0.40000000000E+03 0.  1.
<mgrwt>
<rscale>  2 0.43856984E+03</rscale>
<asrwt>0</asrwt>
<pdfrwt beam="1">  1        2 0.30347337E+00 0.43856984E+03</pdfrwt>
<pdfrwt beam="2">  1       -2 0.20441821E-01 0.43856984E+03</pdfrwt>
<totfact> 0.15126706E+02</totfact>
</mgrwt>
</event>
<event>
 4    1  0.2247963E-002  0.1077604E+04  0.7818608E-02  0.9227300E-01
          1   -1    0    0  502    0  0.00000000000E+00  0.00000000000E+00  0.22568840143E+04  0.22568840143E+04  0.00000000000E+00 0.  1.
         -1   -1    0    0    0  501 -0.00000000000E+00 -0.00000000000E+00 -0.53818879516E+03  0.53818879516E+03  0.00000000000E+00 0. -1.
    9000007    1    1    2  502    0  0.97856130642E+03 -0.20891982464E+03  0.56631788991E+03  0.12173519113E+04  0.40000000000E+03 0.  1.
   -9000007    1    1    2    0  501 -0.97856130642E+03  0.20891982464E+03  0.11523773292E+04  0.15777208982E+04  0.40000000000E+03 0. -1.
<mgrwt>
<rscale>  2 0.10776037E+04</rscale>
<asrwt>0</asrwt>
<pdfrwt beam="1">  1        1 0.34721292E+00 0.10776037E+04</pdfrwt>
<pdfrwt beam="2">  1       -1 0.82798277E-01 0.10776037E+04</pdfrwt>
<totfact> 0.28993346E+00</totfact>
</mgrwt>
</event>
<event>
 4    1  0.2247963E-002  0.4645016E+03  0.7818608E-02  0.1023484E+00
          2   -1    0    0  502    0  0.00000000000E+00  0.00000000000E+00  0.12851838840E+04  0.12851838840E+04  0.00000000000E+00 0.  1.
         -2   -1    0    0    0  501 -0.00000000000E+00 -0.00000000000E+00 -0.18033553327E+03  0.18033553327E+03  0.00000000000E+00 0. -1.
    9000007    1    1    2  502    0  0.17427855365E+03  0.15933850964E+03  0.35987891355E+03  0.58760072101E+03  0.40000000000E+03 0. -1.
   -9000007    1    1    2    0  501 -0.17427855365E+03 -0.15933850964E+03  0.74496943719E+03  0.87791869627E+03  0.40000000000E+03 0.  1.
<mgrwt>
<rscale>  2 0.46450164E+03</rscale>
<asrwt>0</asrwt>
<pdfrwt beam="1">  1        2 0.19772059E+00 0.46450164E+03</pdfrwt>
<pdfrwt beam="2">  1       -2 0.27743929E-01 0.46450164E+03</pdfrwt>
<totfact> 0.20725760E+02</totfact>
</mgrwt>
</event>
<event>
 4    1  0.2247963E-002  0.6385352E+03  0.7818608E-02  0.9828533E-01
         -2   -1    0    0    0  501 -0.00000000000E+00  0.00000000000E+00  0.24102701384E+03  0.24102701384E+03  0.00000000000E+00 0. -1.
          2   -1    0    0  502    0  0.00000000000E+00 -0.00000000000E+00 -0.17570472337E+04  0.17570472337E+04  0.00000000000E+00 0.  1.
    9000007    1    1    2  502    0 -0.46778131058E+03  0.17002313787E+03 -0.95078655820E+03  0.11453044579E+04  0.40000000000E+03 0.  1.
   -9000007    1    1    2    0  501  0.46778131058E+03 -0.17002313787E+03 -0.56523366169E+03  0.85276978971E+03  0.40000000000E+03 0. -1.
<mgrwt>
<rscale>  2 0.63853522E+03</rscale>
<asrwt>0</asrwt>
<pdfrwt beam="1">  1        2 0.27031497E+00 0.63853522E+03</pdfrwt>
<pdfrwt beam="2">  1       -2 0.37081078E-01 0.63853522E+03</pdfrwt>
<totfact> 0.64846447E+01</totfact>
</mgrwt>
</event>
<event>
 4    1  0.2247963E-002  0.4601015E+03  0.7818608E-02  0.1024752E+00
          2   -1    0    0  502    0  0.00000000000E+00  0.00000000000E+00  0.77229493602E+03  0.77229493602E+03  0.00000000000E+00 0. -1.
         -2   -1    0    0    0  501 -0.00000000000E+00 -0.00000000000E+00 -0.27740822787E+03  0.27740822787E+03  0.00000000000E+00 0.  1.
    9000007    1    1    2  502    0 -0.10234162962E+03 -0.20302603804E+03  0.30467679701E+03  0.55183451497E+03  0.40000000000E+03 0. -1.
   -9000007    1    1    2    0  501  0.10234162962E+03  0.20302603804E+03  0.19020991115E+03  0.49786864892E+03  0.40000000000E+03 0.  1.
<mgrwt>
<rscale>  2 0.46010149E+03</rscale>
<asrwt>0</asrwt>
<pdfrwt beam="1">  1        2 0.11881460E+00 0.46010149E+03</pdfrwt>
<pdfrwt beam="2">  1       -2 0.42678189E-01 0.46010149E+03</pdfrwt>
<totfact> 0.19324530E+02</totfact>
</mgrwt>
</event>
<event>
 4    1  0.2247963E-002  0.4337406E+03  0.7818608E-02  0.1032685E+00
          2   -1    0    0  502    0  0.00000000000E+00  0.00000000000E+00  0.25906613995E+03  0.25906613995E+03  0.00000000000E+00 0. -1.
         -2   -1    0    0    0  501 -0.00000000000E+00 -0.00000000000E+00 -0.11039051406E+04  0.11039051406E+04  0.00000000000E+00 0.  1.
    9000007    1    1    2  502    0  0.14634544400E+03 -0.81938468900E+02 -0.82105298798E+03  0.92857897389E+03  0.40000000000E+03 0.  1.
   -9000007    1    1    2    0  501 -0.14634544400E+03  0.81938468900E+02 -0.23786012640E+02  0.43439230664E+03  0.40000000000E+03 0. -1.
<mgrwt>
<rscale>  2 0.43374059E+03</rscale>
<asrwt>0</asrwt>
<pdfrwt beam="1">  1        2 0.39856329E-01 0.43374059E+03</pdfrwt>
<pdfrwt beam="2">  1       -2 0.16983156E+00 0.43374059E+03</pdfrwt>
<totfact> 0.28822148E+01</totfact>
</mgrwt>
</event>
<event>
 4    1  0.2247963E-002  0.4040079E+03  0.7818608E-02  0.1042401E+00
          2   -1    0    0  502    0  0.00000000000E+00  0.00000000000E+00  0.95362636754E+03  0.95362636754E+03  0.00000000000E+00 0. -1.
         -2   -1    0    0    0  501 -0.00000000000E+00 -0.00000000000E+00 -0.17120348956E+03  0.17120348956E+03  0.00000000000E+00 0.  1.
    9000007    1    1    2  502    0 -0.56443251284E+02  0.60478274311E+01  0.40020462894E+03  0.56867052135E+03  0.40000000000E+03 0.  1.
   -9000007    1    1    2    0  501  0.56443251284E+02 -0.60478274311E+01  0.38221824904E+03  0.55615933574E+03  0.40000000000E+03 0.  1.
<mgrwt>
<rscale>  2 0.40400794E+03</rscale>
<asrwt>0</asrwt>
<pdfrwt beam="1">  1        2 0.14671175E+00 0.40400794E+03</pdfrwt>
<pdfrwt beam="2">  1       -2 0.26338999E-01 0.40400794E+03</pdfrwt>
<totfact> 0.36161821E+02</totfact>
</mgrwt>
</event>
<event>
 4    1  0.2247963E-002  0.4576005E+03  0.7818608E-02  0.1025479E+00
          2   -1    0    0  502    0  0.00000000000E+00  0.00000000000E+00  0.77592339822E+03  0.77592339822E+03  0.00000000000E+00 0.  1.
         -2   -1    0    0    0  501 -0.00000000000E+00 -0.00000000000E+00 -0.35262236268E+03  0.35262236268E+03  0.00000000000E+00 0. -1.
    9000007    1    1    2  502    0  0.20922232087E+03  0.74994768873E+02  0.48500443882E+03  0.66680394464E+03  0.40000000000E+03 0.  1.
   -9000007    1    1    2    0  501 -0.20922232087E+03 -0.74994768873E+02 -0.61703403289E+02  0.46174181626E+03  0.40000000000E+03 0. -1.
<mgrwt>
<rscale>  2 0.45760048E+03</rscale>
<asrwt>0</asrwt>
<pdfrwt beam="1">  1        2 0.11937283E+00 0.45760048E+03</pdfrwt>
<pdfrwt beam="2">  1       -2 0.54249594E-01 0.45760048E+03</pdfrwt>
<totfact> 0.11875635E+02</totfact>
</mgrwt>
</event>
<event>
 4    1  0.2247963E-002  0.4039421E+03  0.7818608E-02  0.1042423E+00
          2   -1    0    0  502    0  0.00000000000E+00  0.00000000000E+00  0.31465219832E+03  0.31465219832E+03  0.00000000000E+00 0.  1.
         -2   -1    0    0    0  501 -0.00000000000E+00 -0.00000000000E+00 -0.55891220172E+03  0.55891220172E+03  0.00000000000E+00 0. -1.
    9000007    1    1    2  502    0  0.38375701808E+02  0.41188489904E+02 -0.23947727636E+03  0.46959402901E+03  0.40000000000E+03 0. -1.
   -9000007    1    1    2    0  501 -0.38375701808E+02 -0.41188489904E+02 -0.47827270369E+01  0.40397037103E+03  0.40000000000E+03 0.  1.
<mgrwt>
<rscale>  2 0.40394206E+03</rscale>
<asrwt>0</asrwt>
<pdfrwt beam="1">  1        2 0.48408031E-01 0.40394206E+03</pdfrwt>
<pdfrwt beam="2">  1       -2 0.85986492E-01 0.40394206E+03</pdfrwt>
<totfact> 0.12559261E+02</totfact>
</mgrwt>
</event>
<event>
 4    1  0.2247963E-002  0.4309619E+03  0.7818608E-02  0.1033557E+00
         -1   -1    0    0    0  501 -0.00000000000E+00  0.00000000000E+00  0.10895081377E+04  0.10895081377E+04  0.00000000000E+00 0. -1.
          1   -1    0    0  502    0  0.00000000000E+00 -0.00000000000E+00 -0.19610924141E+03  0.19610924141E+03  0.00000000000E+00 0.  1.
    9000007    1    1    2  502    0 -0.14462815045E+03  0.69360641828E+02  0.21427208706E+03  0.48129068953E+03  0.40000000000E+03 0.  1.
   -9000007    1    1    2    0  501  0.14462815045E+03 -0.69360641828E+02  0.67912680920E+03  0.80432668955E+03  0.40000000000E+03 0. -1.
<mgrwt>
<rscale>  2 0.43096195E+03</rscale>
<asrwt>0</asrwt>
<pdfrwt beam="1">  1        1 0.30170653E-01 0.43096195E+03</pdfrwt>
<pdfrwt beam="2">  1       -1 0.16761663E+00 0.43096195E+03</pdfrwt>
<totfact> 0.41297973E+01</totfact>
</mgrwt>
</event>
<event>
 4    1  0.2247963E-002  0.5040828E+03  0.7818608E-02  0.1012719E+00
          1   -1    0    0  502    0  0.00000000000E+00  0.00000000000E+00  0.12914373135E+04  0.12914373135E+04  0.00000000000E+00 0. -1.
         -1   -1    0    0    0  501 -0.00000000000E+00 -0.00000000000E+00 -0.20144405975E+03  0.20144405975E+03  0.00000000000E+00 0.  1.
    9000007    1    1    2  502    0  0.24059392797E+03  0.19029984868E+03  0.43113868571E+03  0.66330991015E+03  0.40000000000E+03 0. -1.
   -9000007    1    1    2    0  501 -0.24059392797E+03 -0.19029984868E+03  0.65885456808E+03  0.82957146315E+03  0.40000000000E+03 0. -1.
<mgrwt>
<rscale>  2 0.50408280E+03</rscale>
<asrwt>0</asrwt>
<pdfrwt beam="1">  1        1 0.19868266E+00 0.50408280E+03</pdfrwt>
<pdfrwt beam="2">  1       -1 0.30991395E-01 0.50408280E+03</pdfrwt>
<totfact> 0.92753364E+01</totfact>
</mgrwt>
</event>
<event>
 4    1  0.2247963E-002  0.5769610E+03  0.7818608E-02  0.9954392E-01
         -1   -1    0    0    0  501 -0.00000000000E+00  0.00000000000E+00  0.63755861167E+03  0.63755861167E+03  0.00000000000E+00 0. -1.
          1   -1    0    0  502    0  0.00000000000E+00 -0.00000000000E+00 -0.64399059318E+03  0.64399059318E+03  0.00000000000E+00 0.  1.
    9000007    1    1    2  502    0  0.30785680771E+03 -0.27947850455E+03 -0.28196257310E+03  0.64217360674E+03  0.40000000000E+03 0.  1.
   -9000007    1    1    2    0  501 -0.30785680771E+03  0.27947850455E+03  0.27553059159E+03  0.63937559811E+03  0.40000000000E+03 0. -1.
<mgrwt>
<rscale>  2 0.57696105E+03</rscale>
<asrwt>0</asrwt>
<pdfrwt beam="1">  1        1 0.99075476E-01 0.57696105E+03</pdfrwt>
<pdfrwt beam="2">  1       -1 0.98085940E-01 0.57696105E+03</pdfrwt>
<totfact> 0.32132511E+01</totfact>
</mgrwt>
</event>
<event>
 4    1  0.2247963E-002  0.5116761E+03  0.7818608E-02  0.1010775E+00
          2   -1    0    0  502    0  0.00000000000E+00  0.00000000000E+00  0.20779339283E+04  0.20779339283E+04  0.00000000000E+00 0.  1.
         -2   -1    0    0    0  501 -0.00000000000E+00 -0.00000000000E+00 -0.13191748816E+03  0.13191748816E+03  0.00000000000E+00 0. -1.
    9000007    1    1    2  502    0  0.15812028061E+03  0.27714693754E+03  0.73892074494E+03  0.89878602316E+03  0.40000000000E+03 0. -1.
   -9000007    1    1    2    0  501 -0.15812028061E+03 -0.27714693754E+03  0.12070956952E+04  0.13110653933E+04  0.40000000000E+03 0.  1.
<mgrwt>
<rscale>  2 0.51167612E+03</rscale>
<asrwt>0</asrwt>
<pdfrwt beam="1">  1        2 0.31968212E+00 0.51167612E+03</pdfrwt>
<pdfrwt beam="2">  1       -2 0.20295000E-01 0.51167612E+03</pdfrwt>
<totfact> 0.13291212E+02</totfact>
</mgrwt>
</event>
<event>
 4    1  0.2247963E-002  0.4642130E+03  0.7818608E-02  0.1023566E+00
          2   -1    0    0  502    0  0.00000000000E+00  0.00000000000E+00  0.12874012320E+03  0.12874012320E+03  0.00000000000E+00 0.  1.
         -2   -1    0    0    0  501 -0.00000000000E+00 -0.00000000000E+00 -0.16772530064E+04  0.16772530064E+04  0.00000000000E+00 0. -1.
    9000007    1    1    2  502    0 -0.27379910303E+02 -0.23397441927E+03 -0.81483607462E+03  0.93779076390E+03  0.40000000000E+03 0. -1.
   -9000007    1    1    2    0  501  0.27379910303E+02  0.23397441927E+03 -0.73367680855E+03  0.86820236567E+03  0.40000000000E+03 0. -1.
<mgrwt>
<rscale>  2 0.46421298E+03</rscale>
<asrwt>0</asrwt>
<pdfrwt beam="1">  1        2 0.19806174E-01 0.46421298E+03</pdfrwt>
<pdfrwt beam="2">  1       -2 0.25803891E+00 0.46421298E+03</pdfrwt>
<totfact> 0.17500239E+01</totfact>
</mgrwt>
</event>
<event>
 4    1  0.2247963E-002  0.4606765E+03  0.7818608E-02  0.1024585E+00
         -2   -1    0    0    0  501 -0.00000000000E+00  0.00000000000E+00  0.70846659505E+03  0.70846659505E+03  0.00000000000E+00 0. -1.
          2   -1    0    0  502    0  0.00000000000E+00 -0.00000000000E+00 -0.29956147655E+03  0.29956147655E+03  0.00000000000E+00 0.  1.
    9000007    1    1    2  502    0 -0.19682087091E+03 -0.11612228410E+03  0.20723310270E+03  0.50514195920E+03  0.40000000000E+03 0. -1.
   -9000007    1    1    2    0  501  0.19682087091E+03  0.11612228410E+03  0.20167201580E+03  0.50288611240E+03  0.40000000000E+03 0. -1.
<mgrwt>
<rscale>  2 0.46067650E+03</rscale>
<asrwt>0</asrwt>
<pdfrwt beam="1">  1        2 0.46086381E-01 0.46067650E+03</pdfrwt>
<pdfrwt beam="2">  1       -2 0.10899486E+00 0.46067650E+03</pdfrwt>
<totfact> 0.75958649E+01</totfact>
</mgrwt>
</event>
<event>
 4    1  0.2247963E-002  0.5062736E+03  0.7818608E-02  0.1012154E+00
         -1   -1    0    0    0  501 -0.00000000000E+00  0.00000000000E+00  0.32260276964E+03  0.32260276964E+03  0.00000000000E+00 0.  1.
          1   -1    0    0  502    0  0.00000000000E+00 -0.00000000000E+00 -0.92581316856E+03  0.92581316856E+03  0.00000000000E+00 0. -1.
    9000007    1    1    2  502    0 -0.28688146450E+03 -0.11837218452E+03 -0.53667448836E+03  0.73778889609E+03  0.40000000000E+03 0. -1.
   -9000007    1    1    2    0  501  0.28688146450E+03  0.11837218452E+03 -0.66535910558E+02  0.51062704211E+03  0.40000000000E+03 0.  1.
<mgrwt>
<rscale>  2 0.50627359E+03</rscale>
<asrwt>0</asrwt>
<pdfrwt beam="1">  1        1 0.14243280E+00 0.50627359E+03</pdfrwt>
<pdfrwt beam="2">  1       -1 0.49631195E-01 0.50627359E+03</pdfrwt>
<totfact> 0.73941136E+01</totfact>
</mgrwt>
</event>
<event>
 4    1  0.2247963E-002  0.4002288E+03  0.7818608E-02  0.1043700E+00
          1   -1    0    0  502    0  0.00000000000E+00  0.00000000000E+00  0.38797513550E+04  0.38797513550E+04  0.00000000000E+00 0. -1.
         -1   -1    0    0    0  501 -0.00000000000E+00 -0.00000000000E+00 -0.41731278103E+02  0.41731278103E+02  0.00000000000E+00 0.  1.
    9000007    1    1    2  502    0  0.10325106279E+02  0.87472542317E+01  0.21213299229E+04  0.21587551422E+04  0.40000000000E+03 0. -1.
   -9000007    1    1    2    0  501 -0.10325106279E+02 -0.87472542317E+01  0.17166901540E+04  0.17627274909E+04  0.40000000000E+03 0.  1.
<mgrwt>
<rscale>  2 0.40022884E+03</rscale>
<asrwt>0</asrwt>
<pdfrwt beam="1">  1        1 0.59688454E+00 0.40022884E+03</pdfrwt>
<pdfrwt beam="2">  1       -1 0.64201997E-02 0.40022884E+03</pdfrwt>
<totfact> 0.18140053E+01</totfact>
</mgrwt>
</event>
<event>
 4    1  0.2247963E-002  0.4299975E+03  0.7818608E-02  0.1033861E+00
         -2   -1    0    0    0  501 -0.00000000000E+00  0.00000000000E+00  0.35135827549E+03  0.35135827549E+03  0.00000000000E+00 0.  1.
          2   -1    0    0  502    0  0.00000000000E+00 -0.00000000000E+00 -0.57526953007E+03  0.57526953007E+03  0.00000000000E+00 0. -1.
    9000007    1    1    2  502    0 -0.12547484027E+03  0.95676302469E+02 -0.24721884400E+03  0.49599903954E+03  0.40000000000E+03 0. -1.
   -9000007    1    1    2    0  501  0.12547484027E+03 -0.95676302469E+02  0.23307589416E+02  0.43062876602E+03  0.40000000000E+03 0.  1.
<mgrwt>
<rscale>  2 0.42999755E+03</rscale>
<asrwt>0</asrwt>
<pdfrwt beam="1">  1        2 0.88503004E-01 0.42999755E+03</pdfrwt>
<pdfrwt beam="2">  1       -2 0.54055120E-01 0.42999755E+03</pdfrwt>
<totfact> 0.17306700E+02</totfact>
</mgrwt>
</event>
<event>
 4    1  0.2247963E-002  0.4097642E+03  0.7818608E-02  0.1040450E+00
         -1   -1    0    0    0  501 -0.00000000000E+00  0.00000000000E+00  0.29368166527E+03  0.29368166527E+03  0.00000000000E+00 0.  1.
          1   -1    0    0  502    0  0.00000000000E+00 -0.00000000000E+00 -0.57630971897E+03  0.57630971897E+03  0.00000000000E+00 0. -1.
    9000007    1    1    2  502    0  0.86670747137E+02 -0.19871031235E+02 -0.10253766450E+03  0.42239868481E+03  0.40000000000E+03 0.  1.
   -9000007    1    1    2    0  501 -0.86670747137E+02  0.19871031235E+02 -0.18009038920E+03  0.44759269942E+03  0.40000000000E+03 0. -1.
<mgrwt>
<rscale>  2 0.40976417E+03</rscale>
<asrwt>0</asrwt>
<pdfrwt beam="1">  1        1 0.88663034E-01 0.40976417E+03</pdfrwt>
<pdfrwt beam="2">  1       -1 0.45181795E-01 0.40976417E+03</pdfrwt>
<totfact> 0.18328713E+02</totfact>
</mgrwt>
</event>
<event>
 4    1  0.2247963E-002  0.4149065E+03  0.7818608E-02  0.1038737E+00
         -2   -1    0    0    0  501 -0.00000000000E+00  0.00000000000E+00  0.61051083238E+02  0.61051083238E+02  0.00000000000E+00 0. -1.
          2   -1    0    0  502    0  0.00000000000E+00 -0.00000000000E+00 -0.28397587957E+04  0.28397587957E+04  0.00000000000E+00 0.  1.
    9000007    1    1    2  502    0 -0.65083829097E+02  0.88946399147E+02 -0.12675356435E+04  0.13337143526E+04  0.40000000000E+03 0.  1.
   -9000007    1    1    2    0  501  0.65083829097E+02 -0.88946399147E+02 -0.15111720689E+04  0.15670955263E+04  0.40000000000E+03 0.  1.
<mgrwt>
<rscale>  2 0.41490646E+03</rscale>
<asrwt>0</asrwt>
<pdfrwt beam="1">  1        2 0.43688594E+00 0.41490646E+03</pdfrwt>
<pdfrwt beam="2">  1       -2 0.93924750E-02 0.41490646E+03</pdfrwt>
<totfact> 0.18328864E+02</totfact>
</mgrwt>
</event>
<event>
 4    1  0.2247963E-002  0.4080730E+03  0.7818608E-02  0.1041020E+00
          2   -1    0    0  502    0  0.00000000000E+00  0.00000000000E+00  0.17017750350E+04  0.17017750350E+04  0.00000000000E+00 0.  1.
         -2   -1    0    0    0  501 -0.00000000000E+00 -0.00000000000E+00 -0.10794788688E+03  0.10794788688E+03  0.00000000000E+00 0. -1.
    9000007    1    1    2  502    0 -0.46332370407E+02 -0.66158082223E+02  0.10736258511E+04  0.11485626011E+04  0.40000000000E+03 0.  1.
   -9000007    1    1    2    0  501  0.46332370407E+02  0.66158082223E+02  0.52020129698E+03  0.66116032078E+03  0.40000000000E+03 0. -1.
<mgrwt>
<rscale>  2 0.40807301E+03</rscale>
<asrwt>0</asrwt>
<pdfrwt beam="1">  1        2 0.26181152E+00 0.40807301E+03</pdfrwt>
<pdfrwt beam="2">  1       -2 0.16607369E-01 0.40807301E+03</pdfrwt>
<totfact> 0.30281278E+02</totfact>
</mgrwt>
</event>
<event>
 4    1  0.2247963E-002  0.5777501E+03  0.7818608E-02  0.9952674E-01
         -2   -1    0    0    0  501 -0.00000000000E+00  0.00000000000E+00  0.10067093347E+04  0.10067093347E+04  0.00000000000E+00 0. -1.
          2   -1    0    0  502    0  0.00000000000E+00 -0.00000000000E+00 -0.52396810506E+03  0.52396810506E+03  0.00000000000E+00 0.  1.
    9000007    1    1    2  502    0  0.41599092007E+03 -0.27325695755E+02 -0.22239769202E+03  0.61907662906E+03  0.40000000000E+03 0.  1.
   -9000007    1    1    2    0  501 -0.41599092007E+03  0.27325695755E+02  0.70513892165E+03  0.91160081069E+03  0.40000000000E+03 0. -1.
<mgrwt>
<rscale>  2 0.57775007E+03</rscale>
<asrwt>0</asrwt>
<pdfrwt beam="1">  1        2 0.80610478E-01 0.57775007E+03</pdfrwt>
<pdfrwt beam="2">  1       -2 0.15487836E+00 0.57775007E+03</pdfrwt>
<totfact> 0.16562919E+01</totfact>
</mgrwt>
</event>
<event>
 4    1  0.2247963E-002  0.5997063E+03  0.7818608E-02  0.9906015E-01
         -1   -1    0    0    0  501 -0.00000000000E+00  0.00000000000E+00  0.11814894813E+04  0.11814894813E+04  0.00000000000E+00 0.  1.
          1   -1    0    0  502    0  0.00000000000E+00 -0.00000000000E+00 -0.40794806445E+03  0.40794806445E+03  0.00000000000E+00 0. -1.
    9000007    1    1    2  502    0  0.34733386334E+03  0.28108164811E+03 -0.13614413266E+02  0.59986086535E+03  0.40000000000E+03 0. -1.
   -9000007    1    1    2    0  501 -0.34733386334E+03 -0.28108164811E+03  0.78715583015E+03  0.98957668044E+03  0.40000000000E+03 0. -1.
<mgrwt>
<rscale>  2 0.59970635E+03</rscale>
<asrwt>0</asrwt>
<pdfrwt beam="1">  1        1 0.62761241E-01 0.59970635E+03</pdfrwt>
<pdfrwt beam="2">  1       -1 0.18176761E+00 0.59970635E+03</pdfrwt>
<totfact> 0.12402061E+01</totfact>
</mgrwt>
</event>
<event>
 4    1  0.2247963E-002  0.4325182E+03  0.7818608E-02  0.1033067E+00
          2   -1    0    0  502    0  0.00000000000E+00  0.00000000000E+00  0.74531771829E+03  0.74531771829E+03  0.00000000000E+00 0.  1.
         -2   -1    0    0    0  501 -0.00000000000E+00 -0.00000000000E+00 -0.45874203595E+03  0.45874203595E+03  0.00000000000E+00 0. -1.
    9000007    1    1    2  502    0 -0.89580288866E+01 -0.16429161104E+03 -0.26184723812E+03  0.50560454492E+03  0.40000000000E+03 0. -1.
   -9000007    1    1    2    0  501  0.89580288866E+01  0.16429161104E+03  0.54842292046E+03  0.69845520931E+03  0.40000000000E+03 0.  1.
<mgrwt>
<rscale>  2 0.43251818E+03</rscale>
<asrwt>0</asrwt>
<pdfrwt beam="1">  1        2 0.11466426E+00 0.43251818E+03</pdfrwt>
<pdfrwt beam="2">  1       -2 0.70575698E-01 0.43251818E+03</pdfrwt>
<totfact> 0.71959678E+01</totfact>
</mgrwt>
</event>
<event>
 4    1  0.2247963E-002  0.7517132E+03  0.7818608E-02  0.9632666E-01
         -2   -1    0    0    0  501 -0.00000000000E+00  0.00000000000E+00  0.64162066693E+03  0.64162066693E+03  0.00000000000E+00 0. -1.
          2   -1    0    0  502    0  0.00000000000E+00 -0.00000000000E+00 -0.12190395425E+04  0.12190395425E+04  0.00000000000E+00 0.  1.
    9000007    1    1    2  502    0  0.61036664304E+03 -0.18034758637E+03 -0.77883481332E+03  0.10824307633E+04  0.40000000000E+03 0.  1.
   -9000007    1    1    2    0  501 -0.61036664304E+03  0.18034758637E+03  0.20141593778E+03  0.77822944614E+03  0.40000000000E+03 0. -1.
<mgrwt>
<rscale>  2 0.75171317E+03</rscale>
<asrwt>0</asrwt>
<pdfrwt beam="1">  1        2 0.18754454E+00 0.75171317E+03</pdfrwt>
<pdfrwt beam="2">  1       -2 0.98710873E-01 0.75171317E+03</pdfrwt>
<totfact> 0.16020767E+01</totfact>
</mgrwt>
</event>
<event>
 4    1  0.2247963E-002  0.4054951E+03  0.7818608E-02  0.1041893E+00
          4   -1    0    0  502    0  0.00000000000E+00  0.00000000000E+00  0.28726700018E+03  0.28726700018E+03  0.00000000000E+00 0. -1.
         -4   -1    0    0    0  501 -0.00000000000E+00 -0.00000000000E+00 -0.57443787513E+03  0.57443787513E+03  0.00000000000E+00 0.  1.
    9000007    1    1    2  502    0  0.50139365750E+02  0.43729889507E+02 -0.16936521881E+03  0.43944378090E+03  0.40000000000E+03 0.  1.
   -9000007    1    1    2    0  501 -0.50139365750E+02 -0.43729889507E+02 -0.11780565614E+03  0.42226109441E+03  0.40000000000E+03 0. -1.
<mgrwt>
<rscale>  2 0.40549508E+03</rscale>
<asrwt>0</asrwt>
<pdfrwt beam="1">  1        4 0.44194923E-01 0.40549508E+03</pdfrwt>
<pdfrwt beam="2">  1       -4 0.88375058E-01 0.40549508E+03</pdfrwt>
<totfact> 0.10577204E+01</totfact>
</mgrwt>
</event>
<event>
 4    1  0.2247963E-002  0.4843602E+03  0.7818608E-02  0.1017944E+00
         -4   -1    0    0    0  501 -0.00000000000E+00  0.00000000000E+00  0.39839277653E+03  0.39839277653E+03  0.00000000000E+00 0.  1.
          4   -1    0    0  502    0  0.00000000000E+00 -0.00000000000E+00 -0.60469583911E+03  0.60469583911E+03  0.00000000000E+00 0. -1.
    9000007    1    1    2  502    0 -0.11635395046E+03 -0.24711652626E+03 -0.22034563348E+02  0.48486115675E+03  0.40000000000E+03 0.  1.
   -9000007    1    1    2    0  501  0.11635395046E+03  0.24711652626E+03 -0.18426849923E+03  0.51822745889E+03  0.40000000000E+03 0.  1.
<mgrwt>
<rscale>  2 0.48436022E+03</rscale>
<asrwt>0</asrwt>
<pdfrwt beam="1">  1        4 0.93030129E-01 0.48436022E+03</pdfrwt>
<pdfrwt beam="2">  1       -4 0.61291197E-01 0.48436022E+03</pdfrwt>
<totfact> 0.47686993E+00</totfact>
</mgrwt>
</event>
<event>
 4    1  0.2247963E-002  0.4038826E+03  0.7818608E-02  0.1042444E+00
          2   -1    0    0  502    0  0.00000000000E+00  0.00000000000E+00  0.68043521590E+03  0.68043521590E+03  0.00000000000E+00 0. -1.
         -2   -1    0    0    0  501 -0.00000000000E+00 -0.00000000000E+00 -0.28832784389E+03  0.28832784389E+03  0.00000000000E+00 0.  1.
    9000007    1    1    2  502    0  0.18637220991E+02  0.52666698597E+02 -0.28075816331E+01  0.40389232434E+03  0.40000000000E+03 0.  1.
   -9000007    1    1    2    0  501 -0.18637220991E+02 -0.52666698597E+02  0.39491495364E+03  0.56487073544E+03  0.40000000000E+03 0. -1.
<mgrwt>
<rscale>  2 0.40388257E+03</rscale>
<asrwt>0</asrwt>
<pdfrwt beam="1">  1        2 0.10468234E+00 0.40388257E+03</pdfrwt>
<pdfrwt beam="2">  1       -2 0.44358130E-01 0.40388257E+03</pdfrwt>
<totfact> 0.21094633E+02</totfact>
</mgrwt>
</event>
<event>
 4    1  0.2247963E-002  0.7155680E+03  0.7818608E-02  0.9690973E-01
          1   -1    0    0  502    0  0.00000000000E+00  0.00000000000E+00  0.16814679459E+04  0.16814679459E+04  0.00000000000E+00 0.  1.
         -1   -1    0    0    0  501 -0.00000000000E+00 -0.00000000000E+00 -0.31314936673E+03  0.31314936673E+03  0.00000000000E+00 0. -1.
    9000007    1    1    2  502    0  0.40152231107E+03  0.43682642809E+03  0.84973248638E+03  0.11108927909E+04  0.40000000000E+03 0.  1.
   -9000007    1    1    2    0  501 -0.40152231107E+03 -0.43682642809E+03  0.51858609274E+03  0.88372452164E+03  0.40000000000E+03 0. -1.
<mgrwt>
<rscale>  2 0.71556795E+03</rscale>
<asrwt>0</asrwt>
<pdfrwt beam="1">  1        1 0.25868737E+00 0.71556795E+03</pdfrwt>
<pdfrwt beam="2">  1       -1 0.48176827E-01 0.71556795E+03</pdfrwt>
<totfact> 0.22003628E+01</totfact>
</mgrwt>
</event>
<event>
 4    1  0.2247963E-002  0.4073929E+03  0.7818608E-02  0.1041249E+00
          2   -1    0    0  502    0  0.00000000000E+00  0.00000000000E+00  0.13755027527E+03  0.13755027527E+03  0.00000000000E+00 0. -1.
         -2   -1    0    0    0  501 -0.00000000000E+00 -0.00000000000E+00 -0.12102084250E+04  0.12102084250E+04  0.00000000000E+00 0.  1.
    9000007    1    1    2  502    0  0.74557525668E+02  0.20252104667E+02 -0.49956224905E+03  0.64461726090E+03  0.40000000000E+03 0. -1.
   -9000007    1    1    2    0  501 -0.74557525668E+02 -0.20252104667E+02 -0.57309590069E+03  0.70314143937E+03  0.40000000000E+03 0.  1.
<mgrwt>
<rscale>  2 0.40739290E+03</rscale>
<asrwt>0</asrwt>
<pdfrwt beam="1">  1        2 0.21161581E-01 0.40739290E+03</pdfrwt>
<pdfrwt beam="2">  1       -2 0.18618591E+00 0.40739290E+03</pdfrwt>
<totfact> 0.45526317E+01</totfact>
</mgrwt>
</event>
<event>
 4    1  0.2247963E-002  0.5080950E+03  0.7818608E-02  0.1011687E+00
         -2   -1    0    0    0  501 -0.00000000000E+00  0.00000000000E+00  0.86361667405E+03  0.86361667405E+03  0.00000000000E+00 0.  1.
          2   -1    0    0  502    0  0.00000000000E+00 -0.00000000000E+00 -0.42552359396E+03  0.42552359396E+03  0.00000000000E+00 0. -1.
    9000007    1    1    2  502    0  0.89120018067E+02 -0.30036339351E+03 -0.13252603397E+03  0.52509398727E+03  0.40000000000E+03 0. -1.
   -9000007    1    1    2    0  501 -0.89120018067E+02  0.30036339351E+03  0.57061911406E+03  0.76404628074E+03  0.40000000000E+03 0.  1.
<mgrwt>
<rscale>  2 0.50809502E+03</rscale>
<asrwt>0</asrwt>
<pdfrwt beam="1">  1        2 0.65465168E-01 0.50809502E+03</pdfrwt>
<pdfrwt beam="2">  1       -2 0.13286410E+00 0.50809502E+03</pdfrwt>
<totfact> 0.31500201E+01</totfact>
</mgrwt>
</event>
<event>
 4    1  0.2247963E-002  0.6287520E+03  0.7818608E-02  0.9847487E-01
         -2   -1    0    0    0  501 -0.00000000000E+00  0.00000000000E+00  0.21322759205E+03  0.21322759205E+03  0.00000000000E+00 0. -1.
          2   -1    0    0  502    0  0.00000000000E+00 -0.00000000000E+00 -0.19830441428E+04  0.19830441428E+04  0.00000000000E+00 0.  1.
    9000007    1    1    2  502    0  0.33142845769E+03 -0.35423749559E+03 -0.60480446408E+03  0.87242046378E+03  0.40000000000E+03 0. -1.
   -9000007    1    1    2    0  501 -0.33142845769E+03  0.35423749559E+03 -0.11650120867E+04  0.13238512711E+04  0.40000000000E+03 0. -1.
<mgrwt>
<rscale>  2 0.62875196E+03</rscale>
<asrwt>0</asrwt>
<pdfrwt beam="1">  1        2 0.30508370E+00 0.62875196E+03</pdfrwt>
<pdfrwt beam="2">  1       -2 0.32804246E-01 0.62875196E+03</pdfrwt>
<totfact> 0.61795255E+01</totfact>
</mgrwt>
</event>
<event>
 4    1  0.2247963E-002  0.5148377E+03  0.7818608E-02  0.1009977E+00
          1   -1    0    0  502    0  0.00000000000E+00  0.00000000000E+00  0.66202128159E+03  0.66202128159E+03  0.00000000000E+00 0. -1.
         -1   -1    0    0    0  501 -0.00000000000E+00 -0.00000000000E+00 -0.51957304133E+03  0.51957304133E+03  0.00000000000E+00 0.  1.
    9000007    1    1    2  502    0  0.10410273207E+03  0.30695352985E+03 -0.21174998126E+03  0.55668294646E+03  0.40000000000E+03 0.  1.
   -9000007    1    1    2    0  501 -0.10410273207E+03 -0.30695352985E+03  0.35419822152E+03  0.62491137647E+03  0.40000000000E+03 0.  1.
<mgrwt>
<rscale>  2 0.51483769E+03</rscale>
<asrwt>0</asrwt>
<pdfrwt beam="1">  1        1 0.10184943E+00 0.51483769E+03</pdfrwt>
<pdfrwt beam="2">  1       -1 0.79934314E-01 0.51483769E+03</pdfrwt>
<totfact> 0.48570855E+01</totfact>
</mgrwt>
</event>
<event>
 4    1  0.2247963E-002  0.7364147E+03  0.7818608E-02  0.9656908E-01
         -2   -1    0    0    0  501 -0.00000000000E+00  0.00000000000E+00  0.83632169446E+03  0.83632169446E+03  0.00000000000E+00 0. -1.
          2   -1    0    0  502    0  0.00000000000E+00 -0.00000000000E+00 -0.72962166807E+03  0.72962166807E+03  0.00000000000E+00 0.  1.
    9000007    1    1    2  502    0 -0.35297798428E+03  0.50765457156E+03  0.31451755422E+03  0.80076707807E+03  0.40000000000E+03 0. -1.
   -9000007    1    1    2    0  501  0.35297798428E+03 -0.50765457156E+03 -0.20781752783E+03  0.76517628445E+03  0.40000000000E+03 0.  1.
<mgrwt>
<rscale>  2 0.73641471E+03</rscale>
<asrwt>0</asrwt>
<pdfrwt beam="1">  1        2 0.11224949E+00 0.73641471E+03</pdfrwt>
<pdfrwt beam="2">  1       -2 0.12866488E+00 0.73641471E+03</pdfrwt>
<totfact> 0.17595591E+01</totfact>
</mgrwt>
</event>
<event>
 4    1  0.2247963E-002  0.4117803E+03  0.7818608E-02  0.1039775E+00
         -2   -1    0    0    0  501 -0.00000000000E+00  0.00000000000E+00  0.18325001342E+03  0.18325001342E+03  0.00000000000E+00 0.  1.
          2   -1    0    0  502    0  0.00000000000E+00 -0.00000000000E+00 -0.93388698576E+03  0.93388698576E+03  0.00000000000E+00 0. -1.
    9000007    1    1    2  502    0  0.58819040614E+02  0.78123908630E+02 -0.42884918077E+03  0.59453733649E+03  0.40000000000E+03 0. -1.
   -9000007    1    1    2    0  501 -0.58819040614E+02 -0.78123908630E+02 -0.32178779157E+03  0.52259966269E+03  0.40000000000E+03 0.  1.
<mgrwt>
<rscale>  2 0.41178031E+03</rscale>
<asrwt>0</asrwt>
<pdfrwt beam="1">  1        2 0.14367492E+00 0.41178031E+03</pdfrwt>
<pdfrwt beam="2">  1       -2 0.28192309E-01 0.41178031E+03</pdfrwt>
<totfact> 0.32904207E+02</totfact>
</mgrwt>
</event>
<event>
 4    1  0.2247963E-002  0.4181984E+03  0.7818608E-02  0.1037654E+00
         -2   -1    0    0    0  501 -0.00000000000E+00  0.00000000000E+00  0.53105296417E+02  0.53105296417E+02  0.00000000000E+00 0.  1.
          2   -1    0    0  502    0  0.00000000000E+00 -0.00000000000E+00 -0.33865061959E+04  0.33865061959E+04  0.00000000000E+00 0. -1.
    9000007    1    1    2  502    0  0.98641459442E+02  0.71831395981E+02 -0.19520677301E+04  0.19963612674E+04  0.40000000000E+03 0. -1.
   -9000007    1    1    2    0  501 -0.98641459442E+02 -0.71831395981E+02 -0.13813331694E+04  0.14432502250E+04  0.40000000000E+03 0.  1.
<mgrwt>
<rscale>  2 0.41819838E+03</rscale>
<asrwt>0</asrwt>
<pdfrwt beam="1">  1        2 0.52100091E+00 0.41819838E+03</pdfrwt>
<pdfrwt beam="2">  1       -2 0.81700463E-02 0.41819838E+03</pdfrwt>
<totfact> 0.10535319E+02</totfact>
</mgrwt>
</event>
<event>
 4    1  0.2247963E-002  0.5908826E+03  0.7818608E-02  0.9924504E-01
          1   -1    0    0  502    0  0.00000000000E+00  0.00000000000E+00  0.29088826800E+03  0.29088826800E+03  0.00000000000E+00 0. -1.
         -1   -1    0    0    0  501 -0.00000000000E+00 -0.00000000000E+00 -0.12004116804E+04  0.12004116804E+04  0.00000000000E+00 0.  1.
    9000007    1    1    2  502    0  0.50437154909E+02  0.43197032761E+03 -0.46307497956E+03  0.75072012576E+03  0.40000000000E+03 0. -1.
   -9000007    1    1    2    0  501 -0.50437154909E+02 -0.43197032761E+03 -0.44644843286E+03  0.74057982266E+03  0.40000000000E+03 0. -1.
<mgrwt>
<rscale>  2 0.59088262E+03</rscale>
<asrwt>0</asrwt>
<pdfrwt beam="1">  1        1 0.44752041E-01 0.59088262E+03</pdfrwt>
<pdfrwt beam="2">  1       -1 0.18467872E+00 0.59088262E+03</pdfrwt>
<totfact> 0.18397079E+01</totfact>
</mgrwt>
</event>
<event>
 4    1  0.2247963E-002  0.4013051E+03  0.7818608E-02  0.1043329E+00
          2   -1    0    0  502    0  0.00000000000E+00  0.00000000000E+00  0.14180551236E+04  0.14180551236E+04  0.00000000000E+00 0.  1.
         -2   -1    0    0    0  501 -0.00000000000E+00 -0.00000000000E+00 -0.11850255926E+03  0.11850255926E+03  0.00000000000E+00 0. -1.
    9000007    1    1    2  502    0  0.29182134119E+02  0.13936287466E+02  0.80655065494E+03  0.90087167568E+03  0.40000000000E+03 0.  1.
   -9000007    1    1    2    0  501 -0.29182134119E+02 -0.13936287466E+02  0.49300190939E+03  0.63568600718E+03  0.40000000000E+03 0. -1.
<mgrwt>
<rscale>  2 0.40130514E+03</rscale>
<asrwt>0</asrwt>
<pdfrwt beam="1">  1        2 0.21816231E+00 0.40130514E+03</pdfrwt>
<pdfrwt beam="2">  1       -2 0.18231164E-01 0.40130514E+03</pdfrwt>
<totfact> 0.36844174E+02</totfact>
</mgrwt>
</event>
<event>
 4    1  0.2247963E-002  0.4512210E+03  0.7818608E-02  0.1027359E+00
          2   -1    0    0  502    0  0.00000000000E+00  0.00000000000E+00  0.60214055926E+03  0.60214055926E+03  0.00000000000E+00 0.  1.
         -2   -1    0    0    0  501 -0.00000000000E+00 -0.00000000000E+00 -0.42818662850E+03  0.42818662850E+03  0.00000000000E+00 0. -1.
    9000007    1    1    2  502    0 -0.20032914856E+03  0.58894658741E+02 -0.14928413207E+03  0.47527476335E+03  0.40000000000E+03 0. -1.
   -9000007    1    1    2    0  501  0.20032914856E+03 -0.58894658741E+02  0.32323806283E+03  0.55505242442E+03  0.40000000000E+03 0.  1.
<mgrwt>
<rscale>  2 0.45122095E+03</rscale>
<asrwt>0</asrwt>
<pdfrwt beam="1">  1        2 0.92637009E-01 0.45122095E+03</pdfrwt>
<pdfrwt beam="2">  1       -2 0.65874866E-01 0.45122095E+03</pdfrwt>
<totfact> 0.10820245E+02</totfact>
</mgrwt>
</event>
<event>
 4    1  0.2247963E-002  0.9328789E+03  0.7818608E-02  0.9385389E-01
         -1   -1    0    0    0  501 -0.00000000000E+00  0.00000000000E+00  0.30141724185E+03  0.30141724185E+03  0.00000000000E+00 0. -1.
          1   -1    0    0  502    0  0.00000000000E+00 -0.00000000000E+00 -0.29951554256E+04  0.29951554256E+04  0.00000000000E+00 0.  1.
    9000007    1    1    2  502    0 -0.82669762876E+03  0.16381098911E+03 -0.10339941369E+04  0.13926258954E+04  0.40000000000E+03 0. -1.
   -9000007    1    1    2    0  501  0.82669762876E+03 -0.16381098911E+03 -0.16597440469E+04  0.19039467721E+04  0.40000000000E+03 0.  1.
<mgrwt>
<rscale>  2 0.93287888E+03</rscale>
<asrwt>0</asrwt>
<pdfrwt beam="1">  1        1 0.46079315E+00 0.93287888E+03</pdfrwt>
<pdfrwt beam="2">  1       -1 0.46371882E-01 0.93287888E+03</pdfrwt>
<totfact> 0.28956007E+00</totfact>
</mgrwt>
</event>
<event>
 4    1  0.2247963E-002  0.4035941E+03  0.7818608E-02  0.1042542E+00
         -2   -1    0    0    0  501 -0.00000000000E+00  0.00000000000E+00  0.31317978766E+03  0.31317978766E+03  0.00000000000E+00 0.  1.
          2   -1    0    0  502    0  0.00000000000E+00 -0.00000000000E+00 -0.64354876992E+03  0.64354876992E+03  0.00000000000E+00 0. -1.
    9000007    1    1    2  502    0  0.33911790141E+02 -0.41691184115E+02 -0.37468859688E+03  0.55070837017E+03  0.40000000000E+03 0. -1.
   -9000007    1    1    2    0  501 -0.33911790141E+02  0.41691184115E+02  0.44319614619E+02  0.40602018741E+03  0.40000000000E+03 0.  1.
<mgrwt>
<rscale>  2 0.40359406E+03</rscale>
<asrwt>0</asrwt>
<pdfrwt beam="1">  1        2 0.99007503E-01 0.40359406E+03</pdfrwt>
<pdfrwt beam="2">  1       -2 0.48181506E-01 0.40359406E+03</pdfrwt>
<totfact> 0.19157805E+02</totfact>
</mgrwt>
</event>
<event>
 4    1  0.2247963E-002  0.4209453E+03  0.7818608E-02  0.1036759E+00
          1   -1    0    0  502    0  0.00000000000E+00  0.00000000000E+00  0.60244161788E+03  0.60244161788E+03  0.00000000000E+00 0.  1.
         -1   -1    0    0    0  501 -0.00000000000E+00 -0.00000000000E+00 -0.31721433486E+03  0.31721433486E+03  0.00000000000E+00 0. -1.
    9000007    1    1    2  502    0 -0.25263967805E+02  0.12867279857E+03  0.26666352006E+03  0.49830150521E+03  0.40000000000E+03 0.  1.
   -9000007    1    1    2    0  501  0.25263967805E+02 -0.12867279857E+03  0.18563762957E+02  0.42135444753E+03  0.40000000000E+03 0. -1.
<mgrwt>
<rscale>  2 0.42094531E+03</rscale>
<asrwt>0</asrwt>
<pdfrwt beam="1">  1        1 0.92683326E-01 0.42094531E+03</pdfrwt>
<pdfrwt beam="2">  1       -1 0.48802205E-01 0.42094531E+03</pdfrwt>
<totfact> 0.14914917E+02</totfact>
</mgrwt>
</event>
<event>
 4    1  0.2247963E-002  0.4113140E+03  0.7818608E-02  0.1039931E+00
          1   -1    0    0  502    0  0.00000000000E+00  0.00000000000E+00  0.12955291102E+04  0.12955291102E+04  0.00000000000E+00 0. -1.
         -1   -1    0    0    0  501 -0.00000000000E+00 -0.00000000000E+00 -0.17197421595E+03  0.17197421595E+03  0.00000000000E+00 0.  1.
    9000007    1    1    2  502    0  0.86258474972E+02 -0.41697079718E+02  0.92173467321E+03  0.10093433404E+04  0.40000000000E+03 0. -1.
   -9000007    1    1    2    0  501 -0.86258474972E+02  0.41697079718E+02  0.20182022106E+03  0.45815998580E+03  0.40000000000E+03 0.  1.
<mgrwt>
<rscale>  2 0.41131396E+03</rscale>
<asrwt>0</asrwt>
<pdfrwt beam="1">  1        1 0.19931216E+00 0.41131396E+03</pdfrwt>
<pdfrwt beam="2">  1       -1 0.26457573E-01 0.41131396E+03</pdfrwt>
<totfact> 0.12249564E+02</totfact>
</mgrwt>
</event>
<event>
 4    1  0.2247963E-002  0.4138106E+03  0.7818608E-02  0.1039100E+00
         -1   -1    0    0    0  501 -0.00000000000E+00  0.00000000000E+00  0.16187912161E+03  0.16187912161E+03  0.00000000000E+00 0.  1.
          1   -1    0    0  502    0  0.00000000000E+00 -0.00000000000E+00 -0.10695890517E+04  0.10695890517E+04  0.00000000000E+00 0. -1.
    9000007    1    1    2  502    0 -0.82683145862E+02  0.66352929154E+02 -0.51843941141E+03  0.66333900618E+03  0.40000000000E+03 0.  1.
   -9000007    1    1    2    0  501  0.82683145862E+02 -0.66352929154E+02 -0.38927051865E+03  0.56812916710E+03  0.40000000000E+03 0.  1.
<mgrwt>
<rscale>  2 0.41381060E+03</rscale>
<asrwt>0</asrwt>
<pdfrwt beam="1">  1        1 0.16455216E+00 0.41381060E+03</pdfrwt>
<pdfrwt beam="2">  1       -1 0.24904480E-01 0.41381060E+03</pdfrwt>
<totfact> 0.19681694E+02</totfact>
</mgrwt>
</event>
<event>
 4    1  0.2247963E-002  0.4519519E+03  0.7818608E-02  0.1027142E+00
          2   -1    0    0  502    0  0.00000000000E+00  0.00000000000E+00  0.10268106347E+04  0.10268106347E+04  0.00000000000E+00 0.  1.
         -2   -1    0    0    0  501 -0.00000000000E+00 -0.00000000000E+00 -0.39524845909E+03  0.39524845909E+03  0.00000000000E+00 0. -1.
    9000007    1    1    2  502    0 -0.17401302013E+02  0.20966094589E+03  0.81689478240E+03  0.93358320628E+03  0.40000000000E+03 0.  1.
   -9000007    1    1    2    0  501  0.17401302013E+02 -0.20966094589E+03 -0.18533260678E+03  0.48847588751E+03  0.40000000000E+03 0. -1.
<mgrwt>
<rscale>  2 0.45195190E+03</rscale>
<asrwt>0</asrwt>
<pdfrwt beam="1">  1        2 0.15797087E+00 0.45195190E+03</pdfrwt>
<pdfrwt beam="2">  1       -2 0.60807456E-01 0.45195190E+03</pdfrwt>
<totfact> 0.63886944E+01</totfact>
</mgrwt>
</event>
<event>
 4    1  0.2247963E-002  0.4374004E+03  0.7818608E-02  0.1031547E+00
         -2   -1    0    0    0  501 -0.00000000000E+00  0.00000000000E+00  0.44375450337E+03  0.44375450337E+03  0.00000000000E+00 0. -1.
          2   -1    0    0  502    0  0.00000000000E+00 -0.00000000000E+00 -0.52172404172E+03  0.52172404172E+03  0.00000000000E+00 0.  1.
    9000007    1    1    2  502    0  0.11716243816E+03 -0.13263498924E+03 -0.24013695141E+03  0.49898380006E+03  0.40000000000E+03 0.  1.
   -9000007    1    1    2    0  501 -0.11716243816E+03  0.13263498924E+03  0.16216741307E+03  0.46649474503E+03  0.40000000000E+03 0. -1.
<mgrwt>
<rscale>  2 0.43740036E+03</rscale>
<asrwt>0</asrwt>
<pdfrwt beam="1">  1        2 0.80265237E-01 0.43740036E+03</pdfrwt>
<pdfrwt beam="2">  1       -2 0.68269923E-01 0.43740036E+03</pdfrwt>
<totfact> 0.11865525E+02</totfact>
</mgrwt>
</event>
<event>
 4    1  0.2247963E-002  0.4747824E+03  0.7818608E-02  0.1020579E+00
          2   -1    0    0  502    0  0.00000000000E+00  0.00000000000E+00  0.82930419220E+03  0.82930419220E+03  0.00000000000E+00 0.  1.
         -2   -1    0    0    0  501 -0.00000000000E+00 -0.00000000000E+00 -0.28997542225E+03  0.28997542225E+03  0.00000000000E+00 0. -1.
    9000007    1    1    2  502    0  0.15688988511E+03  0.20199971773E+03  0.12961651356E+03  0.49215725393E+03  0.40000000000E+03 0.  1.
   -9000007    1    1    2    0  501 -0.15688988511E+03 -0.20199971773E+03  0.40971225639E+03  0.62712236051E+03  0.40000000000E+03 0. -1.
<mgrwt>
<rscale>  2 0.47478239E+03</rscale>
<asrwt>0</asrwt>
<pdfrwt beam="1">  1        2 0.12758526E+00 0.47478239E+03</pdfrwt>
<pdfrwt beam="2">  1       -2 0.44611604E-01 0.47478239E+03</pdfrwt>
<totfact> 0.16119438E+02</totfact>
</mgrwt>
</event>
<event>
 4    1  0.2247963E-002  0.7723635E+03  0.7818608E-02  0.9600904E-01
          2   -1    0    0  502    0  0.00000000000E+00  0.00000000000E+00  0.28455588056E+04  0.28455588056E+04  0.00000000000E+00 0. -1.
         -2   -1    0    0    0  501 -0.00000000000E+00 -0.00000000000E+00 -0.29700627037E+03  0.29700627037E+03  0.00000000000E+00 0.  1.
    9000007    1    1    2  502    0 -0.56883863603E+03  0.33610715034E+03  0.42207687098E+03  0.88016719740E+03  0.40000000000E+03 0. -1.
   -9000007    1    1    2    0  501  0.56883863603E+03 -0.33610715034E+03  0.21264756643E+04  0.22623978786E+04  0.40000000000E+03 0. -1.
<mgrwt>
<rscale>  2 0.77236352E+03</rscale>
<asrwt>0</asrwt>
<pdfrwt beam="1">  1        2 0.43777826E+00 0.77236352E+03</pdfrwt>
<pdfrwt beam="2">  1       -2 0.45693274E-01 0.77236352E+03</pdfrwt>
<totfact> 0.10388772E+01</totfact>
</mgrwt>
</event>
<event>
 4    1  0.2247963E-002  0.4336507E+03  0.7818608E-02  0.1032713E+00
          2   -1    0    0  502    0  0.00000000000E+00  0.00000000000E+00  0.45189090515E+03  0.45189090515E+03  0.00000000000E+00 0. -1.
         -2   -1    0    0    0  501 -0.00000000000E+00 -0.00000000000E+00 -0.42033894622E+03  0.42033894622E+03  0.00000000000E+00 0.  1.
    9000007    1    1    2  502    0 -0.16614912570E+03  0.21152417584E+02 -0.27777117879E+02  0.43453944012E+03  0.40000000000E+03 0.  1.
   -9000007    1    1    2    0  501  0.16614912570E+03 -0.21152417584E+02  0.59329076815E+02  0.43769041125E+03  0.40000000000E+03 0.  1.
<mgrwt>
<rscale>  2 0.43365073E+03</rscale>
<asrwt>0</asrwt>
<pdfrwt beam="1">  1        2 0.69521678E-01 0.43365073E+03</pdfrwt>
<pdfrwt beam="2">  1       -2 0.64667530E-01 0.43365073E+03</pdfrwt>
<totfact> 0.15696754E+02</totfact>
</mgrwt>
</event>
<event>
 4    1  0.2247963E-002  0.4483911E+03  0.7818608E-02  0.1028203E+00
          1   -1    0    0  502    0  0.00000000000E+00  0.00000000000E+00  0.17468116997E+04  0.17468116997E+04  0.00000000000E+00 0. -1.
         -1   -1    0    0    0  501 -0.00000000000E+00 -0.00000000000E+00 -0.12972261291E+03  0.12972261291E+03  0.00000000000E+00 0.  1.
    9000007    1    1    2  502    0 -0.20259061218E+03  0.34076878569E+01  0.49350827191E+03  0.66678705965E+03  0.40000000000E+03 0.  1.
   -9000007    1    1    2    0  501  0.20259061218E+03 -0.34076878569E+01  0.11235808149E+04  0.12097472530E+04  0.40000000000E+03 0. -1.
<mgrwt>
<rscale>  2 0.44839109E+03</rscale>
<asrwt>0</asrwt>
<pdfrwt beam="1">  1        1 0.26874024E+00 0.44839109E+03</pdfrwt>
<pdfrwt beam="2">  1       -1 0.19957326E-01 0.44839109E+03</pdfrwt>
<totfact> 0.96832006E+01</totfact>
</mgrwt>
</event>
<event>
 4    1  0.2247963E-002  0.4058260E+03  0.7818608E-02  0.1041781E+00
          3   -1    0    0  502    0  0.00000000000E+00  0.00000000000E+00  0.37779068114E+04  0.37779068114E+04  0.00000000000E+00 0. -1.
         -3   -1    0    0    0  501 -0.00000000000E+00 -0.00000000000E+00 -0.48421691459E+02  0.48421691459E+02  0.00000000000E+00 0.  1.
    9000007    1    1    2  502    0 -0.65469400297E+02  0.20211471971E+02  0.12606632258E+04  0.13243740087E+04  0.40000000000E+03 0.  1.
   -9000007    1    1    2    0  501  0.65469400297E+02 -0.20211471971E+02  0.24688218941E+04  0.25019544942E+04  0.40000000000E+03 0. -1.
<mgrwt>
<rscale>  2 0.40582600E+03</rscale>
<asrwt>0</asrwt>
<pdfrwt beam="1">  1        3 0.58121620E+00 0.40582600E+03</pdfrwt>
<pdfrwt beam="2">  1       -3 0.74494939E-02 0.40582600E+03</pdfrwt>
<totfact> 0.51833906E-01</totfact>
</mgrwt>
</event>
<event>
 4    1  0.2247963E-002  0.4356225E+03  0.7818608E-02  0.1032098E+00
          2   -1    0    0  502    0  0.00000000000E+00  0.00000000000E+00  0.24309755808E+03  0.24309755808E+03  0.00000000000E+00 0. -1.
         -2   -1    0    0    0  501 -0.00000000000E+00 -0.00000000000E+00 -0.93806582754E+03  0.93806582754E+03  0.00000000000E+00 0.  1.
    9000007    1    1    2  502    0 -0.49726356334E+02 -0.16520976837E+03 -0.58943544582E+03  0.73294005407E+03  0.40000000000E+03 0.  1.
   -9000007    1    1    2    0  501  0.49726356334E+02  0.16520976837E+03 -0.10553282364E+03  0.44822333155E+03  0.40000000000E+03 0.  1.
<mgrwt>
<rscale>  2 0.43562252E+03</rscale>
<asrwt>0</asrwt>
<pdfrwt beam="1">  1        2 0.37399625E-01 0.43562252E+03</pdfrwt>
<pdfrwt beam="2">  1       -2 0.14431782E+00 0.43562252E+03</pdfrwt>
<totfact> 0.47652788E+01</totfact>
</mgrwt>
</event>
<event>
 4    1  0.2247963E-002  0.5470446E+03  0.7818608E-02  0.1002180E+00
          2   -1    0    0  502    0  0.00000000000E+00  0.00000000000E+00  0.12074551551E+04  0.12074551551E+04  0.00000000000E+00 0.  1.
         -2   -1    0    0    0  501 -0.00000000000E+00 -0.00000000000E+00 -0.26711970421E+03  0.26711970421E+03  0.00000000000E+00 0. -1.
    9000007    1    1    2  502    0  0.26329285820E+03  0.26445155044E+03  0.27209951517E+03  0.61097945780E+03  0.40000000000E+03 0. -1.
   -9000007    1    1    2    0  501 -0.26329285820E+03 -0.26445155044E+03  0.66823593573E+03  0.86359540151E+03  0.40000000000E+03 0.  1.
<mgrwt>
<rscale>  2 0.54704456E+03</rscale>
<asrwt>0</asrwt>
<pdfrwt beam="1">  1        2 0.18576233E+00 0.54704456E+03</pdfrwt>
<pdfrwt beam="2">  1       -2 0.41095340E-01 0.54704456E+03</pdfrwt>
<totfact> 0.10872595E+02</totfact>
</mgrwt>
</event>
<event>
 4    1  0.2247963E-002  0.4538548E+03  0.7818608E-02  0.1026579E+00
         -4   -1    0    0    0  501 -0.00000000000E+00  0.00000000000E+00  0.26018565826E+03  0.26018565826E+03  0.00000000000E+00 0.  1.
          4   -1    0    0  502    0  0.00000000000E+00 -0.00000000000E+00 -0.80274974243E+03  0.80274974243E+03  0.00000000000E+00 0. -1.
    9000007    1    1    2  502    0 -0.11412036887E+03 -0.18155081589E+03 -0.20887591358E+03  0.49961315497E+03  0.40000000000E+03 0. -1.
   -9000007    1    1    2    0  501  0.11412036887E+03  0.18155081589E+03 -0.33368817058E+03  0.56332224572E+03  0.40000000000E+03 0. -1.
<mgrwt>
<rscale>  2 0.45385478E+03</rscale>
<asrwt>0</asrwt>
<pdfrwt beam="1">  1        4 0.12349996E+00 0.45385478E+03</pdfrwt>
<pdfrwt beam="2">  1       -4 0.40028564E-01 0.45385478E+03</pdfrwt>
<totfact> 0.58323024E+00</totfact>
</mgrwt>
</event>
<event>
 4    1  0.2247963E-002  0.4148578E+03  0.7818608E-02  0.1038753E+00
          2   -1    0    0  502    0  0.00000000000E+00  0.00000000000E+00  0.14257076056E+04  0.14257076056E+04  0.00000000000E+00 0.  1.
         -2   -1    0    0    0  501 -0.00000000000E+00 -0.00000000000E+00 -0.12216064079E+03  0.12216064079E+03  0.00000000000E+00 0. -1.
    9000007    1    1    2  502    0  0.19750949936E+02  0.10824471850E+03  0.73590935439E+03  0.84478967618E+03  0.40000000000E+03 0.  1.
   -9000007    1    1    2    0  501 -0.19750949936E+02 -0.10824471850E+03  0.56763761038E+03  0.70307857017E+03  0.40000000000E+03 0. -1.
<mgrwt>
<rscale>  2 0.41485783E+03</rscale>
<asrwt>0</asrwt>
<pdfrwt beam="1">  1        2 0.21933962E+00 0.41485783E+03</pdfrwt>
<pdfrwt beam="2">  1       -2 0.18793946E-01 0.41485783E+03</pdfrwt>
<totfact> 0.34586021E+02</totfact>
</mgrwt>
</event>
<event>
 4    1  0.2247963E-002  0.4868558E+03  0.7818608E-02  0.1017268E+00
          1   -1    0    0  502    0  0.00000000000E+00  0.00000000000E+00  0.25038979875E+04  0.25038979875E+04  0.00000000000E+00 0. -1.
         -1   -1    0    0    0  501 -0.00000000000E+00 -0.00000000000E+00 -0.12823799524E+03  0.12823799524E+03  0.00000000000E+00 0.  1.
    9000007    1    1    2  502    0  0.25005814095E+02  0.27641139317E+03  0.51443072590E+03  0.70828491497E+03  0.40000000000E+03 0.  1.
   -9000007    1    1    2    0  501 -0.25005814095E+02 -0.27641139317E+03  0.18612292663E+04  0.19238510677E+04  0.40000000000E+03 0. -1.
<mgrwt>
<rscale>  2 0.48685578E+03</rscale>
<asrwt>0</asrwt>
<pdfrwt beam="1">  1        1 0.38521504E+00 0.48685578E+03</pdfrwt>
<pdfrwt beam="2">  1       -1 0.19728924E-01 0.48685578E+03</pdfrwt>
<totfact> 0.30785447E+01</totfact>
</mgrwt>
</event>
<event>
 4    1  0.2247963E-002  0.4185137E+03  0.7818608E-02  0.1037551E+00
         -1   -1    0    0    0  501 -0.00000000000E+00  0.00000000000E+00  0.41712880407E+03  0.41712880407E+03  0.00000000000E+00 0.  1.
          1   -1    0    0  502    0  0.00000000000E+00 -0.00000000000E+00 -0.51219907498E+03  0.51219907498E+03  0.00000000000E+00 0. -1.
    9000007    1    1    2  502    0 -0.97244801020E+02  0.75479686458E+02  0.14971196952E+03  0.44448555456E+03  0.40000000000E+03 0.  1.
   -9000007    1    1    2    0  501  0.97244801020E+02 -0.75479686458E+02 -0.24478224043E+03  0.48484232449E+03  0.40000000000E+03 0. -1.
<mgrwt>
<rscale>  2 0.41851372E+03</rscale>
<asrwt>0</asrwt>
<pdfrwt beam="1">  1        1 0.78799858E-01 0.41851372E+03</pdfrwt>
<pdfrwt beam="2">  1       -1 0.64173662E-01 0.41851372E+03</pdfrwt>
<totfact> 0.11046772E+02</totfact>
</mgrwt>
</event>
<event>
 4    1  0.2247963E-002  0.6666326E+03  0.7818608E-02  0.9776060E-01
         -2   -1    0    0    0  501 -0.00000000000E+00  0.00000000000E+00  0.13255451117E+03  0.13255451117E+03  0.00000000000E+00 0.  1.
          2   -1    0    0  502    0  0.00000000000E+00 -0.00000000000E+00 -0.37064971865E+04  0.37064971865E+04  0.00000000000E+00 0. -1.
    9000007    1    1    2  502    0 -0.52939287391E+03  0.64359928730E+02 -0.23801228938E+04  0.24717168132E+04  0.40000000000E+03 0.  1.
   -9000007    1    1    2    0  501  0.52939287391E+03 -0.64359928730E+02 -0.11938197815E+04  0.13673348844E+04  0.40000000000E+03 0.  1.
<mgrwt>
<rscale>  2 0.66663259E+03</rscale>
<asrwt>0</asrwt>
<pdfrwt beam="1">  1        2 0.57023031E+00 0.66663259E+03</pdfrwt>
<pdfrwt beam="2">  1       -2 0.20393003E-01 0.66663259E+03</pdfrwt>
<totfact> 0.13160877E+01</totfact>
</mgrwt>
</event>
<event>
 4    1  0.2247963E-002  0.4563203E+03  0.7818608E-02  0.1025854E+00
          2   -1    0    0  502    0  0.00000000000E+00  0.00000000000E+00  0.12061666331E+04  0.12061666331E+04  0.00000000000E+00 0. -1.
         -2   -1    0    0    0  501 -0.00000000000E+00 -0.00000000000E+00 -0.17638910237E+03  0.17638910237E+03  0.00000000000E+00 0.  1.
    9000007    1    1    2  502    0  0.69368718429E+02 -0.20836552658E+03  0.41405838432E+03  0.61617575203E+03  0.40000000000E+03 0. -1.
   -9000007    1    1    2    0  501 -0.69368718429E+02  0.20836552658E+03  0.61571914641E+03  0.76637998344E+03  0.40000000000E+03 0. -1.
<mgrwt>
<rscale>  2 0.45632030E+03</rscale>
<asrwt>0</asrwt>
<pdfrwt beam="1">  1        2 0.18556409E+00 0.45632030E+03</pdfrwt>
<pdfrwt beam="2">  1       -2 0.27136786E-01 0.45632030E+03</pdfrwt>
<totfact> 0.23972724E+02</totfact>
</mgrwt>
</event>
<event>
 4    1  0.2247963E-002  0.4817798E+03  0.7818608E-02  0.1018647E+00
          2   -1    0    0  502    0  0.00000000000E+00  0.00000000000E+00  0.25668446552E+03  0.25668446552E+03  0.00000000000E+00 0. -1.
         -2   -1    0    0    0  501 -0.00000000000E+00 -0.00000000000E+00 -0.96362209905E+03  0.96362209905E+03  0.00000000000E+00 0.  1.
    9000007    1    1    2  502    0  0.21480178981E+03 -0.16115817397E+03 -0.20204024289E+03  0.52242896713E+03  0.40000000000E+03 0. -1.
   -9000007    1    1    2    0  501 -0.21480178981E+03  0.16115817397E+03 -0.50489739063E+03  0.69787759744E+03  0.40000000000E+03 0.  1.
<mgrwt>
<rscale>  2 0.48177979E+03</rscale>
<asrwt>0</asrwt>
<pdfrwt beam="1">  1        2 0.39489919E-01 0.48177979E+03</pdfrwt>
<pdfrwt beam="2">  1       -2 0.14824955E+00 0.48177979E+03</pdfrwt>
<totfact> 0.41666515E+01</totfact>
</mgrwt>
</event>
<event>
 4    1  0.2247963E-002  0.4524728E+03  0.7818608E-02  0.1026987E+00
          1   -1    0    0  502    0  0.00000000000E+00  0.00000000000E+00  0.11731356786E+04  0.11731356786E+04  0.00000000000E+00 0.  1.
         -1   -1    0    0    0  501 -0.00000000000E+00 -0.00000000000E+00 -0.21958665151E+03  0.21958665151E+03  0.00000000000E+00 0. -1.
    9000007    1    1    2  502    0  0.94762862196E+02 -0.18908112898E+03  0.16129184467E+03  0.48036104395E+03  0.40000000000E+03 0. -1.
   -9000007    1    1    2    0  501 -0.94762862196E+02  0.18908112898E+03  0.79225718240E+03  0.91236128615E+03  0.40000000000E+03 0.  1.
<mgrwt>
<rscale>  2 0.45247284E+03</rscale>
<asrwt>0</asrwt>
<pdfrwt beam="1">  1        1 0.18048241E+00 0.45247284E+03</pdfrwt>
<pdfrwt beam="2">  1       -1 0.33782562E-01 0.45247284E+03</pdfrwt>
<totfact> 0.97473975E+01</totfact>
</mgrwt>
</event>
<event>
 4    1  0.2247963E-002  0.6113351E+03  0.7818608E-02  0.9882164E-01
          1   -1    0    0  502    0  0.00000000000E+00  0.00000000000E+00  0.46607888255E+03  0.46607888255E+03  0.00000000000E+00 0.  1.
         -1   -1    0    0    0  501 -0.00000000000E+00 -0.00000000000E+00 -0.99293026852E+03  0.99293026852E+03  0.00000000000E+00 0. -1.
    9000007    1    1    2  502    0 -0.46133452338E+03 -0.30018680810E+02  0.56584355071E+02  0.61394824936E+03  0.40000000000E+03 0.  1.
   -9000007    1    1    2    0  501  0.46133452338E+03  0.30018680810E+02 -0.58343574104E+03  0.84506090170E+03  0.40000000000E+03 0. -1.
<mgrwt>
<rscale>  2 0.61133515E+03</rscale>
<asrwt>0</asrwt>
<pdfrwt beam="1">  1        1 0.71704443E-01 0.61133515E+03</pdfrwt>
<pdfrwt beam="2">  1       -1 0.15275850E+00 0.61133515E+03</pdfrwt>
<totfact> 0.16935118E+01</totfact>
</mgrwt>
</event>
<event>
 4    1  0.2247963E-002  0.6767553E+03  0.7818608E-02  0.9757831E-01
         -2   -1    0    0    0  501 -0.00000000000E+00  0.00000000000E+00  0.69919248612E+03  0.69919248612E+03  0.00000000000E+00 0. -1.
          2   -1    0    0  502    0  0.00000000000E+00 -0.00000000000E+00 -0.65702159086E+03  0.65702159086E+03  0.00000000000E+00 0.  1.
    9000007    1    1    2  502    0  0.48245053057E+03  0.25541981976E+03 -0.16171805263E+02  0.67694854018E+03  0.40000000000E+03 0. -1.
   -9000007    1    1    2    0  501 -0.48245053057E+03 -0.25541981976E+03  0.58342700526E+02  0.67926553680E+03  0.40000000000E+03 0.  1.
<mgrwt>
<rscale>  2 0.67675535E+03</rscale>
<asrwt>0</asrwt>
<pdfrwt beam="1">  1        2 0.10108024E+00 0.67675535E+03</pdfrwt>
<pdfrwt beam="2">  1       -2 0.10756808E+00 0.67675535E+03</pdfrwt>
<totfact> 0.31371855E+01</totfact>
</mgrwt>
</event>
<event>
 4    1  0.2247963E-002  0.5228398E+03  0.7818608E-02  0.1007984E+00
          2   -1    0    0  502    0  0.00000000000E+00  0.00000000000E+00  0.50091020193E+03  0.50091020193E+03  0.00000000000E+00 0. -1.
         -2   -1    0    0    0  501 -0.00000000000E+00 -0.00000000000E+00 -0.73742238257E+03  0.73742238257E+03  0.00000000000E+00 0.  1.
    9000007    1    1    2  502    0  0.31225550675E+03 -0.12592836586E+03 -0.43393980979E+03  0.67945950089E+03  0.40000000000E+03 0.  1.
   -9000007    1    1    2    0  501 -0.31225550675E+03  0.12592836586E+03  0.19742762915E+03  0.55887308361E+03  0.40000000000E+03 0. -1.
<mgrwt>
<rscale>  2 0.52283980E+03</rscale>
<asrwt>0</asrwt>
<pdfrwt beam="1">  1        2 0.77063108E-01 0.52283980E+03</pdfrwt>
<pdfrwt beam="2">  1       -2 0.11344960E+00 0.52283980E+03</pdfrwt>
<totfact> 0.38650640E+01</totfact>
</mgrwt>
</event>
<event>
 4    1  0.2247963E-002  0.4422022E+03  0.7818608E-02  0.1030073E+00
         -2   -1    0    0    0  501 -0.00000000000E+00  0.00000000000E+00  0.27748151596E+03  0.27748151596E+03  0.00000000000E+00 0.  1.
          2   -1    0    0  502    0  0.00000000000E+00 -0.00000000000E+00 -0.72899621701E+03  0.72899621701E+03  0.00000000000E+00 0. -1.
    9000007    1    1    2  502    0  0.14450696819E+03 -0.12108070738E+03 -0.13389658534E+03  0.46202932496E+03  0.40000000000E+03 0.  1.
   -9000007    1    1    2    0  501 -0.14450696819E+03  0.12108070738E+03 -0.31761811572E+03  0.54444840801E+03  0.40000000000E+03 0. -1.
<mgrwt>
<rscale>  2 0.44220222E+03</rscale>
<asrwt>0</asrwt>
<pdfrwt beam="1">  1        2 0.11215326E+00 0.44220222E+03</pdfrwt>
<pdfrwt beam="2">  1       -2 0.42689465E-01 0.44220222E+03</pdfrwt>
<totfact> 0.20814541E+02</totfact>
</mgrwt>
</event>
<event>
 4    1  0.2247963E-002  0.4989724E+03  0.7818608E-02  0.1014047E+00
          1   -1    0    0  502    0  0.00000000000E+00  0.00000000000E+00  0.19845150155E+04  0.19845150155E+04  0.00000000000E+00 0. -1.
         -1   -1    0    0    0  501 -0.00000000000E+00 -0.00000000000E+00 -0.16968014163E+03  0.16968014163E+03  0.00000000000E+00 0.  1.
    9000007    1    1    2  502    0 -0.29753658300E+03 -0.21104392951E+02  0.14572862739E+04  0.15403430455E+04  0.40000000000E+03 0. -1.
   -9000007    1    1    2    0  501  0.29753658300E+03  0.21104392951E+02  0.35754859992E+03  0.61385211161E+03  0.40000000000E+03 0.  1.
<mgrwt>
<rscale>  2 0.49897236E+03</rscale>
<asrwt>0</asrwt>
<pdfrwt beam="1">  1        1 0.30530998E+00 0.49897236E+03</pdfrwt>
<pdfrwt beam="2">  1       -1 0.26104639E-01 0.49897236E+03</pdfrwt>
<totfact> 0.42640605E+01</totfact>
</mgrwt>
</event>
<event>
 4    1  0.2247963E-002  0.4226040E+03  0.7818608E-02  0.1036222E+00
          1   -1    0    0  502    0  0.00000000000E+00  0.00000000000E+00  0.51318020561E+03  0.51318020561E+03  0.00000000000E+00 0.  1.
         -1   -1    0    0    0  501 -0.00000000000E+00 -0.00000000000E+00 -0.34888747848E+03  0.34888747848E+03  0.00000000000E+00 0. -1.
    9000007    1    1    2  502    0 -0.10301804141E+03 -0.89338749880E+02  0.10370800787E+03  0.43514305691E+03  0.40000000000E+03 0.  1.
   -9000007    1    1    2    0  501  0.10301804141E+03  0.89338749880E+02  0.60584719258E+02  0.42692462718E+03  0.40000000000E+03 0. -1.
<mgrwt>
<rscale>  2 0.42260399E+03</rscale>
<asrwt>0</asrwt>
<pdfrwt beam="1">  1        1 0.78950801E-01 0.42260399E+03</pdfrwt>
<pdfrwt beam="2">  1       -1 0.53674997E-01 0.42260399E+03</pdfrwt>
<totfact> 0.15572280E+02</totfact>
</mgrwt>
</event>
<event>
 4    1  0.2247963E-002  0.4200112E+03  0.7818608E-02  0.1037063E+00
          2   -1    0    0  502    0  0.00000000000E+00  0.00000000000E+00  0.95843921044E+03  0.95843921044E+03  0.00000000000E+00 0. -1.
         -2   -1    0    0    0  501 -0.00000000000E+00 -0.00000000000E+00 -0.18737991147E+03  0.18737991147E+03  0.00000000000E+00 0.  1.
    9000007    1    1    2  502    0  0.72037516998E+02 -0.10592442176E+03  0.30926003638E+03  0.52158523472E+03  0.40000000000E+03 0.  1.
   -9000007    1    1    2    0  501 -0.72037516998E+02  0.10592442176E+03  0.46179926259E+03  0.62423388718E+03  0.40000000000E+03 0. -1.
<mgrwt>
<rscale>  2 0.42001117E+03</rscale>
<asrwt>0</asrwt>
<pdfrwt beam="1">  1        2 0.14745218E+00 0.42001117E+03</pdfrwt>
<pdfrwt beam="2">  1       -2 0.28827679E-01 0.42001117E+03</pdfrwt>
<totfact> 0.30447336E+02</totfact>
</mgrwt>
</event>
<event>
 4    1  0.2247963E-002  0.4257647E+03  0.7818608E-02  0.1035206E+00
         -1   -1    0    0    0  501 -0.00000000000E+00  0.00000000000E+00  0.31047114359E+03  0.31047114359E+03  0.00000000000E+00 0.  1.
          1   -1    0    0  502    0  0.00000000000E+00 -0.00000000000E+00 -0.70134587446E+03  0.70134587446E+03  0.00000000000E+00 0. -1.
    9000007    1    1    2  502    0 -0.57387635099E+02 -0.13409799055E+03  0.11612661487E+02  0.42592307479E+03  0.40000000000E+03 0.  1.
   -9000007    1    1    2    0  501  0.57387635099E+02  0.13409799055E+03 -0.40248739236E+03  0.58589394326E+03  0.40000000000E+03 0. -1.
<mgrwt>
<rscale>  2 0.42576474E+03</rscale>
<asrwt>0</asrwt>
<pdfrwt beam="1">  1        1 0.10789936E+00 0.42576474E+03</pdfrwt>
<pdfrwt beam="2">  1       -1 0.47764792E-01 0.42576474E+03</pdfrwt>
<totfact> 0.12445183E+02</totfact>
</mgrwt>
</event>
<event>
 4    1  0.2247963E-002  0.6115434E+03  0.7818608E-02  0.9881742E-01
         -2   -1    0    0    0  501 -0.00000000000E+00  0.00000000000E+00  0.56541726125E+03  0.56541726125E+03  0.00000000000E+00 0. -1.
          2   -1    0    0  502    0  0.00000000000E+00 -0.00000000000E+00 -0.85775554087E+03  0.85775554087E+03  0.00000000000E+00 0.  1.
    9000007    1    1    2  502    0  0.46255340948E+03 -0.54494332610E+01 -0.48660202798E+03  0.78151576221E+03  0.40000000000E+03 0.  1.
   -9000007    1    1    2    0  501 -0.46255340948E+03  0.54494332610E+01  0.19426374836E+03  0.64165703991E+03  0.40000000000E+03 0. -1.
<mgrwt>
<rscale>  2 0.61154342E+03</rscale>
<asrwt>0</asrwt>
<pdfrwt beam="1">  1        2 0.13196239E+00 0.61154342E+03</pdfrwt>
<pdfrwt beam="2">  1       -2 0.86987271E-01 0.61154342E+03</pdfrwt>
<totfact> 0.36835252E+01</totfact>
</mgrwt>
</event>
<event>
 4    1  0.2247963E-002  0.4181634E+03  0.7818608E-02  0.1037666E+00
         -1   -1    0    0    0  501 -0.00000000000E+00  0.00000000000E+00  0.21324850495E+03  0.21324850495E+03  0.00000000000E+00 0. -1.
          1   -1    0    0  502    0  0.00000000000E+00 -0.00000000000E+00 -0.82068477257E+03  0.82068477257E+03  0.00000000000E+00 0.  1.
    9000007    1    1    2  502    0 -0.98515112470E+02  0.71801183224E+02 -0.31881068274E+03  0.52583351807E+03  0.40000000000E+03 0. -1.
   -9000007    1    1    2    0  501  0.98515112470E+02 -0.71801183224E+02 -0.28862558489E+03  0.50809975945E+03  0.40000000000E+03 0.  1.
<mgrwt>
<rscale>  2 0.41816341E+03</rscale>
<asrwt>0</asrwt>
<pdfrwt beam="1">  1        1 0.12625920E+00 0.41816341E+03</pdfrwt>
<pdfrwt beam="2">  1       -1 0.32807462E-01 0.41816341E+03</pdfrwt>
<totfact> 0.19225209E+02</totfact>
</mgrwt>
</event>
<event>
 4    1  0.2247963E-002  0.4199708E+03  0.7818608E-02  0.1037076E+00
          1   -1    0    0  502    0  0.00000000000E+00  0.00000000000E+00  0.17338869457E+04  0.17338869457E+04  0.00000000000E+00 0.  1.
         -1   -1    0    0    0  501 -0.00000000000E+00 -0.00000000000E+00 -0.10692476753E+03  0.10692476753E+03  0.00000000000E+00 0. -1.
    9000007    1    1    2  502    0  0.80319664262E+02  0.99620343237E+02  0.10164983821E+04  0.10998383618E+04  0.40000000000E+03 0.  1.
   -9000007    1    1    2    0  501 -0.80319664262E+02 -0.99620343237E+02  0.61046379612E+03  0.74097335149E+03  0.40000000000E+03 0. -1.
<mgrwt>
<rscale>  2 0.41997079E+03</rscale>
<asrwt>0</asrwt>
<pdfrwt beam="1">  1        1 0.26675182E+00 0.41997079E+03</pdfrwt>
<pdfrwt beam="2">  1       -1 0.16449966E-01 0.41997079E+03</pdfrwt>
<totfact> 0.13606028E+02</totfact>
</mgrwt>
</event>
<event>
 4    1  0.2247963E-002  0.5166221E+03  0.7818608E-02  0.1009529E+00
          2   -1    0    0  502    0  0.00000000000E+00  0.00000000000E+00  0.55561248405E+03  0.55561248405E+03  0.00000000000E+00 0. -1.
         -2   -1    0    0    0  501 -0.00000000000E+00 -0.00000000000E+00 -0.13371549919E+04  0.13371549919E+04  0.00000000000E+00 0.  1.
    9000007    1    1    2  502    0  0.25983775094E+03 -0.19845089950E+03 -0.11483239446E+04  0.12591847752E+04  0.40000000000E+03 0.  1.
   -9000007    1    1    2    0  501 -0.25983775094E+03  0.19845089950E+03  0.36678143677E+03  0.63358270074E+03  0.40000000000E+03 0. -1.
<mgrwt>
<rscale>  2 0.51662212E+03</rscale>
<asrwt>0</asrwt>
<pdfrwt beam="1">  1        2 0.85478843E-01 0.51662212E+03</pdfrwt>
<pdfrwt beam="2">  1       -2 0.20571615E+00 0.51662212E+03</pdfrwt>
<totfact> 0.70040289E+00</totfact>
</mgrwt>
</event>
<event>
 4    1  0.2247963E-002  0.4401516E+03  0.7818608E-02  0.1030700E+00
          1   -1    0    0  502    0  0.00000000000E+00  0.00000000000E+00  0.84604387580E+02  0.84604387580E+02  0.00000000000E+00 0.  1.
         -1   -1    0    0    0  501 -0.00000000000E+00 -0.00000000000E+00 -0.23259143779E+04  0.23259143779E+04  0.00000000000E+00 0. -1.
    9000007    1    1    2  502    0  0.97462525303E+01  0.18340797505E+03 -0.12706829216E+04  0.13447559489E+04  0.40000000000E+03 0. -1.
   -9000007    1    1    2    0  501 -0.97462525303E+01 -0.18340797505E+03 -0.97062706868E+03  0.10657628166E+04  0.40000000000E+03 0.  1.
<mgrwt>
<rscale>  2 0.44015165E+03</rscale>
<asrwt>0</asrwt>
<pdfrwt beam="1">  1        1 0.13016062E-01 0.44015165E+03</pdfrwt>
<pdfrwt beam="2">  1       -1 0.35783290E+00 0.44015165E+03</pdfrwt>
<totfact> 0.71516722E+00</totfact>
</mgrwt>
</event>
<event>
 4    1  0.2247963E-002  0.4130485E+03  0.7818608E-02  0.1039353E+00
          1   -1    0    0  502    0  0.00000000000E+00  0.00000000000E+00  0.56113077812E+03  0.56113077812E+03  0.00000000000E+00 0. -1.
         -1   -1    0    0    0  501 -0.00000000000E+00 -0.00000000000E+00 -0.30514033194E+03  0.30514033194E+03  0.00000000000E+00 0.  1.
    9000007    1    1    2  502    0 -0.10290977830E+03 -0.43134784781E+01  0.15394534718E+03  0.44080403638E+03  0.40000000000E+03 0. -1.
   -9000007    1    1    2    0  501  0.10290977830E+03  0.43134784781E+01  0.10204509900E+03  0.42546707369E+03  0.40000000000E+03 0.  1.
<mgrwt>
<rscale>  2 0.41304846E+03</rscale>
<asrwt>0</asrwt>
<pdfrwt beam="1">  1        1 0.86327812E-01 0.41304846E+03</pdfrwt>
<pdfrwt beam="2">  1       -1 0.46944667E-01 0.41304846E+03</pdfrwt>
<totfact> 0.17721849E+02</totfact>
</mgrwt>
</event>
<event>
 4    1  0.2247963E-002  0.4182896E+03  0.7818608E-02  0.1037624E+00
         -2   -1    0    0    0  501 -0.00000000000E+00  0.00000000000E+00  0.14492442450E+03  0.14492442450E+03  0.00000000000E+00 0.  1.
          2   -1    0    0  502    0  0.00000000000E+00 -0.00000000000E+00 -0.12630937953E+04  0.12630937953E+04  0.00000000000E+00 0. -1.
    9000007    1    1    2  502    0  0.73128143273E+02 -0.98073704765E+02 -0.41111169410E+03  0.58649723096E+03  0.40000000000E+03 0. -1.
   -9000007    1    1    2    0  501 -0.73128143273E+02  0.98073704765E+02 -0.70705767668E+03  0.82152098881E+03  0.40000000000E+03 0.  1.
<mgrwt>
<rscale>  2 0.41828958E+03</rscale>
<asrwt>0</asrwt>
<pdfrwt beam="1">  1        2 0.19432213E+00 0.41828958E+03</pdfrwt>
<pdfrwt beam="2">  1       -2 0.22296065E-01 0.41828958E+03</pdfrwt>
<totfact> 0.31682827E+02</totfact>
</mgrwt>
</event>
<event>
 4    1  0.2247963E-002  0.5030052E+03  0.7818608E-02  0.1012997E+00
          2   -1    0    0  502    0  0.00000000000E+00  0.00000000000E+00  0.69877373553E+03  0.69877373553E+03  0.00000000000E+00 0. -1.
         -2   -1    0    0    0  501 -0.00000000000E+00 -0.00000000000E+00 -0.47044206673E+03  0.47044206673E+03  0.00000000000E+00 0.  1.
    9000007    1    1    2  502    0  0.15745033519E+03  0.26119658073E+03 -0.16640578743E+03  0.52981614540E+03  0.40000000000E+03 0.  1.
   -9000007    1    1    2    0  501 -0.15745033519E+03 -0.26119658073E+03  0.39473745624E+03  0.63939965686E+03  0.40000000000E+03 0. -1.
<mgrwt>
<rscale>  2 0.50300523E+03</rscale>
<asrwt>0</asrwt>
<pdfrwt beam="1">  1        2 0.10750365E+00 0.50300523E+03</pdfrwt>
<pdfrwt beam="2">  1       -2 0.72375703E-01 0.50300523E+03</pdfrwt>
<totfact> 0.73298885E+01</totfact>
</mgrwt>
</event>
<event>
 4    1  0.2247963E-002  0.5300949E+03  0.7818608E-02  0.1006209E+00
          1   -1    0    0  502    0  0.00000000000E+00  0.00000000000E+00  0.16517307745E+04  0.16517307745E+04  0.00000000000E+00 0.  1.
         -1   -1    0    0    0  501 -0.00000000000E+00 -0.00000000000E+00 -0.19188562313E+03  0.19188562313E+03  0.00000000000E+00 0. -1.
    9000007    1    1    2  502    0 -0.20062953513E+03  0.28416257747E+03  0.41949826888E+03  0.67600249881E+03  0.40000000000E+03 0. -1.
   -9000007    1    1    2    0  501  0.20062953513E+03 -0.28416257747E+03  0.10403468825E+04  0.11676138988E+04  0.40000000000E+03 0. -1.
<mgrwt>
<rscale>  2 0.53009488E+03</rscale>
<asrwt>0</asrwt>
<pdfrwt beam="1">  1        1 0.25411242E+00 0.53009488E+03</pdfrwt>
<pdfrwt beam="2">  1       -1 0.29520866E-01 0.53009488E+03</pdfrwt>
<totfact> 0.57120788E+01</totfact>
</mgrwt>
</event>
<event>
 4    1  0.2247963E-002  0.4732888E+03  0.7818608E-02  0.1020996E+00
         -2   -1    0    0    0  501 -0.00000000000E+00  0.00000000000E+00  0.36076683048E+03  0.36076683048E+03  0.00000000000E+00 0.  1.
          2   -1    0    0  502    0  0.00000000000E+00 -0.00000000000E+00 -0.69671132553E+03  0.69671132553E+03  0.00000000000E+00 0. -1.
    9000007    1    1    2  502    0  0.13944420153E+03  0.21108675942E+03 -0.34237956732E+03  0.58414559269E+03  0.40000000000E+03 0. -1.
   -9000007    1    1    2    0  501 -0.13944420153E+03 -0.21108675942E+03  0.64350722676E+01  0.47333256332E+03  0.40000000000E+03 0.  1.
<mgrwt>
<rscale>  2 0.47328882E+03</rscale>
<asrwt>0</asrwt>
<pdfrwt beam="1">  1        2 0.10718636E+00 0.47328882E+03</pdfrwt>
<pdfrwt beam="2">  1       -2 0.55502590E-01 0.47328882E+03</pdfrwt>
<totfact> 0.12963590E+02</totfact>
</mgrwt>
</event>
<event>
 4    1  0.2247963E-002  0.4124286E+03  0.7818608E-02  0.1039559E+00
         -1   -1    0    0    0  501 -0.00000000000E+00  0.00000000000E+00  0.16421797932E+03  0.16421797932E+03  0.00000000000E+00 0. -1.
          1   -1    0    0  502    0  0.00000000000E+00 -0.00000000000E+00 -0.10739232959E+04  0.10739232959E+04  0.00000000000E+00 0.  1.
    9000007    1    1    2  502    0  0.91978691619E+02 -0.40463685948E+02 -0.33821610144E+03  0.53337371595E+03  0.40000000000E+03 0. -1.
   -9000007    1    1    2    0  501 -0.91978691619E+02  0.40463685948E+02 -0.57148921515E+03  0.70476755929E+03  0.40000000000E+03 0.  1.
<mgrwt>
<rscale>  2 0.41242865E+03</rscale>
<asrwt>0</asrwt>
<pdfrwt beam="1">  1        1 0.16521897E+00 0.41242865E+03</pdfrwt>
<pdfrwt beam="2">  1       -1 0.25264304E-01 0.41242865E+03</pdfrwt>
<totfact> 0.19073163E+02</totfact>
</mgrwt>
</event>
<event>
 4    1  0.2247963E-002  0.4500239E+03  0.7818608E-02  0.1027715E+00
          2   -1    0    0  502    0  0.00000000000E+00  0.00000000000E+00  0.29410946879E+04  0.29410946879E+04  0.00000000000E+00 0. -1.
         -2   -1    0    0    0  501 -0.00000000000E+00 -0.00000000000E+00 -0.70732041218E+02  0.70732041218E+02  0.00000000000E+00 0.  1.
    9000007    1    1    2  502    0 -0.10298277754E+03 -0.17865067224E+03  0.11901402372E+04  0.12723817428E+04  0.40000000000E+03 0. -1.
   -9000007    1    1    2    0  501  0.10298277754E+03  0.17865067224E+03  0.16802224094E+04  0.17394449863E+04  0.40000000000E+03 0. -1.
<mgrwt>
<rscale>  2 0.45002391E+03</rscale>
<asrwt>0</asrwt>
<pdfrwt beam="1">  1        2 0.45247601E+00 0.45002391E+03</pdfrwt>
<pdfrwt beam="2">  1       -2 0.10881855E-01 0.45002391E+03</pdfrwt>
<totfact> 0.12505977E+02</totfact>
</mgrwt>
</event>
<event>
 4    1  0.2247963E-002  0.6451226E+03  0.7818608E-02  0.9815975E-01
          2   -1    0    0  502    0  0.00000000000E+00  0.00000000000E+00  0.10583466661E+04  0.10583466661E+04  0.00000000000E+00 0.  1.
         -2   -1    0    0    0  501 -0.00000000000E+00 -0.00000000000E+00 -0.39675010048E+03  0.39675010048E+03  0.00000000000E+00 0. -1.
    9000007    1    1    2  502    0  0.26180907300E+03  0.43317338664E+03  0.39924074590E+03  0.75866748104E+03  0.40000000000E+03 0. -1.
   -9000007    1    1    2    0  501 -0.26180907300E+03 -0.43317338664E+03  0.26235581969E+03  0.69642928551E+03  0.40000000000E+03 0.  1.
<mgrwt>
<rscale>  2 0.64512260E+03</rscale>
<asrwt>0</asrwt>
<pdfrwt beam="1">  1        2 0.16282256E+00 0.64512260E+03</pdfrwt>
<pdfrwt beam="2">  1       -2 0.61038478E-01 0.64512260E+03</pdfrwt>
<totfact> 0.59238517E+01</totfact>
</mgrwt>
</event>
<event>
 4    1  0.2247963E-002  0.4141951E+03  0.7818608E-02  0.1038972E+00
         -1   -1    0    0    0  501 -0.00000000000E+00  0.00000000000E+00  0.86864909576E+02  0.86864909576E+02  0.00000000000E+00 0. -1.
          1   -1    0    0  502    0  0.00000000000E+00 -0.00000000000E+00 -0.28863723157E+04  0.28863723157E+04  0.00000000000E+00 0.  1.
    9000007    1    1    2  502    0  0.76792395065E+02  0.75236189227E+02 -0.22351125244E+04  0.22731664156E+04  0.40000000000E+03 0.  1.
   -9000007    1    1    2    0  501 -0.76792395065E+02 -0.75236189227E+02 -0.56439488177E+03  0.70007080976E+03  0.40000000000E+03 0. -1.
<mgrwt>
<rscale>  2 0.41419507E+03</rscale>
<asrwt>0</asrwt>
<pdfrwt beam="1">  1        1 0.44405737E+00 0.41419507E+03</pdfrwt>
<pdfrwt beam="2">  1       -1 0.13363830E-01 0.41419507E+03</pdfrwt>
<totfact> 0.32183090E+01</totfact>
</mgrwt>
</event>
<event>
 4    1  0.2247963E-002  0.5974754E+03  0.7818608E-02  0.9910658E-01
         -1   -1    0    0    0  501 -0.00000000000E+00  0.00000000000E+00  0.18979171656E+03  0.18979171656E+03  0.00000000000E+00 0. -1.
          1   -1    0    0  502    0  0.00000000000E+00 -0.00000000000E+00 -0.19137979697E+04  0.19137979697E+04  0.00000000000E+00 0.  1.
    9000007    1    1    2  502    0  0.43870913380E+03  0.67165004456E+02 -0.99993064263E+03  0.11648339504E+04  0.40000000000E+03 0.  1.
   -9000007    1    1    2    0  501 -0.43870913380E+03 -0.67165004456E+02 -0.72407561049E+03  0.93875573586E+03  0.40000000000E+03 0.  1.
<mgrwt>
<rscale>  2 0.59747539E+03</rscale>
<asrwt>0</asrwt>
<pdfrwt beam="1">  1        1 0.29443044E+00 0.59747539E+03</pdfrwt>
<pdfrwt beam="2">  1       -1 0.29198728E-01 0.59747539E+03</pdfrwt>
<totfact> 0.38547457E+01</totfact>
</mgrwt>
</event>
<event>
 4    1  0.2247963E-002  0.9391919E+03  0.7818608E-02  0.9377874E-01
          2   -1    0    0  502    0  0.00000000000E+00  0.00000000000E+00  0.35872969451E+04  0.35872969451E+04  0.00000000000E+00 0.  1.
         -2   -1    0    0    0  501 -0.00000000000E+00 -0.00000000000E+00 -0.24620570329E+03  0.24620570329E+03  0.00000000000E+00 0. -1.
    9000007    1    1    2  502    0 -0.60607361413E+03 -0.59561415796E+03  0.16019394038E+04  0.18569575398E+04  0.40000000000E+03 0.  1.
   -9000007    1    1    2    0  501  0.60607361413E+03  0.59561415796E+03  0.17391518379E+04  0.19765451086E+04  0.40000000000E+03 0. -1.
<mgrwt>
<rscale>  2 0.93919191E+03</rscale>
<asrwt>0</asrwt>
<pdfrwt beam="1">  1        2 0.55189180E+00 0.93919191E+03</pdfrwt>
<pdfrwt beam="2">  1       -2 0.37877803E-01 0.93919191E+03</pdfrwt>
<totfact> 0.48689264E+00</totfact>
</mgrwt>
</event>
<event>
 4    1  0.2247963E-002  0.4057524E+03  0.7818608E-02  0.1041806E+00
          2   -1    0    0  502    0  0.00000000000E+00  0.00000000000E+00  0.75010722935E+03  0.75010722935E+03  0.00000000000E+00 0.  1.
         -2   -1    0    0    0  501 -0.00000000000E+00 -0.00000000000E+00 -0.22256652558E+03  0.22256652558E+03  0.00000000000E+00 0. -1.
    9000007    1    1    2  502    0 -0.45254130363E+02 -0.50863032810E+02  0.32102440090E+03  0.51738926390E+03  0.40000000000E+03 0.  1.
   -9000007    1    1    2    0  501  0.45254130363E+02  0.50863032810E+02  0.20651630287E+03  0.45528449103E+03  0.40000000000E+03 0. -1.
<mgrwt>
<rscale>  2 0.40575237E+03</rscale>
<asrwt>0</asrwt>
<pdfrwt beam="1">  1        2 0.11540111E+00 0.40575237E+03</pdfrwt>
<pdfrwt beam="2">  1       -2 0.34241004E-01 0.40575237E+03</pdfrwt>
<totfact> 0.30724257E+02</totfact>
</mgrwt>
</event>
<event>
 4    1  0.2247963E-002  0.4379373E+03  0.7818608E-02  0.1031382E+00
          2   -1    0    0  502    0  0.00000000000E+00  0.00000000000E+00  0.13388445790E+04  0.13388445790E+04  0.00000000000E+00 0.  1.
         -2   -1    0    0    0  501 -0.00000000000E+00 -0.00000000000E+00 -0.14325878019E+03  0.14325878019E+03  0.00000000000E+00 0. -1.
    9000007    1    1    2  502    0 -0.39983863055E+02  0.17375368434E+03  0.60370047029E+03  0.74581720948E+03  0.40000000000E+03 0. -1.
   -9000007    1    1    2    0  501  0.39983863055E+02 -0.17375368434E+03  0.59188532847E+03  0.73628614967E+03  0.40000000000E+03 0. -1.
<mgrwt>
<rscale>  2 0.43793727E+03</rscale>
<asrwt>0</asrwt>
<pdfrwt beam="1">  1        2 0.20597608E+00 0.43793727E+03</pdfrwt>
<pdfrwt beam="2">  1       -2 0.22039813E-01 0.43793727E+03</pdfrwt>
<totfact> 0.29238980E+02</totfact>
</mgrwt>
</event>
<event>
 4    1  0.2247963E-002  0.5168489E+03  0.7818608E-02  0.1009472E+00
          2   -1    0    0  502    0  0.00000000000E+00  0.00000000000E+00  0.20922847889E+03  0.20922847889E+03  0.00000000000E+00 0. -1.
         -2   -1    0    0    0  501 -0.00000000000E+00 -0.00000000000E+00 -0.13954649736E+04  0.13954649736E+04  0.00000000000E+00 0.  1.
    9000007    1    1    2  502    0 -0.32193627586E+03  0.59074808235E+02 -0.82713794178E+03  0.97534095239E+03  0.40000000000E+03 0.  1.
   -9000007    1    1    2    0  501  0.32193627586E+03 -0.59074808235E+02 -0.35909855296E+03  0.62935250013E+03  0.40000000000E+03 0. -1.
<mgrwt>
<rscale>  2 0.51684891E+03</rscale>
<asrwt>0</asrwt>
<pdfrwt beam="1">  1        2 0.32188997E-01 0.51684891E+03</pdfrwt>
<pdfrwt beam="2">  1       -2 0.21468691E+00 0.51684891E+03</pdfrwt>
<totfact> 0.18318992E+01</totfact>
</mgrwt>
</event>
<event>
 4    1  0.2247963E-002  0.4258833E+03  0.7818608E-02  0.1035168E+00
         -2   -1    0    0    0  501 -0.00000000000E+00  0.00000000000E+00  0.16852817341E+03  0.16852817341E+03  0.00000000000E+00 0. -1.
          2   -1    0    0  502    0  0.00000000000E+00 -0.00000000000E+00 -0.11616588212E+04  0.11616588212E+04  0.00000000000E+00 0.  1.
    9000007    1    1    2  502    0 -0.26044972683E+02  0.14386898205E+03 -0.31621278762E+03  0.53044052603E+03  0.40000000000E+03 0.  1.
   -9000007    1    1    2    0  501  0.26044972683E+02 -0.14386898205E+03 -0.67691786021E+03  0.79974646862E+03  0.40000000000E+03 0.  1.
<mgrwt>
<rscale>  2 0.42588335E+03</rscale>
<asrwt>0</asrwt>
<pdfrwt beam="1">  1        2 0.17871674E+00 0.42588335E+03</pdfrwt>
<pdfrwt beam="2">  1       -2 0.25927412E-01 0.42588335E+03</pdfrwt>
<totfact> 0.27714791E+02</totfact>
</mgrwt>
</event>
<event>
 4    1  0.2247963E-002  0.6529955E+03  0.7818608E-02  0.9801174E-01
          2   -1    0    0  502    0  0.00000000000E+00  0.00000000000E+00  0.13083072532E+04  0.13083072532E+04  0.00000000000E+00 0. -1.
         -2   -1    0    0    0  501 -0.00000000000E+00 -0.00000000000E+00 -0.54025069439E+03  0.54025069439E+03  0.00000000000E+00 0.  1.
    9000007    1    1    2  502    0 -0.27075177700E+03 -0.43942763727E+03  0.96619562965E+03  0.11661634396E+04  0.40000000000E+03 0. -1.
   -9000007    1    1    2    0  501  0.27075177700E+03  0.43942763727E+03 -0.19813907082E+03  0.68239450799E+03  0.40000000000E+03 0.  1.
<mgrwt>
<rscale>  2 0.65299554E+03</rscale>
<asrwt>0</asrwt>
<pdfrwt beam="1">  1        2 0.20127804E+00 0.65299554E+03</pdfrwt>
<pdfrwt beam="2">  1       -2 0.83115492E-01 0.65299554E+03</pdfrwt>
<totfact> 0.21410582E+01</totfact>
</mgrwt>
</event>
<event>
 4    1  0.2247963E-002  0.4012465E+03  0.7818608E-02  0.1043349E+00
          2   -1    0    0  502    0  0.00000000000E+00  0.00000000000E+00  0.32148059064E+03  0.32148059064E+03  0.00000000000E+00 0. -1.
         -2   -1    0    0    0  501 -0.00000000000E+00 -0.00000000000E+00 -0.53226728827E+03  0.53226728827E+03  0.00000000000E+00 0.  1.
    9000007    1    1    2  502    0  0.30409089715E+02 -0.86026974660E+01 -0.20917911802E+03  0.45249820172E+03  0.40000000000E+03 0.  1.
   -9000007    1    1    2    0  501 -0.30409089715E+02  0.86026974660E+01 -0.16075796076E+01  0.40124967720E+03  0.40000000000E+03 0. -1.
<mgrwt>
<rscale>  2 0.40124646E+03</rscale>
<asrwt>0</asrwt>
<pdfrwt beam="1">  1        2 0.49458553E-01 0.40124646E+03</pdfrwt>
<pdfrwt beam="2">  1       -2 0.81887274E-01 0.40124646E+03</pdfrwt>
<totfact> 0.13694934E+02</totfact>
</mgrwt>
</event>
<event>
 4    1  0.2247963E-002  0.4978323E+03  0.7818608E-02  0.1014346E+00
         -2   -1    0    0    0  501 -0.00000000000E+00  0.00000000000E+00  0.81635769415E+03  0.81635769415E+03  0.00000000000E+00 0.  1.
          2   -1    0    0  502    0  0.00000000000E+00 -0.00000000000E+00 -0.35163875470E+03  0.35163875470E+03  0.00000000000E+00 0. -1.
    9000007    1    1    2  502    0  0.35429318734E+02 -0.29424772294E+03  0.44823835644E+03  0.66989147126E+03  0.40000000000E+03 0.  1.
   -9000007    1    1    2    0  501 -0.35429318734E+02  0.29424772294E+03  0.16480583014E+02  0.49810497759E+03  0.40000000000E+03 0. -1.
<mgrwt>
<rscale>  2 0.49783226E+03</rscale>
<asrwt>0</asrwt>
<pdfrwt beam="1">  1        2 0.54098270E-01 0.49783226E+03</pdfrwt>
<pdfrwt beam="2">  1       -2 0.12559349E+00 0.49783226E+03</pdfrwt>
<totfact> 0.44894928E+01</totfact>
</mgrwt>
</event>
<event>
 4    1  0.2247963E-002  0.4500388E+03  0.7818608E-02  0.1027710E+00
          1   -1    0    0  502    0  0.00000000000E+00  0.00000000000E+00  0.14855511791E+04  0.14855511791E+04  0.00000000000E+00 0. -1.
         -1   -1    0    0    0  501 -0.00000000000E+00 -0.00000000000E+00 -0.14686205504E+03  0.14686205504E+03  0.00000000000E+00 0.  1.
    9000007    1    1    2  502    0 -0.12967372743E+03 -0.16037345716E+03  0.45083683467E+03  0.63701552009E+03  0.40000000000E+03 0.  1.
   -9000007    1    1    2    0  501  0.12967372743E+03  0.16037345716E+03  0.88785228940E+03  0.99539771405E+03  0.40000000000E+03 0. -1.
<mgrwt>
<rscale>  2 0.45003880E+03</rscale>
<asrwt>0</asrwt>
<pdfrwt beam="1">  1        1 0.22854632E+00 0.45003880E+03</pdfrwt>
<pdfrwt beam="2">  1       -1 0.22594163E-01 0.45003880E+03</pdfrwt>
<totfact> 0.11773372E+02</totfact>
</mgrwt>
</event>
<event>
 4    1  0.2247963E-002  0.4203221E+03  0.7818608E-02  0.1036962E+00
         -2   -1    0    0    0  501 -0.00000000000E+00  0.00000000000E+00  0.52417863783E+02  0.52417863783E+02  0.00000000000E+00 0. -1.
          2   -1    0    0  502    0  0.00000000000E+00 -0.00000000000E+00 -0.36665151046E+04  0.36665151046E+04  0.00000000000E+00 0.  1.
    9000007    1    1    2  502    0 -0.81305338389E+02  0.10030025056E+03 -0.23354579628E+04  0.23729801083E+04  0.40000000000E+03 0.  1.
   -9000007    1    1    2    0  501  0.81305338389E+02 -0.10030025056E+03 -0.12786392780E+04  0.13459528601E+04  0.40000000000E+03 0. -1.
<mgrwt>
<rscale>  2 0.42032214E+03</rscale>
<asrwt>0</asrwt>
<pdfrwt beam="1">  1        2 0.56407933E+00 0.42032214E+03</pdfrwt>
<pdfrwt beam="2">  1       -2 0.80642855E-02 0.42032214E+03</pdfrwt>
<totfact> 0.69509356E+01</totfact>
</mgrwt>
</event>
<event>
 4    1  0.2247963E-002  0.4191420E+03  0.7818608E-02  0.1037346E+00
          1   -1    0    0  502    0  0.00000000000E+00  0.00000000000E+00  0.52988465589E+03  0.52988465589E+03  0.00000000000E+00 0. -1.
         -1   -1    0    0    0  501 -0.00000000000E+00 -0.00000000000E+00 -0.33195882191E+03  0.33195882191E+03  0.00000000000E+00 0.  1.
    9000007    1    1    2  502    0 -0.65770322311E+02  0.10655652892E+03  0.11419768134E+03  0.43442046404E+03  0.40000000000E+03 0.  1.
   -9000007    1    1    2    0  501  0.65770322311E+02 -0.10655652892E+03  0.83728152644E+02  0.42742301377E+03  0.40000000000E+03 0.  1.
<mgrwt>
<rscale>  2 0.41914202E+03</rscale>
<asrwt>0</asrwt>
<pdfrwt beam="1">  1        1 0.81520717E-01 0.41914202E+03</pdfrwt>
<pdfrwt beam="2">  1       -1 0.51070588E-01 0.41914202E+03</pdfrwt>
<totfact> 0.16381067E+02</totfact>
</mgrwt>
</event>
<event>
 4    1  0.2247963E-002  0.4391806E+03  0.7818608E-02  0.1030999E+00
          1   -1    0    0  502    0  0.00000000000E+00  0.00000000000E+00  0.13918780829E+04  0.13918780829E+04  0.00000000000E+00 0.  1.
         -1   -1    0    0    0  501 -0.00000000000E+00 -0.00000000000E+00 -0.14193779635E+03  0.14193779635E+03  0.00000000000E+00 0. -1.
    9000007    1    1    2  502    0  0.91454919012E+02 -0.15657448557E+03  0.50692682551E+03  0.67071184436E+03  0.40000000000E+03 0.  1.
   -9000007    1    1    2    0  501 -0.91454919012E+02  0.15657448557E+03  0.74301346099E+03  0.86310403484E+03  0.40000000000E+03 0.  1.
<mgrwt>
<rscale>  2 0.43918057E+03</rscale>
<asrwt>0</asrwt>
<pdfrwt beam="1">  1        1 0.21413508E+00 0.43918057E+03</pdfrwt>
<pdfrwt beam="2">  1       -1 0.21836585E-01 0.43918057E+03</pdfrwt>
<totfact> 0.14452512E+02</totfact>
</mgrwt>
</event>
<event>
 4    1  0.2247963E-002  0.4879470E+03  0.7818608E-02  0.1016974E+00
         -1   -1    0    0    0  501 -0.00000000000E+00  0.00000000000E+00  0.71221385516E+03  0.71221385516E+03  0.00000000000E+00 0.  1.
          1   -1    0    0  502    0  0.00000000000E+00 -0.00000000000E+00 -0.34328806461E+03  0.34328806461E+03  0.00000000000E+00 0. -1.
    9000007    1    1    2  502    0 -0.21372834046E+03 -0.18003470425E+03  0.26986325278E+03  0.55760063975E+03  0.40000000000E+03 0.  1.
   -9000007    1    1    2    0  501  0.21372834046E+03  0.18003470425E+03  0.99062537774E+02  0.49790128001E+03  0.40000000000E+03 0.  1.
<mgrwt>
<rscale>  2 0.48794702E+03</rscale>
<asrwt>0</asrwt>
<pdfrwt beam="1">  1        1 0.52813549E-01 0.48794702E+03</pdfrwt>
<pdfrwt beam="2">  1       -1 0.10957136E+00 0.48794702E+03</pdfrwt>
<totfact> 0.59127899E+01</totfact>
</mgrwt>
</event>
<event>
 4    1  0.2247963E-002  0.4224570E+03  0.7818608E-02  0.1036270E+00
         -2   -1    0    0    0  501 -0.00000000000E+00  0.00000000000E+00  0.14545215474E+04  0.14545215474E+04  0.00000000000E+00 0.  1.
          2   -1    0    0  502    0  0.00000000000E+00 -0.00000000000E+00 -0.14812357979E+03  0.14812357979E+03  0.00000000000E+00 0. -1.
    9000007    1    1    2  502    0 -0.13561429581E+03 -0.88703464689E+01  0.32121824994E+03  0.53070809714E+03  0.40000000000E+03 0.  1.
   -9000007    1    1    2    0  501  0.13561429581E+03  0.88703464689E+01  0.98517971763E+03  0.10719370300E+04  0.40000000000E+03 0. -1.
<mgrwt>
<rscale>  2 0.42245700E+03</rscale>
<asrwt>0</asrwt>
<pdfrwt beam="1">  1        2 0.22788244E-01 0.42245700E+03</pdfrwt>
<pdfrwt beam="2">  1       -2 0.22377254E+00 0.42245700E+03</pdfrwt>
<totfact> 0.24070853E+01</totfact>
</mgrwt>
</event>
<event>
 4    1  0.2247963E-002  0.4353332E+03  0.7818608E-02  0.1032188E+00
          2   -1    0    0  502    0  0.00000000000E+00  0.00000000000E+00  0.16040800268E+04  0.16040800268E+04  0.00000000000E+00 0.  1.
         -2   -1    0    0    0  501 -0.00000000000E+00 -0.00000000000E+00 -0.16706634366E+03  0.16706634366E+03  0.00000000000E+00 0. -1.
    9000007    1    1    2  502    0  0.42375337233E+02  0.16649113990E+03  0.23929606341E+03  0.49676712335E+03  0.40000000000E+03 0. -1.
   -9000007    1    1    2    0  501 -0.42375337233E+02 -0.16649113990E+03  0.11977176197E+04  0.12743792471E+04  0.40000000000E+03 0.  1.
<mgrwt>
<rscale>  2 0.43533317E+03</rscale>
<asrwt>0</asrwt>
<pdfrwt beam="1">  1        2 0.24678153E+00 0.43533317E+03</pdfrwt>
<pdfrwt beam="2">  1       -2 0.25702516E-01 0.43533317E+03</pdfrwt>
<totfact> 0.15919544E+02</totfact>
</mgrwt>
</event>
<event>
 4    1  0.2247963E-002  0.4386963E+03  0.7818608E-02  0.1031148E+00
          2   -1    0    0  502    0  0.00000000000E+00  0.00000000000E+00  0.65065494211E+03  0.65065494211E+03  0.00000000000E+00 0. -1.
         -2   -1    0    0    0  501 -0.00000000000E+00 -0.00000000000E+00 -0.29578691775E+03  0.29578691775E+03  0.00000000000E+00 0.  1.
    9000007    1    1    2  502    0  0.12606285355E+03  0.12869580700E+03  0.17648988357E+03  0.47286692926E+03  0.40000000000E+03 0.  1.
   -9000007    1    1    2    0  501 -0.12606285355E+03 -0.12869580700E+03  0.17837814079E+03  0.47357493060E+03  0.40000000000E+03 0.  1.
<mgrwt>
<rscale>  2 0.43869631E+03</rscale>
<asrwt>0</asrwt>
<pdfrwt beam="1">  1        2 0.10010076E+00 0.43869631E+03</pdfrwt>
<pdfrwt beam="2">  1       -2 0.45505680E-01 0.43869631E+03</pdfrwt>
<totfact> 0.21125766E+02</totfact>
</mgrwt>
</event>
<event>
 4    1  0.2247963E-002  0.4407147E+03  0.7818608E-02  0.1030528E+00
          2   -1    0    0  502    0  0.00000000000E+00  0.00000000000E+00  0.51290197231E+03  0.51290197231E+03  0.00000000000E+00 0. -1.
         -2   -1    0    0    0  501 -0.00000000000E+00 -0.00000000000E+00 -0.38445292151E+03  0.38445292151E+03  0.00000000000E+00 0.  1.
    9000007    1    1    2  502    0 -0.12114559046E+03 -0.13983288169E+03  0.92788109421E+01  0.44081241500E+03  0.40000000000E+03 0.  1.
   -9000007    1    1    2    0  501  0.12114559046E+03  0.13983288169E+03  0.11917023986E+03  0.45654247881E+03  0.40000000000E+03 0.  1.
<mgrwt>
<rscale>  2 0.44071475E+03</rscale>
<asrwt>0</asrwt>
<pdfrwt beam="1">  1        2 0.78907996E-01 0.44071475E+03</pdfrwt>
<pdfrwt beam="2">  1       -2 0.59146603E-01 0.44071475E+03</pdfrwt>
<totfact> 0.16399127E+02</totfact>
</mgrwt>
</event>
<event>
 4    1  0.2247963E-002  0.4145531E+03  0.7818608E-02  0.1038854E+00
         -1   -1    0    0    0  501 -0.00000000000E+00  0.00000000000E+00  0.59507932150E+02  0.59507932150E+02  0.00000000000E+00 0.  1.
          1   -1    0    0  502    0  0.00000000000E+00 -0.00000000000E+00 -0.32892793272E+04  0.32892793272E+04  0.00000000000E+00 0. -1.
    9000007    1    1    2  502    0  0.23679363281E+01  0.10885169030E+03 -0.21997734129E+04  0.22384944417E+04  0.40000000000E+03 0. -1.
   -9000007    1    1    2    0  501 -0.23679363281E+01 -0.10885169030E+03 -0.10299979822E+04  0.11102928176E+04  0.40000000000E+03 0.  1.
<mgrwt>
<rscale>  2 0.41455313E+03</rscale>
<asrwt>0</asrwt>
<pdfrwt beam="1">  1        1 0.50604302E+00 0.41455313E+03</pdfrwt>
<pdfrwt beam="2">  1       -1 0.91550656E-02 0.41455313E+03</pdfrwt>
<totfact> 0.30049537E+01</totfact>
</mgrwt>
</event>
<event>
 4    1  0.2247963E-002  0.4549814E+03  0.7818608E-02  0.1026247E+00
          1   -1    0    0  502    0  0.00000000000E+00  0.00000000000E+00  0.10121147190E+04  0.10121147190E+04  0.00000000000E+00 0.  1.
         -1   -1    0    0    0  501 -0.00000000000E+00 -0.00000000000E+00 -0.21803651289E+03  0.21803651289E+03  0.00000000000E+00 0. -1.
    9000007    1    1    2  502    0  0.11843921312E+03  0.18160466988E+03  0.24395465603E+03  0.51625766583E+03  0.40000000000E+03 0. -1.
   -9000007    1    1    2    0  501 -0.11843921312E+03 -0.18160466988E+03  0.55012355006E+03  0.71389356605E+03  0.40000000000E+03 0. -1.
<mgrwt>
<rscale>  2 0.45498143E+03</rscale>
<asrwt>0</asrwt>
<pdfrwt beam="1">  1        1 0.15570995E+00 0.45498143E+03</pdfrwt>
<pdfrwt beam="2">  1       -1 0.33544079E-01 0.45498143E+03</pdfrwt>
<totfact> 0.12968889E+02</totfact>
</mgrwt>
</event>
<event>
 4    1  0.2247963E-002  0.4402319E+03  0.7818608E-02  0.1030676E+00
          1   -1    0    0  502    0  0.00000000000E+00  0.00000000000E+00  0.52238208081E+03  0.52238208081E+03  0.00000000000E+00 0.  1.
         -1   -1    0    0    0  501 -0.00000000000E+00 -0.00000000000E+00 -0.42306393778E+03  0.42306393778E+03  0.00000000000E+00 0. -1.
    9000007    1    1    2  502    0 -0.10672837848E+03  0.14971037726E+03  0.21549136818E+03  0.49014352346E+03  0.40000000000E+03 0.  1.
   -9000007    1    1    2    0  501  0.10672837848E+03 -0.14971037726E+03 -0.11617322515E+03  0.45530249513E+03  0.40000000000E+03 0. -1.
<mgrwt>
<rscale>  2 0.44023192E+03</rscale>
<asrwt>0</asrwt>
<pdfrwt beam="1">  1        1 0.80366474E-01 0.44023192E+03</pdfrwt>
<pdfrwt beam="2">  1       -1 0.65086759E-01 0.44023192E+03</pdfrwt>
<totfact> 0.10431253E+02</totfact>
</mgrwt>
</event>
<event>
 4    1  0.2247963E-002  0.5706416E+03  0.7818608E-02  0.9968260E-01
         -2   -1    0    0    0  501 -0.00000000000E+00  0.00000000000E+00  0.63739529723E+03  0.63739529723E+03  0.00000000000E+00 0. -1.
          2   -1    0    0  502    0  0.00000000000E+00 -0.00000000000E+00 -0.82472563316E+03  0.82472563316E+03  0.00000000000E+00 0.  1.
    9000007    1    1    2  502    0 -0.37657554351E+03 -0.15434592196E+03  0.35731491616E+03  0.67327984739E+03  0.40000000000E+03 0. -1.
   -9000007    1    1    2    0  501  0.37657554351E+03  0.15434592196E+03 -0.54464525209E+03  0.78884108299E+03  0.40000000000E+03 0.  1.
<mgrwt>
<rscale>  2 0.57064157E+03</rscale>
<asrwt>0</asrwt>
<pdfrwt beam="1">  1        2 0.12688087E+00 0.57064157E+03</pdfrwt>
<pdfrwt beam="2">  1       -2 0.98060815E-01 0.57064157E+03</pdfrwt>
<totfact> 0.29564530E+01</totfact>
</mgrwt>
</event>
<event>
 4    1  0.2247963E-002  0.4789197E+03  0.7818608E-02  0.1019432E+00
         -2   -1    0    0    0  501 -0.00000000000E+00  0.00000000000E+00  0.29171922728E+03  0.29171922728E+03  0.00000000000E+00 0. -1.
          2   -1    0    0  502    0  0.00000000000E+00 -0.00000000000E+00 -0.10106928120E+04  0.10106928120E+04  0.00000000000E+00 0.  1.
    9000007    1    1    2  502    0  0.20089247512E+03  0.17031227900E+03 -0.52611249885E+02  0.48180079135E+03  0.40000000000E+03 0. -1.
   -9000007    1    1    2    0  501 -0.20089247512E+03 -0.17031227900E+03 -0.66636233479E+03  0.82061124789E+03  0.40000000000E+03 0.  1.
<mgrwt>
<rscale>  2 0.47891968E+03</rscale>
<asrwt>0</asrwt>
<pdfrwt beam="1">  1        2 0.15549120E+00 0.47891968E+03</pdfrwt>
<pdfrwt beam="2">  1       -2 0.44879881E-01 0.47891968E+03</pdfrwt>
<totfact> 0.12105222E+02</totfact>
</mgrwt>
</event>
<event>
 4    1  0.2247963E-002  0.5002389E+03  0.7818608E-02  0.1013717E+00
         -2   -1    0    0    0  501 -0.00000000000E+00  0.00000000000E+00  0.86835125662E+03  0.86835125662E+03  0.00000000000E+00 0. -1.
          2   -1    0    0  502    0  0.00000000000E+00 -0.00000000000E+00 -0.10401173075E+04  0.10401173075E+04  0.00000000000E+00 0.  1.
    9000007    1    1    2  502    0  0.27645830025E+03 -0.11751477308E+03  0.72546188942E+03  0.88121159018E+03  0.40000000000E+03 0. -1.
   -9000007    1    1    2    0  501 -0.27645830025E+03  0.11751477308E+03 -0.89722794032E+03  0.10272569740E+04  0.40000000000E+03 0.  1.
<mgrwt>
<rscale>  2 0.50023886E+03</rscale>
<asrwt>0</asrwt>
<pdfrwt beam="1">  1        2 0.16001805E+00 0.50023886E+03</pdfrwt>
<pdfrwt beam="2">  1       -2 0.13359250E+00 0.50023886E+03</pdfrwt>
<totfact> 0.10165292E+01</totfact>
</mgrwt>
</event>
<event>
 4    1  0.2247963E-002  0.4028044E+03  0.7818608E-02  0.1042813E+00
         -2   -1    0    0    0  501 -0.00000000000E+00  0.00000000000E+00  0.21265948966E+03  0.21265948966E+03  0.00000000000E+00 0.  1.
          2   -1    0    0  502    0  0.00000000000E+00 -0.00000000000E+00 -0.85472399088E+03  0.85472399088E+03  0.00000000000E+00 0. -1.
    9000007    1    1    2  502    0  0.46188022028E+02 -0.10864665547E+02 -0.14616599862E+03  0.42850422809E+03  0.40000000000E+03 0.  1.
   -9000007    1    1    2    0  501 -0.46188022028E+02  0.10864665547E+02 -0.49589850260E+03  0.63887925246E+03  0.40000000000E+03 0. -1.
<mgrwt>
<rscale>  2 0.40280439E+03</rscale>
<asrwt>0</asrwt>
<pdfrwt beam="1">  1        2 0.13149600E+00 0.40280439E+03</pdfrwt>
<pdfrwt beam="2">  1       -2 0.32716845E-01 0.40280439E+03</pdfrwt>
<totfact> 0.28243312E+02</totfact>
</mgrwt>
</event>
<event>
 4    1  0.2247963E-002  0.5260654E+03  0.7818608E-02  0.1007191E+00
         -2   -1    0    0    0  501 -0.00000000000E+00  0.00000000000E+00  0.31550709020E+04  0.31550709020E+04  0.00000000000E+00 0.  1.
          2   -1    0    0  502    0  0.00000000000E+00 -0.00000000000E+00 -0.11628888002E+03  0.11628888002E+03  0.00000000000E+00 0. -1.
    9000007    1    1    2  502    0 -0.25025247840E+03  0.23263380279E+03  0.70858070453E+03  0.88251425143E+03  0.40000000000E+03 0. -1.
   -9000007    1    1    2    0  501  0.25025247840E+03 -0.23263380279E+03  0.23302013175E+04  0.23888455306E+04  0.40000000000E+03 0.  1.
<mgrwt>
<rscale>  2 0.52606538E+03</rscale>
<asrwt>0</asrwt>
<pdfrwt beam="1">  1        2 0.17890599E-01 0.52606538E+03</pdfrwt>
<pdfrwt beam="2">  1       -2 0.48539546E+00 0.52606538E+03</pdfrwt>
<totfact> 0.73044575E-01</totfact>
</mgrwt>
</event>
<event>
 4    1  0.2247963E-002  0.4120999E+03  0.7818608E-02  0.1039669E+00
          1   -1    0    0  502    0  0.00000000000E+00  0.00000000000E+00  0.14372549371E+04  0.14372549371E+04  0.00000000000E+00 0. -1.
         -1   -1    0    0    0  501 -0.00000000000E+00 -0.00000000000E+00 -0.13178565661E+03  0.13178565661E+03  0.00000000000E+00 0.  1.
    9000007    1    1    2  502    0 -0.79183606907E+02 -0.59634683301E+02  0.90499299142E+03  0.99440366732E+03  0.40000000000E+03 0. -1.
   -9000007    1    1    2    0  501  0.79183606907E+02  0.59634683301E+02  0.40047628904E+03  0.57463692636E+03  0.40000000000E+03 0.  1.
<mgrwt>
<rscale>  2 0.41209991E+03</rscale>
<asrwt>0</asrwt>
<pdfrwt beam="1">  1        1 0.22111613E+00 0.41209991E+03</pdfrwt>
<pdfrwt beam="2">  1       -1 0.20274717E-01 0.41209991E+03</pdfrwt>
<totfact> 0.15277980E+02</totfact>
</mgrwt>
</event>
<event>
 4    1  0.2247963E-002  0.4824883E+03  0.7818608E-02  0.1018454E+00
         -1   -1    0    0    0  501 -0.00000000000E+00  0.00000000000E+00  0.75200132274E+03  0.75200132274E+03  0.00000000000E+00 0.  1.
          1   -1    0    0  502    0  0.00000000000E+00 -0.00000000000E+00 -0.32402541252E+03  0.32402541252E+03  0.00000000000E+00 0. -1.
    9000007    1    1    2  502    0 -0.99768801701E+02  0.25068142213E+03  0.10034044447E+03  0.49281151974E+03  0.40000000000E+03 0. -1.
   -9000007    1    1    2    0  501  0.99768801701E+02 -0.25068142213E+03  0.32763546575E+03  0.58321521552E+03  0.40000000000E+03 0.  1.
<mgrwt>
<rscale>  2 0.48248833E+03</rscale>
<asrwt>0</asrwt>
<pdfrwt beam="1">  1        1 0.49850064E-01 0.48248833E+03</pdfrwt>
<pdfrwt beam="2">  1       -1 0.11569251E+00 0.48248833E+03</pdfrwt>
<totfact> 0.56084489E+01</totfact>
</mgrwt>
</event>
<event>
 4    1  0.2247963E-002  0.4150906E+03  0.7818608E-02  0.1038676E+00
         -1   -1    0    0    0  501 -0.00000000000E+00  0.00000000000E+00  0.10230712985E+04  0.10230712985E+04  0.00000000000E+00 0. -1.
          1   -1    0    0  502    0  0.00000000000E+00 -0.00000000000E+00 -0.17287245981E+03  0.17287245981E+03  0.00000000000E+00 0.  1.
    9000007    1    1    2  502    0 -0.10447723374E+03 -0.37211395360E+02  0.32907552711E+03  0.52970829978E+03  0.40000000000E+03 0.  1.
   -9000007    1    1    2    0  501  0.10447723374E+03  0.37211395360E+02  0.52112331155E+03  0.66623545849E+03  0.40000000000E+03 0.  1.
<mgrwt>
<rscale>  2 0.41509057E+03</rscale>
<asrwt>0</asrwt>
<pdfrwt beam="1">  1        1 0.26595764E-01 0.41509057E+03</pdfrwt>
<pdfrwt beam="2">  1       -1 0.15739558E+00 0.41509057E+03</pdfrwt>
<totfact> 0.57915346E+01</totfact>
</mgrwt>
</event>
<event>
 4    1  0.2247963E-002  0.4940356E+03  0.7818608E-02  0.1015348E+00
          2   -1    0    0  502    0  0.00000000000E+00  0.00000000000E+00  0.34481197269E+03  0.34481197269E+03  0.00000000000E+00 0.  1.
         -2   -1    0    0    0  501 -0.00000000000E+00 -0.00000000000E+00 -0.72885867441E+03  0.72885867441E+03  0.00000000000E+00 0. -1.
    9000007    1    1    2  502    0 -0.20978567495E+03 -0.20015285549E+03 -0.28319029873E+03  0.56944529173E+03  0.40000000000E+03 0. -1.
   -9000007    1    1    2    0  501  0.20978567495E+03  0.20015285549E+03 -0.10085640299E+03  0.50422535537E+03  0.40000000000E+03 0.  1.
<mgrwt>
<rscale>  2 0.49403562E+03</rscale>
<asrwt>0</asrwt>
<pdfrwt beam="1">  1        2 0.53047996E-01 0.49403562E+03</pdfrwt>
<pdfrwt beam="2">  1       -2 0.11213210E+00 0.49403562E+03</pdfrwt>
<totfact> 0.60603846E+01</totfact>
</mgrwt>
</event>
<event>
 4    1  0.2247963E-002  0.5615134E+03  0.7818608E-02  0.9988636E-01
         -1   -1    0    0    0  501 -0.00000000000E+00  0.00000000000E+00  0.12533787136E+03  0.12533787136E+03  0.00000000000E+00 0. -1.
          1   -1    0    0  502    0  0.00000000000E+00 -0.00000000000E+00 -0.25283776557E+04  0.25283776557E+04  0.00000000000E+00 0.  1.
    9000007    1    1    2  502    0 -0.91821660210E+01 -0.39397075134E+03 -0.11071154098E+04  0.12413709339E+04  0.40000000000E+03 0.  1.
   -9000007    1    1    2    0  501  0.91821660210E+01  0.39397075134E+03 -0.12959243746E+04  0.14123445931E+04  0.40000000000E+03 0. -1.
<mgrwt>
<rscale>  2 0.56151337E+03</rscale>
<asrwt>0</asrwt>
<pdfrwt beam="1">  1        1 0.38898114E+00 0.56151337E+03</pdfrwt>
<pdfrwt beam="2">  1       -1 0.19282751E-01 0.56151337E+03</pdfrwt>
<totfact> 0.30321327E+01</totfact>
</mgrwt>
</event>
<event>
 4    1  0.2247963E-002  0.5317811E+03  0.7818608E-02  0.1005801E+00
          1   -1    0    0  502    0  0.00000000000E+00  0.00000000000E+00  0.52998006677E+03  0.52998006677E+03  0.00000000000E+00 0. -1.
         -1   -1    0    0    0  501 -0.00000000000E+00 -0.00000000000E+00 -0.53594909784E+03  0.53594909784E+03  0.00000000000E+00 0.  1.
    9000007    1    1    2  502    0 -0.34357123218E+03 -0.68919854289E+02  0.32388355419E+02  0.53276649994E+03  0.40000000000E+03 0.  1.
   -9000007    1    1    2    0  501  0.34357123218E+03  0.68919854289E+02 -0.38357386485E+02  0.53316266467E+03  0.40000000000E+03 0. -1.
<mgrwt>
<rscale>  2 0.53178110E+03</rscale>
<asrwt>0</asrwt>
<pdfrwt beam="1">  1        1 0.81535395E-01 0.53178110E+03</pdfrwt>
<pdfrwt beam="2">  1       -1 0.82453707E-01 0.53178110E+03</pdfrwt>
<totfact> 0.62251703E+01</totfact>
</mgrwt>
</event>
<event>
 4    1  0.2247963E-002  0.1030245E+04  0.7818608E-02  0.9275981E-01
         -2   -1    0    0    0  501 -0.00000000000E+00  0.00000000000E+00  0.93775630733E+03  0.93775630733E+03  0.00000000000E+00 0. -1.
          2   -1    0    0  502    0  0.00000000000E+00 -0.00000000000E+00 -0.11452285032E+04  0.11452285032E+04  0.00000000000E+00 0.  1.
    9000007    1    1    2  502    0 -0.44575722429E+03  0.83827493640E+03 -0.21628183398E+03  0.10527023339E+04  0.40000000000E+03 0.  1.
   -9000007    1    1    2    0  501  0.44575722429E+03 -0.83827493640E+03  0.88096381134E+01  0.10302824767E+04  0.40000000000E+03 0. -1.
<mgrwt>
<rscale>  2 0.10302448E+04</rscale>
<asrwt>0</asrwt>
<pdfrwt beam="1">  1        2 0.17618900E+00 0.10302448E+04</pdfrwt>
<pdfrwt beam="2">  1       -2 0.14427020E+00 0.10302448E+04</pdfrwt>
<totfact> 0.67086530E+00</totfact>
</mgrwt>
</event>
<event>
 4    1  0.2247963E-002  0.4640862E+03  0.7818608E-02  0.1023603E+00
         -2   -1    0    0    0  501 -0.00000000000E+00  0.00000000000E+00  0.21546501881E+04  0.21546501881E+04  0.00000000000E+00 0. -1.
          2   -1    0    0  502    0  0.00000000000E+00 -0.00000000000E+00 -0.10039792174E+03  0.10039792174E+03  0.00000000000E+00 0.  1.
    9000007    1    1    2  502    0  0.10548650855E+03  0.21035358388E+03  0.95254913240E+03  0.10595876006E+04  0.40000000000E+03 0.  1.
   -9000007    1    1    2    0  501 -0.10548650855E+03 -0.21035358388E+03  0.11017031340E+04  0.11954605093E+04  0.40000000000E+03 0. -1.
<mgrwt>
<rscale>  2 0.46408624E+03</rscale>
<asrwt>0</asrwt>
<pdfrwt beam="1">  1        2 0.15445836E-01 0.46408624E+03</pdfrwt>
<pdfrwt beam="2">  1       -2 0.33148461E+00 0.46408624E+03</pdfrwt>
<totfact> 0.85824578E+00</totfact>
</mgrwt>
</event>
<event>
 4    1  0.2247963E-002  0.5069394E+03  0.7818608E-02  0.1011983E+00
         -1   -1    0    0    0  501 -0.00000000000E+00  0.00000000000E+00  0.40757939494E+03  0.40757939494E+03  0.00000000000E+00 0.  1.
          1   -1    0    0  502    0  0.00000000000E+00 -0.00000000000E+00 -0.84233757095E+03  0.84233757095E+03  0.00000000000E+00 0. -1.
    9000007    1    1    2  502    0 -0.14260921381E+03 -0.27685765124E+03 -0.53077086509E+03  0.73396543389E+03  0.40000000000E+03 0. -1.
   -9000007    1    1    2    0  501  0.14260921381E+03  0.27685765124E+03  0.96012689088E+02  0.51595153200E+03  0.40000000000E+03 0.  1.
<mgrwt>
<rscale>  2 0.50693939E+03</rscale>
<asrwt>0</asrwt>
<pdfrwt beam="1">  1        1 0.12959039E+00 0.50693939E+03</pdfrwt>
<pdfrwt beam="2">  1       -1 0.62704523E-01 0.50693939E+03</pdfrwt>
<totfact> 0.55106582E+01</totfact>
</mgrwt>
</event>
<event>
 4    1  0.2247963E-002  0.4273815E+03  0.7818608E-02  0.1034690E+00
         -2   -1    0    0    0  501 -0.00000000000E+00  0.00000000000E+00  0.11752222302E+04  0.11752222302E+04  0.00000000000E+00 0. -1.
          2   -1    0    0  502    0  0.00000000000E+00 -0.00000000000E+00 -0.26104258758E+03  0.26104258758E+03  0.00000000000E+00 0.  1.
    9000007    1    1    2  502    0  0.11773083912E+03  0.93778421841E+02  0.29211494978E+00  0.42738159555E+03  0.40000000000E+03 0. -1.
   -9000007    1    1    2    0  501 -0.11773083912E+03 -0.93778421841E+02  0.91388752765E+03  0.10088832222E+04  0.40000000000E+03 0. -1.
<mgrwt>
<rscale>  2 0.42738150E+03</rscale>
<asrwt>0</asrwt>
<pdfrwt beam="1">  1        2 0.40160399E-01 0.42738150E+03</pdfrwt>
<pdfrwt beam="2">  1       -2 0.18080342E+00 0.42738150E+03</pdfrwt>
<totfact> 0.24041198E+01</totfact>
</mgrwt>
</event>
<event>
 4    1  0.2247963E-002  0.4679429E+03  0.7818608E-02  0.1022502E+00
         -1   -1    0    0    0  501 -0.00000000000E+00  0.00000000000E+00  0.19081700850E+03  0.19081700850E+03  0.00000000000E+00 0. -1.
          1   -1    0    0  502    0  0.00000000000E+00 -0.00000000000E+00 -0.13048650965E+04  0.13048650965E+04  0.00000000000E+00 0.  1.
    9000007    1    1    2  502    0 -0.48362828492E+02  0.23797403391E+03 -0.81669430456E+03  0.94125458357E+03  0.40000000000E+03 0.  1.
   -9000007    1    1    2    0  501  0.48362828492E+02 -0.23797403391E+03 -0.29735378347E+03  0.55442752145E+03  0.40000000000E+03 0. -1.
<mgrwt>
<rscale>  2 0.46794295E+03</rscale>
<asrwt>0</asrwt>
<pdfrwt beam="1">  1        1 0.20074848E+00 0.46794295E+03</pdfrwt>
<pdfrwt beam="2">  1       -1 0.29356463E-01 0.46794295E+03</pdfrwt>
<totfact> 0.10019479E+02</totfact>
</mgrwt>
</event>
<event>
 4    1  0.2247963E-002  0.5001490E+03  0.7818608E-02  0.1013740E+00
         -1   -1    0    0    0  501 -0.00000000000E+00  0.00000000000E+00  0.72788050325E+03  0.72788050325E+03  0.00000000000E+00 0.  1.
          1   -1    0    0  502    0  0.00000000000E+00 -0.00000000000E+00 -0.11143280976E+04  0.11143280976E+04  0.00000000000E+00 0. -1.
    9000007    1    1    2  502    0 -0.28218528222E+03  0.10256939932E+03 -0.95923265488E+03  0.10817930955E+04  0.40000000000E+03 0. -1.
   -9000007    1    1    2    0  501  0.28218528222E+03 -0.10256939932E+03  0.57278506056E+03  0.76041550536E+03  0.40000000000E+03 0.  1.
<mgrwt>
<rscale>  2 0.50014899E+03</rscale>
<asrwt>0</asrwt>
<pdfrwt beam="1">  1        1 0.17143509E+00 0.50014899E+03</pdfrwt>
<pdfrwt beam="2">  1       -1 0.11198162E+00 0.50014899E+03</pdfrwt>
<totfact> 0.97734636E+00</totfact>
</mgrwt>
</event>
<event>
 4    1  0.2247963E-002  0.7543437E+03  0.7818608E-02  0.9628560E-01
          1   -1    0    0  502    0  0.00000000000E+00  0.00000000000E+00  0.21571052737E+04  0.21571052737E+04  0.00000000000E+00 0.  1.
         -1   -1    0    0    0  501 -0.00000000000E+00 -0.00000000000E+00 -0.26673027665E+03  0.26673027665E+03  0.00000000000E+00 0. -1.
    9000007    1    1    2  502    0  0.46353443288E+03 -0.44064749648E+03  0.10723134003E+04  0.13110646114E+04  0.40000000000E+03 0.  1.
   -9000007    1    1    2    0  501 -0.46353443288E+03  0.44064749648E+03  0.81806159669E+03  0.11127709390E+04  0.40000000000E+03 0. -1.
<mgrwt>
<rscale>  2 0.75434368E+03</rscale>
<asrwt>0</asrwt>
<pdfrwt beam="1">  1        1 0.33186234E+00 0.75434368E+03</pdfrwt>
<pdfrwt beam="2">  1       -1 0.41035428E-01 0.75434368E+03</pdfrwt>
<totfact> 0.14151998E+01</totfact>
</mgrwt>
</event>
<event>
 4    1  0.2247963E-002  0.5043275E+03  0.7818608E-02  0.1012656E+00
         -2   -1    0    0    0  501 -0.00000000000E+00  0.00000000000E+00  0.27707751319E+03  0.27707751319E+03  0.00000000000E+00 0. -1.
          2   -1    0    0  502    0  0.00000000000E+00 -0.00000000000E+00 -0.10330383540E+04  0.10330383540E+04  0.00000000000E+00 0.  1.
    9000007    1    1    2  502    0 -0.46316619607E+02  0.30364619441E+03 -0.59661415526E+03  0.78121360132E+03  0.40000000000E+03 0.  1.
   -9000007    1    1    2    0  501  0.46316619607E+02 -0.30364619441E+03 -0.15934668553E+03  0.52890226585E+03  0.40000000000E+03 0.  1.
<mgrwt>
<rscale>  2 0.50432751E+03</rscale>
<asrwt>0</asrwt>
<pdfrwt beam="1">  1        2 0.15892898E+00 0.50432751E+03</pdfrwt>
<pdfrwt beam="2">  1       -2 0.42627309E-01 0.50432751E+03</pdfrwt>
<totfact> 0.12940687E+02</totfact>
</mgrwt>
</event>
<event>
 4    1  0.2247963E-002  0.9164833E+03  0.7818608E-02  0.9405208E-01
          2   -1    0    0  502    0  0.00000000000E+00  0.00000000000E+00  0.87010358643E+03  0.87010358643E+03  0.00000000000E+00 0. -1.
         -2   -1    0    0    0  501 -0.00000000000E+00 -0.00000000000E+00 -0.96533708178E+03  0.96533708178E+03  0.00000000000E+00 0.  1.
    9000007    1    1    2  502    0 -0.78299065917E+03  0.25858691160E+03 -0.46313536936E+02  0.91765271584E+03  0.40000000000E+03 0. -1.
   -9000007    1    1    2    0  501  0.78299065917E+03 -0.25858691160E+03 -0.48919958416E+02  0.91778795237E+03  0.40000000000E+03 0.  1.
<mgrwt>
<rscale>  2 0.91648326E+03</rscale>
<asrwt>0</asrwt>
<pdfrwt beam="1">  1        2 0.13386209E+00 0.91648326E+03</pdfrwt>
<pdfrwt beam="2">  1       -2 0.14851340E+00 0.91648326E+03</pdfrwt>
<totfact> 0.94475272E+00</totfact>
</mgrwt>
</event>
<event>
 4    1  0.2247963E-002  0.5539505E+03  0.7818608E-02  0.1000584E+00
         -1   -1    0    0    0  501 -0.00000000000E+00  0.00000000000E+00  0.43565345419E+03  0.43565345419E+03  0.00000000000E+00 0. -1.
          1   -1    0    0  502    0  0.00000000000E+00 -0.00000000000E+00 -0.96118403447E+03  0.96118403447E+03  0.00000000000E+00 0.  1.
    9000007    1    1    2  502    0  0.37516570927E+03  0.78178656650E+02  0.98247020656E+02  0.56259549308E+03  0.40000000000E+03 0. -1.
   -9000007    1    1    2    0  501 -0.37516570927E+03 -0.78178656650E+02 -0.62377760093E+03  0.83424199558E+03  0.40000000000E+03 0.  1.
<mgrwt>
<rscale>  2 0.55395055E+03</rscale>
<asrwt>0</asrwt>
<pdfrwt beam="1">  1        1 0.14787446E+00 0.55395055E+03</pdfrwt>
<pdfrwt beam="2">  1       -1 0.67023609E-01 0.55395055E+03</pdfrwt>
<totfact> 0.38453009E+01</totfact>
</mgrwt>
</event>
<event>
 4    1  0.2247963E-002  0.5012938E+03  0.7818608E-02  0.1013442E+00
          2   -1    0    0  502    0  0.00000000000E+00  0.00000000000E+00  0.12795584875E+04  0.12795584875E+04  0.00000000000E+00 0.  1.
         -2   -1    0    0    0  501 -0.00000000000E+00 -0.00000000000E+00 -0.21975664444E+03  0.21975664444E+03  0.00000000000E+00 0. -1.
    9000007    1    1    2  502    0 -0.25053154623E+03  0.16890661688E+03  0.77433864920E+03  0.92244015769E+03  0.40000000000E+03 0.  1.
   -9000007    1    1    2    0  501  0.25053154623E+03 -0.16890661688E+03  0.28546319390E+03  0.57687497428E+03  0.40000000000E+03 0. -1.
<mgrwt>
<rscale>  2 0.50129383E+03</rscale>
<asrwt>0</asrwt>
<pdfrwt beam="1">  1        2 0.19685515E+00 0.50129383E+03</pdfrwt>
<pdfrwt beam="2">  1       -2 0.33808715E-01 0.50129383E+03</pdfrwt>
<totfact> 0.14427402E+02</totfact>
</mgrwt>
</event>
<event>
 4    1  0.2247963E-002  0.4105869E+03  0.7818608E-02  0.1040174E+00
          1   -1    0    0  502    0  0.00000000000E+00  0.00000000000E+00  0.71112935259E+03  0.71112935259E+03  0.00000000000E+00 0. -1.
         -1   -1    0    0    0  501 -0.00000000000E+00 -0.00000000000E+00 -0.23770850577E+03  0.23770850577E+03  0.00000000000E+00 0.  1.
    9000007    1    1    2  502    0 -0.89348551282E+02  0.24463825064E+02  0.21196612896E+03  0.46207281047E+03  0.40000000000E+03 0.  1.
   -9000007    1    1    2    0  501  0.89348551282E+02 -0.24463825064E+02  0.26145471786E+03  0.48676504789E+03  0.40000000000E+03 0. -1.
<mgrwt>
<rscale>  2 0.41058695E+03</rscale>
<asrwt>0</asrwt>
<pdfrwt beam="1">  1        1 0.10940451E+00 0.41058695E+03</pdfrwt>
<pdfrwt beam="2">  1       -1 0.36570540E-01 0.41058695E+03</pdfrwt>
<totfact> 0.19814095E+02</totfact>
</mgrwt>
</event>
<event>
 4    1  0.2247963E-002  0.6117126E+03  0.7818608E-02  0.9881400E-01
         -2   -1    0    0    0  501 -0.00000000000E+00  0.00000000000E+00  0.19376771089E+03  0.19376771089E+03  0.00000000000E+00 0.  1.
          2   -1    0    0  502    0  0.00000000000E+00 -0.00000000000E+00 -0.20995823059E+04  0.20995823059E+04  0.00000000000E+00 0. -1.
    9000007    1    1    2  502    0 -0.46205342947E+03  0.26437315266E+02 -0.12776962932E+04  0.14165804322E+04  0.40000000000E+03 0. -1.
   -9000007    1    1    2    0  501  0.46205342947E+03 -0.26437315266E+02 -0.62811830177E+03  0.87676958452E+03  0.40000000000E+03 0.  1.
<mgrwt>
<rscale>  2 0.61171260E+03</rscale>
<asrwt>0</asrwt>
<pdfrwt beam="1">  1        2 0.32301263E+00 0.61171260E+03</pdfrwt>
<pdfrwt beam="2">  1       -2 0.29810420E-01 0.61171260E+03</pdfrwt>
<totfact> 0.63991068E+01</totfact>
</mgrwt>
</event>
<event>
 4    1  0.2247963E-002  0.6098748E+03  0.7818608E-02  0.9885128E-01
          2   -1    0    0  502    0  0.00000000000E+00  0.00000000000E+00  0.11409616012E+04  0.11409616012E+04  0.00000000000E+00 0.  1.
         -2   -1    0    0    0  501 -0.00000000000E+00 -0.00000000000E+00 -0.35343994815E+03  0.35343994815E+03  0.00000000000E+00 0. -1.
    9000007    1    1    2  502    0 -0.11681377717E+03  0.44531095508E+03  0.18554488555E+03  0.63747486994E+03  0.40000000000E+03 0. -1.
   -9000007    1    1    2    0  501  0.11681377717E+03 -0.44531095508E+03  0.60197676748E+03  0.85692667938E+03  0.40000000000E+03 0.  1.
<mgrwt>
<rscale>  2 0.60987483E+03</rscale>
<asrwt>0</asrwt>
<pdfrwt beam="1">  1        2 0.17553255E+00 0.60987483E+03</pdfrwt>
<pdfrwt beam="2">  1       -2 0.54375377E-01 0.60987483E+03</pdfrwt>
<totfact> 0.67420777E+01</totfact>
</mgrwt>
</event>
<event>
 4    1  0.2247963E-002  0.4855987E+03  0.7818608E-02  0.1017608E+00
          1   -1    0    0  502    0  0.00000000000E+00  0.00000000000E+00  0.14843283847E+03  0.14843283847E+03  0.00000000000E+00 0.  1.
         -1   -1    0    0    0  501 -0.00000000000E+00 -0.00000000000E+00 -0.17608862674E+04  0.17608862674E+04  0.00000000000E+00 0. -1.
    9000007    1    1    2  502    0 -0.27212661133E+03 -0.41870790368E+02 -0.50764704541E+03  0.70250379244E+03  0.40000000000E+03 0. -1.
   -9000007    1    1    2    0  501  0.27212661133E+03  0.41870790368E+02 -0.11048063836E+04  0.12068153135E+04  0.40000000000E+03 0.  1.
<mgrwt>
<rscale>  2 0.48559866E+03</rscale>
<asrwt>0</asrwt>
<pdfrwt beam="1">  1        1 0.22835822E-01 0.48559866E+03</pdfrwt>
<pdfrwt beam="2">  1       -1 0.27090557E+00 0.48559866E+03</pdfrwt>
<totfact> 0.12071022E+01</totfact>
</mgrwt>
</event>
<event>
 4    1  0.2247963E-002  0.5002822E+03  0.7818608E-02  0.1013705E+00
          1   -1    0    0  502    0  0.00000000000E+00  0.00000000000E+00  0.31383923173E+04  0.31383923173E+04  0.00000000000E+00 0. -1.
         -1   -1    0    0    0  501 -0.00000000000E+00 -0.00000000000E+00 -0.80100459540E+02  0.80100459540E+02  0.00000000000E+00 0.  1.
    9000007    1    1    2  502    0 -0.24448708096E+03 -0.17466635098E+03  0.14224827296E+04  0.15078923645E+04  0.40000000000E+03 0. -1.
   -9000007    1    1    2    0  501  0.24448708096E+03  0.17466635098E+03  0.16358091282E+04  0.17106004124E+04  0.40000000000E+03 0.  1.
<mgrwt>
<rscale>  2 0.50028219E+03</rscale>
<asrwt>0</asrwt>
<pdfrwt beam="1">  1        1 0.48282949E+00 0.50028219E+03</pdfrwt>
<pdfrwt beam="2">  1       -1 0.12323150E-01 0.50028219E+03</pdfrwt>
<totfact> 0.23750981E+01</totfact>
</mgrwt>
</event>
<event>
 4    1  0.2247963E-002  0.7062370E+03  0.7818608E-02  0.9706625E-01
         -2   -1    0    0    0  501 -0.00000000000E+00  0.00000000000E+00  0.32514716885E+03  0.32514716885E+03  0.00000000000E+00 0.  1.
          2   -1    0    0  502    0  0.00000000000E+00 -0.00000000000E+00 -0.24937328975E+04  0.24937328975E+04  0.00000000000E+00 0. -1.
    9000007    1    1    2  502    0  0.53339410842E+03  0.23294075283E+03 -0.19586731694E+04  0.20821074068E+04  0.40000000000E+03 0. -1.
   -9000007    1    1    2    0  501 -0.53339410842E+03 -0.23294075283E+03 -0.20991255926E+03  0.73677265949E+03  0.40000000000E+03 0.  1.
<mgrwt>
<rscale>  2 0.70623698E+03</rscale>
<asrwt>0</asrwt>
<pdfrwt beam="1">  1        2 0.38365121E+00 0.70623698E+03</pdfrwt>
<pdfrwt beam="2">  1       -2 0.50022642E-01 0.70623698E+03</pdfrwt>
<totfact> 0.13999378E+01</totfact>
</mgrwt>
</event>
<event>
 4    1  0.2247963E-002  0.5101436E+03  0.7818608E-02  0.1011165E+00
          2   -1    0    0  502    0  0.00000000000E+00  0.00000000000E+00  0.16383378027E+04  0.16383378027E+04  0.00000000000E+00 0. -1.
         -2   -1    0    0    0  501 -0.00000000000E+00 -0.00000000000E+00 -0.16149854339E+03  0.16149854339E+03  0.00000000000E+00 0.  1.
    9000007    1    1    2  502    0 -0.70958640117E+02  0.30856338867E+03  0.85371069979E+03  0.99451920664E+03  0.40000000000E+03 0. -1.
   -9000007    1    1    2    0  501  0.70958640117E+02 -0.30856338867E+03  0.62312855956E+03  0.80531713950E+03  0.40000000000E+03 0.  1.
<mgrwt>
<rscale>  2 0.51014360E+03</rscale>
<asrwt>0</asrwt>
<pdfrwt beam="1">  1        2 0.25205196E+00 0.51014360E+03</pdfrwt>
<pdfrwt beam="2">  1       -2 0.24845931E-01 0.51014360E+03</pdfrwt>
<totfact> 0.16048726E+02</totfact>
</mgrwt>
</event>
<event>
 4    1  0.2247963E-002  0.4591819E+03  0.7818608E-02  0.1025019E+00
          2   -1    0    0  502    0  0.00000000000E+00  0.00000000000E+00  0.47867356621E+03  0.47867356621E+03  0.00000000000E+00 0. -1.
         -2   -1    0    0    0  501 -0.00000000000E+00 -0.00000000000E+00 -0.54765742806E+03  0.54765742806E+03  0.00000000000E+00 0.  1.
    9000007    1    1    2  502    0 -0.18904655925E+03 -0.12292028714E+03 -0.26150283814E+03  0.52842381940E+03  0.40000000000E+03 0.  1.
   -9000007    1    1    2    0  501  0.18904655925E+03  0.12292028714E+03  0.19251897629E+03  0.49790717487E+03  0.40000000000E+03 0. -1.
<mgrwt>
<rscale>  2 0.45918188E+03</rscale>
<asrwt>0</asrwt>
<pdfrwt beam="1">  1        2 0.73642087E-01 0.45918188E+03</pdfrwt>
<pdfrwt beam="2">  1       -2 0.84254989E-01 0.45918188E+03</pdfrwt>
<totfact> 0.82178936E+01</totfact>
</mgrwt>
</event>
<event>
 4    1  0.2247963E-002  0.4115250E+03  0.7818608E-02  0.1039860E+00
          2   -1    0    0  502    0  0.00000000000E+00  0.00000000000E+00  0.70333997493E+03  0.70333997493E+03  0.00000000000E+00 0. -1.
         -2   -1    0    0    0  501 -0.00000000000E+00 -0.00000000000E+00 -0.25266382677E+03  0.25266382677E+03  0.00000000000E+00 0.  1.
    9000007    1    1    2  502    0 -0.51099199592E+02 -0.82108048791E+02  0.12168859831E+03  0.42913980803E+03  0.40000000000E+03 0.  1.
   -9000007    1    1    2    0  501  0.51099199592E+02  0.82108048791E+02  0.32898754985E+03  0.52686399368E+03  0.40000000000E+03 0. -1.
<mgrwt>
<rscale>  2 0.41152504E+03</rscale>
<asrwt>0</asrwt>
<pdfrwt beam="1">  1        2 0.10820615E+00 0.41152504E+03</pdfrwt>
<pdfrwt beam="2">  1       -2 0.38871358E-01 0.41152504E+03</pdfrwt>
<totfact> 0.26164827E+02</totfact>
</mgrwt>
</event>
<event>
 4    1  0.2247963E-002  0.4506098E+03  0.7818608E-02  0.1027540E+00
         -1   -1    0    0    0  501 -0.00000000000E+00  0.00000000000E+00  0.90405588471E+02  0.90405588471E+02  0.00000000000E+00 0. -1.
          1   -1    0    0  502    0  0.00000000000E+00 -0.00000000000E+00 -0.26298591998E+04  0.26298591998E+04  0.00000000000E+00 0.  1.
    9000007    1    1    2  502    0  0.19180466969E+03  0.79121396295E+02 -0.17893777325E+04  0.18452430453E+04  0.40000000000E+03 0.  1.
   -9000007    1    1    2    0  501 -0.19180466969E+03 -0.79121396295E+02 -0.75007587883E+03  0.87502174297E+03  0.40000000000E+03 0.  1.
<mgrwt>
<rscale>  2 0.45060984E+03</rscale>
<asrwt>0</asrwt>
<pdfrwt beam="1">  1        1 0.40459363E+00 0.45060984E+03</pdfrwt>
<pdfrwt beam="2">  1       -1 0.13908555E-01 0.45060984E+03</pdfrwt>
<totfact> 0.44978601E+01</totfact>
</mgrwt>
</event>
<event>
 4    1  0.2247963E-002  0.4224970E+03  0.7818608E-02  0.1036257E+00
          1   -1    0    0  502    0  0.00000000000E+00  0.00000000000E+00  0.23948187896E+04  0.23948187896E+04  0.00000000000E+00 0. -1.
         -1   -1    0    0    0  501 -0.00000000000E+00 -0.00000000000E+00 -0.91502420034E+02  0.91502420034E+02  0.00000000000E+00 0.  1.
    9000007    1    1    2  502    0  0.65435629954E+02  0.11925566945E+03  0.16869458391E+04  0.17390485906E+04  0.40000000000E+03 0. -1.
   -9000007    1    1    2    0  501 -0.65435629954E+02 -0.11925566945E+03  0.61637053051E+03  0.74727261909E+03  0.40000000000E+03 0.  1.
<mgrwt>
<rscale>  2 0.42249703E+03</rscale>
<asrwt>0</asrwt>
<pdfrwt beam="1">  1        1 0.36843361E+00 0.42249703E+03</pdfrwt>
<pdfrwt beam="2">  1       -1 0.14077297E-01 0.42249703E+03</pdfrwt>
<totfact> 0.63937968E+01</totfact>
</mgrwt>
</event>
<event>
 4    1  0.2247963E-002  0.4590399E+03  0.7818608E-02  0.1025060E+00
         -1   -1    0    0    0  501 -0.00000000000E+00  0.00000000000E+00  0.40795527579E+03  0.40795527579E+03  0.00000000000E+00 0. -1.
          1   -1    0    0  502    0  0.00000000000E+00 -0.00000000000E+00 -0.51755119098E+03  0.51755119098E+03  0.00000000000E+00 0.  1.
    9000007    1    1    2  502    0 -0.14359044043E+03  0.17349190983E+03 -0.75439079592E+02  0.46519749794E+03  0.40000000000E+03 0.  1.
   -9000007    1    1    2    0  501  0.14359044043E+03 -0.17349190983E+03 -0.34156835601E+02  0.46030896882E+03  0.40000000000E+03 0. -1.
<mgrwt>
<rscale>  2 0.45903993E+03</rscale>
<asrwt>0</asrwt>
<pdfrwt beam="1">  1        1 0.79623260E-01 0.45903993E+03</pdfrwt>
<pdfrwt beam="2">  1       -1 0.62762350E-01 0.45903993E+03</pdfrwt>
<totfact> 0.11330587E+02</totfact>
</mgrwt>
</event>
<event>
 4    1  0.2247963E-002  0.4352091E+03  0.7818608E-02  0.1032227E+00
          2   -1    0    0  502    0  0.00000000000E+00  0.00000000000E+00  0.53046776792E+03  0.53046776792E+03  0.00000000000E+00 0.  1.
         -2   -1    0    0    0  501 -0.00000000000E+00 -0.00000000000E+00 -0.35826068433E+03  0.35826068433E+03  0.00000000000E+00 0. -1.
    9000007    1    1    2  502    0  0.10965375467E+03 -0.13184469956E+03  0.11186579904E+03  0.44935612571E+03  0.40000000000E+03 0. -1.
   -9000007    1    1    2    0  501 -0.10965375467E+03  0.13184469956E+03  0.60341284545E+02  0.43937232655E+03  0.40000000000E+03 0.  1.
<mgrwt>
<rscale>  2 0.43520911E+03</rscale>
<asrwt>0</asrwt>
<pdfrwt beam="1">  1        2 0.81610426E-01 0.43520911E+03</pdfrwt>
<pdfrwt beam="2">  1       -2 0.55117028E-01 0.43520911E+03</pdfrwt>
<totfact> 0.18268109E+02</totfact>
</mgrwt>
</event>
<event>
 4    1  0.2247963E-002  0.4369870E+03  0.7818608E-02  0.1031675E+00
          2   -1    0    0  502    0  0.00000000000E+00  0.00000000000E+00  0.93049582104E+03  0.93049582104E+03  0.00000000000E+00 0. -1.
         -2   -1    0    0    0  501 -0.00000000000E+00 -0.00000000000E+00 -0.20590198469E+03  0.20590198469E+03  0.00000000000E+00 0.  1.
    9000007    1    1    2  502    0  0.12416927246E+03  0.12465813278E+03  0.32962985355E+03  0.54736961794E+03  0.40000000000E+03 0.  1.
   -9000007    1    1    2    0  501 -0.12416927246E+03 -0.12465813278E+03  0.39496398281E+03  0.58902818779E+03  0.40000000000E+03 0. -1.
<mgrwt>
<rscale>  2 0.43698702E+03</rscale>
<asrwt>0</asrwt>
<pdfrwt beam="1">  1        2 0.14315320E+00 0.43698702E+03</pdfrwt>
<pdfrwt beam="2">  1       -2 0.31677229E-01 0.43698702E+03</pdfrwt>
<totfact> 0.26641408E+02</totfact>
</mgrwt>
</event>
<event>
 4    1  0.2247963E-002  0.4233337E+03  0.7818608E-02  0.1035987E+00
          2   -1    0    0  502    0  0.00000000000E+00  0.00000000000E+00  0.78173785854E+03  0.78173785854E+03  0.00000000000E+00 0.  1.
         -2   -1    0    0    0  501 -0.00000000000E+00 -0.00000000000E+00 -0.22925997478E+03  0.22925997478E+03  0.00000000000E+00 0. -1.
    9000007    1    1    2  502    0  0.21947809449E+02 -0.13685640240E+03  0.27998084604E+03  0.50754374725E+03  0.40000000000E+03 0. -1.
   -9000007    1    1    2    0  501 -0.21947809449E+02  0.13685640240E+03  0.27249703771E+03  0.50345408607E+03  0.40000000000E+03 0. -1.
<mgrwt>
<rscale>  2 0.42333365E+03</rscale>
<asrwt>0</asrwt>
<pdfrwt beam="1">  1        2 0.12026736E+00 0.42333365E+03</pdfrwt>
<pdfrwt beam="2">  1       -2 0.35270766E-01 0.42333365E+03</pdfrwt>
<totfact> 0.27528330E+02</totfact>
</mgrwt>
</event>
<event>
 4    1  0.2247963E-002  0.4741318E+03  0.7818608E-02  0.1020760E+00
          2   -1    0    0  502    0  0.00000000000E+00  0.00000000000E+00  0.31206234339E+04  0.31206234339E+04  0.00000000000E+00 0.  1.
         -2   -1    0    0    0  501 -0.00000000000E+00 -0.00000000000E+00 -0.92058188803E+02  0.92058188803E+02  0.00000000000E+00 0. -1.
    9000007    1    1    2  502    0 -0.84933446114E+02 -0.23997343721E+03  0.76516613027E+03  0.90015562418E+03  0.40000000000E+03 0. -1.
   -9000007    1    1    2    0  501  0.84933446114E+02  0.23997343721E+03  0.22633991148E+04  0.23125259985E+04  0.40000000000E+03 0.  1.
<mgrwt>
<rscale>  2 0.47413178E+03</rscale>
<asrwt>0</asrwt>
<pdfrwt beam="1">  1        2 0.48009583E+00 0.47413178E+03</pdfrwt>
<pdfrwt beam="2">  1       -2 0.14162801E-01 0.47413178E+03</pdfrwt>
<totfact> 0.62749677E+01</totfact>
</mgrwt>
</event>
<event>
 4    1  0.2247963E-002  0.4647502E+03  0.7818608E-02  0.1023412E+00
         -2   -1    0    0    0  501 -0.00000000000E+00  0.00000000000E+00  0.15945348912E+03  0.15945348912E+03  0.00000000000E+00 0. -1.
          2   -1    0    0  502    0  0.00000000000E+00 -0.00000000000E+00 -0.14354191643E+04  0.14354191643E+04  0.00000000000E+00 0.  1.
    9000007    1    1    2  502    0 -0.10374607804E+03  0.21267232574E+03 -0.44874273240E+03  0.64603622710E+03  0.40000000000E+03 0. -1.
   -9000007    1    1    2    0  501  0.10374607804E+03 -0.21267232574E+03 -0.82722294276E+03  0.94883642630E+03  0.40000000000E+03 0. -1.
<mgrwt>
<rscale>  2 0.46475022E+03</rscale>
<asrwt>0</asrwt>
<pdfrwt beam="1">  1        2 0.22083371E+00 0.46475022E+03</pdfrwt>
<pdfrwt beam="2">  1       -2 0.24531307E-01 0.46475022E+03</pdfrwt>
<totfact> 0.21311206E+02</totfact>
</mgrwt>
</event>
<event>
 4    1  0.2247963E-002  0.4086544E+03  0.7818608E-02  0.1040824E+00
          1   -1    0    0  502    0  0.00000000000E+00  0.00000000000E+00  0.28399679063E+03  0.28399679063E+03  0.00000000000E+00 0.  1.
         -1   -1    0    0    0  501 -0.00000000000E+00 -0.00000000000E+00 -0.63459618157E+03  0.63459618157E+03  0.00000000000E+00 0. -1.
    9000007    1    1    2  502    0 -0.27678469427E+02 -0.78944931197E+02 -0.29971778670E+03  0.50678314050E+03  0.40000000000E+03 0. -1.
   -9000007    1    1    2    0  501  0.27678469427E+02  0.78944931197E+02 -0.50881604244E+02  0.41180983170E+03  0.40000000000E+03 0.  1.
<mgrwt>
<rscale>  2 0.40865438E+03</rscale>
<asrwt>0</asrwt>
<pdfrwt beam="1">  1        1 0.43691814E-01 0.40865438E+03</pdfrwt>
<pdfrwt beam="2">  1       -1 0.97630181E-01 0.40865438E+03</pdfrwt>
<totfact> 0.99066532E+01</totfact>
</mgrwt>
</event>
<event>
 4    1  0.2247963E-002  0.4534524E+03  0.7818608E-02  0.1026697E+00
         -1   -1    0    0    0  501 -0.00000000000E+00  0.00000000000E+00  0.20139997225E+03  0.20139997225E+03  0.00000000000E+00 0.  1.
          1   -1    0    0  502    0  0.00000000000E+00 -0.00000000000E+00 -0.10560883005E+04  0.10560883005E+04  0.00000000000E+00 0. -1.
    9000007    1    1    2  502    0 -0.20443246500E+03  0.61858484443E+02 -0.54203276314E+03  0.70669556469E+03  0.40000000000E+03 0. -1.
   -9000007    1    1    2    0  501  0.20443246500E+03 -0.61858484443E+02 -0.31265556511E+03  0.55079270805E+03  0.40000000000E+03 0.  1.
<mgrwt>
<rscale>  2 0.45345243E+03</rscale>
<asrwt>0</asrwt>
<pdfrwt beam="1">  1        1 0.16247512E+00 0.45345243E+03</pdfrwt>
<pdfrwt beam="2">  1       -1 0.30984612E-01 0.45345243E+03</pdfrwt>
<totfact> 0.13802681E+02</totfact>
</mgrwt>
</event>
<event>
 4    1  0.2247963E-002  0.7823307E+03  0.7818608E-02  0.9585951E-01
          1   -1    0    0  502    0  0.00000000000E+00  0.00000000000E+00  0.18105835773E+04  0.18105835773E+04  0.00000000000E+00 0.  1.
         -1   -1    0    0    0  501 -0.00000000000E+00 -0.00000000000E+00 -0.39058226244E+03  0.39058226244E+03  0.00000000000E+00 0. -1.
    9000007    1    1    2  502    0  0.65589275618E+03  0.14780379397E+03  0.11136832993E+04  0.13610039531E+04  0.40000000000E+03 0.  1.
   -9000007    1    1    2    0  501 -0.65589275618E+03 -0.14780379397E+03  0.30631801553E+03  0.84016188664E+03  0.40000000000E+03 0. -1.
<mgrwt>
<rscale>  2 0.78233066E+03</rscale>
<asrwt>0</asrwt>
<pdfrwt beam="1">  1        1 0.27855131E+00 0.78233066E+03</pdfrwt>
<pdfrwt beam="2">  1       -1 0.60089580E-01 0.78233066E+03</pdfrwt>
<totfact> 0.11670178E+01</totfact>
</mgrwt>
</event>
<event>
 4    1  0.2247963E-002  0.4690132E+03  0.7818608E-02  0.1022199E+00
          2   -1    0    0  502    0  0.00000000000E+00  0.00000000000E+00  0.85475024124E+03  0.85475024124E+03  0.00000000000E+00 0.  1.
         -2   -1    0    0    0  501 -0.00000000000E+00 -0.00000000000E+00 -0.28968714500E+03  0.28968714500E+03  0.00000000000E+00 0. -1.
    9000007    1    1    2  502    0 -0.23958449635E+03 -0.50721342670E+02  0.47370230862E+03  0.66660877783E+03  0.40000000000E+03 0.  1.
   -9000007    1    1    2    0  501  0.23958449635E+03  0.50721342670E+02  0.91360787615E+02  0.47782860840E+03  0.40000000000E+03 0.  1.
<mgrwt>
<rscale>  2 0.46901320E+03</rscale>
<asrwt>0</asrwt>
<pdfrwt beam="1">  1        2 0.13150004E+00 0.46901320E+03</pdfrwt>
<pdfrwt beam="2">  1       -2 0.44567253E-01 0.46901320E+03</pdfrwt>
<totfact> 0.15521725E+02</totfact>
</mgrwt>
</event>
<event>
 4    1  0.2247963E-002  0.5530047E+03  0.7818608E-02  0.1000801E+00
          2   -1    0    0  502    0  0.00000000000E+00  0.00000000000E+00  0.95558556165E+03  0.95558556165E+03  0.00000000000E+00 0. -1.
         -2   -1    0    0    0  501 -0.00000000000E+00 -0.00000000000E+00 -0.38525798075E+03  0.38525798075E+03  0.00000000000E+00 0.  1.
    9000007    1    1    2  502    0  0.31839918620E+03  0.21079874954E+03  0.92992703384E+01  0.55308284280E+03  0.40000000000E+03 0.  1.
   -9000007    1    1    2    0  501 -0.31839918620E+03 -0.21079874954E+03  0.56102831056E+03  0.78776069959E+03  0.40000000000E+03 0. -1.
<mgrwt>
<rscale>  2 0.55300466E+03</rscale>
<asrwt>0</asrwt>
<pdfrwt beam="1">  1        2 0.14701316E+00 0.55300466E+03</pdfrwt>
<pdfrwt beam="2">  1       -2 0.59270459E-01 0.55300466E+03</pdfrwt>
<totfact> 0.73872594E+01</totfact>
</mgrwt>
</event>
<event>
 4    1  0.2247963E-002  0.5121048E+03  0.7818608E-02  0.1010667E+00
         -2   -1    0    0    0  501 -0.00000000000E+00  0.00000000000E+00  0.15528742050E+03  0.15528742050E+03  0.00000000000E+00 0. -1.
          2   -1    0    0  502    0  0.00000000000E+00 -0.00000000000E+00 -0.16936761649E+04  0.16936761649E+04  0.00000000000E+00 0.  1.
    9000007    1    1    2  502    0  0.28688818653E+03  0.14123200298E+03 -0.71965247365E+03  0.88326156548E+03  0.40000000000E+03 0.  1.
   -9000007    1    1    2    0  501 -0.28688818653E+03 -0.14123200298E+03 -0.81873627075E+03  0.96570201992E+03  0.40000000000E+03 0. -1.
<mgrwt>
<rscale>  2 0.51210478E+03</rscale>
<asrwt>0</asrwt>
<pdfrwt beam="1">  1        2 0.26056559E+00 0.51210478E+03</pdfrwt>
<pdfrwt beam="2">  1       -2 0.23890370E-01 0.51210478E+03</pdfrwt>
<totfact> 0.16062112E+02</totfact>
</mgrwt>
</event>
<event>
 4    1  0.2247963E-002  0.4083604E+03  0.7818608E-02  0.1040923E+00
          1   -1    0    0  502    0  0.00000000000E+00  0.00000000000E+00  0.13977494265E+03  0.13977494265E+03  0.00000000000E+00 0.  1.
         -1   -1    0    0    0  501 -0.00000000000E+00 -0.00000000000E+00 -0.11939445917E+04  0.11939445917E+04  0.00000000000E+00 0. -1.
    9000007    1    1    2  502    0  0.73967450126E+02 -0.35874931314E+02 -0.54536064424E+03  0.68130494396E+03  0.40000000000E+03 0. -1.
   -9000007    1    1    2    0  501 -0.73967450126E+02  0.35874931314E+02 -0.50880900477E+03  0.65241459036E+03  0.40000000000E+03 0.  1.
<mgrwt>
<rscale>  2 0.40836037E+03</rscale>
<asrwt>0</asrwt>
<pdfrwt beam="1">  1        1 0.21503837E-01 0.40836037E+03</pdfrwt>
<pdfrwt beam="2">  1       -1 0.18368379E+00 0.40836037E+03</pdfrwt>
<totfact> 0.49300837E+01</totfact>
</mgrwt>
</event>
<event>
 4    1  0.2247963E-002  0.6685732E+03  0.7818608E-02  0.9772539E-01
          2   -1    0    0  502    0  0.00000000000E+00  0.00000000000E+00  0.75301209692E+03  0.75301209692E+03  0.00000000000E+00 0. -1.
         -2   -1    0    0    0  501 -0.00000000000E+00 -0.00000000000E+00 -0.80434835663E+03  0.80434835663E+03  0.00000000000E+00 0.  1.
    9000007    1    1    2  502    0  0.53544733971E+03 -0.16918070718E+02 -0.42424885265E+03  0.79181889577E+03  0.40000000000E+03 0.  1.
   -9000007    1    1    2    0  501 -0.53544733971E+03  0.16918070718E+02  0.37291259294E+03  0.76554155778E+03  0.40000000000E+03 0. -1.
<mgrwt>
<rscale>  2 0.66857316E+03</rscale>
<asrwt>0</asrwt>
<pdfrwt beam="1">  1        2 0.11584802E+00 0.66857316E+03</pdfrwt>
<pdfrwt beam="2">  1       -2 0.12374590E+00 0.66857316E+03</pdfrwt>
<totfact> 0.18765428E+01</totfact>
</mgrwt>
</event>
<event>
 4    1  0.2247963E-002  0.4323702E+03  0.7818608E-02  0.1033114E+00
          1   -1    0    0  502    0  0.00000000000E+00  0.00000000000E+00  0.18168138182E+04  0.18168138182E+04  0.00000000000E+00 0. -1.
         -1   -1    0    0    0  501 -0.00000000000E+00 -0.00000000000E+00 -0.13062922950E+03  0.13062922950E+03  0.00000000000E+00 0.  1.
    9000007    1    1    2  502    0  0.11760908052E+03  0.11450813401E+03  0.39443996871E+03  0.58525797516E+03  0.40000000000E+03 0.  1.
   -9000007    1    1    2    0  501 -0.11760908052E+03 -0.11450813401E+03  0.12917446200E+04  0.13621850725E+04  0.40000000000E+03 0. -1.
<mgrwt>
<rscale>  2 0.43237022E+03</rscale>
<asrwt>0</asrwt>
<pdfrwt beam="1">  1        1 0.27950980E+00 0.43237022E+03</pdfrwt>
<pdfrwt beam="2">  1       -1 0.20096806E-01 0.43237022E+03</pdfrwt>
<totfact> 0.86291122E+01</totfact>
</mgrwt>
</event>
<event>
 4    1  0.2247963E-002  0.4171407E+03  0.7818608E-02  0.1038001E+00
          2   -1    0    0  502    0  0.00000000000E+00  0.00000000000E+00  0.96459810547E+03  0.96459810547E+03  0.00000000000E+00 0. -1.
         -2   -1    0    0    0  501 -0.00000000000E+00 -0.00000000000E+00 -0.21166154783E+03  0.21166154783E+03  0.00000000000E+00 0.  1.
    9000007    1    1    2  502    0 -0.45582482771E+02  0.10921802611E+03  0.15041594208E+03  0.44343127494E+03  0.40000000000E+03 0.  1.
   -9000007    1    1    2    0  501  0.45582482771E+02 -0.10921802611E+03  0.60252061556E+03  0.73282837837E+03  0.40000000000E+03 0. -1.
<mgrwt>
<rscale>  2 0.41714067E+03</rscale>
<asrwt>0</asrwt>
<pdfrwt beam="1">  1        2 0.14839971E+00 0.41714067E+03</pdfrwt>
<pdfrwt beam="2">  1       -2 0.32563316E-01 0.41714067E+03</pdfrwt>
<totfact> 0.24106234E+02</totfact>
</mgrwt>
</event>
<event>
 4    1  0.2247963E-002  0.4022567E+03  0.7818608E-02  0.1043001E+00
          2   -1    0    0  502    0  0.00000000000E+00  0.00000000000E+00  0.22417415845E+04  0.22417415845E+04  0.00000000000E+00 0.  1.
         -2   -1    0    0    0  501 -0.00000000000E+00 -0.00000000000E+00 -0.74940230859E+02  0.74940230859E+02  0.00000000000E+00 0. -1.
    9000007    1    1    2  502    0 -0.42232594747E+02 -0.51863289860E+01  0.13056784525E+04  0.13662381605E+04  0.40000000000E+03 0.  1.
   -9000007    1    1    2    0  501  0.42232594747E+02  0.51863289860E+01  0.86112290116E+03  0.95044365481E+03  0.40000000000E+03 0. -1.
<mgrwt>
<rscale>  2 0.40225675E+03</rscale>
<asrwt>0</asrwt>
<pdfrwt beam="1">  1        2 0.34488327E+00 0.40225675E+03</pdfrwt>
<pdfrwt beam="2">  1       -2 0.11529268E-01 0.40225675E+03</pdfrwt>
<totfact> 0.28531737E+02</totfact>
</mgrwt>
</event>
<event>
 4    1  0.2247963E-002  0.4343341E+03  0.7818608E-02  0.1032500E+00
          2   -1    0    0  502    0  0.00000000000E+00  0.00000000000E+00  0.95677177183E+03  0.95677177183E+03  0.00000000000E+00 0.  1.
         -2   -1    0    0    0  501 -0.00000000000E+00 -0.00000000000E+00 -0.19760320519E+03  0.19760320519E+03  0.00000000000E+00 0. -1.
    9000007    1    1    2  502    0  0.60543276183E+02  0.15805246317E+03  0.40662958097E+03  0.59497368473E+03  0.40000000000E+03 0.  1.
   -9000007    1    1    2    0  501 -0.60543276183E+02 -0.15805246317E+03  0.35253898566E+03  0.55940129229E+03  0.40000000000E+03 0.  1.
<mgrwt>
<rscale>  2 0.43433405E+03</rscale>
<asrwt>0</asrwt>
<pdfrwt beam="1">  1        2 0.14719565E+00 0.43433405E+03</pdfrwt>
<pdfrwt beam="2">  1       -2 0.30400494E-01 0.43433405E+03</pdfrwt>
<totfact> 0.27654689E+02</totfact>
</mgrwt>
</event>
<event>
 4    1  0.2247963E-002  0.4154322E+03  0.7818608E-02  0.1038563E+00
         -3   -1    0    0    0  501 -0.00000000000E+00  0.00000000000E+00  0.12027926202E+04  0.12027926202E+04  0.00000000000E+00 0. -1.
          3   -1    0    0  502    0  0.00000000000E+00 -0.00000000000E+00 -0.15834979552E+03  0.15834979552E+03  0.00000000000E+00 0.  1.
    9000007    1    1    2  502    0  0.80452543783E+00  0.11217515149E+03  0.31371013036E+03  0.52057464188E+03  0.40000000000E+03 0.  1.
   -9000007    1    1    2    0  501 -0.80452543783E+00 -0.11217515149E+03  0.73073269434E+03  0.84056777386E+03  0.40000000000E+03 0. -1.
<mgrwt>
<rscale>  2 0.41543220E+03</rscale>
<asrwt>0</asrwt>
<pdfrwt beam="1">  1        3 0.24361508E-01 0.41543220E+03</pdfrwt>
<pdfrwt beam="2">  1       -3 0.18504501E+00 0.41543220E+03</pdfrwt>
<totfact> 0.77240347E+00</totfact>
</mgrwt>
</event>
<event>
 4    1  0.2247963E-002  0.4781160E+03  0.7818608E-02  0.1019654E+00
         -2   -1    0    0    0  501 -0.00000000000E+00  0.00000000000E+00  0.14931034783E+03  0.14931034783E+03  0.00000000000E+00 0.  1.
          2   -1    0    0  502    0  0.00000000000E+00 -0.00000000000E+00 -0.15641370214E+04  0.15641370214E+04  0.00000000000E+00 0. -1.
    9000007    1    1    2  502    0 -0.26050401624E+03  0.27066485692E+02 -0.58272517188E+03  0.75376625228E+03  0.40000000000E+03 0. -1.
   -9000007    1    1    2    0  501  0.26050401624E+03 -0.27066485692E+02 -0.83210150169E+03  0.95968111696E+03  0.40000000000E+03 0.  1.
<mgrwt>
<rscale>  2 0.47811603E+03</rscale>
<asrwt>0</asrwt>
<pdfrwt beam="1">  1        2 0.24063646E+00 0.47811603E+03</pdfrwt>
<pdfrwt beam="2">  1       -2 0.22970823E-01 0.47811603E+03</pdfrwt>
<totfact> 0.20327786E+02</totfact>
</mgrwt>
</event>
<event>
 4    1  0.2247963E-002  0.4200538E+03  0.7818608E-02  0.1037049E+00
         -1   -1    0    0    0  501 -0.00000000000E+00  0.00000000000E+00  0.23177167764E+03  0.23177167764E+03  0.00000000000E+00 0.  1.
          1   -1    0    0  502    0  0.00000000000E+00 -0.00000000000E+00 -0.82407672325E+03  0.82407672325E+03  0.00000000000E+00 0. -1.
    9000007    1    1    2  502    0 -0.56289089156E+02  0.11522476538E+03 -0.15043042253E+03  0.44617767777E+03  0.40000000000E+03 0.  1.
   -9000007    1    1    2    0  501  0.56289089156E+02 -0.11522476538E+03 -0.44187462307E+03  0.60967072312E+03  0.40000000000E+03 0. -1.
<mgrwt>
<rscale>  2 0.42005382E+03</rscale>
<asrwt>0</asrwt>
<pdfrwt beam="1">  1        1 0.12678104E+00 0.42005382E+03</pdfrwt>
<pdfrwt beam="2">  1       -1 0.35657181E-01 0.42005382E+03</pdfrwt>
<totfact> 0.16498867E+02</totfact>
</mgrwt>
</event>
<event>
 4    1  0.2247963E-002  0.4046322E+03  0.7818608E-02  0.1042187E+00
         -2   -1    0    0    0  501 -0.00000000000E+00  0.00000000000E+00  0.10035088701E+03  0.10035088701E+03  0.00000000000E+00 0.  1.
          2   -1    0    0  502    0  0.00000000000E+00 -0.00000000000E+00 -0.18405021495E+04  0.18405021495E+04  0.00000000000E+00 0. -1.
    9000007    1    1    2  502    0 -0.59654019733E+02  0.12983860443E+02 -0.54309570468E+03  0.67725927616E+03  0.40000000000E+03 0.  1.
   -9000007    1    1    2    0  501  0.59654019733E+02 -0.12983860443E+02 -0.11970555578E+04  0.12635937603E+04  0.40000000000E+03 0. -1.
<mgrwt>
<rscale>  2 0.40463216E+03</rscale>
<asrwt>0</asrwt>
<pdfrwt beam="1">  1        2 0.28315419E+00 0.40463216E+03</pdfrwt>
<pdfrwt beam="2">  1       -2 0.15438597E-01 0.40463216E+03</pdfrwt>
<totfact> 0.28883301E+02</totfact>
</mgrwt>
</event>
<event>
 4    1  0.2247963E-002  0.4899343E+03  0.7818608E-02  0.1016440E+00
          1   -1    0    0  502    0  0.00000000000E+00  0.00000000000E+00  0.11830905226E+04  0.11830905226E+04  0.00000000000E+00 0. -1.
         -1   -1    0    0    0  501 -0.00000000000E+00 -0.00000000000E+00 -0.24975946652E+03  0.24975946652E+03  0.00000000000E+00 0.  1.
    9000007    1    1    2  502    0 -0.13048669763E+03 -0.25101562986E+03  0.15630887082E+03  0.51426460872E+03  0.40000000000E+03 0.  1.
   -9000007    1    1    2    0  501  0.13048669763E+03  0.25101562986E+03  0.77702218528E+03  0.91858538041E+03  0.40000000000E+03 0. -1.
<mgrwt>
<rscale>  2 0.48993431E+03</rscale>
<asrwt>0</asrwt>
<pdfrwt beam="1">  1        1 0.18201392E+00 0.48993431E+03</pdfrwt>
<pdfrwt beam="2">  1       -1 0.38424534E-01 0.48993431E+03</pdfrwt>
<totfact> 0.75907492E+01</totfact>
</mgrwt>
</event>
<event>
 4    1  0.2247963E-002  0.6650113E+03  0.7818608E-02  0.9779012E-01
         -1   -1    0    0    0  501 -0.00000000000E+00  0.00000000000E+00  0.94124339869E+03  0.94124339869E+03  0.00000000000E+00 0. -1.
          1   -1    0    0  502    0  0.00000000000E+00 -0.00000000000E+00 -0.98677021137E+03  0.98677021137E+03  0.00000000000E+00 0.  1.
    9000007    1    1    2  502    0  0.26124853895E+03  0.46258963382E+03 -0.72049001895E+03  0.98048245055E+03  0.40000000000E+03 0.  1.
   -9000007    1    1    2    0  501 -0.26124853895E+03 -0.46258963382E+03  0.67496320627E+03  0.94753115951E+03  0.40000000000E+03 0. -1.
<mgrwt>
<rscale>  2 0.66501125E+03</rscale>
<asrwt>0</asrwt>
<pdfrwt beam="1">  1        1 0.15181080E+00 0.66501125E+03</pdfrwt>
<pdfrwt beam="2">  1       -1 0.14480668E+00 0.66501125E+03</pdfrwt>
<totfact> 0.62355435E+00</totfact>
</mgrwt>
</event>
<event>
 4    1  0.2247963E-002  0.4258621E+03  0.7818608E-02  0.1035175E+00
         -2   -1    0    0    0  501 -0.00000000000E+00  0.00000000000E+00  0.34143278607E+03  0.34143278607E+03  0.00000000000E+00 0.  1.
          2   -1    0    0  502    0  0.00000000000E+00 -0.00000000000E+00 -0.55801297148E+03  0.55801297148E+03  0.00000000000E+00 0. -1.
    9000007    1    1    2  502    0  0.12268443816E+03  0.79417018289E+02 -0.20692841643E+03  0.47347429042E+03  0.40000000000E+03 0. -1.
   -9000007    1    1    2    0  501 -0.12268443816E+03 -0.79417018289E+02 -0.96517689763E+01  0.42597146712E+03  0.40000000000E+03 0. -1.
<mgrwt>
<rscale>  2 0.42586211E+03</rscale>
<asrwt>0</asrwt>
<pdfrwt beam="1">  1        2 0.85848149E-01 0.42586211E+03</pdfrwt>
<pdfrwt beam="2">  1       -2 0.52528122E-01 0.42586211E+03</pdfrwt>
<totfact> 0.19022431E+02</totfact>
</mgrwt>
</event>
<event>
 4    1  0.2247963E-002  0.4439216E+03  0.7818608E-02  0.1029550E+00
          2   -1    0    0  502    0  0.00000000000E+00  0.00000000000E+00  0.13738201139E+04  0.13738201139E+04  0.00000000000E+00 0.  1.
         -2   -1    0    0    0  501 -0.00000000000E+00 -0.00000000000E+00 -0.14649429337E+03  0.14649429337E+03  0.00000000000E+00 0. -1.
    9000007    1    1    2  502    0  0.17124722393E+03 -0.87981726602E+02  0.50397558895E+03  0.67160836071E+03  0.40000000000E+03 0.  1.
   -9000007    1    1    2    0  501 -0.17124722393E+03  0.87981726602E+02  0.72335023156E+03  0.84870604653E+03  0.40000000000E+03 0.  1.
<mgrwt>
<rscale>  2 0.44392161E+03</rscale>
<asrwt>0</asrwt>
<pdfrwt beam="1">  1        2 0.21135693E+00 0.44392161E+03</pdfrwt>
<pdfrwt beam="2">  1       -2 0.22537585E-01 0.44392161E+03</pdfrwt>
<totfact> 0.26857754E+02</totfact>
</mgrwt>
</event>
<event>
 4    1  0.2247963E-002  0.4476447E+03  0.7818608E-02  0.1028427E+00
          2   -1    0    0  502    0  0.00000000000E+00  0.00000000000E+00  0.94416593301E+03  0.94416593301E+03  0.00000000000E+00 0.  1.
         -2   -1    0    0    0  501 -0.00000000000E+00 -0.00000000000E+00 -0.35521170542E+03  0.35521170542E+03  0.00000000000E+00 0. -1.
    9000007    1    1    2  502    0 -0.36487559076E+01  0.20092904214E+03  0.70666309438E+03  0.83651570359E+03  0.40000000000E+03 0.  1.
   -9000007    1    1    2    0  501  0.36487559076E+01 -0.20092904214E+03 -0.11770886679E+03  0.46286193483E+03  0.40000000000E+03 0. -1.
<mgrwt>
<rscale>  2 0.44764472E+03</rscale>
<asrwt>0</asrwt>
<pdfrwt beam="1">  1        2 0.14525630E+00 0.44764472E+03</pdfrwt>
<pdfrwt beam="2">  1       -2 0.54647955E-01 0.44764472E+03</pdfrwt>
<totfact> 0.90003894E+01</totfact>
</mgrwt>
</event>
<event>
 4    1  0.2247963E-002  0.4740066E+03  0.7818608E-02  0.1020795E+00
          2   -1    0    0  502    0  0.00000000000E+00  0.00000000000E+00  0.12856653317E+03  0.12856653317E+03  0.00000000000E+00 0. -1.
         -2   -1    0    0    0  501 -0.00000000000E+00 -0.00000000000E+00 -0.18181696066E+04  0.18181696066E+04  0.00000000000E+00 0.  1.
    9000007    1    1    2  502    0  0.25294304981E+03  0.26496654812E+02 -0.65303030977E+03  0.80692679014E+03  0.40000000000E+03 0. -1.
   -9000007    1    1    2    0  501 -0.25294304981E+03 -0.26496654812E+02 -0.10365727637E+04  0.11398093496E+04  0.40000000000E+03 0.  1.
<mgrwt>
<rscale>  2 0.47400660E+03</rscale>
<asrwt>0</asrwt>
<pdfrwt beam="1">  1        2 0.19779469E-01 0.47400660E+03</pdfrwt>
<pdfrwt beam="2">  1       -2 0.27971837E+00 0.47400660E+03</pdfrwt>
<totfact> 0.13014995E+01</totfact>
</mgrwt>
</event>
<event>
 4    1  0.2247963E-002  0.4253559E+03  0.7818608E-02  0.1035337E+00
          2   -1    0    0  502    0  0.00000000000E+00  0.00000000000E+00  0.28698072424E+04  0.28698072424E+04  0.00000000000E+00 0.  1.
         -2   -1    0    0    0  501 -0.00000000000E+00 -0.00000000000E+00 -0.63063081797E+02  0.63063081797E+02  0.00000000000E+00 0. -1.
    9000007    1    1    2  502    0 -0.56170009102E+02 -0.13331388764E+03  0.14280435731E+04  0.14900456735E+04  0.40000000000E+03 0. -1.
   -9000007    1    1    2    0  501  0.56170009102E+02  0.13331388764E+03  0.13787005875E+04  0.14428246507E+04  0.40000000000E+03 0.  1.
<mgrwt>
<rscale>  2 0.42535592E+03</rscale>
<asrwt>0</asrwt>
<pdfrwt beam="1">  1        2 0.44150871E+00 0.42535592E+03</pdfrwt>
<pdfrwt beam="2">  1       -2 0.97020148E-02 0.42535592E+03</pdfrwt>
<totfact> 0.16673345E+02</totfact>
</mgrwt>
</event>
<event>
 4    1  0.2247963E-002  0.4281216E+03  0.7818608E-02  0.1034455E+00
         -1   -1    0    0    0  501 -0.00000000000E+00  0.00000000000E+00  0.77834392675E+03  0.77834392675E+03  0.00000000000E+00 0. -1.
          1   -1    0    0  502    0  0.00000000000E+00 -0.00000000000E+00 -0.33490081729E+03  0.33490081729E+03  0.00000000000E+00 0.  1.
    9000007    1    1    2  502    0 -0.11688184208E+03 -0.98115901053E+02 -0.81549476279E+02  0.43581924250E+03  0.40000000000E+03 0.  1.
   -9000007    1    1    2    0  501  0.11688184208E+03  0.98115901053E+02  0.52499258574E+03  0.67742550154E+03  0.40000000000E+03 0. -1.
<mgrwt>
<rscale>  2 0.42812159E+03</rscale>
<asrwt>0</asrwt>
<pdfrwt beam="1">  1        1 0.51523203E-01 0.42812159E+03</pdfrwt>
<pdfrwt beam="2">  1       -1 0.11974522E+00 0.42812159E+03</pdfrwt>
<totfact> 0.49846935E+01</totfact>
</mgrwt>
</event>
<event>
 4    1  0.2247963E-002  0.5480347E+03  0.7818608E-02  0.1001950E+00
         -1   -1    0    0    0  501 -0.00000000000E+00  0.00000000000E+00  0.38531706882E+03  0.38531706882E+03  0.00000000000E+00 0. -1.
          1   -1    0    0  502    0  0.00000000000E+00 -0.00000000000E+00 -0.84964517551E+03  0.84964517551E+03  0.00000000000E+00 0.  1.
    9000007    1    1    2  502    0 -0.28289593897E+03  0.24558475630E+03 -0.40962613072E+03  0.68420432020E+03  0.40000000000E+03 0.  1.
   -9000007    1    1    2    0  501  0.28289593897E+03 -0.24558475630E+03 -0.54701975969E+02  0.55075792413E+03  0.40000000000E+03 0. -1.
<mgrwt>
<rscale>  2 0.54803466E+03</rscale>
<asrwt>0</asrwt>
<pdfrwt beam="1">  1        1 0.13071464E+00 0.54803466E+03</pdfrwt>
<pdfrwt beam="2">  1       -1 0.59279550E-01 0.54803466E+03</pdfrwt>
<totfact> 0.60359828E+01</totfact>
</mgrwt>
</event>
<event>
 4    1  0.2247963E-002  0.4380173E+03  0.7818608E-02  0.1031357E+00
          2   -1    0    0  502    0  0.00000000000E+00  0.00000000000E+00  0.14531137971E+04  0.14531137971E+04  0.00000000000E+00 0.  1.
         -2   -1    0    0    0  501 -0.00000000000E+00 -0.00000000000E+00 -0.13624641938E+03  0.13624641938E+03  0.00000000000E+00 0. -1.
    9000007    1    1    2  502    0 -0.17296460715E+03 -0.44072673800E+02  0.51868727073E+03  0.67889295233E+03  0.40000000000E+03 0.  1.
   -9000007    1    1    2    0  501  0.17296460715E+03  0.44072673800E+02  0.79818010701E+03  0.91046726418E+03  0.40000000000E+03 0.  1.
<mgrwt>
<rscale>  2 0.43801730E+03</rscale>
<asrwt>0</asrwt>
<pdfrwt beam="1">  1        2 0.22355596E+00 0.43801730E+03</pdfrwt>
<pdfrwt beam="2">  1       -2 0.20960989E-01 0.43801730E+03</pdfrwt>
<totfact> 0.27585025E+02</totfact>
</mgrwt>
</event>
<event>
 4    1  0.2247963E-002  0.4398327E+03  0.7818608E-02  0.1030798E+00
          2   -1    0    0  502    0  0.00000000000E+00  0.00000000000E+00  0.15893779954E+04  0.15893779954E+04  0.00000000000E+00 0.  1.
         -2   -1    0    0    0  501 -0.00000000000E+00 -0.00000000000E+00 -0.14825697403E+03  0.14825697403E+03  0.00000000000E+00 0. -1.
    9000007    1    1    2  502    0  0.69172737556E+02  0.16931613623E+03  0.10881634322E+04  0.11736918150E+04  0.40000000000E+03 0. -1.
   -9000007    1    1    2    0  501 -0.69172737556E+02 -0.16931613623E+03  0.35295758922E+03  0.56394315440E+03  0.40000000000E+03 0. -1.
<mgrwt>
<rscale>  2 0.43983272E+03</rscale>
<asrwt>0</asrwt>
<pdfrwt beam="1">  1        2 0.24451968E+00 0.43983272E+03</pdfrwt>
<pdfrwt beam="2">  1       -2 0.22808766E-01 0.43983272E+03</pdfrwt>
<totfact> 0.20040837E+02</totfact>
</mgrwt>
</event>
<event>
 4    1  0.2247963E-002  0.4055560E+03  0.7818608E-02  0.1041873E+00
         -2   -1    0    0    0  501 -0.00000000000E+00  0.00000000000E+00  0.34226013345E+03  0.34226013345E+03  0.00000000000E+00 0.  1.
          2   -1    0    0  502    0  0.00000000000E+00 -0.00000000000E+00 -0.51394479084E+03  0.51394479084E+03  0.00000000000E+00 0. -1.
    9000007    1    1    2  502    0 -0.17111148057E+02  0.64675230026E+02  0.23271559153E+02  0.40622314340E+03  0.40000000000E+03 0.  1.
   -9000007    1    1    2    0  501  0.17111148057E+02 -0.64675230026E+02 -0.19495621654E+03  0.44998178089E+03  0.40000000000E+03 0.  1.
<mgrwt>
<rscale>  2 0.40555601E+03</rscale>
<asrwt>0</asrwt>
<pdfrwt beam="1">  1        2 0.79068428E-01 0.40555601E+03</pdfrwt>
<pdfrwt beam="2">  1       -2 0.52655406E-01 0.40555601E+03</pdfrwt>
<totfact> 0.20846286E+02</totfact>
</mgrwt>
</event>
<event>
 4    1  0.2247963E-002  0.4481344E+03  0.7818608E-02  0.1028280E+00
          1   -1    0    0  502    0  0.00000000000E+00  0.00000000000E+00  0.19002232569E+04  0.19002232569E+04  0.00000000000E+00 0.  1.
         -1   -1    0    0    0  501 -0.00000000000E+00 -0.00000000000E+00 -0.13583277789E+03  0.13583277789E+03  0.00000000000E+00 0. -1.
    9000007    1    1    2  502    0 -0.18926155802E+03  0.70742283507E+02  0.40258582845E+03  0.60241161783E+03  0.40000000000E+03 0. -1.
   -9000007    1    1    2    0  501  0.18926155802E+03 -0.70742283507E+02  0.13618046505E+04  0.14336444169E+04  0.40000000000E+03 0.  1.
<mgrwt>
<rscale>  2 0.44813436E+03</rscale>
<asrwt>0</asrwt>
<pdfrwt beam="1">  1        1 0.29234202E+00 0.44813436E+03</pdfrwt>
<pdfrwt beam="2">  1       -1 0.20897352E-01 0.44813436E+03</pdfrwt>
<totfact> 0.71070514E+01</totfact>
</mgrwt>
</event>
<event>
 4    1  0.2247963E-002  0.4797772E+03  0.7818608E-02  0.1019196E+00
         -2   -1    0    0    0  501 -0.00000000000E+00  0.00000000000E+00  0.10652908612E+03  0.10652908612E+03  0.00000000000E+00 0.  1.
          2   -1    0    0  502    0  0.00000000000E+00 -0.00000000000E+00 -0.24184366580E+04  0.24184366580E+04  0.00000000000E+00 0. -1.
    9000007    1    1    2  502    0  0.24825961169E+01 -0.26491499481E+03 -0.15680297147E+04  0.16397875789E+04  0.40000000000E+03 0.  1.
   -9000007    1    1    2    0  501 -0.24825961169E+01  0.26491499481E+03 -0.74387785716E+03  0.88517816519E+03  0.40000000000E+03 0. -1.
<mgrwt>
<rscale>  2 0.47977715E+03</rscale>
<asrwt>0</asrwt>
<pdfrwt beam="1">  1        2 0.37206714E+00 0.47977715E+03</pdfrwt>
<pdfrwt beam="2">  1       -2 0.16389092E-01 0.47977715E+03</pdfrwt>
<totfact> 0.12567497E+02</totfact>
</mgrwt>
</event>
<event>
 4    1  0.2247963E-002  0.4997028E+03  0.7818608E-02  0.1013857E+00
         -2   -1    0    0    0  501 -0.00000000000E+00  0.00000000000E+00  0.15289662103E+03  0.15289662103E+03  0.00000000000E+00 0.  1.
          2   -1    0    0  502    0  0.00000000000E+00 -0.00000000000E+00 -0.16580949782E+04  0.16580949782E+04  0.00000000000E+00 0. -1.
    9000007    1    1    2  502    0  0.27913180388E+03 -0.10857399325E+03 -0.64153167639E+03  0.81318249351E+03  0.40000000000E+03 0.  1.
   -9000007    1    1    2    0  501 -0.27913180388E+03  0.10857399325E+03 -0.86366668075E+03  0.99780910569E+03  0.40000000000E+03 0. -1.
<mgrwt>
<rscale>  2 0.49970279E+03</rscale>
<asrwt>0</asrwt>
<pdfrwt beam="1">  1        2 0.25509153E+00 0.49970279E+03</pdfrwt>
<pdfrwt beam="2">  1       -2 0.23522557E-01 0.49970279E+03</pdfrwt>
<totfact> 0.17286069E+02</totfact>
</mgrwt>
</event>
<event>
 4    1  0.2247963E-002  0.4075543E+03  0.7818608E-02  0.1041195E+00
          2   -1    0    0  502    0  0.00000000000E+00  0.00000000000E+00  0.74328913885E+03  0.74328913885E+03  0.00000000000E+00 0. -1.
         -2   -1    0    0    0  501 -0.00000000000E+00 -0.00000000000E+00 -0.29097352487E+03  0.29097352487E+03  0.00000000000E+00 0.  1.
    9000007    1    1    2  502    0 -0.26915800095E+01 -0.78059263217E+02 -0.22927107657E+02  0.40819865929E+03  0.40000000000E+03 0.  1.
   -9000007    1    1    2    0  501  0.26915800095E+01  0.78059263217E+02  0.47524272164E+03  0.62606400443E+03  0.40000000000E+03 0. -1.
<mgrwt>
<rscale>  2 0.40755428E+03</rscale>
<asrwt>0</asrwt>
<pdfrwt beam="1">  1        2 0.11435217E+00 0.40755428E+03</pdfrwt>
<pdfrwt beam="2">  1       -2 0.44765158E-01 0.40755428E+03</pdfrwt>
<totfact> 0.18556002E+02</totfact>
</mgrwt>
</event>
<event>
 4    1  0.2247963E-002  0.4232076E+03  0.7818608E-02  0.1036027E+00
         -1   -1    0    0    0  501 -0.00000000000E+00  0.00000000000E+00  0.66096864000E+03  0.66096864000E+03  0.00000000000E+00 0. -1.
          1   -1    0    0  502    0  0.00000000000E+00 -0.00000000000E+00 -0.32010718416E+03  0.32010718416E+03  0.00000000000E+00 0.  1.
    9000007    1    1    2  502    0 -0.12110245956E+03 -0.66624717684E+02  0.36261450270E+03  0.55730955159E+03  0.40000000000E+03 0. -1.
   -9000007    1    1    2    0  501  0.12110245956E+03  0.66624717684E+02 -0.21753046860E+02  0.42376627257E+03  0.40000000000E+03 0.  1.
<mgrwt>
<rscale>  2 0.42320758E+03</rscale>
<asrwt>0</asrwt>
<pdfrwt beam="1">  1        1 0.49247259E-01 0.42320758E+03</pdfrwt>
<pdfrwt beam="2">  1       -1 0.10168748E+00 0.42320758E+03</pdfrwt>
<totfact> 0.77426996E+01</totfact>
</mgrwt>
</event>
<event>
 4    1  0.2247963E-002  0.4316455E+03  0.7818608E-02  0.1033341E+00
         -2   -1    0    0    0  501 -0.00000000000E+00  0.00000000000E+00  0.78374579872E+02  0.78374579872E+02  0.00000000000E+00 0.  1.
          2   -1    0    0  502    0  0.00000000000E+00 -0.00000000000E+00 -0.24145555594E+04  0.24145555594E+04  0.00000000000E+00 0. -1.
    9000007    1    1    2  502    0  0.10137910000E+03 -0.12664941582E+03 -0.10132043345E+04  0.11013177652E+04  0.40000000000E+03 0.  1.
   -9000007    1    1    2    0  501 -0.10137910000E+03  0.12664941582E+03 -0.13229766450E+04  0.13916123741E+04  0.40000000000E+03 0. -1.
<mgrwt>
<rscale>  2 0.43164545E+03</rscale>
<asrwt>0</asrwt>
<pdfrwt beam="1">  1        2 0.37147010E+00 0.43164545E+03</pdfrwt>
<pdfrwt beam="2">  1       -2 0.12057627E-01 0.43164545E+03</pdfrwt>
<totfact> 0.21232576E+02</totfact>
</mgrwt>
</event>
<event>
 4    1  0.2247963E-002  0.6070654E+03  0.7818608E-02  0.9890855E-01
         -1   -1    0    0    0  501 -0.00000000000E+00  0.00000000000E+00  0.76252417692E+03  0.76252417692E+03  0.00000000000E+00 0.  1.
          1   -1    0    0  502    0  0.00000000000E+00 -0.00000000000E+00 -0.57807568011E+03  0.57807568011E+03  0.00000000000E+00 0. -1.
    9000007    1    1    2  502    0  0.42716859343E+03  0.16141697464E+03 -0.17918443572E+03  0.63295774655E+03  0.40000000000E+03 0. -1.
   -9000007    1    1    2    0  501 -0.42716859343E+03 -0.16141697464E+03  0.36363293253E+03  0.70764211049E+03  0.40000000000E+03 0.  1.
<mgrwt>
<rscale>  2 0.60706544E+03</rscale>
<asrwt>0</asrwt>
<pdfrwt beam="1">  1        1 0.88934720E-01 0.60706544E+03</pdfrwt>
<pdfrwt beam="2">  1       -1 0.11731141E+00 0.60706544E+03</pdfrwt>
<totfact> 0.24644772E+01</totfact>
</mgrwt>
</event>
<event>
 4    1  0.2247963E-002  0.7661201E+03  0.7818608E-02  0.9610394E-01
          2   -1    0    0  502    0  0.00000000000E+00  0.00000000000E+00  0.12496799171E+04  0.12496799171E+04  0.00000000000E+00 0. -1.
         -2   -1    0    0    0  501 -0.00000000000E+00 -0.00000000000E+00 -0.48714176972E+03  0.48714176972E+03  0.00000000000E+00 0.  1.
    9000007    1    1    2  502    0  0.38635151576E+03 -0.52694643314E+03  0.21681772043E+03  0.79620974688E+03  0.40000000000E+03 0.  1.
   -9000007    1    1    2    0  501 -0.38635151576E+03  0.52694643314E+03  0.54572042690E+03  0.94061193989E+03  0.40000000000E+03 0.  1.
<mgrwt>
<rscale>  2 0.76612012E+03</rscale>
<asrwt>0</asrwt>
<pdfrwt beam="1">  1        2 0.19225845E+00 0.76612012E+03</pdfrwt>
<pdfrwt beam="2">  1       -2 0.74944888E-01 0.76612012E+03</pdfrwt>
<totfact> 0.28803254E+01</totfact>
</mgrwt>
</event>
<event>
 4    1  0.2247963E-002  0.6051063E+03  0.7818608E-02  0.9894868E-01
         -2   -1    0    0    0  501 -0.00000000000E+00  0.00000000000E+00  0.55705779876E+03  0.55705779876E+03  0.00000000000E+00 0.  1.
          2   -1    0    0  502    0  0.00000000000E+00 -0.00000000000E+00 -0.90673248520E+03  0.90673248520E+03  0.00000000000E+00 0. -1.
    9000007    1    1    2  502    0 -0.45350255999E+03  0.22113431446E+02 -0.55870947909E+03  0.82359568830E+03  0.40000000000E+03 0. -1.
   -9000007    1    1    2    0  501  0.45350255999E+03 -0.22113431446E+02  0.20903479266E+03  0.64019459565E+03  0.40000000000E+03 0.  1.
<mgrwt>
<rscale>  2 0.60510625E+03</rscale>
<asrwt>0</asrwt>
<pdfrwt beam="1">  1        2 0.13949731E+00 0.60510625E+03</pdfrwt>
<pdfrwt beam="2">  1       -2 0.85701200E-01 0.60510625E+03</pdfrwt>
<totfact> 0.35336375E+01</totfact>
</mgrwt>
</event>
<event>
 4    1  0.2247963E-002  0.4301760E+03  0.7818608E-02  0.1033804E+00
          2   -1    0    0  502    0  0.00000000000E+00  0.00000000000E+00  0.70935769563E+03  0.70935769563E+03  0.00000000000E+00 0. -1.
         -2   -1    0    0    0  501 -0.00000000000E+00 -0.00000000000E+00 -0.27660276601E+03  0.27660276601E+03  0.00000000000E+00 0.  1.
    9000007    1    1    2  502    0 -0.15341962371E+03  0.38907252952E+02  0.33394304162E+03  0.54458177560E+03  0.40000000000E+03 0. -1.
   -9000007    1    1    2    0  501  0.15341962371E+03 -0.38907252952E+02  0.98811887997E+02  0.44137868603E+03  0.40000000000E+03 0.  1.
<mgrwt>
<rscale>  2 0.43017596E+03</rscale>
<asrwt>0</asrwt>
<pdfrwt beam="1">  1        2 0.10913195E+00 0.43017596E+03</pdfrwt>
<pdfrwt beam="2">  1       -2 0.42554272E-01 0.43017596E+03</pdfrwt>
<totfact> 0.21692578E+02</totfact>
</mgrwt>
</event>
<event>
 4    1  0.2247963E-002  0.4294913E+03  0.7818608E-02  0.1034021E+00
         -2   -1    0    0    0  501 -0.00000000000E+00  0.00000000000E+00  0.10044605886E+04  0.10044605886E+04  0.00000000000E+00 0. -1.
          2   -1    0    0  502    0  0.00000000000E+00 -0.00000000000E+00 -0.20727659483E+03  0.20727659483E+03  0.00000000000E+00 0.  1.
    9000007    1    1    2  502    0 -0.73971619308E+02 -0.13780772108E+03  0.19401226931E+03  0.47127861090E+03  0.40000000000E+03 0.  1.
   -9000007    1    1    2    0  501  0.73971619308E+02  0.13780772108E+03  0.60317172447E+03  0.74045857255E+03  0.40000000000E+03 0.  1.
<mgrwt>
<rscale>  2 0.42949129E+03</rscale>
<asrwt>0</asrwt>
<pdfrwt beam="1">  1        2 0.31888707E-01 0.42949129E+03</pdfrwt>
<pdfrwt beam="2">  1       -2 0.15453240E+00 0.42949129E+03</pdfrwt>
<totfact> 0.47578443E+01</totfact>
</mgrwt>
</event>
<event>
 4    1  0.2247963E-002  0.4003721E+03  0.7818608E-02  0.1043651E+00
          2   -1    0    0  502    0  0.00000000000E+00  0.00000000000E+00  0.30031301521E+03  0.30031301521E+03  0.00000000000E+00 0.  1.
         -2   -1    0    0    0  501 -0.00000000000E+00 -0.00000000000E+00 -0.53841249361E+03  0.53841249361E+03  0.00000000000E+00 0. -1.
    9000007    1    1    2  502    0 -0.11801398189E+02  0.12591204567E+02 -0.15799453970E+03  0.43041850100E+03  0.40000000000E+03 0.  1.
   -9000007    1    1    2    0  501  0.11801398189E+02 -0.12591204567E+02 -0.80104938703E+02  0.40830700782E+03  0.40000000000E+03 0.  1.
<mgrwt>
<rscale>  2 0.40037209E+03</rscale>
<asrwt>0</asrwt>
<pdfrwt beam="1">  1        2 0.46202003E-01 0.40037209E+03</pdfrwt>
<pdfrwt beam="2">  1       -2 0.82832690E-01 0.40037209E+03</pdfrwt>
<totfact> 0.14381062E+02</totfact>
</mgrwt>
</event>
<event>
 4    1  0.2247963E-002  0.4240412E+03  0.7818608E-02  0.1035759E+00
         -3   -1    0    0    0  501 -0.00000000000E+00  0.00000000000E+00  0.72847762654E+03  0.72847762654E+03  0.00000000000E+00 0.  1.
          3   -1    0    0  502    0  0.00000000000E+00 -0.00000000000E+00 -0.24731086038E+03  0.24731086038E+03  0.00000000000E+00 0. -1.
    9000007    1    1    2  502    0  0.79563627600E+02  0.11610576763E+03  0.26207281046E+03  0.49849080041E+03  0.40000000000E+03 0.  1.
   -9000007    1    1    2    0  501 -0.79563627600E+02 -0.11610576763E+03  0.21909395570E+03  0.47729768650E+03  0.40000000000E+03 0. -1.
<mgrwt>
<rscale>  2 0.42404118E+03</rscale>
<asrwt>0</asrwt>
<pdfrwt beam="1">  1        3 0.38047825E-01 0.42404118E+03</pdfrwt>
<pdfrwt beam="2">  1       -3 0.11207348E+00 0.42404118E+03</pdfrwt>
<totfact> 0.11905164E+01</totfact>
</mgrwt>
</event>
<event>
 4    1  0.2247963E-002  0.4010456E+03  0.7818608E-02  0.1043418E+00
         -2   -1    0    0    0  501 -0.00000000000E+00  0.00000000000E+00  0.15836187963E+03  0.15836187963E+03  0.00000000000E+00 0.  1.
          2   -1    0    0  502    0  0.00000000000E+00 -0.00000000000E+00 -0.10531746549E+04  0.10531746549E+04  0.00000000000E+00 0. -1.
    9000007    1    1    2  502    0 -0.95907329873E+01  0.27305251972E+02 -0.56177654869E+03  0.69023941470E+03  0.40000000000E+03 0. -1.
   -9000007    1    1    2    0  501  0.95907329873E+01 -0.27305251972E+02 -0.33303622662E+03  0.52129711987E+03  0.40000000000E+03 0.  1.
<mgrwt>
<rscale>  2 0.40104558E+03</rscale>
<asrwt>0</asrwt>
<pdfrwt beam="1">  1        2 0.16202687E+00 0.40104558E+03</pdfrwt>
<pdfrwt beam="2">  1       -2 0.24363366E-01 0.40104558E+03</pdfrwt>
<totfact> 0.36043564E+02</totfact>
</mgrwt>
</event>
<event>
 4    1  0.2247963E-002  0.4119604E+03  0.7818608E-02  0.1039715E+00
         -2   -1    0    0    0  501 -0.00000000000E+00  0.00000000000E+00  0.55016098084E+02  0.55016098084E+02  0.00000000000E+00 0.  1.
          2   -1    0    0  502    0  0.00000000000E+00 -0.00000000000E+00 -0.30930927420E+04  0.30930927420E+04  0.00000000000E+00 0. -1.
    9000007    1    1    2  502    0  0.55465059233E+02  0.81455559388E+02 -0.16007443461E+04  0.16529046683E+04  0.40000000000E+03 0. -1.
   -9000007    1    1    2    0  501 -0.55465059233E+02 -0.81455559388E+02 -0.14373322979E+04  0.14952041718E+04  0.40000000000E+03 0.  1.
<mgrwt>
<rscale>  2 0.41196041E+03</rscale>
<asrwt>0</asrwt>
<pdfrwt beam="1">  1        2 0.47586045E+00 0.41196041E+03</pdfrwt>
<pdfrwt beam="2">  1       -2 0.84640146E-02 0.41196041E+03</pdfrwt>
<totfact> 0.15281679E+02</totfact>
</mgrwt>
</event>
<event>
 4    1  0.2247963E-002  0.5461007E+03  0.7818608E-02  0.1002400E+00
         -2   -1    0    0    0  501 -0.00000000000E+00  0.00000000000E+00  0.13533511990E+03  0.13533511990E+03  0.00000000000E+00 0. -1.
          2   -1    0    0  502    0  0.00000000000E+00 -0.00000000000E+00 -0.22946578311E+04  0.22946578311E+04  0.00000000000E+00 0.  1.
    9000007    1    1    2  502    0  0.25718576560E+03  0.26848000029E+03 -0.13216791173E+04  0.14300565436E+04  0.40000000000E+03 0. -1.
   -9000007    1    1    2    0  501 -0.25718576560E+03 -0.26848000029E+03 -0.83764359384E+03  0.99993640742E+03  0.40000000000E+03 0.  1.
<mgrwt>
<rscale>  2 0.54610075E+03</rscale>
<asrwt>0</asrwt>
<pdfrwt beam="1">  1        2 0.35302426E+00 0.54610075E+03</pdfrwt>
<pdfrwt beam="2">  1       -2 0.20820789E-01 0.54610075E+03</pdfrwt>
<totfact> 0.96350766E+01</totfact>
</mgrwt>
</event>
<event>
 4    1  0.2247963E-002  0.5896203E+03  0.7818608E-02  0.9927178E-01
          1   -1    0    0  502    0  0.00000000000E+00  0.00000000000E+00  0.12410401653E+04  0.12410401653E+04  0.00000000000E+00 0. -1.
         -1   -1    0    0    0  501 -0.00000000000E+00 -0.00000000000E+00 -0.48993908540E+03  0.48993908540E+03  0.00000000000E+00 0.  1.
    9000007    1    1    2  502    0 -0.40107848376E+02  0.43132750699E+03 -0.19082358582E+03  0.61973034353E+03  0.40000000000E+03 0.  1.
   -9000007    1    1    2    0  501  0.40107848376E+02 -0.43132750699E+03  0.94192466574E+03  0.11112489072E+04  0.40000000000E+03 0. -1.
<mgrwt>
<rscale>  2 0.58962027E+03</rscale>
<asrwt>0</asrwt>
<pdfrwt beam="1">  1        1 0.19092926E+00 0.58962027E+03</pdfrwt>
<pdfrwt beam="2">  1       -1 0.75375244E-01 0.58962027E+03</pdfrwt>
<totfact> 0.18644763E+01</totfact>
</mgrwt>
</event>
<event>
 4    1  0.2247963E-002  0.4420138E+03  0.7818608E-02  0.1030131E+00
          2   -1    0    0  502    0  0.00000000000E+00  0.00000000000E+00  0.11254845060E+04  0.11254845060E+04  0.00000000000E+00 0. -1.
         -2   -1    0    0    0  501 -0.00000000000E+00 -0.00000000000E+00 -0.18796773519E+03  0.18796773519E+03  0.00000000000E+00 0.  1.
    9000007    1    1    2  502    0  0.15923887317E+03 -0.10009591613E+03  0.28714709672E+03  0.52709550017E+03  0.40000000000E+03 0.  1.
   -9000007    1    1    2    0  501 -0.15923887317E+03  0.10009591613E+03  0.65036967406E+03  0.78635674099E+03  0.40000000000E+03 0. -1.
<mgrwt>
<rscale>  2 0.44201381E+03</rscale>
<asrwt>0</asrwt>
<pdfrwt beam="1">  1        2 0.17315146E+00 0.44201381E+03</pdfrwt>
<pdfrwt beam="2">  1       -2 0.28918114E-01 0.44201381E+03</pdfrwt>
<totfact> 0.23848915E+02</totfact>
</mgrwt>
</event>
<event>
 4    1  0.2247963E-002  0.6603129E+03  0.7818608E-02  0.9787618E-01
         -2   -1    0    0    0  501 -0.00000000000E+00  0.00000000000E+00  0.24601466173E+03  0.24601466173E+03  0.00000000000E+00 0.  1.
          2   -1    0    0  502    0  0.00000000000E+00 -0.00000000000E+00 -0.18852317526E+04  0.18852317526E+04  0.00000000000E+00 0. -1.
    9000007    1    1    2  502    0 -0.11176851010E+03 -0.51334286344E+03 -0.55880163789E+03  0.86502737865E+03  0.40000000000E+03 0. -1.
   -9000007    1    1    2    0  501  0.11176851010E+03  0.51334286344E+03 -0.10804154530E+04  0.12662190357E+04  0.40000000000E+03 0. -1.
<mgrwt>
<rscale>  2 0.66031288E+03</rscale>
<asrwt>0</asrwt>
<pdfrwt beam="1">  1        2 0.29003565E+00 0.66031288E+03</pdfrwt>
<pdfrwt beam="2">  1       -2 0.37848410E-01 0.66031288E+03</pdfrwt>
<totfact> 0.52967102E+01</totfact>
</mgrwt>
</event>
<event>
 4    1  0.2247963E-002  0.5494676E+03  0.7818608E-02  0.1001617E+00
          1   -1    0    0  502    0  0.00000000000E+00  0.00000000000E+00  0.10134744464E+04  0.10134744464E+04  0.00000000000E+00 0.  1.
         -1   -1    0    0    0  501 -0.00000000000E+00 -0.00000000000E+00 -0.32381042299E+03  0.32381042299E+03  0.00000000000E+00 0. -1.
    9000007    1    1    2  502    0 -0.36232963072E+03  0.10311077325E+03  0.15569297061E+03  0.57109972330E+03  0.40000000000E+03 0.  1.
   -9000007    1    1    2    0  501  0.36232963072E+03 -0.10311077325E+03  0.53397105284E+03  0.76618514611E+03  0.40000000000E+03 0. -1.
<mgrwt>
<rscale>  2 0.54946755E+03</rscale>
<asrwt>0</asrwt>
<pdfrwt beam="1">  1        1 0.15591914E+00 0.54946755E+03</pdfrwt>
<pdfrwt beam="2">  1       -1 0.49816989E-01 0.54946755E+03</pdfrwt>
<totfact> 0.62407003E+01</totfact>
</mgrwt>
</event>
<event>
 4    1  0.2247963E-002  0.4497089E+03  0.7818608E-02  0.1027809E+00
         -1   -1    0    0    0  501 -0.00000000000E+00  0.00000000000E+00  0.12923504872E+03  0.12923504872E+03  0.00000000000E+00 0. -1.
          1   -1    0    0  502    0  0.00000000000E+00 -0.00000000000E+00 -0.21957190637E+04  0.21957190637E+04  0.00000000000E+00 0.  1.
    9000007    1    1    2  502    0  0.20443920760E+03  0.21040880431E+02 -0.41014845875E+03  0.60865414356E+03  0.40000000000E+03 0.  1.
   -9000007    1    1    2    0  501 -0.20443920760E+03 -0.21040880431E+02 -0.16563355563E+04  0.17162999689E+04  0.40000000000E+03 0.  1.
<mgrwt>
<rscale>  2 0.44970892E+03</rscale>
<asrwt>0</asrwt>
<pdfrwt beam="1">  1        1 0.33780295E+00 0.44970892E+03</pdfrwt>
<pdfrwt beam="2">  1       -1 0.19882314E-01 0.44970892E+03</pdfrwt>
<totfact> 0.49230860E+01</totfact>
</mgrwt>
</event>
<event>
 4    1  0.2247963E-002  0.5944911E+03  0.7818608E-02  0.9916902E-01
          1   -1    0    0  502    0  0.00000000000E+00  0.00000000000E+00  0.88518218104E+03  0.88518218104E+03  0.00000000000E+00 0.  1.
         -1   -1    0    0    0  501 -0.00000000000E+00 -0.00000000000E+00 -0.39929357316E+03  0.39929357316E+03  0.00000000000E+00 0. -1.
    9000007    1    1    2  502    0 -0.42863724534E+03  0.98436733094E+02  0.24864804763E+03  0.64439547647E+03  0.40000000000E+03 0.  1.
   -9000007    1    1    2    0  501  0.42863724534E+03 -0.98436733094E+02  0.23724056025E+03  0.64008027773E+03  0.40000000000E+03 0. -1.
<mgrwt>
<rscale>  2 0.59449111E+03</rscale>
<asrwt>0</asrwt>
<pdfrwt beam="1">  1        1 0.13618187E+00 0.59449111E+03</pdfrwt>
<pdfrwt beam="2">  1       -1 0.61429781E-01 0.59449111E+03</pdfrwt>
<totfact> 0.52322053E+01</totfact>
</mgrwt>
</event>
<event>
 4    1  0.2247963E-002  0.4497518E+03  0.7818608E-02  0.1027796E+00
         -2   -1    0    0    0  501 -0.00000000000E+00  0.00000000000E+00  0.19818215105E+03  0.19818215105E+03  0.00000000000E+00 0. -1.
          2   -1    0    0  502    0  0.00000000000E+00 -0.00000000000E+00 -0.13837738053E+04  0.13837738053E+04  0.00000000000E+00 0.  1.
    9000007    1    1    2  502    0 -0.11632307235E+03  0.16954545017E+03 -0.99798035222E+03  0.10946421791E+04  0.40000000000E+03 0.  1.
   -9000007    1    1    2    0  501  0.11632307235E+03 -0.16954545017E+03 -0.18761130199E+03  0.48731377722E+03  0.40000000000E+03 0. -1.
<mgrwt>
<rscale>  2 0.44975184E+03</rscale>
<asrwt>0</asrwt>
<pdfrwt beam="1">  1        2 0.21288828E+00 0.44975184E+03</pdfrwt>
<pdfrwt beam="2">  1       -2 0.30489561E-01 0.44975184E+03</pdfrwt>
<totfact> 0.15372233E+02</totfact>
</mgrwt>
</event>
<event>
 4    1  0.2247963E-002  0.4254419E+03  0.7818608E-02  0.1035310E+00
          2   -1    0    0  502    0  0.00000000000E+00  0.00000000000E+00  0.42916758255E+03  0.42916758255E+03  0.00000000000E+00 0.  1.
         -2   -1    0    0    0  501 -0.00000000000E+00 -0.00000000000E+00 -0.42364365892E+03  0.42364365892E+03  0.00000000000E+00 0. -1.
    9000007    1    1    2  502    0  0.14488379592E+03  0.30844846738E+01  0.31280915522E+02  0.42659034687E+03  0.40000000000E+03 0. -1.
   -9000007    1    1    2    0  501 -0.14488379592E+03 -0.30844846738E+01 -0.25756991895E+02  0.42622089460E+03  0.40000000000E+03 0.  1.
<mgrwt>
<rscale>  2 0.42544192E+03</rscale>
<asrwt>0</asrwt>
<pdfrwt beam="1">  1        2 0.66025782E-01 0.42544192E+03</pdfrwt>
<pdfrwt beam="2">  1       -2 0.65175947E-01 0.42544192E+03</pdfrwt>
<totfact> 0.16365324E+02</totfact>
</mgrwt>
</event>
<event>
 4    1  0.2247963E-002  0.7281668E+03  0.7818608E-02  0.9670240E-01
          1   -1    0    0  502    0  0.00000000000E+00  0.00000000000E+00  0.15076912975E+04  0.15076912975E+04  0.00000000000E+00 0. -1.
         -1   -1    0    0    0  501 -0.00000000000E+00 -0.00000000000E+00 -0.39076147204E+03  0.39076147204E+03  0.00000000000E+00 0.  1.
    9000007    1    1    2  502    0  0.59501738752E+03 -0.12720517823E+03  0.85865207630E+03  0.11258375713E+04  0.40000000000E+03 0. -1.
   -9000007    1    1    2    0  501 -0.59501738752E+03  0.12720517823E+03  0.25827774915E+03  0.77261519822E+03  0.40000000000E+03 0.  1.
<mgrwt>
<rscale>  2 0.72816677E+03</rscale>
<asrwt>0</asrwt>
<pdfrwt beam="1">  1        1 0.23195250E+00 0.72816677E+03</pdfrwt>
<pdfrwt beam="2">  1       -1 0.60117150E-01 0.72816677E+03</pdfrwt>
<totfact> 0.18820554E+01</totfact>
</mgrwt>
</event>
<event>
 4    1  0.2247963E-002  0.4714344E+03  0.7818608E-02  0.1021516E+00
         -2   -1    0    0    0  501 -0.00000000000E+00  0.00000000000E+00  0.10579490254E+04  0.10579490254E+04  0.00000000000E+00 0. -1.
          2   -1    0    0  502    0  0.00000000000E+00 -0.00000000000E+00 -0.22480415924E+03  0.22480415924E+03  0.00000000000E+00 0.  1.
    9000007    1    1    2  502    0  0.88751591093E+02 -0.23318128345E+03  0.58073571361E+03  0.74800021720E+03  0.40000000000E+03 0. -1.
   -9000007    1    1    2    0  501 -0.88751591093E+02  0.23318128345E+03  0.25240915251E+03  0.53475296740E+03  0.40000000000E+03 0.  1.
<mgrwt>
<rscale>  2 0.47143436E+03</rscale>
<asrwt>0</asrwt>
<pdfrwt beam="1">  1        2 0.34585256E-01 0.47143436E+03</pdfrwt>
<pdfrwt beam="2">  1       -2 0.16276139E+00 0.47143436E+03</pdfrwt>
<totfact> 0.37688953E+01</totfact>
</mgrwt>
</event>
<event>
 4    1  0.2247963E-002  0.4131603E+03  0.7818608E-02  0.1039316E+00
         -1   -1    0    0    0  501 -0.00000000000E+00  0.00000000000E+00  0.33417446055E+03  0.33417446055E+03  0.00000000000E+00 0.  1.
          1   -1    0    0  502    0  0.00000000000E+00 -0.00000000000E+00 -0.11575896721E+04  0.11575896721E+04  0.00000000000E+00 0. -1.
    9000007    1    1    2  502    0  0.95271192258E+02 -0.40308898620E+02  0.14582370869E+03  0.43813920322E+03  0.40000000000E+03 0.  1.
   -9000007    1    1    2    0  501 -0.95271192258E+02  0.40308898620E+02 -0.96923892021E+03  0.10536249294E+04  0.40000000000E+03 0. -1.
<mgrwt>
<rscale>  2 0.41316027E+03</rscale>
<asrwt>0</asrwt>
<pdfrwt beam="1">  1        1 0.17809072E+00 0.41316027E+03</pdfrwt>
<pdfrwt beam="2">  1       -1 0.51411454E-01 0.41316027E+03</pdfrwt>
<totfact> 0.46993509E+01</totfact>
</mgrwt>
</event>
<event>
 4    1  0.2247963E-002  0.4890120E+03  0.7818608E-02  0.1016687E+00
          1   -1    0    0  502    0  0.00000000000E+00  0.00000000000E+00  0.19055185705E+04  0.19055185705E+04  0.00000000000E+00 0. -1.
         -1   -1    0    0    0  501 -0.00000000000E+00 -0.00000000000E+00 -0.12549643016E+03  0.12549643016E+03  0.00000000000E+00 0.  1.
    9000007    1    1    2  502    0  0.23421409527E+03 -0.15580921863E+03  0.89362177478E+03  0.10186719940E+04  0.40000000000E+03 0. -1.
   -9000007    1    1    2    0  501 -0.23421409527E+03  0.15580921863E+03  0.88640036558E+03  0.10123430067E+04  0.40000000000E+03 0.  1.
<mgrwt>
<rscale>  2 0.48901202E+03</rscale>
<asrwt>0</asrwt>
<pdfrwt beam="1">  1        1 0.29315668E+00 0.48901202E+03</pdfrwt>
<pdfrwt beam="2">  1       -1 0.19307145E-01 0.48901202E+03</pdfrwt>
<totfact> 0.79784082E+01</totfact>
</mgrwt>
</event>
<event>
 4    1  0.2247963E-002  0.4201735E+03  0.7818608E-02  0.1037010E+00
         -2   -1    0    0    0  501 -0.00000000000E+00  0.00000000000E+00  0.12273687825E+03  0.12273687825E+03  0.00000000000E+00 0.  1.
          2   -1    0    0  502    0  0.00000000000E+00 -0.00000000000E+00 -0.17772971577E+04  0.17772971577E+04  0.00000000000E+00 0. -1.
    9000007    1    1    2  502    0  0.89780943581E+01 -0.12831653615E+03 -0.41244070699E+03  0.58877251669E+03  0.40000000000E+03 0.  1.
   -9000007    1    1    2    0  501 -0.89780943581E+01  0.12831653615E+03 -0.12421195724E+04  0.13112615192E+04  0.40000000000E+03 0. -1.
<mgrwt>
<rscale>  2 0.42017346E+03</rscale>
<asrwt>0</asrwt>
<pdfrwt beam="1">  1        2 0.27343031E+00 0.42017346E+03</pdfrwt>
<pdfrwt beam="2">  1       -2 0.18882598E-01 0.42017346E+03</pdfrwt>
<totfact> 0.22129273E+02</totfact>
</mgrwt>
</event>
<event>
 4    1  0.2247963E-002  0.5027095E+03  0.7818608E-02  0.1013074E+00
         -2   -1    0    0    0  501 -0.00000000000E+00  0.00000000000E+00  0.81321687773E+02  0.81321687773E+02  0.00000000000E+00 0. -1.
          2   -1    0    0  502    0  0.00000000000E+00 -0.00000000000E+00 -0.35098419827E+04  0.35098419827E+04  0.00000000000E+00 0.  1.
    9000007    1    1    2  502    0 -0.15731572619E+02  0.30408779522E+03 -0.11064127711E+04  0.12152637942E+04  0.40000000000E+03 0. -1.
   -9000007    1    1    2    0  501  0.15731572619E+02 -0.30408779522E+03 -0.23221075239E+04  0.23758998763E+04  0.40000000000E+03 0.  1.
<mgrwt>
<rscale>  2 0.50270953E+03</rscale>
<asrwt>0</asrwt>
<pdfrwt beam="1">  1        2 0.53997559E+00 0.50270953E+03</pdfrwt>
<pdfrwt beam="2">  1       -2 0.12511031E-01 0.50270953E+03</pdfrwt>
<totfact> 0.42920896E+01</totfact>
</mgrwt>
</event>
<event>
 4    1  0.2247963E-002  0.4121882E+03  0.7818608E-02  0.1039639E+00
         -2   -1    0    0    0  501 -0.00000000000E+00  0.00000000000E+00  0.68535008346E+02  0.68535008346E+02  0.00000000000E+00 0.  1.
          2   -1    0    0  502    0  0.00000000000E+00 -0.00000000000E+00 -0.25862287101E+04  0.25862287101E+04  0.00000000000E+00 0. -1.
    9000007    1    1    2  502    0  0.42412576398E+02 -0.90001728160E+02 -0.98858000236E+03  0.10710693529E+04  0.40000000000E+03 0. -1.
   -9000007    1    1    2    0  501 -0.42412576398E+02  0.90001728160E+02 -0.15291136994E+04  0.15836943655E+04  0.40000000000E+03 0. -1.
<mgrwt>
<rscale>  2 0.41218823E+03</rscale>
<asrwt>0</asrwt>
<pdfrwt beam="1">  1        2 0.39788142E+00 0.41218823E+03</pdfrwt>
<pdfrwt beam="2">  1       -2 0.10543845E-01 0.41218823E+03</pdfrwt>
<totfact> 0.21268291E+02</totfact>
</mgrwt>
</event>
<event>
 4    1  0.2247963E-002  0.4709692E+03  0.7818608E-02  0.1021647E+00
         -1   -1    0    0    0  501 -0.00000000000E+00  0.00000000000E+00  0.46042313672E+03  0.46042313672E+03  0.00000000000E+00 0. -1.
          1   -1    0    0  502    0  0.00000000000E+00 -0.00000000000E+00 -0.48675678344E+03  0.48675678344E+03  0.00000000000E+00 0.  1.
    9000007    1    1    2  502    0 -0.20681414539E+03 -0.13798511985E+03 -0.61165592379E+02  0.47492442949E+03  0.40000000000E+03 0. -1.
   -9000007    1    1    2    0  501  0.20681414539E+03  0.13798511985E+03  0.34831945658E+02  0.47225549067E+03  0.40000000000E+03 0. -1.
<mgrwt>
<rscale>  2 0.47096920E+03</rscale>
<asrwt>0</asrwt>
<pdfrwt beam="1">  1        1 0.74885659E-01 0.47096920E+03</pdfrwt>
<pdfrwt beam="2">  1       -1 0.70834329E-01 0.47096920E+03</pdfrwt>
<totfact> 0.96523518E+01</totfact>
</mgrwt>
</event>
<event>
 4    1  0.2247963E-002  0.4856995E+03  0.7818608E-02  0.1017580E+00
          1   -1    0    0  502    0  0.00000000000E+00  0.00000000000E+00  0.73526608127E+03  0.73526608127E+03  0.00000000000E+00 0. -1.
         -1   -1    0    0    0  501 -0.00000000000E+00 -0.00000000000E+00 -0.33914609185E+03  0.33914609185E+03  0.00000000000E+00 0.  1.
    9000007    1    1    2  502    0  0.33151117114E+02 -0.27350499193E+03  0.73256757411E+02  0.49119296583E+03  0.40000000000E+03 0. -1.
   -9000007    1    1    2    0  501 -0.33151117114E+02  0.27350499193E+03  0.32286323200E+03  0.58321920729E+03  0.40000000000E+03 0.  1.
<mgrwt>
<rscale>  2 0.48569947E+03</rscale>
<asrwt>0</asrwt>
<pdfrwt beam="1">  1        1 0.11311786E+00 0.48569947E+03</pdfrwt>
<pdfrwt beam="2">  1       -1 0.52176322E-01 0.48569947E+03</pdfrwt>
<totfact> 0.97540189E+01</totfact>
</mgrwt>
</event>
<event>
 4    1  0.2247963E-002  0.4173162E+03  0.7818608E-02  0.1037943E+00
         -2   -1    0    0    0  501 -0.00000000000E+00  0.00000000000E+00  0.15123070167E+03  0.15123070167E+03  0.00000000000E+00 0. -1.
          2   -1    0    0  502    0  0.00000000000E+00 -0.00000000000E+00 -0.13986265697E+04  0.13986265697E+04  0.00000000000E+00 0.  1.
    9000007    1    1    2  502    0 -0.85155886275E+02 -0.83074177462E+02 -0.29800493981E+03  0.51279604920E+03  0.40000000000E+03 0. -1.
   -9000007    1    1    2    0  501  0.85155886275E+02  0.83074177462E+02 -0.94939092818E+03  0.10370612221E+04  0.40000000000E+03 0.  1.
<mgrwt>
<rscale>  2 0.41731624E+03</rscale>
<asrwt>0</asrwt>
<pdfrwt beam="1">  1        2 0.21517332E+00 0.41731624E+03</pdfrwt>
<pdfrwt beam="2">  1       -2 0.23266262E-01 0.41731624E+03</pdfrwt>
<totfact> 0.24672045E+02</totfact>
</mgrwt>
</event>
<event>
 4    1  0.2247963E-002  0.4541490E+03  0.7818608E-02  0.1026492E+00
          1   -1    0    0  502    0  0.00000000000E+00  0.00000000000E+00  0.40424388941E+03  0.40424388941E+03  0.00000000000E+00 0. -1.
         -1   -1    0    0    0  501 -0.00000000000E+00 -0.00000000000E+00 -0.52187270777E+03  0.52187270777E+03  0.00000000000E+00 0.  1.
    9000007    1    1    2  502    0 -0.19969535186E+03  0.79831618346E+02 -0.12802281065E+03  0.47184866312E+03  0.40000000000E+03 0.  1.
   -9000007    1    1    2    0  501  0.19969535186E+03 -0.79831618346E+02  0.10393992290E+02  0.45426793406E+03  0.40000000000E+03 0. -1.
<mgrwt>
<rscale>  2 0.45414901E+03</rscale>
<asrwt>0</asrwt>
<pdfrwt beam="1">  1        1 0.62191368E-01 0.45414901E+03</pdfrwt>
<pdfrwt beam="2">  1       -1 0.80288109E-01 0.45414901E+03</pdfrwt>
<totfact> 0.95507466E+01</totfact>
</mgrwt>
</event>
<event>
 4    1  0.2247963E-002  0.5861586E+03  0.7818608E-02  0.9934546E-01
         -1   -1    0    0    0  501 -0.00000000000E+00  0.00000000000E+00  0.11813064113E+03  0.11813064113E+03  0.00000000000E+00 0. -1.
          1   -1    0    0  502    0  0.00000000000E+00 -0.00000000000E+00 -0.31879540622E+04  0.31879540622E+04  0.00000000000E+00 0.  1.
    9000007    1    1    2  502    0 -0.36814912927E+03 -0.21919876213E+03 -0.20243414365E+04  0.21074961757E+04  0.40000000000E+03 0.  1.
   -9000007    1    1    2    0  501  0.36814912927E+03  0.21919876213E+03 -0.10454819846E+04  0.11985885277E+04  0.40000000000E+03 0.  1.
<mgrwt>
<rscale>  2 0.58615858E+03</rscale>
<asrwt>0</asrwt>
<pdfrwt beam="1">  1        1 0.49045452E+00 0.58615858E+03</pdfrwt>
<pdfrwt beam="2">  1       -1 0.18173943E-01 0.58615858E+03</pdfrwt>
<totfact> 0.11444099E+01</totfact>
</mgrwt>
</event>
<event>
 4    1  0.2247963E-002  0.5367913E+03  0.7818608E-02  0.1004598E+00
          4   -1    0    0  502    0  0.00000000000E+00  0.00000000000E+00  0.16748375391E+03  0.16748375391E+03  0.00000000000E+00 0. -1.
         -4   -1    0    0    0  501 -0.00000000000E+00 -0.00000000000E+00 -0.20971506751E+04  0.20971506751E+04  0.00000000000E+00 0.  1.
    9000007    1    1    2  502    0  0.12741626929E+03 -0.33452957760E+03 -0.14447437141E+04  0.15412427918E+04  0.40000000000E+03 0.  1.
   -9000007    1    1    2    0  501 -0.12741626929E+03  0.33452957760E+03 -0.48492320714E+03  0.72339163721E+03  0.40000000000E+03 0. -1.
<mgrwt>
<rscale>  2 0.53679134E+03</rscale>
<asrwt>0</asrwt>
<pdfrwt beam="1">  1        4 0.25766732E-01 0.53679134E+03</pdfrwt>
<pdfrwt beam="2">  1       -4 0.32263856E+00 0.53679134E+03</pdfrwt>
<totfact> 0.66462327E-01</totfact>
</mgrwt>
</event>
<event>
 4    1  0.2247963E-002  0.4988157E+03  0.7818608E-02  0.1014089E+00
          2   -1    0    0  502    0  0.00000000000E+00  0.00000000000E+00  0.36694109322E+03  0.36694109322E+03  0.00000000000E+00 0.  1.
         -2   -1    0    0    0  501 -0.00000000000E+00 -0.00000000000E+00 -0.98796786469E+03  0.98796786469E+03  0.00000000000E+00 0. -1.
    9000007    1    1    2  502    0 -0.24201068703E+03 -0.17391926028E+03 -0.68992254750E+03  0.85135785853E+03  0.40000000000E+03 0. -1.
   -9000007    1    1    2    0  501  0.24201068703E+03  0.17391926028E+03  0.68895776035E+02  0.50355109938E+03  0.40000000000E+03 0. -1.
<mgrwt>
<rscale>  2 0.49881568E+03</rscale>
<asrwt>0</asrwt>
<pdfrwt beam="1">  1        2 0.56452475E-01 0.49881568E+03</pdfrwt>
<pdfrwt beam="2">  1       -2 0.15199506E+00 0.49881568E+03</pdfrwt>
<totfact> 0.26276179E+01</totfact>
</mgrwt>
</event>
<event>
 4    1  0.2247963E-002  0.5347327E+03  0.7818608E-02  0.1005091E+00
          1   -1    0    0  502    0  0.00000000000E+00  0.00000000000E+00  0.12799016550E+04  0.12799016550E+04  0.00000000000E+00 0.  1.
         -1   -1    0    0    0  501 -0.00000000000E+00 -0.00000000000E+00 -0.26669927721E+03  0.26669927721E+03  0.00000000000E+00 0. -1.
    9000007    1    1    2  502    0  0.35280982392E+03  0.38266275710E+02  0.19504081772E+03  0.56919241060E+03  0.40000000000E+03 0. -1.
   -9000007    1    1    2    0  501 -0.35280982392E+03 -0.38266275710E+02  0.81816156003E+03  0.97740852156E+03  0.40000000000E+03 0.  1.
<mgrwt>
<rscale>  2 0.53473272E+03</rscale>
<asrwt>0</asrwt>
<pdfrwt beam="1">  1        1 0.19690794E+00 0.53473272E+03</pdfrwt>
<pdfrwt beam="2">  1       -1 0.41030658E-01 0.53473272E+03</pdfrwt>
<totfact> 0.57192581E+01</totfact>
</mgrwt>
</event>
<event>
 4    1  0.2247963E-002  0.4125347E+03  0.7818608E-02  0.1039524E+00
          2   -1    0    0  502    0  0.00000000000E+00  0.00000000000E+00  0.13273054384E+04  0.13273054384E+04  0.00000000000E+00 0. -1.
         -2   -1    0    0    0  501 -0.00000000000E+00 -0.00000000000E+00 -0.12947438195E+03  0.12947438195E+03  0.00000000000E+00 0.  1.
    9000007    1    1    2  502    0 -0.48967934617E+02 -0.88244020846E+02  0.52717269611E+03  0.66939966938E+03  0.40000000000E+03 0.  1.
   -9000007    1    1    2    0  501  0.48967934617E+02  0.88244020846E+02  0.67065836030E+03  0.78738015093E+03  0.40000000000E+03 0. -1.
<mgrwt>
<rscale>  2 0.41253468E+03</rscale>
<asrwt>0</asrwt>
<pdfrwt beam="1">  1        2 0.20420083E+00 0.41253468E+03</pdfrwt>
<pdfrwt beam="2">  1       -2 0.19919137E-01 0.41253468E+03</pdfrwt>
<totfact> 0.35493768E+02</totfact>
</mgrwt>
</event>
<event>
 4    1  0.2247963E-002  0.4249772E+03  0.7818608E-02  0.1035458E+00
          1   -1    0    0  502    0  0.00000000000E+00  0.00000000000E+00  0.87014697151E+03  0.87014697151E+03  0.00000000000E+00 0. -1.
         -1   -1    0    0    0  501 -0.00000000000E+00 -0.00000000000E+00 -0.78781730310E+03  0.78781730310E+03  0.00000000000E+00 0.  1.
    9000007    1    1    2  502    0 -0.11277041360E+03  0.88817183608E+02  0.75261355529E+03  0.86431060499E+03  0.40000000000E+03 0. -1.
   -9000007    1    1    2    0  501  0.11277041360E+03 -0.88817183608E+02 -0.67028388688E+03  0.79365366962E+03  0.40000000000E+03 0.  1.
<mgrwt>
<rscale>  2 0.42497724E+03</rscale>
<asrwt>0</asrwt>
<pdfrwt beam="1">  1        1 0.13386877E+00 0.42497724E+03</pdfrwt>
<pdfrwt beam="2">  1       -1 0.12120266E+00 0.42497724E+03</pdfrwt>
<totfact> 0.12684872E+01</totfact>
</mgrwt>
</event>
<event>
 4    1  0.2247963E-002  0.5025023E+03  0.7818608E-02  0.1013128E+00
         -2   -1    0    0    0  501 -0.00000000000E+00  0.00000000000E+00  0.15052198721E+03  0.15052198721E+03  0.00000000000E+00 0.  1.
          2   -1    0    0  502    0  0.00000000000E+00 -0.00000000000E+00 -0.17008303467E+04  0.17008303467E+04  0.00000000000E+00 0. -1.
    9000007    1    1    2  502    0  0.90871053297E+02 -0.29026018588E+03 -0.88344726744E+03  0.10163599747E+04  0.40000000000E+03 0. -1.
   -9000007    1    1    2    0  501 -0.90871053297E+02  0.29026018588E+03 -0.66686109206E+03  0.83499235921E+03  0.40000000000E+03 0. -1.
<mgrwt>
<rscale>  2 0.50250226E+03</rscale>
<asrwt>0</asrwt>
<pdfrwt beam="1">  1        2 0.26166623E+00 0.50250226E+03</pdfrwt>
<pdfrwt beam="2">  1       -2 0.23157227E-01 0.50250226E+03</pdfrwt>
<totfact> 0.16846618E+02</totfact>
</mgrwt>
</event>
<event>
 4    1  0.2247963E-002  0.4344027E+03  0.7818608E-02  0.1032478E+00
          2   -1    0    0  502    0  0.00000000000E+00  0.00000000000E+00  0.14582130548E+04  0.14582130548E+04  0.00000000000E+00 0. -1.
         -2   -1    0    0    0  501 -0.00000000000E+00 -0.00000000000E+00 -0.18464019754E+03  0.18464019754E+03  0.00000000000E+00 0.  1.
    9000007    1    1    2  502    0  0.16877967907E+03  0.14801490318E+02  0.18752566024E+03  0.47315064982E+03  0.40000000000E+03 0.  1.
   -9000007    1    1    2    0  501 -0.16877967907E+03 -0.14801490318E+02  0.10860471970E+04  0.11697026025E+04  0.40000000000E+03 0. -1.
<mgrwt>
<rscale>  2 0.43440265E+03</rscale>
<asrwt>0</asrwt>
<pdfrwt beam="1">  1        2 0.22434046E+00 0.43440265E+03</pdfrwt>
<pdfrwt beam="2">  1       -2 0.28406185E-01 0.43440265E+03</pdfrwt>
<totfact> 0.15952936E+02</totfact>
</mgrwt>
</event>
<event>
 4    1  0.2247963E-002  0.4247155E+03  0.7818608E-02  0.1035542E+00
         -2   -1    0    0    0  501 -0.00000000000E+00  0.00000000000E+00  0.17787404537E+03  0.17787404537E+03  0.00000000000E+00 0. -1.
          2   -1    0    0  502    0  0.00000000000E+00 -0.00000000000E+00 -0.13438272675E+04  0.13438272675E+04  0.00000000000E+00 0.  1.
    9000007    1    1    2  502    0 -0.50633825020E+02  0.13348960754E+03 -0.20609866845E+03  0.47208041762E+03  0.40000000000E+03 0. -1.
   -9000007    1    1    2    0  501  0.50633825020E+02 -0.13348960754E+03 -0.95985455366E+03  0.10496208952E+04  0.40000000000E+03 0.  1.
<mgrwt>
<rscale>  2 0.42471550E+03</rscale>
<asrwt>0</asrwt>
<pdfrwt beam="1">  1        2 0.20674265E+00 0.42471550E+03</pdfrwt>
<pdfrwt beam="2">  1       -2 0.27365238E-01 0.42471550E+03</pdfrwt>
<totfact> 0.19781053E+02</totfact>
</mgrwt>
</event>
<event>
 4    1  0.2247963E-002  0.4017619E+03  0.7818608E-02  0.1043171E+00
         -1   -1    0    0    0  501 -0.00000000000E+00  0.00000000000E+00  0.85578606079E+02  0.85578606079E+02  0.00000000000E+00 0. -1.
          1   -1    0    0  502    0  0.00000000000E+00 -0.00000000000E+00 -0.18861623459E+04  0.18861623459E+04  0.00000000000E+00 0.  1.
    9000007    1    1    2  502    0 -0.25194443479E+02 -0.27889904845E+02 -0.90420083423E+03  0.98944012219E+03  0.40000000000E+03 0. -1.
   -9000007    1    1    2    0  501  0.25194443479E+02  0.27889904845E+02 -0.89638290561E+03  0.98230082981E+03  0.40000000000E+03 0. -1.
<mgrwt>
<rscale>  2 0.40176188E+03</rscale>
<asrwt>0</asrwt>
<pdfrwt beam="1">  1        1 0.29017878E+00 0.40176188E+03</pdfrwt>
<pdfrwt beam="2">  1       -1 0.13165941E-01 0.40176188E+03</pdfrwt>
<totfact> 0.15486224E+02</totfact>
</mgrwt>
</event>
<event>
 4    1  0.2247963E-002  0.5487979E+03  0.7818608E-02  0.1001773E+00
         -2   -1    0    0    0  501 -0.00000000000E+00  0.00000000000E+00  0.14631139277E+03  0.14631139277E+03  0.00000000000E+00 0. -1.
          2   -1    0    0  502    0  0.00000000000E+00 -0.00000000000E+00 -0.20998257478E+04  0.20998257478E+04  0.00000000000E+00 0.  1.
    9000007    1    1    2  502    0 -0.78137412858E+02 -0.36752378557E+03 -0.81916812890E+03  0.98600994501E+03  0.40000000000E+03 0.  1.
   -9000007    1    1    2    0  501  0.78137412858E+02  0.36752378557E+03 -0.11343462261E+04  0.12601271956E+04  0.40000000000E+03 0.  1.
<mgrwt>
<rscale>  2 0.54879795E+03</rscale>
<asrwt>0</asrwt>
<pdfrwt beam="1">  1        2 0.32305010E+00 0.54879795E+03</pdfrwt>
<pdfrwt beam="2">  1       -2 0.22509446E-01 0.54879795E+03</pdfrwt>
<totfact> 0.10725384E+02</totfact>
</mgrwt>
</event>
<event>
 4    1  0.2247963E-002  0.9241142E+03  0.7818608E-02  0.9395930E-01
         -2   -1    0    0    0  501 -0.00000000000E+00  0.00000000000E+00  0.43541773938E+03  0.43541773938E+03  0.00000000000E+00 0.  1.
          2   -1    0    0  502    0  0.00000000000E+00 -0.00000000000E+00 -0.19630497070E+04  0.19630497070E+04  0.00000000000E+00 0. -1.
    9000007    1    1    2  502    0  0.41607353423E+03  0.72171317023E+03 -0.72806633226E+03  0.11764640539E+04  0.40000000000E+03 0. -1.
   -9000007    1    1    2    0  501 -0.41607353423E+03 -0.72171317023E+03 -0.79956563540E+03  0.12220033925E+04  0.40000000000E+03 0.  1.
<mgrwt>
<rscale>  2 0.92411422E+03</rscale>
<asrwt>0</asrwt>
<pdfrwt beam="1">  1        2 0.30200764E+00 0.92411422E+03</pdfrwt>
<pdfrwt beam="2">  1       -2 0.66987345E-01 0.92411422E+03</pdfrwt>
<totfact> 0.14489796E+01</totfact>
</mgrwt>
</event>
<event>
 4    1  0.2247963E-002  0.7135745E+03  0.7818608E-02  0.9694295E-01
         -1   -1    0    0    0  501 -0.00000000000E+00  0.00000000000E+00  0.35227010621E+03  0.35227010621E+03  0.00000000000E+00 0.  1.
          1   -1    0    0  502    0  0.00000000000E+00 -0.00000000000E+00 -0.16570851455E+04  0.16570851455E+04  0.00000000000E+00 0. -1.
    9000007    1    1    2  502    0  0.49621376922E+03 -0.32087457982E+03 -0.10114525065E+04  0.12378306725E+04  0.40000000000E+03 0. -1.
   -9000007    1    1    2    0  501 -0.49621376922E+03  0.32087457982E+03 -0.29336253276E+03  0.77152457924E+03  0.40000000000E+03 0.  1.
<mgrwt>
<rscale>  2 0.71357452E+03</rscale>
<asrwt>0</asrwt>
<pdfrwt beam="1">  1        1 0.25493617E+00 0.71357452E+03</pdfrwt>
<pdfrwt beam="2">  1       -1 0.54195402E-01 0.71357452E+03</pdfrwt>
<totfact> 0.18274922E+01</totfact>
</mgrwt>
</event>
<event>
 4    1  0.2247963E-002  0.6210635E+03  0.7818608E-02  0.9862644E-01
         -2   -1    0    0    0  501 -0.00000000000E+00  0.00000000000E+00  0.33742727355E+03  0.33742727355E+03  0.00000000000E+00 0.  1.
          2   -1    0    0  502    0  0.00000000000E+00 -0.00000000000E+00 -0.11711112040E+04  0.11711112040E+04  0.00000000000E+00 0. -1.
    9000007    1    1    2  502    0  0.12156624307E+03 -0.45928375731E+03 -0.30023168871E+03  0.68982533158E+03  0.40000000000E+03 0.  1.
   -9000007    1    1    2    0  501 -0.12156624307E+03  0.45928375731E+03 -0.53345224173E+03  0.81871314597E+03  0.40000000000E+03 0. -1.
<mgrwt>
<rscale>  2 0.62106354E+03</rscale>
<asrwt>0</asrwt>
<pdfrwt beam="1">  1        2 0.18017095E+00 0.62106354E+03</pdfrwt>
<pdfrwt beam="2">  1       -2 0.51911889E-01 0.62106354E+03</pdfrwt>
<totfact> 0.71069700E+01</totfact>
</mgrwt>
</event>
<event>
 4    1  0.2247963E-002  0.5449288E+03  0.7818608E-02  0.1002675E+00
         -1   -1    0    0    0  501 -0.00000000000E+00  0.00000000000E+00  0.20151800268E+04  0.20151800268E+04  0.00000000000E+00 0.  1.
          1   -1    0    0  502    0  0.00000000000E+00 -0.00000000000E+00 -0.15528037505E+03  0.15528037505E+03  0.00000000000E+00 0. -1.
    9000007    1    1    2  502    0 -0.27621618286E+03  0.24627625247E+03  0.68478032890E+03  0.87514082927E+03  0.40000000000E+03 0.  1.
   -9000007    1    1    2    0  501  0.27621618286E+03 -0.24627625247E+03  0.11751193229E+04  0.12953195726E+04  0.40000000000E+03 0.  1.
<mgrwt>
<rscale>  2 0.54492878E+03</rscale>
<asrwt>0</asrwt>
<pdfrwt beam="1">  1        1 0.23889290E-01 0.54492878E+03</pdfrwt>
<pdfrwt beam="2">  1       -1 0.31002768E+00 0.54492878E+03</pdfrwt>
<totfact> 0.63601088E+00</totfact>
</mgrwt>
</event>
<event>
 4    1  0.2247963E-002  0.4370308E+03  0.7818608E-02  0.1031662E+00
          1   -1    0    0  502    0  0.00000000000E+00  0.00000000000E+00  0.71424813047E+03  0.71424813047E+03  0.00000000000E+00 0.  1.
         -1   -1    0    0    0  501 -0.00000000000E+00 -0.00000000000E+00 -0.30333425716E+03  0.30333425716E+03  0.00000000000E+00 0. -1.
    9000007    1    1    2  502    0 -0.16089634707E+03  0.71472098867E+02  0.30358251407E+02  0.43808391758E+03  0.40000000000E+03 0. -1.
   -9000007    1    1    2    0  501  0.16089634707E+03 -0.71472098867E+02  0.38055562191E+03  0.57949847005E+03  0.40000000000E+03 0.  1.
<mgrwt>
<rscale>  2 0.43703077E+03</rscale>
<asrwt>0</asrwt>
<pdfrwt beam="1">  1        1 0.10988433E+00 0.43703077E+03</pdfrwt>
<pdfrwt beam="2">  1       -1 0.46666809E-01 0.43703077E+03</pdfrwt>
<totfact> 0.12627869E+02</totfact>
</mgrwt>
</event>
<event>
 4    1  0.2247963E-002  0.5117490E+03  0.7818608E-02  0.1010757E+00
         -2   -1    0    0    0  501 -0.00000000000E+00  0.00000000000E+00  0.52856944781E+03  0.52856944781E+03  0.00000000000E+00 0.  1.
          2   -1    0    0  502    0  0.00000000000E+00 -0.00000000000E+00 -0.49770398773E+03  0.49770398773E+03  0.00000000000E+00 0. -1.
    9000007    1    1    2  502    0 -0.11784168347E+03 -0.29664861846E+03  0.49858428983E+02  0.51417208028E+03  0.40000000000E+03 0.  1.
   -9000007    1    1    2    0  501  0.11784168347E+03  0.29664861846E+03 -0.18992968907E+02  0.51210135526E+03  0.40000000000E+03 0. -1.
<mgrwt>
<rscale>  2 0.51174903E+03</rscale>
<asrwt>0</asrwt>
<pdfrwt beam="1">  1        2 0.76569844E-01 0.51174903E+03</pdfrwt>
<pdfrwt beam="2">  1       -2 0.81318377E-01 0.51174903E+03</pdfrwt>
<totfact> 0.84754972E+01</totfact>
</mgrwt>
</event>
<event>
 4    1  0.2247963E-002  0.4458746E+03  0.7818608E-02  0.1028959E+00
         -1   -1    0    0    0  501 -0.00000000000E+00  0.00000000000E+00  0.16697354219E+03  0.16697354219E+03  0.00000000000E+00 0.  1.
          1   -1    0    0  502    0  0.00000000000E+00 -0.00000000000E+00 -0.12025997658E+04  0.12025997658E+04  0.00000000000E+00 0. -1.
    9000007    1    1    2  502    0  0.19513209950E+03  0.26975148574E+02 -0.44950304518E+03  0.63313283165E+03  0.40000000000E+03 0.  1.
   -9000007    1    1    2    0  501 -0.19513209950E+03 -0.26975148574E+02 -0.58612317840E+03  0.73644047631E+03  0.40000000000E+03 0. -1.
<mgrwt>
<rscale>  2 0.44587464E+03</rscale>
<asrwt>0</asrwt>
<pdfrwt beam="1">  1        1 0.18501535E+00 0.44587464E+03</pdfrwt>
<pdfrwt beam="2">  1       -1 0.25688238E-01 0.44587464E+03</pdfrwt>
<totfact> 0.14898140E+02</totfact>
</mgrwt>
</event>
<event>
 4    1  0.2247963E-002  0.4252372E+03  0.7818608E-02  0.1035375E+00
         -1   -1    0    0    0  501 -0.00000000000E+00  0.00000000000E+00  0.37564001828E+03  0.37564001828E+03  0.00000000000E+00 0.  1.
          1   -1    0    0  502    0  0.00000000000E+00 -0.00000000000E+00 -0.68155073440E+03  0.68155073440E+03  0.00000000000E+00 0. -1.
    9000007    1    1    2  502    0  0.11659618527E+03  0.85040955070E+02  0.13350962730E+03  0.44570332626E+03  0.40000000000E+03 0.  1.
   -9000007    1    1    2    0  501 -0.11659618527E+03 -0.85040955070E+02 -0.43942034342E+03  0.61148742642E+03  0.40000000000E+03 0. -1.
<mgrwt>
<rscale>  2 0.42523715E+03</rscale>
<asrwt>0</asrwt>
<pdfrwt beam="1">  1        1 0.10485396E+00 0.42523715E+03</pdfrwt>
<pdfrwt beam="2">  1       -1 0.57790772E-01 0.42523715E+03</pdfrwt>
<totfact> 0.90534550E+01</totfact>
</mgrwt>
</event>
<event>
 4    1  0.2247963E-002  0.6401241E+03  0.7818608E-02  0.9825489E-01
          1   -1    0    0  502    0  0.00000000000E+00  0.00000000000E+00  0.40010854177E+04  0.40010854177E+04  0.00000000000E+00 0.  1.
         -1   -1    0    0    0  501 -0.00000000000E+00 -0.00000000000E+00 -0.13462682177E+03  0.13462682177E+03  0.00000000000E+00 0. -1.
    9000007    1    1    2  502    0 -0.47681010156E+03  0.14970285643E+03  0.92168952663E+03  0.11221721800E+04  0.40000000000E+03 0.  1.
   -9000007    1    1    2    0  501  0.47681010156E+03 -0.14970285643E+03  0.29447690693E+04  0.30135400594E+04  0.40000000000E+03 0. -1.
<mgrwt>
<rscale>  2 0.64012406E+03</rscale>
<asrwt>0</asrwt>
<pdfrwt beam="1">  1        1 0.61555151E+00 0.64012406E+03</pdfrwt>
<pdfrwt beam="2">  1       -1 0.20711822E-01 0.64012406E+03</pdfrwt>
<totfact> 0.20825149E+00</totfact>
</mgrwt>
</event>
<event>
 4    1  0.2247963E-002  0.5873226E+03  0.7818608E-02  0.9932062E-01
          1   -1    0    0  502    0  0.00000000000E+00  0.00000000000E+00  0.21506583630E+04  0.21506583630E+04  0.00000000000E+00 0.  1.
         -1   -1    0    0    0  501 -0.00000000000E+00 -0.00000000000E+00 -0.16091404412E+03  0.16091404412E+03  0.00000000000E+00 0. -1.
    9000007    1    1    2  502    0 -0.35769187947E+03 -0.23875579706E+03  0.10607208628E+04  0.12124671377E+04  0.40000000000E+03 0.  1.
   -9000007    1    1    2    0  501  0.35769187947E+03  0.23875579706E+03  0.92902345608E+03  0.10991052694E+04  0.40000000000E+03 0. -1.
<mgrwt>
<rscale>  2 0.58732258E+03</rscale>
<asrwt>0</asrwt>
<pdfrwt beam="1">  1        1 0.33087050E+00 0.58732258E+03</pdfrwt>
<pdfrwt beam="2">  1       -1 0.24756008E-01 0.58732258E+03</pdfrwt>
<totfact> 0.35643991E+01</totfact>
</mgrwt>
</event>
<event>
 4    1  0.2247963E-002  0.4735550E+03  0.7818608E-02  0.1020922E+00
         -2   -1    0    0    0  501 -0.00000000000E+00  0.00000000000E+00  0.18830812929E+03  0.18830812929E+03  0.00000000000E+00 0. -1.
          2   -1    0    0  502    0  0.00000000000E+00 -0.00000000000E+00 -0.12272935325E+04  0.12272935325E+04  0.00000000000E+00 0.  1.
    9000007    1    1    2  502    0 -0.23887898513E+03  0.84800533303E+02 -0.64139379451E+03  0.79727053101E+03  0.40000000000E+03 0. -1.
   -9000007    1    1    2    0  501  0.23887898513E+03 -0.84800533303E+02 -0.39759160871E+03  0.61833113079E+03  0.40000000000E+03 0. -1.
<mgrwt>
<rscale>  2 0.47355496E+03</rscale>
<asrwt>0</asrwt>
<pdfrwt beam="1">  1        2 0.18881439E+00 0.47355496E+03</pdfrwt>
<pdfrwt beam="2">  1       -2 0.28970481E-01 0.47355496E+03</pdfrwt>
<totfact> 0.20653335E+02</totfact>
</mgrwt>
</event>
<event>
 4    1  0.2247963E-002  0.4621502E+03  0.7818608E-02  0.1024159E+00
          1   -1    0    0  502    0  0.00000000000E+00  0.00000000000E+00  0.16194640809E+03  0.16194640809E+03  0.00000000000E+00 0. -1.
         -1   -1    0    0    0  501 -0.00000000000E+00 -0.00000000000E+00 -0.13189878181E+04  0.13189878181E+04  0.00000000000E+00 0.  1.
    9000007    1    1    2  502    0 -0.11908368657E+03  0.19849914267E+03 -0.58612122406E+03  0.74640533448E+03  0.40000000000E+03 0.  1.
   -9000007    1    1    2    0  501  0.11908368657E+03 -0.19849914267E+03 -0.57092018596E+03  0.73452889173E+03  0.40000000000E+03 0. -1.
<mgrwt>
<rscale>  2 0.46215023E+03</rscale>
<asrwt>0</asrwt>
<pdfrwt beam="1">  1        1 0.24914831E-01 0.46215023E+03</pdfrwt>
<pdfrwt beam="2">  1       -1 0.20292121E+00 0.46215023E+03</pdfrwt>
<totfact> 0.29831068E+01</totfact>
</mgrwt>
</event>
<event>
 4    1  0.2247963E-002  0.5220131E+03  0.7818608E-02  0.1008188E+00
         -2   -1    0    0    0  501 -0.00000000000E+00  0.00000000000E+00  0.10856477887E+04  0.10856477887E+04  0.00000000000E+00 0.  1.
          2   -1    0    0  502    0  0.00000000000E+00 -0.00000000000E+00 -0.25100175319E+03  0.25100175319E+03  0.00000000000E+00 0. -1.
    9000007    1    1    2  502    0  0.33225262070E+03  0.45890106774E+02  0.41903709234E+03  0.66939509306E+03  0.40000000000E+03 0. -1.
   -9000007    1    1    2    0  501 -0.33225262070E+03 -0.45890106774E+02  0.41560894321E+03  0.66725444887E+03  0.40000000000E+03 0. -1.
<mgrwt>
<rscale>  2 0.52201313E+03</rscale>
<asrwt>0</asrwt>
<pdfrwt beam="1">  1        2 0.38615655E-01 0.52201313E+03</pdfrwt>
<pdfrwt beam="2">  1       -2 0.16702273E+00 0.52201313E+03</pdfrwt>
<totfact> 0.30941104E+01</totfact>
</mgrwt>
</event>
<event>
 4    1  0.2247963E-002  0.4193978E+03  0.7818608E-02  0.1037262E+00
          4   -1    0    0  502    0  0.00000000000E+00  0.00000000000E+00  0.89712091054E+02  0.89712091054E+02  0.00000000000E+00 0. -1.
         -4   -1    0    0    0  501 -0.00000000000E+00 -0.00000000000E+00 -0.32146490531E+04  0.32146490531E+04  0.00000000000E+00 0.  1.
    9000007    1    1    2  502    0  0.12330401185E+03  0.26280522983E+02 -0.25943701171E+04  0.26280507700E+04  0.40000000000E+03 0.  1.
   -9000007    1    1    2    0  501 -0.12330401185E+03 -0.26280522983E+02 -0.53056684495E+03  0.67631037415E+03  0.40000000000E+03 0. -1.
<mgrwt>
<rscale>  2 0.41939784E+03</rscale>
<asrwt>0</asrwt>
<pdfrwt beam="1">  1        4 0.13801861E-01 0.41939784E+03</pdfrwt>
<pdfrwt beam="2">  1       -4 0.49456138E+00 0.41939784E+03</pdfrwt>
<totfact> 0.13601638E-01</totfact>
</mgrwt>
</event>
<event>
 4    1  0.2247963E-002  0.4127905E+03  0.7818608E-02  0.1039439E+00
          1   -1    0    0  502    0  0.00000000000E+00  0.00000000000E+00  0.15350145508E+04  0.15350145508E+04  0.00000000000E+00 0.  1.
         -1   -1    0    0    0  501 -0.00000000000E+00 -0.00000000000E+00 -0.16458742259E+03  0.16458742259E+03  0.00000000000E+00 0. -1.
    9000007    1    1    2  502    0  0.36498478691E+02  0.95204479142E+02  0.11700837531E+04  0.12407626772E+04  0.40000000000E+03 0.  1.
   -9000007    1    1    2    0  501 -0.36498478691E+02 -0.95204479142E+02  0.20034337509E+03  0.45883929620E+03  0.40000000000E+03 0. -1.
<mgrwt>
<rscale>  2 0.41279054E+03</rscale>
<asrwt>0</asrwt>
<pdfrwt beam="1">  1        1 0.23615608E+00 0.41279054E+03</pdfrwt>
<pdfrwt beam="2">  1       -1 0.25321143E-01 0.41279054E+03</pdfrwt>
<totfact> 0.90598158E+01</totfact>
</mgrwt>
</event>
<event>
 4    1  0.2247963E-002  0.4014359E+03  0.7818608E-02  0.1043284E+00
         -2   -1    0    0    0  501 -0.00000000000E+00  0.00000000000E+00  0.65402911552E+02  0.65402911552E+02  0.00000000000E+00 0.  1.
          2   -1    0    0  502    0  0.00000000000E+00 -0.00000000000E+00 -0.24700403447E+04  0.24700403447E+04  0.00000000000E+00 0. -1.
    9000007    1    1    2  502    0  0.15037840919E+02  0.30408163651E+02 -0.12651663446E+04  0.13273268899E+04  0.40000000000E+03 0. -1.
   -9000007    1    1    2    0  501 -0.15037840919E+02 -0.30408163651E+02 -0.11394710886E+04  0.12081163664E+04  0.40000000000E+03 0.  1.
<mgrwt>
<rscale>  2 0.40143591E+03</rscale>
<asrwt>0</asrwt>
<pdfrwt beam="1">  1        2 0.38000613E+00 0.40143591E+03</pdfrwt>
<pdfrwt beam="2">  1       -2 0.10061988E-01 0.40143591E+03</pdfrwt>
<totfact> 0.26680486E+02</totfact>
</mgrwt>
</event>
<event>
 4    1  0.2247963E-002  0.4056687E+03  0.7818608E-02  0.1041834E+00
          1   -1    0    0  502    0  0.00000000000E+00  0.00000000000E+00  0.43705995760E+03  0.43705995760E+03  0.00000000000E+00 0. -1.
         -1   -1    0    0    0  501 -0.00000000000E+00 -0.00000000000E+00 -0.47717070056E+03  0.47717070056E+03  0.00000000000E+00 0.  1.
    9000007    1    1    2  502    0  0.64448159128E+02  0.20334559950E+02 -0.22998387654E+03  0.46632568342E+03  0.40000000000E+03 0.  1.
   -9000007    1    1    2    0  501 -0.64448159128E+02 -0.20334559950E+02  0.18987313358E+03  0.44790497474E+03  0.40000000000E+03 0. -1.
<mgrwt>
<rscale>  2 0.40566866E+03</rscale>
<asrwt>0</asrwt>
<pdfrwt beam="1">  1        1 0.67239994E-01 0.40566866E+03</pdfrwt>
<pdfrwt beam="2">  1       -1 0.73410877E-01 0.40566866E+03</pdfrwt>
<totfact> 0.10435833E+02</totfact>
</mgrwt>
</event>
<event>
 4    1  0.2247963E-002  0.4005256E+03  0.7818608E-02  0.1043598E+00
          2   -1    0    0  502    0  0.00000000000E+00  0.00000000000E+00  0.11625140311E+04  0.11625140311E+04  0.00000000000E+00 0.  1.
         -2   -1    0    0    0  501 -0.00000000000E+00 -0.00000000000E+00 -0.15116644865E+03  0.15116644865E+03  0.00000000000E+00 0. -1.
    9000007    1    1    2  502    0 -0.18101309398E+02  0.96493310010E+01  0.31178447624E+03  0.50757297664E+03  0.40000000000E+03 0. -1.
   -9000007    1    1    2    0  501  0.18101309398E+02 -0.96493310010E+01  0.69956310622E+03  0.80610750311E+03  0.40000000000E+03 0.  1.
<mgrwt>
<rscale>  2 0.40052561E+03</rscale>
<asrwt>0</asrwt>
<pdfrwt beam="1">  1        2 0.17884831E+00 0.40052561E+03</pdfrwt>
<pdfrwt beam="2">  1       -2 0.23256378E-01 0.40052561E+03</pdfrwt>
<totfact> 0.33679700E+02</totfact>
</mgrwt>
</event>
<event>
 4    1  0.2247963E-002  0.6166555E+03  0.7818608E-02  0.9871441E-01
         -2   -1    0    0    0  501 -0.00000000000E+00  0.00000000000E+00  0.28737795363E+03  0.28737795363E+03  0.00000000000E+00 0.  1.
          2   -1    0    0  502    0  0.00000000000E+00 -0.00000000000E+00 -0.14113920210E+04  0.14113920210E+04  0.00000000000E+00 0. -1.
    9000007    1    1    2  502    0  0.42807173258E+03  0.19240232469E+03 -0.77430596282E+03  0.98985543735E+03  0.40000000000E+03 0.  1.
   -9000007    1    1    2    0  501 -0.42807173258E+03 -0.19240232469E+03 -0.34970810455E+03  0.70891453728E+03  0.40000000000E+03 0. -1.
<mgrwt>
<rscale>  2 0.61665555E+03</rscale>
<asrwt>0</asrwt>
<pdfrwt beam="1">  1        2 0.21713723E+00 0.61665555E+03</pdfrwt>
<pdfrwt beam="2">  1       -2 0.44211994E-01 0.61665555E+03</pdfrwt>
<totfact> 0.71463439E+01</totfact>
</mgrwt>
</event>
<event>
 4    1  0.2247963E-002  0.4329584E+03  0.7818608E-02  0.1032929E+00
         -1   -1    0    0    0  501 -0.00000000000E+00  0.00000000000E+00  0.54126452220E+03  0.54126452220E+03  0.00000000000E+00 0.  1.
          1   -1    0    0  502    0  0.00000000000E+00 -0.00000000000E+00 -0.37364639773E+03  0.37364639773E+03  0.00000000000E+00 0. -1.
    9000007    1    1    2  502    0  0.30205723898E+02 -0.16291272612E+03 -0.39893051263E+02  0.43479236151E+03  0.40000000000E+03 0. -1.
   -9000007    1    1    2    0  501 -0.30205723898E+02  0.16291272612E+03  0.20751117574E+03  0.48011855842E+03  0.40000000000E+03 0.  1.
<mgrwt>
<rscale>  2 0.43295836E+03</rscale>
<asrwt>0</asrwt>
<pdfrwt beam="1">  1        1 0.57484061E-01 0.43295836E+03</pdfrwt>
<pdfrwt beam="2">  1       -1 0.83271465E-01 0.43295836E+03</pdfrwt>
<totfact> 0.98193240E+01</totfact>
</mgrwt>
</event>
<event>
 4    1  0.2247963E-002  0.7022711E+03  0.7818608E-02  0.9713356E-01
         -1   -1    0    0    0  501 -0.00000000000E+00  0.00000000000E+00  0.21916234597E+03  0.21916234597E+03  0.00000000000E+00 0.  1.
          1   -1    0    0  502    0  0.00000000000E+00 -0.00000000000E+00 -0.22627369045E+04  0.22627369045E+04  0.00000000000E+00 0. -1.
    9000007    1    1    2  502    0 -0.39369539571E+03  0.42212397771E+03 -0.11137261361E+04  0.13166512915E+04  0.40000000000E+03 0. -1.
   -9000007    1    1    2    0  501  0.39369539571E+03 -0.42212397771E+03 -0.92984842237E+03  0.11652479589E+04  0.40000000000E+03 0.  1.
<mgrwt>
<rscale>  2 0.70227111E+03</rscale>
<asrwt>0</asrwt>
<pdfrwt beam="1">  1        1 0.34811336E+00 0.70227111E+03</pdfrwt>
<pdfrwt beam="2">  1       -1 0.33717285E-01 0.70227111E+03</pdfrwt>
<totfact> 0.17246446E+01</totfact>
</mgrwt>
</event>
<event>
 4    1  0.2247963E-002  0.4347909E+03  0.7818608E-02  0.1032357E+00
          2   -1    0    0  502    0  0.00000000000E+00  0.00000000000E+00  0.12800906599E+04  0.12800906599E+04  0.00000000000E+00 0.  1.
         -2   -1    0    0    0  501 -0.00000000000E+00 -0.00000000000E+00 -0.15610367112E+03  0.15610367112E+03  0.00000000000E+00 0. -1.
    9000007    1    1    2  502    0 -0.15448387568E+03 -0.71957082340E+02  0.39517606158E+03  0.58754336792E+03  0.40000000000E+03 0. -1.
   -9000007    1    1    2    0  501  0.15448387568E+03  0.71957082340E+02  0.72881092719E+03  0.84865096307E+03  0.40000000000E+03 0.  1.
<mgrwt>
<rscale>  2 0.43479086E+03</rscale>
<asrwt>0</asrwt>
<pdfrwt beam="1">  1        2 0.19693702E+00 0.43479086E+03</pdfrwt>
<pdfrwt beam="2">  1       -2 0.24015950E-01 0.43479086E+03</pdfrwt>
<totfact> 0.27126725E+02</totfact>
</mgrwt>
</event>
<event>
 4    1  0.2247963E-002  0.4400255E+03  0.7818608E-02  0.1030739E+00
          2   -1    0    0  502    0  0.00000000000E+00  0.00000000000E+00  0.89112309726E+03  0.89112309726E+03  0.00000000000E+00 0.  1.
         -2   -1    0    0    0  501 -0.00000000000E+00 -0.00000000000E+00 -0.22933375046E+03  0.22933375046E+03  0.00000000000E+00 0. -1.
    9000007    1    1    2  502    0 -0.14242588440E+03  0.11548735141E+03  0.45933687158E+03  0.63609183494E+03  0.40000000000E+03 0.  1.
   -9000007    1    1    2    0  501  0.14242588440E+03 -0.11548735141E+03  0.20245247522E+03  0.48436501278E+03  0.40000000000E+03 0.  1.
<mgrwt>
<rscale>  2 0.44002552E+03</rscale>
<asrwt>0</asrwt>
<pdfrwt beam="1">  1        2 0.13709586E+00 0.44002552E+03</pdfrwt>
<pdfrwt beam="2">  1       -2 0.35282116E-01 0.44002552E+03</pdfrwt>
<totfact> 0.23100627E+02</totfact>
</mgrwt>
</event>
<event>
 4    1  0.2247963E-002  0.4128410E+03  0.7818608E-02  0.1039422E+00
         -2   -1    0    0    0  501 -0.00000000000E+00  0.00000000000E+00  0.98123842221E+02  0.98123842221E+02  0.00000000000E+00 0.  1.
          2   -1    0    0  502    0  0.00000000000E+00 -0.00000000000E+00 -0.18116272703E+04  0.18116272703E+04  0.00000000000E+00 0. -1.
    9000007    1    1    2  502    0 -0.23519238067E+02 -0.99421074212E+02 -0.66290332000E+03  0.78094719170E+03  0.40000000000E+03 0.  1.
   -9000007    1    1    2    0  501  0.23519238067E+02  0.99421074212E+02 -0.10506001080E+04  0.11288039208E+04  0.40000000000E+03 0. -1.
<mgrwt>
<rscale>  2 0.41284102E+03</rscale>
<asrwt>0</asrwt>
<pdfrwt beam="1">  1        2 0.27871190E+00 0.41284102E+03</pdfrwt>
<pdfrwt beam="2">  1       -2 0.15095975E-01 0.41284102E+03</pdfrwt>
<totfact> 0.31039018E+02</totfact>
</mgrwt>
</event>
<event>
 4    1  0.2247963E-002  0.4938256E+03  0.7818608E-02  0.1015403E+00
         -1   -1    0    0    0  501 -0.00000000000E+00  0.00000000000E+00  0.20131109649E+03  0.20131109649E+03  0.00000000000E+00 0.  1.
          1   -1    0    0  502    0  0.00000000000E+00 -0.00000000000E+00 -0.12660818863E+04  0.12660818863E+04  0.00000000000E+00 0. -1.
    9000007    1    1    2  502    0  0.23267054167E+03 -0.17241842260E+03 -0.37987571967E+03  0.62303230720E+03  0.40000000000E+03 0. -1.
   -9000007    1    1    2    0  501 -0.23267054167E+03  0.17241842260E+03 -0.68489507016E+03  0.84436067563E+03  0.40000000000E+03 0. -1.
<mgrwt>
<rscale>  2 0.49382557E+03</rscale>
<asrwt>0</asrwt>
<pdfrwt beam="1">  1        1 0.19478183E+00 0.49382557E+03</pdfrwt>
<pdfrwt beam="2">  1       -1 0.30970937E-01 0.49382557E+03</pdfrwt>
<totfact> 0.96876217E+01</totfact>
</mgrwt>
</event>
<event>
 4    1  0.2247963E-002  0.4564560E+03  0.7818608E-02  0.1025814E+00
         -1   -1    0    0    0  501 -0.00000000000E+00  0.00000000000E+00  0.38486559737E+03  0.38486559737E+03  0.00000000000E+00 0. -1.
          1   -1    0    0  502    0  0.00000000000E+00 -0.00000000000E+00 -0.10479884744E+04  0.10479884744E+04  0.00000000000E+00 0.  1.
    9000007    1    1    2  502    0  0.21981143442E+03  0.59207905248E+01 -0.82968499749E+03  0.94695792807E+03  0.40000000000E+03 0.  1.
   -9000007    1    1    2    0  501 -0.21981143442E+03 -0.59207905248E+01  0.16656212048E+03  0.48589614368E+03  0.40000000000E+03 0. -1.
<mgrwt>
<rscale>  2 0.45645605E+03</rscale>
<asrwt>0</asrwt>
<pdfrwt beam="1">  1        1 0.16122900E+00 0.45645605E+03</pdfrwt>
<pdfrwt beam="2">  1       -1 0.59210092E-01 0.45645605E+03</pdfrwt>
<totfact> 0.42823203E+01</totfact>
</mgrwt>
</event>
<event>
 4    1  0.2247963E-002  0.4231859E+03  0.7818608E-02  0.1036034E+00
         -2   -1    0    0    0  501 -0.00000000000E+00  0.00000000000E+00  0.22153630297E+03  0.22153630297E+03  0.00000000000E+00 0. -1.
          2   -1    0    0  502    0  0.00000000000E+00 -0.00000000000E+00 -0.81123807977E+03  0.81123807977E+03  0.00000000000E+00 0.  1.
    9000007    1    1    2  502    0  0.13506318066E+03 -0.29056372435E+02 -0.26422015286E+03  0.49889740902E+03  0.40000000000E+03 0.  1.
   -9000007    1    1    2    0  501 -0.13506318066E+03  0.29056372435E+02 -0.32548162394E+03  0.53387697372E+03  0.40000000000E+03 0. -1.
<mgrwt>
<rscale>  2 0.42318593E+03</rscale>
<asrwt>0</asrwt>
<pdfrwt beam="1">  1        2 0.12480586E+00 0.42318593E+03</pdfrwt>
<pdfrwt beam="2">  1       -2 0.34082508E-01 0.42318593E+03</pdfrwt>
<totfact> 0.27985953E+02</totfact>
</mgrwt>
</event>
<event>
 4    1  0.2247963E-002  0.9596503E+03  0.7818608E-02  0.9353941E-01
         -2   -1    0    0    0  501 -0.00000000000E+00  0.00000000000E+00  0.26340506272E+03  0.26340506272E+03  0.00000000000E+00 0. -1.
          2   -1    0    0  502    0  0.00000000000E+00 -0.00000000000E+00 -0.35706857829E+04  0.35706857829E+04  0.00000000000E+00 0.  1.
    9000007    1    1    2  502    0 -0.53463464100E+03 -0.68927097642E+03 -0.13768432472E+04  0.16782806695E+04  0.40000000000E+03 0. -1.
   -9000007    1    1    2    0  501  0.53463464100E+03  0.68927097642E+03 -0.19304374730E+04  0.21558101761E+04  0.40000000000E+03 0.  1.
<mgrwt>
<rscale>  2 0.95965029E+03</rscale>
<asrwt>0</asrwt>
<pdfrwt beam="1">  1        2 0.54933623E+00 0.95965029E+03</pdfrwt>
<pdfrwt beam="2">  1       -2 0.40523859E-01 0.95965029E+03</pdfrwt>
<totfact> 0.43696305E+00</totfact>
</mgrwt>
</event>
<event>
 4    1  0.2247963E-002  0.4780167E+03  0.7818608E-02  0.1019682E+00
         -2   -1    0    0    0  501 -0.00000000000E+00  0.00000000000E+00  0.15638867773E+03  0.15638867773E+03  0.00000000000E+00 0. -1.
          2   -1    0    0  502    0  0.00000000000E+00 -0.00000000000E+00 -0.25206728183E+04  0.25206728183E+04  0.00000000000E+00 0.  1.
    9000007    1    1    2  502    0 -0.19173733404E+03  0.17814819641E+03 -0.31431163384E+03  0.57209421280E+03  0.40000000000E+03 0. -1.
   -9000007    1    1    2    0  501  0.19173733404E+03 -0.17814819641E+03 -0.20499725067E+04  0.21049672832E+04  0.40000000000E+03 0. -1.
<mgrwt>
<rscale>  2 0.47801672E+03</rscale>
<asrwt>0</asrwt>
<pdfrwt beam="1">  1        2 0.38779583E+00 0.47801672E+03</pdfrwt>
<pdfrwt beam="2">  1       -2 0.24059796E-01 0.47801672E+03</pdfrwt>
<totfact> 0.56632539E+01</totfact>
</mgrwt>
</event>
<event>
 4    1  0.2247963E-002  0.4384505E+03  0.7818608E-02  0.1031223E+00
          2   -1    0    0  502    0  0.00000000000E+00  0.00000000000E+00  0.18756647238E+03  0.18756647238E+03  0.00000000000E+00 0.  1.
         -2   -1    0    0    0  501 -0.00000000000E+00 -0.00000000000E+00 -0.10726974801E+04  0.10726974801E+04  0.00000000000E+00 0. -1.
    9000007    1    1    2  502    0  0.10159728169E+03  0.14804344272E+03 -0.30956687658E+03  0.53672201338E+03  0.40000000000E+03 0. -1.
   -9000007    1    1    2    0  501 -0.10159728169E+03 -0.14804344272E+03 -0.57556413114E+03  0.72354193910E+03  0.40000000000E+03 0. -1.
<mgrwt>
<rscale>  2 0.43845053E+03</rscale>
<asrwt>0</asrwt>
<pdfrwt beam="1">  1        2 0.28856381E-01 0.43845053E+03</pdfrwt>
<pdfrwt beam="2">  1       -2 0.16503038E+00 0.43845053E+03</pdfrwt>
<totfact> 0.44568663E+01</totfact>
</mgrwt>
</event>
<event>
 4    1  0.2247963E-002  0.5169543E+03  0.7818608E-02  0.1009446E+00
          2   -1    0    0  502    0  0.00000000000E+00  0.00000000000E+00  0.60602404390E+03  0.60602404390E+03  0.00000000000E+00 0. -1.
         -2   -1    0    0    0  501 -0.00000000000E+00 -0.00000000000E+00 -0.49251695711E+03  0.49251695711E+03  0.00000000000E+00 0.  1.
    9000007    1    1    2  502    0 -0.32678670003E+03  0.21265662745E+02 -0.12093273394E+03  0.53091101125E+03  0.40000000000E+03 0.  1.
   -9000007    1    1    2    0  501  0.32678670003E+03 -0.21265662745E+02  0.23443982073E+03  0.56762998976E+03  0.40000000000E+03 0. -1.
<mgrwt>
<rscale>  2 0.51695433E+03</rscale>
<asrwt>0</asrwt>
<pdfrwt beam="1">  1        2 0.93234469E-01 0.51695433E+03</pdfrwt>
<pdfrwt beam="2">  1       -2 0.75771839E-01 0.51695433E+03</pdfrwt>
<totfact> 0.78743471E+01</totfact>
</mgrwt>
</event>
<event>
 4    1  0.2247963E-002  0.4004273E+03  0.7818608E-02  0.1043632E+00
         -2   -1    0    0    0  501 -0.00000000000E+00  0.00000000000E+00  0.42029539680E+02  0.42029539680E+02  0.00000000000E+00 0. -1.
          2   -1    0    0  502    0  0.00000000000E+00 -0.00000000000E+00 -0.39495948471E+04  0.39495948471E+04  0.00000000000E+00 0.  1.
    9000007    1    1    2  502    0  0.18490425052E+02 -0.29990579179E+00 -0.15853273651E+04  0.16351161550E+04  0.40000000000E+03 0. -1.
   -9000007    1    1    2    0  501 -0.18490425052E+02  0.29990579179E+00 -0.23222379424E+04  0.23565082318E+04  0.40000000000E+03 0.  1.
<mgrwt>
<rscale>  2 0.40042725E+03</rscale>
<asrwt>0</asrwt>
<pdfrwt beam="1">  1        2 0.60763036E+00 0.40042725E+03</pdfrwt>
<pdfrwt beam="2">  1       -2 0.64660789E-02 0.40042725E+03</pdfrwt>
<totfact> 0.61446961E+01</totfact>
</mgrwt>
</event>
<event>
 4    1  0.2247963E-002  0.4099551E+03  0.7818608E-02  0.1040386E+00
          2   -1    0    0  502    0  0.00000000000E+00  0.00000000000E+00  0.51681838272E+03  0.51681838272E+03  0.00000000000E+00 0.  1.
         -2   -1    0    0    0  501 -0.00000000000E+00 -0.00000000000E+00 -0.36516397038E+03  0.36516397038E+03  0.00000000000E+00 0. -1.
    9000007    1    1    2  502    0 -0.85954794795E+02  0.25979191453E+02 -0.70082893347E+02  0.41590234079E+03  0.40000000000E+03 0. -1.
   -9000007    1    1    2    0  501  0.85954794795E+02 -0.25979191453E+02  0.22173730569E+03  0.46608001231E+03  0.40000000000E+03 0. -1.
<mgrwt>
<rscale>  2 0.40995505E+03</rscale>
<asrwt>0</asrwt>
<pdfrwt beam="1">  1        2 0.79510520E-01 0.40995505E+03</pdfrwt>
<pdfrwt beam="2">  1       -2 0.56179072E-01 0.40995505E+03</pdfrwt>
<totfact> 0.18130787E+02</totfact>
</mgrwt>
</event>
<event>
 4    1  0.2247963E-002  0.4123443E+03  0.7818608E-02  0.1039587E+00
         -2   -1    0    0    0  501 -0.00000000000E+00  0.00000000000E+00  0.82971211605E+03  0.82971211605E+03  0.00000000000E+00 0.  1.
          2   -1    0    0  502    0  0.00000000000E+00 -0.00000000000E+00 -0.26881397858E+03  0.26881397858E+03  0.00000000000E+00 0. -1.
    9000007    1    1    2  502    0  0.87223564075E+02 -0.49191871363E+02  0.12673233057E+02  0.41253896928E+03  0.40000000000E+03 0. -1.
   -9000007    1    1    2    0  501 -0.87223564075E+02  0.49191871363E+02  0.54822490440E+03  0.68598712535E+03  0.40000000000E+03 0.  1.
<mgrwt>
<rscale>  2 0.41234426E+03</rscale>
<asrwt>0</asrwt>
<pdfrwt beam="1">  1        2 0.41355997E-01 0.41234426E+03</pdfrwt>
<pdfrwt beam="2">  1       -2 0.12764802E+00 0.41234426E+03</pdfrwt>
<totfact> 0.58385282E+01</totfact>
</mgrwt>
</event>
<event>
 4    1  0.2247963E-002  0.4143685E+03  0.7818608E-02  0.1038915E+00
          2   -1    0    0  502    0  0.00000000000E+00  0.00000000000E+00  0.24220036337E+04  0.24220036337E+04  0.00000000000E+00 0. -1.
         -2   -1    0    0    0  501 -0.00000000000E+00 -0.00000000000E+00 -0.70972648135E+02  0.70972648135E+02  0.00000000000E+00 0.  1.
    9000007    1    1    2  502    0  0.66243608809E+02  0.85516407308E+02  0.11335605734E+04  0.12069220543E+04  0.40000000000E+03 0. -1.
   -9000007    1    1    2    0  501 -0.66243608809E+02 -0.85516407308E+02  0.12174704122E+04  0.12860542276E+04  0.40000000000E+03 0.  1.
<mgrwt>
<rscale>  2 0.41436852E+03</rscale>
<asrwt>0</asrwt>
<pdfrwt beam="1">  1        2 0.37261588E+00 0.41436852E+03</pdfrwt>
<pdfrwt beam="2">  1       -2 0.10918871E-01 0.41436852E+03</pdfrwt>
<totfact> 0.24796662E+02</totfact>
</mgrwt>
</event>
<event>
 4    1  0.2247963E-002  0.4273221E+03  0.7818608E-02  0.1034709E+00
          1   -1    0    0  502    0  0.00000000000E+00  0.00000000000E+00  0.80603791223E+03  0.80603791223E+03  0.00000000000E+00 0.  1.
         -1   -1    0    0    0  501 -0.00000000000E+00 -0.00000000000E+00 -0.24150477124E+03  0.24150477124E+03  0.00000000000E+00 0. -1.
    9000007    1    1    2  502    0 -0.15034497204E+03  0.73592186899E+00  0.15190905711E+03  0.45352013608E+03  0.40000000000E+03 0. -1.
   -9000007    1    1    2    0  501  0.15034497204E+03 -0.73592186899E+00  0.41262408389E+03  0.59402254739E+03  0.40000000000E+03 0. -1.
<mgrwt>
<rscale>  2 0.42732207E+03</rscale>
<asrwt>0</asrwt>
<pdfrwt beam="1">  1        1 0.12400583E+00 0.42732207E+03</pdfrwt>
<pdfrwt beam="2">  1       -1 0.37154581E-01 0.42732207E+03</pdfrwt>
<totfact> 0.15872818E+02</totfact>
</mgrwt>
</event>
<event>
 4    1  0.2247963E-002  0.4571730E+03  0.7818608E-02  0.1025604E+00
         -2   -1    0    0    0  501 -0.00000000000E+00  0.00000000000E+00  0.15198965386E+03  0.15198965386E+03  0.00000000000E+00 0.  1.
          2   -1    0    0  502    0  0.00000000000E+00 -0.00000000000E+00 -0.13798152705E+04  0.13798152705E+04  0.00000000000E+00 0. -1.
    9000007    1    1    2  502    0 -0.13948177864E+02  0.22093574725E+03 -0.56933335426E+03  0.73016958602E+03  0.40000000000E+03 0. -1.
   -9000007    1    1    2    0  501  0.13948177864E+02 -0.22093574725E+03 -0.65849226240E+03  0.80163533837E+03  0.40000000000E+03 0. -1.
<mgrwt>
<rscale>  2 0.45717300E+03</rscale>
<asrwt>0</asrwt>
<pdfrwt beam="1">  1        2 0.21227927E+00 0.45717300E+03</pdfrwt>
<pdfrwt beam="2">  1       -2 0.23383024E-01 0.45717300E+03</pdfrwt>
<totfact> 0.24937418E+02</totfact>
</mgrwt>
</event>
<event>
 4    1  0.2247963E-002  0.4376525E+03  0.7818608E-02  0.1031470E+00
          2   -1    0    0  502    0  0.00000000000E+00  0.00000000000E+00  0.18288663609E+03  0.18288663609E+03  0.00000000000E+00 0.  1.
         -2   -1    0    0    0  501 -0.00000000000E+00 -0.00000000000E+00 -0.11598905173E+04  0.11598905173E+04  0.00000000000E+00 0. -1.
    9000007    1    1    2  502    0 -0.94493522168E+02 -0.15036852544E+03 -0.27933670035E+03  0.51920006870E+03  0.40000000000E+03 0.  1.
   -9000007    1    1    2    0  501  0.94493522168E+02  0.15036852544E+03 -0.69766718085E+03  0.82357708468E+03  0.40000000000E+03 0. -1.
<mgrwt>
<rscale>  2 0.43765251E+03</rscale>
<asrwt>0</asrwt>
<pdfrwt beam="1">  1        2 0.28136405E-01 0.43765251E+03</pdfrwt>
<pdfrwt beam="2">  1       -2 0.17844470E+00 0.43765251E+03</pdfrwt>
<totfact> 0.36979115E+01</totfact>
</mgrwt>
</event>
<event>
 4    1  0.2247963E-002  0.7218061E+03  0.7818608E-02  0.9680651E-01
         -1   -1    0    0    0  501 -0.00000000000E+00  0.00000000000E+00  0.73577907060E+03  0.73577907060E+03  0.00000000000E+00 0.  1.
          1   -1    0    0  502    0  0.00000000000E+00 -0.00000000000E+00 -0.75175482081E+03  0.75175482081E+03  0.00000000000E+00 0. -1.
    9000007    1    1    2  502    0  0.42207013832E+03 -0.42762233589E+03 -0.18722265114E+03  0.74569188336E+03  0.40000000000E+03 0. -1.
   -9000007    1    1    2    0  501 -0.42207013832E+03  0.42762233589E+03  0.17124690094E+03  0.74184200804E+03  0.40000000000E+03 0.  1.
<mgrwt>
<rscale>  2 0.72180611E+03</rscale>
<asrwt>0</asrwt>
<pdfrwt beam="1">  1        1 0.11565459E+00 0.72180611E+03</pdfrwt>
<pdfrwt beam="2">  1       -1 0.11319678E+00 0.72180611E+03</pdfrwt>
<totfact> 0.17940253E+01</totfact>
</mgrwt>
</event>
<event>
 4    1  0.2247963E-002  0.4160869E+03  0.7818608E-02  0.1038347E+00
         -2   -1    0    0    0  501 -0.00000000000E+00  0.00000000000E+00  0.75651783352E+02  0.75651783352E+02  0.00000000000E+00 0. -1.
          2   -1    0    0  502    0  0.00000000000E+00 -0.00000000000E+00 -0.22934338185E+04  0.22934338185E+04  0.00000000000E+00 0.  1.
    9000007    1    1    2  502    0 -0.72316900852E+02 -0.88873719219E+02 -0.10538883261E+04  0.11330529008E+04  0.40000000000E+03 0.  1.
   -9000007    1    1    2    0  501  0.72316900852E+02  0.88873719219E+02 -0.11638937090E+04  0.12360327010E+04  0.40000000000E+03 0.  1.
<mgrwt>
<rscale>  2 0.41608686E+03</rscale>
<asrwt>0</asrwt>
<pdfrwt beam="1">  1        2 0.35283602E+00 0.41608686E+03</pdfrwt>
<pdfrwt beam="2">  1       -2 0.11638734E-01 0.41608686E+03</pdfrwt>
<totfact> 0.26278110E+02</totfact>
</mgrwt>
</event>
<event>
 4    1  0.2247963E-002  0.4407943E+03  0.7818608E-02  0.1030503E+00
         -1   -1    0    0    0  501 -0.00000000000E+00  0.00000000000E+00  0.12661318245E+03  0.12661318245E+03  0.00000000000E+00 0.  1.
          1   -1    0    0  502    0  0.00000000000E+00 -0.00000000000E+00 -0.15531847364E+04  0.15531847364E+04  0.00000000000E+00 0. -1.
    9000007    1    1    2  502    0  0.15209967344E+03  0.10566589999E+03 -0.80517945776E+03  0.91793984132E+03  0.40000000000E+03 0. -1.
   -9000007    1    1    2    0  501 -0.15209967344E+03 -0.10566589999E+03 -0.62139209615E+03  0.76185807749E+03  0.40000000000E+03 0.  1.
<mgrwt>
<rscale>  2 0.44079428E+03</rscale>
<asrwt>0</asrwt>
<pdfrwt beam="1">  1        1 0.23895150E+00 0.44079428E+03</pdfrwt>
<pdfrwt beam="2">  1       -1 0.19478951E-01 0.44079428E+03</pdfrwt>
<totfact> 0.13575704E+02</totfact>
</mgrwt>
</event>
<event>
 4    1  0.2247963E-002  0.4507459E+03  0.7818608E-02  0.1027500E+00
          2   -1    0    0  502    0  0.00000000000E+00  0.00000000000E+00  0.16535489514E+04  0.16535489514E+04  0.00000000000E+00 0.  1.
         -2   -1    0    0    0  501 -0.00000000000E+00 -0.00000000000E+00 -0.13910575651E+03  0.13910575651E+03  0.00000000000E+00 0. -1.
    9000007    1    1    2  502    0 -0.11610205482E+03  0.17231424565E+03  0.10634374861E+04  0.11550199882E+04  0.40000000000E+03 0.  1.
   -9000007    1    1    2    0  501  0.11610205482E+03 -0.17231424565E+03  0.45100570882E+03  0.63763471970E+03  0.40000000000E+03 0. -1.
<mgrwt>
<rscale>  2 0.45074592E+03</rscale>
<asrwt>0</asrwt>
<pdfrwt beam="1">  1        2 0.25439213E+00 0.45074592E+03</pdfrwt>
<pdfrwt beam="2">  1       -2 0.21400887E-01 0.45074592E+03</pdfrwt>
<totfact> 0.20665853E+02</totfact>
</mgrwt>
</event>
<event>
 4    1  0.2247963E-002  0.4059603E+03  0.7818608E-02  0.1041735E+00
         -2   -1    0    0    0  501 -0.00000000000E+00  0.00000000000E+00  0.23791746652E+03  0.23791746652E+03  0.00000000000E+00 0.  1.
          2   -1    0    0  502    0  0.00000000000E+00 -0.00000000000E+00 -0.19398687562E+04  0.19398687562E+04  0.00000000000E+00 0. -1.
    9000007    1    1    2  502    0 -0.59472775522E+02 -0.35591455893E+02  0.22122181216E+02  0.40656260731E+03  0.40000000000E+03 0.  1.
   -9000007    1    1    2    0  501  0.59472775522E+02  0.35591455893E+02 -0.17240734709E+04  0.17712236154E+04  0.40000000000E+03 0. -1.
<mgrwt>
<rscale>  2 0.40596030E+03</rscale>
<asrwt>0</asrwt>
<pdfrwt beam="1">  1        2 0.29844135E+00 0.40596030E+03</pdfrwt>
<pdfrwt beam="2">  1       -2 0.36602687E-01 0.40596030E+03</pdfrwt>
<totfact> 0.55082354E+01</totfact>
</mgrwt>
</event>
<event>
 4    1  0.2247963E-002  0.4144120E+03  0.7818608E-02  0.1038901E+00
          2   -1    0    0  502    0  0.00000000000E+00  0.00000000000E+00  0.64771920544E+03  0.64771920544E+03  0.00000000000E+00 0.  1.
         -2   -1    0    0    0  501 -0.00000000000E+00 -0.00000000000E+00 -0.28363474822E+03  0.28363474822E+03  0.00000000000E+00 0. -1.
    9000007    1    1    2  502    0 -0.20937003836E+02 -0.10629647821E+03  0.63134357803E+02  0.41919356692E+03  0.40000000000E+03 0. -1.
   -9000007    1    1    2    0  501  0.20937003836E+02  0.10629647821E+03  0.30095009941E+03  0.51216038674E+03  0.40000000000E+03 0. -1.
<mgrwt>
<rscale>  2 0.41441199E+03</rscale>
<asrwt>0</asrwt>
<pdfrwt beam="1">  1        2 0.99649108E-01 0.41441199E+03</pdfrwt>
<pdfrwt beam="2">  1       -2 0.43636115E-01 0.41441199E+03</pdfrwt>
<totfact> 0.23115323E+02</totfact>
</mgrwt>
</event>
<event>
 4    1  0.2247963E-002  0.4211210E+03  0.7818608E-02  0.1036702E+00
          2   -1    0    0  502    0  0.00000000000E+00  0.00000000000E+00  0.11451986542E+04  0.11451986542E+04  0.00000000000E+00 0. -1.
         -2   -1    0    0    0  501 -0.00000000000E+00 -0.00000000000E+00 -0.18095921467E+03  0.18095921467E+03  0.00000000000E+00 0.  1.
    9000007    1    1    2  502    0  0.11931800393E+03 -0.55732572109E+02  0.73394955551E+03  0.84618251913E+03  0.40000000000E+03 0.  1.
   -9000007    1    1    2    0  501 -0.11931800393E+03  0.55732572109E+02  0.23028988401E+03  0.47997534971E+03  0.40000000000E+03 0.  1.
<mgrwt>
<rscale>  2 0.42112101E+03</rscale>
<asrwt>0</asrwt>
<pdfrwt beam="1">  1        2 0.17618440E+00 0.42112101E+03</pdfrwt>
<pdfrwt beam="2">  1       -2 0.27839880E-01 0.42112101E+03</pdfrwt>
<totfact> 0.24933293E+02</totfact>
</mgrwt>
</event>
<event>
 4    1  0.2247963E-002  0.6159724E+03  0.7818608E-02  0.9872811E-01
          1   -1    0    0  502    0  0.00000000000E+00  0.00000000000E+00  0.10254869953E+04  0.10254869953E+04  0.00000000000E+00 0.  1.
         -1   -1    0    0    0  501 -0.00000000000E+00 -0.00000000000E+00 -0.43508949798E+03  0.43508949798E+03  0.00000000000E+00 0. -1.
    9000007    1    1    2  502    0 -0.25338535321E+02 -0.46773926226E+03  0.12719260927E+02  0.61610375622E+03  0.40000000000E+03 0. -1.
   -9000007    1    1    2    0  501  0.25338535321E+02  0.46773926226E+03  0.57767823639E+03  0.84447273705E+03  0.40000000000E+03 0.  1.
<mgrwt>
<rscale>  2 0.61597245E+03</rscale>
<asrwt>0</asrwt>
<pdfrwt beam="1">  1        1 0.15776723E+00 0.61597245E+03</pdfrwt>
<pdfrwt beam="2">  1       -1 0.66936846E-01 0.61597245E+03</pdfrwt>
<totfact> 0.34097215E+01</totfact>
</mgrwt>
</event>
<event>
 4    1  0.2247963E-002  0.4551825E+03  0.7818608E-02  0.1026188E+00
          2   -1    0    0  502    0  0.00000000000E+00  0.00000000000E+00  0.10983821016E+04  0.10983821016E+04  0.00000000000E+00 0.  1.
         -2   -1    0    0    0  501 -0.00000000000E+00 -0.00000000000E+00 -0.20944149471E+03  0.20944149471E+03  0.00000000000E+00 0. -1.
    9000007    1    1    2  502    0 -0.17856531729E+03 -0.12371548281E+03  0.23835591522E+03  0.51381381408E+03  0.40000000000E+03 0. -1.
   -9000007    1    1    2    0  501  0.17856531729E+03  0.12371548281E+03  0.65058469169E+03  0.79400978223E+03  0.40000000000E+03 0. -1.
<mgrwt>
<rscale>  2 0.45518248E+03</rscale>
<asrwt>0</asrwt>
<pdfrwt beam="1">  1        2 0.16898186E+00 0.45518248E+03</pdfrwt>
<pdfrwt beam="2">  1       -2 0.32221769E-01 0.45518248E+03</pdfrwt>
<totfact> 0.20249444E+02</totfact>
</mgrwt>
</event>
<event>
 4    1  0.2247963E-002  0.8233095E+03  0.7818608E-02  0.9526877E-01
          1   -1    0    0  502    0  0.00000000000E+00  0.00000000000E+00  0.18240817012E+04  0.18240817012E+04  0.00000000000E+00 0. -1.
         -1   -1    0    0    0  501 -0.00000000000E+00 -0.00000000000E+00 -0.69204492132E+03  0.69204492132E+03  0.00000000000E+00 0.  1.
    9000007    1    1    2  502    0 -0.71875130787E+03 -0.35143791045E+02 -0.29004992241E+03  0.87290749000E+03  0.40000000000E+03 0.  1.
   -9000007    1    1    2    0  501  0.71875130787E+03  0.35143791045E+02  0.14220867023E+04  0.16432191325E+04  0.40000000000E+03 0. -1.
<mgrwt>
<rscale>  2 0.82330950E+03</rscale>
<asrwt>0</asrwt>
<pdfrwt beam="1">  1        1 0.28062795E+00 0.82330950E+03</pdfrwt>
<pdfrwt beam="2">  1       -1 0.10646845E+00 0.82330950E+03</pdfrwt>
<totfact> 0.33487616E+00</totfact>
</mgrwt>
</event>
<event>
 4    1  0.2247963E-002  0.4545819E+03  0.7818608E-02  0.1026364E+00
         -1   -1    0    0    0  501 -0.00000000000E+00  0.00000000000E+00  0.17063735472E+03  0.17063735472E+03  0.00000000000E+00 0. -1.
          1   -1    0    0  502    0  0.00000000000E+00 -0.00000000000E+00 -0.12144108641E+04  0.12144108641E+04  0.00000000000E+00 0.  1.
    9000007    1    1    2  502    0  0.15215894470E+03  0.15327217456E+03 -0.55849777588E+03  0.72011420595E+03  0.40000000000E+03 0. -1.
   -9000007    1    1    2    0  501 -0.15215894470E+03 -0.15327217456E+03 -0.48527573349E+03  0.66493401286E+03  0.40000000000E+03 0. -1.
<mgrwt>
<rscale>  2 0.45458190E+03</rscale>
<asrwt>0</asrwt>
<pdfrwt beam="1">  1        1 0.18683245E+00 0.45458190E+03</pdfrwt>
<pdfrwt beam="2">  1       -1 0.26251900E-01 0.45458190E+03</pdfrwt>
<totfact> 0.14069137E+02</totfact>
</mgrwt>
</event>
<event>
 4    1  0.2247963E-002  0.4476524E+03  0.7818608E-02  0.1028424E+00
          1   -1    0    0  502    0  0.00000000000E+00  0.00000000000E+00  0.23145696879E+03  0.23145696879E+03  0.00000000000E+00 0. -1.
         -1   -1    0    0    0  501 -0.00000000000E+00 -0.00000000000E+00 -0.87882360497E+03  0.87882360497E+03  0.00000000000E+00 0.  1.
    9000007    1    1    2  502    0 -0.20999265250E+02  0.19987929133E+03 -0.25607268132E+03  0.51571883654E+03  0.40000000000E+03 0. -1.
   -9000007    1    1    2    0  501  0.20999265250E+02 -0.19987929133E+03 -0.39129395486E+03  0.59456173721E+03  0.40000000000E+03 0.  1.
<mgrwt>
<rscale>  2 0.44765243E+03</rscale>
<asrwt>0</asrwt>
<pdfrwt beam="1">  1        1 0.35608765E-01 0.44765243E+03</pdfrwt>
<pdfrwt beam="2">  1       -1 0.13520363E+00 0.44765243E+03</pdfrwt>
<totfact> 0.59102969E+01</totfact>
</mgrwt>
</event>
<event>
 4    1  0.2247963E-002  0.4097193E+03  0.7818608E-02  0.1040465E+00
         -2   -1    0    0    0  501 -0.00000000000E+00  0.00000000000E+00  0.69547430083E+02  0.69547430083E+02  0.00000000000E+00 0. -1.
          2   -1    0    0  502    0  0.00000000000E+00 -0.00000000000E+00 -0.28128151124E+04  0.28128151124E+04  0.00000000000E+00 0.  1.
    9000007    1    1    2  502    0 -0.77163679366E+02 -0.43768681338E+02 -0.19144731561E+04  0.19578246592E+04  0.40000000000E+03 0.  1.
   -9000007    1    1    2    0  501  0.77163679366E+02  0.43768681338E+02 -0.82879452625E+03  0.92453788328E+03  0.40000000000E+03 0. -1.
<mgrwt>
<rscale>  2 0.40971933E+03</rscale>
<asrwt>0</asrwt>
<pdfrwt beam="1">  1        2 0.43274080E+00 0.40971933E+03</pdfrwt>
<pdfrwt beam="2">  1       -2 0.10699604E-01 0.40971933E+03</pdfrwt>
<totfact> 0.15422385E+02</totfact>
</mgrwt>
</event>
<event>
 4    1  0.2247963E-002  0.4590557E+03  0.7818608E-02  0.1025055E+00
          2   -1    0    0  502    0  0.00000000000E+00  0.00000000000E+00  0.12597688949E+04  0.12597688949E+04  0.00000000000E+00 0.  1.
         -2   -1    0    0    0  501 -0.00000000000E+00 -0.00000000000E+00 -0.19372327729E+03  0.19372327729E+03  0.00000000000E+00 0. -1.
    9000007    1    1    2  502    0  0.85505068480E+02  0.20837714228E+03  0.26451160443E+03  0.52980990840E+03  0.40000000000E+03 0.  1.
   -9000007    1    1    2    0  501 -0.85505068480E+02 -0.20837714228E+03  0.80153401314E+03  0.92368226376E+03  0.40000000000E+03 0.  1.
<mgrwt>
<rscale>  2 0.45905572E+03</rscale>
<asrwt>0</asrwt>
<pdfrwt beam="1">  1        2 0.19381059E+00 0.45905572E+03</pdfrwt>
<pdfrwt beam="2">  1       -2 0.29803582E-01 0.45905572E+03</pdfrwt>
<totfact> 0.18810270E+02</totfact>
</mgrwt>
</event>
<event>
 4    1  0.2247963E-002  0.9813356E+03  0.7818608E-02  0.9329256E-01
         -1   -1    0    0    0  501 -0.00000000000E+00  0.00000000000E+00  0.39690454122E+03  0.39690454122E+03  0.00000000000E+00 0.  1.
          1   -1    0    0  502    0  0.00000000000E+00 -0.00000000000E+00 -0.24715074220E+04  0.24715074220E+04  0.00000000000E+00 0. -1.
    9000007    1    1    2  502    0  0.11692450080E+03 -0.88845268715E+03 -0.12312176214E+04  0.15744574772E+04  0.40000000000E+03 0. -1.
   -9000007    1    1    2    0  501 -0.11692450080E+03  0.88845268715E+03 -0.84338525936E+03  0.12939544860E+04  0.40000000000E+03 0.  1.
<mgrwt>
<rscale>  2 0.98133558E+03</rscale>
<asrwt>0</asrwt>
<pdfrwt beam="1">  1        1 0.38023190E+00 0.98133558E+03</pdfrwt>
<pdfrwt beam="2">  1       -1 0.61062238E-01 0.98133558E+03</pdfrwt>
<totfact> 0.39373508E+00</totfact>
</mgrwt>
</event>
<event>
 4    1  0.2247963E-002  0.5486726E+03  0.7818608E-02  0.1001802E+00
          2   -1    0    0  502    0  0.00000000000E+00  0.00000000000E+00  0.20934933917E+04  0.20934933917E+04  0.00000000000E+00 0.  1.
         -2   -1    0    0    0  501 -0.00000000000E+00 -0.00000000000E+00 -0.14719539090E+03  0.14719539090E+03  0.00000000000E+00 0. -1.
    9000007    1    1    2  502    0  0.24834963744E+03 -0.28171635691E+03  0.80295986094E+03  0.97251539137E+03  0.40000000000E+03 0.  1.
   -9000007    1    1    2    0  501 -0.24834963744E+03  0.28171635691E+03  0.11433381399E+04  0.12681733912E+04  0.40000000000E+03 0.  1.
<mgrwt>
<rscale>  2 0.54867262E+03</rscale>
<asrwt>0</asrwt>
<pdfrwt beam="1">  1        2 0.32207589E+00 0.54867262E+03</pdfrwt>
<pdfrwt beam="2">  1       -2 0.22645446E-01 0.54867262E+03</pdfrwt>
<totfact> 0.10696125E+02</totfact>
</mgrwt>
</event>
<event>
 4    1  0.2247963E-002  0.4200841E+03  0.7818608E-02  0.1037039E+00
          2   -1    0    0  502    0  0.00000000000E+00  0.00000000000E+00  0.13928374156E+04  0.13928374156E+04  0.00000000000E+00 0. -1.
         -2   -1    0    0    0  501 -0.00000000000E+00 -0.00000000000E+00 -0.12769060887E+03  0.12769060887E+03  0.00000000000E+00 0.  1.
    9000007    1    1    2  502    0  0.69208001637E+02 -0.10807805057E+03  0.56556442436E+03  0.70450956743E+03  0.40000000000E+03 0.  1.
   -9000007    1    1    2    0  501 -0.69208001637E+02  0.10807805057E+03  0.69958238239E+03  0.81601845706E+03  0.40000000000E+03 0. -1.
<mgrwt>
<rscale>  2 0.42008405E+03</rscale>
<asrwt>0</asrwt>
<pdfrwt beam="1">  1        2 0.21428267E+00 0.42008405E+03</pdfrwt>
<pdfrwt beam="2">  1       -2 0.19644710E-01 0.42008405E+03</pdfrwt>
<totfact> 0.33396054E+02</totfact>
</mgrwt>
</event>
<event>
 4    1  0.2247963E-002  0.5432610E+03  0.7818608E-02  0.1003066E+00
         -3   -1    0    0    0  501 -0.00000000000E+00  0.00000000000E+00  0.23970741889E+04  0.23970741889E+04  0.00000000000E+00 0.  1.
          3   -1    0    0  502    0  0.00000000000E+00 -0.00000000000E+00 -0.12475652188E+03  0.12475652188E+03  0.00000000000E+00 0. -1.
    9000007    1    1    2  502    0 -0.30863395012E+03 -0.19969362821E+03  0.99182915073E+03  0.11308658296E+04  0.40000000000E+03 0. -1.
   -9000007    1    1    2    0  501  0.30863395012E+03  0.19969362821E+03  0.12804885163E+04  0.13909648812E+04  0.40000000000E+03 0.  1.
<mgrwt>
<rscale>  2 0.54326095E+03</rscale>
<asrwt>0</asrwt>
<pdfrwt beam="1">  1        3 0.19193313E-01 0.54326095E+03</pdfrwt>
<pdfrwt beam="2">  1       -3 0.36878061E+00 0.54326095E+03</pdfrwt>
<totfact> 0.10791046E+00</totfact>
</mgrwt>
</event>
<event>
 4    1  0.2247963E-002  0.7246871E+03  0.7818608E-02  0.9675921E-01
         -1   -1    0    0    0  501 -0.00000000000E+00  0.00000000000E+00  0.54287208302E+03  0.54287208302E+03  0.00000000000E+00 0.  1.
          1   -1    0    0  502    0  0.00000000000E+00 -0.00000000000E+00 -0.13781117174E+04  0.13781117174E+04  0.00000000000E+00 0. -1.
    9000007    1    1    2  502    0 -0.42958107007E+03 -0.42500756719E+03  0.10673237064E+03  0.73250469410E+03  0.40000000000E+03 0.  1.
   -9000007    1    1    2    0  501  0.42958107007E+03  0.42500756719E+03 -0.94197200501E+03  0.11884791063E+04  0.40000000000E+03 0. -1.
<mgrwt>
<rscale>  2 0.72468706E+03</rscale>
<asrwt>0</asrwt>
<pdfrwt beam="1">  1        1 0.21201718E+00 0.72468706E+03</pdfrwt>
<pdfrwt beam="2">  1       -1 0.83518784E-01 0.72468706E+03</pdfrwt>
<totfact> 0.11772219E+01</totfact>
</mgrwt>
</event>
<event>
 4    1  0.2247963E-002  0.4619422E+03  0.7818608E-02  0.1024219E+00
          2   -1    0    0  502    0  0.00000000000E+00  0.00000000000E+00  0.29252440629E+04  0.29252440629E+04  0.00000000000E+00 0.  1.
         -2   -1    0    0    0  501 -0.00000000000E+00 -0.00000000000E+00 -0.10089788064E+03  0.10089788064E+03  0.00000000000E+00 0. -1.
    9000007    1    1    2  502    0  0.19319222018E+03 -0.12675706914E+03  0.61581469604E+03  0.76981707462E+03  0.40000000000E+03 0. -1.
   -9000007    1    1    2    0  501 -0.19319222018E+03  0.12675706914E+03  0.22085314863E+04  0.22563248690E+04  0.40000000000E+03 0.  1.
<mgrwt>
<rscale>  2 0.46194219E+03</rscale>
<asrwt>0</asrwt>
<pdfrwt beam="1">  1        2 0.45003748E+00 0.46194219E+03</pdfrwt>
<pdfrwt beam="2">  1       -2 0.15522753E-01 0.46194219E+03</pdfrwt>
<totfact> 0.70880320E+01</totfact>
</mgrwt>
</event>
<event>
 4    1  0.2247963E-002  0.4247921E+03  0.7818608E-02  0.1035518E+00
         -2   -1    0    0    0  501 -0.00000000000E+00  0.00000000000E+00  0.89122000725E+03  0.89122000725E+03  0.00000000000E+00 0.  1.
          2   -1    0    0  502    0  0.00000000000E+00 -0.00000000000E+00 -0.35306172197E+03  0.35306172197E+03  0.00000000000E+00 0. -1.
    9000007    1    1    2  502    0 -0.13989714716E+03  0.29616156895E+02 -0.13723232930E+03  0.44640905092E+03  0.40000000000E+03 0. -1.
   -9000007    1    1    2    0  501  0.13989714716E+03 -0.29616156895E+02  0.67539061458E+03  0.79787267831E+03  0.40000000000E+03 0.  1.
<mgrwt>
<rscale>  2 0.42479210E+03</rscale>
<asrwt>0</asrwt>
<pdfrwt beam="1">  1        2 0.54317188E-01 0.42479210E+03</pdfrwt>
<pdfrwt beam="2">  1       -2 0.13711077E+00 0.42479210E+03</pdfrwt>
<totfact> 0.36122055E+01</totfact>
</mgrwt>
</event>
<event>
 4    1  0.2247963E-002  0.4111342E+03  0.7818608E-02  0.1039991E+00
         -1   -1    0    0    0  501 -0.00000000000E+00  0.00000000000E+00  0.17378511841E+03  0.17378511841E+03  0.00000000000E+00 0.  1.
          1   -1    0    0  502    0  0.00000000000E+00 -0.00000000000E+00 -0.10951866327E+04  0.10951866327E+04  0.00000000000E+00 0. -1.
    9000007    1    1    2  502    0  0.92621071378E+02 -0.21275644807E+02 -0.24846487503E+03  0.48038121326E+03  0.40000000000E+03 0.  1.
   -9000007    1    1    2    0  501 -0.92621071378E+02  0.21275644807E+02 -0.67293663926E+03  0.78859053785E+03  0.40000000000E+03 0. -1.
<mgrwt>
<rscale>  2 0.41113418E+03</rscale>
<asrwt>0</asrwt>
<pdfrwt beam="1">  1        1 0.16849025E+00 0.41113418E+03</pdfrwt>
<pdfrwt beam="2">  1       -1 0.26736172E-01 0.41113418E+03</pdfrwt>
<totfact> 0.16718837E+02</totfact>
</mgrwt>
</event>
<event>
 4    1  0.2247963E-002  0.4065672E+03  0.7818608E-02  0.1041529E+00
         -2   -1    0    0    0  501 -0.00000000000E+00  0.00000000000E+00  0.21978166711E+03  0.21978166711E+03  0.00000000000E+00 0. -1.
          2   -1    0    0  502    0  0.00000000000E+00 -0.00000000000E+00 -0.75327177163E+03  0.75327177163E+03  0.00000000000E+00 0.  1.
    9000007    1    1    2  502    0 -0.69122871350E+02  0.22780476803E+02 -0.28596645042E+03  0.49706511871E+03  0.40000000000E+03 0. -1.
   -9000007    1    1    2    0  501  0.69122871350E+02 -0.22780476803E+02 -0.24752365410E+03  0.47598832003E+03  0.40000000000E+03 0.  1.
<mgrwt>
<rscale>  2 0.40656724E+03</rscale>
<asrwt>0</asrwt>
<pdfrwt beam="1">  1        2 0.11588796E+00 0.40656724E+03</pdfrwt>
<pdfrwt beam="2">  1       -2 0.33812564E-01 0.40656724E+03</pdfrwt>
<totfact> 0.31289467E+02</totfact>
</mgrwt>
</event>
<event>
 4    1  0.2247963E-002  0.4857219E+03  0.7818608E-02  0.1017574E+00
         -1   -1    0    0    0  501 -0.00000000000E+00  0.00000000000E+00  0.11529206013E+03  0.11529206013E+03  0.00000000000E+00 0.  1.
          1   -1    0    0  502    0  0.00000000000E+00 -0.00000000000E+00 -0.24409526699E+04  0.24409526699E+04  0.00000000000E+00 0. -1.
    9000007    1    1    2  502    0  0.23652128221E+03  0.14136292952E+03 -0.16767353099E+04  0.17456709582E+04  0.40000000000E+03 0. -1.
   -9000007    1    1    2    0  501 -0.23652128221E+03 -0.14136292952E+03 -0.64892529982E+03  0.81057377180E+03  0.40000000000E+03 0.  1.
<mgrwt>
<rscale>  2 0.48572193E+03</rscale>
<asrwt>0</asrwt>
<pdfrwt beam="1">  1        1 0.37553118E+00 0.48572193E+03</pdfrwt>
<pdfrwt beam="2">  1       -1 0.17737240E-01 0.48572193E+03</pdfrwt>
<totfact> 0.40439635E+01</totfact>
</mgrwt>
</event>
<event>
 4    1  0.2247963E-002  0.5468442E+03  0.7818608E-02  0.1002227E+00
          2   -1    0    0  502    0  0.00000000000E+00  0.00000000000E+00  0.14166832386E+04  0.14166832386E+04  0.00000000000E+00 0. -1.
         -2   -1    0    0    0  501 -0.00000000000E+00 -0.00000000000E+00 -0.22454749141E+03  0.22454749141E+03  0.00000000000E+00 0.  1.
    9000007    1    1    2  502    0  0.76280980996E+02  0.36499291013E+03  0.79700985316E+03  0.96657297631E+03  0.40000000000E+03 0.  1.
   -9000007    1    1    2    0  501 -0.76280980996E+02 -0.36499291013E+03  0.39512589407E+03  0.67465775374E+03  0.40000000000E+03 0. -1.
<mgrwt>
<rscale>  2 0.54684423E+03</rscale>
<asrwt>0</asrwt>
<pdfrwt beam="1">  1        2 0.21795126E+00 0.54684423E+03</pdfrwt>
<pdfrwt beam="2">  1       -2 0.34545769E-01 0.54684423E+03</pdfrwt>
<totfact> 0.11532968E+02</totfact>
</mgrwt>
</event>
<event>
 4    1  0.2247963E-002  0.4535199E+03  0.7818608E-02  0.1026678E+00
         -2   -1    0    0    0  501 -0.00000000000E+00  0.00000000000E+00  0.10684322163E+03  0.10684322163E+03  0.00000000000E+00 0.  1.
          2   -1    0    0  502    0  0.00000000000E+00 -0.00000000000E+00 -0.19398987988E+04  0.19398987988E+04  0.00000000000E+00 0. -1.
    9000007    1    1    2  502    0  0.13748883434E+03 -0.16363706556E+03 -0.82704221984E+03  0.94322802237E+03  0.40000000000E+03 0. -1.
   -9000007    1    1    2    0  501 -0.13748883434E+03  0.16363706556E+03 -0.10060133574E+04  0.11035139981E+04  0.40000000000E+03 0. -1.
<mgrwt>
<rscale>  2 0.45351987E+03</rscale>
<asrwt>0</asrwt>
<pdfrwt beam="1">  1        2 0.29844598E+00 0.45351987E+03</pdfrwt>
<pdfrwt beam="2">  1       -2 0.16437418E-01 0.45351987E+03</pdfrwt>
<totfact> 0.22838445E+02</totfact>
</mgrwt>
</event>
<event>
 4    1  0.2247963E-002  0.4469924E+03  0.7818608E-02  0.1028623E+00
          2   -1    0    0  502    0  0.00000000000E+00  0.00000000000E+00  0.19100340858E+04  0.19100340858E+04  0.00000000000E+00 0.  1.
         -2   -1    0    0    0  501 -0.00000000000E+00 -0.00000000000E+00 -0.14244703531E+03  0.14244703531E+03  0.00000000000E+00 0. -1.
    9000007    1    1    2  502    0  0.19106801013E+03  0.57403761686E+02  0.14127263453E+04  0.14817550077E+04  0.40000000000E+03 0.  1.
   -9000007    1    1    2    0  501 -0.19106801013E+03 -0.57403761686E+02  0.35486070517E+03  0.57072611332E+03  0.40000000000E+03 0. -1.
<mgrwt>
<rscale>  2 0.44699237E+03</rscale>
<asrwt>0</asrwt>
<pdfrwt beam="1">  1        2 0.29385138E+00 0.44699237E+03</pdfrwt>
<pdfrwt beam="2">  1       -2 0.21914930E-01 0.44699237E+03</pdfrwt>
<totfact> 0.14449369E+02</totfact>
</mgrwt>
</event>
<event>
 4    1  0.2247963E-002  0.4118453E+03  0.7818608E-02  0.1039754E+00
         -2   -1    0    0    0  501 -0.00000000000E+00  0.00000000000E+00  0.87399364656E+02  0.87399364656E+02  0.00000000000E+00 0.  1.
          2   -1    0    0  502    0  0.00000000000E+00 -0.00000000000E+00 -0.19421920190E+04  0.19421920190E+04  0.00000000000E+00 0. -1.
    9000007    1    1    2  502    0  0.70935692053E+02 -0.67710022695E+02 -0.95546126721E+03  0.10404435365E+04  0.40000000000E+03 0.  1.
   -9000007    1    1    2    0  501 -0.70935692053E+02  0.67710022695E+02 -0.89933138714E+03  0.98914784713E+03  0.40000000000E+03 0. -1.
<mgrwt>
<rscale>  2 0.41184526E+03</rscale>
<asrwt>0</asrwt>
<pdfrwt beam="1">  1        2 0.29879877E+00 0.41184526E+03</pdfrwt>
<pdfrwt beam="2">  1       -2 0.13446056E-01 0.41184526E+03</pdfrwt>
<totfact> 0.32056935E+02</totfact>
</mgrwt>
</event>
<event>
 4    1  0.2247963E-002  0.4173228E+03  0.7818608E-02  0.1037941E+00
         -1   -1    0    0    0  501 -0.00000000000E+00  0.00000000000E+00  0.21046132754E+03  0.21046132754E+03  0.00000000000E+00 0. -1.
          1   -1    0    0  502    0  0.00000000000E+00 -0.00000000000E+00 -0.12320941831E+04  0.12320941831E+04  0.00000000000E+00 0.  1.
    9000007    1    1    2  502    0  0.41204703399E+02 -0.11162646552E+03 -0.92413646271E+03  0.10139953141E+04  0.40000000000E+03 0.  1.
   -9000007    1    1    2    0  501 -0.41204703399E+02  0.11162646552E+03 -0.97496392819E+02  0.42856019647E+03  0.40000000000E+03 0. -1.
<mgrwt>
<rscale>  2 0.41732277E+03</rscale>
<asrwt>0</asrwt>
<pdfrwt beam="1">  1        1 0.18955295E+00 0.41732277E+03</pdfrwt>
<pdfrwt beam="2">  1       -1 0.32378666E-01 0.41732277E+03</pdfrwt>
<totfact> 0.95814477E+01</totfact>
</mgrwt>
</event>
<event>
 4    1  0.2247963E-002  0.7202811E+03  0.7818608E-02  0.9683164E-01
          1   -1    0    0  502    0  0.00000000000E+00  0.00000000000E+00  0.26974373727E+04  0.26974373727E+04  0.00000000000E+00 0.  1.
         -1   -1    0    0    0  501 -0.00000000000E+00 -0.00000000000E+00 -0.19244381461E+03  0.19244381461E+03  0.00000000000E+00 0. -1.
    9000007    1    1    2  502    0 -0.52556230446E+03  0.28738333558E+03  0.12872457793E+04  0.14750615627E+04  0.40000000000E+03 0. -1.
   -9000007    1    1    2    0  501  0.52556230446E+03 -0.28738333558E+03  0.12177477788E+04  0.14148196246E+04  0.40000000000E+03 0.  1.
<mgrwt>
<rscale>  2 0.72028114E+03</rscale>
<asrwt>0</asrwt>
<pdfrwt beam="1">  1        1 0.41499034E+00 0.72028114E+03</pdfrwt>
<pdfrwt beam="2">  1       -1 0.29606743E-01 0.72028114E+03</pdfrwt>
<totfact> 0.10919545E+01</totfact>
</mgrwt>
</event>
<event>
 4    1  0.2247963E-002  0.6446976E+03  0.7818608E-02  0.9816780E-01
         -2   -1    0    0    0  501 -0.00000000000E+00  0.00000000000E+00  0.41866993794E+03  0.41866993794E+03  0.00000000000E+00 0. -1.
          2   -1    0    0  502    0  0.00000000000E+00 -0.00000000000E+00 -0.10511664767E+04  0.10511664767E+04  0.00000000000E+00 0.  1.
    9000007    1    1    2  502    0 -0.17486188148E+03  0.47440305067E+03 -0.48949610500E+03  0.80946980728E+03  0.40000000000E+03 0. -1.
   -9000007    1    1    2    0  501  0.17486188148E+03 -0.47440305067E+03 -0.14300043377E+03  0.66036660738E+03  0.40000000000E+03 0. -1.
<mgrwt>
<rscale>  2 0.64469755E+03</rscale>
<asrwt>0</asrwt>
<pdfrwt beam="1">  1        2 0.16171792E+00 0.64469755E+03</pdfrwt>
<pdfrwt beam="2">  1       -2 0.64410760E-01 0.64469755E+03</pdfrwt>
<totfact> 0.53382384E+01</totfact>
</mgrwt>
</event>
<event>
 4    1  0.2247963E-002  0.4734992E+03  0.7818608E-02  0.1020937E+00
          1   -1    0    0  502    0  0.00000000000E+00  0.00000000000E+00  0.40795921795E+03  0.40795921795E+03  0.00000000000E+00 0. -1.
         -1   -1    0    0    0  501 -0.00000000000E+00 -0.00000000000E+00 -0.56795979148E+03  0.56795979148E+03  0.00000000000E+00 0.  1.
    9000007    1    1    2  502    0  0.21876269094E+03  0.12784507370E+03 -0.16780802054E+03  0.50235546138E+03  0.40000000000E+03 0.  1.
   -9000007    1    1    2    0  501 -0.21876269094E+03 -0.12784507370E+03  0.78074470092E+01  0.47356354806E+03  0.40000000000E+03 0. -1.
<mgrwt>
<rscale>  2 0.47349918E+03</rscale>
<asrwt>0</asrwt>
<pdfrwt beam="1">  1        1 0.62762956E-01 0.47349918E+03</pdfrwt>
<pdfrwt beam="2">  1       -1 0.87378430E-01 0.47349918E+03</pdfrwt>
<totfact> 0.78625247E+01</totfact>
</mgrwt>
</event>
<event>
 4    1  0.2247963E-002  0.4071952E+03  0.7818608E-02  0.1041316E+00
         -2   -1    0    0    0  501 -0.00000000000E+00  0.00000000000E+00  0.10072683268E+03  0.10072683268E+03  0.00000000000E+00 0. -1.
          2   -1    0    0  502    0  0.00000000000E+00 -0.00000000000E+00 -0.22318874453E+04  0.22318874453E+04  0.00000000000E+00 0.  1.
    9000007    1    1    2  502    0  0.73164384765E+02  0.21328653203E+02 -0.16630849724E+04  0.17122089721E+04  0.40000000000E+03 0.  1.
   -9000007    1    1    2    0  501 -0.73164384765E+02 -0.21328653203E+02 -0.46807564026E+03  0.62040530595E+03  0.40000000000E+03 0. -1.
<mgrwt>
<rscale>  2 0.40719521E+03</rscale>
<asrwt>0</asrwt>
<pdfrwt beam="1">  1        2 0.34336728E+00 0.40719521E+03</pdfrwt>
<pdfrwt beam="2">  1       -2 0.15496437E-01 0.40719521E+03</pdfrwt>
<totfact> 0.17700830E+02</totfact>
</mgrwt>
</event>
<event>
 4    1  0.2247963E-002  0.7013868E+03  0.7818608E-02  0.9714864E-01
          2   -1    0    0  502    0  0.00000000000E+00  0.00000000000E+00  0.13858773867E+04  0.13858773867E+04  0.00000000000E+00 0. -1.
         -2   -1    0    0    0  501 -0.00000000000E+00 -0.00000000000E+00 -0.38235168858E+03  0.38235168858E+03  0.00000000000E+00 0.  1.
    9000007    1    1    2  502    0  0.14656461092E+03  0.55719134850E+03  0.26516227688E+03  0.74983626019E+03  0.40000000000E+03 0.  1.
   -9000007    1    1    2    0  501 -0.14656461092E+03 -0.55719134850E+03  0.73836342122E+03  0.10183928151E+04  0.40000000000E+03 0. -1.
<mgrwt>
<rscale>  2 0.70138676E+03</rscale>
<asrwt>0</asrwt>
<pdfrwt beam="1">  1        2 0.21321190E+00 0.70138676E+03</pdfrwt>
<pdfrwt beam="2">  1       -2 0.58823338E-01 0.70138676E+03</pdfrwt>
<totfact> 0.40855750E+01</totfact>
</mgrwt>
</event>
<event>
 4    1  0.2247963E-002  0.6802410E+03  0.7818608E-02  0.9751632E-01
          1   -1    0    0  502    0  0.00000000000E+00  0.00000000000E+00  0.26082426991E+03  0.26082426991E+03  0.00000000000E+00 0. -1.
         -1   -1    0    0    0  501 -0.00000000000E+00 -0.00000000000E+00 -0.17852475142E+04  0.17852475142E+04  0.00000000000E+00 0.  1.
    9000007    1    1    2  502    0  0.48524182431E+03 -0.25936107957E+03 -0.84305993557E+03  0.10832718277E+04  0.40000000000E+03 0. -1.
   -9000007    1    1    2    0  501 -0.48524182431E+03  0.25936107957E+03 -0.68136330872E+03  0.96279995645E+03  0.40000000000E+03 0.  1.
<mgrwt>
<rscale>  2 0.68024098E+03</rscale>
<asrwt>0</asrwt>
<pdfrwt beam="1">  1        1 0.40126810E-01 0.68024098E+03</pdfrwt>
<pdfrwt beam="2">  1       -1 0.27465347E+00 0.68024098E+03</pdfrwt>
<totfact> 0.53367446E+00</totfact>
</mgrwt>
</event>
<event>
 4    1  0.2247963E-002  0.5135809E+03  0.7818608E-02  0.1010294E+00
         -1   -1    0    0    0  501 -0.00000000000E+00  0.00000000000E+00  0.45227437863E+03  0.45227437863E+03  0.00000000000E+00 0.  1.
          1   -1    0    0  502    0  0.00000000000E+00 -0.00000000000E+00 -0.65495040337E+03  0.65495040337E+03  0.00000000000E+00 0. -1.
    9000007    1    1    2  502    0 -0.31356366864E+03  0.73777924978E+02 -0.28457825951E+03  0.58715427469E+03  0.40000000000E+03 0. -1.
   -9000007    1    1    2    0  501  0.31356366864E+03 -0.73777924978E+02  0.81902234772E+02  0.52007050730E+03  0.40000000000E+03 0.  1.
<mgrwt>
<rscale>  2 0.51358092E+03</rscale>
<asrwt>0</asrwt>
<pdfrwt beam="1">  1        1 0.10076160E+00 0.51358092E+03</pdfrwt>
<pdfrwt beam="2">  1       -1 0.69580673E-01 0.51358092E+03</pdfrwt>
<totfact> 0.65732121E+01</totfact>
</mgrwt>
</event>
<event>
 4    1  0.2247963E-002  0.4616203E+03  0.7818608E-02  0.1024312E+00
         -1   -1    0    0    0  501 -0.00000000000E+00  0.00000000000E+00  0.12580432019E+03  0.12580432019E+03  0.00000000000E+00 0.  1.
          1   -1    0    0  502    0  0.00000000000E+00 -0.00000000000E+00 -0.20491649577E+04  0.20491649577E+04  0.00000000000E+00 0. -1.
    9000007    1    1    2  502    0 -0.71010781971E+02 -0.21920488142E+03 -0.14145185142E+04  0.14879368058E+04  0.40000000000E+03 0. -1.
   -9000007    1    1    2    0  501  0.71010781971E+02  0.21920488142E+03 -0.50884212331E+03  0.68703247205E+03  0.40000000000E+03 0.  1.
<mgrwt>
<rscale>  2 0.46162031E+03</rscale>
<asrwt>0</asrwt>
<pdfrwt beam="1">  1        1 0.31525613E+00 0.46162031E+03</pdfrwt>
<pdfrwt beam="2">  1       -1 0.19354512E-01 0.46162031E+03</pdfrwt>
<totfact> 0.64177488E+01</totfact>
</mgrwt>
</event>
<event>
 4    1  0.2247963E-002  0.1271177E+04  0.7818608E-02  0.9052740E-01
          2   -1    0    0  502    0  0.00000000000E+00  0.00000000000E+00  0.12250472062E+04  0.12250472062E+04  0.00000000000E+00 0.  1.
         -2   -1    0    0    0  501 -0.00000000000E+00 -0.00000000000E+00 -0.13993579519E+04  0.13993579519E+04  0.00000000000E+00 0. -1.
    9000007    1    1    2  502    0  0.69198754571E+03 -0.98845549673E+03 -0.40151898627E+03  0.13330823413E+04  0.40000000000E+03 0. -1.
   -9000007    1    1    2    0  501 -0.69198754571E+03  0.98845549673E+03  0.22720824059E+03  0.12913228167E+04  0.40000000000E+03 0.  1.
<mgrwt>
<rscale>  2 0.12711770E+04</rscale>
<asrwt>0</asrwt>
<pdfrwt beam="1">  1        2 0.18846880E+00 0.12711770E+04</pdfrwt>
<pdfrwt beam="2">  1       -2 0.21528584E+00 0.12711770E+04</pdfrwt>
<totfact> 0.18685858E+00</totfact>
</mgrwt>
</event>
<event>
 4    1  0.2247963E-002  0.5367719E+03  0.7818608E-02  0.1004603E+00
          2   -1    0    0  502    0  0.00000000000E+00  0.00000000000E+00  0.13691279660E+04  0.13691279660E+04  0.00000000000E+00 0. -1.
         -2   -1    0    0    0  501 -0.00000000000E+00 -0.00000000000E+00 -0.29383537464E+03  0.29383537464E+03  0.00000000000E+00 0.  1.
    9000007    1    1    2  502    0  0.35098508499E+03 -0.70239486339E+02  0.98060418761E+03  0.11179037025E+04  0.40000000000E+03 0. -1.
   -9000007    1    1    2    0  501 -0.35098508499E+03  0.70239486339E+02  0.94688403759E+02  0.54505963814E+03  0.40000000000E+03 0.  1.
<mgrwt>
<rscale>  2 0.53677194E+03</rscale>
<asrwt>0</asrwt>
<pdfrwt beam="1">  1        2 0.21063507E+00 0.53677194E+03</pdfrwt>
<pdfrwt beam="2">  1       -2 0.45205443E-01 0.53677194E+03</pdfrwt>
<totfact> 0.72930346E+01</totfact>
</mgrwt>
</event>
<event>
 4    1  0.2247963E-002  0.4909572E+03  0.7818608E-02  0.1016167E+00
         -2   -1    0    0    0  501 -0.00000000000E+00  0.00000000000E+00  0.95164547151E+03  0.95164547151E+03  0.00000000000E+00 0. -1.
          2   -1    0    0  502    0  0.00000000000E+00 -0.00000000000E+00 -0.26236121248E+03  0.26236121248E+03  0.00000000000E+00 0.  1.
    9000007    1    1    2  502    0 -0.13098385100E+03  0.25274937357E+03  0.45753228898E+03  0.67109970237E+03  0.40000000000E+03 0. -1.
   -9000007    1    1    2    0  501  0.13098385100E+03 -0.25274937357E+03  0.23175197006E+03  0.54290698162E+03  0.40000000000E+03 0. -1.
<mgrwt>
<rscale>  2 0.49095724E+03</rscale>
<asrwt>0</asrwt>
<pdfrwt beam="1">  1        2 0.40363264E-01 0.49095724E+03</pdfrwt>
<pdfrwt beam="2">  1       -2 0.14640699E+00 0.49095724E+03</pdfrwt>
<totfact> 0.41987668E+01</totfact>
</mgrwt>
</event>
<event>
 4    1  0.2247963E-002  0.4249172E+03  0.7818608E-02  0.1035478E+00
         -2   -1    0    0    0  501 -0.00000000000E+00  0.00000000000E+00  0.13573020099E+03  0.13573020099E+03  0.00000000000E+00 0. -1.
          2   -1    0    0  502    0  0.00000000000E+00 -0.00000000000E+00 -0.16907817160E+04  0.16907817160E+04  0.00000000000E+00 0.  1.
    9000007    1    1    2  502    0 -0.22057402132E+02 -0.14166178558E+03 -0.35580717191E+03  0.55421415903E+03  0.40000000000E+03 0. -1.
   -9000007    1    1    2    0  501  0.22057402132E+02  0.14166178558E+03 -0.11992443431E+04  0.12722977580E+04  0.40000000000E+03 0.  1.
<mgrwt>
<rscale>  2 0.42491716E+03</rscale>
<asrwt>0</asrwt>
<pdfrwt beam="1">  1        2 0.26012027E+00 0.42491716E+03</pdfrwt>
<pdfrwt beam="2">  1       -2 0.20881569E-01 0.42491716E+03</pdfrwt>
<totfact> 0.20671567E+02</totfact>
</mgrwt>
</event>
<event>
 4    1  0.2247963E-002  0.4976758E+03  0.7818608E-02  0.1014387E+00
         -1   -1    0    0    0  501 -0.00000000000E+00  0.00000000000E+00  0.27731150361E+03  0.27731150361E+03  0.00000000000E+00 0.  1.
          1   -1    0    0  502    0  0.00000000000E+00 -0.00000000000E+00 -0.10103040805E+04  0.10103040805E+04  0.00000000000E+00 0. -1.
    9000007    1    1    2  502    0 -0.29548637593E+03 -0.19208210294E+02 -0.14726309162E+03  0.51900633123E+03  0.40000000000E+03 0.  1.
   -9000007    1    1    2    0  501  0.29548637593E+03  0.19208210294E+02 -0.58572948527E+03  0.76860925288E+03  0.40000000000E+03 0. -1.
<mgrwt>
<rscale>  2 0.49767575E+03</rscale>
<asrwt>0</asrwt>
<pdfrwt beam="1">  1        1 0.15543140E+00 0.49767575E+03</pdfrwt>
<pdfrwt beam="2">  1       -1 0.42663309E-01 0.49767575E+03</pdfrwt>
<totfact> 0.84190945E+01</totfact>
</mgrwt>
</event>
<event>
 4    1  0.2247963E-002  0.4864154E+03  0.7818608E-02  0.1017387E+00
          1   -1    0    0  502    0  0.00000000000E+00  0.00000000000E+00  0.21698131757E+04  0.21698131757E+04  0.00000000000E+00 0.  1.
         -1   -1    0    0    0  501 -0.00000000000E+00 -0.00000000000E+00 -0.11112828047E+03  0.11112828047E+03  0.00000000000E+00 0. -1.
    9000007    1    1    2  502    0  0.60093984942E+02 -0.27016406527E+03  0.11856210072E+04  0.12815213934E+04  0.40000000000E+03 0.  1.
   -9000007    1    1    2    0  501 -0.60093984942E+02  0.27016406527E+03  0.87306388812E+03  0.99942006280E+03  0.40000000000E+03 0.  1.
<mgrwt>
<rscale>  2 0.48641537E+03</rscale>
<asrwt>0</asrwt>
<pdfrwt beam="1">  1        1 0.33381738E+00 0.48641537E+03</pdfrwt>
<pdfrwt beam="2">  1       -1 0.17096660E-01 0.48641537E+03</pdfrwt>
<totfact> 0.65134168E+01</totfact>
</mgrwt>
</event>
<event>
 4    1  0.2247963E-002  0.4177250E+03  0.7818608E-02  0.1037809E+00
         -1   -1    0    0    0  501 -0.00000000000E+00  0.00000000000E+00  0.21947480578E+03  0.21947480578E+03  0.00000000000E+00 0.  1.
          1   -1    0    0  502    0  0.00000000000E+00 -0.00000000000E+00 -0.22056980251E+04  0.22056980251E+04  0.00000000000E+00 0. -1.
    9000007    1    1    2  502    0  0.24426890638E+02  0.11788781889E+03 -0.19628363290E+04  0.20067936280E+04  0.40000000000E+03 0. -1.
   -9000007    1    1    2    0  501 -0.24426890638E+02 -0.11788781889E+03 -0.23386890380E+02  0.41837920296E+03  0.40000000000E+03 0.  1.
<mgrwt>
<rscale>  2 0.41772504E+03</rscale>
<asrwt>0</asrwt>
<pdfrwt beam="1">  1        1 0.33933816E+00 0.41772504E+03</pdfrwt>
<pdfrwt beam="2">  1       -1 0.33765354E-01 0.41772504E+03</pdfrwt>
<totfact> 0.19895509E+01</totfact>
</mgrwt>
</event>
<event>
 4    1  0.2247963E-002  0.4158625E+03  0.7818608E-02  0.1038421E+00
          2   -1    0    0  502    0  0.00000000000E+00  0.00000000000E+00  0.11159423861E+04  0.11159423861E+04  0.00000000000E+00 0.  1.
         -2   -1    0    0    0  501 -0.00000000000E+00 -0.00000000000E+00 -0.17446512233E+03  0.17446512233E+03  0.00000000000E+00 0. -1.
    9000007    1    1    2  502    0  0.10419086654E+03 -0.45671815573E+02  0.68639636328E+03  0.80254695746E+03  0.40000000000E+03 0.  1.
   -9000007    1    1    2    0  501 -0.10419086654E+03  0.45671815573E+02  0.25508090050E+03  0.48786055098E+03  0.40000000000E+03 0.  1.
<mgrwt>
<rscale>  2 0.41586254E+03</rscale>
<asrwt>0</asrwt>
<pdfrwt beam="1">  1        2 0.17168344E+00 0.41586254E+03</pdfrwt>
<pdfrwt beam="2">  1       -2 0.26840789E-01 0.41586254E+03</pdfrwt>
<totfact> 0.27739011E+02</totfact>
</mgrwt>
</event>
<event>
 4    1  0.2247963E-002  0.4300600E+03  0.7818608E-02  0.1033841E+00
          1   -1    0    0  502    0  0.00000000000E+00  0.00000000000E+00  0.19502086731E+03  0.19502086731E+03  0.00000000000E+00 0. -1.
         -1   -1    0    0    0  501 -0.00000000000E+00 -0.00000000000E+00 -0.96413281108E+03  0.96413281108E+03  0.00000000000E+00 0.  1.
    9000007    1    1    2  502    0 -0.84674790339E+01  0.15773364184E+03 -0.31044484126E+03  0.53040324229E+03  0.40000000000E+03 0.  1.
   -9000007    1    1    2    0  501  0.84674790339E+01 -0.15773364184E+03 -0.45866710251E+03  0.62875043610E+03  0.40000000000E+03 0.  1.
<mgrwt>
<rscale>  2 0.43006000E+03</rscale>
<asrwt>0</asrwt>
<pdfrwt beam="1">  1        1 0.30003210E-01 0.43006000E+03</pdfrwt>
<pdfrwt beam="2">  1       -1 0.14832813E+00 0.43006000E+03</pdfrwt>
<totfact> 0.58032484E+01</totfact>
</mgrwt>
</event>
<event>
 4    1  0.2247963E-002  0.5253938E+03  0.7818608E-02  0.1007355E+00
          1   -1    0    0  502    0  0.00000000000E+00  0.00000000000E+00  0.65211767240E+03  0.65211767240E+03  0.00000000000E+00 0.  1.
         -1   -1    0    0    0  501 -0.00000000000E+00 -0.00000000000E+00 -0.44107502854E+03  0.44107502854E+03  0.00000000000E+00 0. -1.
    9000007    1    1    2  502    0  0.33147137596E+03  0.78520120594E+02  0.21526177533E+03  0.56778192498E+03  0.40000000000E+03 0. -1.
   -9000007    1    1    2    0  501 -0.33147137596E+03 -0.78520120594E+02 -0.42191314809E+01  0.52541077595E+03  0.40000000000E+03 0.  1.
<mgrwt>
<rscale>  2 0.52539384E+03</rscale>
<asrwt>0</asrwt>
<pdfrwt beam="1">  1        1 0.10032580E+00 0.52539384E+03</pdfrwt>
<pdfrwt beam="2">  1       -1 0.67857696E-01 0.52539384E+03</pdfrwt>
<totfact> 0.69494360E+01</totfact>
</mgrwt>
</event>
<event>
 4    1  0.2247963E-002  0.5756695E+03  0.7818608E-02  0.9957211E-01
          1   -1    0    0  502    0  0.00000000000E+00  0.00000000000E+00  0.17539971825E+04  0.17539971825E+04  0.00000000000E+00 0.  1.
         -1   -1    0    0    0  501 -0.00000000000E+00 -0.00000000000E+00 -0.22596170066E+03  0.22596170066E+03  0.00000000000E+00 0. -1.
    9000007    1    1    2  502    0 -0.27371509537E+03  0.31060489645E+03  0.36328646952E+03  0.68071463482E+03  0.40000000000E+03 0. -1.
   -9000007    1    1    2    0  501  0.27371509537E+03 -0.31060489645E+03  0.11647490124E+04  0.12992442484E+04  0.40000000000E+03 0.  1.
<mgrwt>
<rscale>  2 0.57566948E+03</rscale>
<asrwt>0</asrwt>
<pdfrwt beam="1">  1        1 0.26984571E+00 0.57566948E+03</pdfrwt>
<pdfrwt beam="2">  1       -1 0.34763340E-01 0.57566948E+03</pdfrwt>
<totfact> 0.36411978E+01</totfact>
</mgrwt>
</event>
<event>
 4    1  0.2247963E-002  0.4992842E+03  0.7818608E-02  0.1013966E+00
          2   -1    0    0  502    0  0.00000000000E+00  0.00000000000E+00  0.65365680263E+03  0.65365680263E+03  0.00000000000E+00 0.  1.
         -2   -1    0    0    0  501 -0.00000000000E+00 -0.00000000000E+00 -0.38156247078E+03  0.38156247078E+03  0.00000000000E+00 0. -1.
    9000007    1    1    2  502    0  0.28250580948E+03  0.97340661769E+02  0.12440539760E+03  0.51454974470E+03  0.40000000000E+03 0. -1.
   -9000007    1    1    2    0  501 -0.28250580948E+03 -0.97340661769E+02  0.14768893425E+03  0.52066952870E+03  0.40000000000E+03 0.  1.
<mgrwt>
<rscale>  2 0.49928422E+03</rscale>
<asrwt>0</asrwt>
<pdfrwt beam="1">  1        2 0.10056258E+00 0.49928422E+03</pdfrwt>
<pdfrwt beam="2">  1       -2 0.58701919E-01 0.49928422E+03</pdfrwt>
<totfact> 0.12454417E+02</totfact>
</mgrwt>
</event>
<event>
 4    1  0.2247963E-002  0.4300704E+03  0.7818608E-02  0.1033838E+00
         -1   -1    0    0    0  501 -0.00000000000E+00  0.00000000000E+00  0.27860921792E+03  0.27860921792E+03  0.00000000000E+00 0. -1.
          1   -1    0    0  502    0  0.00000000000E+00 -0.00000000000E+00 -0.73550476746E+03  0.73550476746E+03  0.00000000000E+00 0.  1.
    9000007    1    1    2  502    0  0.15416602075E+03  0.34544903920E+02 -0.70205082205E+02  0.43576285513E+03  0.40000000000E+03 0.  1.
   -9000007    1    1    2    0  501 -0.15416602075E+03 -0.34544903920E+02 -0.38669046733E+03  0.57835113025E+03  0.40000000000E+03 0. -1.
<mgrwt>
<rscale>  2 0.43007036E+03</rscale>
<asrwt>0</asrwt>
<pdfrwt beam="1">  1        1 0.11315458E+00 0.43007036E+03</pdfrwt>
<pdfrwt beam="2">  1       -1 0.42862957E-01 0.43007036E+03</pdfrwt>
<totfact> 0.14133527E+02</totfact>
</mgrwt>
</event>
<event>
 4    1  0.2247963E-002  0.5446126E+03  0.7818608E-02  0.1002749E+00
          1   -1    0    0  502    0  0.00000000000E+00  0.00000000000E+00  0.11537399452E+04  0.11537399452E+04  0.00000000000E+00 0.  1.
         -1   -1    0    0    0  501 -0.00000000000E+00 -0.00000000000E+00 -0.25717982792E+03  0.25717982792E+03  0.00000000000E+00 0. -1.
    9000007    1    1    2  502    0  0.23018210055E+03 -0.28916960148E+03  0.43434458251E+03  0.69660467569E+03  0.40000000000E+03 0.  1.
   -9000007    1    1    2    0  501 -0.23018210055E+03  0.28916960148E+03  0.46221553477E+03  0.71431509743E+03  0.40000000000E+03 0. -1.
<mgrwt>
<rscale>  2 0.54461258E+03</rscale>
<asrwt>0</asrwt>
<pdfrwt beam="1">  1        1 0.17749845E+00 0.54461258E+03</pdfrwt>
<pdfrwt beam="2">  1       -1 0.39566128E-01 0.54461258E+03</pdfrwt>
<totfact> 0.75065697E+01</totfact>
</mgrwt>
</event>
<event>
 4    1  0.2247963E-002  0.4626782E+03  0.7818608E-02  0.1024007E+00
         -2   -1    0    0    0  501 -0.00000000000E+00  0.00000000000E+00  0.18451414896E+03  0.18451414896E+03  0.00000000000E+00 0. -1.
          2   -1    0    0  502    0  0.00000000000E+00 -0.00000000000E+00 -0.12724186436E+04  0.12724186436E+04  0.00000000000E+00 0.  1.
    9000007    1    1    2  502    0 -0.20723027660E+03 -0.10548337890E+03 -0.76029877550E+03  0.89001424640E+03  0.40000000000E+03 0.  1.
   -9000007    1    1    2    0  501  0.20723027660E+03  0.10548337890E+03 -0.32760571912E+03  0.56691854615E+03  0.40000000000E+03 0.  1.
<mgrwt>
<rscale>  2 0.46267822E+03</rscale>
<asrwt>0</asrwt>
<pdfrwt beam="1">  1        2 0.19575671E+00 0.46267822E+03</pdfrwt>
<pdfrwt beam="2">  1       -2 0.28386793E-01 0.46267822E+03</pdfrwt>
<totfact> 0.20218301E+02</totfact>
</mgrwt>
</event>
<event>
 4    1  0.2247963E-002  0.4508708E+03  0.7818608E-02  0.1027463E+00
         -1   -1    0    0    0  501 -0.00000000000E+00  0.00000000000E+00  0.13173173300E+03  0.13173173300E+03  0.00000000000E+00 0.  1.
          1   -1    0    0  502    0  0.00000000000E+00 -0.00000000000E+00 -0.16776277616E+04  0.16776277616E+04  0.00000000000E+00 0. -1.
    9000007    1    1    2  502    0  0.25629608557E+02 -0.20646460549E+03 -0.51683044586E+03  0.68585583028E+03  0.40000000000E+03 0.  1.
   -9000007    1    1    2    0  501 -0.25629608557E+02  0.20646460549E+03 -0.10290655827E+04  0.11235036643E+04  0.40000000000E+03 0. -1.
<mgrwt>
<rscale>  2 0.45087084E+03</rscale>
<asrwt>0</asrwt>
<pdfrwt beam="1">  1        1 0.25809656E+00 0.45087084E+03</pdfrwt>
<pdfrwt beam="2">  1       -1 0.20266422E-01 0.45087084E+03</pdfrwt>
<totfact> 0.10488137E+02</totfact>
</mgrwt>
</event>
<event>
 4    1  0.2247963E-002  0.5379704E+03  0.7818608E-02  0.1004317E+00
          2   -1    0    0  502    0  0.00000000000E+00  0.00000000000E+00  0.98930931279E+03  0.98930931279E+03  0.00000000000E+00 0.  1.
         -2   -1    0    0    0  501 -0.00000000000E+00 -0.00000000000E+00 -0.35198490885E+03  0.35198490885E+03  0.00000000000E+00 0. -1.
    9000007    1    1    2  502    0 -0.32287538902E+03  0.15863035137E+03  0.43054723521E+02  0.53969048021E+03  0.40000000000E+03 0. -1.
   -9000007    1    1    2    0  501  0.32287538902E+03 -0.15863035137E+03  0.59426968042E+03  0.80160374143E+03  0.40000000000E+03 0.  1.
<mgrwt>
<rscale>  2 0.53797036E+03</rscale>
<asrwt>0</asrwt>
<pdfrwt beam="1">  1        2 0.15220143E+00 0.53797036E+03</pdfrwt>
<pdfrwt beam="2">  1       -2 0.54151525E-01 0.53797036E+03</pdfrwt>
<totfact> 0.84937154E+01</totfact>
</mgrwt>
</event>
<event>
 4    1  0.2247963E-002  0.4367214E+03  0.7818608E-02  0.1031758E+00
         -1   -1    0    0    0  501 -0.00000000000E+00  0.00000000000E+00  0.60689533563E+03  0.60689533563E+03  0.00000000000E+00 0. -1.
          1   -1    0    0  502    0  0.00000000000E+00 -0.00000000000E+00 -0.35244843471E+03  0.35244843471E+03  0.00000000000E+00 0.  1.
    9000007    1    1    2  502    0  0.10780738646E+03  0.13821406328E+03 -0.30660411579E+02  0.43779632331E+03  0.40000000000E+03 0.  1.
   -9000007    1    1    2    0  501 -0.10780738646E+03 -0.13821406328E+03  0.28510731250E+03  0.52154744703E+03  0.40000000000E+03 0. -1.
<mgrwt>
<rscale>  2 0.43672138E+03</rscale>
<asrwt>0</asrwt>
<pdfrwt beam="1">  1        1 0.54222836E-01 0.43672138E+03</pdfrwt>
<pdfrwt beam="2">  1       -1 0.93368513E-01 0.43672138E+03</pdfrwt>
<totfact> 0.82648383E+01</totfact>
</mgrwt>
</event>
<event>
 4    1  0.2247963E-002  0.4023734E+03  0.7818608E-02  0.1042961E+00
         -2   -1    0    0    0  501 -0.00000000000E+00  0.00000000000E+00  0.55527388116E+03  0.55527388116E+03  0.00000000000E+00 0. -1.
          2   -1    0    0  502    0  0.00000000000E+00 -0.00000000000E+00 -0.30386901270E+03  0.30386901270E+03  0.00000000000E+00 0.  1.
    9000007    1    1    2  502    0  0.17897750152E+02 -0.39799825186E+02  0.21210510006E+03  0.45485484390E+03  0.40000000000E+03 0. -1.
   -9000007    1    1    2    0  501 -0.17897750152E+02  0.39799825186E+02  0.39299768407E+02  0.40428804996E+03  0.40000000000E+03 0.  1.
<mgrwt>
<rscale>  2 0.40237340E+03</rscale>
<asrwt>0</asrwt>
<pdfrwt beam="1">  1        2 0.46749079E-01 0.40237340E+03</pdfrwt>
<pdfrwt beam="2">  1       -2 0.85426751E-01 0.40237340E+03</pdfrwt>
<totfact> 0.13243434E+02</totfact>
</mgrwt>
</event>
<event>
 4    1  0.2247963E-002  0.4996327E+03  0.7818608E-02  0.1013875E+00
         -2   -1    0    0    0  501 -0.00000000000E+00  0.00000000000E+00  0.80418207082E+02  0.80418207082E+02  0.00000000000E+00 0. -1.
          2   -1    0    0  502    0  0.00000000000E+00 -0.00000000000E+00 -0.34802428158E+04  0.34802428158E+04  0.00000000000E+00 0.  1.
    9000007    1    1    2  502    0 -0.49867995059E+02  0.29520510052E+03 -0.22851389089E+04  0.23391222074E+04  0.40000000000E+03 0.  1.
   -9000007    1    1    2    0  501  0.49867995059E+02 -0.29520510052E+03 -0.11146856999E+04  0.12215388155E+04  0.40000000000E+03 0. -1.
<mgrwt>
<rscale>  2 0.49963273E+03</rscale>
<asrwt>0</asrwt>
<pdfrwt beam="1">  1        2 0.53542207E+00 0.49963273E+03</pdfrwt>
<pdfrwt beam="2">  1       -2 0.12372030E-01 0.49963273E+03</pdfrwt>
<totfact> 0.45806033E+01</totfact>
</mgrwt>
</event>
<event>
 4    1  0.2247963E-002  0.5385610E+03  0.7818608E-02  0.1004177E+00
          2   -1    0    0  502    0  0.00000000000E+00  0.00000000000E+00  0.45101822134E+03  0.45101822134E+03  0.00000000000E+00 0. -1.
         -2   -1    0    0    0  501 -0.00000000000E+00 -0.00000000000E+00 -0.66423218426E+03  0.66423218426E+03  0.00000000000E+00 0.  1.
    9000007    1    1    2  502    0 -0.73384676505E+02 -0.35307598617E+03 -0.71358864160E+01  0.53860828403E+03  0.40000000000E+03 0. -1.
   -9000007    1    1    2    0  501  0.73384676505E+02  0.35307598617E+03 -0.20607807650E+03  0.57664212157E+03  0.40000000000E+03 0.  1.
<mgrwt>
<rscale>  2 0.53856101E+03</rscale>
<asrwt>0</asrwt>
<pdfrwt beam="1">  1        2 0.69387419E-01 0.53856101E+03</pdfrwt>
<pdfrwt beam="2">  1       -2 0.10218957E+00 0.53856101E+03</pdfrwt>
<totfact> 0.55892832E+01</totfact>
</mgrwt>
</event>
<event>
 4    1  0.2247963E-002  0.4417168E+03  0.7818608E-02  0.1030221E+00
          2   -1    0    0  502    0  0.00000000000E+00  0.00000000000E+00  0.31784810063E+04  0.31784810063E+04  0.00000000000E+00 0. -1.
         -2   -1    0    0    0  501 -0.00000000000E+00 -0.00000000000E+00 -0.61882749913E+02  0.61882749913E+02  0.00000000000E+00 0.  1.
    9000007    1    1    2  502    0 -0.16269016728E+03 -0.92982097723E+02  0.17034812203E+04  0.17598187489E+04  0.40000000000E+03 0.  1.
   -9000007    1    1    2    0  501  0.16269016728E+03  0.92982097723E+02  0.14131170361E+04  0.14805450073E+04  0.40000000000E+03 0.  1.
<mgrwt>
<rscale>  2 0.44171683E+03</rscale>
<asrwt>0</asrwt>
<pdfrwt beam="1">  1        2 0.48899695E+00 0.44171683E+03</pdfrwt>
<pdfrwt beam="2">  1       -2 0.95204255E-02 0.44171683E+03</pdfrwt>
<totfact> 0.11141792E+02</totfact>
</mgrwt>
</event>
<event>
 4    1  0.2247963E-002  0.4000118E+03  0.7818608E-02  0.1043776E+00
         -2   -1    0    0    0  501 -0.00000000000E+00  0.00000000000E+00  0.11019435566E+03  0.11019435566E+03  0.00000000000E+00 0. -1.
          2   -1    0    0  502    0  0.00000000000E+00 -0.00000000000E+00 -0.16591607195E+04  0.16591607195E+04  0.00000000000E+00 0.  1.
    9000007    1    1    2  502    0 -0.14667500234E+01  0.27052571449E+01 -0.46192897008E+03  0.61105469736E+03  0.40000000000E+03 0. -1.
   -9000007    1    1    2    0  501  0.14667500234E+01 -0.27052571449E+01 -0.10870373938E+04  0.11583003778E+04  0.40000000000E+03 0.  1.
<mgrwt>
<rscale>  2 0.40001184E+03</rscale>
<asrwt>0</asrwt>
<pdfrwt beam="1">  1        2 0.25525548E+00 0.40001184E+03</pdfrwt>
<pdfrwt beam="2">  1       -2 0.16952979E-01 0.40001184E+03</pdfrwt>
<totfact> 0.30855084E+02</totfact>
</mgrwt>
</event>
<event>
 4    1  0.2247963E-002  0.4568609E+03  0.7818608E-02  0.1025696E+00
         -2   -1    0    0    0  501 -0.00000000000E+00  0.00000000000E+00  0.21045058123E+03  0.21045058123E+03  0.00000000000E+00 0. -1.
          2   -1    0    0  502    0  0.00000000000E+00 -0.00000000000E+00 -0.12171156003E+04  0.12171156003E+04  0.00000000000E+00 0.  1.
    9000007    1    1    2  502    0 -0.19686899727E+03  0.99822342347E+02 -0.19621142104E+03  0.49721305681E+03  0.40000000000E+03 0. -1.
   -9000007    1    1    2    0  501  0.19686899727E+03 -0.99822342347E+02 -0.81045359806E+03  0.93035312475E+03  0.40000000000E+03 0.  1.
<mgrwt>
<rscale>  2 0.45686092E+03</rscale>
<asrwt>0</asrwt>
<pdfrwt beam="1">  1        2 0.18724856E+00 0.45686092E+03</pdfrwt>
<pdfrwt beam="2">  1       -2 0.32377012E-01 0.45686092E+03</pdfrwt>
<totfact> 0.17078606E+02</totfact>
</mgrwt>
</event>
<event>
 4    1  0.2247963E-002  0.4222451E+03  0.7818608E-02  0.1036338E+00
         -1   -1    0    0    0  501 -0.00000000000E+00  0.00000000000E+00  0.37011370372E+03  0.37011370372E+03  0.00000000000E+00 0.  1.
          1   -1    0    0  502    0  0.00000000000E+00 -0.00000000000E+00 -0.50672869755E+03  0.50672869755E+03  0.00000000000E+00 0. -1.
    9000007    1    1    2  502    0  0.49051844352E+02 -0.12603491245E+03 -0.16570686860E+03  0.45359635017E+03  0.40000000000E+03 0. -1.
   -9000007    1    1    2    0  501 -0.49051844352E+02  0.12603491245E+03  0.29091874772E+02  0.42324605110E+03  0.40000000000E+03 0.  1.
<mgrwt>
<rscale>  2 0.42224505E+03</rscale>
<asrwt>0</asrwt>
<pdfrwt beam="1">  1        1 0.77958261E-01 0.42224505E+03</pdfrwt>
<pdfrwt beam="2">  1       -1 0.56940570E-01 0.42224505E+03</pdfrwt>
<totfact> 0.14151007E+02</totfact>
</mgrwt>
</event>
<event>
 4    1  0.2247963E-002  0.4593830E+03  0.7818608E-02  0.1024960E+00
         -2   -1    0    0    0  501 -0.00000000000E+00  0.00000000000E+00  0.10864892990E+04  0.10864892990E+04  0.00000000000E+00 0.  1.
          2   -1    0    0  502    0  0.00000000000E+00 -0.00000000000E+00 -0.19622674131E+03  0.19622674131E+03  0.00000000000E+00 0. -1.
    9000007    1    1    2  502    0  0.91570088069E+02  0.20651314268E+03  0.50976919546E+03  0.68621963814E+03  0.40000000000E+03 0.  1.
   -9000007    1    1    2    0  501 -0.91570088069E+02 -0.20651314268E+03  0.38049336226E+03  0.59649640221E+03  0.40000000000E+03 0. -1.
<mgrwt>
<rscale>  2 0.45938302E+03</rscale>
<asrwt>0</asrwt>
<pdfrwt beam="1">  1        2 0.30188730E-01 0.45938302E+03</pdfrwt>
<pdfrwt beam="2">  1       -2 0.16715220E+00 0.45938302E+03</pdfrwt>
<totfact> 0.40843532E+01</totfact>
</mgrwt>
</event>
<event>
 4    1  0.2247963E-002  0.4117698E+03  0.7818608E-02  0.1039779E+00
          3   -1    0    0  502    0  0.00000000000E+00  0.00000000000E+00  0.16795604326E+04  0.16795604326E+04  0.00000000000E+00 0.  1.
         -3   -1    0    0    0  501 -0.00000000000E+00 -0.00000000000E+00 -0.10586401624E+03  0.10586401624E+03  0.00000000000E+00 0. -1.
    9000007    1    1    2  502    0 -0.70306020249E+02  0.67907490554E+02  0.59454632327E+03  0.72321483273E+03  0.40000000000E+03 0. -1.
   -9000007    1    1    2    0  501  0.70306020249E+02 -0.67907490554E+02  0.97915009305E+03  0.10622096161E+04  0.40000000000E+03 0.  1.
<mgrwt>
<rscale>  2 0.41176979E+03</rscale>
<asrwt>0</asrwt>
<pdfrwt beam="1">  1        3 0.25839389E+00 0.41176979E+03</pdfrwt>
<pdfrwt beam="2">  1       -3 0.16286773E-01 0.41176979E+03</pdfrwt>
<totfact> 0.59125776E+00</totfact>
</mgrwt>
</event>
<event>
 4    1  0.2247963E-002  0.4941006E+03  0.7818608E-02  0.1015330E+00
          2   -1    0    0  502    0  0.00000000000E+00  0.00000000000E+00  0.37575362981E+03  0.37575362981E+03  0.00000000000E+00 0. -1.
         -2   -1    0    0    0  501 -0.00000000000E+00 -0.00000000000E+00 -0.67988710505E+03  0.67988710505E+03  0.00000000000E+00 0.  1.
    9000007    1    1    2  502    0  0.29001552968E+03 -0.51390900794E+01 -0.40888490671E+02  0.49578955856E+03  0.40000000000E+03 0.  1.
   -9000007    1    1    2    0  501 -0.29001552968E+03  0.51390900794E+01 -0.26324498457E+03  0.55985117630E+03  0.40000000000E+03 0. -1.
<mgrwt>
<rscale>  2 0.49410061E+03</rscale>
<asrwt>0</asrwt>
<pdfrwt beam="1">  1        2 0.57808252E-01 0.49410061E+03</pdfrwt>
<pdfrwt beam="2">  1       -2 0.10459801E+00 0.49410061E+03</pdfrwt>
<totfact> 0.65109351E+01</totfact>
</mgrwt>
</event>
<event>
 4    1  0.2247963E-002  0.4086325E+03  0.7818608E-02  0.1040831E+00
         -2   -1    0    0    0  501 -0.00000000000E+00  0.00000000000E+00  0.33478847632E+03  0.33478847632E+03  0.00000000000E+00 0.  1.
          2   -1    0    0  502    0  0.00000000000E+00 -0.00000000000E+00 -0.74359923628E+03  0.74359923628E+03  0.00000000000E+00 0. -1.
    9000007    1    1    2  502    0 -0.82122398597E+02  0.15375641696E+02  0.10498889371E+03  0.42190421485E+03  0.40000000000E+03 0.  1.
   -9000007    1    1    2    0  501  0.82122398597E+02 -0.15375641696E+02 -0.51379965367E+03  0.65648349775E+03  0.40000000000E+03 0. -1.
<mgrwt>
<rscale>  2 0.40863247E+03</rscale>
<asrwt>0</asrwt>
<pdfrwt beam="1">  1        2 0.11439988E+00 0.40863247E+03</pdfrwt>
<pdfrwt beam="2">  1       -2 0.51505920E-01 0.40863247E+03</pdfrwt>
<totfact> 0.14007442E+02</totfact>
</mgrwt>
</event>
<event>
 4    1  0.2247963E-002  0.4587922E+03  0.7818608E-02  0.1025132E+00
         -2   -1    0    0    0  501 -0.00000000000E+00  0.00000000000E+00  0.11430692894E+03  0.11430692894E+03  0.00000000000E+00 0. -1.
          2   -1    0    0  502    0  0.00000000000E+00 -0.00000000000E+00 -0.18606004628E+04  0.18606004628E+04  0.00000000000E+00 0.  1.
    9000007    1    1    2  502    0 -0.18642065166E+03 -0.12544968434E+03 -0.97333132953E+03  0.10760409656E+04  0.40000000000E+03 0. -1.
   -9000007    1    1    2    0  501  0.18642065166E+03  0.12544968434E+03 -0.77296220432E+03  0.89886642610E+03  0.40000000000E+03 0. -1.
<mgrwt>
<rscale>  2 0.45879220E+03</rscale>
<asrwt>0</asrwt>
<pdfrwt beam="1">  1        2 0.28624622E+00 0.45879220E+03</pdfrwt>
<pdfrwt beam="2">  1       -2 0.17585682E-01 0.45879220E+03</pdfrwt>
<totfact> 0.22437927E+02</totfact>
</mgrwt>
</event>
<event>
 4    1  0.2247963E-002  0.4203879E+03  0.7818608E-02  0.1036940E+00
          1   -1    0    0  502    0  0.00000000000E+00  0.00000000000E+00  0.27256446971E+04  0.27256446971E+04  0.00000000000E+00 0. -1.
         -1   -1    0    0    0  501 -0.00000000000E+00 -0.00000000000E+00 -0.73805601116E+02  0.73805601116E+02  0.00000000000E+00 0.  1.
    9000007    1    1    2  502    0  0.20181079431E+02  0.12774480430E+03  0.83802003861E+03  0.93755191649E+03  0.40000000000E+03 0.  1.
   -9000007    1    1    2    0  501 -0.20181079431E+02 -0.12774480430E+03  0.18138190574E+04  0.18618983817E+04  0.40000000000E+03 0. -1.
<mgrwt>
<rscale>  2 0.42038793E+03</rscale>
<asrwt>0</asrwt>
<pdfrwt beam="1">  1        1 0.41932988E+00 0.42038793E+03</pdfrwt>
<pdfrwt beam="2">  1       -1 0.11354710E-01 0.42038793E+03</pdfrwt>
<totfact> 0.53757947E+01</totfact>
</mgrwt>
</event>
<event>
 4    1  0.2247963E-002  0.4485595E+03  0.7818608E-02  0.1028152E+00
         -2   -1    0    0    0  501 -0.00000000000E+00  0.00000000000E+00  0.37761658213E+03  0.37761658213E+03  0.00000000000E+00 0.  1.
          2   -1    0    0  502    0  0.00000000000E+00 -0.00000000000E+00 -0.56798636935E+03  0.56798636935E+03  0.00000000000E+00 0. -1.
    9000007    1    1    2  502    0 -0.45723561160E+01 -0.20294023276E+03 -0.21281231790E+03  0.49648235332E+03  0.40000000000E+03 0. -1.
   -9000007    1    1    2    0  501  0.45723561160E+01  0.20294023276E+03  0.22442530679E+02  0.44912059816E+03  0.40000000000E+03 0.  1.
<mgrwt>
<rscale>  2 0.44855952E+03</rscale>
<asrwt>0</asrwt>
<pdfrwt beam="1">  1        2 0.87382518E-01 0.44855952E+03</pdfrwt>
<pdfrwt beam="2">  1       -2 0.58094859E-01 0.44855952E+03</pdfrwt>
<totfact> 0.15115416E+02</totfact>
</mgrwt>
</event>
<event>
 4    1  0.2247963E-002  0.5321518E+03  0.7818608E-02  0.1005712E+00
          2   -1    0    0  502    0  0.00000000000E+00  0.00000000000E+00  0.65575964829E+03  0.65575964829E+03  0.00000000000E+00 0.  1.
         -2   -1    0    0    0  501 -0.00000000000E+00 -0.00000000000E+00 -0.44279846683E+03  0.44279846683E+03  0.00000000000E+00 0. -1.
    9000007    1    1    2  502    0 -0.87055479008E+02 -0.34001014185E+03  0.19287689759E+03  0.56602742920E+03  0.40000000000E+03 0.  1.
   -9000007    1    1    2    0  501  0.87055479008E+02  0.34001014185E+03  0.20084283877E+02  0.53253068592E+03  0.40000000000E+03 0.  1.
<mgrwt>
<rscale>  2 0.53215181E+03</rscale>
<asrwt>0</asrwt>
<pdfrwt beam="1">  1        2 0.10088610E+00 0.53215181E+03</pdfrwt>
<pdfrwt beam="2">  1       -2 0.68122841E-01 0.53215181E+03</pdfrwt>
<totfact> 0.90183819E+01</totfact>
</mgrwt>
</event>
<event>
 4    1  0.2247963E-002  0.5283068E+03  0.7818608E-02  0.1006644E+00
         -1   -1    0    0    0  501 -0.00000000000E+00  0.00000000000E+00  0.17867753325E+03  0.17867753325E+03  0.00000000000E+00 0.  1.
          1   -1    0    0  502    0  0.00000000000E+00 -0.00000000000E+00 -0.31931824763E+04  0.31931824763E+04  0.00000000000E+00 0. -1.
    9000007    1    1    2  502    0 -0.18020145088E+03  0.29433902135E+03 -0.30230330379E+03  0.60868325907E+03  0.40000000000E+03 0.  1.
   -9000007    1    1    2    0  501  0.18020145088E+03 -0.29433902135E+03 -0.27122016392E+04  0.27631767505E+04  0.40000000000E+03 0. -1.
<mgrwt>
<rscale>  2 0.52830675E+03</rscale>
<asrwt>0</asrwt>
<pdfrwt beam="1">  1        1 0.49125884E+00 0.52830675E+03</pdfrwt>
<pdfrwt beam="2">  1       -1 0.27488852E-01 0.52830675E+03</pdfrwt>
<totfact> 0.57485013E+00</totfact>
</mgrwt>
</event>
<event>
 4    1  0.2247963E-002  0.4222874E+03  0.7818608E-02  0.1036324E+00
          2   -1    0    0  502    0  0.00000000000E+00  0.00000000000E+00  0.15127263593E+04  0.15127263593E+04  0.00000000000E+00 0. -1.
         -2   -1    0    0    0  501 -0.00000000000E+00 -0.00000000000E+00 -0.12616980968E+03  0.12616980968E+03  0.00000000000E+00 0.  1.
    9000007    1    1    2  502    0 -0.53084279993E+02 -0.12453389769E+03  0.48328552695E+03  0.64178776322E+03  0.40000000000E+03 0.  1.
   -9000007    1    1    2    0  501  0.53084279993E+02  0.12453389769E+03  0.90327102264E+03  0.99710840574E+03  0.40000000000E+03 0. -1.
<mgrwt>
<rscale>  2 0.42228738E+03</rscale>
<asrwt>0</asrwt>
<pdfrwt beam="1">  1        2 0.23272712E+00 0.42228738E+03</pdfrwt>
<pdfrwt beam="2">  1       -2 0.19410741E-01 0.42228738E+03</pdfrwt>
<totfact> 0.29290261E+02</totfact>
</mgrwt>
</event>
<event>
 4    1  0.2247963E-002  0.4463583E+03  0.7818608E-02  0.1028814E+00
          2   -1    0    0  502    0  0.00000000000E+00  0.00000000000E+00  0.32840488585E+03  0.32840488585E+03  0.00000000000E+00 0. -1.
         -2   -1    0    0    0  501 -0.00000000000E+00 -0.00000000000E+00 -0.60879361651E+03  0.60879361651E+03  0.00000000000E+00 0.  1.
    9000007    1    1    2  502    0  0.26352367955E+02 -0.19631927019E+03 -0.16782455195E+03  0.47686558209E+03  0.40000000000E+03 0. -1.
   -9000007    1    1    2    0  501 -0.26352367955E+02  0.19631927019E+03 -0.11256417870E+03  0.46033292026E+03  0.40000000000E+03 0.  1.
<mgrwt>
<rscale>  2 0.44635827E+03</rscale>
<asrwt>0</asrwt>
<pdfrwt beam="1">  1        2 0.50523829E-01 0.44635827E+03</pdfrwt>
<pdfrwt beam="2">  1       -2 0.93660555E-01 0.44635827E+03</pdfrwt>
<totfact> 0.98263958E+01</totfact>
</mgrwt>
</event>
<event>
 4    1  0.2247963E-002  0.4443879E+03  0.7818608E-02  0.1029409E+00
          1   -1    0    0  502    0  0.00000000000E+00  0.00000000000E+00  0.46381747661E+03  0.46381747661E+03  0.00000000000E+00 0.  1.
         -1   -1    0    0    0  501 -0.00000000000E+00 -0.00000000000E+00 -0.42590289490E+03  0.42590289490E+03  0.00000000000E+00 0. -1.
    9000007    1    1    2  502    0  0.77784864943E+02 -0.17728552206E+03  0.26746683002E+02  0.44519212324E+03  0.40000000000E+03 0. -1.
   -9000007    1    1    2    0  501 -0.77784864943E+02  0.17728552206E+03  0.11167898710E+02  0.44452824827E+03  0.40000000000E+03 0. -1.
<mgrwt>
<rscale>  2 0.44438794E+03</rscale>
<asrwt>0</asrwt>
<pdfrwt beam="1">  1        1 0.71356535E-01 0.44438794E+03</pdfrwt>
<pdfrwt beam="2">  1       -1 0.65523522E-01 0.44438794E+03</pdfrwt>
<totfact> 0.12081478E+02</totfact>
</mgrwt>
</event>
<event>
 4    1  0.2247963E-002  0.4094711E+03  0.7818608E-02  0.1040549E+00
         -2   -1    0    0    0  501 -0.00000000000E+00  0.00000000000E+00  0.16173707260E+03  0.16173707260E+03  0.00000000000E+00 0. -1.
          2   -1    0    0  502    0  0.00000000000E+00 -0.00000000000E+00 -0.10522584248E+04  0.10522584248E+04  0.00000000000E+00 0.  1.
    9000007    1    1    2  502    0 -0.65928415941E+02  0.57619997080E+02 -0.51916048499E+03  0.66120664642E+03  0.40000000000E+03 0.  1.
   -9000007    1    1    2    0  501  0.65928415941E+02 -0.57619997080E+02 -0.37136086724E+03  0.55278885102E+03  0.40000000000E+03 0. -1.
<mgrwt>
<rscale>  2 0.40947115E+03</rscale>
<asrwt>0</asrwt>
<pdfrwt beam="1">  1        2 0.16188591E+00 0.40947115E+03</pdfrwt>
<pdfrwt beam="2">  1       -2 0.24882626E-01 0.40947115E+03</pdfrwt>
<totfact> 0.34735002E+02</totfact>
</mgrwt>
</event>
<event>
 4    1  0.2247963E-002  0.7050613E+03  0.7818608E-02  0.9708616E-01
          1   -1    0    0  502    0  0.00000000000E+00  0.00000000000E+00  0.19929708585E+04  0.19929708585E+04  0.00000000000E+00 0.  1.
         -1   -1    0    0    0  501 -0.00000000000E+00 -0.00000000000E+00 -0.33414239856E+03  0.33414239856E+03  0.00000000000E+00 0. -1.
    9000007    1    1    2  502    0 -0.45124489327E+03 -0.36536215862E+03  0.24356060008E+03  0.74594451976E+03  0.40000000000E+03 0. -1.
   -9000007    1    1    2    0  501  0.45124489327E+03  0.36536215862E+03  0.14152678599E+04  0.15811687373E+04  0.40000000000E+03 0.  1.
<mgrwt>
<rscale>  2 0.70506132E+03</rscale>
<asrwt>0</asrwt>
<pdfrwt beam="1">  1        1 0.30661089E+00 0.70506132E+03</pdfrwt>
<pdfrwt beam="2">  1       -1 0.51406524E-01 0.70506132E+03</pdfrwt>
<totfact> 0.12064970E+01</totfact>
</mgrwt>
</event>
<event>
 4    1  0.2247963E-002  0.6046186E+03  0.7818608E-02  0.9895870E-01
          2   -1    0    0  502    0  0.00000000000E+00  0.00000000000E+00  0.18307032832E+04  0.18307032832E+04  0.00000000000E+00 0.  1.
         -2   -1    0    0    0  501 -0.00000000000E+00 -0.00000000000E+00 -0.23611907078E+03  0.23611907078E+03  0.00000000000E+00 0. -1.
    9000007    1    1    2  502    0 -0.28449799075E+03 -0.35302197748E+03  0.12032328549E+04  0.13466005073E+04  0.40000000000E+03 0.  1.
   -9000007    1    1    2    0  501  0.28449799075E+03  0.35302197748E+03  0.39135135755E+03  0.72022184664E+03  0.40000000000E+03 0. -1.
<mgrwt>
<rscale>  2 0.60461858E+03</rscale>
<asrwt>0</asrwt>
<pdfrwt beam="1">  1        2 0.28164665E+00 0.60461858E+03</pdfrwt>
<pdfrwt beam="2">  1       -2 0.36326012E-01 0.60461858E+03</pdfrwt>
<totfact> 0.61802539E+01</totfact>
</mgrwt>
</event>
<event>
 4    1  0.2247963E-002  0.4528959E+03  0.7818608E-02  0.1026862E+00
          2   -1    0    0  502    0  0.00000000000E+00  0.00000000000E+00  0.15320553132E+04  0.15320553132E+04  0.00000000000E+00 0. -1.
         -2   -1    0    0    0  501 -0.00000000000E+00 -0.00000000000E+00 -0.14621296465E+03  0.14621296465E+03  0.00000000000E+00 0.  1.
    9000007    1    1    2  502    0  0.32730004762E+01  0.21237690033E+03  0.44923178485E+03  0.63790583698E+03  0.40000000000E+03 0.  1.
   -9000007    1    1    2    0  501 -0.32730004762E+01 -0.21237690033E+03  0.93661056367E+03  0.10403624408E+04  0.40000000000E+03 0. -1.
<mgrwt>
<rscale>  2 0.45289586E+03</rscale>
<asrwt>0</asrwt>
<pdfrwt beam="1">  1        2 0.23570081E+00 0.45289586E+03</pdfrwt>
<pdfrwt beam="2">  1       -2 0.22494303E-01 0.45289586E+03</pdfrwt>
<totfact> 0.22027274E+02</totfact>
</mgrwt>
</event>
<event>
 4    1  0.2247963E-002  0.4203179E+03  0.7818608E-02  0.1036963E+00
         -1   -1    0    0    0  501 -0.00000000000E+00  0.00000000000E+00  0.97400836798E+03  0.97400836798E+03  0.00000000000E+00 0.  1.
          1   -1    0    0  502    0  0.00000000000E+00 -0.00000000000E+00 -0.18164396987E+03  0.18164396987E+03  0.00000000000E+00 0. -1.
    9000007    1    1    2  502    0  0.86342478689E+02 -0.95979953710E+02  0.37422071973E+03  0.56276844458E+03  0.40000000000E+03 0. -1.
   -9000007    1    1    2    0  501 -0.86342478689E+02  0.95979953710E+02  0.41814367838E+03  0.59288389328E+03  0.40000000000E+03 0. -1.
<mgrwt>
<rscale>  2 0.42031795E+03</rscale>
<asrwt>0</asrwt>
<pdfrwt beam="1">  1        1 0.27945227E-01 0.42031795E+03</pdfrwt>
<pdfrwt beam="2">  1       -1 0.14984744E+00 0.42031795E+03</pdfrwt>
<totfact> 0.61961192E+01</totfact>
</mgrwt>
</event>
<event>
 4    1  0.2247963E-002  0.7490515E+03  0.7818608E-02  0.9636840E-01
          2   -1    0    0  502    0  0.00000000000E+00  0.00000000000E+00  0.14356308406E+04  0.14356308406E+04  0.00000000000E+00 0.  1.
         -2   -1    0    0    0  501 -0.00000000000E+00 -0.00000000000E+00 -0.81694614506E+03  0.81694614506E+03  0.00000000000E+00 0. -1.
    9000007    1    1    2  502    0  0.50764444821E+03 -0.37864931539E+03 -0.50408780776E+03  0.90287469107E+03  0.40000000000E+03 0. -1.
   -9000007    1    1    2    0  501 -0.50764444821E+03  0.37864931539E+03  0.11227725033E+04  0.13497022946E+04  0.40000000000E+03 0.  1.
<mgrwt>
<rscale>  2 0.74905153E+03</rscale>
<asrwt>0</asrwt>
<pdfrwt beam="1">  1        2 0.22086628E+00 0.74905153E+03</pdfrwt>
<pdfrwt beam="2">  1       -2 0.12568402E+00 0.74905153E+03</pdfrwt>
<totfact> 0.66883790E+00</totfact>
</mgrwt>
</event>
<event>
 4    1  0.2247963E-002  0.4991397E+03  0.7818608E-02  0.1014004E+00
         -2   -1    0    0    0  501 -0.00000000000E+00  0.00000000000E+00  0.16541652261E+03  0.16541652261E+03  0.00000000000E+00 0.  1.
          2   -1    0    0  502    0  0.00000000000E+00 -0.00000000000E+00 -0.22804143352E+04  0.22804143352E+04  0.00000000000E+00 0. -1.
    9000007    1    1    2  502    0 -0.31952944460E+02  0.29684917392E+03 -0.17700844487E+04  0.18391137480E+04  0.40000000000E+03 0. -1.
   -9000007    1    1    2    0  501  0.31952944460E+02 -0.29684917392E+03 -0.34491336395E+03  0.60671710982E+03  0.40000000000E+03 0.  1.
<mgrwt>
<rscale>  2 0.49913968E+03</rscale>
<asrwt>0</asrwt>
<pdfrwt beam="1">  1        2 0.35083298E+00 0.49913968E+03</pdfrwt>
<pdfrwt beam="2">  1       -2 0.25448695E-01 0.49913968E+03</pdfrwt>
<totfact> 0.69280797E+01</totfact>
</mgrwt>
</event>
<event>
 4    1  0.2247963E-002  0.4753070E+03  0.7818608E-02  0.1020433E+00
          2   -1    0    0  502    0  0.00000000000E+00  0.00000000000E+00  0.21772823213E+04  0.21772823213E+04  0.00000000000E+00 0. -1.
         -2   -1    0    0    0  501 -0.00000000000E+00 -0.00000000000E+00 -0.11949503824E+03  0.11949503824E+03  0.00000000000E+00 0.  1.
    9000007    1    1    2  502    0 -0.19380856071E+03 -0.16838952785E+03  0.61218228855E+03  0.77503802856E+03  0.40000000000E+03 0.  1.
   -9000007    1    1    2    0  501  0.19380856071E+03  0.16838952785E+03  0.14456049945E+04  0.15217393310E+04  0.40000000000E+03 0. -1.
<mgrwt>
<rscale>  2 0.47530705E+03</rscale>
<asrwt>0</asrwt>
<pdfrwt beam="1">  1        2 0.33496648E+00 0.47530705E+03</pdfrwt>
<pdfrwt beam="2">  1       -2 0.18383854E-01 0.47530705E+03</pdfrwt>
<totfact> 0.14013390E+02</totfact>
</mgrwt>
</event>
<event>
 4    1  0.2247963E-002  0.4890499E+03  0.7818608E-02  0.1016677E+00
          2   -1    0    0  502    0  0.00000000000E+00  0.00000000000E+00  0.10325317928E+03  0.10325317928E+03  0.00000000000E+00 0.  1.
         -2   -1    0    0    0  501 -0.00000000000E+00 -0.00000000000E+00 -0.23730545953E+04  0.23730545953E+04  0.00000000000E+00 0. -1.
    9000007    1    1    2  502    0 -0.26466317240E+03  0.95515512614E+02 -0.13263067399E+04  0.14135980250E+04  0.40000000000E+03 0.  1.
   -9000007    1    1    2    0  501  0.26466317240E+03 -0.95515512614E+02 -0.94349467612E+03  0.10627097496E+04  0.40000000000E+03 0.  1.
<mgrwt>
<rscale>  2 0.48904990E+03</rscale>
<asrwt>0</asrwt>
<pdfrwt beam="1">  1        2 0.15885107E-01 0.48904990E+03</pdfrwt>
<pdfrwt beam="2">  1       -2 0.36508527E+00 0.48904990E+03</pdfrwt>
<totfact> 0.51342834E+00</totfact>
</mgrwt>
</event>
<event>
 4    1  0.2247963E-002  0.4771570E+03  0.7818608E-02  0.1019919E+00
          1   -1    0    0  502    0  0.00000000000E+00  0.00000000000E+00  0.17065561645E+04  0.17065561645E+04  0.00000000000E+00 0.  1.
         -1   -1    0    0    0  501 -0.00000000000E+00 -0.00000000000E+00 -0.13345456134E+03  0.13345456134E+03  0.00000000000E+00 0. -1.
    9000007    1    1    2  502    0  0.14314605882E+03  0.21722797354E+03  0.80255480905E+03  0.93368785372E+03  0.40000000000E+03 0. -1.
   -9000007    1    1    2    0  501 -0.14314605882E+03 -0.21722797354E+03  0.77054679412E+03  0.90632287214E+03  0.40000000000E+03 0. -1.
<mgrwt>
<rscale>  2 0.47715698E+03</rscale>
<asrwt>0</asrwt>
<pdfrwt beam="1">  1        1 0.26254709E+00 0.47715698E+03</pdfrwt>
<pdfrwt beam="2">  1       -1 0.20531472E-01 0.47715698E+03</pdfrwt>
<totfact> 0.97806293E+01</totfact>
</mgrwt>
</event>
<event>
 4    1  0.2247963E-002  0.4176242E+03  0.7818608E-02  0.1037842E+00
         -2   -1    0    0    0  501 -0.00000000000E+00  0.00000000000E+00  0.10786613436E+03  0.10786613436E+03  0.00000000000E+00 0. -1.
          2   -1    0    0  502    0  0.00000000000E+00 -0.00000000000E+00 -0.16176659051E+04  0.16176659051E+04  0.00000000000E+00 0.  1.
    9000007    1    1    2  502    0  0.98301750205E+02 -0.68896681584E+02 -0.73626753315E+03  0.84646315171E+03  0.40000000000E+03 0.  1.
   -9000007    1    1    2    0  501 -0.98301750205E+02  0.68896681584E+02 -0.77353223754E+03  0.87906888771E+03  0.40000000000E+03 0.  1.
<mgrwt>
<rscale>  2 0.41762422E+03</rscale>
<asrwt>0</asrwt>
<pdfrwt beam="1">  1        2 0.24887168E+00 0.41762422E+03</pdfrwt>
<pdfrwt beam="2">  1       -2 0.16594790E-01 0.41762422E+03</pdfrwt>
<totfact> 0.33605396E+02</totfact>
</mgrwt>
</event>
<event>
 4    1  0.2247963E-002  0.4600905E+03  0.7818608E-02  0.1024755E+00
         -2   -1    0    0    0  501 -0.00000000000E+00  0.00000000000E+00  0.35553654822E+03  0.35553654822E+03  0.00000000000E+00 0. -1.
          2   -1    0    0  502    0  0.00000000000E+00 -0.00000000000E+00 -0.64641858461E+03  0.64641858461E+03  0.00000000000E+00 0.  1.
    9000007    1    1    2  502    0 -0.95728910505E+02  0.20620189523E+03 -0.28619608849E+03  0.54184079485E+03  0.40000000000E+03 0.  1.
   -9000007    1    1    2    0  501  0.95728910505E+02 -0.20620189523E+03 -0.46859479011E+01  0.46011433798E+03  0.40000000000E+03 0. -1.
<mgrwt>
<rscale>  2 0.46009048E+03</rscale>
<asrwt>0</asrwt>
<pdfrwt beam="1">  1        2 0.99449013E-01 0.46009048E+03</pdfrwt>
<pdfrwt beam="2">  1       -2 0.54697931E-01 0.46009048E+03</pdfrwt>
<totfact> 0.14662774E+02</totfact>
</mgrwt>
</event>
<event>
 4    1  0.2247963E-002  0.4183193E+03  0.7818608E-02  0.1037615E+00
         -3   -1    0    0    0  501 -0.00000000000E+00  0.00000000000E+00  0.12943850771E+04  0.12943850771E+04  0.00000000000E+00 0. -1.
          3   -1    0    0  502    0  0.00000000000E+00 -0.00000000000E+00 -0.13701270207E+03  0.13701270207E+03  0.00000000000E+00 0.  1.
    9000007    1    1    2  502    0 -0.11052703047E+03  0.52676594156E+02  0.66117965246E+03  0.78239988552E+03  0.40000000000E+03 0. -1.
   -9000007    1    1    2    0  501  0.11052703047E+03 -0.52676594156E+02  0.49619272260E+03  0.64899789368E+03  0.40000000000E+03 0.  1.
<mgrwt>
<rscale>  2 0.41831931E+03</rscale>
<asrwt>0</asrwt>
<pdfrwt beam="1">  1        3 0.21078878E-01 0.41831931E+03</pdfrwt>
<pdfrwt beam="2">  1       -3 0.19913616E+00 0.41831931E+03</pdfrwt>
<totfact> 0.81892480E+00</totfact>
</mgrwt>
</event>
<event>
 4    1  0.2247963E-002  0.5569571E+03  0.7818608E-02  0.9998963E-01
          1   -1    0    0  502    0  0.00000000000E+00  0.00000000000E+00  0.15502857257E+04  0.15502857257E+04  0.00000000000E+00 0. -1.
         -1   -1    0    0    0  501 -0.00000000000E+00 -0.00000000000E+00 -0.22816266023E+03  0.22816266023E+03  0.00000000000E+00 0.  1.
    9000007    1    1    2  502    0 -0.32180953342E+02 -0.38621966597E+03  0.34916686570E+03  0.65735739461E+03  0.40000000000E+03 0.  1.
   -9000007    1    1    2    0  501  0.32180953342E+02  0.38621966597E+03  0.97295619981E+03  0.11210909914E+04  0.40000000000E+03 0. -1.
<mgrwt>
<rscale>  2 0.55695713E+03</rscale>
<asrwt>0</asrwt>
<pdfrwt beam="1">  1        1 0.23850549E+00 0.55695713E+03</pdfrwt>
<pdfrwt beam="2">  1       -1 0.35101949E-01 0.55695713E+03</pdfrwt>
<totfact> 0.49156994E+01</totfact>
</mgrwt>
</event>
<event>
 4    1  0.2247963E-002  0.4218737E+03  0.7818608E-02  0.1036458E+00
          2   -1    0    0  502    0  0.00000000000E+00  0.00000000000E+00  0.11009531238E+04  0.11009531238E+04  0.00000000000E+00 0. -1.
         -2   -1    0    0    0  501 -0.00000000000E+00 -0.00000000000E+00 -0.16467256863E+03  0.16467256863E+03  0.00000000000E+00 0.  1.
    9000007    1    1    2  502    0  0.66689454021E+02  0.11631816426E+03  0.38251366878E+03  0.56946826550E+03  0.40000000000E+03 0.  1.
   -9000007    1    1    2    0  501 -0.66689454021E+02 -0.11631816426E+03  0.55376688643E+03  0.69615742696E+03  0.40000000000E+03 0. -1.
<mgrwt>
<rscale>  2 0.42187368E+03</rscale>
<asrwt>0</asrwt>
<pdfrwt beam="1">  1        2 0.16937740E+00 0.42187368E+03</pdfrwt>
<pdfrwt beam="2">  1       -2 0.25334242E-01 0.42187368E+03</pdfrwt>
<totfact> 0.31397348E+02</totfact>
</mgrwt>
</event>
<event>
 4    1  0.2247963E-002  0.4707809E+03  0.7818608E-02  0.1021700E+00
         -2   -1    0    0    0  501 -0.00000000000E+00  0.00000000000E+00  0.66740967195E+03  0.66740967195E+03  0.00000000000E+00 0. -1.
          2   -1    0    0  502    0  0.00000000000E+00 -0.00000000000E+00 -0.33242169491E+03  0.33242169491E+03  0.00000000000E+00 0.  1.
    9000007    1    1    2  502    0  0.37185205273E+02  0.24546268045E+03  0.18347724473E+03  0.50527078514E+03  0.40000000000E+03 0.  1.
   -9000007    1    1    2    0  501 -0.37185205273E+02 -0.24546268045E+03  0.15151073230E+03  0.49456058171E+03  0.40000000000E+03 0. -1.
<mgrwt>
<rscale>  2 0.47078091E+03</rscale>
<asrwt>0</asrwt>
<pdfrwt beam="1">  1        2 0.51141799E-01 0.47078091E+03</pdfrwt>
<pdfrwt beam="2">  1       -2 0.10267841E+00 0.47078091E+03</pdfrwt>
<totfact> 0.78051607E+01</totfact>
</mgrwt>
</event>
<event>
 4    1  0.2247963E-002  0.4514400E+03  0.7818608E-02  0.1027293E+00
         -2   -1    0    0    0  501 -0.00000000000E+00  0.00000000000E+00  0.48276496931E+03  0.48276496931E+03  0.00000000000E+00 0.  1.
          2   -1    0    0  502    0  0.00000000000E+00 -0.00000000000E+00 -0.42545124923E+03  0.42545124923E+03  0.00000000000E+00 0. -1.
    9000007    1    1    2  502    0  0.46020176399E+02 -0.20415744253E+03  0.68672080907E+02  0.45663330220E+03  0.40000000000E+03 0. -1.
   -9000007    1    1    2    0  501 -0.46020176399E+02  0.20415744253E+03 -0.11358360823E+02  0.45158291635E+03  0.40000000000E+03 0. -1.
<mgrwt>
<rscale>  2 0.45144005E+03</rscale>
<asrwt>0</asrwt>
<pdfrwt beam="1">  1        2 0.65454038E-01 0.45144005E+03</pdfrwt>
<pdfrwt beam="2">  1       -2 0.74271534E-01 0.45144005E+03</pdfrwt>
<totfact> 0.12435048E+02</totfact>
</mgrwt>
</event>
<event>
 4    1  0.2247963E-002  0.6926582E+03  0.7818608E-02  0.9729871E-01
          1   -1    0    0  502    0  0.00000000000E+00  0.00000000000E+00  0.10669430087E+04  0.10669430087E+04  0.00000000000E+00 0. -1.
         -1   -1    0    0    0  501 -0.00000000000E+00 -0.00000000000E+00 -0.50854463262E+03  0.50854463262E+03  0.00000000000E+00 0.  1.
    9000007    1    1    2  502    0 -0.18231419851E+03  0.53529145947E+03  0.11175190506E+02  0.69274836589E+03  0.40000000000E+03 0.  1.
   -9000007    1    1    2    0  501  0.18231419851E+03 -0.53529145947E+03  0.54722318561E+03  0.88273927545E+03  0.40000000000E+03 0. -1.
<mgrwt>
<rscale>  2 0.69265822E+03</rscale>
<asrwt>0</asrwt>
<pdfrwt beam="1">  1        1 0.16414508E+00 0.69265822E+03</pdfrwt>
<pdfrwt beam="2">  1       -1 0.78237636E-01 0.69265822E+03</pdfrwt>
<totfact> 0.22771191E+01</totfact>
</mgrwt>
</event>
<event>
 4    1  0.2247963E-002  0.4019021E+03  0.7818608E-02  0.1043123E+00
         -1   -1    0    0    0  501 -0.00000000000E+00  0.00000000000E+00  0.34809460677E+03  0.34809460677E+03  0.00000000000E+00 0. -1.
          1   -1    0    0  502    0  0.00000000000E+00 -0.00000000000E+00 -0.50424640387E+03  0.50424640387E+03  0.00000000000E+00 0.  1.
    9000007    1    1    2  502    0 -0.13776598507E+02 -0.36544441992E+02 -0.19843526132E+03  0.44822075347E+03  0.40000000000E+03 0.  1.
   -9000007    1    1    2    0  501  0.13776598507E+02  0.36544441992E+02  0.42283464215E+02  0.40412025717E+03  0.40000000000E+03 0. -1.
<mgrwt>
<rscale>  2 0.40190209E+03</rscale>
<asrwt>0</asrwt>
<pdfrwt beam="1">  1        1 0.77576369E-01 0.40190209E+03</pdfrwt>
<pdfrwt beam="2">  1       -1 0.53553017E-01 0.40190209E+03</pdfrwt>
<totfact> 0.16049389E+02</totfact>
</mgrwt>
</event>
<event>
 4    1  0.2247963E-002  0.5577842E+03  0.7818608E-02  0.9997081E-01
         -2   -1    0    0    0  501 -0.00000000000E+00  0.00000000000E+00  0.13836555590E+04  0.13836555590E+04  0.00000000000E+00 0.  1.
          2   -1    0    0  502    0  0.00000000000E+00 -0.00000000000E+00 -0.27992228623E+03  0.27992228623E+03  0.00000000000E+00 0. -1.
    9000007    1    1    2  502    0  0.34569267527E+03 -0.17781948648E+03  0.92079110101E+03  0.10765590774E+04  0.40000000000E+03 0.  1.
   -9000007    1    1    2    0  501 -0.34569267527E+03  0.17781948648E+03  0.18294217172E+03  0.58701876776E+03  0.40000000000E+03 0. -1.
<mgrwt>
<rscale>  2 0.55778418E+03</rscale>
<asrwt>0</asrwt>
<pdfrwt beam="1">  1        2 0.43064968E-01 0.55778418E+03</pdfrwt>
<pdfrwt beam="2">  1       -2 0.21287008E+00 0.55778418E+03</pdfrwt>
<totfact> 0.13548143E+01</totfact>
</mgrwt>
</event>
<event>
 4    1  0.2247963E-002  0.4667439E+03  0.7818608E-02  0.1022843E+00
         -2   -1    0    0    0  501 -0.00000000000E+00  0.00000000000E+00  0.99473752047E+02  0.99473752047E+02  0.00000000000E+00 0.  1.
          2   -1    0    0  502    0  0.00000000000E+00 -0.00000000000E+00 -0.30397355548E+04  0.30397355548E+04  0.00000000000E+00 0. -1.
    9000007    1    1    2  502    0 -0.33302561014E+02 -0.23820330335E+03 -0.64026443615E+03  0.79233100564E+03  0.40000000000E+03 0. -1.
   -9000007    1    1    2    0  501  0.33302561014E+02  0.23820330335E+03 -0.22999973666E+04  0.23468783012E+04  0.40000000000E+03 0.  1.
<mgrwt>
<rscale>  2 0.46674391E+03</rscale>
<asrwt>0</asrwt>
<pdfrwt beam="1">  1        2 0.46765163E+00 0.46674391E+03</pdfrwt>
<pdfrwt beam="2">  1       -2 0.15303654E-01 0.46674391E+03</pdfrwt>
<totfact> 0.61886501E+01</totfact>
</mgrwt>
</event>
<event>
 4    1  0.2247963E-002  0.5129952E+03  0.7818608E-02  0.1010442E+00
         -1   -1    0    0    0  501 -0.00000000000E+00  0.00000000000E+00  0.86974176974E+03  0.86974176974E+03  0.00000000000E+00 0.  1.
          1   -1    0    0  502    0  0.00000000000E+00 -0.00000000000E+00 -0.30821045945E+03  0.30821045945E+03  0.00000000000E+00 0. -1.
    9000007    1    1    2  502    0 -0.28462063171E+03  0.14884604767E+03  0.20114000984E+03  0.55101846926E+03  0.40000000000E+03 0.  1.
   -9000007    1    1    2    0  501  0.28462063171E+03 -0.14884604767E+03  0.36039130045E+03  0.62693375993E+03  0.40000000000E+03 0.  1.
<mgrwt>
<rscale>  2 0.51299518E+03</rscale>
<asrwt>0</asrwt>
<pdfrwt beam="1">  1        1 0.47416994E-01 0.51299518E+03</pdfrwt>
<pdfrwt beam="2">  1       -1 0.13380643E+00 0.51299518E+03</pdfrwt>
<totfact> 0.41707468E+01</totfact>
</mgrwt>
</event>
<event>
 4    1  0.2247963E-002  0.4101791E+03  0.7818608E-02  0.1040311E+00
          1   -1    0    0  502    0  0.00000000000E+00  0.00000000000E+00  0.72732169755E+03  0.72732169755E+03  0.00000000000E+00 0. -1.
         -1   -1    0    0    0  501 -0.00000000000E+00 -0.00000000000E+00 -0.32958094809E+03  0.32958094809E+03  0.00000000000E+00 0.  1.
    9000007    1    1    2  502    0 -0.54606019018E+02 -0.72560907095E+02  0.48741019911E+03  0.63703658039E+03  0.40000000000E+03 0. -1.
   -9000007    1    1    2    0  501  0.54606019018E+02  0.72560907095E+02 -0.89669449644E+02  0.41986606525E+03  0.40000000000E+03 0.  1.
<mgrwt>
<rscale>  2 0.41017911E+03</rscale>
<asrwt>0</asrwt>
<pdfrwt beam="1">  1        1 0.11189565E+00 0.41017911E+03</pdfrwt>
<pdfrwt beam="2">  1       -1 0.50704761E-01 0.41017911E+03</pdfrwt>
<totfact> 0.10562664E+02</totfact>
</mgrwt>
</event>
<event>
 4    1  0.2247963E-002  0.6362902E+03  0.7818608E-02  0.9832850E-01
          2   -1    0    0  502    0  0.00000000000E+00  0.00000000000E+00  0.99010875037E+03  0.99010875037E+03  0.00000000000E+00 0.  1.
         -2   -1    0    0    0  501 -0.00000000000E+00 -0.00000000000E+00 -0.41383569447E+03  0.41383569447E+03  0.00000000000E+00 0. -1.
    9000007    1    1    2  502    0 -0.47383589590E+03 -0.14263507184E+03  0.21155106723E+03  0.67053640767E+03  0.40000000000E+03 0.  1.
   -9000007    1    1    2    0  501  0.47383589590E+03  0.14263507184E+03  0.36472198867E+03  0.73340803716E+03  0.40000000000E+03 0.  1.
<mgrwt>
<rscale>  2 0.63629020E+03</rscale>
<asrwt>0</asrwt>
<pdfrwt beam="1">  1        2 0.15232442E+00 0.63629020E+03</pdfrwt>
<pdfrwt beam="2">  1       -2 0.63667030E-01 0.63629020E+03</pdfrwt>
<totfact> 0.59832018E+01</totfact>
</mgrwt>
</event>
<event>
 4    1  0.2247963E-002  0.4777777E+03  0.7818608E-02  0.1019748E+00
          2   -1    0    0  502    0  0.00000000000E+00  0.00000000000E+00  0.76245099804E+03  0.76245099804E+03  0.00000000000E+00 0. -1.
         -2   -1    0    0    0  501 -0.00000000000E+00 -0.00000000000E+00 -0.34781385486E+03  0.34781385486E+03  0.00000000000E+00 0.  1.
    9000007    1    1    2  502    0 -0.14332983384E+03  0.21846749019E+03  0.18747651826E+00  0.47777768960E+03  0.40000000000E+03 0.  1.
   -9000007    1    1    2    0  501  0.14332983384E+03 -0.21846749019E+03  0.41444966666E+03  0.63248716329E+03  0.40000000000E+03 0. -1.
<mgrwt>
<rscale>  2 0.47777765E+03</rscale>
<asrwt>0</asrwt>
<pdfrwt beam="1">  1        2 0.11730015E+00 0.47777765E+03</pdfrwt>
<pdfrwt beam="2">  1       -2 0.53509824E-01 0.47777765E+03</pdfrwt>
<totfact> 0.12468951E+02</totfact>
</mgrwt>
</event>
<event>
 4    1  0.2247963E-002  0.4132228E+03  0.7818608E-02  0.1039295E+00
          2   -1    0    0  502    0  0.00000000000E+00  0.00000000000E+00  0.68118822914E+03  0.68118822914E+03  0.00000000000E+00 0. -1.
         -2   -1    0    0    0  501 -0.00000000000E+00 -0.00000000000E+00 -0.47440926761E+03  0.47440926761E+03  0.00000000000E+00 0.  1.
    9000007    1    1    2  502    0  0.84584782887E+02 -0.59987447956E+02 -0.29341051007E+03  0.50679661288E+03  0.40000000000E+03 0.  1.
   -9000007    1    1    2    0  501 -0.84584782887E+02  0.59987447956E+02  0.50018947160E+03  0.64880088386E+03  0.40000000000E+03 0. -1.
<mgrwt>
<rscale>  2 0.41322280E+03</rscale>
<asrwt>0</asrwt>
<pdfrwt beam="1">  1        2 0.10479819E+00 0.41322280E+03</pdfrwt>
<pdfrwt beam="2">  1       -2 0.72986041E-01 0.41322280E+03</pdfrwt>
<totfact> 0.74999176E+01</totfact>
</mgrwt>
</event>
<event>
 4    1  0.2247963E-002  0.4719951E+03  0.7818608E-02  0.1021359E+00
         -2   -1    0    0    0  501 -0.00000000000E+00  0.00000000000E+00  0.19778057306E+03  0.19778057306E+03  0.00000000000E+00 0. -1.
          2   -1    0    0  502    0  0.00000000000E+00 -0.00000000000E+00 -0.22769531934E+04  0.22769531934E+04  0.00000000000E+00 0.  1.
    9000007    1    1    2  502    0 -0.21136375857E+03 -0.13455396328E+03 -0.16000622224E+03  0.49837877024E+03  0.40000000000E+03 0. -1.
   -9000007    1    1    2    0  501  0.21136375857E+03  0.13455396328E+03 -0.19191663982E+04  0.19763549963E+04  0.40000000000E+03 0.  1.
<mgrwt>
<rscale>  2 0.47199514E+03</rscale>
<asrwt>0</asrwt>
<pdfrwt beam="1">  1        2 0.35030052E+00 0.47199514E+03</pdfrwt>
<pdfrwt beam="2">  1       -2 0.30427778E-01 0.47199514E+03</pdfrwt>
<totfact> 0.50525771E+01</totfact>
</mgrwt>
</event>
<event>
 4    1  0.2247963E-002  0.4755058E+03  0.7818608E-02  0.1020378E+00
          2   -1    0    0  502    0  0.00000000000E+00  0.00000000000E+00  0.29198460807E+03  0.29198460807E+03  0.00000000000E+00 0. -1.
         -2   -1    0    0    0  501 -0.00000000000E+00 -0.00000000000E+00 -0.89496847515E+03  0.89496847515E+03  0.00000000000E+00 0.  1.
    9000007    1    1    2  502    0 -0.13200606090E+03 -0.22063586599E+03 -0.51934332178E+03  0.70414719438E+03  0.40000000000E+03 0.  1.
   -9000007    1    1    2    0  501  0.13200606090E+03  0.22063586599E+03 -0.83640545296E+02  0.48280588884E+03  0.40000000000E+03 0. -1.
<mgrwt>
<rscale>  2 0.47550582E+03</rscale>
<asrwt>0</asrwt>
<pdfrwt beam="1">  1        2 0.44920709E-01 0.47550582E+03</pdfrwt>
<pdfrwt beam="2">  1       -2 0.13768746E+00 0.47550582E+03</pdfrwt>
<totfact> 0.43800900E+01</totfact>
</mgrwt>
</event>
<event>
 4    1  0.2247963E-002  0.4279287E+03  0.7818608E-02  0.1034516E+00
          2   -1    0    0  502    0  0.00000000000E+00  0.00000000000E+00  0.67622613797E+03  0.67622613797E+03  0.00000000000E+00 0.  1.
         -2   -1    0    0    0  501 -0.00000000000E+00 -0.00000000000E+00 -0.27110519231E+03  0.27110519231E+03  0.00000000000E+00 0. -1.
    9000007    1    1    2  502    0  0.12348631033E+03  0.88736231438E+02  0.21841628496E+03  0.48044631453E+03  0.40000000000E+03 0. -1.
   -9000007    1    1    2    0  501 -0.12348631033E+03 -0.88736231438E+02  0.18670466070E+03  0.46688501576E+03  0.40000000000E+03 0.  1.
<mgrwt>
<rscale>  2 0.42792872E+03</rscale>
<asrwt>0</asrwt>
<pdfrwt beam="1">  1        2 0.10403479E+00 0.42792872E+03</pdfrwt>
<pdfrwt beam="2">  1       -2 0.41708491E-01 0.42792872E+03</pdfrwt>
<totfact> 0.23936958E+02</totfact>
</mgrwt>
</event>
<event>
 4    1  0.2247963E-002  0.4566948E+03  0.7818608E-02  0.1025744E+00
         -1   -1    0    0    0  501 -0.00000000000E+00  0.00000000000E+00  0.48932628447E+03  0.48932628447E+03  0.00000000000E+00 0.  1.
          1   -1    0    0  502    0  0.00000000000E+00 -0.00000000000E+00 -0.46857413253E+03  0.46857413253E+03  0.00000000000E+00 0. -1.
    9000007    1    1    2  502    0 -0.86452714241E+02 -0.20272167812E+03  0.15433862603E+03  0.48206904284E+03  0.40000000000E+03 0.  1.
   -9000007    1    1    2    0  501  0.86452714241E+02  0.20272167812E+03 -0.13358647409E+03  0.47583137417E+03  0.40000000000E+03 0. -1.
<mgrwt>
<rscale>  2 0.45669481E+03</rscale>
<asrwt>0</asrwt>
<pdfrwt beam="1">  1        1 0.72088328E-01 0.45669481E+03</pdfrwt>
<pdfrwt beam="2">  1       -1 0.75280967E-01 0.45669481E+03</pdfrwt>
<totfact> 0.89810720E+01</totfact>
</mgrwt>
</event>
<event>
 4    1  0.2247963E-002  0.5229082E+03  0.7818608E-02  0.1007967E+00
          2   -1    0    0  502    0  0.00000000000E+00  0.00000000000E+00  0.48528484951E+03  0.48528484951E+03  0.00000000000E+00 0.  1.
         -2   -1    0    0    0  501 -0.00000000000E+00 -0.00000000000E+00 -0.68862889874E+03  0.68862889874E+03  0.00000000000E+00 0. -1.
    9000007    1    1    2  502    0 -0.10850415589E+03 -0.31884137307E+03 -0.35192653075E+03  0.63030568463E+03  0.40000000000E+03 0. -1.
   -9000007    1    1    2    0  501  0.10850415589E+03  0.31884137307E+03  0.14858248152E+03  0.54360806362E+03  0.40000000000E+03 0.  1.
<mgrwt>
<rscale>  2 0.52290819E+03</rscale>
<asrwt>0</asrwt>
<pdfrwt beam="1">  1        2 0.74659208E-01 0.52290819E+03</pdfrwt>
<pdfrwt beam="2">  1       -2 0.10594291E+00 0.52290819E+03</pdfrwt>
<totfact> 0.47257612E+01</totfact>
</mgrwt>
</event>
<event>
 4    1  0.2247963E-002  0.4190986E+03  0.7818608E-02  0.1037360E+00
          1   -1    0    0  502    0  0.00000000000E+00  0.00000000000E+00  0.55700223959E+03  0.55700223959E+03  0.00000000000E+00 0.  1.
         -1   -1    0    0    0  501 -0.00000000000E+00 -0.00000000000E+00 -0.35478960388E+03  0.35478960388E+03  0.00000000000E+00 0. -1.
    9000007    1    1    2  502    0 -0.10809865180E+03  0.62914983667E+02  0.25313171242E+03  0.48961135355E+03  0.40000000000E+03 0.  1.
   -9000007    1    1    2    0  501  0.10809865180E+03 -0.62914983667E+02 -0.50919076709E+02  0.42218048991E+03  0.40000000000E+03 0. -1.
<mgrwt>
<rscale>  2 0.41909857E+03</rscale>
<asrwt>0</asrwt>
<pdfrwt beam="1">  1        1 0.85692652E-01 0.41909857E+03</pdfrwt>
<pdfrwt beam="2">  1       -1 0.54583016E-01 0.41909857E+03</pdfrwt>
<totfact> 0.13482793E+02</totfact>
</mgrwt>
</event>
<event>
 4    1  0.2247963E-002  0.4316932E+03  0.7818608E-02  0.1033326E+00
         -2   -1    0    0    0  501 -0.00000000000E+00  0.00000000000E+00  0.29216529793E+03  0.29216529793E+03  0.00000000000E+00 0.  1.
          2   -1    0    0  502    0  0.00000000000E+00 -0.00000000000E+00 -0.69215664978E+03  0.69215664978E+03  0.00000000000E+00 0. -1.
    9000007    1    1    2  502    0  0.15929437501E+03 -0.31373236825E+02 -0.62143665087E+02  0.43614311070E+03  0.40000000000E+03 0.  1.
   -9000007    1    1    2    0  501 -0.15929437501E+03  0.31373236825E+02 -0.33784768676E+03  0.54817883701E+03  0.40000000000E+03 0. -1.
<mgrwt>
<rscale>  2 0.43169315E+03</rscale>
<asrwt>0</asrwt>
<pdfrwt beam="1">  1        2 0.10648564E+00 0.43169315E+03</pdfrwt>
<pdfrwt beam="2">  1       -2 0.44948507E-01 0.43169315E+03</pdfrwt>
<totfact> 0.20079459E+02</totfact>
</mgrwt>
</event>
<event>
 4    1  0.2247963E-002  0.4115584E+03  0.7818608E-02  0.1039849E+00
          2   -1    0    0  502    0  0.00000000000E+00  0.00000000000E+00  0.20693289083E+04  0.20693289083E+04  0.00000000000E+00 0. -1.
         -2   -1    0    0    0  501 -0.00000000000E+00 -0.00000000000E+00 -0.93276171113E+02  0.93276171113E+02  0.00000000000E+00 0.  1.
    9000007    1    1    2  502    0 -0.76186404655E+02 -0.59799197579E+02  0.60961907594E+03  0.73553771490E+03  0.40000000000E+03 0.  1.
   -9000007    1    1    2    0  501  0.76186404655E+02  0.59799197579E+02  0.13664336613E+04  0.14270673646E+04  0.40000000000E+03 0.  1.
<mgrwt>
<rscale>  2 0.41155839E+03</rscale>
<asrwt>0</asrwt>
<pdfrwt beam="1">  1        2 0.31835826E+00 0.41155839E+03</pdfrwt>
<pdfrwt beam="2">  1       -2 0.14350182E-01 0.41155839E+03</pdfrwt>
<totfact> 0.24604713E+02</totfact>
</mgrwt>
</event>
<event>
 4    1  0.2247963E-002  0.4454706E+03  0.7818608E-02  0.1029081E+00
         -2   -1    0    0    0  501 -0.00000000000E+00  0.00000000000E+00  0.94612788215E+02  0.94612788215E+02  0.00000000000E+00 0. -1.
          2   -1    0    0  502    0  0.00000000000E+00 -0.00000000000E+00 -0.21760314225E+04  0.21760314225E+04  0.00000000000E+00 0.  1.
    9000007    1    1    2  502    0 -0.12363857366E+03  0.15217619580E+03 -0.12564789368E+04  0.13331104268E+04  0.40000000000E+03 0. -1.
   -9000007    1    1    2    0  501  0.12363857366E+03 -0.15217619580E+03 -0.82493969748E+03  0.93753378389E+03  0.40000000000E+03 0. -1.
<mgrwt>
<rscale>  2 0.44547064E+03</rscale>
<asrwt>0</asrwt>
<pdfrwt beam="1">  1        2 0.33477406E+00 0.44547064E+03</pdfrwt>
<pdfrwt beam="2">  1       -2 0.14555814E-01 0.44547064E+03</pdfrwt>
<totfact> 0.20939672E+02</totfact>
</mgrwt>
</event>
<event>
 4    1  0.2247963E-002  0.4541072E+03  0.7818608E-02  0.1026504E+00
          3   -1    0    0  502    0  0.00000000000E+00  0.00000000000E+00  0.30810242442E+03  0.30810242442E+03  0.00000000000E+00 0. -1.
         -3   -1    0    0    0  501 -0.00000000000E+00 -0.00000000000E+00 -0.67117971490E+03  0.67117971490E+03  0.00000000000E+00 0.  1.
    9000007    1    1    2  502    0  0.20334391290E+03 -0.69746383496E+02 -0.20744297144E+03  0.49924532178E+03  0.40000000000E+03 0. -1.
   -9000007    1    1    2    0  501 -0.20334391290E+03  0.69746383496E+02 -0.15563431905E+03  0.48003681754E+03  0.40000000000E+03 0. -1.
<mgrwt>
<rscale>  2 0.45410715E+03</rscale>
<asrwt>0</asrwt>
<pdfrwt beam="1">  1        3 0.47400373E-01 0.45410715E+03</pdfrwt>
<pdfrwt beam="2">  1       -3 0.10325842E+00 0.45410715E+03</pdfrwt>
<totfact> 0.93457947E+00</totfact>
</mgrwt>
</event>
<event>
 4    1  0.2247963E-002  0.4676904E+03  0.7818608E-02  0.1022574E+00
         -4   -1    0    0    0  501 -0.00000000000E+00  0.00000000000E+00  0.12134235903E+03  0.12134235903E+03  0.00000000000E+00 0. -1.
          4   -1    0    0  502    0  0.00000000000E+00 -0.00000000000E+00 -0.20209592017E+04  0.20209592017E+04  0.00000000000E+00 0.  1.
    9000007    1    1    2  502    0  0.70624600120E+02 -0.23183295900E+03 -0.59773266370E+03  0.75895895296E+03  0.40000000000E+03 0. -1.
   -9000007    1    1    2    0  501 -0.70624600120E+02  0.23183295900E+03 -0.13018841789E+04  0.13833426077E+04  0.40000000000E+03 0.  1.
<mgrwt>
<rscale>  2 0.46769045E+03</rscale>
<asrwt>0</asrwt>
<pdfrwt beam="1">  1        4 0.31091679E+00 0.46769045E+03</pdfrwt>
<pdfrwt beam="2">  1       -4 0.18668056E-01 0.46769045E+03</pdfrwt>
<totfact> 0.14353297E+00</totfact>
</mgrwt>
</event>
<event>
 4    1  0.2247963E-002  0.4830188E+03  0.7818608E-02  0.1018309E+00
          1   -1    0    0  502    0  0.00000000000E+00  0.00000000000E+00  0.23469991429E+04  0.23469991429E+04  0.00000000000E+00 0.  1.
         -1   -1    0    0    0  501 -0.00000000000E+00 -0.00000000000E+00 -0.11021987416E+03  0.11021987416E+03  0.00000000000E+00 0. -1.
    9000007    1    1    2  502    0 -0.14777452380E+03  0.22686960161E+03  0.15032145649E+04  0.15789113826E+04  0.40000000000E+03 0. -1.
   -9000007    1    1    2    0  501  0.14777452380E+03 -0.22686960161E+03  0.73356470388E+03  0.87830763449E+03  0.40000000000E+03 0. -1.
<mgrwt>
<rscale>  2 0.48301876E+03</rscale>
<asrwt>0</asrwt>
<pdfrwt beam="1">  1        1 0.36107675E+00 0.48301876E+03</pdfrwt>
<pdfrwt beam="2">  1       -1 0.16956905E-01 0.48301876E+03</pdfrwt>
<totfact> 0.50342017E+01</totfact>
</mgrwt>
</event>
<event>
 4    1  0.2247963E-002  0.4218891E+03  0.7818608E-02  0.1036453E+00
         -1   -1    0    0    0  501 -0.00000000000E+00  0.00000000000E+00  0.66473033064E+02  0.66473033064E+02  0.00000000000E+00 0. -1.
          1   -1    0    0  502    0  0.00000000000E+00 -0.00000000000E+00 -0.26847627631E+04  0.26847627631E+04  0.00000000000E+00 0.  1.
    9000007    1    1    2  502    0 -0.91022730248E+02  0.98515379069E+02 -0.13800321732E+04  0.14430797679E+04  0.40000000000E+03 0.  1.
   -9000007    1    1    2    0  501  0.91022730248E+02 -0.98515379069E+02 -0.12382575568E+04  0.13081560283E+04  0.40000000000E+03 0. -1.
<mgrwt>
<rscale>  2 0.42188911E+03</rscale>
<asrwt>0</asrwt>
<pdfrwt beam="1">  1        1 0.41304042E+00 0.42188911E+03</pdfrwt>
<pdfrwt beam="2">  1       -1 0.10226621E-01 0.42188911E+03</pdfrwt>
<totfact> 0.67578354E+01</totfact>
</mgrwt>
</event>
<event>
 4    1  0.2247963E-002  0.5369519E+03  0.7818608E-02  0.1004560E+00
         -1   -1    0    0    0  501 -0.00000000000E+00  0.00000000000E+00  0.18714938748E+03  0.18714938748E+03  0.00000000000E+00 0.  1.
          1   -1    0    0  502    0  0.00000000000E+00 -0.00000000000E+00 -0.15424846000E+04  0.15424846000E+04  0.00000000000E+00 0. -1.
    9000007    1    1    2  502    0 -0.27914586391E+03  0.22448810451E+03 -0.70811111106E+03  0.88867241884E+03  0.40000000000E+03 0.  1.
   -9000007    1    1    2    0  501  0.27914586391E+03 -0.22448810451E+03 -0.64722410144E+03  0.84096156862E+03  0.40000000000E+03 0.  1.
<mgrwt>
<rscale>  2 0.53695188E+03</rscale>
<asrwt>0</asrwt>
<pdfrwt beam="1">  1        1 0.23730532E+00 0.53695188E+03</pdfrwt>
<pdfrwt beam="2">  1       -1 0.28792214E-01 0.53695188E+03</pdfrwt>
<totfact> 0.70543675E+01</totfact>
</mgrwt>
</event>
<event>
 4    1  0.2247963E-002  0.4831112E+03  0.7818608E-02  0.1018284E+00
         -2   -1    0    0    0  501 -0.00000000000E+00  0.00000000000E+00  0.62036295734E+03  0.62036295734E+03  0.00000000000E+00 0. -1.
          2   -1    0    0  502    0  0.00000000000E+00 -0.00000000000E+00 -0.37711147320E+03  0.37711147320E+03  0.00000000000E+00 0.  1.
    9000007    1    1    2  502    0  0.22347076702E+03 -0.15315769510E+03  0.97454003364E+02  0.49284251648E+03  0.40000000000E+03 0.  1.
   -9000007    1    1    2    0  501 -0.22347076702E+03  0.15315769510E+03  0.14579748078E+03  0.50463191405E+03  0.40000000000E+03 0.  1.
<mgrwt>
<rscale>  2 0.48311123E+03</rscale>
<asrwt>0</asrwt>
<pdfrwt beam="1">  1        2 0.58017150E-01 0.48311123E+03</pdfrwt>
<pdfrwt beam="2">  1       -2 0.95440455E-01 0.48311123E+03</pdfrwt>
<totfact> 0.80529903E+01</totfact>
</mgrwt>
</event>
<event>
 4    1  0.2247963E-002  0.5393973E+03  0.7818608E-02  0.1003978E+00
         -1   -1    0    0    0  501 -0.00000000000E+00  0.00000000000E+00  0.44766626958E+03  0.44766626958E+03  0.00000000000E+00 0.  1.
          1   -1    0    0  502    0  0.00000000000E+00 -0.00000000000E+00 -0.66822111252E+03  0.66822111252E+03  0.00000000000E+00 0. -1.
    9000007    1    1    2  502    0 -0.24775628484E+03  0.26375415907E+03 -0.20260075264E+03  0.57619137279E+03  0.40000000000E+03 0.  1.
   -9000007    1    1    2    0  501  0.24775628484E+03 -0.26375415907E+03 -0.17954090296E+02  0.53969600931E+03  0.40000000000E+03 0.  1.
<mgrwt>
<rscale>  2 0.53939729E+03</rscale>
<asrwt>0</asrwt>
<pdfrwt beam="1">  1        1 0.10280325E+00 0.53939729E+03</pdfrwt>
<pdfrwt beam="2">  1       -1 0.68871734E-01 0.53939729E+03</pdfrwt>
<totfact> 0.64965670E+01</totfact>
</mgrwt>
</event>
<event>
 4    1  0.2247963E-002  0.4099833E+03  0.7818608E-02  0.1040377E+00
         -2   -1    0    0    0  501 -0.00000000000E+00  0.00000000000E+00  0.36824747635E+03  0.36824747635E+03  0.00000000000E+00 0. -1.
          2   -1    0    0  502    0  0.00000000000E+00 -0.00000000000E+00 -0.47519082896E+03  0.47519082896E+03  0.00000000000E+00 0.  1.
    9000007    1    1    2  502    0 -0.62463463747E+02  0.64688732784E+02  0.30279589555E+02  0.41109995135E+03  0.40000000000E+03 0. -1.
   -9000007    1    1    2    0  501  0.62463463747E+02 -0.64688732784E+02 -0.13722294216E+03  0.43233835396E+03  0.40000000000E+03 0.  1.
<mgrwt>
<rscale>  2 0.40998331E+03</rscale>
<asrwt>0</asrwt>
<pdfrwt beam="1">  1        2 0.73106281E-01 0.40998331E+03</pdfrwt>
<pdfrwt beam="2">  1       -2 0.56653458E-01 0.40998331E+03</pdfrwt>
<totfact> 0.19606906E+02</totfact>
</mgrwt>
</event>
<event>
 4    1  0.2247963E-002  0.4708117E+03  0.7818608E-02  0.1021691E+00
         -4   -1    0    0    0  501 -0.00000000000E+00  0.00000000000E+00  0.12478410784E+04  0.12478410784E+04  0.00000000000E+00 0. -1.
          4   -1    0    0  502    0  0.00000000000E+00 -0.00000000000E+00 -0.23654721689E+03  0.23654721689E+03  0.00000000000E+00 0.  1.
    9000007    1    1    2  502    0 -0.12302109700E+02 -0.24801681151E+03  0.87603002272E+03  0.99453118674E+03  0.40000000000E+03 0. -1.
   -9000007    1    1    2    0  501  0.12302109700E+02  0.24801681151E+03  0.13526383876E+03  0.48985710852E+03  0.40000000000E+03 0.  1.
<mgrwt>
<rscale>  2 0.47081173E+03</rscale>
<asrwt>0</asrwt>
<pdfrwt beam="1">  1        4 0.36391880E-01 0.47081173E+03</pdfrwt>
<pdfrwt beam="2">  1       -4 0.19197555E+00 0.47081173E+03</pdfrwt>
<totfact> 0.21692231E+00</totfact>
</mgrwt>
</event>
<event>
 4    1  0.2247963E-002  0.4175196E+03  0.7818608E-02  0.1037877E+00
         -1   -1    0    0    0  501 -0.00000000000E+00  0.00000000000E+00  0.17200371442E+03  0.17200371442E+03  0.00000000000E+00 0. -1.
          1   -1    0    0  502    0  0.00000000000E+00 -0.00000000000E+00 -0.10176555156E+04  0.10176555156E+04  0.00000000000E+00 0.  1.
    9000007    1    1    2  502    0  0.98916567456E+02  0.67365933028E+02 -0.46091905278E+03  0.62190757309E+03  0.40000000000E+03 0. -1.
   -9000007    1    1    2    0  501 -0.98916567456E+02 -0.67365933028E+02 -0.38473274838E+03  0.56775165691E+03  0.40000000000E+03 0. -1.
<mgrwt>
<rscale>  2 0.41751965E+03</rscale>
<asrwt>0</asrwt>
<pdfrwt beam="1">  1        1 0.15656239E+00 0.41751965E+03</pdfrwt>
<pdfrwt beam="2">  1       -1 0.26462110E-01 0.41751965E+03</pdfrwt>
<totfact> 0.19417491E+02</totfact>
</mgrwt>
</event>
<event>
 4    1  0.2247963E-002  0.4976855E+03  0.7818608E-02  0.1014385E+00
          2   -1    0    0  502    0  0.00000000000E+00  0.00000000000E+00  0.60605619191E+03  0.60605619191E+03  0.00000000000E+00 0.  1.
         -2   -1    0    0    0  501 -0.00000000000E+00 -0.00000000000E+00 -0.49448694180E+03  0.49448694180E+03  0.00000000000E+00 0. -1.
    9000007    1    1    2  502    0 -0.26592893353E+03  0.13027920193E+03  0.28499179573E+03  0.57350779574E+03  0.40000000000E+03 0.  1.
   -9000007    1    1    2    0  501  0.26592893353E+03 -0.13027920193E+03 -0.17342254562E+03  0.52703533797E+03  0.40000000000E+03 0. -1.
<mgrwt>
<rscale>  2 0.49768551E+03</rscale>
<asrwt>0</asrwt>
<pdfrwt beam="1">  1        2 0.93239414E-01 0.49768551E+03</pdfrwt>
<pdfrwt beam="2">  1       -2 0.76074914E-01 0.49768551E+03</pdfrwt>
<totfact> 0.78184354E+01</totfact>
</mgrwt>
</event>
<event>
 4    1  0.2247963E-002  0.5458395E+03  0.7818608E-02  0.1002462E+00
          2   -1    0    0  502    0  0.00000000000E+00  0.00000000000E+00  0.70760575028E+03  0.70760575028E+03  0.00000000000E+00 0. -1.
         -2   -1    0    0    0  501 -0.00000000000E+00 -0.00000000000E+00 -0.45762179496E+03  0.45762179496E+03  0.00000000000E+00 0.  1.
    9000007    1    1    2  502    0  0.32750264182E+03  0.17516495536E+03  0.28968397629E+03  0.61794623399E+03  0.40000000000E+03 0. -1.
   -9000007    1    1    2    0  501 -0.32750264182E+03 -0.17516495536E+03 -0.39700020971E+02  0.54728131125E+03  0.40000000000E+03 0.  1.
<mgrwt>
<rscale>  2 0.54583948E+03</rscale>
<asrwt>0</asrwt>
<pdfrwt beam="1">  1        2 0.10886242E+00 0.54583948E+03</pdfrwt>
<pdfrwt beam="2">  1       -2 0.70403353E-01 0.54583948E+03</pdfrwt>
<totfact> 0.76325015E+01</totfact>
</mgrwt>
</event>
<event>
 4    1  0.2247963E-002  0.4226525E+03  0.7818608E-02  0.1036206E+00
         -2   -1    0    0    0  501 -0.00000000000E+00  0.00000000000E+00  0.16140095167E+03  0.16140095167E+03  0.00000000000E+00 0.  1.
          2   -1    0    0  502    0  0.00000000000E+00 -0.00000000000E+00 -0.11257214609E+04  0.11257214609E+04  0.00000000000E+00 0. -1.
    9000007    1    1    2  502    0  0.79694367330E+02  0.11083281958E+03 -0.39867724250E+03  0.58101518893E+03  0.40000000000E+03 0.  1.
   -9000007    1    1    2    0  501 -0.79694367330E+02 -0.11083281958E+03 -0.56564326670E+03  0.70610722361E+03  0.40000000000E+03 0.  1.
<mgrwt>
<rscale>  2 0.42265246E+03</rscale>
<asrwt>0</asrwt>
<pdfrwt beam="1">  1        2 0.17318792E+00 0.42265246E+03</pdfrwt>
<pdfrwt beam="2">  1       -2 0.24830915E-01 0.42265246E+03</pdfrwt>
<totfact> 0.31452924E+02</totfact>
</mgrwt>
</event>
<event>
 4    1  0.2247963E-002  0.4280432E+03  0.7818608E-02  0.1034480E+00
         -2   -1    0    0    0  501 -0.00000000000E+00  0.00000000000E+00  0.52714334107E+02  0.52714334107E+02  0.00000000000E+00 0.  1.
          2   -1    0    0  502    0  0.00000000000E+00 -0.00000000000E+00 -0.42869723722E+04  0.42869723722E+04  0.00000000000E+00 0. -1.
    9000007    1    1    2  502    0 -0.14954815357E+03 -0.29263279125E+02 -0.30610319862E+04  0.30908150721E+04  0.40000000000E+03 0. -1.
   -9000007    1    1    2    0  501  0.14954815357E+03  0.29263279125E+02 -0.11732260519E+04  0.12488716341E+04  0.40000000000E+03 0.  1.
<mgrwt>
<rscale>  2 0.42804321E+03</rscale>
<asrwt>0</asrwt>
<pdfrwt beam="1">  1        2 0.65953440E+00 0.42804321E+03</pdfrwt>
<pdfrwt beam="2">  1       -2 0.81098953E-02 0.42804321E+03</pdfrwt>
<totfact> 0.22744980E+01</totfact>
</mgrwt>
</event>
<event>
 4    1  0.2247963E-002  0.4111546E+03  0.7818608E-02  0.1039984E+00
          1   -1    0    0  502    0  0.00000000000E+00  0.00000000000E+00  0.58898404965E+03  0.58898404965E+03  0.00000000000E+00 0.  1.
         -1   -1    0    0    0  501 -0.00000000000E+00 -0.00000000000E+00 -0.29734896784E+03  0.29734896784E+03  0.00000000000E+00 0. -1.
    9000007    1    1    2  502    0  0.93907611569E+02 -0.15149228539E+02  0.63206934188E+02  0.41598468141E+03  0.40000000000E+03 0. -1.
   -9000007    1    1    2    0  501 -0.93907611569E+02  0.15149228539E+02  0.22842814762E+03  0.47034833609E+03  0.40000000000E+03 0. -1.
<mgrwt>
<rscale>  2 0.41115464E+03</rscale>
<asrwt>0</asrwt>
<pdfrwt beam="1">  1        1 0.90612931E-01 0.41115464E+03</pdfrwt>
<pdfrwt beam="2">  1       -1 0.45745995E-01 0.41115464E+03</pdfrwt>
<totfact> 0.17374793E+02</totfact>
</mgrwt>
</event>
<event>
 4    1  0.2247963E-002  0.4478786E+03  0.7818608E-02  0.1028357E+00
         -2   -1    0    0    0  501 -0.00000000000E+00  0.00000000000E+00  0.77418659834E+03  0.77418659834E+03  0.00000000000E+00 0. -1.
          2   -1    0    0  502    0  0.00000000000E+00 -0.00000000000E+00 -0.33810840474E+03  0.33810840474E+03  0.00000000000E+00 0.  1.
    9000007    1    1    2  502    0 -0.19970376929E+03  0.26714193639E+02 -0.50796171219E+02  0.45074992470E+03  0.40000000000E+03 0.  1.
   -9000007    1    1    2    0  501  0.19970376929E+03 -0.26714193639E+02  0.48687436481E+03  0.66154507838E+03  0.40000000000E+03 0. -1.
<mgrwt>
<rscale>  2 0.44787860E+03</rscale>
<asrwt>0</asrwt>
<pdfrwt beam="1">  1        2 0.52016678E-01 0.44787860E+03</pdfrwt>
<pdfrwt beam="2">  1       -2 0.11910563E+00 0.44787860E+03</pdfrwt>
<totfact> 0.53710095E+01</totfact>
</mgrwt>
</event>
<event>
 4    1  0.2247963E-002  0.4839672E+03  0.7818608E-02  0.1018051E+00
          1   -1    0    0  502    0  0.00000000000E+00  0.00000000000E+00  0.20136797780E+04  0.20136797780E+04  0.00000000000E+00 0. -1.
         -1   -1    0    0    0  501 -0.00000000000E+00 -0.00000000000E+00 -0.14015229372E+03  0.14015229372E+03  0.00000000000E+00 0.  1.
    9000007    1    1    2  502    0  0.10915093927E+03 -0.24962041088E+03  0.49264804176E+03  0.69059855931E+03  0.40000000000E+03 0. -1.
   -9000007    1    1    2    0  501 -0.10915093927E+03  0.24962041088E+03  0.13808794425E+04  0.14632335124E+04  0.40000000000E+03 0.  1.
<mgrwt>
<rscale>  2 0.48396723E+03</rscale>
<asrwt>0</asrwt>
<pdfrwt beam="1">  1        1 0.30979687E+00 0.48396723E+03</pdfrwt>
<pdfrwt beam="2">  1       -1 0.21561893E-01 0.48396723E+03</pdfrwt>
<totfact> 0.56414527E+01</totfact>
</mgrwt>
</event>
<event>
 4    1  0.2247963E-002  0.4415153E+03  0.7818608E-02  0.1030283E+00
          2   -1    0    0  502    0  0.00000000000E+00  0.00000000000E+00  0.55195215881E+03  0.55195215881E+03  0.00000000000E+00 0. -1.
         -2   -1    0    0    0  501 -0.00000000000E+00 -0.00000000000E+00 -0.43038820625E+03  0.43038820625E+03  0.00000000000E+00 0.  1.
    9000007    1    1    2  502    0 -0.22757455516E+02  0.18552053326E+03 -0.14725822654E+03  0.46542534882E+03  0.40000000000E+03 0.  1.
   -9000007    1    1    2    0  501  0.22757455516E+02 -0.18552053326E+03  0.26882217909E+03  0.51691501624E+03  0.40000000000E+03 0. -1.
<mgrwt>
<rscale>  2 0.44151531E+03</rscale>
<asrwt>0</asrwt>
<pdfrwt beam="1">  1        2 0.84915717E-01 0.44151531E+03</pdfrwt>
<pdfrwt beam="2">  1       -2 0.66213570E-01 0.44151531E+03</pdfrwt>
<totfact> 0.11866442E+02</totfact>
</mgrwt>
</event>
<event>
 4    1  0.2247963E-002  0.4114725E+03  0.7818608E-02  0.1039878E+00
         -2   -1    0    0    0  501 -0.00000000000E+00  0.00000000000E+00  0.46275296863E+03  0.46275296863E+03  0.00000000000E+00 0.  1.
          2   -1    0    0  502    0  0.00000000000E+00 -0.00000000000E+00 -0.41224493375E+03  0.41224493375E+03  0.00000000000E+00 0. -1.
    9000007    1    1    2  502    0  0.35493238800E+02 -0.89720796159E+02  0.17198408577E+03  0.44596873996E+03  0.40000000000E+03 0.  1.
   -9000007    1    1    2    0  501 -0.35493238800E+02  0.89720796159E+02 -0.12147605088E+03  0.42902916241E+03  0.40000000000E+03 0. -1.
<mgrwt>
<rscale>  2 0.41147247E+03</rscale>
<asrwt>0</asrwt>
<pdfrwt beam="1">  1        2 0.63422297E-01 0.41147247E+03</pdfrwt>
<pdfrwt beam="2">  1       -2 0.71192764E-01 0.41147247E+03</pdfrwt>
<totfact> 0.14168105E+02</totfact>
</mgrwt>
</event>
<event>
 4    1  0.2247963E-002  0.4414273E+03  0.7818608E-02  0.1030310E+00
         -2   -1    0    0    0  501 -0.00000000000E+00  0.00000000000E+00  0.34530403698E+03  0.34530403698E+03  0.00000000000E+00 0. -1.
          2   -1    0    0  502    0  0.00000000000E+00 -0.00000000000E+00 -0.60384537028E+03  0.60384537028E+03  0.00000000000E+00 0.  1.
    9000007    1    1    2  502    0 -0.70879163460E+02  0.17272580158E+03 -0.78361968982E+01  0.44149684521E+03  0.40000000000E+03 0. -1.
   -9000007    1    1    2    0  501  0.70879163460E+02 -0.17272580158E+03 -0.25070513640E+03  0.50765256206E+03  0.40000000000E+03 0.  1.
<mgrwt>
<rscale>  2 0.44142730E+03</rscale>
<asrwt>0</asrwt>
<pdfrwt beam="1">  1        2 0.92899287E-01 0.44142730E+03</pdfrwt>
<pdfrwt beam="2">  1       -2 0.53123698E-01 0.44142730E+03</pdfrwt>
<totfact> 0.16920131E+02</totfact>
</mgrwt>
</event>
<event>
 4    1  0.2247963E-002  0.6265440E+03  0.7818608E-02  0.9851816E-01
          1   -1    0    0  502    0  0.00000000000E+00  0.00000000000E+00  0.47156059699E+03  0.47156059699E+03  0.00000000000E+00 0. -1.
         -1   -1    0    0    0  501 -0.00000000000E+00 -0.00000000000E+00 -0.83979687777E+03  0.83979687777E+03  0.00000000000E+00 0.  1.
    9000007    1    1    2  502    0 -0.21906859603E+03  0.42961188442E+03 -0.12285085704E+03  0.63847455241E+03  0.40000000000E+03 0.  1.
   -9000007    1    1    2    0  501  0.21906859603E+03 -0.42961188442E+03 -0.24538542374E+03  0.67288292235E+03  0.40000000000E+03 0.  1.
<mgrwt>
<rscale>  2 0.62654403E+03</rscale>
<asrwt>0</asrwt>
<pdfrwt beam="1">  1        1 0.72547784E-01 0.62654403E+03</pdfrwt>
<pdfrwt beam="2">  1       -1 0.12919952E+00 0.62654403E+03</pdfrwt>
<totfact> 0.25701712E+01</totfact>
</mgrwt>
</event>
<event>
 4    1  0.2247963E-002  0.4214577E+03  0.7818608E-02  0.1036593E+00
         -1   -1    0    0    0  501 -0.00000000000E+00  0.00000000000E+00  0.90736783019E+02  0.90736783019E+02  0.00000000000E+00 0.  1.
          1   -1    0    0  502    0  0.00000000000E+00 -0.00000000000E+00 -0.24135315298E+04  0.24135315298E+04  0.00000000000E+00 0. -1.
    9000007    1    1    2  502    0 -0.10552950373E+03 -0.80561330222E+02 -0.61717958850E+03  0.74735349638E+03  0.40000000000E+03 0.  1.
   -9000007    1    1    2    0  501  0.10552950373E+03  0.80561330222E+02 -0.17056151583E+04  0.17569148165E+04  0.40000000000E+03 0.  1.
<mgrwt>
<rscale>  2 0.42145771E+03</rscale>
<asrwt>0</asrwt>
<pdfrwt beam="1">  1        1 0.37131256E+00 0.42145771E+03</pdfrwt>
<pdfrwt beam="2">  1       -1 0.13959504E-01 0.42145771E+03</pdfrwt>
<totfact> 0.62976892E+01</totfact>
</mgrwt>
</event>
<event>
 4    1  0.2247963E-002  0.4272670E+03  0.7818608E-02  0.1034727E+00
          1   -1    0    0  502    0  0.00000000000E+00  0.00000000000E+00  0.10062833838E+04  0.10062833838E+04  0.00000000000E+00 0.  1.
         -1   -1    0    0    0  501 -0.00000000000E+00 -0.00000000000E+00 -0.18219675919E+03  0.18219675919E+03  0.00000000000E+00 0. -1.
    9000007    1    1    2  502    0 -0.13301643667E+03 -0.69740649307E+02  0.37317358100E+03  0.56728797991E+03  0.40000000000E+03 0.  1.
   -9000007    1    1    2    0  501  0.13301643667E+03  0.69740649307E+02  0.45091304360E+03  0.62119216309E+03  0.40000000000E+03 0.  1.
<mgrwt>
<rscale>  2 0.42726705E+03</rscale>
<asrwt>0</asrwt>
<pdfrwt beam="1">  1        1 0.15481283E+00 0.42726705E+03</pdfrwt>
<pdfrwt beam="2">  1       -1 0.28030271E-01 0.42726705E+03</pdfrwt>
<totfact> 0.17936931E+02</totfact>
</mgrwt>
</event>
<event>
 4    1  0.2247963E-002  0.4284981E+03  0.7818608E-02  0.1034335E+00
         -2   -1    0    0    0  501 -0.00000000000E+00  0.00000000000E+00  0.16177088596E+04  0.16177088596E+04  0.00000000000E+00 0.  1.
          2   -1    0    0  502    0  0.00000000000E+00 -0.00000000000E+00 -0.19222086055E+03  0.19222086055E+03  0.00000000000E+00 0. -1.
    9000007    1    1    2  502    0 -0.11348056000E+03 -0.10359913022E+03  0.12918729096E+04  0.13610827424E+04  0.40000000000E+03 0.  1.
   -9000007    1    1    2    0  501  0.11348056000E+03  0.10359913022E+03  0.13361508949E+03  0.44884697773E+03  0.40000000000E+03 0. -1.
<mgrwt>
<rscale>  2 0.42849809E+03</rscale>
<asrwt>0</asrwt>
<pdfrwt beam="1">  1        2 0.29572441E-01 0.42849809E+03</pdfrwt>
<pdfrwt beam="2">  1       -2 0.24887828E+00 0.42849809E+03</pdfrwt>
<totfact> 0.12622704E+01</totfact>
</mgrwt>
</event>
<event>
 4    1  0.2247963E-002  0.6547145E+03  0.7818608E-02  0.9797973E-01
         -2   -1    0    0    0  501 -0.00000000000E+00  0.00000000000E+00  0.82011565578E+03  0.82011565578E+03  0.00000000000E+00 0. -1.
          2   -1    0    0  502    0  0.00000000000E+00 -0.00000000000E+00 -0.70264379133E+03  0.70264379133E+03  0.00000000000E+00 0.  1.
    9000007    1    1    2  502    0 -0.45012625561E+03 -0.25697751818E+03 -0.32659733717E+03  0.73165354607E+03  0.40000000000E+03 0.  1.
   -9000007    1    1    2    0  501  0.45012625561E+03  0.25697751818E+03  0.44406920162E+03  0.79110590104E+03  0.40000000000E+03 0. -1.
<mgrwt>
<rscale>  2 0.65471451E+03</rscale>
<asrwt>0</asrwt>
<pdfrwt beam="1">  1        2 0.10809904E+00 0.65471451E+03</pdfrwt>
<pdfrwt beam="2">  1       -2 0.12617164E+00 0.65471451E+03</pdfrwt>
<totfact> 0.19553547E+01</totfact>
</mgrwt>
</event>
<event>
 4    1  0.2247963E-002  0.6885107E+03  0.7818608E-02  0.9737085E-01
          2   -1    0    0  502    0  0.00000000000E+00  0.00000000000E+00  0.91639024221E+03  0.91639024221E+03  0.00000000000E+00 0.  1.
         -2   -1    0    0    0  501 -0.00000000000E+00 -0.00000000000E+00 -0.52209303114E+03  0.52209303114E+03  0.00000000000E+00 0. -1.
    9000007    1    1    2  502    0 -0.55646578325E+03 -0.66278447134E+02  0.26607548764E+03  0.73813492371E+03  0.40000000000E+03 0. -1.
   -9000007    1    1    2    0  501  0.55646578325E+03  0.66278447134E+02  0.12822172344E+03  0.70034834964E+03  0.40000000000E+03 0. -1.
<mgrwt>
<rscale>  2 0.68851071E+03</rscale>
<asrwt>0</asrwt>
<pdfrwt beam="1">  1        2 0.14098311E+00 0.68851071E+03</pdfrwt>
<pdfrwt beam="2">  1       -2 0.80322005E-01 0.68851071E+03</pdfrwt>
<totfact> 0.39967226E+01</totfact>
</mgrwt>
</event>
<event>
 4    1  0.2247963E-002  0.4113006E+03  0.7818608E-02  0.1039935E+00
          4   -1    0    0  502    0  0.00000000000E+00  0.00000000000E+00  0.30329636773E+03  0.30329636773E+03  0.00000000000E+00 0. -1.
         -4   -1    0    0    0  501 -0.00000000000E+00 -0.00000000000E+00 -0.80630814498E+03  0.80630814498E+03  0.00000000000E+00 0.  1.
    9000007    1    1    2  502    0 -0.83209572433E+02 -0.47374225589E+02 -0.55953264397E+03  0.69443857170E+03  0.40000000000E+03 0.  1.
   -9000007    1    1    2    0  501  0.83209572433E+02  0.47374225589E+02  0.56520866727E+02  0.41516594100E+03  0.40000000000E+03 0. -1.
<mgrwt>
<rscale>  2 0.41130056E+03</rscale>
<asrwt>0</asrwt>
<pdfrwt beam="1">  1        4 0.46660981E-01 0.41130056E+03</pdfrwt>
<pdfrwt beam="2">  1       -4 0.12404740E+00 0.41130056E+03</pdfrwt>
<totfact> 0.42055730E+00</totfact>
</mgrwt>
</event>
<event>
 4    1  0.2247963E-002  0.4399537E+03  0.7818608E-02  0.1030761E+00
          1   -1    0    0  502    0  0.00000000000E+00  0.00000000000E+00  0.12255042027E+04  0.12255042027E+04  0.00000000000E+00 0.  1.
         -1   -1    0    0    0  501 -0.00000000000E+00 -0.00000000000E+00 -0.17913630274E+03  0.17913630274E+03  0.00000000000E+00 0. -1.
    9000007    1    1    2  502    0 -0.16302151925E+03  0.83565910196E+02  0.76475626872E+03  0.88227627625E+03  0.40000000000E+03 0.  1.
   -9000007    1    1    2    0  501  0.16302151925E+03 -0.83565910196E+02  0.28161163122E+03  0.52236422918E+03  0.40000000000E+03 0. -1.
<mgrwt>
<rscale>  2 0.43995372E+03</rscale>
<asrwt>0</asrwt>
<pdfrwt beam="1">  1        1 0.18853910E+00 0.43995372E+03</pdfrwt>
<pdfrwt beam="2">  1       -1 0.27559432E-01 0.43995372E+03</pdfrwt>
<totfact> 0.12743837E+02</totfact>
</mgrwt>
</event>
<event>
 4    1  0.2247963E-002  0.4467977E+03  0.7818608E-02  0.1028681E+00
          2   -1    0    0  502    0  0.00000000000E+00  0.00000000000E+00  0.59569425812E+03  0.59569425812E+03  0.00000000000E+00 0. -1.
         -2   -1    0    0    0  501 -0.00000000000E+00 -0.00000000000E+00 -0.33639719679E+03  0.33639719679E+03  0.00000000000E+00 0.  1.
    9000007    1    1    2  502    0  0.16356091534E+03  0.11347269480E+03  0.15838075460E+03  0.47403869981E+03  0.40000000000E+03 0.  1.
   -9000007    1    1    2    0  501 -0.16356091534E+03 -0.11347269480E+03  0.10091630672E+03  0.45805275510E+03  0.40000000000E+03 0.  1.
<mgrwt>
<rscale>  2 0.44679775E+03</rscale>
<asrwt>0</asrwt>
<pdfrwt beam="1">  1        2 0.91645270E-01 0.44679775E+03</pdfrwt>
<pdfrwt beam="2">  1       -2 0.51753415E-01 0.44679775E+03</pdfrwt>
<totfact> 0.18129085E+02</totfact>
</mgrwt>
</event>
<event>
 4    1  0.2247963E-002  0.5313596E+03  0.7818608E-02  0.1005903E+00
          2   -1    0    0  502    0  0.00000000000E+00  0.00000000000E+00  0.18831734946E+04  0.18831734946E+04  0.00000000000E+00 0. -1.
         -2   -1    0    0    0  501 -0.00000000000E+00 -0.00000000000E+00 -0.20172423835E+03  0.20172423835E+03  0.00000000000E+00 0.  1.
    9000007    1    1    2  502    0 -0.34453010971E+03 -0.60349187179E+02  0.13689497772E+04  0.14684571881E+04  0.40000000000E+03 0. -1.
   -9000007    1    1    2    0  501  0.34453010971E+03  0.60349187179E+02  0.31249947904E+03  0.61644054481E+03  0.40000000000E+03 0. -1.
<mgrwt>
<rscale>  2 0.53135960E+03</rscale>
<asrwt>0</asrwt>
<pdfrwt beam="1">  1        2 0.28971899E+00 0.53135960E+03</pdfrwt>
<pdfrwt beam="2">  1       -2 0.31034500E-01 0.53135960E+03</pdfrwt>
<totfact> 0.78709688E+01</totfact>
</mgrwt>
</event>
<event>
 4    1  0.2247963E-002  0.4175732E+03  0.7818608E-02  0.1037859E+00
          2   -1    0    0  502    0  0.00000000000E+00  0.00000000000E+00  0.11777195941E+04  0.11777195941E+04  0.00000000000E+00 0.  1.
         -2   -1    0    0    0  501 -0.00000000000E+00 -0.00000000000E+00 -0.16182984791E+03  0.16182984791E+03  0.00000000000E+00 0. -1.
    9000007    1    1    2  502    0 -0.93709257396E+02  0.74739008993E+02  0.31253706644E+03  0.52158102178E+03  0.40000000000E+03 0. -1.
   -9000007    1    1    2    0  501  0.93709257396E+02 -0.74739008993E+02  0.70335267977E+03  0.81796842025E+03  0.40000000000E+03 0.  1.
<mgrwt>
<rscale>  2 0.41757316E+03</rscale>
<asrwt>0</asrwt>
<pdfrwt beam="1">  1        2 0.18118762E+00 0.41757316E+03</pdfrwt>
<pdfrwt beam="2">  1       -2 0.24896900E-01 0.41757316E+03</pdfrwt>
<totfact> 0.29188079E+02</totfact>
</mgrwt>
</event>
<event>
 4    1  0.2247963E-002  0.4218777E+03  0.7818608E-02  0.1036457E+00
         -2   -1    0    0    0  501 -0.00000000000E+00  0.00000000000E+00  0.95604231246E+02  0.95604231246E+02  0.00000000000E+00 0. -1.
          2   -1    0    0  502    0  0.00000000000E+00 -0.00000000000E+00 -0.19500653273E+04  0.19500653273E+04  0.00000000000E+00 0.  1.
    9000007    1    1    2  502    0  0.75303752891E+02  0.11095103810E+03 -0.11450346137E+04  0.12202807278E+04  0.40000000000E+03 0.  1.
   -9000007    1    1    2    0  501 -0.75303752891E+02 -0.11095103810E+03 -0.70942648233E+03  0.82538883072E+03  0.40000000000E+03 0. -1.
<mgrwt>
<rscale>  2 0.42187769E+03</rscale>
<asrwt>0</asrwt>
<pdfrwt beam="1">  1        2 0.30001003E+00 0.42187769E+03</pdfrwt>
<pdfrwt beam="2">  1       -2 0.14708344E-01 0.42187769E+03</pdfrwt>
<totfact> 0.27310577E+02</totfact>
</mgrwt>
</event>
<event>
 4    1  0.2247963E-002  0.4067926E+03  0.7818608E-02  0.1041453E+00
         -2   -1    0    0    0  501 -0.00000000000E+00  0.00000000000E+00  0.15427919809E+03  0.15427919809E+03  0.00000000000E+00 0.  1.
          2   -1    0    0  502    0  0.00000000000E+00 -0.00000000000E+00 -0.10832148825E+04  0.10832148825E+04  0.00000000000E+00 0. -1.
    9000007    1    1    2  502    0  0.73997800430E+02 -0.21256299907E+01 -0.40322288496E+03  0.57277298097E+03  0.40000000000E+03 0.  1.
   -9000007    1    1    2    0  501 -0.73997800430E+02  0.21256299907E+01 -0.52571279943E+03  0.66472109960E+03  0.40000000000E+03 0. -1.
<mgrwt>
<rscale>  2 0.40679257E+03</rscale>
<asrwt>0</asrwt>
<pdfrwt beam="1">  1        2 0.16664844E+00 0.40679257E+03</pdfrwt>
<pdfrwt beam="2">  1       -2 0.23735262E-01 0.40679257E+03</pdfrwt>
<totfact> 0.36186439E+02</totfact>
</mgrwt>
</event>
<event>
 4    1  0.2247963E-002  0.4439064E+03  0.7818608E-02  0.1029555E+00
         -1   -1    0    0    0  501 -0.00000000000E+00  0.00000000000E+00  0.37353563450E+03  0.37353563450E+03  0.00000000000E+00 0. -1.
          1   -1    0    0  502    0  0.00000000000E+00 -0.00000000000E+00 -0.53124986512E+03  0.53124986512E+03  0.00000000000E+00 0.  1.
    9000007    1    1    2  502    0  0.13036801593E+03  0.14162292268E+03 -0.11669063344E+03  0.45898755510E+03  0.40000000000E+03 0.  1.
   -9000007    1    1    2    0  501 -0.13036801593E+03 -0.14162292268E+03 -0.41023597183E+02  0.44579794451E+03  0.40000000000E+03 0. -1.
<mgrwt>
<rscale>  2 0.44390638E+03</rscale>
<asrwt>0</asrwt>
<pdfrwt beam="1">  1        1 0.81730748E-01 0.44390638E+03</pdfrwt>
<pdfrwt beam="2">  1       -1 0.57467021E-01 0.44390638E+03</pdfrwt>
<totfact> 0.13005327E+02</totfact>
</mgrwt>
</event>
<event>
 4    1  0.2247963E-002  0.4354781E+03  0.7818608E-02  0.1032143E+00
          2   -1    0    0  502    0  0.00000000000E+00  0.00000000000E+00  0.49338988843E+03  0.49338988843E+03  0.00000000000E+00 0.  1.
         -2   -1    0    0    0  501 -0.00000000000E+00 -0.00000000000E+00 -0.39086549880E+03  0.39086549880E+03  0.00000000000E+00 0. -1.
    9000007    1    1    2  502    0  0.35674799674E+02 -0.16842934232E+03  0.10828554564E+03  0.44873922726E+03  0.40000000000E+03 0. -1.
   -9000007    1    1    2    0  501 -0.35674799674E+02  0.16842934232E+03 -0.57611560074E+01  0.43551615998E+03  0.40000000000E+03 0. -1.
<mgrwt>
<rscale>  2 0.43547805E+03</rscale>
<asrwt>0</asrwt>
<pdfrwt beam="1">  1        2 0.75906136E-01 0.43547805E+03</pdfrwt>
<pdfrwt beam="2">  1       -2 0.60133154E-01 0.43547805E+03</pdfrwt>
<totfact> 0.16566272E+02</totfact>
</mgrwt>
</event>
<event>
 4    1  0.2247963E-002  0.4481363E+03  0.7818608E-02  0.1028279E+00
          2   -1    0    0  502    0  0.00000000000E+00  0.00000000000E+00  0.68417375649E+03  0.68417375649E+03  0.00000000000E+00 0. -1.
         -2   -1    0    0    0  501 -0.00000000000E+00 -0.00000000000E+00 -0.30242616973E+03  0.30242616973E+03  0.00000000000E+00 0.  1.
    9000007    1    1    2  502    0  0.12456805316E+02 -0.20167037895E+03  0.10627155714E+03  0.46056460741E+03  0.40000000000E+03 0. -1.
   -9000007    1    1    2    0  501 -0.12456805316E+02  0.20167037895E+03  0.27547602961E+03  0.52603531881E+03  0.40000000000E+03 0. -1.
<mgrwt>
<rscale>  2 0.44813627E+03</rscale>
<asrwt>0</asrwt>
<pdfrwt beam="1">  1        2 0.10525750E+00 0.44813627E+03</pdfrwt>
<pdfrwt beam="2">  1       -2 0.46527103E-01 0.44813627E+03</pdfrwt>
<totfact> 0.18996696E+02</totfact>
</mgrwt>
</event>
<event>
 4    1  0.2247963E-002  0.4291308E+03  0.7818608E-02  0.1034135E+00
          2   -1    0    0  502    0  0.00000000000E+00  0.00000000000E+00  0.99204262737E+03  0.99204262737E+03  0.00000000000E+00 0. -1.
         -2   -1    0    0    0  501 -0.00000000000E+00 -0.00000000000E+00 -0.18612421718E+03  0.18612421718E+03  0.00000000000E+00 0.  1.
    9000007    1    1    2  502    0 -0.10426443620E+03 -0.11524833092E+03  0.43330279850E+03  0.60983978685E+03  0.40000000000E+03 0.  1.
   -9000007    1    1    2    0  501  0.10426443620E+03  0.11524833092E+03  0.37261561169E+03  0.56832705770E+03  0.40000000000E+03 0. -1.
<mgrwt>
<rscale>  2 0.42913081E+03</rscale>
<asrwt>0</asrwt>
<pdfrwt beam="1">  1        2 0.15262194E+00 0.42913081E+03</pdfrwt>
<pdfrwt beam="2">  1       -2 0.28634495E-01 0.42913081E+03</pdfrwt>
<totfact> 0.29327420E+02</totfact>
</mgrwt>
</event>
<event>
 4    1  0.2247963E-002  0.4490115E+03  0.7818608E-02  0.1028017E+00
         -1   -1    0    0    0  501 -0.00000000000E+00  0.00000000000E+00  0.26277928817E+03  0.26277928817E+03  0.00000000000E+00 0.  1.
          1   -1    0    0  502    0  0.00000000000E+00 -0.00000000000E+00 -0.76724336349E+03  0.76724336349E+03  0.00000000000E+00 0. -1.
    9000007    1    1    2  502    0 -0.11905374330E+03  0.16564291589E+03 -0.24985485137E+03  0.51384707465E+03  0.40000000000E+03 0. -1.
   -9000007    1    1    2    0  501  0.11905374330E+03 -0.16564291589E+03 -0.25460922396E+03  0.51617557701E+03  0.40000000000E+03 0. -1.
<mgrwt>
<rscale>  2 0.44901155E+03</rscale>
<asrwt>0</asrwt>
<pdfrwt beam="1">  1        1 0.11803744E+00 0.44901155E+03</pdfrwt>
<pdfrwt beam="2">  1       -1 0.40427583E-01 0.44901155E+03</pdfrwt>
<totfact> 0.14701623E+02</totfact>
</mgrwt>
</event>
<event>
 4    1  0.2247963E-002  0.5256755E+03  0.7818608E-02  0.1007286E+00
          2   -1    0    0  502    0  0.00000000000E+00  0.00000000000E+00  0.17602517453E+04  0.17602517453E+04  0.00000000000E+00 0. -1.
         -2   -1    0    0    0  501 -0.00000000000E+00 -0.00000000000E+00 -0.17224623388E+03  0.17224623388E+03  0.00000000000E+00 0.  1.
    9000007    1    1    2  502    0 -0.20520089010E+03  0.27244687081E+03  0.50639789787E+03  0.72991337409E+03  0.40000000000E+03 0.  1.
   -9000007    1    1    2    0  501  0.20520089010E+03 -0.27244687081E+03  0.10816076136E+04  0.12025846051E+04  0.40000000000E+03 0. -1.
<mgrwt>
<rscale>  2 0.52567547E+03</rscale>
<asrwt>0</asrwt>
<pdfrwt beam="1">  1        2 0.27080795E+00 0.52567547E+03</pdfrwt>
<pdfrwt beam="2">  1       -2 0.26499422E-01 0.52567547E+03</pdfrwt>
<totfact> 0.12255060E+02</totfact>
</mgrwt>
</event>
<event>
 4    1  0.2247963E-002  0.4172385E+03  0.7818608E-02  0.1037969E+00
          1   -1    0    0  502    0  0.00000000000E+00  0.00000000000E+00  0.12705719058E+03  0.12705719058E+03  0.00000000000E+00 0.  1.
         -1   -1    0    0    0  501 -0.00000000000E+00 -0.00000000000E+00 -0.15156217696E+04  0.15156217696E+04  0.00000000000E+00 0. -1.
    9000007    1    1    2  502    0  0.11385082201E+03  0.33555534012E+02 -0.43982792734E+03  0.60624796016E+03  0.40000000000E+03 0. -1.
   -9000007    1    1    2    0  501 -0.11385082201E+03 -0.33555534012E+02 -0.94873665166E+03  0.10364310000E+04  0.40000000000E+03 0. -1.
<mgrwt>
<rscale>  2 0.41723852E+03</rscale>
<asrwt>0</asrwt>
<pdfrwt beam="1">  1        1 0.19547260E-01 0.41723852E+03</pdfrwt>
<pdfrwt beam="2">  1       -1 0.23317259E+00 0.41723852E+03</pdfrwt>
<totfact> 0.26056257E+01</totfact>
</mgrwt>
</event>
<event>
 4    1  0.2247963E-002  0.5788018E+03  0.7818608E-02  0.9950389E-01
          2   -1    0    0  502    0  0.00000000000E+00  0.00000000000E+00  0.19458070886E+04  0.19458070886E+04  0.00000000000E+00 0.  1.
         -2   -1    0    0    0  501 -0.00000000000E+00 -0.00000000000E+00 -0.22644681800E+03  0.22644681800E+03  0.00000000000E+00 0. -1.
    9000007    1    1    2  502    0  0.10551346053E+03 -0.40481897535E+03  0.13914219218E+04  0.15070057922E+04  0.40000000000E+03 0.  1.
   -9000007    1    1    2    0  501 -0.10551346053E+03  0.40481897535E+03  0.32793834880E+03  0.66524811444E+03  0.40000000000E+03 0. -1.
<mgrwt>
<rscale>  2 0.57880177E+03</rscale>
<asrwt>0</asrwt>
<pdfrwt beam="1">  1        2 0.29935493E+00 0.57880177E+03</pdfrwt>
<pdfrwt beam="2">  1       -2 0.34837973E-01 0.57880177E+03</pdfrwt>
<totfact> 0.58204618E+01</totfact>
</mgrwt>
</event>
<event>
 4    1  0.2247963E-002  0.4675287E+03  0.7818608E-02  0.1022620E+00
          2   -1    0    0  502    0  0.00000000000E+00  0.00000000000E+00  0.95117426038E+02  0.95117426038E+02  0.00000000000E+00 0.  1.
         -2   -1    0    0    0  501 -0.00000000000E+00 -0.00000000000E+00 -0.28466932178E+04  0.28466932178E+04  0.00000000000E+00 0. -1.
    9000007    1    1    2  502    0  0.12945506233E+03  0.20451040784E+03 -0.20215395914E+04  0.20748988986E+04  0.40000000000E+03 0. -1.
   -9000007    1    1    2    0  501 -0.12945506233E+03 -0.20451040784E+03 -0.73003620034E+03  0.86691174515E+03  0.40000000000E+03 0.  1.
<mgrwt>
<rscale>  2 0.46752874E+03</rscale>
<asrwt>0</asrwt>
<pdfrwt beam="1">  1        2 0.14633449E-01 0.46752874E+03</pdfrwt>
<pdfrwt beam="2">  1       -2 0.43795284E+00 0.46752874E+03</pdfrwt>
<totfact> 0.19343457E+00</totfact>
</mgrwt>
</event>
<event>
 4    1  0.2247963E-002  0.5204376E+03  0.7818608E-02  0.1008578E+00
          2   -1    0    0  502    0  0.00000000000E+00  0.00000000000E+00  0.30844109165E+04  0.30844109165E+04  0.00000000000E+00 0.  1.
         -2   -1    0    0    0  501 -0.00000000000E+00 -0.00000000000E+00 -0.91687659759E+02  0.91687659759E+02  0.00000000000E+00 0. -1.
    9000007    1    1    2  502    0 -0.28678390336E+03 -0.16914571161E+03  0.11699584429E+04  0.12804913265E+04  0.40000000000E+03 0. -1.
   -9000007    1    1    2    0  501  0.28678390336E+03  0.16914571161E+03  0.18227648138E+04  0.18956072498E+04  0.40000000000E+03 0.  1.
<mgrwt>
<rscale>  2 0.52043758E+03</rscale>
<asrwt>0</asrwt>
<pdfrwt beam="1">  1        2 0.47452468E+00 0.52043758E+03</pdfrwt>
<pdfrwt beam="2">  1       -2 0.14105796E-01 0.52043758E+03</pdfrwt>
<totfact> 0.65840636E+01</totfact>
</mgrwt>
</event>
<event>
 4    1  0.2247963E-002  0.4441945E+03  0.7818608E-02  0.1029468E+00
         -2   -1    0    0    0  501 -0.00000000000E+00  0.00000000000E+00  0.68601519779E+02  0.68601519779E+02  0.00000000000E+00 0.  1.
          2   -1    0    0  502    0  0.00000000000E+00 -0.00000000000E+00 -0.31642467411E+04  0.31642467411E+04  0.00000000000E+00 0. -1.
    9000007    1    1    2  502    0  0.19180036844E+03 -0.22834175768E+02 -0.10600879542E+04  0.11493890775E+04  0.40000000000E+03 0.  1.
   -9000007    1    1    2    0  501 -0.19180036844E+03  0.22834175768E+02 -0.20355572671E+04  0.20834591833E+04  0.40000000000E+03 0.  1.
<mgrwt>
<rscale>  2 0.44419453E+03</rscale>
<asrwt>0</asrwt>
<pdfrwt beam="1">  1        2 0.48680716E+00 0.44419453E+03</pdfrwt>
<pdfrwt beam="2">  1       -2 0.10554081E-01 0.44419453E+03</pdfrwt>
<totfact> 0.96245214E+01</totfact>
</mgrwt>
</event>
<event>
 4    1  0.2247963E-002  0.4012654E+03  0.7818608E-02  0.1043342E+00
          2   -1    0    0  502    0  0.00000000000E+00  0.00000000000E+00  0.13022396437E+04  0.13022396437E+04  0.00000000000E+00 0.  1.
         -2   -1    0    0    0  501 -0.00000000000E+00 -0.00000000000E+00 -0.15280009900E+03  0.15280009900E+03  0.00000000000E+00 0. -1.
    9000007    1    1    2  502    0  0.13672020858E+02 -0.28757074696E+02  0.89251621923E+03  0.97856992345E+03  0.40000000000E+03 0.  1.
   -9000007    1    1    2    0  501 -0.13672020858E+02  0.28757074696E+02  0.25692332553E+03  0.47646981929E+03  0.40000000000E+03 0. -1.
<mgrwt>
<rscale>  2 0.40126537E+03</rscale>
<asrwt>0</asrwt>
<pdfrwt beam="1">  1        2 0.20034455E+00 0.40126537E+03</pdfrwt>
<pdfrwt beam="2">  1       -2 0.23507708E-01 0.40126537E+03</pdfrwt>
<totfact> 0.27473031E+02</totfact>
</mgrwt>
</event>
<event>
 4    1  0.2247963E-002  0.4243179E+03  0.7818608E-02  0.1035670E+00
         -1   -1    0    0    0  501 -0.00000000000E+00  0.00000000000E+00  0.28434588593E+03  0.28434588593E+03  0.00000000000E+00 0. -1.
          1   -1    0    0  502    0  0.00000000000E+00 -0.00000000000E+00 -0.63677438276E+03  0.63677438276E+03  0.00000000000E+00 0.  1.
    9000007    1    1    2  502    0 -0.14040987493E+03  0.18186966107E+02 -0.21075611102E+03  0.47377614656E+03  0.40000000000E+03 0. -1.
   -9000007    1    1    2    0  501  0.14040987493E+03 -0.18186966107E+02 -0.14167238581E+03  0.44734412214E+03  0.40000000000E+03 0. -1.
<mgrwt>
<rscale>  2 0.42431792E+03</rscale>
<asrwt>0</asrwt>
<pdfrwt beam="1">  1        1 0.97965289E-01 0.42431792E+03</pdfrwt>
<pdfrwt beam="2">  1       -1 0.43745521E-01 0.42431792E+03</pdfrwt>
<totfact> 0.16856422E+02</totfact>
</mgrwt>
</event>
<event>
 4    1  0.2247963E-002  0.4425954E+03  0.7818608E-02  0.1029953E+00
          1   -1    0    0  502    0  0.00000000000E+00  0.00000000000E+00  0.17115248722E+03  0.17115248722E+03  0.00000000000E+00 0. -1.
         -1   -1    0    0    0  501 -0.00000000000E+00 -0.00000000000E+00 -0.14062205968E+04  0.14062205968E+04  0.00000000000E+00 0.  1.
    9000007    1    1    2  502    0  0.16455777661E+03 -0.93869077999E+02 -0.95775766086E+03  0.10550783869E+04  0.40000000000E+03 0.  1.
   -9000007    1    1    2    0  501 -0.16455777661E+03  0.93869077999E+02 -0.27731044874E+03  0.52229469711E+03  0.40000000000E+03 0. -1.
<mgrwt>
<rscale>  2 0.44259537E+03</rscale>
<asrwt>0</asrwt>
<pdfrwt beam="1">  1        1 0.26331151E-01 0.44259537E+03</pdfrwt>
<pdfrwt beam="2">  1       -1 0.21634164E+00 0.44259537E+03</pdfrwt>
<totfact> 0.22673217E+01</totfact>
</mgrwt>
</event>
<event>
 4    1  0.2247963E-002  0.4062341E+03  0.7818608E-02  0.1041642E+00
          2   -1    0    0  502    0  0.00000000000E+00  0.00000000000E+00  0.10098792835E+04  0.10098792835E+04  0.00000000000E+00 0. -1.
         -2   -1    0    0    0  501 -0.00000000000E+00 -0.00000000000E+00 -0.16376726326E+03  0.16376726326E+03  0.00000000000E+00 0.  1.
    9000007    1    1    2  502    0  0.35177836080E+02  0.61552323597E+02  0.45039641517E+03  0.60653367547E+03  0.40000000000E+03 0.  1.
   -9000007    1    1    2    0  501 -0.35177836080E+02 -0.61552323597E+02  0.39571560509E+03  0.56711287131E+03  0.40000000000E+03 0. -1.
<mgrwt>
<rscale>  2 0.40623413E+03</rscale>
<asrwt>0</asrwt>
<pdfrwt beam="1">  1        2 0.15536604E+00 0.40623413E+03</pdfrwt>
<pdfrwt beam="2">  1       -2 0.25194964E-01 0.40623413E+03</pdfrwt>
<totfact> 0.36083419E+02</totfact>
</mgrwt>
</event>
<event>
 4    1  0.2247963E-002  0.4097897E+03  0.7818608E-02  0.1040442E+00
          2   -1    0    0  502    0  0.00000000000E+00  0.00000000000E+00  0.23935314653E+04  0.23935314653E+04  0.00000000000E+00 0. -1.
         -2   -1    0    0    0  501 -0.00000000000E+00 -0.00000000000E+00 -0.70864484085E+02  0.70864484085E+02  0.00000000000E+00 0.  1.
    9000007    1    1    2  502    0 -0.46875562142E+02 -0.75698698740E+02  0.12842841084E+04  0.13480776248E+04  0.40000000000E+03 0.  1.
   -9000007    1    1    2    0  501  0.46875562142E+02  0.75698698740E+02  0.10383828728E+04  0.11163183246E+04  0.40000000000E+03 0. -1.
<mgrwt>
<rscale>  2 0.40978972E+03</rscale>
<asrwt>0</asrwt>
<pdfrwt beam="1">  1        2 0.36823555E+00 0.40978972E+03</pdfrwt>
<pdfrwt beam="2">  1       -2 0.10902230E-01 0.40978972E+03</pdfrwt>
<totfact> 0.25791341E+02</totfact>
</mgrwt>
</event>
<event>
 4    1  0.2247963E-002  0.4058820E+03  0.7818608E-02  0.1041762E+00
         -2   -1    0    0    0  501 -0.00000000000E+00  0.00000000000E+00  0.14319318446E+03  0.14319318446E+03  0.00000000000E+00 0. -1.
          2   -1    0    0  502    0  0.00000000000E+00 -0.00000000000E+00 -0.12578325779E+04  0.12578325779E+04  0.00000000000E+00 0.  1.
    9000007    1    1    2  502    0 -0.46679361159E+02  0.50608771797E+02 -0.35266552046E+03  0.53769245844E+03  0.40000000000E+03 0. -1.
   -9000007    1    1    2    0  501  0.46679361159E+02 -0.50608771797E+02 -0.76197387299E+03  0.86333330392E+03  0.40000000000E+03 0.  1.
<mgrwt>
<rscale>  2 0.40588202E+03</rscale>
<asrwt>0</asrwt>
<pdfrwt beam="1">  1        2 0.19351271E+00 0.40588202E+03</pdfrwt>
<pdfrwt beam="2">  1       -2 0.22029720E-01 0.40588202E+03</pdfrwt>
<totfact> 0.32623035E+02</totfact>
</mgrwt>
</event>
<event>
 4    1  0.2247963E-002  0.4454038E+03  0.7818608E-02  0.1029102E+00
         -1   -1    0    0    0  501 -0.00000000000E+00  0.00000000000E+00  0.43974503236E+03  0.43974503236E+03  0.00000000000E+00 0. -1.
          1   -1    0    0  502    0  0.00000000000E+00 -0.00000000000E+00 -0.57135674094E+03  0.57135674094E+03  0.00000000000E+00 0.  1.
    9000007    1    1    2  502    0 -0.16134417160E+03 -0.11114233373E+03 -0.29770649342E+03  0.53573661092E+03  0.40000000000E+03 0.  1.
   -9000007    1    1    2    0  501  0.16134417160E+03  0.11114233373E+03  0.16609478484E+03  0.47536516238E+03  0.40000000000E+03 0. -1.
<mgrwt>
<rscale>  2 0.44540382E+03</rscale>
<asrwt>0</asrwt>
<pdfrwt beam="1">  1        1 0.87901036E-01 0.44540382E+03</pdfrwt>
<pdfrwt beam="2">  1       -1 0.67653082E-01 0.44540382E+03</pdfrwt>
<totfact> 0.85253361E+01</totfact>
</mgrwt>
</event>
<event>
 4    1  0.2247963E-002  0.4079419E+03  0.7818608E-02  0.1041064E+00
          3   -1    0    0  502    0  0.00000000000E+00  0.00000000000E+00  0.38274900442E+03  0.38274900442E+03  0.00000000000E+00 0. -1.
         -3   -1    0    0    0  501 -0.00000000000E+00 -0.00000000000E+00 -0.65178835973E+03  0.65178835973E+03  0.00000000000E+00 0.  1.
    9000007    1    1    2  502    0 -0.70611026408E+02  0.37824572064E+02  0.16394162944E+03  0.43965153607E+03  0.40000000000E+03 0. -1.
   -9000007    1    1    2    0  501  0.70611026408E+02 -0.37824572064E+02 -0.43298098475E+03  0.59488582808E+03  0.40000000000E+03 0.  1.
<mgrwt>
<rscale>  2 0.40794193E+03</rscale>
<asrwt>0</asrwt>
<pdfrwt beam="1">  1        3 0.58884463E-01 0.40794193E+03</pdfrwt>
<pdfrwt beam="2">  1       -3 0.10027513E+00 0.40794193E+03</pdfrwt>
<totfact> 0.63935374E+00</totfact>
</mgrwt>
</event>
<event>
 4    1  0.2247963E-002  0.5495250E+03  0.7818608E-02  0.1001604E+00
          2   -1    0    0  502    0  0.00000000000E+00  0.00000000000E+00  0.52897846105E+03  0.52897846105E+03  0.00000000000E+00 0. -1.
         -2   -1    0    0    0  501 -0.00000000000E+00 -0.00000000000E+00 -0.57368598877E+03  0.57368598877E+03  0.00000000000E+00 0.  1.
    9000007    1    1    2  502    0 -0.15928986843E+02 -0.37646243909E+03  0.16276327528E+02  0.54976596794E+03  0.40000000000E+03 0.  1.
   -9000007    1    1    2    0  501  0.15928986843E+02  0.37646243909E+03 -0.60983855252E+02  0.55289848188E+03  0.40000000000E+03 0. -1.
<mgrwt>
<rscale>  2 0.54952498E+03</rscale>
<asrwt>0</asrwt>
<pdfrwt beam="1">  1        2 0.81381302E-01 0.54952498E+03</pdfrwt>
<pdfrwt beam="2">  1       -2 0.88259383E-01 0.54952498E+03</pdfrwt>
<totfact> 0.65415566E+01</totfact>
</mgrwt>
</event>
<event>
 4    1  0.2247963E-002  0.7059962E+03  0.7818608E-02  0.9707033E-01
         -2   -1    0    0    0  501 -0.00000000000E+00  0.00000000000E+00  0.25307853381E+03  0.25307853381E+03  0.00000000000E+00 0.  1.
          2   -1    0    0  502    0  0.00000000000E+00 -0.00000000000E+00 -0.34079440189E+04  0.34079440189E+04  0.00000000000E+00 0. -1.
    9000007    1    1    2  502    0  0.47523851793E+02 -0.57980349014E+03 -0.38817173592E+03  0.80567232808E+03  0.40000000000E+03 0.  1.
   -9000007    1    1    2    0  501 -0.47523851793E+02  0.57980349014E+03 -0.27666937492E+04  0.28553502246E+04  0.40000000000E+03 0. -1.
<mgrwt>
<rscale>  2 0.70599618E+03</rscale>
<asrwt>0</asrwt>
<pdfrwt beam="1">  1        2 0.52429902E+00 0.70599618E+03</pdfrwt>
<pdfrwt beam="2">  1       -2 0.38935163E-01 0.70599618E+03</pdfrwt>
<totfact> 0.63922624E+00</totfact>
</mgrwt>
</event>
<event>
 4    1  0.2247963E-002  0.4950787E+03  0.7818608E-02  0.1015071E+00
          2   -1    0    0  502    0  0.00000000000E+00  0.00000000000E+00  0.39960526516E+03  0.39960526516E+03  0.00000000000E+00 0. -1.
         -2   -1    0    0    0  501 -0.00000000000E+00 -0.00000000000E+00 -0.63242501377E+03  0.63242501377E+03  0.00000000000E+00 0.  1.
    9000007    1    1    2  502    0 -0.74835307020E+02  0.28196201175E+03 -0.26822339197E+02  0.49580473690E+03  0.40000000000E+03 0. -1.
   -9000007    1    1    2    0  501  0.74835307020E+02 -0.28196201175E+03 -0.20599740941E+03  0.53622554203E+03  0.40000000000E+03 0.  1.
<mgrwt>
<rscale>  2 0.49507868E+03</rscale>
<asrwt>0</asrwt>
<pdfrwt beam="1">  1        2 0.61477733E-01 0.49507868E+03</pdfrwt>
<pdfrwt beam="2">  1       -2 0.97296156E-01 0.49507868E+03</pdfrwt>
<totfact> 0.72129808E+01</totfact>
</mgrwt>
</event>
<event>
 4    1  0.2247963E-002  0.4116433E+03  0.7818608E-02  0.1039821E+00
          2   -1    0    0  502    0  0.00000000000E+00  0.00000000000E+00  0.18968534913E+04  0.18968534913E+04  0.00000000000E+00 0. -1.
         -2   -1    0    0    0  501 -0.00000000000E+00 -0.00000000000E+00 -0.89516753910E+02  0.89516753910E+02  0.00000000000E+00 0.  1.
    9000007    1    1    2  502    0  0.96328185800E+02 -0.13078730907E+02  0.85857716571E+03  0.95215803419E+03  0.40000000000E+03 0.  1.
   -9000007    1    1    2    0  501 -0.96328185800E+02  0.13078730907E+02  0.94875957167E+03  0.10342122110E+04  0.40000000000E+03 0. -1.
<mgrwt>
<rscale>  2 0.41164326E+03</rscale>
<asrwt>0</asrwt>
<pdfrwt beam="1">  1        2 0.29182358E+00 0.41164326E+03</pdfrwt>
<pdfrwt beam="2">  1       -2 0.13771810E-01 0.41164326E+03</pdfrwt>
<totfact> 0.32577600E+02</totfact>
</mgrwt>
</event>
<event>
 4    1  0.2247963E-002  0.4434556E+03  0.7818608E-02  0.1029692E+00
          2   -1    0    0  502    0  0.00000000000E+00  0.00000000000E+00  0.40779177972E+03  0.40779177972E+03  0.00000000000E+00 0. -1.
         -2   -1    0    0    0  501 -0.00000000000E+00 -0.00000000000E+00 -0.49551331027E+03  0.49551331027E+03  0.00000000000E+00 0.  1.
    9000007    1    1    2  502    0 -0.15795126636E+03  0.10818622542E+03 -0.11778593572E+03  0.45883154705E+03  0.40000000000E+03 0.  1.
   -9000007    1    1    2    0  501  0.15795126636E+03 -0.10818622542E+03  0.30064405172E+02  0.44447354294E+03  0.40000000000E+03 0. -1.
<mgrwt>
<rscale>  2 0.44345559E+03</rscale>
<asrwt>0</asrwt>
<pdfrwt beam="1">  1        2 0.62737197E-01 0.44345559E+03</pdfrwt>
<pdfrwt beam="2">  1       -2 0.76232817E-01 0.44345559E+03</pdfrwt>
<totfact> 0.12317121E+02</totfact>
</mgrwt>
</event>
<event>
 4    1  0.2247963E-002  0.5080669E+03  0.7818608E-02  0.1011695E+00
         -2   -1    0    0    0  501 -0.00000000000E+00  0.00000000000E+00  0.23795622467E+03  0.23795622467E+03  0.00000000000E+00 0. -1.
          2   -1    0    0  502    0  0.00000000000E+00 -0.00000000000E+00 -0.13217942791E+04  0.13217942791E+04  0.00000000000E+00 0.  1.
    9000007    1    1    2  502    0  0.29236691693E+03  0.11248784709E+03 -0.21168363135E+03  0.55040157125E+03  0.40000000000E+03 0. -1.
   -9000007    1    1    2    0  501 -0.29236691693E+03 -0.11248784709E+03 -0.87215442311E+03  0.10093489325E+04  0.40000000000E+03 0.  1.
<mgrwt>
<rscale>  2 0.50806686E+03</rscale>
<asrwt>0</asrwt>
<pdfrwt beam="1">  1        2 0.20335296E+00 0.50806686E+03</pdfrwt>
<pdfrwt beam="2">  1       -2 0.36608650E-01 0.50806686E+03</pdfrwt>
<totfact> 0.11732381E+02</totfact>
</mgrwt>
</event>
<event>
 4    1  0.2247963E-002  0.4641600E+03  0.7818608E-02  0.1023582E+00
         -1   -1    0    0    0  501 -0.00000000000E+00  0.00000000000E+00  0.63717188765E+03  0.63717188765E+03  0.00000000000E+00 0.  1.
          1   -1    0    0  502    0  0.00000000000E+00 -0.00000000000E+00 -0.33910706297E+03  0.33910706297E+03  0.00000000000E+00 0. -1.
    9000007    1    1    2  502    0 -0.12302428695E+03 -0.20077244905E+03  0.12278025714E+03  0.48012450783E+03  0.40000000000E+03 0.  1.
   -9000007    1    1    2    0  501  0.12302428695E+03  0.20077244905E+03  0.17528456755E+03  0.49615444279E+03  0.40000000000E+03 0. -1.
<mgrwt>
<rscale>  2 0.46416005E+03</rscale>
<asrwt>0</asrwt>
<pdfrwt beam="1">  1        1 0.52170318E-01 0.46416005E+03</pdfrwt>
<pdfrwt beam="2">  1       -1 0.98026444E-01 0.46416005E+03</pdfrwt>
<totfact> 0.77725967E+01</totfact>
</mgrwt>
</event>
<event>
 4    1  0.2247963E-002  0.4659317E+03  0.7818608E-02  0.1023075E+00
          2   -1    0    0  502    0  0.00000000000E+00  0.00000000000E+00  0.37879483881E+04  0.37879483881E+04  0.00000000000E+00 0. -1.
         -2   -1    0    0    0  501 -0.00000000000E+00 -0.00000000000E+00 -0.60726738460E+02  0.60726738460E+02  0.00000000000E+00 0.  1.
    9000007    1    1    2  502    0 -0.17166784240E+03 -0.16620006585E+03  0.23199769967E+04  0.23663020887E+04  0.40000000000E+03 0. -1.
   -9000007    1    1    2    0  501  0.17166784240E+03  0.16620006585E+03  0.14072446530E+04  0.14823730379E+04  0.40000000000E+03 0.  1.
<mgrwt>
<rscale>  2 0.46593166E+03</rscale>
<asrwt>0</asrwt>
<pdfrwt beam="1">  1        2 0.58276110E+00 0.46593166E+03</pdfrwt>
<pdfrwt beam="2">  1       -2 0.93425781E-02 0.46593166E+03</pdfrwt>
<totfact> 0.44459080E+01</totfact>
</mgrwt>
</event>
<event>
 4    1  0.2247963E-002  0.4975169E+03  0.7818608E-02  0.1014429E+00
          2   -1    0    0  502    0  0.00000000000E+00  0.00000000000E+00  0.53431190621E+03  0.53431190621E+03  0.00000000000E+00 0. -1.
         -2   -1    0    0    0  501 -0.00000000000E+00 -0.00000000000E+00 -0.46355822964E+03  0.46355822964E+03  0.00000000000E+00 0.  1.
    9000007    1    1    2  502    0 -0.28480884361E+03 -0.80043769882E+02  0.22632609660E+02  0.49803144229E+03  0.40000000000E+03 0.  1.
   -9000007    1    1    2    0  501  0.28480884361E+03  0.80043769882E+02  0.48121066901E+02  0.49983869355E+03  0.40000000000E+03 0. -1.
<mgrwt>
<rscale>  2 0.49751692E+03</rscale>
<asrwt>0</asrwt>
<pdfrwt beam="1">  1        2 0.82201832E-01 0.49751692E+03</pdfrwt>
<pdfrwt beam="2">  1       -2 0.71316650E-01 0.49751692E+03</pdfrwt>
<totfact> 0.10449997E+02</totfact>
</mgrwt>
</event>
<event>
 4    1  0.2247963E-002  0.4403240E+03  0.7818608E-02  0.1030647E+00
          1   -1    0    0  502    0  0.00000000000E+00  0.00000000000E+00  0.23564180746E+04  0.23564180746E+04  0.00000000000E+00 0.  1.
         -1   -1    0    0    0  501 -0.00000000000E+00 -0.00000000000E+00 -0.93254405288E+02  0.93254405288E+02  0.00000000000E+00 0. -1.
    9000007    1    1    2  502    0  0.18147827302E+03 -0.30835941588E+02  0.15517673433E+04  0.16130304110E+04  0.40000000000E+03 0.  1.
   -9000007    1    1    2    0  501 -0.18147827302E+03  0.30835941588E+02  0.71139632598E+03  0.83664206893E+03  0.40000000000E+03 0.  1.
<mgrwt>
<rscale>  2 0.44032399E+03</rscale>
<asrwt>0</asrwt>
<pdfrwt beam="1">  1        1 0.36252581E+00 0.44032399E+03</pdfrwt>
<pdfrwt beam="2">  1       -1 0.14346833E-01 0.44032399E+03</pdfrwt>
<totfact> 0.65557840E+01</totfact>
</mgrwt>
</event>
<event>
 4    1  0.2247963E-002  0.4440637E+03  0.7818608E-02  0.1029507E+00
          2   -1    0    0  502    0  0.00000000000E+00  0.00000000000E+00  0.19576164148E+04  0.19576164148E+04  0.00000000000E+00 0.  1.
         -2   -1    0    0    0  501 -0.00000000000E+00 -0.00000000000E+00 -0.11689129444E+03  0.11689129444E+03  0.00000000000E+00 0. -1.
    9000007    1    1    2  502    0 -0.70772885847E+02 -0.17939823241E+03  0.53468931377E+03  0.69504330039E+03  0.40000000000E+03 0. -1.
   -9000007    1    1    2    0  501  0.70772885847E+02  0.17939823241E+03  0.13060358066E+04  0.13794644088E+04  0.40000000000E+03 0.  1.
<mgrwt>
<rscale>  2 0.44406365E+03</rscale>
<asrwt>0</asrwt>
<pdfrwt beam="1">  1        2 0.30117173E+00 0.44406365E+03</pdfrwt>
<pdfrwt beam="2">  1       -2 0.17983278E-01 0.44406365E+03</pdfrwt>
<totfact> 0.19202013E+02</totfact>
</mgrwt>
</event>
<event>
 4    1  0.2247963E-002  0.4400652E+03  0.7818608E-02  0.1030727E+00
         -1   -1    0    0    0  501 -0.00000000000E+00  0.00000000000E+00  0.15309563492E+03  0.15309563492E+03  0.00000000000E+00 0.  1.
          1   -1    0    0  502    0  0.00000000000E+00 -0.00000000000E+00 -0.12690615071E+04  0.12690615071E+04  0.00000000000E+00 0. -1.
    9000007    1    1    2  502    0 -0.17713658776E+02 -0.18260243609E+03 -0.59848592226E+03  0.74286124042E+03  0.40000000000E+03 0. -1.
   -9000007    1    1    2    0  501  0.17713658776E+02  0.18260243609E+03 -0.51747994997E+03  0.67929590164E+03  0.40000000000E+03 0.  1.
<mgrwt>
<rscale>  2 0.44006525E+03</rscale>
<asrwt>0</asrwt>
<pdfrwt beam="1">  1        1 0.19524022E+00 0.44006525E+03</pdfrwt>
<pdfrwt beam="2">  1       -1 0.23553176E-01 0.44006525E+03</pdfrwt>
<totfact> 0.15488139E+02</totfact>
</mgrwt>
</event>
<event>
 4    1  0.2247963E-002  0.4162406E+03  0.7818608E-02  0.1038297E+00
          1   -1    0    0  502    0  0.00000000000E+00  0.00000000000E+00  0.30651107481E+04  0.30651107481E+04  0.00000000000E+00 0. -1.
         -1   -1    0    0    0  501 -0.00000000000E+00 -0.00000000000E+00 -0.68480764018E+02  0.68480764018E+02  0.00000000000E+00 0.  1.
    9000007    1    1    2  502    0 -0.10585008875E+03  0.45299007210E+02  0.21529687739E+04  0.21928362416E+04  0.40000000000E+03 0. -1.
   -9000007    1    1    2    0  501  0.10585008875E+03 -0.45299007210E+02  0.84366121025E+03  0.94075527053E+03  0.40000000000E+03 0.  1.
<mgrwt>
<rscale>  2 0.41624061E+03</rscale>
<asrwt>0</asrwt>
<pdfrwt beam="1">  1        1 0.47155539E+00 0.41624061E+03</pdfrwt>
<pdfrwt beam="2">  1       -1 0.10535505E-01 0.41624061E+03</pdfrwt>
<totfact> 0.35051276E+01</totfact>
</mgrwt>
</event>
<event>
 4    1  0.2247963E-002  0.6403215E+03  0.7818608E-02  0.9825112E-01
         -2   -1    0    0    0  501 -0.00000000000E+00  0.00000000000E+00  0.61622729161E+03  0.61622729161E+03  0.00000000000E+00 0. -1.
          2   -1    0    0  502    0  0.00000000000E+00 -0.00000000000E+00 -0.66541009757E+03  0.66541009757E+03  0.00000000000E+00 0.  1.
    9000007    1    1    2  502    0 -0.41955481019E+03 -0.27200242873E+03 -0.18903707203E+02  0.64060042939E+03  0.40000000000E+03 0. -1.
   -9000007    1    1    2    0  501  0.41955481019E+03  0.27200242873E+03 -0.30279098763E+02  0.64103695979E+03  0.40000000000E+03 0.  1.
<mgrwt>
<rscale>  2 0.64032145E+03</rscale>
<asrwt>0</asrwt>
<pdfrwt beam="1">  1        2 0.10237078E+00 0.64032145E+03</pdfrwt>
<pdfrwt beam="2">  1       -2 0.94804199E-01 0.64032145E+03</pdfrwt>
<totfact> 0.41806012E+01</totfact>
</mgrwt>
</event>
<event>
 4    1  0.2247963E-002  0.5425882E+03  0.7818608E-02  0.1003224E+00
         -2   -1    0    0    0  501 -0.00000000000E+00  0.00000000000E+00  0.52831408739E+03  0.52831408739E+03  0.00000000000E+00 0. -1.
          2   -1    0    0  502    0  0.00000000000E+00 -0.00000000000E+00 -0.63131960089E+03  0.63131960089E+03  0.00000000000E+00 0.  1.
    9000007    1    1    2  502    0 -0.14821266453E+03  0.33531316358E+03 -0.25010876048E+03  0.59745820244E+03  0.40000000000E+03 0.  1.
   -9000007    1    1    2    0  501  0.14821266453E+03 -0.33531316358E+03  0.14710324698E+03  0.56217548583E+03  0.40000000000E+03 0. -1.
<mgrwt>
<rscale>  2 0.54258816E+03</rscale>
<asrwt>0</asrwt>
<pdfrwt beam="1">  1        2 0.97126092E-01 0.54258816E+03</pdfrwt>
<pdfrwt beam="2">  1       -2 0.81279090E-01 0.54258816E+03</pdfrwt>
<totfact> 0.63964332E+01</totfact>
</mgrwt>
</event>
<event>
 4    1  0.2247963E-002  0.4194881E+03  0.7818608E-02  0.1037233E+00
         -1   -1    0    0    0  501 -0.00000000000E+00  0.00000000000E+00  0.11483959394E+03  0.11483959394E+03  0.00000000000E+00 0.  1.
          1   -1    0    0  502    0  0.00000000000E+00 -0.00000000000E+00 -0.15352757173E+04  0.15352757173E+04  0.00000000000E+00 0. -1.
    9000007    1    1    2  502    0 -0.98008127840E+02 -0.79778878331E+02 -0.74645888207E+03  0.85625412418E+03  0.40000000000E+03 0. -1.
   -9000007    1    1    2    0  501  0.98008127840E+02  0.79778878331E+02 -0.67397724129E+03  0.79386118706E+03  0.40000000000E+03 0.  1.
<mgrwt>
<rscale>  2 0.41948810E+03</rscale>
<asrwt>0</asrwt>
<pdfrwt beam="1">  1        1 0.23619627E+00 0.41948810E+03</pdfrwt>
<pdfrwt beam="2">  1       -1 0.17667629E-01 0.41948810E+03</pdfrwt>
<totfact> 0.16424660E+02</totfact>
</mgrwt>
</event>
<event>
 4    1  0.2247963E-002  0.4013060E+03  0.7818608E-02  0.1043328E+00
          1   -1    0    0  502    0  0.00000000000E+00  0.00000000000E+00  0.71706100044E+03  0.71706100044E+03  0.00000000000E+00 0. -1.
         -1   -1    0    0    0  501 -0.00000000000E+00 -0.00000000000E+00 -0.24919155450E+03  0.24919155450E+03  0.00000000000E+00 0.  1.
    9000007    1    1    2  502    0 -0.32258904473E+02 -0.24296320809E+01  0.82141286013E+02  0.40962633082E+03  0.40000000000E+03 0.  1.
   -9000007    1    1    2    0  501  0.32258904473E+02  0.24296320809E+01  0.38572815992E+03  0.55662622413E+03  0.40000000000E+03 0. -1.
<mgrwt>
<rscale>  2 0.40130604E+03</rscale>
<asrwt>0</asrwt>
<pdfrwt beam="1">  1        1 0.11031708E+00 0.40130604E+03</pdfrwt>
<pdfrwt beam="2">  1       -1 0.38337162E-01 0.40130604E+03</pdfrwt>
<totfact> 0.18012317E+02</totfact>
</mgrwt>
</event>
<event>
 4    1  0.2247963E-002  0.4283587E+03  0.7818608E-02  0.1034380E+00
          2   -1    0    0  502    0  0.00000000000E+00  0.00000000000E+00  0.33335483282E+03  0.33335483282E+03  0.00000000000E+00 0.  1.
         -2   -1    0    0    0  501 -0.00000000000E+00 -0.00000000000E+00 -0.61654298575E+03  0.61654298575E+03  0.00000000000E+00 0. -1.
    9000007    1    1    2  502    0  0.14725984966E+03 -0.42493176463E+02 -0.29711279106E+03  0.52131290410E+03  0.40000000000E+03 0.  1.
   -9000007    1    1    2    0  501 -0.14725984966E+03  0.42493176463E+02  0.13924638127E+02  0.42858491447E+03  0.40000000000E+03 0.  1.
<mgrwt>
<rscale>  2 0.42835865E+03</rscale>
<asrwt>0</asrwt>
<pdfrwt beam="1">  1        2 0.51285359E-01 0.42835865E+03</pdfrwt>
<pdfrwt beam="2">  1       -2 0.94852767E-01 0.42835865E+03</pdfrwt>
<totfact> 0.94000585E+01</totfact>
</mgrwt>
</event>
<event>
 4    1  0.2247963E-002  0.4253276E+03  0.7818608E-02  0.1035346E+00
         -2   -1    0    0    0  501 -0.00000000000E+00  0.00000000000E+00  0.15703187022E+03  0.15703187022E+03  0.00000000000E+00 0. -1.
          2   -1    0    0  502    0  0.00000000000E+00 -0.00000000000E+00 -0.13362523896E+04  0.13362523896E+04  0.00000000000E+00 0.  1.
    9000007    1    1    2  502    0 -0.86399482648E+02 -0.11592553167E+03 -0.31237200532E+03  0.52771191876E+03  0.40000000000E+03 0.  1.
   -9000007    1    1    2    0  501  0.86399482648E+02  0.11592553167E+03 -0.86684851408E+03  0.96557234108E+03  0.40000000000E+03 0.  1.
<mgrwt>
<rscale>  2 0.42532764E+03</rscale>
<asrwt>0</asrwt>
<pdfrwt beam="1">  1        2 0.20557729E+00 0.42532764E+03</pdfrwt>
<pdfrwt beam="2">  1       -2 0.24158749E-01 0.42532764E+03</pdfrwt>
<totfact> 0.24978742E+02</totfact>
</mgrwt>
</event>
<event>
 4    1  0.2247963E-002  0.4321003E+03  0.7818608E-02  0.1033199E+00
          1   -1    0    0  502    0  0.00000000000E+00  0.00000000000E+00  0.88972043644E+03  0.88972043644E+03  0.00000000000E+00 0. -1.
         -1   -1    0    0    0  501 -0.00000000000E+00 -0.00000000000E+00 -0.22289743099E+03  0.22289743099E+03  0.00000000000E+00 0.  1.
    9000007    1    1    2  502    0 -0.29695483122E+02 -0.16071352750E+03  0.19883379178E+03  0.47565274770E+03  0.40000000000E+03 0.  1.
   -9000007    1    1    2    0  501  0.29695483122E+02  0.16071352750E+03  0.46798921367E+03  0.63696511973E+03  0.40000000000E+03 0. -1.
<mgrwt>
<rscale>  2 0.43210029E+03</rscale>
<asrwt>0</asrwt>
<pdfrwt beam="1">  1        1 0.13688007E+00 0.43210029E+03</pdfrwt>
<pdfrwt beam="2">  1       -1 0.34291913E-01 0.43210029E+03</pdfrwt>
<totfact> 0.15590811E+02</totfact>
</mgrwt>
</event>
<event>
 4    1  0.2247963E-002  0.4365120E+03  0.7818608E-02  0.1031822E+00
          1   -1    0    0  502    0  0.00000000000E+00  0.00000000000E+00  0.15828257844E+04  0.15828257844E+04  0.00000000000E+00 0. -1.
         -1   -1    0    0    0  501 -0.00000000000E+00 -0.00000000000E+00 -0.12170982516E+03  0.12170982516E+03  0.00000000000E+00 0.  1.
    9000007    1    1    2  502    0 -0.10374383466E+03  0.14064108300E+03  0.64151683469E+03  0.77594236039E+03  0.40000000000E+03 0.  1.
   -9000007    1    1    2    0  501  0.10374383466E+03 -0.14064108300E+03  0.81959912457E+03  0.92859324919E+03  0.40000000000E+03 0.  1.
<mgrwt>
<rscale>  2 0.43651197E+03</rscale>
<asrwt>0</asrwt>
<pdfrwt beam="1">  1        1 0.24351164E+00 0.43651197E+03</pdfrwt>
<pdfrwt beam="2">  1       -1 0.18724590E-01 0.43651197E+03</pdfrwt>
<totfact> 0.13847269E+02</totfact>
</mgrwt>
</event>
<event>
 4    1  0.2247963E-002  0.4079336E+03  0.7818608E-02  0.1041067E+00
          4   -1    0    0  502    0  0.00000000000E+00  0.00000000000E+00  0.19036157340E+03  0.19036157340E+03  0.00000000000E+00 0. -1.
         -4   -1    0    0    0  501 -0.00000000000E+00 -0.00000000000E+00 -0.96535009329E+03  0.96535009329E+03  0.00000000000E+00 0.  1.
    9000007    1    1    2  502    0  0.15644153692E+01  0.80045967030E+02 -0.20990805128E+03  0.45877139648E+03  0.40000000000E+03 0.  1.
   -9000007    1    1    2    0  501 -0.15644153692E+01 -0.80045967030E+02 -0.56508046861E+03  0.69694027020E+03  0.40000000000E+03 0.  1.
<mgrwt>
<rscale>  2 0.40793358E+03</rscale>
<asrwt>0</asrwt>
<pdfrwt beam="1">  1        4 0.29286396E-01 0.40793358E+03</pdfrwt>
<pdfrwt beam="2">  1       -4 0.14851540E+00 0.40793358E+03</pdfrwt>
<totfact> 0.67029350E+00</totfact>
</mgrwt>
</event>
<event>
 4    1  0.2247963E-002  0.6314834E+03  0.7818608E-02  0.9842158E-01
          2   -1    0    0  502    0  0.00000000000E+00  0.00000000000E+00  0.32266317791E+04  0.32266317791E+04  0.00000000000E+00 0. -1.
         -2   -1    0    0    0  501 -0.00000000000E+00 -0.00000000000E+00 -0.16323842744E+03  0.16323842744E+03  0.00000000000E+00 0.  1.
    9000007    1    1    2  502    0  0.46641462228E+03 -0.14570069704E+03  0.23670470152E+04  0.24498332321E+04  0.40000000000E+03 0. -1.
   -9000007    1    1    2    0  501 -0.46641462228E+03  0.14570069704E+03  0.69634633643E+03  0.94003697441E+03  0.40000000000E+03 0.  1.
<mgrwt>
<rscale>  2 0.63148341E+03</rscale>
<asrwt>0</asrwt>
<pdfrwt beam="1">  1        2 0.49640484E+00 0.63148341E+03</pdfrwt>
<pdfrwt beam="2">  1       -2 0.25113607E-01 0.63148341E+03</pdfrwt>
<totfact> 0.19318906E+01</totfact>
</mgrwt>
</event>
<event>
 4    1  0.2247963E-002  0.4924708E+03  0.7818608E-02  0.1015763E+00
          2   -1    0    0  502    0  0.00000000000E+00  0.00000000000E+00  0.21423727304E+04  0.21423727304E+04  0.00000000000E+00 0. -1.
         -2   -1    0    0    0  501 -0.00000000000E+00 -0.00000000000E+00 -0.12332507252E+03  0.12332507252E+03  0.00000000000E+00 0.  1.
    9000007    1    1    2  502    0  0.99616366655E+02 -0.26945136025E+03  0.13340401898E+04  0.14220375115E+04  0.40000000000E+03 0. -1.
   -9000007    1    1    2    0  501 -0.99616366655E+02  0.26945136025E+03  0.68500746810E+03  0.84366029147E+03  0.40000000000E+03 0.  1.
<mgrwt>
<rscale>  2 0.49247077E+03</rscale>
<asrwt>0</asrwt>
<pdfrwt beam="1">  1        2 0.32959578E+00 0.49247077E+03</pdfrwt>
<pdfrwt beam="2">  1       -2 0.18973090E-01 0.49247077E+03</pdfrwt>
<totfact> 0.13825396E+02</totfact>
</mgrwt>
</event>
<event>
 4    1  0.2247963E-002  0.4709453E+03  0.7818608E-02  0.1021654E+00
          2   -1    0    0  502    0  0.00000000000E+00  0.00000000000E+00  0.76876932427E+03  0.76876932427E+03  0.00000000000E+00 0. -1.
         -2   -1    0    0    0  501 -0.00000000000E+00 -0.00000000000E+00 -0.31378905516E+03  0.31378905516E+03  0.00000000000E+00 0.  1.
    9000007    1    1    2  502    0 -0.23234090411E+03  0.88357996703E+02  0.38115498246E+03  0.60586182579E+03  0.40000000000E+03 0. -1.
   -9000007    1    1    2    0  501  0.23234090411E+03 -0.88357996703E+02  0.73825286646E+02  0.47669655364E+03  0.40000000000E+03 0.  1.
<mgrwt>
<rscale>  2 0.47094525E+03</rscale>
<asrwt>0</asrwt>
<pdfrwt beam="1">  1        2 0.11827220E+00 0.47094525E+03</pdfrwt>
<pdfrwt beam="2">  1       -2 0.48275239E-01 0.47094525E+03</pdfrwt>
<totfact> 0.15211298E+02</totfact>
</mgrwt>
</event>
<event>
 4    1  0.2247963E-002  0.6870054E+03  0.7818608E-02  0.9739716E-01
          2   -1    0    0  502    0  0.00000000000E+00  0.00000000000E+00  0.16826744562E+04  0.16826744562E+04  0.00000000000E+00 0. -1.
         -2   -1    0    0    0  501 -0.00000000000E+00 -0.00000000000E+00 -0.41808735313E+03  0.41808735313E+03  0.00000000000E+00 0.  1.
    9000007    1    1    2  502    0 -0.17232728986E+03 -0.53129999746E+03  0.12348746523E+04  0.14131142166E+04  0.40000000000E+03 0. -1.
   -9000007    1    1    2    0  501  0.17232728986E+03  0.53129999746E+03  0.29712450768E+02  0.68764759278E+03  0.40000000000E+03 0.  1.
<mgrwt>
<rscale>  2 0.68700537E+03</rscale>
<asrwt>0</asrwt>
<pdfrwt beam="1">  1        2 0.25887299E+00 0.68700537E+03</pdfrwt>
<pdfrwt beam="2">  1       -2 0.64321132E-01 0.68700537E+03</pdfrwt>
<totfact> 0.23189520E+01</totfact>
</mgrwt>
</event>
<event>
 4    1  0.2247963E-002  0.4171482E+03  0.7818608E-02  0.1037998E+00
          2   -1    0    0  502    0  0.00000000000E+00  0.00000000000E+00  0.16305413663E+04  0.16305413663E+04  0.00000000000E+00 0. -1.
         -2   -1    0    0    0  501 -0.00000000000E+00 -0.00000000000E+00 -0.10807064257E+03  0.10807064257E+03  0.00000000000E+00 0.  1.
    9000007    1    1    2  502    0  0.95776143949E+02  0.69566916795E+02  0.66408025386E+03  0.78422905406E+03  0.40000000000E+03 0.  1.
   -9000007    1    1    2    0  501 -0.95776143949E+02 -0.69566916795E+02  0.85839046984E+03  0.95438295478E+03  0.40000000000E+03 0. -1.
<mgrwt>
<rscale>  2 0.41714821E+03</rscale>
<asrwt>0</asrwt>
<pdfrwt beam="1">  1        2 0.25085250E+00 0.41714821E+03</pdfrwt>
<pdfrwt beam="2">  1       -2 0.16626254E-01 0.41714821E+03</pdfrwt>
<totfact> 0.32968922E+02</totfact>
</mgrwt>
</event>
<event>
 4    1  0.2247963E-002  0.4106945E+03  0.7818608E-02  0.1040138E+00
         -1   -1    0    0    0  501 -0.00000000000E+00  0.00000000000E+00  0.62892960463E+03  0.62892960463E+03  0.00000000000E+00 0. -1.
          1   -1    0    0  502    0  0.00000000000E+00 -0.00000000000E+00 -0.51166621541E+03  0.51166621541E+03  0.00000000000E+00 0.  1.
    9000007    1    1    2  502    0 -0.93107272108E+02  0.10022396192E+01  0.45203721987E+03  0.61074349506E+03  0.40000000000E+03 0. -1.
   -9000007    1    1    2    0  501  0.93107272108E+02 -0.10022396192E+01 -0.33477383065E+03  0.52985232499E+03  0.40000000000E+03 0.  1.
<mgrwt>
<rscale>  2 0.41069450E+03</rscale>
<asrwt>0</asrwt>
<pdfrwt beam="1">  1        1 0.78717879E-01 0.41069450E+03</pdfrwt>
<pdfrwt beam="2">  1       -1 0.96758401E-01 0.41069450E+03</pdfrwt>
<totfact> 0.46873591E+01</totfact>
</mgrwt>
</event>
<event>
 4    1  0.2247963E-002  0.5000281E+03  0.7818608E-02  0.1013772E+00
         -2   -1    0    0    0  501 -0.00000000000E+00  0.00000000000E+00  0.24137383306E+03  0.24137383306E+03  0.00000000000E+00 0.  1.
          2   -1    0    0  502    0  0.00000000000E+00 -0.00000000000E+00 -0.11495276339E+04  0.11495276339E+04  0.00000000000E+00 0. -1.
    9000007    1    1    2  502    0  0.15184519705E+03 -0.25878779246E+03 -0.67277059266E+03  0.83824122766E+03  0.40000000000E+03 0.  1.
   -9000007    1    1    2    0  501 -0.15184519705E+03  0.25878779246E+03 -0.23538320814E+03  0.55266023927E+03  0.40000000000E+03 0. -1.
<mgrwt>
<rscale>  2 0.50002808E+03</rscale>
<asrwt>0</asrwt>
<pdfrwt beam="1">  1        2 0.17685041E+00 0.50002808E+03</pdfrwt>
<pdfrwt beam="2">  1       -2 0.37134436E-01 0.50002808E+03</pdfrwt>
<totfact> 0.14374349E+02</totfact>
</mgrwt>
</event>
<event>
 4    1  0.2247963E-002  0.4302707E+03  0.7818608E-02  0.1033774E+00
         -1   -1    0    0    0  501 -0.00000000000E+00  0.00000000000E+00  0.12024220264E+03  0.12024220264E+03  0.00000000000E+00 0.  1.
          1   -1    0    0  502    0  0.00000000000E+00 -0.00000000000E+00 -0.16165127985E+04  0.16165127985E+04  0.00000000000E+00 0. -1.
    9000007    1    1    2  502    0 -0.14719704392E+03  0.58871685651E+02 -0.55880001605E+03  0.70525903259E+03  0.40000000000E+03 0.  1.
   -9000007    1    1    2    0  501  0.14719704392E+03 -0.58871685651E+02 -0.93747057978E+03  0.10314959685E+04  0.40000000000E+03 0. -1.
<mgrwt>
<rscale>  2 0.43027066E+03</rscale>
<asrwt>0</asrwt>
<pdfrwt beam="1">  1        1 0.24869426E+00 0.43027066E+03</pdfrwt>
<pdfrwt beam="2">  1       -1 0.18498801E-01 0.43027066E+03</pdfrwt>
<totfact> 0.13425040E+02</totfact>
</mgrwt>
</event>
<event>
 4    1  0.2247963E-002  0.4233294E+03  0.7818608E-02  0.1035988E+00
         -2   -1    0    0    0  501 -0.00000000000E+00  0.00000000000E+00  0.33248345424E+03  0.33248345424E+03  0.00000000000E+00 0. -1.
          2   -1    0    0  502    0  0.00000000000E+00 -0.00000000000E+00 -0.56851056887E+03  0.56851056887E+03  0.00000000000E+00 0.  1.
    9000007    1    1    2  502    0  0.13649813014E+03  0.24000189888E+02 -0.22065668389E+03  0.47738571490E+03  0.40000000000E+03 0.  1.
   -9000007    1    1    2    0  501 -0.13649813014E+03 -0.24000189888E+02 -0.15370430746E+02  0.42360830821E+03  0.40000000000E+03 0. -1.
<mgrwt>
<rscale>  2 0.42332936E+03</rscale>
<asrwt>0</asrwt>
<pdfrwt beam="1">  1        2 0.87463163E-01 0.42332936E+03</pdfrwt>
<pdfrwt beam="2">  1       -2 0.51151301E-01 0.42332936E+03</pdfrwt>
<totfact> 0.19648590E+02</totfact>
</mgrwt>
</event>
<event>
 4    1  0.2247963E-002  0.8151953E+03  0.7818608E-02  0.9538279E-01
          2   -1    0    0  502    0  0.00000000000E+00  0.00000000000E+00  0.10615059829E+04  0.10615059829E+04  0.00000000000E+00 0. -1.
         -2   -1    0    0    0  501 -0.00000000000E+00 -0.00000000000E+00 -0.62608179941E+03  0.62608179941E+03  0.00000000000E+00 0.  1.
    9000007    1    1    2  502    0 -0.18033138344E+03  0.68704000893E+03  0.22474691457E+03  0.84560898607E+03  0.40000000000E+03 0.  1.
   -9000007    1    1    2    0  501  0.18033138344E+03 -0.68704000893E+03  0.21067726894E+03  0.84197879627E+03  0.40000000000E+03 0.  1.
<mgrwt>
<rscale>  2 0.81519530E+03</rscale>
<asrwt>0</asrwt>
<pdfrwt beam="1">  1        2 0.16330861E+00 0.81519530E+03</pdfrwt>
<pdfrwt beam="2">  1       -2 0.96320277E-01 0.81519530E+03</pdfrwt>
<totfact> 0.20991973E+01</totfact>
</mgrwt>
</event>
<event>
 4    1  0.2247963E-002  0.4277513E+03  0.7818608E-02  0.1034573E+00
          2   -1    0    0  502    0  0.00000000000E+00  0.00000000000E+00  0.24465919887E+04  0.24465919887E+04  0.00000000000E+00 0.  1.
         -2   -1    0    0    0  501 -0.00000000000E+00 -0.00000000000E+00 -0.89736394064E+02  0.89736394064E+02  0.00000000000E+00 0. -1.
    9000007    1    1    2  502    0 -0.89987146437E+02  0.12195706493E+03  0.66080282431E+03  0.78716680877E+03  0.40000000000E+03 0. -1.
   -9000007    1    1    2    0  501  0.89987146437E+02 -0.12195706493E+03  0.16960527703E+04  0.17491615740E+04  0.40000000000E+03 0.  1.
<mgrwt>
<rscale>  2 0.42775134E+03</rscale>
<asrwt>0</asrwt>
<pdfrwt beam="1">  1        2 0.37639872E+00 0.42775134E+03</pdfrwt>
<pdfrwt beam="2">  1       -2 0.13805601E-01 0.42775134E+03</pdfrwt>
<totfact> 0.16317902E+02</totfact>
</mgrwt>
</event>
<event>
 4    1  0.2247963E-002  0.4528234E+03  0.7818608E-02  0.1026883E+00
         -1   -1    0    0    0  501 -0.00000000000E+00  0.00000000000E+00  0.28928425940E+03  0.28928425940E+03  0.00000000000E+00 0. -1.
          1   -1    0    0  502    0  0.00000000000E+00 -0.00000000000E+00 -0.71078406591E+03  0.71078406591E+03  0.00000000000E+00 0.  1.
    9000007    1    1    2  502    0 -0.50324299185E+02  0.20619534554E+03 -0.23706762385E+03  0.51112631892E+03  0.40000000000E+03 0. -1.
   -9000007    1    1    2    0  501  0.50324299185E+02 -0.20619534554E+03 -0.18443218266E+03  0.48894200639E+03  0.40000000000E+03 0. -1.
<mgrwt>
<rscale>  2 0.45282343E+03</rscale>
<asrwt>0</asrwt>
<pdfrwt beam="1">  1        1 0.10935139E+00 0.45282343E+03</pdfrwt>
<pdfrwt beam="2">  1       -1 0.44505271E-01 0.45282343E+03</pdfrwt>
<totfact> 0.13857520E+02</totfact>
</mgrwt>
</event>
<event>
 4    1  0.2247963E-002  0.4351329E+03  0.7818608E-02  0.1032251E+00
          1   -1    0    0  502    0  0.00000000000E+00  0.00000000000E+00  0.46859308264E+03  0.46859308264E+03  0.00000000000E+00 0.  1.
         -1   -1    0    0    0  501 -0.00000000000E+00 -0.00000000000E+00 -0.50913739968E+03  0.50913739968E+03  0.00000000000E+00 0. -1.
    9000007    1    1    2  502    0 -0.11107159263E+03  0.13039828928E+03  0.20181445713E+03  0.47965580122E+03  0.40000000000E+03 0.  1.
   -9000007    1    1    2    0  501  0.11107159263E+03 -0.13039828928E+03 -0.24235877417E+03  0.49807468110E+03  0.40000000000E+03 0. -1.
<mgrwt>
<rscale>  2 0.43513287E+03</rscale>
<asrwt>0</asrwt>
<pdfrwt beam="1">  1        1 0.72091243E-01 0.43513287E+03</pdfrwt>
<pdfrwt beam="2">  1       -1 0.78328831E-01 0.43513287E+03</pdfrwt>
<totfact> 0.82908026E+01</totfact>
</mgrwt>
</event>
<event>
 4    1  0.2247963E-002  0.6169712E+03  0.7818608E-02  0.9870809E-01
         -2   -1    0    0    0  501 -0.00000000000E+00  0.00000000000E+00  0.17110875934E+03  0.17110875934E+03  0.00000000000E+00 0.  1.
          2   -1    0    0  502    0  0.00000000000E+00 -0.00000000000E+00 -0.23538726640E+04  0.23538726640E+04  0.00000000000E+00 0. -1.
    9000007    1    1    2  502    0 -0.81518907814E+02  0.46261018896E+03 -0.13872112829E+04  0.15182254980E+04  0.40000000000E+03 0. -1.
   -9000007    1    1    2    0  501  0.81518907814E+02 -0.46261018896E+03 -0.79555262171E+03  0.10067559253E+04  0.40000000000E+03 0.  1.
<mgrwt>
<rscale>  2 0.61697125E+03</rscale>
<asrwt>0</asrwt>
<pdfrwt beam="1">  1        2 0.36213424E+00 0.61697125E+03</pdfrwt>
<pdfrwt beam="2">  1       -2 0.26324426E-01 0.61697125E+03</pdfrwt>
<totfact> 0.58212390E+01</totfact>
</mgrwt>
</event>
<event>
 4    1  0.2247963E-002  0.4534069E+03  0.7818608E-02  0.1026711E+00
          1   -1    0    0  502    0  0.00000000000E+00  0.00000000000E+00  0.11195223372E+04  0.11195223372E+04  0.00000000000E+00 0.  1.
         -1   -1    0    0    0  501 -0.00000000000E+00 -0.00000000000E+00 -0.18709635304E+03  0.18709635304E+03  0.00000000000E+00 0. -1.
    9000007    1    1    2  502    0 -0.95707350964E+02  0.19083485661E+03  0.37728771043E+03  0.58985070651E+03  0.40000000000E+03 0. -1.
   -9000007    1    1    2    0  501  0.95707350964E+02 -0.19083485661E+03  0.55513827369E+03  0.71676798369E+03  0.40000000000E+03 0.  1.
<mgrwt>
<rscale>  2 0.45340692E+03</rscale>
<asrwt>0</asrwt>
<pdfrwt beam="1">  1        1 0.17223420E+00 0.45340692E+03</pdfrwt>
<pdfrwt beam="2">  1       -1 0.28784055E-01 0.45340692E+03</pdfrwt>
<totfact> 0.14071969E+02</totfact>
</mgrwt>
</event>
<event>
 4    1  0.2247963E-002  0.4963630E+03  0.7818608E-02  0.1014733E+00
         -1   -1    0    0    0  501 -0.00000000000E+00  0.00000000000E+00  0.18936132620E+03  0.18936132620E+03  0.00000000000E+00 0. -1.
          1   -1    0    0  502    0  0.00000000000E+00 -0.00000000000E+00 -0.21424790519E+04  0.21424790519E+04  0.00000000000E+00 0.  1.
    9000007    1    1    2  502    0  0.74536525661E+02  0.28428956005E+03 -0.24590986047E+03  0.55393854090E+03  0.40000000000E+03 0. -1.
   -9000007    1    1    2    0  501 -0.74536525661E+02 -0.28428956005E+03 -0.17072078652E+04  0.17779018372E+04  0.40000000000E+03 0.  1.
<mgrwt>
<rscale>  2 0.49636302E+03</rscale>
<asrwt>0</asrwt>
<pdfrwt beam="1">  1        1 0.32961217E+00 0.49636302E+03</pdfrwt>
<pdfrwt beam="2">  1       -1 0.29132511E-01 0.49636302E+03</pdfrwt>
<totfact> 0.27791463E+01</totfact>
</mgrwt>
</event>
<event>
 4    1  0.2247963E-002  0.4121352E+03  0.7818608E-02  0.1039657E+00
         -1   -1    0    0    0  501 -0.00000000000E+00  0.00000000000E+00  0.31957146613E+03  0.31957146613E+03  0.00000000000E+00 0.  1.
          1   -1    0    0  502    0  0.00000000000E+00 -0.00000000000E+00 -0.97307042190E+03  0.97307042190E+03  0.00000000000E+00 0. -1.
    9000007    1    1    2  502    0  0.93545316018E+02 -0.33237441394E+02 -0.76213213647E+03  0.86642994356E+03  0.40000000000E+03 0. -1.
   -9000007    1    1    2    0  501 -0.93545316018E+02  0.33237441394E+02  0.10863318069E+03  0.42621194447E+03  0.40000000000E+03 0.  1.
<mgrwt>
<rscale>  2 0.41213524E+03</rscale>
<asrwt>0</asrwt>
<pdfrwt beam="1">  1        1 0.14970314E+00 0.41213524E+03</pdfrwt>
<pdfrwt beam="2">  1       -1 0.49164842E-01 0.41213524E+03</pdfrwt>
<totfact> 0.70073326E+01</totfact>
</mgrwt>
</event>
<event>
 4    1  0.2247963E-002  0.5573546E+03  0.7818608E-02  0.9998058E-01
         -2   -1    0    0    0  501 -0.00000000000E+00  0.00000000000E+00  0.44506844716E+03  0.44506844716E+03  0.00000000000E+00 0. -1.
          2   -1    0    0  502    0  0.00000000000E+00 -0.00000000000E+00 -0.10664200032E+04  0.10664200032E+04  0.00000000000E+00 0.  1.
    9000007    1    1    2  502    0  0.23528610189E+03  0.30868203058E+03  0.13354651221E+03  0.57313071516E+03  0.40000000000E+03 0. -1.
   -9000007    1    1    2    0  501 -0.23528610189E+03 -0.30868203058E+03 -0.75489806823E+03  0.93835773517E+03  0.40000000000E+03 0.  1.
<mgrwt>
<rscale>  2 0.55735460E+03</rscale>
<asrwt>0</asrwt>
<pdfrwt beam="1">  1        2 0.16406461E+00 0.55735460E+03</pdfrwt>
<pdfrwt beam="2">  1       -2 0.68472069E-01 0.55735460E+03</pdfrwt>
<totfact> 0.46249565E+01</totfact>
</mgrwt>
</event>
<event>
 4    1  0.2247963E-002  0.5345610E+03  0.7818608E-02  0.1005132E+00
          2   -1    0    0  502    0  0.00000000000E+00  0.00000000000E+00  0.71035506832E+03  0.71035506832E+03  0.00000000000E+00 0. -1.
         -2   -1    0    0    0  501 -0.00000000000E+00 -0.00000000000E+00 -0.40587859582E+03  0.40587859582E+03  0.00000000000E+00 0.  1.
    9000007    1    1    2  502    0  0.35522877987E+02  0.35283642894E+03  0.99621851378E+02  0.54376459403E+03  0.40000000000E+03 0.  1.
   -9000007    1    1    2    0  501 -0.35522877987E+02 -0.35283642894E+03  0.20485462112E+03  0.57246907011E+03  0.40000000000E+03 0.  1.
<mgrwt>
<rscale>  2 0.53456096E+03</rscale>
<asrwt>0</asrwt>
<pdfrwt beam="1">  1        2 0.10928540E+00 0.53456096E+03</pdfrwt>
<pdfrwt beam="2">  1       -2 0.62442861E-01 0.53456096E+03</pdfrwt>
<totfact> 0.98373389E+01</totfact>
</mgrwt>
</event>
<event>
 4    1  0.2247963E-002  0.8575336E+03  0.7818608E-02  0.9480281E-01
         -2   -1    0    0    0  501 -0.00000000000E+00  0.00000000000E+00  0.81327862515E+03  0.81327862515E+03  0.00000000000E+00 0. -1.
          2   -1    0    0  502    0  0.00000000000E+00 -0.00000000000E+00 -0.10107293391E+04  0.10107293391E+04  0.00000000000E+00 0.  1.
    9000007    1    1    2  502    0  0.82058146712E+02  0.75407576438E+03 -0.39481333187E+03  0.94405580602E+03  0.40000000000E+03 0.  1.
   -9000007    1    1    2    0  501 -0.82058146712E+02 -0.75407576438E+03  0.19736261790E+03  0.87995215825E+03  0.40000000000E+03 0. -1.
<mgrwt>
<rscale>  2 0.85753355E+03</rscale>
<asrwt>0</asrwt>
<pdfrwt beam="1">  1        2 0.15549682E+00 0.85753355E+03</pdfrwt>
<pdfrwt beam="2">  1       -2 0.12511979E+00 0.85753355E+03</pdfrwt>
<totfact> 0.11924198E+01</totfact>
</mgrwt>
</event>
<event>
 4    1  0.2247963E-002  0.4694996E+03  0.7818608E-02  0.1022062E+00
         -2   -1    0    0    0  501 -0.00000000000E+00  0.00000000000E+00  0.48246936240E+03  0.48246936240E+03  0.00000000000E+00 0. -1.
          2   -1    0    0  502    0  0.00000000000E+00 -0.00000000000E+00 -0.48382859400E+03  0.48382859400E+03  0.00000000000E+00 0.  1.
    9000007    1    1    2  502    0  0.15064660230E+03  0.19425614293E+03  0.11334955213E+03  0.48298858042E+03  0.40000000000E+03 0. -1.
   -9000007    1    1    2    0  501 -0.15064660230E+03 -0.19425614293E+03 -0.11470878373E+03  0.48330937598E+03  0.40000000000E+03 0. -1.
<mgrwt>
<rscale>  2 0.46949957E+03</rscale>
<asrwt>0</asrwt>
<pdfrwt beam="1">  1        2 0.74435168E-01 0.46949957E+03</pdfrwt>
<pdfrwt beam="2">  1       -2 0.74226056E-01 0.46949957E+03</pdfrwt>
<totfact> 0.10756153E+02</totfact>
</mgrwt>
</event>
<event>
 4    1  0.2247963E-002  0.6916506E+03  0.7818608E-02  0.9731618E-01
         -1   -1    0    0    0  501 -0.00000000000E+00  0.00000000000E+00  0.28286314024E+03  0.28286314024E+03  0.00000000000E+00 0. -1.
          1   -1    0    0  502    0  0.00000000000E+00 -0.00000000000E+00 -0.18239664155E+04  0.18239664155E+04  0.00000000000E+00 0.  1.
    9000007    1    1    2  502    0 -0.28779093673E+03 -0.48534204323E+03 -0.10547498515E+04  0.12613000323E+04  0.40000000000E+03 0.  1.
   -9000007    1    1    2    0  501  0.28779093673E+03  0.48534204323E+03 -0.48635342367E+03  0.84552952338E+03  0.40000000000E+03 0. -1.
<mgrwt>
<rscale>  2 0.69165058E+03</rscale>
<asrwt>0</asrwt>
<pdfrwt beam="1">  1        1 0.28061021E+00 0.69165058E+03</pdfrwt>
<pdfrwt beam="2">  1       -1 0.43517407E-01 0.69165058E+03</pdfrwt>
<totfact> 0.21413690E+01</totfact>
</mgrwt>
</event>
<event>
 4    1  0.2247963E-002  0.7242139E+03  0.7818608E-02  0.9676696E-01
          2   -1    0    0  502    0  0.00000000000E+00  0.00000000000E+00  0.26898402358E+04  0.26898402358E+04  0.00000000000E+00 0.  1.
         -2   -1    0    0    0  501 -0.00000000000E+00 -0.00000000000E+00 -0.20068455772E+03  0.20068455772E+03  0.00000000000E+00 0. -1.
    9000007    1    1    2  502    0 -0.90150928331E+02  0.59695773825E+03  0.10010728664E+04  0.12355697531E+04  0.40000000000E+03 0. -1.
   -9000007    1    1    2    0  501  0.90150928331E+02 -0.59695773825E+03  0.14880828117E+04  0.16549550404E+04  0.40000000000E+03 0.  1.
<mgrwt>
<rscale>  2 0.72421387E+03</rscale>
<asrwt>0</asrwt>
<pdfrwt beam="1">  1        2 0.41382155E+00 0.72421387E+03</pdfrwt>
<pdfrwt beam="2">  1       -2 0.30874549E-01 0.72421387E+03</pdfrwt>
<totfact> 0.27544004E+01</totfact>
</mgrwt>
</event>
<event>
 4    1  0.2247963E-002  0.4000127E+03  0.7818608E-02  0.1043775E+00
         -2   -1    0    0    0  501 -0.00000000000E+00  0.00000000000E+00  0.53903038562E+02  0.53903038562E+02  0.00000000000E+00 0.  1.
          2   -1    0    0  502    0  0.00000000000E+00 -0.00000000000E+00 -0.32030297818E+04  0.32030297818E+04  0.00000000000E+00 0. -1.
    9000007    1    1    2  502    0  0.30868670083E+01  0.78378900559E+00 -0.11338918811E+04  0.12023813626E+04  0.40000000000E+03 0.  1.
   -9000007    1    1    2    0  501 -0.30868670083E+01 -0.78378900559E+00 -0.20152348621E+04  0.20545514577E+04  0.40000000000E+03 0. -1.
<mgrwt>
<rscale>  2 0.40001268E+03</rscale>
<asrwt>0</asrwt>
<pdfrwt beam="1">  1        2 0.49277388E+00 0.40001268E+03</pdfrwt>
<pdfrwt beam="2">  1       -2 0.82927741E-02 0.40001268E+03</pdfrwt>
<totfact> 0.13535862E+02</totfact>
</mgrwt>
</event>
<event>
 4    1  0.2247963E-002  0.4212214E+03  0.7818608E-02  0.1036670E+00
          3   -1    0    0  502    0  0.00000000000E+00  0.00000000000E+00  0.26779667080E+03  0.26779667080E+03  0.00000000000E+00 0.  1.
         -3   -1    0    0    0  501 -0.00000000000E+00 -0.00000000000E+00 -0.73393221581E+03  0.73393221581E+03  0.00000000000E+00 0. -1.
    9000007    1    1    2  502    0  0.12835988774E+03 -0.30842096944E+02 -0.38927486154E+03  0.57355245057E+03  0.40000000000E+03 0. -1.
   -9000007    1    1    2    0  501 -0.12835988774E+03  0.30842096944E+02 -0.76860683467E+02  0.42817643605E+03  0.40000000000E+03 0.  1.
<mgrwt>
<rscale>  2 0.42122143E+03</rscale>
<asrwt>0</asrwt>
<pdfrwt beam="1">  1        3 0.41199488E-01 0.42122143E+03</pdfrwt>
<pdfrwt beam="2">  1       -3 0.11291265E+00 0.42122143E+03</pdfrwt>
<totfact> 0.10000307E+01</totfact>
</mgrwt>
</event>
<event>
 4    1  0.2247963E-002  0.4763683E+03  0.7818608E-02  0.1020138E+00
          1   -1    0    0  502    0  0.00000000000E+00  0.00000000000E+00  0.48333947669E+03  0.48333947669E+03  0.00000000000E+00 0.  1.
         -1   -1    0    0    0  501 -0.00000000000E+00 -0.00000000000E+00 -0.46978053495E+03  0.46978053495E+03  0.00000000000E+00 0. -1.
    9000007    1    1    2  502    0  0.14750890940E+03 -0.21252743947E+03 -0.49130357733E+01  0.47639366998E+03  0.40000000000E+03 0. -1.
   -9000007    1    1    2    0  501 -0.14750890940E+03  0.21252743947E+03  0.18471977515E+02  0.47672634166E+03  0.40000000000E+03 0. -1.
<mgrwt>
<rscale>  2 0.47636834E+03</rscale>
<asrwt>0</asrwt>
<pdfrwt beam="1">  1        1 0.74359920E-01 0.47636834E+03</pdfrwt>
<pdfrwt beam="2">  1       -1 0.72273928E-01 0.47636834E+03</pdfrwt>
<totfact> 0.93473117E+01</totfact>
</mgrwt>
</event>
<event>
 4    1  0.2247963E-002  0.4583445E+03  0.7818608E-02  0.1025262E+00
         -3   -1    0    0    0  501 -0.00000000000E+00  0.00000000000E+00  0.12221523959E+04  0.12221523959E+04  0.00000000000E+00 0.  1.
          3   -1    0    0  502    0  0.00000000000E+00 -0.00000000000E+00 -0.19083160176E+03  0.19083160176E+03  0.00000000000E+00 0. -1.
    9000007    1    1    2  502    0 -0.14382760313E+03  0.17144469878E+03  0.29309688314E+03  0.54404544578E+03  0.40000000000E+03 0. -1.
   -9000007    1    1    2    0  501  0.14382760313E+03 -0.17144469878E+03  0.73822391097E+03  0.86893855185E+03  0.40000000000E+03 0.  1.
<mgrwt>
<rscale>  2 0.45834448E+03</rscale>
<asrwt>0</asrwt>
<pdfrwt beam="1">  1        3 0.29358709E-01 0.45834448E+03</pdfrwt>
<pdfrwt beam="2">  1       -3 0.18802344E+00 0.45834448E+03</pdfrwt>
<totfact> 0.52201747E+00</totfact>
</mgrwt>
</event>
<event>
 4    1  0.2247963E-002  0.4362859E+03  0.7818608E-02  0.1031893E+00
          1   -1    0    0  502    0  0.00000000000E+00  0.00000000000E+00  0.21136995424E+04  0.21136995424E+04  0.00000000000E+00 0. -1.
         -1   -1    0    0    0  501 -0.00000000000E+00 -0.00000000000E+00 -0.90143720853E+02  0.90143720853E+02  0.00000000000E+00 0.  1.
    9000007    1    1    2  502    0 -0.57161197546E+02 -0.16455381949E+03  0.97685511074E+03  0.10698557236E+04  0.40000000000E+03 0. -1.
   -9000007    1    1    2    0  501  0.57161197546E+02  0.16455381949E+03  0.10467007108E+04  0.11339875396E+04  0.40000000000E+03 0.  1.
<mgrwt>
<rscale>  2 0.43628587E+03</rscale>
<asrwt>0</asrwt>
<pdfrwt beam="1">  1        1 0.32518451E+00 0.43628587E+03</pdfrwt>
<pdfrwt beam="2">  1       -1 0.13868266E-01 0.43628587E+03</pdfrwt>
<totfact> 0.10036437E+02</totfact>
</mgrwt>
</event>
<event>
 4    1  0.2247963E-002  0.4277616E+03  0.7818608E-02  0.1034569E+00
         -1   -1    0    0    0  501 -0.00000000000E+00  0.00000000000E+00  0.83808930544E+02  0.83808930544E+02  0.00000000000E+00 0. -1.
          1   -1    0    0  502    0  0.00000000000E+00 -0.00000000000E+00 -0.32108639200E+04  0.32108639200E+04  0.00000000000E+00 0.  1.
    9000007    1    1    2  502    0  0.10112177516E+03  0.11293513576E+03 -0.24954417948E+04  0.25318391950E+04  0.40000000000E+03 0.  1.
   -9000007    1    1    2    0  501 -0.10112177516E+03 -0.11293513576E+03 -0.63161319462E+03  0.76283365547E+03  0.40000000000E+03 0. -1.
<mgrwt>
<rscale>  2 0.42776157E+03</rscale>
<asrwt>0</asrwt>
<pdfrwt beam="1">  1        1 0.49397908E+00 0.42776157E+03</pdfrwt>
<pdfrwt beam="2">  1       -1 0.12893681E-01 0.42776157E+03</pdfrwt>
<totfact> 0.19935855E+01</totfact>
</mgrwt>
</event>
<event>
 4    1  0.2247963E-002  0.4981206E+03  0.7818608E-02  0.1014271E+00
         -2   -1    0    0    0  501 -0.00000000000E+00  0.00000000000E+00  0.11878459298E+04  0.11878459298E+04  0.00000000000E+00 0.  1.
          2   -1    0    0  502    0  0.00000000000E+00 -0.00000000000E+00 -0.28935866297E+03  0.28935866297E+03  0.00000000000E+00 0. -1.
    9000007    1    1    2  502    0 -0.27447681427E+03 -0.11307800232E+03  0.83875229105E+03  0.97551502394E+03  0.40000000000E+03 0.  1.
   -9000007    1    1    2    0  501  0.27447681427E+03  0.11307800232E+03  0.59734975804E+02  0.50168956887E+03  0.40000000000E+03 0. -1.
<mgrwt>
<rscale>  2 0.49812062E+03</rscale>
<asrwt>0</asrwt>
<pdfrwt beam="1">  1        2 0.44516718E-01 0.49812062E+03</pdfrwt>
<pdfrwt beam="2">  1       -2 0.18274553E+00 0.49812062E+03</pdfrwt>
<totfact> 0.20645030E+01</totfact>
</mgrwt>
</event>
<event>
 4    1  0.2247963E-002  0.4267032E+03  0.7818608E-02  0.1034906E+00
         -2   -1    0    0    0  501 -0.00000000000E+00  0.00000000000E+00  0.23584441909E+03  0.23584441909E+03  0.00000000000E+00 0. -1.
          2   -1    0    0  502    0  0.00000000000E+00 -0.00000000000E+00 -0.13588622291E+04  0.13588622291E+04  0.00000000000E+00 0.  1.
    9000007    1    1    2  502    0  0.15706405903E+02  0.14774626416E+03 -0.10855016556E+04  0.11663573613E+04  0.40000000000E+03 0.  1.
   -9000007    1    1    2    0  501 -0.15706405903E+02 -0.14774626416E+03 -0.37516154357E+02  0.42834928691E+03  0.40000000000E+03 0. -1.
<mgrwt>
<rscale>  2 0.42670323E+03</rscale>
<asrwt>0</asrwt>
<pdfrwt beam="1">  1        2 0.20905573E+00 0.42670323E+03</pdfrwt>
<pdfrwt beam="2">  1       -2 0.36283757E-01 0.42670323E+03</pdfrwt>
<totfact> 0.11497058E+02</totfact>
</mgrwt>
</event>
<event>
 4    1  0.2247963E-002  0.4932670E+03  0.7818608E-02  0.1015551E+00
         -1   -1    0    0    0  501 -0.00000000000E+00  0.00000000000E+00  0.99128495675E+02  0.99128495675E+02  0.00000000000E+00 0. -1.
          1   -1    0    0  502    0  0.00000000000E+00 -0.00000000000E+00 -0.24545207389E+04  0.24545207389E+04  0.00000000000E+00 0.  1.
    9000007    1    1    2  502    0  0.27975432471E+03  0.71062028019E+02 -0.11756021061E+04  0.12748931743E+04  0.40000000000E+03 0.  1.
   -9000007    1    1    2    0  501 -0.27975432471E+03 -0.71062028019E+02 -0.11797901371E+04  0.12787560602E+04  0.40000000000E+03 0.  1.
<mgrwt>
<rscale>  2 0.49326696E+03</rscale>
<asrwt>0</asrwt>
<pdfrwt beam="1">  1        1 0.37761853E+00 0.49326696E+03</pdfrwt>
<pdfrwt beam="2">  1       -1 0.15250540E-01 0.49326696E+03</pdfrwt>
<totfact> 0.50538273E+01</totfact>
</mgrwt>
</event>
<event>
 4    1  0.2247963E-002  0.5743730E+03  0.7818608E-02  0.9960048E-01
          2   -1    0    0  502    0  0.00000000000E+00  0.00000000000E+00  0.16054073986E+04  0.16054073986E+04  0.00000000000E+00 0. -1.
         -2   -1    0    0    0  501 -0.00000000000E+00 -0.00000000000E+00 -0.22241254023E+03  0.22241254023E+03  0.00000000000E+00 0.  1.
    9000007    1    1    2  502    0 -0.18807973595E+03  0.36678380684E+03  0.43944948667E+03  0.72320135465E+03  0.40000000000E+03 0.  1.
   -9000007    1    1    2    0  501  0.18807973595E+03 -0.36678380684E+03  0.94354537168E+03  0.11046185841E+04  0.40000000000E+03 0. -1.
<mgrwt>
<rscale>  2 0.57437300E+03</rscale>
<asrwt>0</asrwt>
<pdfrwt beam="1">  1        2 0.24698575E+00 0.57437300E+03</pdfrwt>
<pdfrwt beam="2">  1       -2 0.34217315E-01 0.57437300E+03</pdfrwt>
<totfact> 0.92120263E+01</totfact>
</mgrwt>
</event>
<event>
 4    1  0.2247963E-002  0.4370948E+03  0.7818608E-02  0.1031642E+00
         -1   -1    0    0    0  501 -0.00000000000E+00  0.00000000000E+00  0.51286224627E+03  0.51286224627E+03  0.00000000000E+00 0.  1.
          1   -1    0    0  502    0  0.00000000000E+00 -0.00000000000E+00 -0.50445045003E+03  0.50445045003E+03  0.00000000000E+00 0. -1.
    9000007    1    1    2  502    0 -0.14329339428E+03 -0.10256164307E+03 -0.25592162798E+03  0.50650544631E+03  0.40000000000E+03 0. -1.
   -9000007    1    1    2    0  501  0.14329339428E+03  0.10256164307E+03  0.26433342422E+03  0.51080724998E+03  0.40000000000E+03 0.  1.
<mgrwt>
<rscale>  2 0.43709483E+03</rscale>
<asrwt>0</asrwt>
<pdfrwt beam="1">  1        1 0.77607762E-01 0.43709483E+03</pdfrwt>
<pdfrwt beam="2">  1       -1 0.78901884E-01 0.43709483E+03</pdfrwt>
<totfact> 0.73917374E+01</totfact>
</mgrwt>
</event>
<event>
 4    1  0.2247963E-002  0.4563582E+03  0.7818608E-02  0.1025843E+00
         -2   -1    0    0    0  501 -0.00000000000E+00  0.00000000000E+00  0.11677691155E+03  0.11677691155E+03  0.00000000000E+00 0.  1.
          2   -1    0    0  502    0  0.00000000000E+00 -0.00000000000E+00 -0.17835163964E+04  0.17835163964E+04  0.00000000000E+00 0. -1.
    9000007    1    1    2  502    0  0.21278896865E+03  0.54622869073E+02 -0.84019067113E+03  0.95612926263E+03  0.40000000000E+03 0.  1.
   -9000007    1    1    2    0  501 -0.21278896865E+03 -0.54622869073E+02 -0.82654881372E+03  0.94416404532E+03  0.40000000000E+03 0.  1.
<mgrwt>
<rscale>  2 0.45635820E+03</rscale>
<asrwt>0</asrwt>
<pdfrwt beam="1">  1        2 0.27438713E+00 0.45635820E+03</pdfrwt>
<pdfrwt beam="2">  1       -2 0.17965679E-01 0.45635820E+03</pdfrwt>
<totfact> 0.23799613E+02</totfact>
</mgrwt>
</event>
<event>
 4    1  0.2247963E-002  0.4059075E+03  0.7818608E-02  0.1041753E+00
         -2   -1    0    0    0  501 -0.00000000000E+00  0.00000000000E+00  0.22525977801E+03  0.22525977801E+03  0.00000000000E+00 0.  1.
          2   -1    0    0  502    0  0.00000000000E+00 -0.00000000000E+00 -0.10526970732E+04  0.10526970732E+04  0.00000000000E+00 0. -1.
    9000007    1    1    2  502    0 -0.60167225659E+02  0.33776269617E+02 -0.60722407107E+02  0.41042434401E+03  0.40000000000E+03 0.  1.
   -9000007    1    1    2    0  501  0.60167225659E+02 -0.33776269617E+02 -0.76671488804E+03  0.86753250716E+03  0.40000000000E+03 0. -1.
<mgrwt>
<rscale>  2 0.40590754E+03</rscale>
<asrwt>0</asrwt>
<pdfrwt beam="1">  1        2 0.16195340E+00 0.40590754E+03</pdfrwt>
<pdfrwt beam="2">  1       -2 0.34655349E-01 0.40590754E+03</pdfrwt>
<totfact> 0.18930052E+02</totfact>
</mgrwt>
</event>
<event>
 4    1  0.2247963E-002  0.5720939E+03  0.7818608E-02  0.9965056E-01
          2   -1    0    0  502    0  0.00000000000E+00  0.00000000000E+00  0.10813706342E+04  0.10813706342E+04  0.00000000000E+00 0. -1.
         -2   -1    0    0    0  501 -0.00000000000E+00 -0.00000000000E+00 -0.30645726125E+03  0.30645726125E+03  0.00000000000E+00 0.  1.
    9000007    1    1    2  502    0  0.36437866630E+02 -0.40738647459E+03  0.46466315808E+03  0.73702327527E+03  0.40000000000E+03 0. -1.
   -9000007    1    1    2    0  501 -0.36437866630E+02  0.40738647459E+03  0.31025021482E+03  0.65080462015E+03  0.40000000000E+03 0. -1.
<mgrwt>
<rscale>  2 0.57209392E+03</rscale>
<asrwt>0</asrwt>
<pdfrwt beam="1">  1        2 0.16636471E+00 0.57209392E+03</pdfrwt>
<pdfrwt beam="2">  1       -2 0.47147272E-01 0.57209392E+03</pdfrwt>
<totfact> 0.98283012E+01</totfact>
</mgrwt>
</event>
<event>
 4    1  0.2247963E-002  0.4554186E+03  0.7818608E-02  0.1026118E+00
          1   -1    0    0  502    0  0.00000000000E+00  0.00000000000E+00  0.11934193059E+03  0.11934193059E+03  0.00000000000E+00 0. -1.
         -1   -1    0    0    0  501 -0.00000000000E+00 -0.00000000000E+00 -0.18293573562E+04  0.18293573562E+04  0.00000000000E+00 0.  1.
    9000007    1    1    2  502    0 -0.31782232217E+02  0.21539731905E+03 -0.10728486900E+04  0.11655086559E+04  0.40000000000E+03 0.  1.
   -9000007    1    1    2    0  501  0.31782232217E+02 -0.21539731905E+03 -0.63716673559E+03  0.78319063087E+03  0.40000000000E+03 0. -1.
<mgrwt>
<rscale>  2 0.45541862E+03</rscale>
<asrwt>0</asrwt>
<pdfrwt beam="1">  1        1 0.18360298E-01 0.45541862E+03</pdfrwt>
<pdfrwt beam="2">  1       -1 0.28143957E+00 0.45541862E+03</pdfrwt>
<totfact> 0.13857645E+01</totfact>
</mgrwt>
</event>
<event>
 4    1  0.2247963E-002  0.4033615E+03  0.7818608E-02  0.1042622E+00
         -1   -1    0    0    0  501 -0.00000000000E+00  0.00000000000E+00  0.52065403976E+03  0.52065403976E+03  0.00000000000E+00 0.  1.
          1   -1    0    0  502    0  0.00000000000E+00 -0.00000000000E+00 -0.31901804584E+03  0.31901804584E+03  0.00000000000E+00 0. -1.
    9000007    1    1    2  502    0  0.33216153369E+02 -0.39965280839E+02  0.16086302693E+03  0.43425505173E+03  0.40000000000E+03 0. -1.
   -9000007    1    1    2    0  501 -0.33216153369E+02  0.39965280839E+02  0.40772966983E+02  0.40541703387E+03  0.40000000000E+03 0. -1.
<mgrwt>
<rscale>  2 0.40336155E+03</rscale>
<asrwt>0</asrwt>
<pdfrwt beam="1">  1        1 0.49079699E-01 0.40336155E+03</pdfrwt>
<pdfrwt beam="2">  1       -1 0.80100622E-01 0.40336155E+03</pdfrwt>
<totfact> 0.13106808E+02</totfact>
</mgrwt>
</event>
<event>
 4    1  0.2247963E-002  0.4152744E+03  0.7818608E-02  0.1038615E+00
          2   -1    0    0  502    0  0.00000000000E+00  0.00000000000E+00  0.76706970062E+03  0.76706970062E+03  0.00000000000E+00 0. -1.
         -2   -1    0    0    0  501 -0.00000000000E+00 -0.00000000000E+00 -0.23610450392E+03  0.23610450392E+03  0.00000000000E+00 0.  1.
    9000007    1    1    2  502    0  0.95699604763E+02 -0.57396645469E+02  0.37513823630E+03  0.55962620167E+03  0.40000000000E+03 0. -1.
   -9000007    1    1    2    0  501 -0.95699604763E+02  0.57396645469E+02  0.15582696039E+03  0.44354800287E+03  0.40000000000E+03 0.  1.
<mgrwt>
<rscale>  2 0.41527435E+03</rscale>
<asrwt>0</asrwt>
<pdfrwt beam="1">  1        2 0.11801072E+00 0.41527435E+03</pdfrwt>
<pdfrwt beam="2">  1       -2 0.36323770E-01 0.41527435E+03</pdfrwt>
<totfact> 0.26693597E+02</totfact>
</mgrwt>
</event>
<event>
 4    1  0.2247963E-002  0.4828415E+03  0.7818608E-02  0.1018357E+00
          2   -1    0    0  502    0  0.00000000000E+00  0.00000000000E+00  0.34043350033E+04  0.34043350033E+04  0.00000000000E+00 0. -1.
         -2   -1    0    0    0  501 -0.00000000000E+00 -0.00000000000E+00 -0.74112526905E+02  0.74112526905E+02  0.00000000000E+00 0.  1.
    9000007    1    1    2  502    0  0.64563293941E+02  0.26261662885E+03  0.21444929005E+04  0.21981778165E+04  0.40000000000E+03 0. -1.
   -9000007    1    1    2    0  501 -0.64563293941E+02 -0.26261662885E+03  0.11857295759E+04  0.12802697137E+04  0.40000000000E+03 0. -1.
<mgrwt>
<rscale>  2 0.48284150E+03</rscale>
<asrwt>0</asrwt>
<pdfrwt beam="1">  1        2 0.52374373E+00 0.48284150E+03</pdfrwt>
<pdfrwt beam="2">  1       -2 0.11401930E-01 0.48284150E+03</pdfrwt>
<totfact> 0.59058669E+01</totfact>
</mgrwt>
</event>
<event>
 4    1  0.2247963E-002  0.4240360E+03  0.7818608E-02  0.1035761E+00
          3   -1    0    0  502    0  0.00000000000E+00  0.00000000000E+00  0.45355667797E+03  0.45355667797E+03  0.00000000000E+00 0.  1.
         -3   -1    0    0    0  501 -0.00000000000E+00 -0.00000000000E+00 -0.45981532551E+03  0.45981532551E+03  0.00000000000E+00 0. -1.
    9000007    1    1    2  502    0  0.13641245220E+03 -0.34614292982E+02 -0.17267918339E+03  0.45784779869E+03  0.40000000000E+03 0. -1.
   -9000007    1    1    2    0  501 -0.13641245220E+03  0.34614292982E+02  0.16642053585E+03  0.45552420479E+03  0.40000000000E+03 0.  1.
<mgrwt>
<rscale>  2 0.42403597E+03</rscale>
<asrwt>0</asrwt>
<pdfrwt beam="1">  1        3 0.69777951E-01 0.42403597E+03</pdfrwt>
<pdfrwt beam="2">  1       -3 0.70740819E-01 0.42403597E+03</pdfrwt>
<totfact> 0.97514443E+00</totfact>
</mgrwt>
</event>
<event>
 4    1  0.2247963E-002  0.5474322E+03  0.7818608E-02  0.1002090E+00
         -2   -1    0    0    0  501 -0.00000000000E+00  0.00000000000E+00  0.59715668695E+03  0.59715668695E+03  0.00000000000E+00 0.  1.
          2   -1    0    0  502    0  0.00000000000E+00 -0.00000000000E+00 -0.13673766352E+04  0.13673766352E+04  0.00000000000E+00 0. -1.
    9000007    1    1    2  502    0  0.36321760126E+03  0.88062438717E+02  0.39638464552E+03  0.67587188593E+03  0.40000000000E+03 0.  1.
   -9000007    1    1    2    0  501 -0.36321760126E+03 -0.88062438717E+02 -0.11666045937E+04  0.12886614362E+04  0.40000000000E+03 0. -1.
<mgrwt>
<rscale>  2 0.54743220E+03</rscale>
<asrwt>0</asrwt>
<pdfrwt beam="1">  1        2 0.21036563E+00 0.54743220E+03</pdfrwt>
<pdfrwt beam="2">  1       -2 0.91870260E-01 0.54743220E+03</pdfrwt>
<totfact> 0.16018257E+01</totfact>
</mgrwt>
</event>
<event>
 4    1  0.2247963E-002  0.5549244E+03  0.7818608E-02  0.1000361E+00
          2   -1    0    0  502    0  0.00000000000E+00  0.00000000000E+00  0.66469815055E+03  0.66469815055E+03  0.00000000000E+00 0.  1.
         -2   -1    0    0    0  501 -0.00000000000E+00 -0.00000000000E+00 -0.49210608792E+03  0.49210608792E+03  0.00000000000E+00 0. -1.
    9000007    1    1    2  502    0  0.33377380259E+03  0.19114420520E+03  0.22628595217E+03  0.59928823668E+03  0.40000000000E+03 0.  1.
   -9000007    1    1    2    0  501 -0.33377380259E+03 -0.19114420520E+03 -0.53693889536E+02  0.55751600179E+03  0.40000000000E+03 0. -1.
<mgrwt>
<rscale>  2 0.55492437E+03</rscale>
<asrwt>0</asrwt>
<pdfrwt beam="1">  1        2 0.10226125E+00 0.55492437E+03</pdfrwt>
<pdfrwt beam="2">  1       -2 0.75708629E-01 0.55492437E+03</pdfrwt>
<totfact> 0.70282398E+01</totfact>
</mgrwt>
</event>
<event>
 4    1  0.2247963E-002  0.6026026E+03  0.7818608E-02  0.9900021E-01
         -1   -1    0    0    0  501 -0.00000000000E+00  0.00000000000E+00  0.12206601585E+04  0.12206601585E+04  0.00000000000E+00 0.  1.
          1   -1    0    0  502    0  0.00000000000E+00 -0.00000000000E+00 -0.13712208417E+04  0.13712208417E+04  0.00000000000E+00 0. -1.
    9000007    1    1    2  502    0  0.31637816984E+03 -0.32099022222E+03 -0.12220594949E+04  0.13625561560E+04  0.40000000000E+03 0. -1.
   -9000007    1    1    2    0  501 -0.31637816984E+03  0.32099022222E+03  0.10714988117E+04  0.12293248442E+04  0.40000000000E+03 0. -1.
<mgrwt>
<rscale>  2 0.60260258E+03</rscale>
<asrwt>0</asrwt>
<pdfrwt beam="1">  1        1 0.21095705E+00 0.60260258E+03</pdfrwt>
<pdfrwt beam="2">  1       -1 0.18779387E+00 0.60260258E+03</pdfrwt>
<totfact> 0.15955162E+00</totfact>
</mgrwt>
</event>
<event>
 4    1  0.2247963E-002  0.5630795E+03  0.7818608E-02  0.9985111E-01
          1   -1    0    0  502    0  0.00000000000E+00  0.00000000000E+00  0.76696653757E+03  0.76696653757E+03  0.00000000000E+00 0.  1.
         -1   -1    0    0    0  501 -0.00000000000E+00 -0.00000000000E+00 -0.46085626486E+03  0.46085626486E+03  0.00000000000E+00 0. -1.
    9000007    1    1    2  502    0  0.93488255079E+02 -0.38512138988E+03 -0.43961140614E+02  0.56479298921E+03  0.40000000000E+03 0. -1.
   -9000007    1    1    2    0  501 -0.93488255079E+02  0.38512138988E+03  0.35007141333E+03  0.66302981321E+03  0.40000000000E+03 0.  1.
<mgrwt>
<rscale>  2 0.56307951E+03</rscale>
<asrwt>0</asrwt>
<pdfrwt beam="1">  1        1 0.11799485E+00 0.56307951E+03</pdfrwt>
<pdfrwt beam="2">  1       -1 0.70900964E-01 0.56307951E+03</pdfrwt>
<totfact> 0.49582405E+01</totfact>
</mgrwt>
</event>
<event>
 4    1  0.2247963E-002  0.5067708E+03  0.7818608E-02  0.1012027E+00
         -2   -1    0    0    0  501 -0.00000000000E+00  0.00000000000E+00  0.10334688318E+03  0.10334688318E+03  0.00000000000E+00 0.  1.
          2   -1    0    0  502    0  0.00000000000E+00 -0.00000000000E+00 -0.26911636919E+04  0.26911636919E+04  0.00000000000E+00 0. -1.
    9000007    1    1    2  502    0 -0.64800620605E+02  0.30433128682E+03 -0.90717170654E+03  0.10391232640E+04  0.40000000000E+03 0.  1.
   -9000007    1    1    2    0  501  0.64800620605E+02 -0.30433128682E+03 -0.16806451022E+04  0.17553873111E+04  0.40000000000E+03 0.  1.
<mgrwt>
<rscale>  2 0.50677081E+03</rscale>
<asrwt>0</asrwt>
<pdfrwt beam="1">  1        2 0.41402512E+00 0.50677081E+03</pdfrwt>
<pdfrwt beam="2">  1       -2 0.15899523E-01 0.50677081E+03</pdfrwt>
<totfact> 0.92409531E+01</totfact>
</mgrwt>
</event>
<event>
 4    1  0.2247963E-002  0.4941921E+03  0.7818608E-02  0.1015306E+00
         -1   -1    0    0    0  501 -0.00000000000E+00  0.00000000000E+00  0.19832929189E+03  0.19832929189E+03  0.00000000000E+00 0. -1.
          1   -1    0    0  502    0  0.00000000000E+00 -0.00000000000E+00 -0.12607627382E+04  0.12607627382E+04  0.00000000000E+00 0.  1.
    9000007    1    1    2  502    0 -0.20781790285E+03 -0.20257723553E+03 -0.64252248586E+03  0.81059296934E+03  0.40000000000E+03 0. -1.
   -9000007    1    1    2    0  501  0.20781790285E+03  0.20257723553E+03 -0.41991096047E+03  0.64849906077E+03  0.40000000000E+03 0.  1.
<mgrwt>
<rscale>  2 0.49419209E+03</rscale>
<asrwt>0</asrwt>
<pdfrwt beam="1">  1        1 0.19396349E+00 0.49419209E+03</pdfrwt>
<pdfrwt beam="2">  1       -1 0.30512200E-01 0.49419209E+03</pdfrwt>
<totfact> 0.10027348E+02</totfact>
</mgrwt>
</event>
<event>
 4    1  0.2247963E-002  0.5019390E+03  0.7818608E-02  0.1013274E+00
          1   -1    0    0  502    0  0.00000000000E+00  0.00000000000E+00  0.15203259609E+04  0.15203259609E+04  0.00000000000E+00 0. -1.
         -1   -1    0    0    0  501 -0.00000000000E+00 -0.00000000000E+00 -0.18801057082E+03  0.18801057082E+03  0.00000000000E+00 0.  1.
    9000007    1    1    2  502    0 -0.26016758707E+03  0.15574219409E+03  0.37202123457E+03  0.62477404184E+03  0.40000000000E+03 0.  1.
   -9000007    1    1    2    0  501  0.26016758707E+03 -0.15574219409E+03  0.96029415546E+03  0.10835624898E+04  0.40000000000E+03 0.  1.
<mgrwt>
<rscale>  2 0.50193904E+03</rscale>
<asrwt>0</asrwt>
<pdfrwt beam="1">  1        1 0.23389629E+00 0.50193904E+03</pdfrwt>
<pdfrwt beam="2">  1       -1 0.28924704E-01 0.50193904E+03</pdfrwt>
<totfact> 0.72813371E+01</totfact>
</mgrwt>
</event>
<event>
 4    1  0.2247963E-002  0.4107857E+03  0.7818608E-02  0.1040108E+00
          1   -1    0    0  502    0  0.00000000000E+00  0.00000000000E+00  0.14912924846E+03  0.14912924846E+03  0.00000000000E+00 0. -1.
         -1   -1    0    0    0  501 -0.00000000000E+00 -0.00000000000E+00 -0.12875369659E+04  0.12875369659E+04  0.00000000000E+00 0.  1.
    9000007    1    1    2  502    0  0.45925459545E+02  0.81459821127E+02 -0.31916233998E+03  0.52020135482E+03  0.40000000000E+03 0.  1.
   -9000007    1    1    2    0  501 -0.45925459545E+02 -0.81459821127E+02 -0.81924537750E+03  0.91646485958E+03  0.40000000000E+03 0.  1.
<mgrwt>
<rscale>  2 0.41078565E+03</rscale>
<asrwt>0</asrwt>
<pdfrwt beam="1">  1        1 0.22942962E-01 0.41078565E+03</pdfrwt>
<pdfrwt beam="2">  1       -1 0.19808261E+00 0.41078565E+03</pdfrwt>
<totfact> 0.36067070E+01</totfact>
</mgrwt>
</event>
<event>
 4    1  0.2247963E-002  0.5645899E+03  0.7818608E-02  0.9981722E-01
          1   -1    0    0  502    0  0.00000000000E+00  0.00000000000E+00  0.22287030446E+03  0.22287030446E+03  0.00000000000E+00 0.  1.
         -1   -1    0    0    0  501 -0.00000000000E+00 -0.00000000000E+00 -0.14762577504E+04  0.14762577504E+04  0.00000000000E+00 0. -1.
    9000007    1    1    2  502    0  0.35600336100E+03  0.17895079937E+03 -0.77666156531E+03  0.96019006903E+03  0.40000000000E+03 0. -1.
   -9000007    1    1    2    0  501 -0.35600336100E+03 -0.17895079937E+03 -0.47672588066E+03  0.73893798585E+03  0.40000000000E+03 0.  1.
<mgrwt>
<rscale>  2 0.56458992E+03</rscale>
<asrwt>0</asrwt>
<pdfrwt beam="1">  1        1 0.34287739E-01 0.56458992E+03</pdfrwt>
<pdfrwt beam="2">  1       -1 0.22711658E+00 0.56458992E+03</pdfrwt>
<totfact> 0.13451963E+01</totfact>
</mgrwt>
</event>
<event>
 4    1  0.2247963E-002  0.4369141E+03  0.7818608E-02  0.1031698E+00
          2   -1    0    0  502    0  0.00000000000E+00  0.00000000000E+00  0.38648443882E+03  0.38648443882E+03  0.00000000000E+00 0. -1.
         -2   -1    0    0    0  501 -0.00000000000E+00 -0.00000000000E+00 -0.71840460985E+03  0.71840460985E+03  0.00000000000E+00 0.  1.
    9000007    1    1    2  502    0  0.88427086411E+02  0.15190333205E+03  0.14285140741E+03  0.45967433744E+03  0.40000000000E+03 0. -1.
   -9000007    1    1    2    0  501 -0.88427086411E+02 -0.15190333205E+03 -0.47477157844E+03  0.64521471123E+03  0.40000000000E+03 0.  1.
<mgrwt>
<rscale>  2 0.43691415E+03</rscale>
<asrwt>0</asrwt>
<pdfrwt beam="1">  1        2 0.59459145E-01 0.43691415E+03</pdfrwt>
<pdfrwt beam="2">  1       -2 0.11052379E+00 0.43691415E+03</pdfrwt>
<totfact> 0.55601356E+01</totfact>
</mgrwt>
</event>
<event>
 4    1  0.2247963E-002  0.4201922E+03  0.7818608E-02  0.1037004E+00
         -2   -1    0    0    0  501 -0.00000000000E+00  0.00000000000E+00  0.29142904718E+03  0.29142904718E+03  0.00000000000E+00 0.  1.
          2   -1    0    0  502    0  0.00000000000E+00 -0.00000000000E+00 -0.14974623439E+04  0.14974623439E+04  0.00000000000E+00 0. -1.
    9000007    1    1    2  502    0 -0.10176826756E+03  0.78770165043E+02 -0.12932003545E+04  0.13597531673E+04  0.40000000000E+03 0. -1.
   -9000007    1    1    2    0  501  0.10176826756E+03 -0.78770165043E+02  0.87167057718E+02  0.42913822381E+03  0.40000000000E+03 0.  1.
<mgrwt>
<rscale>  2 0.42019224E+03</rscale>
<asrwt>0</asrwt>
<pdfrwt beam="1">  1        2 0.23037882E+00 0.42019224E+03</pdfrwt>
<pdfrwt beam="2">  1       -2 0.44835239E-01 0.42019224E+03</pdfrwt>
<totfact> 0.64075944E+01</totfact>
</mgrwt>
</event>
<event>
 4    1  0.2247963E-002  0.4089184E+03  0.7818608E-02  0.1040735E+00
         -1   -1    0    0    0  501 -0.00000000000E+00  0.00000000000E+00  0.12447618956E+03  0.12447618956E+03  0.00000000000E+00 0. -1.
          1   -1    0    0  502    0  0.00000000000E+00 -0.00000000000E+00 -0.17830337281E+04  0.17830337281E+04  0.00000000000E+00 0.  1.
    9000007    1    1    2  502    0  0.74531809173E+02 -0.40733937775E+02 -0.13028993642E+04  0.13655625205E+04  0.40000000000E+03 0.  1.
   -9000007    1    1    2    0  501 -0.74531809173E+02  0.40733937775E+02 -0.35565817432E+03  0.54194739710E+03  0.40000000000E+03 0. -1.
<mgrwt>
<rscale>  2 0.40891838E+03</rscale>
<asrwt>0</asrwt>
<pdfrwt beam="1">  1        1 0.27431288E+00 0.40891838E+03</pdfrwt>
<pdfrwt beam="2">  1       -1 0.19150183E-01 0.40891838E+03</pdfrwt>
<totfact> 0.98746680E+01</totfact>
</mgrwt>
</event>
<event>
 4    1  0.2247963E-002  0.4019104E+03  0.7818608E-02  0.1043120E+00
          2   -1    0    0  502    0  0.00000000000E+00  0.00000000000E+00  0.35696619971E+03  0.35696619971E+03  0.00000000000E+00 0.  1.
         -2   -1    0    0    0  501 -0.00000000000E+00 -0.00000000000E+00 -0.47312729553E+03  0.47312729553E+03  0.00000000000E+00 0. -1.
    9000007    1    1    2  502    0  0.39484042143E+01  0.38940416898E+02 -0.14471473606E+03  0.42717010757E+03  0.40000000000E+03 0. -1.
   -9000007    1    1    2    0  501 -0.39484042143E+01 -0.38940416898E+02  0.28553640248E+02  0.40292338767E+03  0.40000000000E+03 0.  1.
<mgrwt>
<rscale>  2 0.40191037E+03</rscale>
<asrwt>0</asrwt>
<pdfrwt beam="1">  1        2 0.54917877E-01 0.40191037E+03</pdfrwt>
<pdfrwt beam="2">  1       -2 0.72788814E-01 0.40191037E+03</pdfrwt>
<totfact> 0.15837869E+02</totfact>
</mgrwt>
</event>
<event>
 4    1  0.2247963E-002  0.4146439E+03  0.7818608E-02  0.1038824E+00
          2   -1    0    0  502    0  0.00000000000E+00  0.00000000000E+00  0.14400711062E+04  0.14400711062E+04  0.00000000000E+00 0.  1.
         -2   -1    0    0    0  501 -0.00000000000E+00 -0.00000000000E+00 -0.15724766773E+03  0.15724766773E+03  0.00000000000E+00 0. -1.
    9000007    1    1    2  502    0 -0.29590164707E+02 -0.10513811315E+03  0.24953598839E+03  0.48393988282E+03  0.40000000000E+03 0.  1.
   -9000007    1    1    2    0  501  0.29590164707E+02  0.10513811315E+03  0.10332874500E+04  0.11133788911E+04  0.40000000000E+03 0.  1.
<mgrwt>
<rscale>  2 0.41464394E+03</rscale>
<asrwt>0</asrwt>
<pdfrwt beam="1">  1        2 0.22154939E+00 0.41464394E+03</pdfrwt>
<pdfrwt beam="2">  1       -2 0.24191950E-01 0.41464394E+03</pdfrwt>
<totfact> 0.21849850E+02</totfact>
</mgrwt>
</event>
<event>
 4    1  0.2247963E-002  0.4857330E+03  0.7818608E-02  0.1017571E+00
          2   -1    0    0  502    0  0.00000000000E+00  0.00000000000E+00  0.48597405121E+03  0.48597405121E+03  0.00000000000E+00 0. -1.
         -2   -1    0    0    0  501 -0.00000000000E+00 -0.00000000000E+00 -0.55862686674E+03  0.55862686674E+03  0.00000000000E+00 0.  1.
    9000007    1    1    2  502    0  0.27216998080E+03 -0.43127766686E+02 -0.22530900121E+03  0.53544434700E+03  0.40000000000E+03 0.  1.
   -9000007    1    1    2    0  501 -0.27216998080E+03  0.43127766686E+02  0.15265618569E+03  0.50915657095E+03  0.40000000000E+03 0. -1.
<mgrwt>
<rscale>  2 0.48573295E+03</rscale>
<asrwt>0</asrwt>
<pdfrwt beam="1">  1        2 0.74765239E-01 0.48573295E+03</pdfrwt>
<pdfrwt beam="2">  1       -2 0.85942595E-01 0.48573295E+03</pdfrwt>
<totfact> 0.77051633E+01</totfact>
</mgrwt>
</event>
<event>
 4    1  0.2247963E-002  0.5097734E+03  0.7818608E-02  0.1011259E+00
          1   -1    0    0  502    0  0.00000000000E+00  0.00000000000E+00  0.37036715554E+04  0.37036715554E+04  0.00000000000E+00 0.  1.
         -1   -1    0    0    0  501 -0.00000000000E+00 -0.00000000000E+00 -0.81778919999E+02  0.81778919999E+02  0.00000000000E+00 0. -1.
    9000007    1    1    2  502    0 -0.71449249105E+02 -0.30783753571E+03  0.10976793395E+04  0.12102763635E+04  0.40000000000E+03 0.  1.
   -9000007    1    1    2    0  501  0.71449249105E+02  0.30783753571E+03  0.25242132958E+04  0.25751741119E+04  0.40000000000E+03 0. -1.
<mgrwt>
<rscale>  2 0.50977342E+03</rscale>
<asrwt>0</asrwt>
<pdfrwt beam="1">  1        1 0.56979549E+00 0.50977342E+03</pdfrwt>
<pdfrwt beam="2">  1       -1 0.12581375E-01 0.50977342E+03</pdfrwt>
<totfact> 0.85488234E+00</totfact>
</mgrwt>
</event>
<event>
 4    1  0.2247963E-002  0.4608338E+03  0.7818608E-02  0.1024540E+00
          2   -1    0    0  502    0  0.00000000000E+00  0.00000000000E+00  0.80348333702E+03  0.80348333702E+03  0.00000000000E+00 0.  1.
         -2   -1    0    0    0  501 -0.00000000000E+00 -0.00000000000E+00 -0.26633929559E+03  0.26633929559E+03  0.00000000000E+00 0. -1.
    9000007    1    1    2  502    0  0.17902799168E+03  0.14253675568E+03  0.31527675890E+03  0.55836115842E+03  0.40000000000E+03 0. -1.
   -9000007    1    1    2    0  501 -0.17902799168E+03 -0.14253675568E+03  0.22186728252E+03  0.51146147419E+03  0.40000000000E+03 0.  1.
<mgrwt>
<rscale>  2 0.46083375E+03</rscale>
<asrwt>0</asrwt>
<pdfrwt beam="1">  1        2 0.12361282E+00 0.46083375E+03</pdfrwt>
<pdfrwt beam="2">  1       -2 0.40975276E-01 0.46083375E+03</pdfrwt>
<totfact> 0.19874940E+02</totfact>
</mgrwt>
</event>
<event>
 4    1  0.2247963E-002  0.5072772E+03  0.7818608E-02  0.1011897E+00
         -4   -1    0    0    0  501 -0.00000000000E+00  0.00000000000E+00  0.14584145579E+03  0.14584145579E+03  0.00000000000E+00 0. -1.
          4   -1    0    0  502    0  0.00000000000E+00 -0.00000000000E+00 -0.18222712647E+04  0.18222712647E+04  0.00000000000E+00 0.  1.
    9000007    1    1    2  502    0  0.60480338594E+01 -0.31191916031E+03 -0.10135030306E+04  0.11333660195E+04  0.40000000000E+03 0.  1.
   -9000007    1    1    2    0  501 -0.60480338594E+01  0.31191916031E+03 -0.66292677832E+03  0.83474670092E+03  0.40000000000E+03 0. -1.
<mgrwt>
<rscale>  2 0.50727718E+03</rscale>
<asrwt>0</asrwt>
<pdfrwt beam="1">  1        4 0.28034942E+00 0.50727718E+03</pdfrwt>
<pdfrwt beam="2">  1       -4 0.22437147E-01 0.50727718E+03</pdfrwt>
<totfact> 0.15626899E+00</totfact>
</mgrwt>
</event>
<event>
 4    1  0.2247963E-002  0.4298478E+03  0.7818608E-02  0.1033908E+00
         -2   -1    0    0    0  501 -0.00000000000E+00  0.00000000000E+00  0.30699384081E+03  0.30699384081E+03  0.00000000000E+00 0. -1.
          2   -1    0    0  502    0  0.00000000000E+00 -0.00000000000E+00 -0.60250622511E+03  0.60250622511E+03  0.00000000000E+00 0.  1.
    9000007    1    1    2  502    0  0.13403233590E+03  0.82489039181E+02 -0.13293068652E+03  0.44993296842E+03  0.40000000000E+03 0. -1.
   -9000007    1    1    2    0  501 -0.13403233590E+03 -0.82489039181E+02 -0.16258169778E+03  0.45956709750E+03  0.40000000000E+03 0.  1.
<mgrwt>
<rscale>  2 0.42984777E+03</rscale>
<asrwt>0</asrwt>
<pdfrwt beam="1">  1        2 0.92693264E-01 0.42984777E+03</pdfrwt>
<pdfrwt beam="2">  1       -2 0.47229822E-01 0.42984777E+03</pdfrwt>
<totfact> 0.21530296E+02</totfact>
</mgrwt>
</event>
<event>
 4    1  0.2247963E-002  0.5200651E+03  0.7818608E-02  0.1008670E+00
          2   -1    0    0  502    0  0.00000000000E+00  0.00000000000E+00  0.78943255712E+03  0.78943255712E+03  0.00000000000E+00 0. -1.
         -2   -1    0    0    0  501 -0.00000000000E+00 -0.00000000000E+00 -0.39414830872E+03  0.39414830872E+03  0.00000000000E+00 0.  1.
    9000007    1    1    2  502    0  0.30901866582E+03  0.12237308832E+03 -0.16352080687E+02  0.52032211092E+03  0.40000000000E+03 0.  1.
   -9000007    1    1    2    0  501 -0.30901866582E+03 -0.12237308832E+03  0.41163632909E+03  0.66325875493E+03  0.40000000000E+03 0. -1.
<mgrwt>
<rscale>  2 0.52006510E+03</rscale>
<asrwt>0</asrwt>
<pdfrwt beam="1">  1        2 0.12145116E+00 0.52006510E+03</pdfrwt>
<pdfrwt beam="2">  1       -2 0.60638201E-01 0.52006510E+03</pdfrwt>
<totfact> 0.91574891E+01</totfact>
</mgrwt>
</event>
<event>
 4    1  0.2247963E-002  0.5934267E+03  0.7818608E-02  0.9919138E-01
         -4   -1    0    0    0  501 -0.00000000000E+00  0.00000000000E+00  0.16080007207E+04  0.16080007207E+04  0.00000000000E+00 0. -1.
          4   -1    0    0  502    0  0.00000000000E+00 -0.00000000000E+00 -0.46279129542E+03  0.46279129542E+03  0.00000000000E+00 0.  1.
    9000007    1    1    2  502    0  0.13572453656E+03  0.41681417246E+03 -0.17888199893E+03  0.61980155996E+03  0.40000000000E+03 0.  1.
   -9000007    1    1    2    0  501 -0.13572453656E+03 -0.41681417246E+03  0.13240914242E+04  0.14509904561E+04  0.40000000000E+03 0. -1.
<mgrwt>
<rscale>  2 0.59342666E+03</rscale>
<asrwt>0</asrwt>
<pdfrwt beam="1">  1        4 0.71198661E-01 0.59342666E+03</pdfrwt>
<pdfrwt beam="2">  1       -4 0.24738472E+00 0.59342666E+03</pdfrwt>
<totfact> 0.23674865E-01</totfact>
</mgrwt>
</event>
<event>
 4    1  0.2247963E-002  0.4784635E+03  0.7818608E-02  0.1019558E+00
         -2   -1    0    0    0  501 -0.00000000000E+00  0.00000000000E+00  0.19639756594E+03  0.19639756594E+03  0.00000000000E+00 0.  1.
          2   -1    0    0  502    0  0.00000000000E+00 -0.00000000000E+00 -0.12316093727E+04  0.12316093727E+04  0.00000000000E+00 0. -1.
    9000007    1    1    2  502    0  0.20746377972E+03 -0.16089146040E+03 -0.68286350010E+03  0.83380443852E+03  0.40000000000E+03 0.  1.
   -9000007    1    1    2    0  501 -0.20746377972E+03  0.16089146040E+03 -0.35234830661E+03  0.59420250007E+03  0.40000000000E+03 0. -1.
<mgrwt>
<rscale>  2 0.47846346E+03</rscale>
<asrwt>0</asrwt>
<pdfrwt beam="1">  1        2 0.18947837E+00 0.47846346E+03</pdfrwt>
<pdfrwt beam="2">  1       -2 0.30215010E-01 0.47846346E+03</pdfrwt>
<totfact> 0.18997629E+02</totfact>
</mgrwt>
</event>
<event>
 4    1  0.2247963E-002  0.5735120E+03  0.7818608E-02  0.9961937E-01
         -1   -1    0    0    0  501 -0.00000000000E+00  0.00000000000E+00  0.68195035130E+03  0.68195035130E+03  0.00000000000E+00 0. -1.
          1   -1    0    0  502    0  0.00000000000E+00 -0.00000000000E+00 -0.48350556692E+03  0.48350556692E+03  0.00000000000E+00 0.  1.
    9000007    1    1    2  502    0 -0.36836728089E+03  0.18226771914E+03  0.12811920427E+03  0.58764828390E+03  0.40000000000E+03 0. -1.
   -9000007    1    1    2    0  501  0.36836728089E+03 -0.18226771914E+03  0.70325580111E+02  0.57780763433E+03  0.40000000000E+03 0.  1.
<mgrwt>
<rscale>  2 0.57351197E+03</rscale>
<asrwt>0</asrwt>
<pdfrwt beam="1">  1        1 0.74385472E-01 0.57351197E+03</pdfrwt>
<pdfrwt beam="2">  1       -1 0.10491544E+00 0.57351197E+03</pdfrwt>
<totfact> 0.41208623E+01</totfact>
</mgrwt>
</event>
<event>
 4    1  0.2247963E-002  0.6458301E+03  0.7818608E-02  0.9814635E-01
          2   -1    0    0  502    0  0.00000000000E+00  0.00000000000E+00  0.16780172530E+04  0.16780172530E+04  0.00000000000E+00 0.  1.
         -2   -1    0    0    0  501 -0.00000000000E+00 -0.00000000000E+00 -0.24858609935E+03  0.24858609935E+03  0.00000000000E+00 0. -1.
    9000007    1    1    2  502    0 -0.38259509161E+03 -0.33274247575E+03  0.70586598257E+03  0.95673577577E+03  0.40000000000E+03 0. -1.
   -9000007    1    1    2    0  501  0.38259509161E+03  0.33274247575E+03  0.72356517107E+03  0.96986757657E+03  0.40000000000E+03 0.  1.
<mgrwt>
<rscale>  2 0.64583013E+03</rscale>
<asrwt>0</asrwt>
<pdfrwt beam="1">  1        2 0.25815649E+00 0.64583013E+03</pdfrwt>
<pdfrwt beam="2">  1       -2 0.38244016E-01 0.64583013E+03</pdfrwt>
<totfact> 0.67403754E+01</totfact>
</mgrwt>
</event>
<event>
 4    1  0.2247963E-002  0.8717809E+03  0.7818608E-02  0.9461561E-01
         -1   -1    0    0    0  501 -0.00000000000E+00  0.00000000000E+00  0.19266775593E+04  0.19266775593E+04  0.00000000000E+00 0.  1.
          1   -1    0    0  502    0  0.00000000000E+00 -0.00000000000E+00 -0.44999555499E+03  0.44999555499E+03  0.00000000000E+00 0. -1.
    9000007    1    1    2  502    0  0.53276929187E+03  0.56228007826E+03  0.11557974888E+04  0.14477119326E+04  0.40000000000E+03 0. -1.
   -9000007    1    1    2    0  501 -0.53276929187E+03 -0.56228007826E+03  0.32088451553E+03  0.92896118169E+03  0.40000000000E+03 0. -1.
<mgrwt>
<rscale>  2 0.87178094E+03</rscale>
<asrwt>0</asrwt>
<pdfrwt beam="1">  1        1 0.69230087E-01 0.87178094E+03</pdfrwt>
<pdfrwt beam="2">  1       -1 0.29641193E+00 0.87178094E+03</pdfrwt>
<totfact> 0.18404917E+00</totfact>
</mgrwt>
</event>
<event>
 4    1  0.2247963E-002  0.4641499E+03  0.7818608E-02  0.1023584E+00
          1   -1    0    0  502    0  0.00000000000E+00  0.00000000000E+00  0.14808318954E+03  0.14808318954E+03  0.00000000000E+00 0. -1.
         -1   -1    0    0    0  501 -0.00000000000E+00 -0.00000000000E+00 -0.18081841025E+04  0.18081841025E+04  0.00000000000E+00 0.  1.
    9000007    1    1    2  502    0 -0.19528647389E+03  0.13152296411E+03 -0.12624499113E+04  0.13450705839E+04  0.40000000000E+03 0.  1.
   -9000007    1    1    2    0  501  0.19528647389E+03 -0.13152296411E+03 -0.39765100159E+03  0.61119670814E+03  0.40000000000E+03 0. -1.
<mgrwt>
<rscale>  2 0.46414986E+03</rscale>
<asrwt>0</asrwt>
<pdfrwt beam="1">  1        1 0.22782027E-01 0.46414986E+03</pdfrwt>
<pdfrwt beam="2">  1       -1 0.27818219E+00 0.46414986E+03</pdfrwt>
<totfact> 0.10933440E+01</totfact>
</mgrwt>
</event>
<event>
 4    1  0.2247963E-002  0.4685998E+03  0.7818608E-02  0.1022316E+00
         -2   -1    0    0    0  501 -0.00000000000E+00  0.00000000000E+00  0.34152735434E+03  0.34152735434E+03  0.00000000000E+00 0. -1.
          2   -1    0    0  502    0  0.00000000000E+00 -0.00000000000E+00 -0.68434234495E+03  0.68434234495E+03  0.00000000000E+00 0.  1.
    9000007    1    1    2  502    0  0.18965886725E+03 -0.15367264239E+03 -0.29755362365E+03  0.55508911527E+03  0.40000000000E+03 0.  1.
   -9000007    1    1    2    0  501 -0.18965886725E+03  0.15367264239E+03 -0.45261366965E+02  0.47078058401E+03  0.40000000000E+03 0. -1.
<mgrwt>
<rscale>  2 0.46859979E+03</rscale>
<asrwt>0</asrwt>
<pdfrwt beam="1">  1        2 0.10528344E+00 0.46859979E+03</pdfrwt>
<pdfrwt beam="2">  1       -2 0.52542670E-01 0.46859979E+03</pdfrwt>
<totfact> 0.14838588E+02</totfact>
</mgrwt>
</event>
<event>
 4    1  0.2247963E-002  0.4325360E+03  0.7818608E-02  0.1033062E+00
          1   -1    0    0  502    0  0.00000000000E+00  0.00000000000E+00  0.68266603259E+03  0.68266603259E+03  0.00000000000E+00 0.  1.
         -1   -1    0    0    0  501 -0.00000000000E+00 -0.00000000000E+00 -0.29791237549E+03  0.29791237549E+03  0.00000000000E+00 0. -1.
    9000007    1    1    2  502    0  0.98471403949E+02  0.13187404270E+03  0.33112529050E+03  0.54473051920E+03  0.40000000000E+03 0.  1.
   -9000007    1    1    2    0  501 -0.98471403949E+02 -0.13187404270E+03  0.53628366595E+02  0.43584788888E+03  0.40000000000E+03 0. -1.
<mgrwt>
<rscale>  2 0.43253599E+03</rscale>
<asrwt>0</asrwt>
<pdfrwt beam="1">  1        1 0.10502554E+00 0.43253599E+03</pdfrwt>
<pdfrwt beam="2">  1       -1 0.45832673E-01 0.43253599E+03</pdfrwt>
<totfact> 0.13970408E+02</totfact>
</mgrwt>
</event>
<event>
 4    1  0.2247963E-002  0.4162406E+03  0.7818608E-02  0.1038297E+00
          2   -1    0    0  502    0  0.00000000000E+00  0.00000000000E+00  0.51373411542E+03  0.51373411542E+03  0.00000000000E+00 0.  1.
         -2   -1    0    0    0  501 -0.00000000000E+00 -0.00000000000E+00 -0.87783027405E+03  0.87783027405E+03  0.00000000000E+00 0. -1.
    9000007    1    1    2  502    0  0.52540227153E+02  0.10244862399E+03 -0.72805560252E+03  0.83864244848E+03  0.40000000000E+03 0. -1.
   -9000007    1    1    2    0  501 -0.52540227153E+02 -0.10244862399E+03  0.36395944389E+03  0.55292194099E+03  0.40000000000E+03 0.  1.
<mgrwt>
<rscale>  2 0.41624055E+03</rscale>
<asrwt>0</asrwt>
<pdfrwt beam="1">  1        2 0.79036019E-01 0.41624055E+03</pdfrwt>
<pdfrwt beam="2">  1       -2 0.13505081E+00 0.41624055E+03</pdfrwt>
<totfact> 0.24702729E+01</totfact>
</mgrwt>
</event>
<event>
 4    1  0.2247963E-002  0.5922683E+03  0.7818608E-02  0.9921578E-01
         -1   -1    0    0    0  501 -0.00000000000E+00  0.00000000000E+00  0.96964951735E+03  0.96964951735E+03  0.00000000000E+00 0. -1.
          1   -1    0    0  502    0  0.00000000000E+00 -0.00000000000E+00 -0.36338651845E+03  0.36338651845E+03  0.00000000000E+00 0.  1.
    9000007    1    1    2  502    0  0.96092353844E+02  0.42608446796E+03  0.25855794707E+03  0.64624602614E+03  0.40000000000E+03 0.  1.
   -9000007    1    1    2    0  501 -0.96092353844E+02 -0.42608446796E+03  0.34770505183E+03  0.68679000966E+03  0.40000000000E+03 0. -1.
<mgrwt>
<rscale>  2 0.59226828E+03</rscale>
<asrwt>0</asrwt>
<pdfrwt beam="1">  1        1 0.55905618E-01 0.59226828E+03</pdfrwt>
<pdfrwt beam="2">  1       -1 0.14917685E+00 0.59226828E+03</pdfrwt>
<totfact> 0.25156065E+01</totfact>
</mgrwt>
</event>
<event>
 4    1  0.2247963E-002  0.4092144E+03  0.7818608E-02  0.1040635E+00
         -1   -1    0    0    0  501 -0.00000000000E+00  0.00000000000E+00  0.13986016288E+04  0.13986016288E+04  0.00000000000E+00 0. -1.
          1   -1    0    0  502    0  0.00000000000E+00 -0.00000000000E+00 -0.18890550521E+03  0.18890550521E+03  0.00000000000E+00 0.  1.
    9000007    1    1    2  502    0 -0.45505287175E+02  0.73387537183E+02  0.10851731965E+04  0.11597660661E+04  0.40000000000E+03 0. -1.
   -9000007    1    1    2    0  501  0.45505287175E+02 -0.73387537183E+02  0.12452292711E+03  0.42774106788E+03  0.40000000000E+03 0.  1.
<mgrwt>
<rscale>  2 0.40921444E+03</rscale>
<asrwt>0</asrwt>
<pdfrwt beam="1">  1        1 0.29062386E-01 0.40921444E+03</pdfrwt>
<pdfrwt beam="2">  1       -1 0.21516947E+00 0.40921444E+03</pdfrwt>
<totfact> 0.20444441E+01</totfact>
</mgrwt>
</event>
<event>
 4    1  0.2247963E-002  0.4333504E+03  0.7818608E-02  0.1032807E+00
         -2   -1    0    0    0  501 -0.00000000000E+00  0.00000000000E+00  0.33871275528E+03  0.33871275528E+03  0.00000000000E+00 0. -1.
          2   -1    0    0  502    0  0.00000000000E+00 -0.00000000000E+00 -0.55594746501E+03  0.55594746501E+03  0.00000000000E+00 0.  1.
    9000007    1    1    2  502    0  0.16523402281E+03  0.22142308353E+02 -0.85247879450E+02  0.44165570874E+03  0.40000000000E+03 0. -1.
   -9000007    1    1    2    0  501 -0.16523402281E+03 -0.22142308353E+02 -0.13198683028E+03  0.45300451155E+03  0.40000000000E+03 0. -1.
<mgrwt>
<rscale>  2 0.43335039E+03</rscale>
<asrwt>0</asrwt>
<pdfrwt beam="1">  1        2 0.85530378E-01 0.43335039E+03</pdfrwt>
<pdfrwt beam="2">  1       -2 0.52109655E-01 0.43335039E+03</pdfrwt>
<totfact> 0.19408352E+02</totfact>
</mgrwt>
</event>
<event>
 4    1  0.2247963E-002  0.4002096E+03  0.7818608E-02  0.1043707E+00
          2   -1    0    0  502    0  0.00000000000E+00  0.00000000000E+00  0.20895029246E+04  0.20895029246E+04  0.00000000000E+00 0. -1.
         -2   -1    0    0    0  501 -0.00000000000E+00 -0.00000000000E+00 -0.80314989902E+02  0.80314989902E+02  0.00000000000E+00 0.  1.
    9000007    1    1    2  502    0 -0.12633588551E+02  0.28450125299E+01  0.77294828142E+03  0.87041182633E+03  0.40000000000E+03 0.  1.
   -9000007    1    1    2    0  501  0.12633588551E+02 -0.28450125299E+01  0.12362396533E+04  0.12994060882E+04  0.40000000000E+03 0. -1.
<mgrwt>
<rscale>  2 0.40020957E+03</rscale>
<asrwt>0</asrwt>
<pdfrwt beam="1">  1        2 0.32146195E+00 0.40020957E+03</pdfrwt>
<pdfrwt beam="2">  1       -2 0.12356154E-01 0.40020957E+03</pdfrwt>
<totfact> 0.30783371E+02</totfact>
</mgrwt>
</event>
<event>
 4    1  0.2247963E-002  0.4083113E+03  0.7818608E-02  0.1040939E+00
         -3   -1    0    0    0  501 -0.00000000000E+00  0.00000000000E+00  0.23517678777E+03  0.23517678777E+03  0.00000000000E+00 0. -1.
          3   -1    0    0  502    0  0.00000000000E+00 -0.00000000000E+00 -0.75084166042E+03  0.75084166042E+03  0.00000000000E+00 0.  1.
    9000007    1    1    2  502    0 -0.66166096631E+02  0.48375366506E+02 -0.37434559446E+03  0.55394291450E+03  0.40000000000E+03 0.  1.
   -9000007    1    1    2    0  501  0.66166096631E+02 -0.48375366506E+02 -0.14131927819E+03  0.43207553369E+03  0.40000000000E+03 0. -1.
<mgrwt>
<rscale>  2 0.40831131E+03</rscale>
<asrwt>0</asrwt>
<pdfrwt beam="1">  1        3 0.11551410E+00 0.40831131E+03</pdfrwt>
<pdfrwt beam="2">  1       -3 0.36181044E-01 0.40831131E+03</pdfrwt>
<totfact> 0.12236116E+01</totfact>
</mgrwt>
</event>
<event>
 4    1  0.2247963E-002  0.4064160E+03  0.7818608E-02  0.1041580E+00
          1   -1    0    0  502    0  0.00000000000E+00  0.00000000000E+00  0.20764291494E+03  0.20764291494E+03  0.00000000000E+00 0. -1.
         -1   -1    0    0    0  501 -0.00000000000E+00 -0.00000000000E+00 -0.11868447775E+04  0.11868447775E+04  0.00000000000E+00 0.  1.
    9000007    1    1    2  502    0  0.56970520593E+02  0.43912807366E+02 -0.89210733871E+02  0.41609197289E+03  0.40000000000E+03 0. -1.
   -9000007    1    1    2    0  501 -0.56970520593E+02 -0.43912807366E+02 -0.88999112867E+03  0.97839571952E+03  0.40000000000E+03 0.  1.
<mgrwt>
<rscale>  2 0.40641601E+03</rscale>
<asrwt>0</asrwt>
<pdfrwt beam="1">  1        1 0.31945064E-01 0.40641601E+03</pdfrwt>
<pdfrwt beam="2">  1       -1 0.18259150E+00 0.40641601E+03</pdfrwt>
<totfact> 0.30124442E+01</totfact>
</mgrwt>
</event>
<event>
 4    1  0.2247963E-002  0.4480707E+03  0.7818608E-02  0.1028299E+00
          2   -1    0    0  502    0  0.00000000000E+00  0.00000000000E+00  0.21837831376E+04  0.21837831376E+04  0.00000000000E+00 0. -1.
         -2   -1    0    0    0  501 -0.00000000000E+00 -0.00000000000E+00 -0.11012911590E+03  0.11012911590E+03  0.00000000000E+00 0.  1.
    9000007    1    1    2  502    0 -0.10436518800E+03 -0.17284449306E+03  0.57064597467E+03  0.72553713871E+03  0.40000000000E+03 0.  1.
   -9000007    1    1    2    0  501  0.10436518800E+03  0.17284449306E+03  0.15030080471E+04  0.15683751148E+04  0.40000000000E+03 0. -1.
<mgrwt>
<rscale>  2 0.44807065E+03</rscale>
<asrwt>0</asrwt>
<pdfrwt beam="1">  1        2 0.33596661E+00 0.44807065E+03</pdfrwt>
<pdfrwt beam="2">  1       -2 0.16942942E-01 0.44807065E+03</pdfrwt>
<totfact> 0.16051431E+02</totfact>
</mgrwt>
</event>
<event>
 4    1  0.2247963E-002  0.4073449E+03  0.7818608E-02  0.1041266E+00
          1   -1    0    0  502    0  0.00000000000E+00  0.00000000000E+00  0.73128293979E+03  0.73128293979E+03  0.00000000000E+00 0.  1.
         -1   -1    0    0    0  501 -0.00000000000E+00 -0.00000000000E+00 -0.23908519163E+03  0.23908519163E+03  0.00000000000E+00 0. -1.
    9000007    1    1    2  502    0 -0.35464591217E+02 -0.68352696095E+02  0.13657615230E+03  0.42963109020E+03  0.40000000000E+03 0. -1.
   -9000007    1    1    2    0  501  0.35464591217E+02  0.68352696095E+02  0.35562159587E+03  0.54073704121E+03  0.40000000000E+03 0.  1.
<mgrwt>
<rscale>  2 0.40734485E+03</rscale>
<asrwt>0</asrwt>
<pdfrwt beam="1">  1        1 0.11250507E+00 0.40734485E+03</pdfrwt>
<pdfrwt beam="2">  1       -1 0.36782338E-01 0.40734485E+03</pdfrwt>
<totfact> 0.18812785E+02</totfact>
</mgrwt>
</event>
<event>
 4    1  0.2247963E-002  0.7289315E+03  0.7818608E-02  0.9668996E-01
          1   -1    0    0  502    0  0.00000000000E+00  0.00000000000E+00  0.10998177100E+04  0.10998177100E+04  0.00000000000E+00 0.  1.
         -1   -1    0    0    0  501 -0.00000000000E+00 -0.00000000000E+00 -0.50429517507E+03  0.50429517507E+03  0.00000000000E+00 0. -1.
    9000007    1    1    2  502    0 -0.44215862053E+03  0.41932907623E+03  0.13339895251E+03  0.74103738125E+03  0.40000000000E+03 0.  1.
   -9000007    1    1    2    0  501  0.44215862053E+03 -0.41932907623E+03  0.46212358245E+03  0.86307550384E+03  0.40000000000E+03 0.  1.
<mgrwt>
<rscale>  2 0.72893149E+03</rscale>
<asrwt>0</asrwt>
<pdfrwt beam="1">  1        1 0.16920272E+00 0.72893149E+03</pdfrwt>
<pdfrwt beam="2">  1       -1 0.77583873E-01 0.72893149E+03</pdfrwt>
<totfact> 0.21797599E+01</totfact>
</mgrwt>
</event>
<event>
 4    1  0.2247963E-002  0.6153983E+03  0.7818608E-02  0.9873965E-01
          2   -1    0    0  502    0  0.00000000000E+00  0.00000000000E+00  0.16609746481E+04  0.16609746481E+04  0.00000000000E+00 0. -1.
         -2   -1    0    0    0  501 -0.00000000000E+00 -0.00000000000E+00 -0.22800864377E+03  0.22800864377E+03  0.00000000000E+00 0.  1.
    9000007    1    1    2  502    0 -0.46221670474E+03  0.71209777134E+02  0.71462704721E+03  0.94308373494E+03  0.40000000000E+03 0. -1.
   -9000007    1    1    2    0  501  0.46221670474E+03 -0.71209777134E+02  0.71833895715E+03  0.94589955696E+03  0.40000000000E+03 0.  1.
<mgrwt>
<rscale>  2 0.61539834E+03</rscale>
<asrwt>0</asrwt>
<pdfrwt beam="1">  1        2 0.25553455E+00 0.61539834E+03</pdfrwt>
<pdfrwt beam="2">  1       -2 0.35078254E-01 0.61539834E+03</pdfrwt>
<totfact> 0.81547729E+01</totfact>
</mgrwt>
</event>
<event>
 4    1  0.2247963E-002  0.4150778E+03  0.7818608E-02  0.1038680E+00
         -2   -1    0    0    0  501 -0.00000000000E+00  0.00000000000E+00  0.31792483830E+03  0.31792483830E+03  0.00000000000E+00 0.  1.
          2   -1    0    0  502    0  0.00000000000E+00 -0.00000000000E+00 -0.83578508224E+03  0.83578508224E+03  0.00000000000E+00 0. -1.
    9000007    1    1    2  502    0  0.11069086279E+03  0.60916211151E+01 -0.60098351703E+03  0.73039082873E+03  0.40000000000E+03 0. -1.
   -9000007    1    1    2    0  501 -0.11069086279E+03 -0.60916211151E+01  0.83123273096E+02  0.42331909180E+03  0.40000000000E+03 0.  1.
<mgrwt>
<rscale>  2 0.41507779E+03</rscale>
<asrwt>0</asrwt>
<pdfrwt beam="1">  1        2 0.12858232E+00 0.41507779E+03</pdfrwt>
<pdfrwt beam="2">  1       -2 0.48911514E-01 0.41507779E+03</pdfrwt>
<totfact> 0.13359886E+02</totfact>
</mgrwt>
</event>
<event>
 4    1  0.2247963E-002  0.4733384E+03  0.7818608E-02  0.1020982E+00
          1   -1    0    0  502    0  0.00000000000E+00  0.00000000000E+00  0.29286617271E+03  0.29286617271E+03  0.00000000000E+00 0. -1.
         -1   -1    0    0    0  501 -0.00000000000E+00 -0.00000000000E+00 -0.78561551769E+03  0.78561551769E+03  0.00000000000E+00 0.  1.
    9000007    1    1    2  502    0  0.23125024638E+03  0.10282293113E+03 -0.15907009193E+03  0.49935210600E+03  0.40000000000E+03 0.  1.
   -9000007    1    1    2    0  501 -0.23125024638E+03 -0.10282293113E+03 -0.33367925305E+03  0.57912958441E+03  0.40000000000E+03 0. -1.
<mgrwt>
<rscale>  2 0.47333839E+03</rscale>
<asrwt>0</asrwt>
<pdfrwt beam="1">  1        1 0.45056335E-01 0.47333839E+03</pdfrwt>
<pdfrwt beam="2">  1       -1 0.12086392E+00 0.47333839E+03</pdfrwt>
<totfact> 0.57562703E+01</totfact>
</mgrwt>
</event>
<event>
 4    1  0.2247963E-002  0.5167839E+03  0.7818608E-02  0.1009489E+00
         -2   -1    0    0    0  501 -0.00000000000E+00  0.00000000000E+00  0.29086339236E+03  0.29086339236E+03  0.00000000000E+00 0.  1.
          2   -1    0    0  502    0  0.00000000000E+00 -0.00000000000E+00 -0.13400470994E+04  0.13400470994E+04  0.00000000000E+00 0. -1.
    9000007    1    1    2  502    0  0.28586716451E+03  0.15920277064E+03 -0.67054188654E+02  0.52111593925E+03  0.40000000000E+03 0. -1.
   -9000007    1    1    2    0  501 -0.28586716451E+03 -0.15920277064E+03 -0.98212951841E+03  0.11097945525E+04  0.40000000000E+03 0. -1.
<mgrwt>
<rscale>  2 0.51678386E+03</rscale>
<asrwt>0</asrwt>
<pdfrwt beam="1">  1        2 0.20616109E+00 0.51678386E+03</pdfrwt>
<pdfrwt beam="2">  1       -2 0.44748214E-01 0.51678386E+03</pdfrwt>
<totfact> 0.77476911E+01</totfact>
</mgrwt>
</event>
<event>
 4    1  0.2247963E-002  0.4766897E+03  0.7818608E-02  0.1020049E+00
         -2   -1    0    0    0  501 -0.00000000000E+00  0.00000000000E+00  0.30261049713E+03  0.30261049713E+03  0.00000000000E+00 0. -1.
          2   -1    0    0  502    0  0.00000000000E+00 -0.00000000000E+00 -0.12420333192E+04  0.12420333192E+04  0.00000000000E+00 0.  1.
    9000007    1    1    2  502    0 -0.53031599808E+02 -0.25381241315E+03  0.15942888578E+02  0.47695625307E+03  0.40000000000E+03 0. -1.
   -9000007    1    1    2    0  501  0.53031599808E+02  0.25381241315E+03 -0.95536571064E+03  0.10676875632E+04  0.40000000000E+03 0.  1.
<mgrwt>
<rscale>  2 0.47668972E+03</rscale>
<asrwt>0</asrwt>
<pdfrwt beam="1">  1        2 0.19108205E+00 0.47668972E+03</pdfrwt>
<pdfrwt beam="2">  1       -2 0.46555462E-01 0.47668972E+03</pdfrwt>
<totfact> 0.81880275E+01</totfact>
</mgrwt>
</event>
<event>
 4    1  0.2247963E-002  0.5117044E+03  0.7818608E-02  0.1010768E+00
          1   -1    0    0  502    0  0.00000000000E+00  0.00000000000E+00  0.65912794450E+03  0.65912794450E+03  0.00000000000E+00 0. -1.
         -1   -1    0    0    0  501 -0.00000000000E+00 -0.00000000000E+00 -0.39736346222E+03  0.39736346222E+03  0.00000000000E+00 0.  1.
    9000007    1    1    2  502    0  0.24302457516E+03 -0.20683423802E+03  0.13964158154E+03  0.53041598529E+03  0.40000000000E+03 0.  1.
   -9000007    1    1    2    0  501 -0.24302457516E+03  0.20683423802E+03  0.12212290074E+03  0.52607542143E+03  0.40000000000E+03 0.  1.
<mgrwt>
<rscale>  2 0.51170435E+03</rscale>
<asrwt>0</asrwt>
<pdfrwt beam="1">  1        1 0.10140430E+00 0.51170435E+03</pdfrwt>
<pdfrwt beam="2">  1       -1 0.61132840E-01 0.51170435E+03</pdfrwt>
<totfact> 0.84340779E+01</totfact>
</mgrwt>
</event>
<event>
 4    1  0.2247963E-002  0.4259180E+03  0.7818608E-02  0.1035157E+00
         -2   -1    0    0    0  501 -0.00000000000E+00  0.00000000000E+00  0.97632020343E+03  0.97632020343E+03  0.00000000000E+00 0.  1.
          2   -1    0    0  502    0  0.00000000000E+00 -0.00000000000E+00 -0.32044825389E+03  0.32044825389E+03  0.00000000000E+00 0. -1.
    9000007    1    1    2  502    0  0.13161883639E+03  0.63895284897E+02  0.74822129148E+03  0.86095367271E+03  0.40000000000E+03 0.  1.
   -9000007    1    1    2    0  501 -0.13161883639E+03 -0.63895284897E+02 -0.92349341947E+02  0.43581478461E+03  0.40000000000E+03 0. -1.
<mgrwt>
<rscale>  2 0.42591798E+03</rscale>
<asrwt>0</asrwt>
<pdfrwt beam="1">  1        2 0.49299732E-01 0.42591798E+03</pdfrwt>
<pdfrwt beam="2">  1       -2 0.15020311E+00 0.42591798E+03</pdfrwt>
<totfact> 0.31743060E+01</totfact>
</mgrwt>
</event>
<event>
 4    1  0.2247963E-002  0.5532906E+03  0.7818608E-02  0.1000735E+00
          2   -1    0    0  502    0  0.00000000000E+00  0.00000000000E+00  0.10025439645E+04  0.10025439645E+04  0.00000000000E+00 0. -1.
         -2   -1    0    0    0  501 -0.00000000000E+00 -0.00000000000E+00 -0.59726287789E+03  0.59726287789E+03  0.00000000000E+00 0.  1.
    9000007    1    1    2  502    0 -0.36068508214E+02  0.38056479751E+03  0.76185536389E+03  0.94157001751E+03  0.40000000000E+03 0. -1.
   -9000007    1    1    2    0  501  0.36068508214E+02 -0.38056479751E+03 -0.35657427729E+03  0.65823682487E+03  0.40000000000E+03 0.  1.
<mgrwt>
<rscale>  2 0.55329061E+03</rscale>
<asrwt>0</asrwt>
<pdfrwt beam="1">  1        2 0.15423753E+00 0.55329061E+03</pdfrwt>
<pdfrwt beam="2">  1       -2 0.91886597E-01 0.55329061E+03</pdfrwt>
<totfact> 0.26280838E+01</totfact>
</mgrwt>
</event>
<event>
 4    1  0.2247963E-002  0.5015356E+03  0.7818608E-02  0.1013379E+00
          1   -1    0    0  502    0  0.00000000000E+00  0.00000000000E+00  0.16526786100E+04  0.16526786100E+04  0.00000000000E+00 0.  1.
         -1   -1    0    0    0  501 -0.00000000000E+00 -0.00000000000E+00 -0.21775979564E+03  0.21775979564E+03  0.00000000000E+00 0. -1.
    9000007    1    1    2  502    0  0.29216926722E+03 -0.78581703204E+02  0.12306075946E+04  0.13288841246E+04  0.40000000000E+03 0.  1.
   -9000007    1    1    2    0  501 -0.29216926722E+03  0.78581703204E+02  0.20431121979E+03  0.54155428105E+03  0.40000000000E+03 0. -1.
<mgrwt>
<rscale>  2 0.50153561E+03</rscale>
<asrwt>0</asrwt>
<pdfrwt beam="1">  1        1 0.25425824E+00 0.50153561E+03</pdfrwt>
<pdfrwt beam="2">  1       -1 0.33501508E-01 0.50153561E+03</pdfrwt>
<totfact> 0.45971439E+01</totfact>
</mgrwt>
</event>
<event>
 4    1  0.2247963E-002  0.4033817E+03  0.7818608E-02  0.1042615E+00
          2   -1    0    0  502    0  0.00000000000E+00  0.00000000000E+00  0.13134336776E+04  0.13134336776E+04  0.00000000000E+00 0.  1.
         -2   -1    0    0    0  501 -0.00000000000E+00 -0.00000000000E+00 -0.15769224119E+03  0.15769224119E+03  0.00000000000E+00 0. -1.
    9000007    1    1    2  502    0 -0.51758788545E+02 -0.61521318964E+01  0.23729840844E+03  0.46800358499E+03  0.40000000000E+03 0. -1.
   -9000007    1    1    2    0  501  0.51758788545E+02  0.61521318964E+01  0.91844302798E+03  0.10031223338E+04  0.40000000000E+03 0.  1.
<mgrwt>
<rscale>  2 0.40338173E+03</rscale>
<asrwt>0</asrwt>
<pdfrwt beam="1">  1        2 0.20206671E+00 0.40338173E+03</pdfrwt>
<pdfrwt beam="2">  1       -2 0.24260346E-01 0.40338173E+03</pdfrwt>
<totfact> 0.25599578E+02</totfact>
</mgrwt>
</event>
<event>
 4    1  0.2247963E-002  0.5633992E+03  0.7818608E-02  0.9984393E-01
          2   -1    0    0  502    0  0.00000000000E+00  0.00000000000E+00  0.49862398250E+04  0.49862398250E+04  0.00000000000E+00 0.  1.
         -2   -1    0    0    0  501 -0.00000000000E+00 -0.00000000000E+00 -0.14438564328E+03  0.14438564328E+03  0.00000000000E+00 0. -1.
    9000007    1    1    2  502    0  0.25457345866E+03  0.30432048760E+03  0.43390966444E+04  0.43755203456E+04  0.40000000000E+03 0.  1.
   -9000007    1    1    2    0  501 -0.25457345866E+03 -0.30432048760E+03  0.50275753735E+03  0.75510512274E+03  0.40000000000E+03 0. -1.
<mgrwt>
<rscale>  2 0.56339915E+03</rscale>
<asrwt>0</asrwt>
<pdfrwt beam="1">  1        2 0.76711369E+00 0.56339915E+03</pdfrwt>
<pdfrwt beam="2">  1       -2 0.22213180E-01 0.56339915E+03</pdfrwt>
<totfact> 0.78949374E-01</totfact>
</mgrwt>
</event>
<event>
 4    1  0.2247963E-002  0.4415143E+03  0.7818608E-02  0.1030283E+00
          1   -1    0    0  502    0  0.00000000000E+00  0.00000000000E+00  0.15671787740E+04  0.15671787740E+04  0.00000000000E+00 0. -1.
         -1   -1    0    0    0  501 -0.00000000000E+00 -0.00000000000E+00 -0.15257049711E+03  0.15257049711E+03  0.00000000000E+00 0.  1.
    9000007    1    1    2  502    0  0.12975275454E+03  0.13453283063E+03  0.10768821960E+04  0.11638771945E+04  0.40000000000E+03 0. -1.
   -9000007    1    1    2    0  501 -0.12975275454E+03 -0.13453283063E+03  0.33772608089E+03  0.55587207660E+03  0.40000000000E+03 0.  1.
<mgrwt>
<rscale>  2 0.44151428E+03</rscale>
<asrwt>0</asrwt>
<pdfrwt beam="1">  1        1 0.24110442E+00 0.44151428E+03</pdfrwt>
<pdfrwt beam="2">  1       -1 0.23472385E-01 0.44151428E+03</pdfrwt>
<totfact> 0.97468037E+01</totfact>
</mgrwt>
</event>
<event>
 4    1  0.2247963E-002  0.4307526E+03  0.7818608E-02  0.1033622E+00
          2   -1    0    0  502    0  0.00000000000E+00  0.00000000000E+00  0.54210231605E+03  0.54210231605E+03  0.00000000000E+00 0.  1.
         -2   -1    0    0    0  501 -0.00000000000E+00 -0.00000000000E+00 -0.38053640772E+03  0.38053640772E+03  0.00000000000E+00 0. -1.
    9000007    1    1    2  502    0  0.56886897468E+02 -0.14937107931E+03 -0.65497558766E+02  0.43570376248E+03  0.40000000000E+03 0. -1.
   -9000007    1    1    2    0  501 -0.56886897468E+02  0.14937107931E+03  0.22706346709E+03  0.48693496129E+03  0.40000000000E+03 0.  1.
<mgrwt>
<rscale>  2 0.43075264E+03</rscale>
<asrwt>0</asrwt>
<pdfrwt beam="1">  1        2 0.83400356E-01 0.43075264E+03</pdfrwt>
<pdfrwt beam="2">  1       -2 0.58544063E-01 0.43075264E+03</pdfrwt>
<totfact> 0.15727750E+02</totfact>
</mgrwt>
</event>
<event>
 4    1  0.2247963E-002  0.4015473E+03  0.7818608E-02  0.1043245E+00
          3   -1    0    0  502    0  0.00000000000E+00  0.00000000000E+00  0.41135809983E+03  0.41135809983E+03  0.00000000000E+00 0. -1.
         -3   -1    0    0    0  501 -0.00000000000E+00 -0.00000000000E+00 -0.42560051230E+03  0.42560051230E+03  0.00000000000E+00 0.  1.
    9000007    1    1    2  502    0 -0.56024016311E+01  0.34768477385E+02  0.11051378525E+03  0.41647752719E+03  0.40000000000E+03 0. -1.
   -9000007    1    1    2    0  501  0.56024016311E+01 -0.34768477385E+02 -0.12475619773E+03  0.42048108494E+03  0.40000000000E+03 0.  1.
<mgrwt>
<rscale>  2 0.40154730E+03</rscale>
<asrwt>0</asrwt>
<pdfrwt beam="1">  1        3 0.63285862E-01 0.40154730E+03</pdfrwt>
<pdfrwt beam="2">  1       -3 0.65477002E-01 0.40154730E+03</pdfrwt>
<totfact> 0.14179090E+01</totfact>
</mgrwt>
</event>
<event>
 4    1  0.2247963E-002  0.5378451E+03  0.7818608E-02  0.1004347E+00
         -2   -1    0    0    0  501 -0.00000000000E+00  0.00000000000E+00  0.13100390467E+03  0.13100390467E+03  0.00000000000E+00 0.  1.
          2   -1    0    0  502    0  0.00000000000E+00 -0.00000000000E+00 -0.29602521311E+04  0.29602521311E+04  0.00000000000E+00 0. -1.
    9000007    1    1    2  502    0  0.58756232049E+02 -0.35471820228E+03 -0.63555357795E+03  0.83258972386E+03  0.40000000000E+03 0.  1.
   -9000007    1    1    2    0  501 -0.58756232049E+02  0.35471820228E+03 -0.21936946484E+04  0.22586663119E+04  0.40000000000E+03 0. -1.
<mgrwt>
<rscale>  2 0.53784505E+03</rscale>
<asrwt>0</asrwt>
<pdfrwt beam="1">  1        2 0.45542342E+00 0.53784505E+03</pdfrwt>
<pdfrwt beam="2">  1       -2 0.20154446E-01 0.53784505E+03</pdfrwt>
<totfact> 0.42498222E+01</totfact>
</mgrwt>
</event>
<event>
 4    1  0.2247963E-002  0.4430385E+03  0.7818608E-02  0.1029819E+00
          1   -1    0    0  502    0  0.00000000000E+00  0.00000000000E+00  0.15424623522E+04  0.15424623522E+04  0.00000000000E+00 0.  1.
         -1   -1    0    0    0  501 -0.00000000000E+00 -0.00000000000E+00 -0.44733663309E+03  0.44733663309E+03  0.00000000000E+00 0. -1.
    9000007    1    1    2  502    0  0.17549093723E+03 -0.74067966221E+02 -0.29401371009E+03  0.53172097419E+03  0.40000000000E+03 0. -1.
   -9000007    1    1    2    0  501 -0.17549093723E+03  0.74067966221E+02  0.13891394292E+04  0.14580780111E+04  0.40000000000E+03 0.  1.
<mgrwt>
<rscale>  2 0.44303852E+03</rscale>
<asrwt>0</asrwt>
<pdfrwt beam="1">  1        1 0.23730190E+00 0.44303852E+03</pdfrwt>
<pdfrwt beam="2">  1       -1 0.68821021E-01 0.44303852E+03</pdfrwt>
<totfact> 0.14345190E+01</totfact>
</mgrwt>
</event>
<event>
 4    1  0.2247963E-002  0.5766062E+03  0.7818608E-02  0.9955166E-01
         -2   -1    0    0    0  501 -0.00000000000E+00  0.00000000000E+00  0.37100449992E+03  0.37100449992E+03  0.00000000000E+00 0. -1.
          2   -1    0    0  502    0  0.00000000000E+00 -0.00000000000E+00 -0.90027421368E+03  0.90027421368E+03  0.00000000000E+00 0.  1.
    9000007    1    1    2  502    0 -0.40801946806E+03 -0.77426389315E+02 -0.30767055045E+03  0.65355634775E+03  0.40000000000E+03 0. -1.
   -9000007    1    1    2    0  501  0.40801946806E+03  0.77426389315E+02 -0.22159916331E+03  0.61772236584E+03  0.40000000000E+03 0.  1.
<mgrwt>
<rscale>  2 0.57660622E+03</rscale>
<asrwt>0</asrwt>
<pdfrwt beam="1">  1        2 0.13850372E+00 0.57660622E+03</pdfrwt>
<pdfrwt beam="2">  1       -2 0.57077616E-01 0.57660622E+03</pdfrwt>
<totfact> 0.86686802E+01</totfact>
</mgrwt>
</event>
<event>
 4    1  0.2247963E-002  0.5937026E+03  0.7818608E-02  0.9918558E-01
         -1   -1    0    0    0  501 -0.00000000000E+00  0.00000000000E+00  0.13149746672E+03  0.13149746672E+03  0.00000000000E+00 0.  1.
          1   -1    0    0  502    0  0.00000000000E+00 -0.00000000000E+00 -0.27869595100E+04  0.27869595100E+04  0.00000000000E+00 0. -1.
    9000007    1    1    2  502    0 -0.20525095114E+03  0.38775610204E+03 -0.10425691640E+04  0.11997638140E+04  0.40000000000E+03 0.  1.
   -9000007    1    1    2    0  501  0.20525095114E+03 -0.38775610204E+03 -0.16128928793E+04  0.17186931628E+04  0.40000000000E+03 0. -1.
<mgrwt>
<rscale>  2 0.59370258E+03</rscale>
<asrwt>0</asrwt>
<pdfrwt beam="1">  1        1 0.42876298E+00 0.59370258E+03</pdfrwt>
<pdfrwt beam="2">  1       -1 0.20230380E-01 0.59370258E+03</pdfrwt>
<totfact> 0.18483599E+01</totfact>
</mgrwt>
</event>
<event>
 4    1  0.2247963E-002  0.5433280E+03  0.7818608E-02  0.1003050E+00
          1   -1    0    0  502    0  0.00000000000E+00  0.00000000000E+00  0.21582324881E+04  0.21582324881E+04  0.00000000000E+00 0. -1.
         -1   -1    0    0    0  501 -0.00000000000E+00 -0.00000000000E+00 -0.13837278135E+03  0.13837278135E+03  0.00000000000E+00 0.  1.
    9000007    1    1    2  502    0 -0.34929469837E+03  0.11488494876E+03  0.11330882126E+04  0.12566201635E+04  0.40000000000E+03 0. -1.
   -9000007    1    1    2    0  501  0.34929469837E+03 -0.11488494876E+03  0.88677149413E+03  0.10399851059E+04  0.40000000000E+03 0.  1.
<mgrwt>
<rscale>  2 0.54332802E+03</rscale>
<asrwt>0</asrwt>
<pdfrwt beam="1">  1        1 0.33203574E+00 0.54332802E+03</pdfrwt>
<pdfrwt beam="2">  1       -1 0.21288122E-01 0.54332802E+03</pdfrwt>
<totfact> 0.45743140E+01</totfact>
</mgrwt>
</event>
<event>
 4    1  0.2247963E-002  0.4113830E+03  0.7818608E-02  0.1039908E+00
         -2   -1    0    0    0  501 -0.00000000000E+00  0.00000000000E+00  0.10751148578E+03  0.10751148578E+03  0.00000000000E+00 0.  1.
          2   -1    0    0  502    0  0.00000000000E+00 -0.00000000000E+00 -0.16177258380E+04  0.16177258380E+04  0.00000000000E+00 0. -1.
    9000007    1    1    2  502    0 -0.24707391982E+02 -0.92873476447E+02 -0.61348193602E+03  0.73864472087E+03  0.40000000000E+03 0.  1.
   -9000007    1    1    2    0  501  0.24707391982E+02  0.92873476447E+02 -0.89673241623E+03  0.98659260293E+03  0.40000000000E+03 0.  1.
<mgrwt>
<rscale>  2 0.41138296E+03</rscale>
<asrwt>0</asrwt>
<pdfrwt beam="1">  1        2 0.24888090E+00 0.41138296E+03</pdfrwt>
<pdfrwt beam="2">  1       -2 0.16540229E-01 0.41138296E+03</pdfrwt>
<totfact> 0.33815393E+02</totfact>
</mgrwt>
</event>
<event>
 4    1  0.2247963E-002  0.5272559E+03  0.7818608E-02  0.1006900E+00
          1   -1    0    0  502    0  0.00000000000E+00  0.00000000000E+00  0.10822270500E+04  0.10822270500E+04  0.00000000000E+00 0. -1.
         -1   -1    0    0    0  501 -0.00000000000E+00 -0.00000000000E+00 -0.81817321788E+03  0.81817321788E+03  0.00000000000E+00 0.  1.
    9000007    1    1    2  502    0 -0.73263126393E+02  0.33560593410E+03  0.91905215871E+03  0.10595544814E+04  0.40000000000E+03 0. -1.
   -9000007    1    1    2    0  501  0.73263126393E+02 -0.33560593410E+03 -0.65499832661E+03  0.84084578643E+03  0.40000000000E+03 0.  1.
<mgrwt>
<rscale>  2 0.52725594E+03</rscale>
<asrwt>0</asrwt>
<pdfrwt beam="1">  1        1 0.16649647E+00 0.52725594E+03</pdfrwt>
<pdfrwt beam="2">  1       -1 0.12587280E+00 0.52725594E+03</pdfrwt>
<totfact> 0.77423140E+00</totfact>
</mgrwt>
</event>
<event>
 4    1  0.2247963E-002  0.5034587E+03  0.7818608E-02  0.1012880E+00
         -2   -1    0    0    0  501 -0.00000000000E+00  0.00000000000E+00  0.12452477237E+03  0.12452477237E+03  0.00000000000E+00 0. -1.
          2   -1    0    0  502    0  0.00000000000E+00 -0.00000000000E+00 -0.27961635909E+04  0.27961635909E+04  0.00000000000E+00 0.  1.
    9000007    1    1    2  502    0 -0.10383006747E+03  0.28755862749E+03 -0.20974934719E+04  0.21570696585E+04  0.40000000000E+03 0.  1.
   -9000007    1    1    2    0  501  0.10383006747E+03 -0.28755862749E+03 -0.57414534666E+03  0.76361870475E+03  0.40000000000E+03 0. -1.
<mgrwt>
<rscale>  2 0.50345868E+03</rscale>
<asrwt>0</asrwt>
<pdfrwt beam="1">  1        2 0.43017898E+00 0.50345868E+03</pdfrwt>
<pdfrwt beam="2">  1       -2 0.19157659E-01 0.50345868E+03</pdfrwt>
<totfact> 0.58462317E+01</totfact>
</mgrwt>
</event>
<event>
 4    1  0.2247963E-002  0.5261248E+03  0.7818608E-02  0.1007176E+00
         -2   -1    0    0    0  501 -0.00000000000E+00  0.00000000000E+00  0.25773792265E+03  0.25773792265E+03  0.00000000000E+00 0. -1.
          2   -1    0    0  502    0  0.00000000000E+00 -0.00000000000E+00 -0.14856463205E+04  0.14856463205E+04  0.00000000000E+00 0.  1.
    9000007    1    1    2  502    0 -0.27719206075E+03 -0.19992976351E+03 -0.10728076816E+04  0.11948739141E+04  0.40000000000E+03 0.  1.
   -9000007    1    1    2    0  501  0.27719206075E+03  0.19992976351E+03 -0.15510071623E+03  0.54851032903E+03  0.40000000000E+03 0. -1.
<mgrwt>
<rscale>  2 0.52612484E+03</rscale>
<asrwt>0</asrwt>
<pdfrwt beam="1">  1        2 0.22856097E+00 0.52612484E+03</pdfrwt>
<pdfrwt beam="2">  1       -2 0.39651988E-01 0.52612484E+03</pdfrwt>
<totfact> 0.81343974E+01</totfact>
</mgrwt>
</event>
<event>
 4    1  0.2247963E-002  0.5882888E+03  0.7818608E-02  0.9930005E-01
          1   -1    0    0  502    0  0.00000000000E+00  0.00000000000E+00  0.14889583040E+04  0.14889583040E+04  0.00000000000E+00 0. -1.
         -1   -1    0    0    0  501 -0.00000000000E+00 -0.00000000000E+00 -0.27692832422E+03  0.27692832422E+03  0.00000000000E+00 0.  1.
    9000007    1    1    2  502    0  0.30990289577E+03 -0.30007323535E+03  0.95993409535E+03  0.11258584364E+04  0.40000000000E+03 0.  1.
   -9000007    1    1    2    0  501 -0.30990289577E+03  0.30007323535E+03  0.25209588443E+03  0.64002819182E+03  0.40000000000E+03 0. -1.
<mgrwt>
<rscale>  2 0.58828883E+03</rscale>
<asrwt>0</asrwt>
<pdfrwt beam="1">  1        1 0.22907050E+00 0.58828883E+03</pdfrwt>
<pdfrwt beam="2">  1       -1 0.42604358E-01 0.58828883E+03</pdfrwt>
<totfact> 0.37991466E+01</totfact>
</mgrwt>
</event>
<event>
 4    1  0.2247963E-002  0.6562429E+03  0.7818608E-02  0.9795135E-01
         -2   -1    0    0    0  501 -0.00000000000E+00  0.00000000000E+00  0.64428781323E+03  0.64428781323E+03  0.00000000000E+00 0.  1.
          2   -1    0    0  502    0  0.00000000000E+00 -0.00000000000E+00 -0.67545469473E+03  0.67545469473E+03  0.00000000000E+00 0. -1.
    9000007    1    1    2  502    0  0.48693676380E+03 -0.18315938988E+03 -0.82925725899E+02  0.66146160135E+03  0.40000000000E+03 0. -1.
   -9000007    1    1    2    0  501 -0.48693676380E+03  0.18315938988E+03  0.51758844396E+02  0.65828090662E+03  0.40000000000E+03 0.  1.
<mgrwt>
<rscale>  2 0.65624292E+03</rscale>
<asrwt>0</asrwt>
<pdfrwt beam="1">  1        2 0.10391611E+00 0.65624292E+03</pdfrwt>
<pdfrwt beam="2">  1       -2 0.99121202E-01 0.65624292E+03</pdfrwt>
<totfact> 0.36916727E+01</totfact>
</mgrwt>
</event>
<event>
 4    1  0.2247963E-002  0.4203851E+03  0.7818608E-02  0.1036941E+00
         -2   -1    0    0    0  501 -0.00000000000E+00  0.00000000000E+00  0.24215168205E+03  0.24215168205E+03  0.00000000000E+00 0. -1.
          2   -1    0    0  502    0  0.00000000000E+00 -0.00000000000E+00 -0.73222913278E+03  0.73222913278E+03  0.00000000000E+00 0.  1.
    9000007    1    1    2  502    0 -0.11663643256E+02  0.12879280826E+03 -0.27306782457E+03  0.50128800589E+03  0.40000000000E+03 0. -1.
   -9000007    1    1    2    0  501  0.11663643256E+02 -0.12879280826E+03 -0.21700962616E+03  0.47309280895E+03  0.40000000000E+03 0. -1.
<mgrwt>
<rscale>  2 0.42038509E+03</rscale>
<asrwt>0</asrwt>
<pdfrwt beam="1">  1        2 0.11265063E+00 0.42038509E+03</pdfrwt>
<pdfrwt beam="2">  1       -2 0.37254106E-01 0.42038509E+03</pdfrwt>
<totfact> 0.26973475E+02</totfact>
</mgrwt>
</event>
<event>
 4    1  0.2247963E-002  0.5064247E+03  0.7818608E-02  0.1012115E+00
         -1   -1    0    0    0  501 -0.00000000000E+00  0.00000000000E+00  0.73690955260E+03  0.73690955260E+03  0.00000000000E+00 0.  1.
          1   -1    0    0  502    0  0.00000000000E+00 -0.00000000000E+00 -0.34973276139E+03  0.34973276139E+03  0.00000000000E+00 0. -1.
    9000007    1    1    2  502    0 -0.68793775756E+02  0.30287529145E+03  0.15566823454E+03  0.52980998952E+03  0.40000000000E+03 0.  1.
   -9000007    1    1    2    0  501  0.68793775756E+02 -0.30287529145E+03  0.23150855667E+03  0.55683232446E+03  0.40000000000E+03 0. -1.
<mgrwt>
<rscale>  2 0.50642475E+03</rscale>
<asrwt>0</asrwt>
<pdfrwt beam="1">  1        1 0.53805040E-01 0.50642475E+03</pdfrwt>
<pdfrwt beam="2">  1       -1 0.11337070E+00 0.50642475E+03</pdfrwt>
<totfact> 0.53166625E+01</totfact>
</mgrwt>
</event>
<event>
 4    1  0.2247963E-002  0.4655235E+03  0.7818608E-02  0.1023191E+00
         -1   -1    0    0    0  501 -0.00000000000E+00  0.00000000000E+00  0.93813698748E+03  0.93813698748E+03  0.00000000000E+00 0.  1.
          1   -1    0    0  502    0  0.00000000000E+00 -0.00000000000E+00 -0.25165808340E+03  0.25165808340E+03  0.00000000000E+00 0. -1.
    9000007    1    1    2  502    0  0.18206513475E+03  0.15350719291E+03  0.17280655769E+03  0.49656246128E+03  0.40000000000E+03 0. -1.
   -9000007    1    1    2    0  501 -0.18206513475E+03 -0.15350719291E+03  0.51367234639E+03  0.69323260960E+03  0.40000000000E+03 0. -1.
<mgrwt>
<rscale>  2 0.46552355E+03</rscale>
<asrwt>0</asrwt>
<pdfrwt beam="1">  1        1 0.38716629E-01 0.46552355E+03</pdfrwt>
<pdfrwt beam="2">  1       -1 0.14432877E+00 0.46552355E+03</pdfrwt>
<totfact> 0.44783345E+01</totfact>
</mgrwt>
</event>
<event>
 4    1  0.2247963E-002  0.5449380E+03  0.7818608E-02  0.1002672E+00
          2   -1    0    0  502    0  0.00000000000E+00  0.00000000000E+00  0.51523659314E+03  0.51523659314E+03  0.00000000000E+00 0. -1.
         -2   -1    0    0    0  501 -0.00000000000E+00 -0.00000000000E+00 -0.58045324678E+03  0.58045324678E+03  0.00000000000E+00 0.  1.
    9000007    1    1    2  502    0 -0.23695506403E+03 -0.28427047491E+03 -0.78661141890E+02  0.55058603371E+03  0.40000000000E+03 0.  1.
   -9000007    1    1    2    0  501  0.23695506403E+03  0.28427047491E+03  0.13444488256E+02  0.54510380621E+03  0.40000000000E+03 0. -1.
<mgrwt>
<rscale>  2 0.54493798E+03</rscale>
<asrwt>0</asrwt>
<pdfrwt beam="1">  1        2 0.79267168E-01 0.54493798E+03</pdfrwt>
<pdfrwt beam="2">  1       -2 0.89300500E-01 0.54493798E+03</pdfrwt>
<totfact> 0.65682369E+01</totfact>
</mgrwt>
</event>
<event>
 4    1  0.2247963E-002  0.4835680E+03  0.7818608E-02  0.1018159E+00
         -1   -1    0    0    0  501 -0.00000000000E+00  0.00000000000E+00  0.17363756406E+03  0.17363756406E+03  0.00000000000E+00 0. -1.
          1   -1    0    0  502    0  0.00000000000E+00 -0.00000000000E+00 -0.14265135676E+04  0.14265135676E+04  0.00000000000E+00 0.  1.
    9000007    1    1    2  502    0 -0.57873775781E+02 -0.26549699677E+03 -0.43719214704E+03  0.65190106815E+03  0.40000000000E+03 0. -1.
   -9000007    1    1    2    0  501  0.57873775781E+02  0.26549699677E+03 -0.81568385652E+03  0.94825006354E+03  0.40000000000E+03 0.  1.
<mgrwt>
<rscale>  2 0.48356802E+03</rscale>
<asrwt>0</asrwt>
<pdfrwt beam="1">  1        1 0.21946362E+00 0.48356802E+03</pdfrwt>
<pdfrwt beam="2">  1       -1 0.26713472E-01 0.48356802E+03</pdfrwt>
<totfact> 0.96879692E+01</totfact>
</mgrwt>
</event>
<event>
 4    1  0.2247963E-002  0.4155866E+03  0.7818608E-02  0.1038512E+00
          1   -1    0    0  502    0  0.00000000000E+00  0.00000000000E+00  0.82460084923E+03  0.82460084923E+03  0.00000000000E+00 0. -1.
         -1   -1    0    0    0  501 -0.00000000000E+00 -0.00000000000E+00 -0.22282638146E+03  0.22282638146E+03  0.00000000000E+00 0.  1.
    9000007    1    1    2  502    0  0.82747174445E+02  0.76584064861E+02  0.42920548365E+03  0.59743582172E+03  0.40000000000E+03 0. -1.
   -9000007    1    1    2    0  501 -0.82747174445E+02 -0.76584064861E+02  0.17256898411E+03  0.44999140897E+03  0.40000000000E+03 0.  1.
<mgrwt>
<rscale>  2 0.41558659E+03</rscale>
<asrwt>0</asrwt>
<pdfrwt beam="1">  1        1 0.12686167E+00 0.41558659E+03</pdfrwt>
<pdfrwt beam="2">  1       -1 0.34280982E-01 0.41558659E+03</pdfrwt>
<totfact> 0.17673470E+02</totfact>
</mgrwt>
</event>
<event>
 4    1  0.2247963E-002  0.4495615E+03  0.7818608E-02  0.1027853E+00
          3   -1    0    0  502    0  0.00000000000E+00  0.00000000000E+00  0.57955632167E+03  0.57955632167E+03  0.00000000000E+00 0.  1.
         -3   -1    0    0    0  501 -0.00000000000E+00 -0.00000000000E+00 -0.37664082602E+03  0.37664082602E+03  0.00000000000E+00 0. -1.
    9000007    1    1    2  502    0  0.16542282950E+03  0.12141191200E+03  0.23161904162E+03  0.50572022437E+03  0.40000000000E+03 0.  1.
   -9000007    1    1    2    0  501 -0.16542282950E+03 -0.12141191200E+03 -0.28703545970E+02  0.45047692332E+03  0.40000000000E+03 0. -1.
<mgrwt>
<rscale>  2 0.44956153E+03</rscale>
<asrwt>0</asrwt>
<pdfrwt beam="1">  1        3 0.89162511E-01 0.44956153E+03</pdfrwt>
<pdfrwt beam="2">  1       -3 0.57944742E-01 0.44956153E+03</pdfrwt>
<totfact> 0.86804193E+00</totfact>
</mgrwt>
</event>
<event>
 4    1  0.2247963E-002  0.4114697E+03  0.7818608E-02  0.1039879E+00
         -2   -1    0    0    0  501 -0.00000000000E+00  0.00000000000E+00  0.20835378695E+03  0.20835378695E+03  0.00000000000E+00 0. -1.
          2   -1    0    0  502    0  0.00000000000E+00 -0.00000000000E+00 -0.86053024693E+03  0.86053024693E+03  0.00000000000E+00 0.  1.
    9000007    1    1    2  502    0 -0.30750179838E+02 -0.91442447918E+02 -0.45222564777E+03  0.61140439264E+03  0.40000000000E+03 0.  1.
   -9000007    1    1    2    0  501  0.30750179838E+02  0.91442447918E+02 -0.19995081221E+03  0.45747964123E+03  0.40000000000E+03 0. -1.
<mgrwt>
<rscale>  2 0.41146968E+03</rscale>
<asrwt>0</asrwt>
<pdfrwt beam="1">  1        2 0.13238927E+00 0.41146968E+03</pdfrwt>
<pdfrwt beam="2">  1       -2 0.32054429E-01 0.41146968E+03</pdfrwt>
<totfact> 0.29054569E+02</totfact>
</mgrwt>
</event>
<event>
 4    1  0.2247963E-002  0.5370783E+03  0.7818608E-02  0.1004530E+00
          2   -1    0    0  502    0  0.00000000000E+00  0.00000000000E+00  0.12619493781E+04  0.12619493781E+04  0.00000000000E+00 0.  1.
         -2   -1    0    0    0  501 -0.00000000000E+00 -0.00000000000E+00 -0.22999569389E+03  0.22999569389E+03  0.00000000000E+00 0. -1.
    9000007    1    1    2  502    0  0.12553451365E+03  0.33569960030E+03  0.57455594374E+03  0.78649072992E+03  0.40000000000E+03 0.  1.
   -9000007    1    1    2    0  501 -0.12553451365E+03 -0.33569960030E+03  0.45739774047E+03  0.70545434207E+03  0.40000000000E+03 0.  1.
<mgrwt>
<rscale>  2 0.53707833E+03</rscale>
<asrwt>0</asrwt>
<pdfrwt beam="1">  1        2 0.19414605E+00 0.53707833E+03</pdfrwt>
<pdfrwt beam="2">  1       -2 0.35383953E-01 0.53707833E+03</pdfrwt>
<totfact> 0.13496496E+02</totfact>
</mgrwt>
</event>
<event>
 4    1  0.2247963E-002  0.9555121E+03  0.7818608E-02  0.9358731E-01
          2   -1    0    0  502    0  0.00000000000E+00  0.00000000000E+00  0.25692086919E+04  0.25692086919E+04  0.00000000000E+00 0.  1.
         -2   -1    0    0    0  501 -0.00000000000E+00 -0.00000000000E+00 -0.35551980713E+03  0.35551980713E+03  0.00000000000E+00 0. -1.
    9000007    1    1    2  502    0  0.53581104413E+03 -0.68257598141E+03  0.11374900529E+04  0.14855595127E+04  0.40000000000E+03 0. -1.
   -9000007    1    1    2    0  501 -0.53581104413E+03  0.68257598141E+03  0.10761988319E+04  0.14391689863E+04  0.40000000000E+03 0.  1.
<mgrwt>
<rscale>  2 0.95551214E+03</rscale>
<asrwt>0</asrwt>
<pdfrwt beam="1">  1        2 0.39526286E+00 0.95551214E+03</pdfrwt>
<pdfrwt beam="2">  1       -2 0.54695357E-01 0.95551214E+03</pdfrwt>
<totfact> 0.10168433E+01</totfact>
</mgrwt>
</event>
<event>
 4    1  0.2247963E-002  0.5165988E+03  0.7818608E-02  0.1009535E+00
         -2   -1    0    0    0  501 -0.00000000000E+00  0.00000000000E+00  0.45346954097E+03  0.45346954097E+03  0.00000000000E+00 0. -1.
          2   -1    0    0  502    0  0.00000000000E+00 -0.00000000000E+00 -0.59802194545E+03  0.59802194545E+03  0.00000000000E+00 0.  1.
    9000007    1    1    2  502    0 -0.32689736672E+03  0.35252622864E+01 -0.13855933116E+03  0.53485792889E+03  0.40000000000E+03 0.  1.
   -9000007    1    1    2    0  501  0.32689736672E+03 -0.35252622864E+01 -0.59930733147E+01  0.51663355753E+03  0.40000000000E+03 0. -1.
<mgrwt>
<rscale>  2 0.51659880E+03</rscale>
<asrwt>0</asrwt>
<pdfrwt beam="1">  1        2 0.92003376E-01 0.51659880E+03</pdfrwt>
<pdfrwt beam="2">  1       -2 0.69764545E-01 0.51659880E+03</pdfrwt>
<totfact> 0.95866101E+01</totfact>
</mgrwt>
</event>
<event>
 4    1  0.2247963E-002  0.5680093E+03  0.7818608E-02  0.9974094E-01
          2   -1    0    0  502    0  0.00000000000E+00  0.00000000000E+00  0.20581470619E+04  0.20581470619E+04  0.00000000000E+00 0. -1.
         -2   -1    0    0    0  501 -0.00000000000E+00 -0.00000000000E+00 -0.23702203843E+03  0.23702203843E+03  0.00000000000E+00 0.  1.
    9000007    1    1    2  502    0  0.30902040264E+03  0.25911562267E+03  0.24276279000E+03  0.61771213957E+03  0.40000000000E+03 0.  1.
   -9000007    1    1    2    0  501 -0.30902040264E+03 -0.25911562267E+03  0.15783622335E+04  0.16774569607E+04  0.40000000000E+03 0. -1.
<mgrwt>
<rscale>  2 0.56800926E+03</rscale>
<asrwt>0</asrwt>
<pdfrwt beam="1">  1        2 0.31663800E+00 0.56800926E+03</pdfrwt>
<pdfrwt beam="2">  1       -2 0.36464930E-01 0.56800926E+03</pdfrwt>
<totfact> 0.46474127E+01</totfact>
</mgrwt>
</event>
<event>
 4    1  0.2247963E-002  0.5171807E+03  0.7818608E-02  0.1009389E+00
         -1   -1    0    0    0  501 -0.00000000000E+00  0.00000000000E+00  0.18255111613E+03  0.18255111613E+03  0.00000000000E+00 0.  1.
          1   -1    0    0  502    0  0.00000000000E+00 -0.00000000000E+00 -0.14849166798E+04  0.14849166798E+04  0.00000000000E+00 0. -1.
    9000007    1    1    2  502    0  0.32779328685E+03  0.52351072451E+01 -0.55513758773E+03  0.75871838422E+03  0.40000000000E+03 0. -1.
   -9000007    1    1    2    0  501 -0.32779328685E+03 -0.52351072451E+01 -0.74722797591E+03  0.90874941168E+03  0.40000000000E+03 0.  1.
<mgrwt>
<rscale>  2 0.51718067E+03</rscale>
<asrwt>0</asrwt>
<pdfrwt beam="1">  1        1 0.22844872E+00 0.51718067E+03</pdfrwt>
<pdfrwt beam="2">  1       -1 0.28084787E-01 0.51718067E+03</pdfrwt>
<totfact> 0.80765512E+01</totfact>
</mgrwt>
</event>
<event>
 4    1  0.2247963E-002  0.8288725E+03  0.7818608E-02  0.9519141E-01
          1   -1    0    0  502    0  0.00000000000E+00  0.00000000000E+00  0.49244578326E+03  0.49244578326E+03  0.00000000000E+00 0. -1.
         -1   -1    0    0    0  501 -0.00000000000E+00 -0.00000000000E+00 -0.16037698236E+04  0.16037698236E+04  0.00000000000E+00 0.  1.
    9000007    1    1    2  502    0  0.67602261185E+03  0.26461868432E+03 -0.93369148087E+03  0.12485228878E+04  0.40000000000E+03 0.  1.
   -9000007    1    1    2    0  501 -0.67602261185E+03 -0.26461868432E+03 -0.17763255946E+03  0.84769271909E+03  0.40000000000E+03 0. -1.
<mgrwt>
<rscale>  2 0.82887250E+03</rscale>
<asrwt>0</asrwt>
<pdfrwt beam="1">  1        1 0.75760890E-01 0.82887250E+03</pdfrwt>
<pdfrwt beam="2">  1       -1 0.24673382E+00 0.82887250E+03</pdfrwt>
<totfact> 0.34144278E+00</totfact>
</mgrwt>
</event>
<event>
 4    1  0.2247963E-002  0.5719722E+03  0.7818608E-02  0.9965324E-01
         -2   -1    0    0    0  501 -0.00000000000E+00  0.00000000000E+00  0.79322210790E+03  0.79322210790E+03  0.00000000000E+00 0. -1.
          2   -1    0    0  502    0  0.00000000000E+00 -0.00000000000E+00 -0.48448443422E+03  0.48448443422E+03  0.00000000000E+00 0.  1.
    9000007    1    1    2  502    0  0.37230935682E+03 -0.16893161939E+03  0.40073329655E+03  0.69838336476E+03  0.40000000000E+03 0.  1.
   -9000007    1    1    2    0  501 -0.37230935682E+03  0.16893161939E+03 -0.91995622868E+02  0.57932317736E+03  0.40000000000E+03 0.  1.
<mgrwt>
<rscale>  2 0.57197216E+03</rscale>
<asrwt>0</asrwt>
<pdfrwt beam="1">  1        2 0.74536067E-01 0.57197216E+03</pdfrwt>
<pdfrwt beam="2">  1       -2 0.12203417E+00 0.57197216E+03</pdfrwt>
<totfact> 0.33423600E+01</totfact>
</mgrwt>
</event>
<event>
 4    1  0.2247963E-002  0.4267902E+03  0.7818608E-02  0.1034879E+00
         -1   -1    0    0    0  501 -0.00000000000E+00  0.00000000000E+00  0.16178297210E+03  0.16178297210E+03  0.00000000000E+00 0.  1.
          1   -1    0    0  502    0  0.00000000000E+00 -0.00000000000E+00 -0.12049566841E+04  0.12049566841E+04  0.00000000000E+00 0. -1.
    9000007    1    1    2  502    0  0.14390929584E+03  0.37947333149E+02 -0.34653532620E+03  0.54976050952E+03  0.40000000000E+03 0.  1.
   -9000007    1    1    2    0  501 -0.14390929584E+03 -0.37947333149E+02 -0.69663838577E+03  0.81697914664E+03  0.40000000000E+03 0. -1.
<mgrwt>
<rscale>  2 0.42679021E+03</rscale>
<asrwt>0</asrwt>
<pdfrwt beam="1">  1        1 0.18537795E+00 0.42679021E+03</pdfrwt>
<pdfrwt beam="2">  1       -1 0.24889688E-01 0.42679021E+03</pdfrwt>
<totfact> 0.15692170E+02</totfact>
</mgrwt>
</event>
<event>
 4    1  0.2247963E-002  0.4383848E+03  0.7818608E-02  0.1031244E+00
         -2   -1    0    0    0  501 -0.00000000000E+00  0.00000000000E+00  0.15258419685E+03  0.15258419685E+03  0.00000000000E+00 0. -1.
          2   -1    0    0  502    0  0.00000000000E+00 -0.00000000000E+00 -0.25177865990E+04  0.25177865990E+04  0.00000000000E+00 0.  1.
    9000007    1    1    2  502    0 -0.91173305299E+02  0.15449479761E+03 -0.21264888364E+04  0.21712061130E+04  0.40000000000E+03 0.  1.
   -9000007    1    1    2    0  501  0.91173305299E+02 -0.15449479761E+03 -0.23871356579E+03  0.49916468283E+03  0.40000000000E+03 0. -1.
<mgrwt>
<rscale>  2 0.43838478E+03</rscale>
<asrwt>0</asrwt>
<pdfrwt beam="1">  1        2 0.38735177E+00 0.43838478E+03</pdfrwt>
<pdfrwt beam="2">  1       -2 0.23474493E-01 0.43838478E+03</pdfrwt>
<totfact> 0.59902674E+01</totfact>
</mgrwt>
</event>
<event>
 4    1  0.2247963E-002  0.5000741E+03  0.7818608E-02  0.1013760E+00
          2   -1    0    0  502    0  0.00000000000E+00  0.00000000000E+00  0.35039178180E+03  0.35039178180E+03  0.00000000000E+00 0.  1.
         -2   -1    0    0    0  501 -0.00000000000E+00 -0.00000000000E+00 -0.81869403091E+03  0.81869403091E+03  0.00000000000E+00 0. -1.
    9000007    1    1    2  502    0 -0.42975093000E+02  0.29703069719E+03 -0.24816550851E+02  0.50068947950E+03  0.40000000000E+03 0.  1.
   -9000007    1    1    2    0  501  0.42975093000E+02 -0.29703069719E+03 -0.44348569825E+03  0.66839633321E+03  0.40000000000E+03 0. -1.
<mgrwt>
<rscale>  2 0.50007409E+03</rscale>
<asrwt>0</asrwt>
<pdfrwt beam="1">  1        2 0.53906429E-01 0.50007409E+03</pdfrwt>
<pdfrwt beam="2">  1       -2 0.12595293E+00 0.50007409E+03</pdfrwt>
<totfact> 0.44742235E+01</totfact>
</mgrwt>
</event>
<event>
 4    1  0.2247963E-002  0.4112977E+03  0.7818608E-02  0.1039936E+00
         -2   -1    0    0    0  501 -0.00000000000E+00  0.00000000000E+00  0.29737858635E+03  0.29737858635E+03  0.00000000000E+00 0.  1.
          2   -1    0    0  502    0  0.00000000000E+00 -0.00000000000E+00 -0.56916307726E+03  0.56916307726E+03  0.00000000000E+00 0. -1.
    9000007    1    1    2  502    0  0.95679137845E+02  0.33636045484E+01 -0.12584040505E+03  0.43011814516E+03  0.40000000000E+03 0. -1.
   -9000007    1    1    2    0  501 -0.95679137845E+02 -0.33636045484E+01 -0.14594408586E+03  0.43642351844E+03  0.40000000000E+03 0. -1.
<mgrwt>
<rscale>  2 0.41129772E+03</rscale>
<asrwt>0</asrwt>
<pdfrwt beam="1">  1        2 0.87563549E-01 0.41129772E+03</pdfrwt>
<pdfrwt beam="2">  1       -2 0.45750552E-01 0.41129772E+03</pdfrwt>
<totfact> 0.24559349E+02</totfact>
</mgrwt>
</event>
<event>
 4    1  0.2247963E-002  0.5636322E+03  0.7818608E-02  0.9983869E-01
         -2   -1    0    0    0  501 -0.00000000000E+00  0.00000000000E+00  0.87442421196E+02  0.87442421196E+02  0.00000000000E+00 0.  1.
          2   -1    0    0  502    0  0.00000000000E+00 -0.00000000000E+00 -0.36334709553E+04  0.36334709553E+04  0.00000000000E+00 0. -1.
    9000007    1    1    2  502    0 -0.36492129861E+03 -0.15656858163E+03 -0.17526082358E+04  0.18410097510E+04  0.40000000000E+03 0. -1.
   -9000007    1    1    2    0  501  0.36492129861E+03  0.15656858163E+03 -0.17934202983E+04  0.18799036255E+04  0.40000000000E+03 0.  1.
<mgrwt>
<rscale>  2 0.56363222E+03</rscale>
<asrwt>0</asrwt>
<pdfrwt beam="1">  1        2 0.55899553E+00 0.56363222E+03</pdfrwt>
<pdfrwt beam="2">  1       -2 0.13452680E-01 0.56363222E+03</pdfrwt>
<totfact> 0.30842470E+01</totfact>
</mgrwt>
</event>
<event>
 4    1  0.2247963E-002  0.4381903E+03  0.7818608E-02  0.1031304E+00
          2   -1    0    0  502    0  0.00000000000E+00  0.00000000000E+00  0.32886848011E+04  0.32886848011E+04  0.00000000000E+00 0.  1.
         -2   -1    0    0    0  501 -0.00000000000E+00 -0.00000000000E+00 -0.58610220865E+02  0.58610220865E+02  0.00000000000E+00 0. -1.
    9000007    1    1    2  502    0  0.17768363877E+03  0.20957589324E+02  0.17187273215E+04  0.17737063741E+04  0.40000000000E+03 0.  1.
   -9000007    1    1    2    0  501 -0.17768363877E+03 -0.20957589324E+02  0.15113472587E+04  0.15735886478E+04  0.40000000000E+03 0. -1.
<mgrwt>
<rscale>  2 0.43819025E+03</rscale>
<asrwt>0</asrwt>
<pdfrwt beam="1">  1        2 0.50595136E+00 0.43819025E+03</pdfrwt>
<pdfrwt beam="2">  1       -2 0.90169596E-02 0.43819025E+03</pdfrwt>
<totfact> 0.10364485E+02</totfact>
</mgrwt>
</event>
<event>
 4    1  0.2247963E-002  0.4767956E+03  0.7818608E-02  0.1020020E+00
          1   -1    0    0  502    0  0.00000000000E+00  0.00000000000E+00  0.52506938876E+03  0.52506938876E+03  0.00000000000E+00 0. -1.
         -1   -1    0    0    0  501 -0.00000000000E+00 -0.00000000000E+00 -0.58894328156E+03  0.58894328156E+03  0.00000000000E+00 0.  1.
    9000007    1    1    2  502    0  0.25726367380E+03  0.33902869801E+02  0.25472004042E+03  0.54057034827E+03  0.40000000000E+03 0. -1.
   -9000007    1    1    2    0  501 -0.25726367380E+03 -0.33902869801E+02 -0.31859393322E+03  0.57344232205E+03  0.40000000000E+03 0.  1.
<mgrwt>
<rscale>  2 0.47679556E+03</rscale>
<asrwt>0</asrwt>
<pdfrwt beam="1">  1        1 0.80779906E-01 0.47679556E+03</pdfrwt>
<pdfrwt beam="2">  1       -1 0.90606659E-01 0.47679556E+03</pdfrwt>
<totfact> 0.51801974E+01</totfact>
</mgrwt>
</event>
<event>
 4    1  0.2247963E-002  0.4147584E+03  0.7818608E-02  0.1038786E+00
         -2   -1    0    0    0  501 -0.00000000000E+00  0.00000000000E+00  0.99925710473E+02  0.99925710473E+02  0.00000000000E+00 0.  1.
          2   -1    0    0  502    0  0.00000000000E+00 -0.00000000000E+00 -0.17326924126E+04  0.17326924126E+04  0.00000000000E+00 0. -1.
    9000007    1    1    2  502    0 -0.77008106057E+02 -0.78065873116E+02 -0.88994865757E+03  0.98185189415E+03  0.40000000000E+03 0.  1.
   -9000007    1    1    2    0  501  0.77008106057E+02  0.78065873116E+02 -0.74281804454E+03  0.85076622890E+03  0.40000000000E+03 0. -1.
<mgrwt>
<rscale>  2 0.41475840E+03</rscale>
<asrwt>0</asrwt>
<pdfrwt beam="1">  1        2 0.26656805E+00 0.41475840E+03</pdfrwt>
<pdfrwt beam="2">  1       -2 0.15373187E-01 0.41475840E+03</pdfrwt>
<totfact> 0.33170443E+02</totfact>
</mgrwt>
</event>
<event>
 4    1  0.2247963E-002  0.6365030E+03  0.7818608E-02  0.9832440E-01
          2   -1    0    0  502    0  0.00000000000E+00  0.00000000000E+00  0.80049469397E+03  0.80049469397E+03  0.00000000000E+00 0.  1.
         -2   -1    0    0    0  501 -0.00000000000E+00 -0.00000000000E+00 -0.50637164984E+03  0.50637164984E+03  0.00000000000E+00 0. -1.
    9000007    1    1    2  502    0  0.23186842715E+03  0.43746217419E+03  0.13212858842E+03  0.65007236923E+03  0.40000000000E+03 0.  1.
   -9000007    1    1    2    0  501 -0.23186842715E+03 -0.43746217419E+03  0.16199445570E+03  0.65679397458E+03  0.40000000000E+03 0.  1.
<mgrwt>
<rscale>  2 0.63650304E+03</rscale>
<asrwt>0</asrwt>
<pdfrwt beam="1">  1        2 0.12315303E+00 0.63650304E+03</pdfrwt>
<pdfrwt beam="2">  1       -2 0.77903331E-01 0.63650304E+03</pdfrwt>
<totfact> 0.51683859E+01</totfact>
</mgrwt>
</event>
<event>
 4    1  0.2247963E-002  0.4965584E+03  0.7818608E-02  0.1014681E+00
         -2   -1    0    0    0  501 -0.00000000000E+00  0.00000000000E+00  0.13046018570E+03  0.13046018570E+03  0.00000000000E+00 0.  1.
          2   -1    0    0  502    0  0.00000000000E+00 -0.00000000000E+00 -0.19024801022E+04  0.19024801022E+04  0.00000000000E+00 0. -1.
    9000007    1    1    2  502    0  0.21007217641E+03  0.20600948079E+03 -0.96832521635E+03  0.10882205429E+04  0.40000000000E+03 0. -1.
   -9000007    1    1    2    0  501 -0.21007217641E+03 -0.20600948079E+03 -0.80369470018E+03  0.94471974499E+03  0.40000000000E+03 0.  1.
<mgrwt>
<rscale>  2 0.49655838E+03</rscale>
<asrwt>0</asrwt>
<pdfrwt beam="1">  1        2 0.29268924E+00 0.49655838E+03</pdfrwt>
<pdfrwt beam="2">  1       -2 0.20070798E-01 0.49655838E+03</pdfrwt>
<totfact> 0.16880687E+02</totfact>
</mgrwt>
</event>
<event>
 4    1  0.2247963E-002  0.5354401E+03  0.7818608E-02  0.1004921E+00
         -2   -1    0    0    0  501 -0.00000000000E+00  0.00000000000E+00  0.20737101744E+03  0.20737101744E+03  0.00000000000E+00 0.  1.
          2   -1    0    0  502    0  0.00000000000E+00 -0.00000000000E+00 -0.19927637021E+04  0.19927637021E+04  0.00000000000E+00 0. -1.
    9000007    1    1    2  502    0 -0.55290854166E+02 -0.35162340118E+03 -0.28394430333E+03  0.60606968428E+03  0.40000000000E+03 0.  1.
   -9000007    1    1    2    0  501  0.55290854166E+02  0.35162340118E+03 -0.15014483814E+04  0.15940650353E+04  0.40000000000E+03 0. -1.
<mgrwt>
<rscale>  2 0.53544009E+03</rscale>
<asrwt>0</asrwt>
<pdfrwt beam="1">  1        2 0.30657903E+00 0.53544009E+03</pdfrwt>
<pdfrwt beam="2">  1       -2 0.31903234E-01 0.53544009E+03</pdfrwt>
<totfact> 0.65220510E+01</totfact>
</mgrwt>
</event>
<event>
 4    1  0.2247963E-002  0.4297051E+03  0.7818608E-02  0.1033953E+00
          2   -1    0    0  502    0  0.00000000000E+00  0.00000000000E+00  0.49142305512E+03  0.49142305512E+03  0.00000000000E+00 0. -1.
         -2   -1    0    0    0  501 -0.00000000000E+00 -0.00000000000E+00 -0.37617004447E+03  0.37617004447E+03  0.00000000000E+00 0.  1.
    9000007    1    1    2  502    0  0.62298039277E+02 -0.14410204564E+03  0.42929601275E+02  0.43184418014E+03  0.40000000000E+03 0.  1.
   -9000007    1    1    2    0  501 -0.62298039277E+02  0.14410204564E+03  0.72323409375E+02  0.43574891945E+03  0.40000000000E+03 0. -1.
<mgrwt>
<rscale>  2 0.42970507E+03</rscale>
<asrwt>0</asrwt>
<pdfrwt beam="1">  1        2 0.75603547E-01 0.42970507E+03</pdfrwt>
<pdfrwt beam="2">  1       -2 0.57872315E-01 0.42970507E+03</pdfrwt>
<totfact> 0.18034644E+02</totfact>
</mgrwt>
</event>
<event>
 4    1  0.2247963E-002  0.4125018E+03  0.7818608E-02  0.1039535E+00
         -2   -1    0    0    0  501 -0.00000000000E+00  0.00000000000E+00  0.75398907785E+03  0.75398907785E+03  0.00000000000E+00 0. -1.
          2   -1    0    0  502    0  0.00000000000E+00 -0.00000000000E+00 -0.26249171873E+03  0.26249171873E+03  0.00000000000E+00 0.  1.
    9000007    1    1    2  502    0  0.78310520713E+02 -0.63444263438E+02  0.55411197308E+02  0.41620681518E+03  0.40000000000E+03 0.  1.
   -9000007    1    1    2    0  501 -0.78310520713E+02  0.63444263438E+02  0.43608616181E+03  0.60027398139E+03  0.40000000000E+03 0. -1.
<mgrwt>
<rscale>  2 0.41250177E+03</rscale>
<asrwt>0</asrwt>
<pdfrwt beam="1">  1        2 0.40383342E-01 0.41250177E+03</pdfrwt>
<pdfrwt beam="2">  1       -2 0.11599832E+00 0.41250177E+03</pdfrwt>
<totfact> 0.75857119E+01</totfact>
</mgrwt>
</event>
<event>
 4    1  0.2247963E-002  0.4417569E+03  0.7818608E-02  0.1030209E+00
         -1   -1    0    0    0  501 -0.00000000000E+00  0.00000000000E+00  0.95604474145E+02  0.95604474145E+02  0.00000000000E+00 0. -1.
          1   -1    0    0  502    0  0.00000000000E+00 -0.00000000000E+00 -0.21078476075E+04  0.21078476075E+04  0.00000000000E+00 0.  1.
    9000007    1    1    2  502    0  0.13883398158E+03 -0.12599315758E+03 -0.12020069664E+04  0.12806130944E+04  0.40000000000E+03 0.  1.
   -9000007    1    1    2    0  501 -0.13883398158E+03  0.12599315758E+03 -0.81023616699E+03  0.92283898731E+03  0.40000000000E+03 0. -1.
<mgrwt>
<rscale>  2 0.44175689E+03</rscale>
<asrwt>0</asrwt>
<pdfrwt beam="1">  1        1 0.32428426E+00 0.44175689E+03</pdfrwt>
<pdfrwt beam="2">  1       -1 0.14708380E-01 0.44175689E+03</pdfrwt>
<totfact> 0.92055645E+01</totfact>
</mgrwt>
</event>
<event>
 4    1  0.2247963E-002  0.6588204E+03  0.7818608E-02  0.9790368E-01
          2   -1    0    0  502    0  0.00000000000E+00  0.00000000000E+00  0.29000224035E+03  0.29000224035E+03  0.00000000000E+00 0.  1.
         -2   -1    0    0    0  501 -0.00000000000E+00 -0.00000000000E+00 -0.14967164671E+04  0.14967164671E+04  0.00000000000E+00 0. -1.
    9000007    1    1    2  502    0 -0.37730514406E+03  0.36288439448E+03 -0.59980216135E+03  0.89095840994E+03  0.40000000000E+03 0.  1.
   -9000007    1    1    2    0  501  0.37730514406E+03 -0.36288439448E+03 -0.60691206544E+03  0.89576029755E+03  0.40000000000E+03 0. -1.
<mgrwt>
<rscale>  2 0.65882035E+03</rscale>
<asrwt>0</asrwt>
<pdfrwt beam="1">  1        2 0.44615730E-01 0.65882035E+03</pdfrwt>
<pdfrwt beam="2">  1       -2 0.23026407E+00 0.65882035E+03</pdfrwt>
<totfact> 0.10033776E+01</totfact>
</mgrwt>
</event>
<event>
 4    1  0.2247963E-002  0.4352334E+03  0.7818608E-02  0.1032219E+00
          1   -1    0    0  502    0  0.00000000000E+00  0.00000000000E+00  0.96120156336E+03  0.96120156336E+03  0.00000000000E+00 0.  1.
         -1   -1    0    0    0  501 -0.00000000000E+00 -0.00000000000E+00 -0.22195187998E+03  0.22195187998E+03  0.00000000000E+00 0. -1.
    9000007    1    1    2  502    0  0.49144028241E+01  0.17147575557E+03  0.56767996602E+03  0.71532414326E+03  0.40000000000E+03 0.  1.
   -9000007    1    1    2    0  501 -0.49144028241E+01 -0.17147575557E+03  0.17156971736E+03  0.46782930009E+03  0.40000000000E+03 0.  1.
<mgrwt>
<rscale>  2 0.43523337E+03</rscale>
<asrwt>0</asrwt>
<pdfrwt beam="1">  1        1 0.14787716E+00 0.43523337E+03</pdfrwt>
<pdfrwt beam="2">  1       -1 0.34146444E-01 0.43523337E+03</pdfrwt>
<totfact> 0.13787177E+02</totfact>
</mgrwt>
</event>
<event>
 4    1  0.2247963E-002  0.4367218E+03  0.7818608E-02  0.1031757E+00
         -2   -1    0    0    0  501 -0.00000000000E+00  0.00000000000E+00  0.16871769646E+03  0.16871769646E+03  0.00000000000E+00 0. -1.
          2   -1    0    0  502    0  0.00000000000E+00 -0.00000000000E+00 -0.11310298516E+04  0.11310298516E+04  0.00000000000E+00 0.  1.
    9000007    1    1    2  502    0 -0.20964229026E+02  0.17402988735E+03 -0.49594720704E+03  0.66082488812E+03  0.40000000000E+03 0. -1.
   -9000007    1    1    2    0  501  0.20964229026E+02 -0.17402988735E+03 -0.46636494814E+03  0.63892265999E+03  0.40000000000E+03 0.  1.
<mgrwt>
<rscale>  2 0.43672177E+03</rscale>
<asrwt>0</asrwt>
<pdfrwt beam="1">  1        2 0.17400459E+00 0.43672177E+03</pdfrwt>
<pdfrwt beam="2">  1       -2 0.25956568E-01 0.43672177E+03</pdfrwt>
<totfact> 0.28804793E+02</totfact>
</mgrwt>
</event>
<event>
 4    1  0.2247963E-002  0.4773709E+03  0.7818608E-02  0.1019860E+00
         -2   -1    0    0    0  501 -0.00000000000E+00  0.00000000000E+00  0.99722850105E+02  0.99722850105E+02  0.00000000000E+00 0. -1.
          2   -1    0    0  502    0  0.00000000000E+00 -0.00000000000E+00 -0.50998074057E+04  0.50998074057E+04  0.00000000000E+00 0.  1.
    9000007    1    1    2  502    0  0.25340763344E+03 -0.60560157332E+02 -0.56865663561E+03  0.74246436316E+03  0.40000000000E+03 0. -1.
   -9000007    1    1    2    0  501 -0.25340763344E+03  0.60560157332E+02 -0.44314279200E+04  0.44570658926E+04  0.40000000000E+03 0.  1.
<mgrwt>
<rscale>  2 0.47737088E+03</rscale>
<asrwt>0</asrwt>
<pdfrwt beam="1">  1        2 0.78458625E+00 0.47737088E+03</pdfrwt>
<pdfrwt beam="2">  1       -2 0.15341967E-01 0.47737088E+03</pdfrwt>
<totfact> 0.11154214E+00</totfact>
</mgrwt>
</event>
<event>
 4    1  0.2247963E-002  0.6984987E+03  0.7818608E-02  0.9719803E-01
         -2   -1    0    0    0  501 -0.00000000000E+00  0.00000000000E+00  0.44595410757E+03  0.44595410757E+03  0.00000000000E+00 0.  1.
          2   -1    0    0  502    0  0.00000000000E+00 -0.00000000000E+00 -0.13873940843E+04  0.13873940843E+04  0.00000000000E+00 0. -1.
    9000007    1    1    2  502    0 -0.49362320423E+02 -0.57049438959E+03 -0.89221885399E+03  0.11331173684E+04  0.40000000000E+03 0. -1.
   -9000007    1    1    2    0  501  0.49362320423E+02  0.57049438959E+03 -0.49221122776E+02  0.70023082348E+03  0.40000000000E+03 0.  1.
<mgrwt>
<rscale>  2 0.69849874E+03</rscale>
<asrwt>0</asrwt>
<pdfrwt beam="1">  1        2 0.21344524E+00 0.69849874E+03</pdfrwt>
<pdfrwt beam="2">  1       -2 0.68608324E-01 0.69849874E+03</pdfrwt>
<totfact> 0.29364389E+01</totfact>
</mgrwt>
</event>
