<event>
 4    1  0.4840996E-002  0.4156439E+03  0.7818608E-02  0.1038493E+00
         21   -1    0    0  501  502  0.00000000000E+00  0.00000000000E+00  0.32678860669E+03  0.32678860669E+03  0.00000000000E+00 0. -1.
         21   -1    0    0  502  503 -0.00000000000E+00 -0.00000000000E+00 -0.66382886915E+03  0.66382886915E+03  0.00000000000E+00 0. -1.
    9000005    1    1    2  501    0  0.11000283072E+03 -0.25674926679E+02  0.54984971549E+02  0.41926503756E+03  0.40000000000E+03 0. -1.
   -9000005    1    1    2    0  503 -0.11000283072E+03  0.25674926679E+02 -0.39202523401E+03  0.57135243828E+03  0.40000000000E+03 0. -1.
<mgrwt>
<rscale>  2 0.41564387E+03</rscale>
<asrwt>0</asrwt>
<pdfrwt beam="1">  1       21 0.50275171E-01 0.41564387E+03</pdfrwt>
<pdfrwt beam="2">  1       21 0.10212752E+00 0.41564387E+03</pdfrwt>
<totfact> 0.25820760E+03</totfact>
</mgrwt>
</event>
<event>
 4    1  0.4840996E-002  0.4090832E+03  0.7818608E-02  0.1040679E+00
         21   -1    0    0  501  502  0.00000000000E+00  0.00000000000E+00  0.24000409616E+04  0.24000409616E+04  0.00000000000E+00 0.  1.
         21   -1    0    0  502  503 -0.00000000000E+00 -0.00000000000E+00 -0.10342492031E+03  0.10342492031E+03  0.00000000000E+00 0. -1.
    9000005    1    1    2  501    0  0.21848469302E+02  0.82895627221E+02  0.18627992731E+04  0.19071890763E+04  0.40000000000E+03 0.  1.
   -9000005    1    1    2    0  503 -0.21848469302E+02 -0.82895627221E+02  0.43381676819E+03  0.59627680568E+03  0.40000000000E+03 0. -1.
<mgrwt>
<rscale>  2 0.40908317E+03</rscale>
<asrwt>0</asrwt>
<pdfrwt beam="1">  1       21 0.36923703E+00 0.40908317E+03</pdfrwt>
<pdfrwt beam="2">  1       21 0.15911528E-01 0.40908317E+03</pdfrwt>
<totfact> 0.37742002E+02</totfact>
</mgrwt>
</event>
<event>
 4    1  0.4840996E-002  0.5279448E+03  0.7818608E-02  0.1006732E+00
         21   -1    0    0  503  502  0.00000000000E+00  0.00000000000E+00  0.12051780749E+04  0.12051780749E+04  0.00000000000E+00 0.  1.
         21   -1    0    0  501  503 -0.00000000000E+00 -0.00000000000E+00 -0.23192467600E+03  0.23192467600E+03  0.00000000000E+00 0.  1.
    9000005    1    1    2  501    0  0.11061139264E+02 -0.34438843590E+03  0.44855206602E+03  0.69276597746E+03  0.40000000000E+03 0.  1.
   -9000005    1    1    2    0  502 -0.11061139264E+02  0.34438843590E+03  0.52470133288E+03  0.74433677345E+03  0.40000000000E+03 0.  1.
<mgrwt>
<rscale>  2 0.52794483E+03</rscale>
<asrwt>0</asrwt>
<pdfrwt beam="1">  1       21 0.18541201E+00 0.52794483E+03</pdfrwt>
<pdfrwt beam="2">  1       21 0.35680720E-01 0.52794483E+03</pdfrwt>
<totfact> 0.10293773E+03</totfact>
</mgrwt>
</event>
<event>
 4    1  0.4840996E-002  0.4791225E+03  0.7818608E-02  0.1019377E+00
         21   -1    0    0  503  502  0.00000000000E+00  0.00000000000E+00  0.30688794250E+03  0.30688794250E+03  0.00000000000E+00 0. -1.
         21   -1    0    0  501  503 -0.00000000000E+00 -0.00000000000E+00 -0.14497350750E+04  0.14497350750E+04  0.00000000000E+00 0. -1.
    9000005    1    1    2  501    0  0.26052763006E+03  0.41033013122E+02 -0.11824846386E+04  0.12758637367E+04  0.40000000000E+03 0. -1.
   -9000005    1    1    2    0  502 -0.26052763006E+03 -0.41033013122E+02  0.39637506060E+02  0.48075928080E+03  0.40000000000E+03 0. -1.
<mgrwt>
<rscale>  2 0.47912248E+03</rscale>
<asrwt>0</asrwt>
<pdfrwt beam="1">  1       21 0.47213529E-01 0.47912248E+03</pdfrwt>
<pdfrwt beam="2">  1       21 0.22303617E+00 0.47912248E+03</pdfrwt>
<totfact> 0.33069949E+02</totfact>
</mgrwt>
</event>
<event>
 4    1  0.4840996E-002  0.4039774E+03  0.7818608E-02  0.1042411E+00
         21   -1    0    0  501  502  0.00000000000E+00  0.00000000000E+00  0.12061337343E+04  0.12061337343E+04  0.00000000000E+00 0. -1.
         21   -1    0    0  502  503 -0.00000000000E+00 -0.00000000000E+00 -0.15561468411E+03  0.15561468411E+03  0.00000000000E+00 0. -1.
    9000005    1    1    2  501    0  0.56519787249E+02 -0.18012307330E+01  0.77122671057E+03  0.87062527524E+03  0.40000000000E+03 0. -1.
   -9000005    1    1    2    0  503 -0.56519787249E+02  0.18012307330E+01  0.27929233958E+03  0.49112314315E+03  0.40000000000E+03 0. -1.
<mgrwt>
<rscale>  2 0.40397739E+03</rscale>
<asrwt>0</asrwt>
<pdfrwt beam="1">  1       21 0.18555903E+00 0.40397739E+03</pdfrwt>
<pdfrwt beam="2">  1       21 0.23940721E-01 0.40397739E+03</pdfrwt>
<totfact> 0.23847047E+03</totfact>
</mgrwt>
</event>
<event>
 4    1  0.4840996E-002  0.4165369E+03  0.7818608E-02  0.1038199E+00
         21   -1    0    0  503  502  0.00000000000E+00  0.00000000000E+00  0.70931970072E+03  0.70931970072E+03  0.00000000000E+00 0. -1.
         21   -1    0    0  501  503 -0.00000000000E+00 -0.00000000000E+00 -0.29463911815E+03  0.29463911815E+03  0.00000000000E+00 0. -1.
    9000005    1    1    2  501    0 -0.40032956173E+02 -0.10908890372E+03  0.48122851762E+00  0.41653722292E+03  0.40000000000E+03 0. -1.
   -9000005    1    1    2    0  502  0.40032956173E+02  0.10908890372E+03  0.41419935406E+03  0.58742159596E+03  0.40000000000E+03 0. -1.
<mgrwt>
<rscale>  2 0.41653694E+03</rscale>
<asrwt>0</asrwt>
<pdfrwt beam="1">  1       21 0.10912611E+00 0.41653694E+03</pdfrwt>
<pdfrwt beam="2">  1       21 0.45329095E-01 0.41653694E+03</pdfrwt>
<totfact> 0.27284895E+03</totfact>
</mgrwt>
</event>
<event>
 4    1  0.4840996E-002  0.4003146E+03  0.7818608E-02  0.1043671E+00
         21   -1    0    0  503  502  0.00000000000E+00  0.00000000000E+00  0.68185709115E+03  0.68185709115E+03  0.00000000000E+00 0. -1.
         21   -1    0    0  501  503 -0.00000000000E+00 -0.00000000000E+00 -0.29794225767E+03  0.29794225767E+03  0.00000000000E+00 0. -1.
    9000005    1    1    2  501    0 -0.12401391487E+02 -0.98972228953E+01 -0.33173252941E+02  0.40168671156E+03  0.40000000000E+03 0. -1.
   -9000005    1    1    2    0  502  0.12401391487E+02  0.98972228953E+01  0.41708808642E+03  0.57811263727E+03  0.40000000000E+03 0. -1.
<mgrwt>
<rscale>  2 0.40031456E+03</rscale>
<asrwt>0</asrwt>
<pdfrwt beam="1">  1       21 0.10490109E+00 0.40031456E+03</pdfrwt>
<pdfrwt beam="2">  1       21 0.45837271E-01 0.40031456E+03</pdfrwt>
<totfact> 0.29570651E+03</totfact>
</mgrwt>
</event>
<event>
 4    1  0.4840996E-002  0.4941398E+03  0.7818608E-02  0.1015320E+00
         21   -1    0    0  503  502  0.00000000000E+00  0.00000000000E+00  0.59333753669E+03  0.59333753669E+03  0.00000000000E+00 0. -1.
         21   -1    0    0  501  503 -0.00000000000E+00 -0.00000000000E+00 -0.42781199701E+03  0.42781199701E+03  0.00000000000E+00 0.  1.
    9000005    1    1    2  501    0  0.16324808167E+03  0.23984203339E+03 -0.16854121890E+02  0.49442714183E+03  0.40000000000E+03 0.  1.
   -9000005    1    1    2    0  502 -0.16324808167E+03 -0.23984203339E+03  0.18237966156E+03  0.52672239187E+03  0.40000000000E+03 0. -1.
<mgrwt>
<rscale>  2 0.49413980E+03</rscale>
<asrwt>0</asrwt>
<pdfrwt beam="1">  1       21 0.91282698E-01 0.49413980E+03</pdfrwt>
<pdfrwt beam="2">  1       21 0.65817230E-01 0.49413980E+03</pdfrwt>
<totfact> 0.18286097E+03</totfact>
</mgrwt>
</event>
<event>
 4    1  0.4840996E-002  0.4938675E+03  0.7818608E-02  0.1015392E+00
         21   -1    0    0  503  502  0.00000000000E+00  0.00000000000E+00  0.22806897558E+03  0.22806897558E+03  0.00000000000E+00 0.  1.
         21   -1    0    0  501  503 -0.00000000000E+00 -0.00000000000E+00 -0.11197344944E+04  0.11197344944E+04  0.00000000000E+00 0.  1.
    9000005    1    1    2  501    0  0.27671763171E+03  0.85630064102E+02 -0.30300360414E+03  0.57941033793E+03  0.40000000000E+03 0.  1.
   -9000005    1    1    2    0  502 -0.27671763171E+03 -0.85630064102E+02 -0.58866191464E+03  0.76839313201E+03  0.40000000000E+03 0.  1.
<mgrwt>
<rscale>  2 0.49386755E+03</rscale>
<asrwt>0</asrwt>
<pdfrwt beam="1">  1       21 0.35087534E-01 0.49386755E+03</pdfrwt>
<pdfrwt beam="2">  1       21 0.17226685E+00 0.49386755E+03</pdfrwt>
<totfact> 0.13379617E+03</totfact>
</mgrwt>
</event>
<event>
 4    1  0.4840996E-002  0.4840408E+03  0.7818608E-02  0.1018031E+00
         21   -1    0    0  501  502  0.00000000000E+00  0.00000000000E+00  0.91550888547E+03  0.91550888547E+03  0.00000000000E+00 0.  1.
         21   -1    0    0  502  503 -0.00000000000E+00 -0.00000000000E+00 -0.30040578089E+03  0.30040578089E+03  0.00000000000E+00 0.  1.
    9000005    1    1    2  501    0  0.61822285115E+02 -0.26546851383E+03  0.54150939247E+03  0.72631119288E+03  0.40000000000E+03 0.  1.
   -9000005    1    1    2    0  503 -0.61822285115E+02  0.26546851383E+03  0.73593712109E+02  0.48960347347E+03  0.40000000000E+03 0.  1.
<mgrwt>
<rscale>  2 0.48404083E+03</rscale>
<asrwt>0</asrwt>
<pdfrwt beam="1">  1       21 0.14084752E+00 0.48404083E+03</pdfrwt>
<pdfrwt beam="2">  1       21 0.46216274E-01 0.48404083E+03</pdfrwt>
<totfact> 0.13268134E+03</totfact>
</mgrwt>
</event>
<event>
 4    1  0.4840996E-002  0.4549321E+03  0.7818608E-02  0.1026261E+00
         21   -1    0    0  503  502  0.00000000000E+00  0.00000000000E+00  0.18419076432E+04  0.18419076432E+04  0.00000000000E+00 0. -1.
         21   -1    0    0  501  503 -0.00000000000E+00 -0.00000000000E+00 -0.12825062268E+03  0.12825062268E+03  0.00000000000E+00 0. -1.
    9000005    1    1    2  501    0 -0.16892246028E+03 -0.13575146795E+03  0.51012080818E+03  0.68351042243E+03  0.40000000000E+03 0. -1.
   -9000005    1    1    2    0  502  0.16892246028E+03  0.13575146795E+03  0.12035362124E+04  0.12866478435E+04  0.40000000000E+03 0. -1.
<mgrwt>
<rscale>  2 0.45493215E+03</rscale>
<asrwt>0</asrwt>
<pdfrwt beam="1">  1       21 0.28337039E+00 0.45493215E+03</pdfrwt>
<pdfrwt beam="2">  1       21 0.19730866E-01 0.45493215E+03</pdfrwt>
<totfact> 0.81291661E+02</totfact>
</mgrwt>
</event>
<event>
 4    1  0.4840996E-002  0.5850913E+03  0.7818608E-02  0.9936829E-01
         21   -1    0    0  503  502  0.00000000000E+00  0.00000000000E+00  0.11047407498E+04  0.11047407498E+04  0.00000000000E+00 0.  1.
         21   -1    0    0  501  503 -0.00000000000E+00 -0.00000000000E+00 -0.35748179854E+03  0.35748179854E+03  0.00000000000E+00 0. -1.
    9000005    1    1    2  501    0 -0.13688984763E+02  0.42678384504E+03  0.10682705316E+03  0.59476369928E+03  0.40000000000E+03 0. -1.
   -9000005    1    1    2    0  502  0.13688984763E+02 -0.42678384504E+03  0.64043189807E+03  0.86745884903E+03  0.40000000000E+03 0.  1.
<mgrwt>
<rscale>  2 0.58509131E+03</rscale>
<asrwt>0</asrwt>
<pdfrwt beam="1">  1       21 0.16996011E+00 0.58509131E+03</pdfrwt>
<pdfrwt beam="2">  1       21 0.54997200E-01 0.58509131E+03</pdfrwt>
<totfact> 0.52408177E+02</totfact>
</mgrwt>
</event>
<event>
 4    1  0.4840996E-002  0.4286106E+03  0.7818608E-02  0.1034300E+00
         21   -1    0    0  501  502  0.00000000000E+00  0.00000000000E+00  0.16048603793E+03  0.16048603793E+03  0.00000000000E+00 0. -1.
         21   -1    0    0  502  503 -0.00000000000E+00 -0.00000000000E+00 -0.11446927895E+04  0.11446927895E+04  0.00000000000E+00 0. -1.
    9000005    1    1    2  501    0 -0.15346807885E+03  0.12432550722E+02 -0.49143816204E+03  0.65208779060E+03  0.40000000000E+03 0. -1.
   -9000005    1    1    2    0  503  0.15346807885E+03 -0.12432550722E+02 -0.49276858953E+03  0.65309103682E+03  0.40000000000E+03 0. -1.
<mgrwt>
<rscale>  2 0.42861057E+03</rscale>
<asrwt>0</asrwt>
<pdfrwt beam="1">  1       21 0.24690160E-01 0.42861057E+03</pdfrwt>
<pdfrwt beam="2">  1       21 0.17610658E+00 0.42861057E+03</pdfrwt>
<totfact> 0.25888330E+03</totfact>
</mgrwt>
</event>
<event>
 4    1  0.4840996E-002  0.4267993E+03  0.7818608E-02  0.1034876E+00
         21   -1    0    0  501  502  0.00000000000E+00  0.00000000000E+00  0.24228414496E+04  0.24228414496E+04  0.00000000000E+00 0. -1.
         21   -1    0    0  502  503 -0.00000000000E+00 -0.00000000000E+00 -0.10202039765E+03  0.10202039765E+03  0.00000000000E+00 0.  1.
    9000005    1    1    2  501    0  0.14143521899E+03  0.46408174137E+02  0.18078966633E+04  0.18575919856E+04  0.40000000000E+03 0. -1.
   -9000005    1    1    2    0  503 -0.14143521899E+03 -0.46408174137E+02  0.51292438865E+03  0.66726986165E+03  0.40000000000E+03 0.  1.
<mgrwt>
<rscale>  2 0.42679930E+03</rscale>
<asrwt>0</asrwt>
<pdfrwt beam="1">  1       21 0.37274479E+00 0.42679930E+03</pdfrwt>
<pdfrwt beam="2">  1       21 0.15695448E-01 0.42679930E+03</pdfrwt>
<totfact> 0.36382336E+02</totfact>
</mgrwt>
</event>
<event>
 4    1  0.4840996E-002  0.4119064E+03  0.7818608E-02  0.1039733E+00
         21   -1    0    0  501  502  0.00000000000E+00  0.00000000000E+00  0.12936696550E+03  0.12936696550E+03  0.00000000000E+00 0. -1.
         21   -1    0    0  502  503 -0.00000000000E+00 -0.00000000000E+00 -0.13115834104E+04  0.13115834104E+04  0.00000000000E+00 0. -1.
    9000005    1    1    2  501    0 -0.62840213172E+02  0.75617323775E+02 -0.59626541253E+03  0.72470636414E+03  0.40000000000E+03 0.  1.
   -9000005    1    1    2    0  503  0.62840213172E+02 -0.75617323775E+02 -0.58595103242E+03  0.71624401180E+03  0.40000000000E+03 0.  1.
<mgrwt>
<rscale>  2 0.41190639E+03</rscale>
<asrwt>0</asrwt>
<pdfrwt beam="1">  1       21 0.19902611E-01 0.41190639E+03</pdfrwt>
<pdfrwt beam="2">  1       21 0.20178206E+00 0.41190639E+03</pdfrwt>
<totfact> 0.26302106E+03</totfact>
</mgrwt>
</event>
<event>
 4    1  0.4840996E-002  0.6724730E+03  0.7818608E-02  0.9765501E-01
         21   -1    0    0  501  502  0.00000000000E+00  0.00000000000E+00  0.70273586263E+03  0.70273586263E+03  0.00000000000E+00 0. -1.
         21   -1    0    0  502  503 -0.00000000000E+00 -0.00000000000E+00 -0.10980899910E+04  0.10980899910E+04  0.00000000000E+00 0.  1.
    9000005    1    1    2  501    0  0.22325585288E+03  0.49231769867E+03  0.38165334312E+03  0.77322646526E+03  0.40000000000E+03 0. -1.
   -9000005    1    1    2    0  503 -0.22325585288E+03 -0.49231769867E+03 -0.77700747153E+03  0.10275993884E+04  0.40000000000E+03 0.  1.
<mgrwt>
<rscale>  2 0.67247297E+03</rscale>
<asrwt>0</asrwt>
<pdfrwt beam="1">  1       21 0.10811321E+00 0.67247297E+03</pdfrwt>
<pdfrwt beam="2">  1       21 0.16893692E+00 0.67247297E+03</pdfrwt>
<totfact> 0.10775107E+02</totfact>
</mgrwt>
</event>
<event>
 4    1  0.4840996E-002  0.4138836E+03  0.7818608E-02  0.1039076E+00
         21   -1    0    0  501  502  0.00000000000E+00  0.00000000000E+00  0.30123117464E+03  0.30123117464E+03  0.00000000000E+00 0. -1.
         21   -1    0    0  502  503 -0.00000000000E+00 -0.00000000000E+00 -0.80702521961E+03  0.80702521961E+03  0.00000000000E+00 0.  1.
    9000005    1    1    2  501    0 -0.19589033074E+02 -0.10447914356E+03  0.48253484101E+02  0.41668695730E+03  0.40000000000E+03 0. -1.
   -9000005    1    1    2    0  503  0.19589033074E+02  0.10447914356E+03 -0.55404752907E+03  0.69156943695E+03  0.40000000000E+03 0.  1.
<mgrwt>
<rscale>  2 0.41388358E+03</rscale>
<asrwt>0</asrwt>
<pdfrwt beam="1">  1       21 0.46343259E-01 0.41388358E+03</pdfrwt>
<pdfrwt beam="2">  1       21 0.12415772E+00 0.41388358E+03</pdfrwt>
<totfact> 0.18857498E+03</totfact>
</mgrwt>
</event>
<event>
 4    1  0.4840996E-002  0.4427473E+03  0.7818608E-02  0.1029907E+00
         21   -1    0    0  501  502  0.00000000000E+00  0.00000000000E+00  0.48228117019E+03  0.48228117019E+03  0.00000000000E+00 0. -1.
         21   -1    0    0  502  503 -0.00000000000E+00 -0.00000000000E+00 -0.16200747158E+04  0.16200747158E+04  0.00000000000E+00 0.  1.
    9000005    1    1    2  501    0 -0.14080410834E+03  0.12727666131E+03  0.34091215678E+03  0.55878998209E+03  0.40000000000E+03 0. -1.
   -9000005    1    1    2    0  503  0.14080410834E+03 -0.12727666131E+03 -0.14787057024E+04  0.15435659039E+04  0.40000000000E+03 0.  1.
<mgrwt>
<rscale>  2 0.44274727E+03</rscale>
<asrwt>0</asrwt>
<pdfrwt beam="1">  1       21 0.74197104E-01 0.44274727E+03</pdfrwt>
<pdfrwt beam="2">  1       21 0.24924226E+00 0.44274727E+03</pdfrwt>
<totfact> 0.86035092E+01</totfact>
</mgrwt>
</event>
<event>
 4    1  0.4840996E-002  0.4602079E+03  0.7818608E-02  0.1024721E+00
         21   -1    0    0  501  502  0.00000000000E+00  0.00000000000E+00  0.93358156858E+03  0.93358156858E+03  0.00000000000E+00 0. -1.
         21   -1    0    0  502  503 -0.00000000000E+00 -0.00000000000E+00 -0.17092049840E+04  0.17092049840E+04  0.00000000000E+00 0.  1.
    9000005    1    1    2  501    0  0.20799747666E+03 -0.92349206947E+02  0.84276819048E+03  0.96023411167E+03  0.40000000000E+03 0. -1.
   -9000005    1    1    2    0  503 -0.20799747666E+03  0.92349206947E+02 -0.16183916059E+04  0.16825524409E+04  0.40000000000E+03 0.  1.
<mgrwt>
<rscale>  2 0.46020792E+03</rscale>
<asrwt>0</asrwt>
<pdfrwt beam="1">  1       21 0.14362794E+00 0.46020792E+03</pdfrwt>
<pdfrwt beam="2">  1       21 0.26295461E+00 0.46020792E+03</pdfrwt>
<totfact> 0.13849157E+01</totfact>
</mgrwt>
</event>
<event>
 4    1  0.4840996E-002  0.4206419E+03  0.7818608E-02  0.1036858E+00
         21   -1    0    0  503  502  0.00000000000E+00  0.00000000000E+00  0.83594044802E+03  0.83594044802E+03  0.00000000000E+00 0.  1.
         21   -1    0    0  501  503 -0.00000000000E+00 -0.00000000000E+00 -0.38278954352E+03  0.38278954352E+03  0.00000000000E+00 0.  1.
    9000005    1    1    2  501    0 -0.10727116246E+03  0.73705456302E+02 -0.18085475448E+03  0.45787338730E+03  0.40000000000E+03 0. -1.
   -9000005    1    1    2    0  502  0.10727116246E+03 -0.73705456302E+02  0.63400565898E+03  0.76085660423E+03  0.40000000000E+03 0. -1.
<mgrwt>
<rscale>  2 0.42064189E+03</rscale>
<asrwt>0</asrwt>
<pdfrwt beam="1">  1       21 0.12860622E+00 0.42064189E+03</pdfrwt>
<pdfrwt beam="2">  1       21 0.58890699E-01 0.42064189E+03</pdfrwt>
<totfact> 0.10288037E+03</totfact>
</mgrwt>
</event>
<event>
 4    1  0.4840996E-002  0.4852251E+03  0.7818608E-02  0.1017709E+00
         21   -1    0    0  501  502  0.00000000000E+00  0.00000000000E+00  0.12426322590E+04  0.12426322590E+04  0.00000000000E+00 0.  1.
         21   -1    0    0  502  503 -0.00000000000E+00 -0.00000000000E+00 -0.23675712659E+03  0.23675712659E+03  0.00000000000E+00 0. -1.
    9000005    1    1    2  501    0 -0.13165535002E+03  0.24106079629E+03  0.83350905711E+03  0.96445880523E+03  0.40000000000E+03 0.  1.
   -9000005    1    1    2    0  503  0.13165535002E+03 -0.24106079629E+03  0.17236607534E+03  0.51493058039E+03  0.40000000000E+03 0. -1.
<mgrwt>
<rscale>  2 0.48522514E+03</rscale>
<asrwt>0</asrwt>
<pdfrwt beam="1">  1       21 0.19117419E+00 0.48522514E+03</pdfrwt>
<pdfrwt beam="2">  1       21 0.36424174E-01 0.48522514E+03</pdfrwt>
<totfact> 0.91604377E+02</totfact>
</mgrwt>
</event>
<event>
 4    1  0.4840996E-002  0.4350316E+03  0.7818608E-02  0.1032282E+00
         21   -1    0    0  503  502  0.00000000000E+00  0.00000000000E+00  0.10737980967E+04  0.10737980967E+04  0.00000000000E+00 0.  1.
         21   -1    0    0  501  503 -0.00000000000E+00 -0.00000000000E+00 -0.30076637629E+03  0.30076637629E+03  0.00000000000E+00 0.  1.
    9000005    1    1    2  501    0  0.14741931321E+03 -0.86718102808E+02 -0.55706716561E+02  0.43858376798E+03  0.40000000000E+03 0.  1.
   -9000005    1    1    2    0  502 -0.14741931321E+03  0.86718102808E+02  0.82873843701E+03  0.93598070506E+03  0.40000000000E+03 0.  1.
<mgrwt>
<rscale>  2 0.43503159E+03</rscale>
<asrwt>0</asrwt>
<pdfrwt beam="1">  1       21 0.16519971E+00 0.43503159E+03</pdfrwt>
<pdfrwt beam="2">  1       21 0.46271751E-01 0.43503159E+03</pdfrwt>
<totfact> 0.87292147E+02</totfact>
</mgrwt>
</event>
<event>
 4    1  0.4840996E-002  0.4903295E+03  0.7818608E-02  0.1016334E+00
         21   -1    0    0  501  502  0.00000000000E+00  0.00000000000E+00  0.43811816903E+03  0.43811816903E+03  0.00000000000E+00 0.  1.
         21   -1    0    0  502  503 -0.00000000000E+00 -0.00000000000E+00 -0.63666088316E+03  0.63666088316E+03  0.00000000000E+00 0. -1.
    9000005    1    1    2  501    0 -0.25213082433E+02  0.28246649947E+03  0.10040397859E+03  0.50050372803E+03  0.40000000000E+03 0.  1.
   -9000005    1    1    2    0  503  0.25213082433E+02 -0.28246649947E+03 -0.29894669271E+03  0.57427532416E+03  0.40000000000E+03 0. -1.
<mgrwt>
<rscale>  2 0.49032950E+03</rscale>
<asrwt>0</asrwt>
<pdfrwt beam="1">  1       21 0.67402796E-01 0.49032950E+03</pdfrwt>
<pdfrwt beam="2">  1       21 0.97947827E-01 0.49032950E+03</pdfrwt>
<totfact> 0.14659890E+03</totfact>
</mgrwt>
</event>
<event>
 4    1  0.4840996E-002  0.5485166E+03  0.7818608E-02  0.1001838E+00
         21   -1    0    0  503  502  0.00000000000E+00  0.00000000000E+00  0.54962547291E+03  0.54962547291E+03  0.00000000000E+00 0. -1.
         21   -1    0    0  501  503 -0.00000000000E+00 -0.00000000000E+00 -0.57100840890E+03  0.57100840890E+03  0.00000000000E+00 0.  1.
    9000005    1    1    2  501    0  0.35039446137E+03  0.13451441894E+03  0.10321675560E+03  0.55814344581E+03  0.40000000000E+03 0. -1.
   -9000005    1    1    2    0  502 -0.35039446137E+03 -0.13451441894E+03 -0.12459969159E+03  0.56249043601E+03  0.40000000000E+03 0.  1.
<mgrwt>
<rscale>  2 0.54851655E+03</rscale>
<asrwt>0</asrwt>
<pdfrwt beam="1">  1       21 0.84557765E-01 0.54851655E+03</pdfrwt>
<pdfrwt beam="2">  1       21 0.87847448E-01 0.54851655E+03</pdfrwt>
<totfact> 0.11088430E+03</totfact>
</mgrwt>
</event>
<event>
 4    1  0.4840996E-002  0.4495382E+03  0.7818608E-02  0.1027860E+00
         21   -1    0    0  501  502  0.00000000000E+00  0.00000000000E+00  0.70125025174E+02  0.70125025174E+02  0.00000000000E+00 0. -1.
         21   -1    0    0  502  503 -0.00000000000E+00 -0.00000000000E+00 -0.30603601251E+04  0.30603601251E+04  0.00000000000E+00 0. -1.
    9000005    1    1    2  501    0 -0.13735529914E+03 -0.15237477459E+03 -0.11170077557E+04  0.12040726209E+04  0.40000000000E+03 0. -1.
   -9000005    1    1    2    0  503  0.13735529914E+03  0.15237477459E+03 -0.18732273442E+04  0.19264125293E+04  0.40000000000E+03 0. -1.
<mgrwt>
<rscale>  2 0.44953815E+03</rscale>
<asrwt>0</asrwt>
<pdfrwt beam="1">  1       21 0.10788464E-01 0.44953815E+03</pdfrwt>
<pdfrwt beam="2">  1       21 0.47082470E+00 0.44953815E+03</pdfrwt>
<totfact> 0.16167601E+02</totfact>
</mgrwt>
</event>
<event>
 4    1  0.4840996E-002  0.4043566E+03  0.7818608E-02  0.1042282E+00
         21   -1    0    0  501  502  0.00000000000E+00  0.00000000000E+00  0.91872593743E+03  0.91872593743E+03  0.00000000000E+00 0.  1.
         21   -1    0    0  502  503 -0.00000000000E+00 -0.00000000000E+00 -0.38927345135E+03  0.38927345135E+03  0.00000000000E+00 0.  1.
    9000005    1    1    2  501    0 -0.24714839556E+02 -0.53790385031E+02  0.74656867628E+03  0.84904005631E+03  0.40000000000E+03 0.  1.
   -9000005    1    1    2    0  503  0.24714839556E+02  0.53790385031E+02 -0.21711619020E+03  0.45895933247E+03  0.40000000000E+03 0.  1.
<mgrwt>
<rscale>  2 0.40435656E+03</rscale>
<asrwt>0</asrwt>
<pdfrwt beam="1">  1       21 0.14134245E+00 0.40435656E+03</pdfrwt>
<pdfrwt beam="2">  1       21 0.59888223E-01 0.40435656E+03</pdfrwt>
<totfact> 0.78053613E+02</totfact>
</mgrwt>
</event>
<event>
 4    1  0.4840996E-002  0.5318505E+03  0.7818608E-02  0.1005784E+00
         21   -1    0    0  503  502  0.00000000000E+00  0.00000000000E+00  0.71825506909E+03  0.71825506909E+03  0.00000000000E+00 0. -1.
         21   -1    0    0  501  503 -0.00000000000E+00 -0.00000000000E+00 -0.54810445306E+03  0.54810445306E+03  0.00000000000E+00 0. -1.
    9000005    1    1    2  501    0  0.25948074056E+03  0.23565792491E+03 -0.25085803272E+03  0.58804308080E+03  0.40000000000E+03 0. -1.
   -9000005    1    1    2    0  502 -0.25948074056E+03 -0.23565792491E+03  0.42100864875E+03  0.67831644136E+03  0.40000000000E+03 0. -1.
<mgrwt>
<rscale>  2 0.53185046E+03</rscale>
<asrwt>0</asrwt>
<pdfrwt beam="1">  1       21 0.11050078E+00 0.53185046E+03</pdfrwt>
<pdfrwt beam="2">  1       21 0.84323762E-01 0.53185046E+03</pdfrwt>
<totfact> 0.64243975E+02</totfact>
</mgrwt>
</event>
<event>
 4    1  0.4840996E-002  0.4988702E+03  0.7818608E-02  0.1014074E+00
         21   -1    0    0  503  502  0.00000000000E+00  0.00000000000E+00  0.13929106122E+03  0.13929106122E+03  0.00000000000E+00 0.  1.
         21   -1    0    0  501  503 -0.00000000000E+00 -0.00000000000E+00 -0.23056607850E+04  0.23056607850E+04  0.00000000000E+00 0.  1.
    9000005    1    1    2  501    0 -0.20855883439E+03  0.21301339945E+03 -0.16631600416E+04  0.17363677087E+04  0.40000000000E+03 0.  1.
   -9000005    1    1    2    0  502  0.20855883439E+03 -0.21301339945E+03 -0.50320968220E+03  0.70858413756E+03  0.40000000000E+03 0.  1.
<mgrwt>
<rscale>  2 0.49887022E+03</rscale>
<asrwt>0</asrwt>
<pdfrwt beam="1">  1       21 0.21429395E-01 0.49887022E+03</pdfrwt>
<pdfrwt beam="2">  1       21 0.35471703E+00 0.49887022E+03</pdfrwt>
<totfact> 0.24997583E+02</totfact>
</mgrwt>
</event>
<event>
 4    1  0.4840996E-002  0.4559701E+03  0.7818608E-02  0.1025957E+00
         21   -1    0    0  501  502  0.00000000000E+00  0.00000000000E+00  0.22536928736E+03  0.22536928736E+03  0.00000000000E+00 0. -1.
         21   -1    0    0  502  503 -0.00000000000E+00 -0.00000000000E+00 -0.10596309790E+04  0.10596309790E+04  0.00000000000E+00 0. -1.
    9000005    1    1    2  501    0  0.12921338303E+03 -0.17667099903E+03 -0.18601776421E+03  0.49245441297E+03  0.40000000000E+03 0. -1.
   -9000005    1    1    2    0  503 -0.12921338303E+03  0.17667099903E+03 -0.64824392739E+03  0.79254585334E+03  0.40000000000E+03 0. -1.
<mgrwt>
<rscale>  2 0.45597011E+03</rscale>
<asrwt>0</asrwt>
<pdfrwt beam="1">  1       21 0.34672197E-01 0.45597011E+03</pdfrwt>
<pdfrwt beam="2">  1       21 0.16302015E+00 0.45597011E+03</pdfrwt>
<totfact> 0.16274530E+03</totfact>
</mgrwt>
</event>
<event>
 4    1  0.4840996E-002  0.4017412E+03  0.7818608E-02  0.1043178E+00
         21   -1    0    0  503  502  0.00000000000E+00  0.00000000000E+00  0.28907533627E+03  0.28907533627E+03  0.00000000000E+00 0. -1.
         21   -1    0    0  501  503 -0.00000000000E+00 -0.00000000000E+00 -0.56998572835E+03  0.56998572835E+03  0.00000000000E+00 0. -1.
    9000005    1    1    2  501    0  0.35808055056E+02 -0.10666956983E+02 -0.20190957159E+03  0.44962592883E+03  0.40000000000E+03 0.  1.
   -9000005    1    1    2    0  502 -0.35808055056E+02  0.10666956983E+02 -0.79000820488E+02  0.40943513579E+03  0.40000000000E+03 0.  1.
<mgrwt>
<rscale>  2 0.40174121E+03</rscale>
<asrwt>0</asrwt>
<pdfrwt beam="1">  1       21 0.44473129E-01 0.40174121E+03</pdfrwt>
<pdfrwt beam="2">  1       21 0.87690111E-01 0.40174121E+03</pdfrwt>
<totfact> 0.48383172E+03</totfact>
</mgrwt>
</event>
<event>
 4    1  0.4840996E-002  0.4347633E+03  0.7818608E-02  0.1032366E+00
         21   -1    0    0  501  502  0.00000000000E+00  0.00000000000E+00  0.23555684196E+04  0.23555684196E+04  0.00000000000E+00 0.  1.
         21   -1    0    0  502  503 -0.00000000000E+00 -0.00000000000E+00 -0.82461866370E+02  0.82461866370E+02  0.00000000000E+00 0.  1.
    9000005    1    1    2  501    0 -0.67059869673E+02 -0.15659545219E+03  0.13364909797E+04  0.14054277998E+04  0.40000000000E+03 0.  1.
   -9000005    1    1    2    0  503  0.67059869673E+02  0.15659545219E+03  0.93661557356E+03  0.10326024861E+04  0.40000000000E+03 0.  1.
<mgrwt>
<rscale>  2 0.43476334E+03</rscale>
<asrwt>0</asrwt>
<pdfrwt beam="1">  1       21 0.36239509E+00 0.43476334E+03</pdfrwt>
<pdfrwt beam="2">  1       21 0.12686443E-01 0.43476334E+03</pdfrwt>
<totfact> 0.62153057E+02</totfact>
</mgrwt>
</event>
<event>
 4    1  0.4840996E-002  0.4619869E+03  0.7818608E-02  0.1024207E+00
         21   -1    0    0  503  502  0.00000000000E+00  0.00000000000E+00  0.24960414320E+03  0.24960414320E+03  0.00000000000E+00 0.  1.
         21   -1    0    0  501  503 -0.00000000000E+00 -0.00000000000E+00 -0.88105924904E+03  0.88105924904E+03  0.00000000000E+00 0. -1.
    9000005    1    1    2  501    0  0.22434414296E+03 -0.55691724358E+02 -0.41280141115E+03  0.61954569459E+03  0.40000000000E+03 0.  1.
   -9000005    1    1    2    0  502 -0.22434414296E+03  0.55691724358E+02 -0.21865369468E+03  0.51111769764E+03  0.40000000000E+03 0. -1.
<mgrwt>
<rscale>  2 0.46198686E+03</rscale>
<asrwt>0</asrwt>
<pdfrwt beam="1">  1       21 0.38400637E-01 0.46198686E+03</pdfrwt>
<pdfrwt beam="2">  1       21 0.13554758E+00 0.46198686E+03</pdfrwt>
<totfact> 0.21767229E+03</totfact>
</mgrwt>
</event>
<event>
 4    1  0.4840996E-002  0.4444686E+03  0.7818608E-02  0.1029385E+00
         21   -1    0    0  501  502  0.00000000000E+00  0.00000000000E+00  0.31616282306E+03  0.31616282306E+03  0.00000000000E+00 0. -1.
         21   -1    0    0  502  503 -0.00000000000E+00 -0.00000000000E+00 -0.69555369485E+03  0.69555369485E+03  0.00000000000E+00 0. -1.
    9000005    1    1    2  501    0  0.29108279350E+02  0.19158549560E+03 -0.28406549884E+02  0.44537537665E+03  0.40000000000E+03 0. -1.
   -9000005    1    1    2    0  503 -0.29108279350E+02 -0.19158549560E+03 -0.35098432191E+03  0.56634114125E+03  0.40000000000E+03 0. -1.
<mgrwt>
<rscale>  2 0.44446855E+03</rscale>
<asrwt>0</asrwt>
<pdfrwt beam="1">  1       21 0.48640435E-01 0.44446855E+03</pdfrwt>
<pdfrwt beam="2">  1       21 0.10700826E+00 0.44446855E+03</pdfrwt>
<totfact> 0.24424705E+03</totfact>
</mgrwt>
</event>
<event>
 4    1  0.4840996E-002  0.4590162E+03  0.7818608E-02  0.1025067E+00
         21   -1    0    0  501  502  0.00000000000E+00  0.00000000000E+00  0.34788078029E+03  0.34788078029E+03  0.00000000000E+00 0. -1.
         21   -1    0    0  502  503 -0.00000000000E+00 -0.00000000000E+00 -0.67425930771E+03  0.67425930771E+03  0.00000000000E+00 0. -1.
    9000005    1    1    2  501    0 -0.52251234217E+02 -0.21901058247E+03 -0.16892162597E+00  0.45901618190E+03  0.40000000000E+03 0.  1.
   -9000005    1    1    2    0  503  0.52251234217E+02  0.21901058247E+03 -0.32620960580E+03  0.56312390610E+03  0.40000000000E+03 0.  1.
<mgrwt>
<rscale>  2 0.45901615E+03</rscale>
<asrwt>0</asrwt>
<pdfrwt beam="1">  1       21 0.53520121E-01 0.45901615E+03</pdfrwt>
<pdfrwt beam="2">  1       21 0.10373220E+00 0.45901615E+03</pdfrwt>
<totfact> 0.21386413E+03</totfact>
</mgrwt>
</event>
<event>
 4    1  0.4840996E-002  0.4293476E+03  0.7818608E-02  0.1034066E+00
         21   -1    0    0  503  502  0.00000000000E+00  0.00000000000E+00  0.73609372899E+03  0.73609372899E+03  0.00000000000E+00 0. -1.
         21   -1    0    0  501  503 -0.00000000000E+00 -0.00000000000E+00 -0.10248385641E+04  0.10248385641E+04  0.00000000000E+00 0.  1.
    9000005    1    1    2  501    0 -0.43933140784E+02  0.14969721063E+03 -0.90974028617E+03  0.10059655879E+04  0.40000000000E+03 0.  1.
   -9000005    1    1    2    0  502  0.43933140784E+02 -0.14969721063E+03  0.62099545106E+03  0.75496670520E+03  0.40000000000E+03 0. -1.
<mgrwt>
<rscale>  2 0.42934762E+03</rscale>
<asrwt>0</asrwt>
<pdfrwt beam="1">  1       21 0.11324519E+00 0.42934762E+03</pdfrwt>
<pdfrwt beam="2">  1       21 0.15766747E+00 0.42934762E+03</pdfrwt>
<totfact> 0.13004354E+02</totfact>
</mgrwt>
</event>
<event>
 4    1  0.4840996E-002  0.4186632E+03  0.7818608E-02  0.1037502E+00
         21   -1    0    0  503  502  0.00000000000E+00  0.00000000000E+00  0.21264702690E+04  0.21264702690E+04  0.00000000000E+00 0. -1.
         21   -1    0    0  501  503 -0.00000000000E+00 -0.00000000000E+00 -0.13549306458E+03  0.13549306458E+03  0.00000000000E+00 0. -1.
    9000005    1    1    2  501    0  0.11254656611E+03 -0.51109432688E+02  0.28769795287E+03  0.50798525150E+03  0.40000000000E+03 0. -1.
   -9000005    1    1    2    0  502 -0.11254656611E+03  0.51109432688E+02  0.17032792515E+04  0.17539780821E+04  0.40000000000E+03 0. -1.
<mgrwt>
<rscale>  2 0.41866323E+03</rscale>
<asrwt>0</asrwt>
<pdfrwt beam="1">  1       21 0.32714925E+00 0.41866323E+03</pdfrwt>
<pdfrwt beam="2">  1       21 0.20845088E-01 0.41866323E+03</pdfrwt>
<totfact> 0.40778678E+02</totfact>
</mgrwt>
</event>
<event>
 4    1  0.4840996E-002  0.4514037E+03  0.7818608E-02  0.1027304E+00
         21   -1    0    0  503  502  0.00000000000E+00  0.00000000000E+00  0.84796984289E+03  0.84796984289E+03  0.00000000000E+00 0.  1.
         21   -1    0    0  501  503 -0.00000000000E+00 -0.00000000000E+00 -0.55630140446E+03  0.55630140446E+03  0.00000000000E+00 0.  1.
    9000005    1    1    2  501    0  0.57690606693E+02  0.20108972422E+03 -0.38335617413E+03  0.59222228895E+03  0.40000000000E+03 0.  1.
   -9000005    1    1    2    0  502 -0.57690606693E+02 -0.20108972422E+03  0.67502461255E+03  0.81204895840E+03  0.40000000000E+03 0.  1.
<mgrwt>
<rscale>  2 0.45140368E+03</rscale>
<asrwt>0</asrwt>
<pdfrwt beam="1">  1       21 0.13045690E+00 0.45140368E+03</pdfrwt>
<pdfrwt beam="2">  1       21 0.85584832E-01 0.45140368E+03</pdfrwt>
<totfact> 0.42030580E+02</totfact>
</mgrwt>
</event>
<event>
 4    1  0.4840996E-002  0.5476722E+03  0.7818608E-02  0.1002034E+00
         21   -1    0    0  503  502  0.00000000000E+00  0.00000000000E+00  0.19871782828E+04  0.19871782828E+04  0.00000000000E+00 0.  1.
         21   -1    0    0  501  503 -0.00000000000E+00 -0.00000000000E+00 -0.42306974020E+03  0.42306974020E+03  0.00000000000E+00 0.  1.
    9000005    1    1    2  501    0  0.37406841557E+03 -0.41973007574E+01 -0.18447212285E+03  0.57790549485E+03  0.40000000000E+03 0.  1.
   -9000005    1    1    2    0  502 -0.37406841557E+03  0.41973007574E+01  0.17485806654E+04  0.18323425281E+04  0.40000000000E+03 0.  1.
<mgrwt>
<rscale>  2 0.54767216E+03</rscale>
<asrwt>0</asrwt>
<pdfrwt beam="1">  1       21 0.30571973E+00 0.54767216E+03</pdfrwt>
<pdfrwt beam="2">  1       21 0.65087653E-01 0.54767216E+03</pdfrwt>
<totfact> 0.49329877E+01</totfact>
</mgrwt>
</event>
<event>
 4    1  0.4840996E-002  0.6332781E+03  0.7818608E-02  0.9838673E-01
         21   -1    0    0  503  502  0.00000000000E+00  0.00000000000E+00  0.11287067932E+04  0.11287067932E+04  0.00000000000E+00 0.  1.
         21   -1    0    0  501  503 -0.00000000000E+00 -0.00000000000E+00 -0.36294681670E+03  0.36294681670E+03  0.00000000000E+00 0. -1.
    9000005    1    1    2  501    0  0.65734814678E+02 -0.48653893579E+03  0.27469604181E+03  0.69028915484E+03  0.40000000000E+03 0. -1.
   -9000005    1    1    2    0  502 -0.65734814678E+02  0.48653893579E+03  0.49106393471E+03  0.80136445509E+03  0.40000000000E+03 0.  1.
<mgrwt>
<rscale>  2 0.63327814E+03</rscale>
<asrwt>0</asrwt>
<pdfrwt beam="1">  1       21 0.17364720E+00 0.63327814E+03</pdfrwt>
<pdfrwt beam="2">  1       21 0.55837972E-01 0.63327814E+03</pdfrwt>
<totfact> 0.46884499E+02</totfact>
</mgrwt>
</event>
<event>
 4    1  0.4840996E-002  0.4312592E+03  0.7818608E-02  0.1033463E+00
         21   -1    0    0  503  502  0.00000000000E+00  0.00000000000E+00  0.53575233525E+03  0.53575233525E+03  0.00000000000E+00 0.  1.
         21   -1    0    0  501  503 -0.00000000000E+00 -0.00000000000E+00 -0.38843634719E+03  0.38843634719E+03  0.00000000000E+00 0.  1.
    9000005    1    1    2  501    0  0.46677588308E+02  0.15429092124E+03 -0.77000273839E+02  0.43807936244E+03  0.40000000000E+03 0.  1.
   -9000005    1    1    2    0  502 -0.46677588308E+02 -0.15429092124E+03  0.22431626190E+03  0.48610931999E+03  0.40000000000E+03 0.  1.
<mgrwt>
<rscale>  2 0.43125919E+03</rscale>
<asrwt>0</asrwt>
<pdfrwt beam="1">  1       21 0.82423437E-01 0.43125919E+03</pdfrwt>
<pdfrwt beam="2">  1       21 0.59759438E-01 0.43125919E+03</pdfrwt>
<totfact> 0.29434384E+03</totfact>
</mgrwt>
</event>
<event>
 4    1  0.4840996E-002  0.5864370E+03  0.7818608E-02  0.9933951E-01
         21   -1    0    0  501  502  0.00000000000E+00  0.00000000000E+00  0.42763089982E+03  0.42763089982E+03  0.00000000000E+00 0.  1.
         21   -1    0    0  502  503 -0.00000000000E+00 -0.00000000000E+00 -0.13670844297E+04  0.13670844297E+04  0.00000000000E+00 0.  1.
    9000005    1    1    2  501    0  0.39573193737E+03  0.16524102308E+03  0.10607193057E+03  0.59595269646E+03  0.40000000000E+03 0.  1.
   -9000005    1    1    2    0  503 -0.39573193737E+03 -0.16524102308E+03 -0.10455254604E+04  0.11987626330E+04  0.40000000000E+03 0.  1.
<mgrwt>
<rscale>  2 0.58643701E+03</rscale>
<asrwt>0</asrwt>
<pdfrwt beam="1">  1       21 0.65789371E-01 0.58643701E+03</pdfrwt>
<pdfrwt beam="2">  1       21 0.21032068E+00 0.58643701E+03</pdfrwt>
<totfact> 0.18526841E+02</totfact>
</mgrwt>
</event>
<event>
 4    1  0.4840996E-002  0.4689042E+03  0.7818608E-02  0.1022230E+00
         21   -1    0    0  503  502  0.00000000000E+00  0.00000000000E+00  0.25456453007E+03  0.25456453007E+03  0.00000000000E+00 0.  1.
         21   -1    0    0  501  503 -0.00000000000E+00 -0.00000000000E+00 -0.14701476264E+04  0.14701476264E+04  0.00000000000E+00 0.  1.
    9000005    1    1    2  501    0 -0.14412768484E+03 -0.19773295650E+03 -0.11616484387E+04  0.12527163313E+04  0.40000000000E+03 0.  1.
   -9000005    1    1    2    0  502  0.14412768484E+03  0.19773295650E+03 -0.53934657579E+02  0.47199582510E+03  0.40000000000E+03 0.  1.
<mgrwt>
<rscale>  2 0.46890416E+03</rscale>
<asrwt>0</asrwt>
<pdfrwt beam="1">  1       21 0.39163772E-01 0.46890416E+03</pdfrwt>
<pdfrwt beam="2">  1       21 0.22617657E+00 0.46890416E+03</pdfrwt>
<totfact> 0.46866773E+02</totfact>
</mgrwt>
</event>
<event>
 4    1  0.4840996E-002  0.4031257E+03  0.7818608E-02  0.1042703E+00
         21   -1    0    0  503  502  0.00000000000E+00  0.00000000000E+00  0.21444748622E+03  0.21444748622E+03  0.00000000000E+00 0.  1.
         21   -1    0    0  501  503 -0.00000000000E+00 -0.00000000000E+00 -0.99236126173E+03  0.99236126173E+03  0.00000000000E+00 0.  1.
    9000005    1    1    2  501    0 -0.11194316806E+02  0.48836911334E+02 -0.68231144575E+03  0.79250190261E+03  0.40000000000E+03 0.  1.
   -9000005    1    1    2    0  502  0.11194316806E+02 -0.48836911334E+02 -0.95602329750E+02  0.41430684533E+03  0.40000000000E+03 0.  1.
<mgrwt>
<rscale>  2 0.40312573E+03</rscale>
<asrwt>0</asrwt>
<pdfrwt beam="1">  1       21 0.32991921E-01 0.40312573E+03</pdfrwt>
<pdfrwt beam="2">  1       21 0.15267096E+00 0.40312573E+03</pdfrwt>
<totfact> 0.22050665E+03</totfact>
</mgrwt>
</event>
<event>
 4    1  0.4840996E-002  0.4129599E+03  0.7818608E-02  0.1039382E+00
         21   -1    0    0  501  502  0.00000000000E+00  0.00000000000E+00  0.19661428454E+03  0.19661428454E+03  0.00000000000E+00 0. -1.
         21   -1    0    0  502  503 -0.00000000000E+00 -0.00000000000E+00 -0.10330981525E+04  0.10330981525E+04  0.00000000000E+00 0. -1.
    9000005    1    1    2  501    0 -0.21012595156E+02 -0.10047065992E+03 -0.66451140637E+03  0.78237541619E+03  0.40000000000E+03 0. -1.
   -9000005    1    1    2    0  503  0.21012595156E+02  0.10047065992E+03 -0.17197246156E+03  0.44733702082E+03  0.40000000000E+03 0. -1.
<mgrwt>
<rscale>  2 0.41295990E+03</rscale>
<asrwt>0</asrwt>
<pdfrwt beam="1">  1       21 0.30248352E-01 0.41295990E+03</pdfrwt>
<pdfrwt beam="2">  1       21 0.15893818E+00 0.41295990E+03</pdfrwt>
<totfact> 0.23376178E+03</totfact>
</mgrwt>
</event>
<event>
 4    1  0.4840996E-002  0.4045899E+03  0.7818608E-02  0.1042202E+00
         21   -1    0    0  503  502  0.00000000000E+00  0.00000000000E+00  0.50288871848E+03  0.50288871848E+03  0.00000000000E+00 0.  1.
         21   -1    0    0  501  503 -0.00000000000E+00 -0.00000000000E+00 -0.32585450119E+03  0.32585450119E+03  0.00000000000E+00 0.  1.
    9000005    1    1    2  501    0 -0.26500622829E+02 -0.54687611885E+02  0.10207910310E+03  0.41726869184E+03  0.40000000000E+03 0.  1.
   -9000005    1    1    2    0  502  0.26500622829E+02  0.54687611885E+02  0.74955114199E+02  0.41147452782E+03  0.40000000000E+03 0.  1.
<mgrwt>
<rscale>  2 0.40458994E+03</rscale>
<asrwt>0</asrwt>
<pdfrwt beam="1">  1       21 0.77367495E-01 0.40458994E+03</pdfrwt>
<pdfrwt beam="2">  1       21 0.50131462E-01 0.40458994E+03</pdfrwt>
<totfact> 0.50219386E+03</totfact>
</mgrwt>
</event>
<event>
 4    1  0.4840996E-002  0.4387223E+03  0.7818608E-02  0.1031140E+00
         21   -1    0    0  501  502  0.00000000000E+00  0.00000000000E+00  0.38551103465E+03  0.38551103465E+03  0.00000000000E+00 0.  1.
         21   -1    0    0  502  503 -0.00000000000E+00 -0.00000000000E+00 -0.52844033119E+03  0.52844033119E+03  0.00000000000E+00 0.  1.
    9000005    1    1    2  501    0 -0.12643282671E+03  0.12842112215E+03 -0.17881536739E+03  0.47376384402E+03  0.40000000000E+03 0.  1.
   -9000005    1    1    2    0  503  0.12643282671E+03 -0.12842112215E+03  0.35886070854E+02  0.44018752182E+03  0.40000000000E+03 0.  1.
<mgrwt>
<rscale>  2 0.43872229E+03</rscale>
<asrwt>0</asrwt>
<pdfrwt beam="1">  1       21 0.59309389E-01 0.43872229E+03</pdfrwt>
<pdfrwt beam="2">  1       21 0.81298513E-01 0.43872229E+03</pdfrwt>
<totfact> 0.30809934E+03</totfact>
</mgrwt>
</event>
<event>
 4    1  0.4840996E-002  0.4023395E+03  0.7818608E-02  0.1042973E+00
         21   -1    0    0  503  502  0.00000000000E+00  0.00000000000E+00  0.22111080450E+03  0.22111080450E+03  0.00000000000E+00 0.  1.
         21   -1    0    0  501  503 -0.00000000000E+00 -0.00000000000E+00 -0.97257678268E+03  0.97257678268E+03  0.00000000000E+00 0.  1.
    9000005    1    1    2  501    0 -0.26182263437E+02  0.34518555749E+02 -0.67250836938E+03  0.78367375131E+03  0.40000000000E+03 0.  1.
   -9000005    1    1    2    0  502  0.26182263437E+02 -0.34518555749E+02 -0.78957608798E+02  0.41001383586E+03  0.40000000000E+03 0.  1.
<mgrwt>
<rscale>  2 0.40233946E+03</rscale>
<asrwt>0</asrwt>
<pdfrwt beam="1">  1       21 0.34017047E-01 0.40233946E+03</pdfrwt>
<pdfrwt beam="2">  1       21 0.14962720E+00 0.40233946E+03</pdfrwt>
<totfact> 0.21907673E+03</totfact>
</mgrwt>
</event>
<event>
 4    1  0.4840996E-002  0.7389098E+03  0.7818608E-02  0.9652912E-01
         21   -1    0    0  501  502  0.00000000000E+00  0.00000000000E+00  0.96915114498E+03  0.96915114498E+03  0.00000000000E+00 0.  1.
         21   -1    0    0  502  503 -0.00000000000E+00 -0.00000000000E+00 -0.59759078828E+03  0.59759078828E+03  0.00000000000E+00 0. -1.
    9000005    1    1    2  501    0  0.47678814589E+03 -0.39832238411E+03 -0.16891916471E+01  0.73891170725E+03  0.40000000000E+03 0. -1.
   -9000005    1    1    2    0  503 -0.47678814589E+03  0.39832238411E+03  0.37324954835E+03  0.82783022601E+03  0.40000000000E+03 0.  1.
<mgrwt>
<rscale>  2 0.73890978E+03</rscale>
<asrwt>0</asrwt>
<pdfrwt beam="1">  1       21 0.14910018E+00 0.73890978E+03</pdfrwt>
<pdfrwt beam="2">  1       21 0.91937044E-01 0.73890978E+03</pdfrwt>
<totfact> 0.22325994E+02</totfact>
</mgrwt>
</event>
<event>
 4    1  0.4840996E-002  0.4396347E+03  0.7818608E-02  0.1030859E+00
         21   -1    0    0  501  502  0.00000000000E+00  0.00000000000E+00  0.27017862900E+03  0.27017862900E+03  0.00000000000E+00 0.  1.
         21   -1    0    0  502  503 -0.00000000000E+00 -0.00000000000E+00 -0.10880092351E+04  0.10880092351E+04  0.00000000000E+00 0.  1.
    9000005    1    1    2  501    0  0.14644397513E+02  0.18183560569E+03 -0.11489758247E+02  0.43978478875E+03  0.40000000000E+03 0.  1.
   -9000005    1    1    2    0  503 -0.14644397513E+02 -0.18183560569E+03 -0.80634084787E+03  0.91840307535E+03  0.40000000000E+03 0.  1.
<mgrwt>
<rscale>  2 0.43963467E+03</rscale>
<asrwt>0</asrwt>
<pdfrwt beam="1">  1       21 0.41565943E-01 0.43963467E+03</pdfrwt>
<pdfrwt beam="2">  1       21 0.16738604E+00 0.43963467E+03</pdfrwt>
<totfact> 0.10498404E+03</totfact>
</mgrwt>
</event>
<event>
 4    1  0.4840996E-002  0.5265882E+03  0.7818608E-02  0.1007063E+00
         21   -1    0    0  501  502  0.00000000000E+00  0.00000000000E+00  0.81811734506E+03  0.81811734506E+03  0.00000000000E+00 0.  1.
         21   -1    0    0  502  503 -0.00000000000E+00 -0.00000000000E+00 -0.33896246534E+03  0.33896246534E+03  0.00000000000E+00 0. -1.
    9000005    1    1    2  501    0 -0.32668414852E+03  0.10282321027E+03  0.23519300758E+03  0.57672428099E+03  0.40000000000E+03 0. -1.
   -9000005    1    1    2    0  503  0.32668414852E+03 -0.10282321027E+03  0.24396187214E+03  0.58035552942E+03  0.40000000000E+03 0. -1.
<mgrwt>
<rscale>  2 0.52658821E+03</rscale>
<asrwt>0</asrwt>
<pdfrwt beam="1">  1       21 0.12586421E+00 0.52658821E+03</pdfrwt>
<pdfrwt beam="2">  1       21 0.52148072E-01 0.52658821E+03</pdfrwt>
<totfact> 0.13577782E+03</totfact>
</mgrwt>
</event>
<event>
 4    1  0.4840996E-002  0.4346378E+03  0.7818608E-02  0.1032405E+00
         21   -1    0    0  501  502  0.00000000000E+00  0.00000000000E+00  0.33029560423E+03  0.33029560423E+03  0.00000000000E+00 0.  1.
         21   -1    0    0  502  503 -0.00000000000E+00 -0.00000000000E+00 -0.62071847873E+03  0.62071847873E+03  0.00000000000E+00 0.  1.
    9000005    1    1    2  501    0  0.28570339124E+02 -0.16761190585E+03 -0.27850637856E+03  0.51621295815E+03  0.40000000000E+03 0. -1.
   -9000005    1    1    2    0  503 -0.28570339124E+02  0.16761190585E+03 -0.11916495935E+02  0.43480112481E+03  0.40000000000E+03 0. -1.
<mgrwt>
<rscale>  2 0.43463780E+03</rscale>
<asrwt>0</asrwt>
<pdfrwt beam="1">  1       21 0.50814709E-01 0.43463780E+03</pdfrwt>
<pdfrwt beam="2">  1       21 0.95495149E-01 0.43463780E+03</pdfrwt>
<totfact> 0.29476179E+03</totfact>
</mgrwt>
</event>
<event>
 4    1  0.4840996E-002  0.4152871E+03  0.7818608E-02  0.1038611E+00
         21   -1    0    0  503  502  0.00000000000E+00  0.00000000000E+00  0.11359235684E+04  0.11359235684E+04  0.00000000000E+00 0. -1.
         21   -1    0    0  501  503 -0.00000000000E+00 -0.00000000000E+00 -0.89023443999E+03  0.89023443999E+03  0.00000000000E+00 0.  1.
    9000005    1    1    2  501    0 -0.11001103759E+03  0.18997657037E+02 -0.79981032558E+03  0.90119914351E+03  0.40000000000E+03 0.  1.
   -9000005    1    1    2    0  502  0.11001103759E+03 -0.18997657037E+02  0.10454994540E+04  0.11249588649E+04  0.40000000000E+03 0. -1.
<mgrwt>
<rscale>  2 0.41528706E+03</rscale>
<asrwt>0</asrwt>
<pdfrwt beam="1">  1       21 0.17475747E+00 0.41528706E+03</pdfrwt>
<pdfrwt beam="2">  1       21 0.13695914E+00 0.41528706E+03</pdfrwt>
<totfact> 0.60325221E+01</totfact>
</mgrwt>
</event>
<event>
 4    1  0.4840996E-002  0.4819073E+03  0.7818608E-02  0.1018612E+00
         21   -1    0    0  501  502  0.00000000000E+00  0.00000000000E+00  0.92064630275E+03  0.92064630275E+03  0.00000000000E+00 0.  1.
         21   -1    0    0  502  503 -0.00000000000E+00 -0.00000000000E+00 -0.29400077934E+03  0.29400077934E+03  0.00000000000E+00 0.  1.
    9000005    1    1    2  501    0 -0.18146636113E+03 -0.19825390935E+03  0.54218229049E+03  0.72539388536E+03  0.40000000000E+03 0.  1.
   -9000005    1    1    2    0  503  0.18146636113E+03  0.19825390935E+03  0.84463232923E+02  0.48925319673E+03  0.40000000000E+03 0.  1.
<mgrwt>
<rscale>  2 0.48190731E+03</rscale>
<asrwt>0</asrwt>
<pdfrwt beam="1">  1       21 0.14163789E+00 0.48190731E+03</pdfrwt>
<pdfrwt beam="2">  1       21 0.45230889E-01 0.48190731E+03</pdfrwt>
<totfact> 0.13688227E+03</totfact>
</mgrwt>
</event>
<event>
 4    1  0.4840996E-002  0.6447684E+03  0.7818608E-02  0.9816646E-01
         21   -1    0    0  503  502  0.00000000000E+00  0.00000000000E+00  0.89567093885E+03  0.89567093885E+03  0.00000000000E+00 0. -1.
         21   -1    0    0  501  503 -0.00000000000E+00 -0.00000000000E+00 -0.55646069601E+03  0.55646069601E+03  0.00000000000E+00 0. -1.
    9000005    1    1    2  501    0 -0.55830355273E+02 -0.50260244727E+03 -0.12611660105E+03  0.65698679258E+03  0.40000000000E+03 0. -1.
   -9000005    1    1    2    0  502  0.55830355273E+02  0.50260244727E+03  0.46532684388E+03  0.79514484228E+03  0.40000000000E+03 0. -1.
<mgrwt>
<rscale>  2 0.64476837E+03</rscale>
<asrwt>0</asrwt>
<pdfrwt beam="1">  1       21 0.13779553E+00 0.64476837E+03</pdfrwt>
<pdfrwt beam="2">  1       21 0.85609338E-01 0.64476837E+03</pdfrwt>
<totfact> 0.33757107E+02</totfact>
</mgrwt>
</event>
<event>
 4    1  0.4840996E-002  0.4842570E+03  0.7818608E-02  0.1017972E+00
         21   -1    0    0  503  502  0.00000000000E+00  0.00000000000E+00  0.28703734245E+03  0.28703734245E+03  0.00000000000E+00 0.  1.
         21   -1    0    0  501  503 -0.00000000000E+00 -0.00000000000E+00 -0.13679709812E+04  0.13679709812E+04  0.00000000000E+00 0. -1.
    9000005    1    1    2  501    0  0.86606036600E+02  0.25885184482E+03 -0.10656399018E+04  0.11705098391E+04  0.40000000000E+03 0. -1.
   -9000005    1    1    2    0  502 -0.86606036600E+02 -0.25885184482E+03 -0.15293736951E+02  0.48449848455E+03  0.40000000000E+03 0.  1.
<mgrwt>
<rscale>  2 0.48425704E+03</rscale>
<asrwt>0</asrwt>
<pdfrwt beam="1">  1       21 0.44159592E-01 0.48425704E+03</pdfrwt>
<pdfrwt beam="2">  1       21 0.21045707E+00 0.48425704E+03</pdfrwt>
<totfact> 0.45774361E+02</totfact>
</mgrwt>
</event>
<event>
 4    1  0.4840996E-002  0.4452384E+03  0.7818608E-02  0.1029152E+00
         21   -1    0    0  503  502  0.00000000000E+00  0.00000000000E+00  0.38947148985E+03  0.38947148985E+03  0.00000000000E+00 0. -1.
         21   -1    0    0  501  503 -0.00000000000E+00 -0.00000000000E+00 -0.75718385881E+03  0.75718385881E+03  0.00000000000E+00 0.  1.
    9000005    1    1    2  501    0  0.19310843264E+03 -0.30763092864E+02 -0.51210066396E+03  0.67858995326E+03  0.40000000000E+03 0.  1.
   -9000005    1    1    2    0  502 -0.19310843264E+03  0.30763092864E+02  0.14438829501E+03  0.46806539540E+03  0.40000000000E+03 0. -1.
<mgrwt>
<rscale>  2 0.44523840E+03</rscale>
<asrwt>0</asrwt>
<pdfrwt beam="1">  1       21 0.59918692E-01 0.44523840E+03</pdfrwt>
<pdfrwt beam="2">  1       21 0.11648982E+00 0.44523840E+03</pdfrwt>
<totfact> 0.12619104E+03</totfact>
</mgrwt>
</event>
<event>
 4    1  0.4840996E-002  0.4365917E+03  0.7818608E-02  0.1031798E+00
         21   -1    0    0  501  502  0.00000000000E+00  0.00000000000E+00  0.69448626436E+02  0.69448626436E+02  0.00000000000E+00 0. -1.
         21   -1    0    0  502  503 -0.00000000000E+00 -0.00000000000E+00 -0.27451328540E+04  0.27451328540E+04  0.00000000000E+00 0. -1.
    9000005    1    1    2  501    0 -0.22204947576E+02  0.17354894471E+03 -0.13564719814E+04  0.14250012393E+04  0.40000000000E+03 0. -1.
   -9000005    1    1    2    0  503  0.22204947576E+02 -0.17354894471E+03 -0.13192122462E+04  0.13895802411E+04  0.40000000000E+03 0. -1.
<mgrwt>
<rscale>  2 0.43659168E+03</rscale>
<asrwt>0</asrwt>
<pdfrwt beam="1">  1       21 0.10684404E-01 0.43659168E+03</pdfrwt>
<pdfrwt beam="2">  1       21 0.42232812E+00 0.43659168E+03</pdfrwt>
<totfact> 0.35240686E+02</totfact>
</mgrwt>
</event>
<event>
 4    1  0.4840996E-002  0.4635232E+03  0.7818608E-02  0.1023764E+00
         21   -1    0    0  503  502  0.00000000000E+00  0.00000000000E+00  0.40812471852E+03  0.40812471852E+03  0.00000000000E+00 0.  1.
         21   -1    0    0  501  503 -0.00000000000E+00 -0.00000000000E+00 -0.53110060758E+03  0.53110060758E+03  0.00000000000E+00 0. -1.
    9000005    1    1    2  501    0  0.23395301638E+03  0.10944382431E+02 -0.10547270887E+03  0.47537173422E+03  0.40000000000E+03 0.  1.
   -9000005    1    1    2    0  502 -0.23395301638E+03 -0.10944382431E+02 -0.17503180201E+02  0.46385359188E+03  0.40000000000E+03 0.  1.
<mgrwt>
<rscale>  2 0.46352324E+03</rscale>
<asrwt>0</asrwt>
<pdfrwt beam="1">  1       21 0.62788419E-01 0.46352324E+03</pdfrwt>
<pdfrwt beam="2">  1       21 0.81707785E-01 0.46352324E+03</pdfrwt>
<totfact> 0.26630475E+03</totfact>
</mgrwt>
</event>
<event>
 4    1  0.4840996E-002  0.7391402E+03  0.7818608E-02  0.9652543E-01
         21   -1    0    0  501  502  0.00000000000E+00  0.00000000000E+00  0.67740966046E+03  0.67740966046E+03  0.00000000000E+00 0. -1.
         21   -1    0    0  502  503 -0.00000000000E+00 -0.00000000000E+00 -0.83725094453E+03  0.83725094453E+03  0.00000000000E+00 0.  1.
    9000005    1    1    2  501    0 -0.49754849098E+03 -0.37252351830E+03  0.65228354018E+02  0.74201281035E+03  0.40000000000E+03 0.  1.
   -9000005    1    1    2    0  503  0.49754849098E+03  0.37252351830E+03 -0.22506963808E+03  0.77264779463E+03  0.40000000000E+03 0. -1.
<mgrwt>
<rscale>  2 0.73914023E+03</rscale>
<asrwt>0</asrwt>
<pdfrwt beam="1">  1       21 0.10421687E+00 0.73914023E+03</pdfrwt>
<pdfrwt beam="2">  1       21 0.12880784E+00 0.73914023E+03</pdfrwt>
<totfact> 0.24343966E+02</totfact>
</mgrwt>
</event>
<event>
 4    1  0.4840996E-002  0.4018471E+03  0.7818608E-02  0.1043142E+00
         21   -1    0    0  503  502  0.00000000000E+00  0.00000000000E+00  0.22506574075E+04  0.22506574075E+04  0.00000000000E+00 0. -1.
         21   -1    0    0  501  503 -0.00000000000E+00 -0.00000000000E+00 -0.16208430963E+03  0.16208430963E+03  0.00000000000E+00 0. -1.
    9000005    1    1    2  501    0  0.35973072453E+01  0.38316291218E+02  0.14366870092E+03  0.42675727810E+03  0.40000000000E+03 0. -1.
   -9000005    1    1    2    0  502 -0.35973072453E+01 -0.38316291218E+02  0.19449043969E+04  0.19859844390E+04  0.40000000000E+03 0. -1.
<mgrwt>
<rscale>  2 0.40184708E+03</rscale>
<asrwt>0</asrwt>
<pdfrwt beam="1">  1       21 0.34625496E+00 0.40184708E+03</pdfrwt>
<pdfrwt beam="2">  1       21 0.24936049E-01 0.40184708E+03</pdfrwt>
<totfact> 0.22382310E+02</totfact>
</mgrwt>
</event>
<event>
 4    1  0.4840996E-002  0.7073536E+03  0.7818608E-02  0.9704738E-01
         21   -1    0    0  501  502  0.00000000000E+00  0.00000000000E+00  0.80320940405E+03  0.80320940405E+03  0.00000000000E+00 0. -1.
         21   -1    0    0  502  503 -0.00000000000E+00 -0.00000000000E+00 -0.62297422089E+03  0.62297422089E+03  0.00000000000E+00 0.  1.
    9000005    1    1    2  501    0  0.39582243297E+03 -0.42857178072E+03  0.95600579595E+02  0.71378472980E+03  0.40000000000E+03 0. -1.
   -9000005    1    1    2    0  503 -0.39582243297E+03  0.42857178072E+03  0.84634603562E+02  0.71239889514E+03  0.40000000000E+03 0.  1.
<mgrwt>
<rscale>  2 0.70735364E+03</rscale>
<asrwt>0</asrwt>
<pdfrwt beam="1">  1       21 0.12357068E+00 0.70735364E+03</pdfrwt>
<pdfrwt beam="2">  1       21 0.95842188E-01 0.70735364E+03</pdfrwt>
<totfact> 0.33648784E+02</totfact>
</mgrwt>
</event>
<event>
 4    1  0.4840996E-002  0.4222721E+03  0.7818608E-02  0.1036329E+00
         21   -1    0    0  501  502  0.00000000000E+00  0.00000000000E+00  0.11129072531E+04  0.11129072531E+04  0.00000000000E+00 0. -1.
         21   -1    0    0  502  503 -0.00000000000E+00 -0.00000000000E+00 -0.28140253066E+03  0.28140253066E+03  0.00000000000E+00 0. -1.
    9000005    1    1    2  501    0  0.10270159595E+03 -0.88125390924E+02  0.87323996154E+03  0.96998027442E+03  0.40000000000E+03 0. -1.
   -9000005    1    1    2    0  503 -0.10270159595E+03  0.88125390924E+02 -0.41735239078E+02  0.42432950936E+03  0.40000000000E+03 0. -1.
<mgrwt>
<rscale>  2 0.42227207E+03</rscale>
<asrwt>0</asrwt>
<pdfrwt beam="1">  1       21 0.17121650E+00 0.42227207E+03</pdfrwt>
<pdfrwt beam="2">  1       21 0.43292698E-01 0.42227207E+03</pdfrwt>
<totfact> 0.91202711E+02</totfact>
</mgrwt>
</event>
<event>
 4    1  0.4840996E-002  0.6356965E+03  0.7818608E-02  0.9833995E-01
         21   -1    0    0  501  502  0.00000000000E+00  0.00000000000E+00  0.10415473873E+04  0.10415473873E+04  0.00000000000E+00 0.  1.
         21   -1    0    0  502  503 -0.00000000000E+00 -0.00000000000E+00 -0.54525347266E+03  0.54525347266E+03  0.00000000000E+00 0.  1.
    9000005    1    1    2  501    0 -0.17621166917E+03  0.46158369995E+03  0.67424252641E+03  0.92666771220E+03  0.40000000000E+03 0.  1.
   -9000005    1    1    2    0  503  0.17621166917E+03 -0.46158369995E+03 -0.17794861173E+03  0.66013314780E+03  0.40000000000E+03 0.  1.
<mgrwt>
<rscale>  2 0.63569652E+03</rscale>
<asrwt>0</asrwt>
<pdfrwt beam="1">  1       21 0.16023806E+00 0.63569652E+03</pdfrwt>
<pdfrwt beam="2">  1       21 0.83885149E-01 0.63569652E+03</pdfrwt>
<totfact> 0.23481278E+02</totfact>
</mgrwt>
</event>
<event>
 4    1  0.4840996E-002  0.4361567E+03  0.7818608E-02  0.1031933E+00
         21   -1    0    0  503  502  0.00000000000E+00  0.00000000000E+00  0.22884604869E+03  0.22884604869E+03  0.00000000000E+00 0.  1.
         21   -1    0    0  501  503 -0.00000000000E+00 -0.00000000000E+00 -0.84421940079E+03  0.84421940079E+03  0.00000000000E+00 0.  1.
    9000005    1    1    2  501    0  0.29192597722E+02 -0.17140735289E+03 -0.24123505355E+03  0.49842455743E+03  0.40000000000E+03 0.  1.
   -9000005    1    1    2    0  502 -0.29192597722E+02  0.17140735289E+03 -0.37413829855E+03  0.57464089206E+03  0.40000000000E+03 0.  1.
<mgrwt>
<rscale>  2 0.43615672E+03</rscale>
<asrwt>0</asrwt>
<pdfrwt beam="1">  1       21 0.35207084E-01 0.43615672E+03</pdfrwt>
<pdfrwt beam="2">  1       21 0.12987991E+00 0.43615672E+03</pdfrwt>
<totfact> 0.29321101E+03</totfact>
</mgrwt>
</event>
<event>
 4    1  0.4840996E-002  0.4460260E+03  0.7818608E-02  0.1028914E+00
         21   -1    0    0  503  502  0.00000000000E+00  0.00000000000E+00  0.13959077352E+04  0.13959077352E+04  0.00000000000E+00 0.  1.
         21   -1    0    0  501  503 -0.00000000000E+00 -0.00000000000E+00 -0.15385184140E+03  0.15385184140E+03  0.00000000000E+00 0.  1.
    9000005    1    1    2  501    0  0.84425803173E+02  0.17835776613E+03  0.83136198509E+03  0.94345214994E+03  0.40000000000E+03 0.  1.
   -9000005    1    1    2    0  502 -0.84425803173E+02 -0.17835776613E+03  0.41069390871E+03  0.60630742667E+03  0.40000000000E+03 0.  1.
<mgrwt>
<rscale>  2 0.44602602E+03</rscale>
<asrwt>0</asrwt>
<pdfrwt beam="1">  1       21 0.21475503E+00 0.44602602E+03</pdfrwt>
<pdfrwt beam="2">  1       21 0.23669515E-01 0.44602602E+03</pdfrwt>
<totfact> 0.15285157E+03</totfact>
</mgrwt>
</event>
<event>
 4    1  0.4840996E-002  0.4133859E+03  0.7818608E-02  0.1039241E+00
         21   -1    0    0  503  502  0.00000000000E+00  0.00000000000E+00  0.59250828135E+03  0.59250828135E+03  0.00000000000E+00 0.  1.
         21   -1    0    0  501  503 -0.00000000000E+00 -0.00000000000E+00 -0.35770915452E+03  0.35770915452E+03  0.00000000000E+00 0.  1.
    9000005    1    1    2  501    0  0.16160939325E+02  0.10308608873E+03 -0.91712056947E+02  0.42343714887E+03  0.40000000000E+03 0. -1.
   -9000005    1    1    2    0  502 -0.16160939325E+02 -0.10308608873E+03  0.32651118378E+03  0.52678028701E+03  0.40000000000E+03 0. -1.
<mgrwt>
<rscale>  2 0.41338592E+03</rscale>
<asrwt>0</asrwt>
<pdfrwt beam="1">  1       21 0.91155120E-01 0.41338592E+03</pdfrwt>
<pdfrwt beam="2">  1       21 0.55032178E-01 0.41338592E+03</pdfrwt>
<totfact> 0.27984990E+03</totfact>
</mgrwt>
</event>
<event>
 4    1  0.4840996E-002  0.5121943E+03  0.7818608E-02  0.1010644E+00
         21   -1    0    0  501  502  0.00000000000E+00  0.00000000000E+00  0.74132774145E+03  0.74132774145E+03  0.00000000000E+00 0.  1.
         21   -1    0    0  502  503 -0.00000000000E+00 -0.00000000000E+00 -0.40512072234E+03  0.40512072234E+03  0.00000000000E+00 0.  1.
    9000005    1    1    2  501    0  0.17368419661E+03  0.26865740437E+03  0.37196201863E+03  0.63300769693E+03  0.40000000000E+03 0.  1.
   -9000005    1    1    2    0  503 -0.17368419661E+03 -0.26865740437E+03 -0.35754999517E+02  0.51344076685E+03  0.40000000000E+03 0.  1.
<mgrwt>
<rscale>  2 0.51219430E+03</rscale>
<asrwt>0</asrwt>
<pdfrwt beam="1">  1       21 0.11405042E+00 0.51219430E+03</pdfrwt>
<pdfrwt beam="2">  1       21 0.62326265E-01 0.51219430E+03</pdfrwt>
<totfact> 0.11893588E+03</totfact>
</mgrwt>
</event>
<event>
 4    1  0.4840996E-002  0.4821538E+03  0.7818608E-02  0.1018545E+00
         21   -1    0    0  501  502  0.00000000000E+00  0.00000000000E+00  0.15376695291E+04  0.15376695291E+04  0.00000000000E+00 0. -1.
         21   -1    0    0  502  503 -0.00000000000E+00 -0.00000000000E+00 -0.20347076497E+03  0.20347076497E+03  0.00000000000E+00 0. -1.
    9000005    1    1    2  501    0  0.96838343219E+02 -0.25118634349E+03  0.11084110089E+04  0.12087378577E+04  0.40000000000E+03 0. -1.
   -9000005    1    1    2    0  503 -0.96838343219E+02  0.25118634349E+03  0.22578775521E+03  0.53240243639E+03  0.40000000000E+03 0. -1.
<mgrwt>
<rscale>  2 0.48215376E+03</rscale>
<asrwt>0</asrwt>
<pdfrwt beam="1">  1       21 0.23656454E+00 0.48215376E+03</pdfrwt>
<pdfrwt beam="2">  1       21 0.31303196E-01 0.48215376E+03</pdfrwt>
<totfact> 0.63068458E+02</totfact>
</mgrwt>
</event>
<event>
 4    1  0.4840996E-002  0.4525620E+03  0.7818608E-02  0.1026961E+00
         21   -1    0    0  503  502  0.00000000000E+00  0.00000000000E+00  0.79234055249E+03  0.79234055249E+03  0.00000000000E+00 0. -1.
         21   -1    0    0  501  503 -0.00000000000E+00 -0.00000000000E+00 -0.26530583314E+03  0.26530583314E+03  0.00000000000E+00 0. -1.
    9000005    1    1    2  501    0 -0.60539731555E+02  0.20284800062E+03  0.17875831112E+03  0.48658699556E+03  0.40000000000E+03 0.  1.
   -9000005    1    1    2    0  502  0.60539731555E+02 -0.20284800062E+03  0.34827640824E+03  0.57105939007E+03  0.40000000000E+03 0.  1.
<mgrwt>
<rscale>  2 0.45256201E+03</rscale>
<asrwt>0</asrwt>
<pdfrwt beam="1">  1       21 0.12189855E+00 0.45256201E+03</pdfrwt>
<pdfrwt beam="2">  1       21 0.40816282E-01 0.45256201E+03</pdfrwt>
<totfact> 0.25360851E+03</totfact>
</mgrwt>
</event>
<event>
 4    1  0.4840996E-002  0.4399892E+03  0.7818608E-02  0.1030750E+00
         21   -1    0    0  501  502  0.00000000000E+00  0.00000000000E+00  0.12739533340E+03  0.12739533340E+03  0.00000000000E+00 0. -1.
         21   -1    0    0  502  503 -0.00000000000E+00 -0.00000000000E+00 -0.15528749943E+04  0.15528749943E+04  0.00000000000E+00 0. -1.
    9000005    1    1    2  501    0 -0.40295213074E+02 -0.17879265001E+03 -0.83571313656E+03  0.94446120223E+03  0.40000000000E+03 0. -1.
   -9000005    1    1    2    0  503  0.40295213074E+02  0.17879265001E+03 -0.58976652436E+03  0.73580912549E+03  0.40000000000E+03 0. -1.
<mgrwt>
<rscale>  2 0.43998922E+03</rscale>
<asrwt>0</asrwt>
<pdfrwt beam="1">  1       21 0.19599281E-01 0.43998922E+03</pdfrwt>
<pdfrwt beam="2">  1       21 0.23890386E+00 0.43998922E+03</pdfrwt>
<totfact> 0.15482872E+03</totfact>
</mgrwt>
</event>
<event>
 4    1  0.4840996E-002  0.4725540E+03  0.7818608E-02  0.1021202E+00
         21   -1    0    0  503  502  0.00000000000E+00  0.00000000000E+00  0.51734839687E+03  0.51734839687E+03  0.00000000000E+00 0. -1.
         21   -1    0    0  501  503 -0.00000000000E+00 -0.00000000000E+00 -0.56065387073E+03  0.56065387073E+03  0.00000000000E+00 0. -1.
    9000005    1    1    2  501    0 -0.22533569507E+03  0.11194240033E+03 -0.28021412785E+03  0.54938805403E+03  0.40000000000E+03 0. -1.
   -9000005    1    1    2    0  502  0.22533569507E+03 -0.11194240033E+03  0.23690865398E+03  0.52861421358E+03  0.40000000000E+03 0. -1.
<mgrwt>
<rscale>  2 0.47255399E+03</rscale>
<asrwt>0</asrwt>
<pdfrwt beam="1">  1       21 0.79592061E-01 0.47255399E+03</pdfrwt>
<pdfrwt beam="2">  1       21 0.86254442E-01 0.47255399E+03</pdfrwt>
<totfact> 0.13689059E+03</totfact>
</mgrwt>
</event>
<event>
 4    1  0.4840996E-002  0.4040484E+03  0.7818608E-02  0.1042387E+00
         21   -1    0    0  503  502  0.00000000000E+00  0.00000000000E+00  0.44985696441E+03  0.44985696441E+03  0.00000000000E+00 0. -1.
         21   -1    0    0  501  503 -0.00000000000E+00 -0.00000000000E+00 -0.53074110104E+03  0.53074110104E+03  0.00000000000E+00 0. -1.
    9000005    1    1    2  501    0  0.48968856943E+02 -0.29277750064E+02 -0.31615869704E+03  0.51304137973E+03  0.40000000000E+03 0. -1.
   -9000005    1    1    2    0  502 -0.48968856943E+02  0.29277750064E+02  0.23527456040E+03  0.46755668573E+03  0.40000000000E+03 0. -1.
<mgrwt>
<rscale>  2 0.40404843E+03</rscale>
<asrwt>0</asrwt>
<pdfrwt beam="1">  1       21 0.69208764E-01 0.40404843E+03</pdfrwt>
<pdfrwt beam="2">  1       21 0.81652477E-01 0.40404843E+03</pdfrwt>
<totfact> 0.21966154E+03</totfact>
</mgrwt>
</event>
<event>
 4    1  0.4840996E-002  0.4136621E+03  0.7818608E-02  0.1039149E+00
         21   -1    0    0  503  502  0.00000000000E+00  0.00000000000E+00  0.34370085144E+03  0.34370085144E+03  0.00000000000E+00 0.  1.
         21   -1    0    0  501  503 -0.00000000000E+00 -0.00000000000E+00 -0.15484666728E+04  0.15484666728E+04  0.00000000000E+00 0.  1.
    9000005    1    1    2  501    0  0.81961009147E+02 -0.66323086489E+02 -0.13816706815E+04  0.14422656590E+04  0.40000000000E+03 0.  1.
   -9000005    1    1    2    0  502 -0.81961009147E+02  0.66323086489E+02  0.17690486018E+03  0.44990186527E+03  0.40000000000E+03 0.  1.
<mgrwt>
<rscale>  2 0.41366213E+03</rscale>
<asrwt>0</asrwt>
<pdfrwt beam="1">  1       21 0.52877055E-01 0.41366213E+03</pdfrwt>
<pdfrwt beam="2">  1       21 0.23822564E+00 0.41366213E+03</pdfrwt>
<totfact> 0.21625178E+02</totfact>
</mgrwt>
</event>
<event>
 4    1  0.4840996E-002  0.7976186E+03  0.7818608E-02  0.9563470E-01
         21   -1    0    0  503  502  0.00000000000E+00  0.00000000000E+00  0.12480562295E+04  0.12480562295E+04  0.00000000000E+00 0. -1.
         21   -1    0    0  501  503 -0.00000000000E+00 -0.00000000000E+00 -0.52966447228E+03  0.52966447228E+03  0.00000000000E+00 0.  1.
    9000005    1    1    2  501    0 -0.26162529856E+03  0.63855121133E+03  0.18683918941E+03  0.81920957577E+03  0.40000000000E+03 0.  1.
   -9000005    1    1    2    0  502  0.26162529856E+03 -0.63855121133E+03  0.53155256779E+03  0.95851112600E+03  0.40000000000E+03 0. -1.
<mgrwt>
<rscale>  2 0.79761861E+03</rscale>
<asrwt>0</asrwt>
<pdfrwt beam="1">  1       21 0.19200865E+00 0.79761861E+03</pdfrwt>
<pdfrwt beam="2">  1       21 0.81486842E-01 0.79761861E+03</pdfrwt>
<totfact> 0.14030201E+02</totfact>
</mgrwt>
</event>
<event>
 4    1  0.4840996E-002  0.4321387E+03  0.7818608E-02  0.1033186E+00
         21   -1    0    0  501  502  0.00000000000E+00  0.00000000000E+00  0.13828615044E+03  0.13828615044E+03  0.00000000000E+00 0.  1.
         21   -1    0    0  502  503 -0.00000000000E+00 -0.00000000000E+00 -0.21517888072E+04  0.21517888072E+04  0.00000000000E+00 0. -1.
    9000005    1    1    2  501    0 -0.15104453742E+03  0.62684722569E+02 -0.30797660430E+03  0.53065376238E+03  0.40000000000E+03 0.  1.
   -9000005    1    1    2    0  503  0.15104453742E+03 -0.62684722569E+02 -0.17055260525E+04  0.17594211953E+04  0.40000000000E+03 0. -1.
<mgrwt>
<rscale>  2 0.43213867E+03</rscale>
<asrwt>0</asrwt>
<pdfrwt beam="1">  1       21 0.21274795E-01 0.43213867E+03</pdfrwt>
<pdfrwt beam="2">  1       21 0.33104439E+00 0.43213867E+03</pdfrwt>
<totfact> 0.36835039E+02</totfact>
</mgrwt>
</event>
<event>
 4    1  0.4840996E-002  0.4816886E+03  0.7818608E-02  0.1018672E+00
         21   -1    0    0  503  502  0.00000000000E+00  0.00000000000E+00  0.48786442516E+03  0.48786442516E+03  0.00000000000E+00 0.  1.
         21   -1    0    0  501  503 -0.00000000000E+00 -0.00000000000E+00 -0.16397025559E+04  0.16397025559E+04  0.00000000000E+00 0. -1.
    9000005    1    1    2  501    0  0.20810440906E+03  0.16945946040E+03 -0.14722492052E+04  0.15490454080E+04  0.40000000000E+03 0. -1.
   -9000005    1    1    2    0  502 -0.20810440906E+03 -0.16945946040E+03  0.32041107451E+03  0.57852157303E+03  0.40000000000E+03 0.  1.
<mgrwt>
<rscale>  2 0.48168865E+03</rscale>
<asrwt>0</asrwt>
<pdfrwt beam="1">  1       21 0.75056065E-01 0.48168865E+03</pdfrwt>
<pdfrwt beam="2">  1       21 0.25226193E+00 0.48168865E+03</pdfrwt>
<totfact> 0.78427829E+01</totfact>
</mgrwt>
</event>
<event>
 4    1  0.4840996E-002  0.4289371E+03  0.7818608E-02  0.1034196E+00
         21   -1    0    0  503  502  0.00000000000E+00  0.00000000000E+00  0.75396305516E+03  0.75396305516E+03  0.00000000000E+00 0. -1.
         21   -1    0    0  501  503 -0.00000000000E+00 -0.00000000000E+00 -0.41997744583E+03  0.41997744583E+03  0.00000000000E+00 0. -1.
    9000005    1    1    2  501    0 -0.15420038353E+03 -0.14465989060E+02 -0.21293302008E+03  0.47888150326E+03  0.40000000000E+03 0. -1.
   -9000005    1    1    2    0  502  0.15420038353E+03  0.14465989060E+02  0.54691862942E+03  0.69505899773E+03  0.40000000000E+03 0. -1.
<mgrwt>
<rscale>  2 0.42893709E+03</rscale>
<asrwt>0</asrwt>
<pdfrwt beam="1">  1       21 0.11599432E+00 0.42893709E+03</pdfrwt>
<pdfrwt beam="2">  1       21 0.64611915E-01 0.42893709E+03</pdfrwt>
<totfact> 0.10875608E+03</totfact>
</mgrwt>
</event>
<event>
 4    1  0.4840996E-002  0.4130450E+03  0.7818608E-02  0.1039354E+00
         21   -1    0    0  501  502  0.00000000000E+00  0.00000000000E+00  0.72138346490E+03  0.72138346490E+03  0.00000000000E+00 0. -1.
         21   -1    0    0  502  503 -0.00000000000E+00 -0.00000000000E+00 -0.30930143534E+03  0.30930143534E+03  0.00000000000E+00 0. -1.
    9000005    1    1    2  501    0  0.64654330255E+02  0.80162364083E+02  0.45606349891E+03  0.61530488546E+03  0.40000000000E+03 0. -1.
   -9000005    1    1    2    0  503 -0.64654330255E+02 -0.80162364083E+02 -0.43981469348E+02  0.41538001478E+03  0.40000000000E+03 0. -1.
<mgrwt>
<rscale>  2 0.41304502E+03</rscale>
<asrwt>0</asrwt>
<pdfrwt beam="1">  1       21 0.11098207E+00 0.41304502E+03</pdfrwt>
<pdfrwt beam="2">  1       21 0.47584836E-01 0.41304502E+03</pdfrwt>
<totfact> 0.23663865E+03</totfact>
</mgrwt>
</event>
<event>
 4    1  0.4840996E-002  0.5532296E+03  0.7818608E-02  0.1000749E+00
         21   -1    0    0  503  502  0.00000000000E+00  0.00000000000E+00  0.31473065843E+03  0.31473065843E+03  0.00000000000E+00 0. -1.
         21   -1    0    0  501  503 -0.00000000000E+00 -0.00000000000E+00 -0.14132808857E+04  0.14132808857E+04  0.00000000000E+00 0.  1.
    9000005    1    1    2  501    0 -0.36815003529E+02 -0.38040454462E+03 -0.10318153189E+04  0.11707714612E+04  0.40000000000E+03 0.  1.
   -9000005    1    1    2    0  502  0.36815003529E+02  0.38040454462E+03 -0.66734908415E+02  0.55724008296E+03  0.40000000000E+03 0. -1.
<mgrwt>
<rscale>  2 0.55322957E+03</rscale>
<asrwt>0</asrwt>
<pdfrwt beam="1">  1       21 0.48420100E-01 0.55322957E+03</pdfrwt>
<pdfrwt beam="2">  1       21 0.21742783E+00 0.55322957E+03</pdfrwt>
<totfact> 0.32938686E+02</totfact>
</mgrwt>
</event>
<event>
 4    1  0.4840996E-002  0.4002513E+03  0.7818608E-02  0.1043693E+00
         21   -1    0    0  503  502  0.00000000000E+00  0.00000000000E+00  0.31786106525E+03  0.31786106525E+03  0.00000000000E+00 0. -1.
         21   -1    0    0  501  503 -0.00000000000E+00 -0.00000000000E+00 -0.87986836395E+03  0.87986836395E+03  0.00000000000E+00 0. -1.
    9000005    1    1    2  501    0  0.70697202300E+01  0.12294118756E+02 -0.67242030903E+03  0.78252808148E+03  0.40000000000E+03 0. -1.
   -9000005    1    1    2    0  502 -0.70697202300E+01 -0.12294118756E+02  0.11041301034E+03  0.41520134772E+03  0.40000000000E+03 0. -1.
<mgrwt>
<rscale>  2 0.40025133E+03</rscale>
<asrwt>0</asrwt>
<pdfrwt beam="1">  1       21 0.48901703E-01 0.40025133E+03</pdfrwt>
<pdfrwt beam="2">  1       21 0.13536436E+00 0.40025133E+03</pdfrwt>
<totfact> 0.13549569E+03</totfact>
</mgrwt>
</event>
<event>
 4    1  0.4840996E-002  0.4949383E+03  0.7818608E-02  0.1015109E+00
         21   -1    0    0  501  502  0.00000000000E+00  0.00000000000E+00  0.31415988498E+03  0.31415988498E+03  0.00000000000E+00 0. -1.
         21   -1    0    0  502  503 -0.00000000000E+00 -0.00000000000E+00 -0.10046888170E+04  0.10046888170E+04  0.00000000000E+00 0. -1.
    9000005    1    1    2  501    0  0.12940283749E+03  0.26118742568E+03 -0.33240340869E+02  0.49605330958E+03  0.40000000000E+03 0. -1.
   -9000005    1    1    2    0  503 -0.12940283749E+03 -0.26118742568E+03 -0.65728859114E+03  0.82279539238E+03  0.40000000000E+03 0. -1.
<mgrwt>
<rscale>  2 0.49493835E+03</rscale>
<asrwt>0</asrwt>
<pdfrwt beam="1">  1       21 0.48332290E-01 0.49493835E+03</pdfrwt>
<pdfrwt beam="2">  1       21 0.15456751E+00 0.49493835E+03</pdfrwt>
<totfact> 0.93423754E+02</totfact>
</mgrwt>
</event>
<event>
 4    1  0.4840996E-002  0.6637002E+03  0.7818608E-02  0.9781406E-01
         21   -1    0    0  503  502  0.00000000000E+00  0.00000000000E+00  0.14660736553E+04  0.14660736553E+04  0.00000000000E+00 0. -1.
         21   -1    0    0  501  503 -0.00000000000E+00 -0.00000000000E+00 -0.35161590486E+03  0.35161590486E+03  0.00000000000E+00 0.  1.
    9000005    1    1    2  501    0  0.46456600106E+03  0.25431543929E+03  0.21057246848E+03  0.69630358069E+03  0.40000000000E+03 0.  1.
   -9000005    1    1    2    0  502 -0.46456600106E+03 -0.25431543929E+03  0.90388528198E+03  0.11213859795E+04  0.40000000000E+03 0. -1.
<mgrwt>
<rscale>  2 0.66370017E+03</rscale>
<asrwt>0</asrwt>
<pdfrwt beam="1">  1       21 0.22554979E+00 0.66370017E+03</pdfrwt>
<pdfrwt beam="2">  1       21 0.54094755E-01 0.66370017E+03</pdfrwt>
<totfact> 0.22044635E+02</totfact>
</mgrwt>
</event>
<event>
 4    1  0.4840996E-002  0.4031801E+03  0.7818608E-02  0.1042684E+00
         21   -1    0    0  501  502  0.00000000000E+00  0.00000000000E+00  0.10312395692E+04  0.10312395692E+04  0.00000000000E+00 0. -1.
         21   -1    0    0  502  503 -0.00000000000E+00 -0.00000000000E+00 -0.19641389355E+03  0.19641389355E+03  0.00000000000E+00 0. -1.
    9000005    1    1    2  501    0  0.22266797095E+02  0.45368966058E+02  0.69017627719E+03  0.79931060730E+03  0.40000000000E+03 0. -1.
   -9000005    1    1    2    0  503 -0.22266797095E+02 -0.45368966058E+02  0.14464939843E+03  0.42834285543E+03  0.40000000000E+03 0. -1.
<mgrwt>
<rscale>  2 0.40318005E+03</rscale>
<asrwt>0</asrwt>
<pdfrwt beam="1">  1       21 0.15865224E+00 0.40318005E+03</pdfrwt>
<pdfrwt beam="2">  1       21 0.30217523E-01 0.40318005E+03</pdfrwt>
<totfact> 0.23642130E+03</totfact>
</mgrwt>
</event>
<event>
 4    1  0.4840996E-002  0.4917215E+03  0.7818608E-02  0.1015963E+00
         21   -1    0    0  503  502  0.00000000000E+00  0.00000000000E+00  0.42173557101E+03  0.42173557101E+03  0.00000000000E+00 0. -1.
         21   -1    0    0  501  503 -0.00000000000E+00 -0.00000000000E+00 -0.11916073916E+04  0.11916073916E+04  0.00000000000E+00 0.  1.
    9000005    1    1    2  501    0 -0.23703955015E+03  0.16000721510E+03 -0.96600100578E+03  0.10839501835E+04  0.40000000000E+03 0.  1.
   -9000005    1    1    2    0  502  0.23703955015E+03 -0.16000721510E+03  0.19612918521E+03  0.52939277905E+03  0.40000000000E+03 0. -1.
<mgrwt>
<rscale>  2 0.49172152E+03</rscale>
<asrwt>0</asrwt>
<pdfrwt beam="1">  1       21 0.64882397E-01 0.49172152E+03</pdfrwt>
<pdfrwt beam="2">  1       21 0.18332421E+00 0.49172152E+03</pdfrwt>
<totfact> 0.30340162E+02</totfact>
</mgrwt>
</event>
<event>
 4    1  0.4840996E-002  0.5886061E+03  0.7818608E-02  0.9929331E-01
         21   -1    0    0  503  502  0.00000000000E+00  0.00000000000E+00  0.57892055219E+03  0.57892055219E+03  0.00000000000E+00 0. -1.
         21   -1    0    0  501  503 -0.00000000000E+00 -0.00000000000E+00 -0.60156447648E+03  0.60156447648E+03  0.00000000000E+00 0.  1.
    9000005    1    1    2  501    0 -0.26726835305E+03 -0.33915294796E+03 -0.53767305107E+02  0.59105669588E+03  0.40000000000E+03 0. -1.
   -9000005    1    1    2    0  502  0.26726835305E+03  0.33915294796E+03  0.31123380820E+02  0.58942833278E+03  0.40000000000E+03 0. -1.
<mgrwt>
<rscale>  2 0.58860606E+03</rscale>
<asrwt>0</asrwt>
<pdfrwt beam="1">  1       21 0.89064700E-01 0.58860606E+03</pdfrwt>
<pdfrwt beam="2">  1       21 0.92548381E-01 0.58860606E+03</pdfrwt>
<totfact> 0.85502426E+02</totfact>
</mgrwt>
</event>
<event>
 4    1  0.4840996E-002  0.4679766E+03  0.7818608E-02  0.1022493E+00
         21   -1    0    0  503  502  0.00000000000E+00  0.00000000000E+00  0.53168805089E+03  0.53168805089E+03  0.00000000000E+00 0.  1.
         21   -1    0    0  501  503 -0.00000000000E+00 -0.00000000000E+00 -0.20891679938E+04  0.20891679938E+04  0.00000000000E+00 0.  1.
    9000005    1    1    2  501    0  0.86235013294E+02  0.22708063375E+03 -0.19529012988E+04  0.20081896261E+04  0.40000000000E+03 0.  1.
   -9000005    1    1    2    0  502 -0.86235013294E+02 -0.22708063375E+03  0.39542135587E+03  0.61266641855E+03  0.40000000000E+03 0.  1.
<mgrwt>
<rscale>  2 0.46797659E+03</rscale>
<asrwt>0</asrwt>
<pdfrwt beam="1">  1       21 0.81798159E-01 0.46797659E+03</pdfrwt>
<pdfrwt beam="2">  1       21 0.32141047E+00 0.46797659E+03</pdfrwt>
<totfact> 0.24750105E+01</totfact>
</mgrwt>
</event>
<event>
 4    1  0.4840996E-002  0.5245943E+03  0.7818608E-02  0.1007552E+00
         21   -1    0    0  503  502  0.00000000000E+00  0.00000000000E+00  0.34537873995E+03  0.34537873995E+03  0.00000000000E+00 0.  1.
         21   -1    0    0  501  503 -0.00000000000E+00 -0.00000000000E+00 -0.89206786837E+03  0.89206786837E+03  0.00000000000E+00 0.  1.
    9000005    1    1    2  501    0  0.10344909167E+03  0.32326073206E+03 -0.47553531087E+03  0.70804876056E+03  0.40000000000E+03 0.  1.
   -9000005    1    1    2    0  502 -0.10344909167E+03 -0.32326073206E+03 -0.71153817552E+02  0.52939784776E+03  0.40000000000E+03 0.  1.
<mgrwt>
<rscale>  2 0.52459433E+03</rscale>
<asrwt>0</asrwt>
<pdfrwt beam="1">  1       21 0.53135192E-01 0.52459433E+03</pdfrwt>
<pdfrwt beam="2">  1       21 0.13724121E+00 0.52459433E+03</pdfrwt>
<totfact> 0.10407617E+03</totfact>
</mgrwt>
</event>
<event>
 4    1  0.4840996E-002  0.4586844E+03  0.7818608E-02  0.1025163E+00
         21   -1    0    0  501  502  0.00000000000E+00  0.00000000000E+00  0.50250019272E+03  0.50250019272E+03  0.00000000000E+00 0. -1.
         21   -1    0    0  502  503 -0.00000000000E+00 -0.00000000000E+00 -0.43189186468E+03  0.43189186468E+03  0.00000000000E+00 0.  1.
    9000005    1    1    2  501    0  0.12370769148E+03 -0.18731726439E+03  0.11698951308E+03  0.47336866884E+03  0.40000000000E+03 0.  1.
   -9000005    1    1    2    0  503 -0.12370769148E+03  0.18731726439E+03 -0.46381185040E+02  0.46102338856E+03  0.40000000000E+03 0.  1.
<mgrwt>
<rscale>  2 0.45868437E+03</rscale>
<asrwt>0</asrwt>
<pdfrwt beam="1">  1       21 0.77307722E-01 0.45868437E+03</pdfrwt>
<pdfrwt beam="2">  1       21 0.66444902E-01 0.45868437E+03</pdfrwt>
<totfact> 0.26731246E+03</totfact>
</mgrwt>
</event>
<event>
 4    1  0.4840996E-002  0.5038169E+03  0.7818608E-02  0.1012787E+00
         21   -1    0    0  501  502  0.00000000000E+00  0.00000000000E+00  0.49858805304E+03  0.49858805304E+03  0.00000000000E+00 0. -1.
         21   -1    0    0  502  503 -0.00000000000E+00 -0.00000000000E+00 -0.59369010035E+03  0.59369010035E+03  0.00000000000E+00 0.  1.
    9000005    1    1    2  501    0 -0.23431183235E+03 -0.19730540202E+03 -0.25370023781E+03  0.56408799590E+03  0.40000000000E+03 0.  1.
   -9000005    1    1    2    0  503  0.23431183235E+03  0.19730540202E+03  0.15859819050E+03  0.52819015750E+03  0.40000000000E+03 0. -1.
<mgrwt>
<rscale>  2 0.50381689E+03</rscale>
<asrwt>0</asrwt>
<pdfrwt beam="1">  1       21 0.76705854E-01 0.50381689E+03</pdfrwt>
<pdfrwt beam="2">  1       21 0.91336939E-01 0.50381689E+03</pdfrwt>
<totfact> 0.12868772E+03</totfact>
</mgrwt>
</event>
<event>
 4    1  0.4840996E-002  0.7069485E+03  0.7818608E-02  0.9705423E-01
         21   -1    0    0  501  502  0.00000000000E+00  0.00000000000E+00  0.50232982579E+03  0.50232982579E+03  0.00000000000E+00 0. -1.
         21   -1    0    0  502  503 -0.00000000000E+00 -0.00000000000E+00 -0.19302242610E+04  0.19302242610E+04  0.00000000000E+00 0. -1.
    9000005    1    1    2  501    0 -0.36317247094E+03  0.45594076132E+03  0.13270665404E+03  0.71929637668E+03  0.40000000000E+03 0. -1.
   -9000005    1    1    2    0  503  0.36317247094E+03 -0.45594076132E+03 -0.15606010892E+04  0.17132577101E+04  0.40000000000E+03 0. -1.
<mgrwt>
<rscale>  2 0.70694853E+03</rscale>
<asrwt>0</asrwt>
<pdfrwt beam="1">  1       21 0.77281513E-01 0.70694853E+03</pdfrwt>
<pdfrwt beam="2">  1       21 0.29695758E+00 0.70694853E+03</pdfrwt>
<totfact> 0.34974436E+01</totfact>
</mgrwt>
</event>
<event>
 4    1  0.4840996E-002  0.4487913E+03  0.7818608E-02  0.1028083E+00
         21   -1    0    0  503  502  0.00000000000E+00  0.00000000000E+00  0.10063328770E+04  0.10063328770E+04  0.00000000000E+00 0. -1.
         21   -1    0    0  501  503 -0.00000000000E+00 -0.00000000000E+00 -0.35066428398E+03  0.35066428398E+03  0.00000000000E+00 0. -1.
    9000005    1    1    2  501    0  0.18771578994E+03 -0.78590132309E+02 -0.11669217051E+03  0.46371401677E+03  0.40000000000E+03 0. -1.
   -9000005    1    1    2    0  502 -0.18771578994E+03  0.78590132309E+02  0.77236076350E+03  0.89328314418E+03  0.40000000000E+03 0. -1.
<mgrwt>
<rscale>  2 0.44879130E+03</rscale>
<asrwt>0</asrwt>
<pdfrwt beam="1">  1       21 0.15482044E+00 0.44879130E+03</pdfrwt>
<pdfrwt beam="2">  1       21 0.53948352E-01 0.44879130E+03</pdfrwt>
<totfact> 0.74986220E+02</totfact>
</mgrwt>
</event>
<event>
 4    1  0.4840996E-002  0.6304121E+03  0.7818608E-02  0.9844245E-01
         21   -1    0    0  503  502  0.00000000000E+00  0.00000000000E+00  0.48685878837E+03  0.48685878837E+03  0.00000000000E+00 0.  1.
         21   -1    0    0  501  503 -0.00000000000E+00 -0.00000000000E+00 -0.11466834809E+04  0.11466834809E+04  0.00000000000E+00 0. -1.
    9000005    1    1    2  501    0 -0.44072491651E+03 -0.20780025274E+03 -0.76833440616E+03  0.99385972690E+03  0.40000000000E+03 0. -1.
   -9000005    1    1    2    0  502  0.44072491651E+03  0.20780025274E+03  0.10850971362E+03  0.63968254237E+03  0.40000000000E+03 0.  1.
<mgrwt>
<rscale>  2 0.63041209E+03</rscale>
<asrwt>0</asrwt>
<pdfrwt beam="1">  1       21 0.74901353E-01 0.63041209E+03</pdfrwt>
<pdfrwt beam="2">  1       21 0.17641284E+00 0.63041209E+03</pdfrwt>
<totfact> 0.23222306E+02</totfact>
</mgrwt>
</event>
<event>
 4    1  0.4840996E-002  0.4280839E+03  0.7818608E-02  0.1034467E+00
         21   -1    0    0  501  502  0.00000000000E+00  0.00000000000E+00  0.12030055724E+04  0.12030055724E+04  0.00000000000E+00 0. -1.
         21   -1    0    0  502  503 -0.00000000000E+00 -0.00000000000E+00 -0.28705241613E+03  0.28705241613E+03  0.00000000000E+00 0. -1.
    9000005    1    1    2  501    0 -0.12206422147E+03 -0.91412097818E+02  0.96837557673E+03  0.10587762291E+04  0.40000000000E+03 0. -1.
   -9000005    1    1    2    0  503  0.12206422147E+03  0.91412097818E+02 -0.52422420482E+02  0.43128175936E+03  0.40000000000E+03 0. -1.
<mgrwt>
<rscale>  2 0.42808392E+03</rscale>
<asrwt>0</asrwt>
<pdfrwt beam="1">  1       21 0.18507778E+00 0.42808392E+03</pdfrwt>
<pdfrwt beam="2">  1       21 0.44161911E-01 0.42808392E+03</pdfrwt>
<totfact> 0.69615589E+02</totfact>
</mgrwt>
</event>
<event>
 4    1  0.4840996E-002  0.4397170E+03  0.7818608E-02  0.1030834E+00
         21   -1    0    0  501  502  0.00000000000E+00  0.00000000000E+00  0.54355043661E+03  0.54355043661E+03  0.00000000000E+00 0.  1.
         21   -1    0    0  502  503 -0.00000000000E+00 -0.00000000000E+00 -0.35572729214E+03  0.35572729214E+03  0.00000000000E+00 0. -1.
    9000005    1    1    2  501    0  0.16858521709E+03  0.70214704943E+02  0.91707801816E+02  0.44917858489E+03  0.40000000000E+03 0.  1.
   -9000005    1    1    2    0  503 -0.16858521709E+03 -0.70214704943E+02  0.96115342653E+02  0.45009914386E+03  0.40000000000E+03 0. -1.
<mgrwt>
<rscale>  2 0.43971705E+03</rscale>
<asrwt>0</asrwt>
<pdfrwt beam="1">  1       21 0.83623144E-01 0.43971705E+03</pdfrwt>
<pdfrwt beam="2">  1       21 0.54727276E-01 0.43971705E+03</pdfrwt>
<totfact> 0.34347433E+03</totfact>
</mgrwt>
</event>
<event>
 4    1  0.4840996E-002  0.4508858E+03  0.7818608E-02  0.1027458E+00
         21   -1    0    0  501  502  0.00000000000E+00  0.00000000000E+00  0.83164097596E+03  0.83164097596E+03  0.00000000000E+00 0. -1.
         21   -1    0    0  502  503 -0.00000000000E+00 -0.00000000000E+00 -0.26149165831E+03  0.26149165831E+03  0.00000000000E+00 0. -1.
    9000005    1    1    2  501    0  0.85658240223E+02  0.18963298055E+03  0.42458882566E+03  0.61933324819E+03  0.40000000000E+03 0. -1.
   -9000005    1    1    2    0  503 -0.85658240223E+02 -0.18963298055E+03  0.14556049199E+03  0.47379938609E+03  0.40000000000E+03 0. -1.
<mgrwt>
<rscale>  2 0.45088580E+03</rscale>
<asrwt>0</asrwt>
<pdfrwt beam="1">  1       21 0.12794476E+00 0.45088580E+03</pdfrwt>
<pdfrwt beam="2">  1       21 0.40229486E-01 0.45088580E+03</pdfrwt>
<totfact> 0.23086475E+03</totfact>
</mgrwt>
</event>
<event>
 4    1  0.4840996E-002  0.4679414E+03  0.7818608E-02  0.1022503E+00
         21   -1    0    0  501  502  0.00000000000E+00  0.00000000000E+00  0.28598202403E+03  0.28598202403E+03  0.00000000000E+00 0.  1.
         21   -1    0    0  502  503 -0.00000000000E+00 -0.00000000000E+00 -0.81713332980E+03  0.81713332980E+03  0.00000000000E+00 0.  1.
    9000005    1    1    2  501    0  0.22697797767E+03  0.86314186416E+02 -0.12716342614E+03  0.48491203127E+03  0.40000000000E+03 0.  1.
   -9000005    1    1    2    0  503 -0.22697797767E+03 -0.86314186416E+02 -0.40398787964E+03  0.61820332256E+03  0.40000000000E+03 0.  1.
<mgrwt>
<rscale>  2 0.46794139E+03</rscale>
<asrwt>0</asrwt>
<pdfrwt beam="1">  1       21 0.43997235E-01 0.46794139E+03</pdfrwt>
<pdfrwt beam="2">  1       21 0.12571282E+00 0.46794139E+03</pdfrwt>
<totfact> 0.19933688E+03</totfact>
</mgrwt>
</event>
<event>
 4    1  0.4840996E-002  0.4478654E+03  0.7818608E-02  0.1028361E+00
         21   -1    0    0  503  502  0.00000000000E+00  0.00000000000E+00  0.10430538257E+04  0.10430538257E+04  0.00000000000E+00 0.  1.
         21   -1    0    0  501  503 -0.00000000000E+00 -0.00000000000E+00 -0.28876254968E+03  0.28876254968E+03  0.00000000000E+00 0.  1.
    9000005    1    1    2  501    0 -0.41337936026E+02  0.19716632656E+03 -0.77246332278E+01  0.44793197613E+03  0.40000000000E+03 0.  1.
   -9000005    1    1    2    0  502  0.41337936026E+02 -0.19716632656E+03  0.76201590922E+03  0.88388439923E+03  0.40000000000E+03 0.  1.
<mgrwt>
<rscale>  2 0.44786537E+03</rscale>
<asrwt>0</asrwt>
<pdfrwt beam="1">  1       21 0.16046982E+00 0.44786537E+03</pdfrwt>
<pdfrwt beam="2">  1       21 0.44425008E-01 0.44786537E+03</pdfrwt>
<totfact> 0.10254329E+03</totfact>
</mgrwt>
</event>
<event>
 4    1  0.4840996E-002  0.5166262E+03  0.7818608E-02  0.1009528E+00
         21   -1    0    0  503  502  0.00000000000E+00  0.00000000000E+00  0.42423748296E+03  0.42423748296E+03  0.00000000000E+00 0. -1.
         21   -1    0    0  501  503 -0.00000000000E+00 -0.00000000000E+00 -0.73049290169E+03  0.73049290169E+03  0.00000000000E+00 0. -1.
    9000005    1    1    2  501    0  0.61826019628E+02 -0.32106094789E+03  0.61938264946E+02  0.52032579950E+03  0.40000000000E+03 0. -1.
   -9000005    1    1    2    0  502 -0.61826019628E+02  0.32106094789E+03 -0.36819368367E+03  0.63440458515E+03  0.40000000000E+03 0. -1.
<mgrwt>
<rscale>  2 0.51662616E+03</rscale>
<asrwt>0</asrwt>
<pdfrwt beam="1">  1       21 0.65267306E-01 0.51662616E+03</pdfrwt>
<pdfrwt beam="2">  1       21 0.11238352E+00 0.51662616E+03</pdfrwt>
<totfact> 0.11121339E+03</totfact>
</mgrwt>
</event>
<event>
 4    1  0.4840996E-002  0.4178630E+03  0.7818608E-02  0.1037764E+00
         21   -1    0    0  503  502  0.00000000000E+00  0.00000000000E+00  0.16958197581E+04  0.16958197581E+04  0.00000000000E+00 0. -1.
         21   -1    0    0  501  503 -0.00000000000E+00 -0.00000000000E+00 -0.10895244471E+03  0.10895244471E+03  0.00000000000E+00 0. -1.
    9000005    1    1    2  501    0  0.68419837471E+02  0.99640552510E+02  0.10049806236E+04  0.10883912751E+04  0.40000000000E+03 0.  1.
   -9000005    1    1    2    0  502 -0.68419837471E+02 -0.99640552510E+02  0.58188668976E+03  0.71638092771E+03  0.40000000000E+03 0.  1.
<mgrwt>
<rscale>  2 0.41786303E+03</rscale>
<asrwt>0</asrwt>
<pdfrwt beam="1">  1       21 0.26089533E+00 0.41786303E+03</pdfrwt>
<pdfrwt beam="2">  1       21 0.16761916E-01 0.41786303E+03</pdfrwt>
<totfact> 0.15407404E+03</totfact>
</mgrwt>
</event>
<event>
 4    1  0.4840996E-002  0.4141581E+03  0.7818608E-02  0.1038985E+00
         21   -1    0    0  503  502  0.00000000000E+00  0.00000000000E+00  0.14520626452E+04  0.14520626452E+04  0.00000000000E+00 0.  1.
         21   -1    0    0  501  503 -0.00000000000E+00 -0.00000000000E+00 -0.53833922495E+03  0.53833922495E+03  0.00000000000E+00 0.  1.
    9000005    1    1    2  501    0 -0.77417943828E+02  0.74386836703E+02 -0.42239848371E+03  0.59156353719E+03  0.40000000000E+03 0.  1.
   -9000005    1    1    2    0  502  0.77417943828E+02 -0.74386836703E+02  0.13361219039E+04  0.13988383329E+04  0.40000000000E+03 0.  1.
<mgrwt>
<rscale>  2 0.41415811E+03</rscale>
<asrwt>0</asrwt>
<pdfrwt beam="1">  1       21 0.22339425E+00 0.41415811E+03</pdfrwt>
<pdfrwt beam="2">  1       21 0.82821420E-01 0.41415811E+03</pdfrwt>
<totfact> 0.98561074E+01</totfact>
</mgrwt>
</event>
<event>
 4    1  0.4840996E-002  0.4025878E+03  0.7818608E-02  0.1042887E+00
         21   -1    0    0  501  502  0.00000000000E+00  0.00000000000E+00  0.51073229934E+03  0.51073229934E+03  0.00000000000E+00 0.  1.
         21   -1    0    0  502  503 -0.00000000000E+00 -0.00000000000E+00 -0.35081588566E+03  0.35081588566E+03  0.00000000000E+00 0.  1.
    9000005    1    1    2  501    0  0.43913777081E+02  0.12185874332E+02 -0.53106128308E+02  0.40607533318E+03  0.40000000000E+03 0.  1.
   -9000005    1    1    2    0  503 -0.43913777081E+02 -0.12185874332E+02  0.21302254199E+03  0.45547285182E+03  0.40000000000E+03 0.  1.
<mgrwt>
<rscale>  2 0.40258777E+03</rscale>
<asrwt>0</asrwt>
<pdfrwt beam="1">  1       21 0.78574200E-01 0.40258777E+03</pdfrwt>
<pdfrwt beam="2">  1       21 0.53971675E-01 0.40258777E+03</pdfrwt>
<totfact> 0.41433846E+03</totfact>
</mgrwt>
</event>
<event>
 4    1  0.4840996E-002  0.5310624E+03  0.7818608E-02  0.1005975E+00
         21   -1    0    0  501  502  0.00000000000E+00  0.00000000000E+00  0.57438932304E+03  0.57438932304E+03  0.00000000000E+00 0.  1.
         21   -1    0    0  502  503 -0.00000000000E+00 -0.00000000000E+00 -0.11802378365E+04  0.11802378365E+04  0.00000000000E+00 0.  1.
    9000005    1    1    2  501    0  0.27857938624E+03  0.21076241097E+03  0.36750580973E+03  0.64582334156E+03  0.40000000000E+03 0.  1.
   -9000005    1    1    2    0  503 -0.27857938624E+03 -0.21076241097E+03 -0.97335432323E+03  0.11088038180E+04  0.40000000000E+03 0.  1.
<mgrwt>
<rscale>  2 0.53106240E+03</rscale>
<asrwt>0</asrwt>
<pdfrwt beam="1">  1       21 0.88367589E-01 0.53106240E+03</pdfrwt>
<pdfrwt beam="2">  1       21 0.18157505E+00 0.53106240E+03</pdfrwt>
<totfact> 0.15094918E+02</totfact>
</mgrwt>
</event>
<event>
 4    1  0.4840996E-002  0.4050629E+03  0.7818608E-02  0.1042041E+00
         21   -1    0    0  503  502  0.00000000000E+00  0.00000000000E+00  0.21764633165E+03  0.21764633165E+03  0.00000000000E+00 0.  1.
         21   -1    0    0  501  503 -0.00000000000E+00 -0.00000000000E+00 -0.80099356312E+03  0.80099356312E+03  0.00000000000E+00 0.  1.
    9000005    1    1    2  501    0  0.39468122443E+02  0.50182243065E+02 -0.41521642117E+03  0.58006953602E+03  0.40000000000E+03 0.  1.
   -9000005    1    1    2    0  502 -0.39468122443E+02 -0.50182243065E+02 -0.16813081029E+03  0.43857035875E+03  0.40000000000E+03 0.  1.
<mgrwt>
<rscale>  2 0.40506295E+03</rscale>
<asrwt>0</asrwt>
<pdfrwt beam="1">  1       21 0.33484051E-01 0.40506295E+03</pdfrwt>
<pdfrwt beam="2">  1       21 0.12322978E+00 0.40506295E+03</pdfrwt>
<totfact> 0.37591015E+03</totfact>
</mgrwt>
</event>
<event>
 4    1  0.4840996E-002  0.4446243E+03  0.7818608E-02  0.1029337E+00
         21   -1    0    0  503  502  0.00000000000E+00  0.00000000000E+00  0.12200332081E+04  0.12200332081E+04  0.00000000000E+00 0.  1.
         21   -1    0    0  501  503 -0.00000000000E+00 -0.00000000000E+00 -0.20634728204E+03  0.20634728204E+03  0.00000000000E+00 0.  1.
    9000005    1    1    2  501    0  0.14047985747E+03  0.13400052567E+03  0.17635364235E+03  0.47832137565E+03  0.40000000000E+03 0.  1.
   -9000005    1    1    2    0  502 -0.14047985747E+03 -0.13400052567E+03  0.83733228366E+03  0.94805911445E+03  0.40000000000E+03 0.  1.
<mgrwt>
<rscale>  2 0.44462426E+03</rscale>
<asrwt>0</asrwt>
<pdfrwt beam="1">  1       21 0.18769741E+00 0.44462426E+03</pdfrwt>
<pdfrwt beam="2">  1       21 0.31745736E-01 0.44462426E+03</pdfrwt>
<totfact> 0.12999370E+03</totfact>
</mgrwt>
</event>
<event>
 4    1  0.4840996E-002  0.4126911E+03  0.7818608E-02  0.1039472E+00
         21   -1    0    0  503  502  0.00000000000E+00  0.00000000000E+00  0.37997731745E+03  0.37997731745E+03  0.00000000000E+00 0.  1.
         21   -1    0    0  501  503 -0.00000000000E+00 -0.00000000000E+00 -0.95512341092E+03  0.95512341092E+03  0.00000000000E+00 0.  1.
    9000005    1    1    2  501    0  0.60078761601E+02 -0.81881130170E+02 -0.77388650202E+03  0.87704862755E+03  0.40000000000E+03 0.  1.
   -9000005    1    1    2    0  502 -0.60078761601E+02  0.81881130170E+02  0.19874040855E+03  0.45805210082E+03  0.40000000000E+03 0.  1.
<mgrwt>
<rscale>  2 0.41269114E+03</rscale>
<asrwt>0</asrwt>
<pdfrwt beam="1">  1       21 0.58458050E-01 0.41269114E+03</pdfrwt>
<pdfrwt beam="2">  1       21 0.14694206E+00 0.41269114E+03</pdfrwt>
<totfact> 0.73853451E+02</totfact>
</mgrwt>
</event>
<event>
 4    1  0.4840996E-002  0.4677336E+03  0.7818608E-02  0.1022562E+00
         21   -1    0    0  501  502  0.00000000000E+00  0.00000000000E+00  0.43252829243E+03  0.43252829243E+03  0.00000000000E+00 0. -1.
         21   -1    0    0  502  503 -0.00000000000E+00 -0.00000000000E+00 -0.19841681617E+04  0.19841681617E+04  0.00000000000E+00 0. -1.
    9000005    1    1    2  501    0 -0.23601600271E+03  0.55417828841E+02  0.26720222002E+03  0.53867589112E+03  0.40000000000E+03 0. -1.
   -9000005    1    1    2    0  503  0.23601600271E+03 -0.55417828841E+02 -0.18188420892E+04  0.18780205630E+04  0.40000000000E+03 0. -1.
<mgrwt>
<rscale>  2 0.46773357E+03</rscale>
<asrwt>0</asrwt>
<pdfrwt beam="1">  1       21 0.66542814E-01 0.46773357E+03</pdfrwt>
<pdfrwt beam="2">  1       21 0.30525664E+00 0.46773357E+03</pdfrwt>
<totfact> 0.49573083E+01</totfact>
</mgrwt>
</event>
<event>
 4    1  0.4840996E-002  0.4411846E+03  0.7818608E-02  0.1030384E+00
         21   -1    0    0  503  502  0.00000000000E+00  0.00000000000E+00  0.26684222886E+03  0.26684222886E+03  0.00000000000E+00 0.  1.
         21   -1    0    0  501  503 -0.00000000000E+00 -0.00000000000E+00 -0.83146756451E+03  0.83146756451E+03  0.00000000000E+00 0.  1.
    9000005    1    1    2  501    0 -0.18608254617E+03  0.41407210784E+01 -0.47468526746E+03  0.64805089515E+03  0.40000000000E+03 0.  1.
   -9000005    1    1    2    0  502  0.18608254617E+03 -0.41407210784E+01 -0.89940068196E+02  0.45025889822E+03  0.40000000000E+03 0.  1.
<mgrwt>
<rscale>  2 0.44118461E+03</rscale>
<asrwt>0</asrwt>
<pdfrwt beam="1">  1       21 0.41052650E-01 0.44118461E+03</pdfrwt>
<pdfrwt beam="2">  1       21 0.12791809E+00 0.44118461E+03</pdfrwt>
<totfact> 0.22235349E+03</totfact>
</mgrwt>
</event>
<event>
 4    1  0.4840996E-002  0.5016490E+03  0.7818608E-02  0.1013349E+00
         21   -1    0    0  503  502  0.00000000000E+00  0.00000000000E+00  0.21052677558E+04  0.21052677558E+04  0.00000000000E+00 0. -1.
         21   -1    0    0  501  503 -0.00000000000E+00 -0.00000000000E+00 -0.16688939522E+03  0.16688939522E+03  0.00000000000E+00 0. -1.
    9000005    1    1    2  501    0 -0.18301669431E+03 -0.24115688587E+03  0.36401936893E+03  0.61980791779E+03  0.40000000000E+03 0. -1.
   -9000005    1    1    2    0  502  0.18301669431E+03  0.24115688587E+03  0.15743589917E+04  0.16523492333E+04  0.40000000000E+03 0. -1.
<mgrwt>
<rscale>  2 0.50164903E+03</rscale>
<asrwt>0</asrwt>
<pdfrwt beam="1">  1       21 0.32388733E+00 0.50164903E+03</pdfrwt>
<pdfrwt beam="2">  1       21 0.25675293E-01 0.50164903E+03</pdfrwt>
<totfact> 0.27158734E+02</totfact>
</mgrwt>
</event>
<event>
 4    1  0.4840996E-002  0.4909737E+03  0.7818608E-02  0.1016162E+00
         21   -1    0    0  501  502  0.00000000000E+00  0.00000000000E+00  0.47181981039E+03  0.47181981039E+03  0.00000000000E+00 0. -1.
         21   -1    0    0  502  503 -0.00000000000E+00 -0.00000000000E+00 -0.54196383163E+03  0.54196383163E+03  0.00000000000E+00 0.  1.
    9000005    1    1    2  501    0  0.12262897509E+03 -0.25693834725E+03  0.86272884108E+02  0.49849592812E+03  0.40000000000E+03 0. -1.
   -9000005    1    1    2    0  503 -0.12262897509E+03  0.25693834725E+03 -0.15641690534E+03  0.51528771390E+03  0.40000000000E+03 0.  1.
<mgrwt>
<rscale>  2 0.49097371E+03</rscale>
<asrwt>0</asrwt>
<pdfrwt beam="1">  1       21 0.72587663E-01 0.49097371E+03</pdfrwt>
<pdfrwt beam="2">  1       21 0.83379051E-01 0.49097371E+03</pdfrwt>
<totfact> 0.18180792E+03</totfact>
</mgrwt>
</event>
<event>
 4    1  0.4840996E-002  0.5261963E+03  0.7818608E-02  0.1007159E+00
         21   -1    0    0  503  502  0.00000000000E+00  0.00000000000E+00  0.37516399315E+03  0.37516399315E+03  0.00000000000E+00 0.  1.
         21   -1    0    0  501  503 -0.00000000000E+00 -0.00000000000E+00 -0.92622616382E+03  0.92622616382E+03  0.00000000000E+00 0.  1.
    9000005    1    1    2  501    0 -0.26599567565E+03  0.21477615484E+03 -0.56883896059E+03  0.77489370835E+03  0.40000000000E+03 0.  1.
   -9000005    1    1    2    0  502  0.26599567565E+03 -0.21477615484E+03  0.17776789912E+02  0.52649644862E+03  0.40000000000E+03 0.  1.
<mgrwt>
<rscale>  2 0.52619625E+03</rscale>
<asrwt>0</asrwt>
<pdfrwt beam="1">  1       21 0.57717538E-01 0.52619625E+03</pdfrwt>
<pdfrwt beam="2">  1       21 0.14249633E+00 0.52619625E+03</pdfrwt>
<totfact> 0.78621597E+02</totfact>
</mgrwt>
</event>
<event>
 4    1  0.4840996E-002  0.4425707E+03  0.7818608E-02  0.1029961E+00
         21   -1    0    0  501  502  0.00000000000E+00  0.00000000000E+00  0.15480639400E+04  0.15480639400E+04  0.00000000000E+00 0. -1.
         21   -1    0    0  502  503 -0.00000000000E+00 -0.00000000000E+00 -0.29493725815E+03  0.29493725815E+03  0.00000000000E+00 0. -1.
    9000005    1    1    2  501    0 -0.15795929510E+03 -0.10448782427E+03  0.13228973503E+04  0.13949646031E+04  0.40000000000E+03 0. -1.
   -9000005    1    1    2    0  503  0.15795929510E+03  0.10448782427E+03 -0.69770668490E+02  0.44803659506E+03  0.40000000000E+03 0. -1.
<mgrwt>
<rscale>  2 0.44257072E+03</rscale>
<asrwt>0</asrwt>
<pdfrwt beam="1">  1       21 0.23816368E+00 0.44257072E+03</pdfrwt>
<pdfrwt beam="2">  1       21 0.45374964E-01 0.44257072E+03</pdfrwt>
<totfact> 0.29435200E+02</totfact>
</mgrwt>
</event>
<event>
 4    1  0.4840996E-002  0.6941584E+03  0.7818608E-02  0.9727275E-01
         21   -1    0    0  501  502  0.00000000000E+00  0.00000000000E+00  0.92650154824E+03  0.92650154824E+03  0.00000000000E+00 0. -1.
         21   -1    0    0  502  503 -0.00000000000E+00 -0.00000000000E+00 -0.64764636391E+03  0.64764636391E+03  0.00000000000E+00 0.  1.
    9000005    1    1    2  501    0 -0.38096368878E+03 -0.42038382772E+03 -0.20988390750E+03  0.72519455969E+03  0.40000000000E+03 0.  1.
   -9000005    1    1    2    0  503  0.38096368878E+03  0.42038382772E+03  0.48873909183E+03  0.84895335246E+03  0.40000000000E+03 0. -1.
<mgrwt>
<rscale>  2 0.69415841E+03</rscale>
<asrwt>0</asrwt>
<pdfrwt beam="1">  1       21 0.14253870E+00 0.69415841E+03</pdfrwt>
<pdfrwt beam="2">  1       21 0.99637902E-01 0.69415841E+03</pdfrwt>
<totfact> 0.21051936E+02</totfact>
</mgrwt>
</event>
<event>
 4    1  0.4840996E-002  0.4652888E+03  0.7818608E-02  0.1023258E+00
         21   -1    0    0  501  502  0.00000000000E+00  0.00000000000E+00  0.30441473901E+03  0.30441473901E+03  0.00000000000E+00 0. -1.
         21   -1    0    0  502  503 -0.00000000000E+00 -0.00000000000E+00 -0.73465882802E+03  0.73465882802E+03  0.00000000000E+00 0. -1.
    9000005    1    1    2  501    0  0.10028252060E+03  0.21549263886E+03 -0.12224421767E+03  0.48107931788E+03  0.40000000000E+03 0. -1.
   -9000005    1    1    2    0  503 -0.10028252060E+03 -0.21549263886E+03 -0.30799987134E+03  0.55799424915E+03  0.40000000000E+03 0. -1.
<mgrwt>
<rscale>  2 0.46528879E+03</rscale>
<asrwt>0</asrwt>
<pdfrwt beam="1">  1       21 0.46833037E-01 0.46528879E+03</pdfrwt>
<pdfrwt beam="2">  1       21 0.11302444E+00 0.46528879E+03</pdfrwt>
<totfact> 0.22923684E+03</totfact>
</mgrwt>
</event>
<event>
 4    1  0.4840996E-002  0.6248200E+03  0.7818608E-02  0.9855210E-01
         21   -1    0    0  501  502  0.00000000000E+00  0.00000000000E+00  0.62429541048E+03  0.62429541048E+03  0.00000000000E+00 0.  1.
         21   -1    0    0  502  503 -0.00000000000E+00 -0.00000000000E+00 -0.88443727142E+03  0.88443727142E+03  0.00000000000E+00 0. -1.
    9000005    1    1    2  501    0 -0.43072832831E+03 -0.21183279232E+03 -0.53836775142E+03  0.82476654908E+03  0.40000000000E+03 0.  1.
   -9000005    1    1    2    0  503  0.43072832831E+03  0.21183279232E+03  0.27822589049E+03  0.68396613282E+03  0.40000000000E+03 0.  1.
<mgrwt>
<rscale>  2 0.62481999E+03</rscale>
<asrwt>0</asrwt>
<pdfrwt beam="1">  1       21 0.96045447E-01 0.62481999E+03</pdfrwt>
<pdfrwt beam="2">  1       21 0.13606727E+00 0.62481999E+03</pdfrwt>
<totfact> 0.26687543E+02</totfact>
</mgrwt>
</event>
<event>
 4    1  0.4840996E-002  0.4279503E+03  0.7818608E-02  0.1034509E+00
         21   -1    0    0  503  502  0.00000000000E+00  0.00000000000E+00  0.82085826407E+03  0.82085826407E+03  0.00000000000E+00 0.  1.
         21   -1    0    0  501  503 -0.00000000000E+00 -0.00000000000E+00 -0.23021367315E+03  0.23021367315E+03  0.00000000000E+00 0.  1.
    9000005    1    1    2  501    0  0.14535073972E+03  0.44884913003E+02  0.38764013041E+03  0.57741351184E+03  0.40000000000E+03 0.  1.
   -9000005    1    1    2    0  502 -0.14535073972E+03 -0.44884913003E+02  0.20300446051E+03  0.47365842539E+03  0.40000000000E+03 0.  1.
<mgrwt>
<rscale>  2 0.42795034E+03</rscale>
<asrwt>0</asrwt>
<pdfrwt beam="1">  1       21 0.12628589E+00 0.42795034E+03</pdfrwt>
<pdfrwt beam="2">  1       21 0.35417489E-01 0.42795034E+03</pdfrwt>
<totfact> 0.31244568E+03</totfact>
</mgrwt>
</event>
<event>
 4    1  0.4840996E-002  0.5217460E+03  0.7818608E-02  0.1008254E+00
         21   -1    0    0  501  502  0.00000000000E+00  0.00000000000E+00  0.59383171827E+03  0.59383171827E+03  0.00000000000E+00 0.  1.
         21   -1    0    0  502  503 -0.00000000000E+00 -0.00000000000E+00 -0.45920632799E+03  0.45920632799E+03  0.00000000000E+00 0. -1.
    9000005    1    1    2  501    0  0.73642563870E+02 -0.32679598984E+03  0.89228135848E+02  0.52932079726E+03  0.40000000000E+03 0. -1.
   -9000005    1    1    2    0  503 -0.73642563870E+02  0.32679598984E+03  0.45397254425E+02  0.52371724900E+03  0.40000000000E+03 0.  1.
<mgrwt>
<rscale>  2 0.52174596E+03</rscale>
<asrwt>0</asrwt>
<pdfrwt beam="1">  1       21 0.91358725E-01 0.52174596E+03</pdfrwt>
<pdfrwt beam="2">  1       21 0.70647128E-01 0.52174596E+03</pdfrwt>
<totfact> 0.15421616E+03</totfact>
</mgrwt>
</event>
<event>
 4    1  0.4840996E-002  0.4173887E+03  0.7818608E-02  0.1037920E+00
         21   -1    0    0  503  502  0.00000000000E+00  0.00000000000E+00  0.42025913941E+03  0.42025913941E+03  0.00000000000E+00 0. -1.
         21   -1    0    0  501  503 -0.00000000000E+00 -0.00000000000E+00 -0.42808012206E+03  0.42808012206E+03  0.00000000000E+00 0. -1.
    9000005    1    1    2  501    0 -0.11921708587E+03 -0.78072338224E+00 -0.79354141573E+02  0.42486515846E+03  0.40000000000E+03 0.  1.
   -9000005    1    1    2    0  502  0.11921708587E+03  0.78072338224E+00  0.71533158915E+02  0.42347410301E+03  0.40000000000E+03 0.  1.
<mgrwt>
<rscale>  2 0.41738870E+03</rscale>
<asrwt>0</asrwt>
<pdfrwt beam="1">  1       21 0.64655252E-01 0.41738870E+03</pdfrwt>
<pdfrwt beam="2">  1       21 0.65858480E-01 0.41738870E+03</pdfrwt>
<totfact> 0.41404186E+03</totfact>
</mgrwt>
</event>
<event>
 4    1  0.4840996E-002  0.4150571E+03  0.7818608E-02  0.1038687E+00
         21   -1    0    0  503  502  0.00000000000E+00  0.00000000000E+00  0.53357833147E+03  0.53357833147E+03  0.00000000000E+00 0.  1.
         21   -1    0    0  501  503 -0.00000000000E+00 -0.00000000000E+00 -0.32425943138E+03  0.32425943138E+03  0.00000000000E+00 0.  1.
    9000005    1    1    2  501    0 -0.32774866340E+02 -0.10582139266E+03  0.76505570272E+02  0.42204912189E+03  0.40000000000E+03 0. -1.
   -9000005    1    1    2    0  502  0.32774866340E+02  0.10582139266E+03  0.13281332982E+03  0.43578864096E+03  0.40000000000E+03 0. -1.
<mgrwt>
<rscale>  2 0.41505706E+03</rscale>
<asrwt>0</asrwt>
<pdfrwt beam="1">  1       21 0.82088974E-01 0.41505706E+03</pdfrwt>
<pdfrwt beam="2">  1       21 0.49886066E-01 0.41505706E+03</pdfrwt>
<totfact> 0.44103466E+03</totfact>
</mgrwt>
</event>
<event>
 4    1  0.4840996E-002  0.5466843E+03  0.7818608E-02  0.1002264E+00
         21   -1    0    0  501  502  0.00000000000E+00  0.00000000000E+00  0.11159795540E+04  0.11159795540E+04  0.00000000000E+00 0.  1.
         21   -1    0    0  502  503 -0.00000000000E+00 -0.00000000000E+00 -0.70961715970E+03  0.70961715970E+03  0.00000000000E+00 0. -1.
    9000005    1    1    2  501    0  0.21929019412E+03 -0.30128984213E+03  0.92342931534E+03  0.10731194988E+04  0.40000000000E+03 0.  1.
   -9000005    1    1    2    0  503 -0.21929019412E+03  0.30128984213E+03 -0.51706692102E+03  0.75247721495E+03  0.40000000000E+03 0. -1.
<mgrwt>
<rscale>  2 0.54668433E+03</rscale>
<asrwt>0</asrwt>
<pdfrwt beam="1">  1       21 0.17168916E+00 0.54668433E+03</pdfrwt>
<pdfrwt beam="2">  1       21 0.10917187E+00 0.54668433E+03</pdfrwt>
<totfact> 0.10556774E+02</totfact>
</mgrwt>
</event>
<event>
 4    1  0.4840996E-002  0.4193869E+03  0.7818608E-02  0.1037266E+00
         21   -1    0    0  501  502  0.00000000000E+00  0.00000000000E+00  0.16027876796E+03  0.16027876796E+03  0.00000000000E+00 0. -1.
         21   -1    0    0  502  503 -0.00000000000E+00 -0.00000000000E+00 -0.18136399029E+04  0.18136399029E+04  0.00000000000E+00 0. -1.
    9000005    1    1    2  501    0 -0.11858272694E+03  0.42702525654E+02 -0.20643796536E+03  0.46744197754E+03  0.40000000000E+03 0. -1.
   -9000005    1    1    2    0  503  0.11858272694E+03 -0.42702525654E+02 -0.14469231696E+04  0.15064766933E+04  0.40000000000E+03 0. -1.
<mgrwt>
<rscale>  2 0.41938690E+03</rscale>
<asrwt>0</asrwt>
<pdfrwt beam="1">  1       21 0.24658272E-01 0.41938690E+03</pdfrwt>
<pdfrwt beam="2">  1       21 0.27902153E+00 0.41938690E+03</pdfrwt>
<totfact> 0.57388372E+02</totfact>
</mgrwt>
</event>
<event>
 4    1  0.4840996E-002  0.4570779E+03  0.7818608E-02  0.1025632E+00
         21   -1    0    0  503  502  0.00000000000E+00  0.00000000000E+00  0.11340353323E+03  0.11340353323E+03  0.00000000000E+00 0.  1.
         21   -1    0    0  501  503 -0.00000000000E+00 -0.00000000000E+00 -0.25335904489E+04  0.25335904489E+04  0.00000000000E+00 0. -1.
    9000005    1    1    2  501    0 -0.13376825491E+03 -0.17614270584E+03 -0.19014366663E+04  0.19556026168E+04  0.40000000000E+03 0. -1.
   -9000005    1    1    2    0  502  0.13376825491E+03  0.17614270584E+03 -0.51875024937E+03  0.69139136534E+03  0.40000000000E+03 0.  1.
<mgrwt>
<rscale>  2 0.45707789E+03</rscale>
<asrwt>0</asrwt>
<pdfrwt beam="1">  1       21 0.17446697E-01 0.45707789E+03</pdfrwt>
<pdfrwt beam="2">  1       21 0.38978314E+00 0.45707789E+03</pdfrwt>
<totfact> 0.22861384E+02</totfact>
</mgrwt>
</event>
<event>
 4    1  0.4840996E-002  0.5537811E+03  0.7818608E-02  0.1000623E+00
         21   -1    0    0  503  502  0.00000000000E+00  0.00000000000E+00  0.15114855509E+03  0.15114855509E+03  0.00000000000E+00 0. -1.
         21   -1    0    0  501  503 -0.00000000000E+00 -0.00000000000E+00 -0.20343324372E+04  0.20343324372E+04  0.00000000000E+00 0. -1.
    9000005    1    1    2  501    0 -0.16898444046E+03  0.34368270589E+03 -0.88540785905E+03  0.10443278318E+04  0.40000000000E+03 0. -1.
   -9000005    1    1    2    0  502  0.16898444046E+03 -0.34368270589E+03 -0.99777602302E+03  0.11411531604E+04  0.40000000000E+03 0. -1.
<mgrwt>
<rscale>  2 0.55378113E+03</rscale>
<asrwt>0</asrwt>
<pdfrwt beam="1">  1       21 0.23253623E-01 0.55378113E+03</pdfrwt>
<pdfrwt beam="2">  1       21 0.31297423E+00 0.55378113E+03</pdfrwt>
<totfact> 0.37380818E+02</totfact>
</mgrwt>
</event>
<event>
 4    1  0.4840996E-002  0.7117715E+03  0.7818608E-02  0.9697310E-01
         21   -1    0    0  501  502  0.00000000000E+00  0.00000000000E+00  0.12603375583E+04  0.12603375583E+04  0.00000000000E+00 0. -1.
         21   -1    0    0  502  503 -0.00000000000E+00 -0.00000000000E+00 -0.60446096299E+03  0.60446096299E+03  0.00000000000E+00 0. -1.
    9000005    1    1    2  501    0  0.49586962804E+03 -0.31738306881E+03  0.86759791738E+03  0.11222053496E+04  0.40000000000E+03 0. -1.
   -9000005    1    1    2    0  503 -0.49586962804E+03  0.31738306881E+03 -0.21172132211E+03  0.74259317167E+03  0.40000000000E+03 0. -1.
<mgrwt>
<rscale>  2 0.71177152E+03</rscale>
<asrwt>0</asrwt>
<pdfrwt beam="1">  1       21 0.19389809E+00 0.71177152E+03</pdfrwt>
<pdfrwt beam="2">  1       21 0.92993995E-01 0.71177152E+03</pdfrwt>
<totfact> 0.10211451E+02</totfact>
</mgrwt>
</event>
<event>
 4    1  0.4840996E-002  0.4439868E+03  0.7818608E-02  0.1029531E+00
         21   -1    0    0  501  502  0.00000000000E+00  0.00000000000E+00  0.37381183062E+03  0.37381183062E+03  0.00000000000E+00 0.  1.
         21   -1    0    0  502  503 -0.00000000000E+00 -0.00000000000E+00 -0.53005663364E+03  0.53005663364E+03  0.00000000000E+00 0.  1.
    9000005    1    1    2  501    0  0.13076553471E+03  0.14150859800E+03 -0.45742443739E+02  0.44633695739E+03  0.40000000000E+03 0.  1.
   -9000005    1    1    2    0  503 -0.13076553471E+03 -0.14150859800E+03 -0.11050235928E+03  0.45753150687E+03  0.40000000000E+03 0.  1.
<mgrwt>
<rscale>  2 0.44398683E+03</rscale>
<asrwt>0</asrwt>
<pdfrwt beam="1">  1       21 0.57509513E-01 0.44398683E+03</pdfrwt>
<pdfrwt beam="2">  1       21 0.81547174E-01 0.44398683E+03</pdfrwt>
<totfact> 0.32657964E+03</totfact>
</mgrwt>
</event>
<event>
 4    1  0.4840996E-002  0.5468307E+03  0.7818608E-02  0.1002230E+00
         21   -1    0    0  501  502  0.00000000000E+00  0.00000000000E+00  0.22381774592E+03  0.22381774592E+03  0.00000000000E+00 0. -1.
         21   -1    0    0  502  503 -0.00000000000E+00 -0.00000000000E+00 -0.15088058192E+04  0.15088058192E+04  0.00000000000E+00 0.  1.
    9000005    1    1    2  501    0 -0.13667603147E+03  0.34690560108E+03 -0.34932502798E+03  0.64888505054E+03  0.40000000000E+03 0. -1.
   -9000005    1    1    2    0  503  0.13667603147E+03 -0.34690560108E+03 -0.93566304529E+03  0.10837385146E+04  0.40000000000E+03 0.  1.
<mgrwt>
<rscale>  2 0.54683072E+03</rscale>
<asrwt>0</asrwt>
<pdfrwt beam="1">  1       21 0.34433500E-01 0.54683072E+03</pdfrwt>
<pdfrwt beam="2">  1       21 0.23212397E+00 0.54683072E+03</pdfrwt>
<totfact> 0.53960073E+02</totfact>
</mgrwt>
</event>
<event>
 4    1  0.4840996E-002  0.4164340E+03  0.7818608E-02  0.1038233E+00
         21   -1    0    0  501  502  0.00000000000E+00  0.00000000000E+00  0.37696479461E+03  0.37696479461E+03  0.00000000000E+00 0.  1.
         21   -1    0    0  502  503 -0.00000000000E+00 -0.00000000000E+00 -0.50992797288E+03  0.50992797288E+03  0.00000000000E+00 0.  1.
    9000005    1    1    2  501    0 -0.11510529516E+03 -0.12964207233E+02  0.72226862134E+02  0.42265117917E+03  0.40000000000E+03 0.  1.
   -9000005    1    1    2    0  503  0.11510529516E+03  0.12964207233E+02 -0.20519004040E+03  0.46424158832E+03  0.40000000000E+03 0.  1.
<mgrwt>
<rscale>  2 0.41643403E+03</rscale>
<asrwt>0</asrwt>
<pdfrwt beam="1">  1       21 0.57994584E-01 0.41643403E+03</pdfrwt>
<pdfrwt beam="2">  1       21 0.78450458E-01 0.41643403E+03</pdfrwt>
<totfact> 0.35415726E+03</totfact>
</mgrwt>
</event>
<event>
 4    1  0.4840996E-002  0.4131338E+03  0.7818608E-02  0.1039324E+00
         21   -1    0    0  501  502  0.00000000000E+00  0.00000000000E+00  0.20723056618E+03  0.20723056618E+03  0.00000000000E+00 0. -1.
         21   -1    0    0  502  503 -0.00000000000E+00 -0.00000000000E+00 -0.10803462706E+04  0.10803462706E+04  0.00000000000E+00 0. -1.
    9000005    1    1    2  501    0  0.49328902480E+02 -0.90808638568E+02 -0.12272705538E+03  0.43097735391E+03  0.40000000000E+03 0. -1.
   -9000005    1    1    2    0  503 -0.49328902480E+02  0.90808638568E+02 -0.75038864907E+03  0.85659948290E+03  0.40000000000E+03 0. -1.
<mgrwt>
<rscale>  2 0.41313382E+03</rscale>
<asrwt>0</asrwt>
<pdfrwt beam="1">  1       21 0.31881626E-01 0.41313382E+03</pdfrwt>
<pdfrwt beam="2">  1       21 0.16620711E+00 0.41313382E+03</pdfrwt>
<totfact> 0.18578487E+03</totfact>
</mgrwt>
</event>
<event>
 4    1  0.4840996E-002  0.4185304E+03  0.7818608E-02  0.1037546E+00
         21   -1    0    0  501  502  0.00000000000E+00  0.00000000000E+00  0.48043747263E+03  0.48043747263E+03  0.00000000000E+00 0.  1.
         21   -1    0    0  502  503 -0.00000000000E+00 -0.00000000000E+00 -0.36880191407E+03  0.36880191407E+03  0.00000000000E+00 0. -1.
    9000005    1    1    2  501    0 -0.73167282314E+02  0.99066905911E+02  0.10113941356E+03  0.43057738448E+03  0.40000000000E+03 0.  1.
   -9000005    1    1    2    0  503  0.73167282314E+02 -0.99066905911E+02  0.10496144999E+02  0.41866200223E+03  0.40000000000E+03 0. -1.
<mgrwt>
<rscale>  2 0.41853041E+03</rscale>
<asrwt>0</asrwt>
<pdfrwt beam="1">  1       21 0.73913458E-01 0.41853041E+03</pdfrwt>
<pdfrwt beam="2">  1       21 0.56738756E-01 0.41853041E+03</pdfrwt>
<totfact> 0.42519906E+03</totfact>
</mgrwt>
</event>
<event>
 4    1  0.4840996E-002  0.5930149E+03  0.7818608E-02  0.9920005E-01
         21   -1    0    0  501  502  0.00000000000E+00  0.00000000000E+00  0.77013357336E+03  0.77013357336E+03  0.00000000000E+00 0. -1.
         21   -1    0    0  502  503 -0.00000000000E+00 -0.00000000000E+00 -0.69992886913E+03  0.69992886913E+03  0.00000000000E+00 0. -1.
    9000005    1    1    2  501    0 -0.23638379180E+03 -0.36849615096E+03 -0.39825699043E+03  0.71433559391E+03  0.40000000000E+03 0. -1.
   -9000005    1    1    2    0  503  0.23638379180E+03  0.36849615096E+03  0.46846169466E+03  0.75572684858E+03  0.40000000000E+03 0. -1.
<mgrwt>
<rscale>  2 0.59301493E+03</rscale>
<asrwt>0</asrwt>
<pdfrwt beam="1">  1       21 0.11848209E+00 0.59301493E+03</pdfrwt>
<pdfrwt beam="2">  1       21 0.10768136E+00 0.59301493E+03</pdfrwt>
<totfact> 0.29203432E+02</totfact>
</mgrwt>
</event>
<event>
 4    1  0.4840996E-002  0.4066709E+03  0.7818608E-02  0.1041494E+00
         21   -1    0    0  501  502  0.00000000000E+00  0.00000000000E+00  0.14866889222E+04  0.14866889222E+04  0.00000000000E+00 0. -1.
         21   -1    0    0  502  503 -0.00000000000E+00 -0.00000000000E+00 -0.42964814852E+03  0.42964814852E+03  0.00000000000E+00 0. -1.
    9000005    1    1    2  501    0  0.67745565987E+02 -0.28138095472E+02  0.13533735239E+04  0.14131528967E+04  0.40000000000E+03 0. -1.
   -9000005    1    1    2    0  503 -0.67745565987E+02  0.28138095472E+02 -0.29633275025E+03  0.50318417404E+03  0.40000000000E+03 0. -1.
<mgrwt>
<rscale>  2 0.40667089E+03</rscale>
<asrwt>0</asrwt>
<pdfrwt beam="1">  1       21 0.22872137E+00 0.40667089E+03</pdfrwt>
<pdfrwt beam="2">  1       21 0.66099716E-01 0.40667089E+03</pdfrwt>
<totfact> 0.15299392E+02</totfact>
</mgrwt>
</event>
<event>
 4    1  0.4840996E-002  0.6420941E+03  0.7818608E-02  0.9821728E-01
         21   -1    0    0  503  502  0.00000000000E+00  0.00000000000E+00  0.22822859051E+03  0.22822859051E+03  0.00000000000E+00 0. -1.
         21   -1    0    0  501  503 -0.00000000000E+00 -0.00000000000E+00 -0.18831338543E+04  0.18831338543E+04  0.00000000000E+00 0.  1.
    9000005    1    1    2  501    0  0.70636135845E+02  0.49728806848E+03 -0.61442917670E+03  0.88871148294E+03  0.40000000000E+03 0.  1.
   -9000005    1    1    2    0  502 -0.70636135845E+02 -0.49728806848E+03 -0.10404760871E+04  0.12226509618E+04  0.40000000000E+03 0.  1.
<mgrwt>
<rscale>  2 0.64209414E+03</rscale>
<asrwt>0</asrwt>
<pdfrwt beam="1">  1       21 0.35112090E-01 0.64209414E+03</pdfrwt>
<pdfrwt beam="2">  1       21 0.28971291E+00 0.64209414E+03</pdfrwt>
<totfact> 0.21973844E+02</totfact>
</mgrwt>
</event>
<event>
 4    1  0.4840996E-002  0.4009472E+03  0.7818608E-02  0.1043452E+00
         21   -1    0    0  501  502  0.00000000000E+00  0.00000000000E+00  0.34422586875E+03  0.34422586875E+03  0.00000000000E+00 0.  1.
         21   -1    0    0  502  503 -0.00000000000E+00 -0.00000000000E+00 -0.47144152424E+03  0.47144152424E+03  0.00000000000E+00 0.  1.
    9000005    1    1    2  501    0  0.29757852171E+01  0.27381973996E+02 -0.24089101731E+02  0.40167015401E+03  0.40000000000E+03 0. -1.
   -9000005    1    1    2    0  503 -0.29757852171E+01 -0.27381973996E+02 -0.10312655376E+03  0.41399723899E+03  0.40000000000E+03 0. -1.
<mgrwt>
<rscale>  2 0.40094716E+03</rscale>
<asrwt>0</asrwt>
<pdfrwt beam="1">  1       21 0.52957826E-01 0.40094716E+03</pdfrwt>
<pdfrwt beam="2">  1       21 0.72529465E-01 0.40094716E+03</pdfrwt>
<totfact> 0.51817496E+03</totfact>
</mgrwt>
</event>
<event>
 4    1  0.4840996E-002  0.6001390E+03  0.7818608E-02  0.9905118E-01
         21   -1    0    0  503  502  0.00000000000E+00  0.00000000000E+00  0.31094604056E+04  0.31094604056E+04  0.00000000000E+00 0. -1.
         21   -1    0    0  501  503 -0.00000000000E+00 -0.00000000000E+00 -0.69279503429E+03  0.69279503429E+03  0.00000000000E+00 0. -1.
    9000005    1    1    2  501    0  0.68726278605E+01 -0.44734729882E+03 -0.52660505970E+03  0.79842327601E+03  0.40000000000E+03 0. -1.
   -9000005    1    1    2    0  502 -0.68726278605E+01  0.44734729882E+03  0.29432704310E+04  0.30038321639E+04  0.40000000000E+03 0. -1.
<mgrwt>
<rscale>  2 0.60013902E+03</rscale>
<asrwt>0</asrwt>
<pdfrwt beam="1">  1       21 0.47837852E+00 0.60013902E+03</pdfrwt>
<pdfrwt beam="2">  1       21 0.10658385E+00 0.60013902E+03</pdfrwt>
<totfact> 0.11514408E+00</totfact>
</mgrwt>
</event>
<event>
 4    1  0.4840996E-002  0.8121826E+03  0.7818608E-02  0.9542549E-01
         21   -1    0    0  501  502  0.00000000000E+00  0.00000000000E+00  0.43889285977E+03  0.43889285977E+03  0.00000000000E+00 0. -1.
         21   -1    0    0  502  503 -0.00000000000E+00 -0.00000000000E+00 -0.15103143497E+04  0.15103143497E+04  0.00000000000E+00 0.  1.
    9000005    1    1    2  501    0 -0.12042370082E+03  0.69651895270E+03 -0.60369756156E+03  0.10119739448E+04  0.40000000000E+03 0. -1.
   -9000005    1    1    2    0  503  0.12042370082E+03 -0.69651895270E+03 -0.46772392836E+03  0.93723326464E+03  0.40000000000E+03 0. -1.
<mgrwt>
<rscale>  2 0.81218257E+03</rscale>
<asrwt>0</asrwt>
<pdfrwt beam="1">  1       21 0.67521979E-01 0.81218257E+03</pdfrwt>
<pdfrwt beam="2">  1       21 0.23235605E+00 0.81218257E+03</pdfrwt>
<totfact> 0.11605257E+02</totfact>
</mgrwt>
</event>
<event>
 4    1  0.4840996E-002  0.5610086E+03  0.7818608E-02  0.9989775E-01
         21   -1    0    0  501  502  0.00000000000E+00  0.00000000000E+00  0.28121501501E+03  0.28121501501E+03  0.00000000000E+00 0.  1.
         21   -1    0    0  502  503 -0.00000000000E+00 -0.00000000000E+00 -0.11858995820E+04  0.11858995820E+04  0.00000000000E+00 0. -1.
    9000005    1    1    2  501    0  0.12163755911E+03 -0.37407885000E+03 -0.27834943273E+03  0.62626598862E+03  0.40000000000E+03 0.  1.
   -9000005    1    1    2    0  503 -0.12163755911E+03  0.37407885000E+03 -0.62633513425E+03  0.84084860837E+03  0.40000000000E+03 0. -1.
<mgrwt>
<rscale>  2 0.56100863E+03</rscale>
<asrwt>0</asrwt>
<pdfrwt beam="1">  1       21 0.43263848E-01 0.56100863E+03</pdfrwt>
<pdfrwt beam="2">  1       21 0.18244609E+00 0.56100863E+03</pdfrwt>
<totfact> 0.71674403E+02</totfact>
</mgrwt>
</event>
<event>
 4    1  0.4840996E-002  0.4547887E+03  0.7818608E-02  0.1026304E+00
         21   -1    0    0  501  502  0.00000000000E+00  0.00000000000E+00  0.45616607729E+03  0.45616607729E+03  0.00000000000E+00 0.  1.
         21   -1    0    0  502  503 -0.00000000000E+00 -0.00000000000E+00 -0.79953854591E+03  0.79953854591E+03  0.00000000000E+00 0.  1.
    9000005    1    1    2  501    0 -0.16493655042E+03 -0.14010243128E+03  0.24141174539E+03  0.51489065609E+03  0.40000000000E+03 0.  1.
   -9000005    1    1    2    0  503  0.16493655042E+03  0.14010243128E+03 -0.58478421401E+03  0.74081396711E+03  0.40000000000E+03 0.  1.
<mgrwt>
<rscale>  2 0.45478869E+03</rscale>
<asrwt>0</asrwt>
<pdfrwt beam="1">  1       21 0.70179396E-01 0.45478869E+03</pdfrwt>
<pdfrwt beam="2">  1       21 0.12300593E+00 0.45478869E+03</pdfrwt>
<totfact> 0.77048993E+02</totfact>
</mgrwt>
</event>
<event>
 4    1  0.4840996E-002  0.4567367E+03  0.7818608E-02  0.1025732E+00
         21   -1    0    0  501  502  0.00000000000E+00  0.00000000000E+00  0.30123091598E+04  0.30123091598E+04  0.00000000000E+00 0. -1.
         21   -1    0    0  502  503 -0.00000000000E+00 -0.00000000000E+00 -0.87828774219E+02  0.87828774219E+02  0.00000000000E+00 0. -1.
    9000005    1    1    2  501    0  0.17201643401E+03 -0.13790856338E+03  0.21751224327E+04  0.22225584407E+04  0.40000000000E+03 0. -1.
   -9000005    1    1    2    0  503 -0.17201643401E+03  0.13790856338E+03  0.74935795290E+03  0.87757949327E+03  0.40000000000E+03 0. -1.
<mgrwt>
<rscale>  2 0.45673671E+03</rscale>
<asrwt>0</asrwt>
<pdfrwt beam="1">  1       21 0.46343210E+00 0.45673671E+03</pdfrwt>
<pdfrwt beam="2">  1       21 0.13512121E-01 0.45673671E+03</pdfrwt>
<totfact> 0.11999508E+02</totfact>
</mgrwt>
</event>
<event>
 4    1  0.4840996E-002  0.4011791E+03  0.7818608E-02  0.1043372E+00
         21   -1    0    0  501  502  0.00000000000E+00  0.00000000000E+00  0.33585325010E+03  0.33585325010E+03  0.00000000000E+00 0. -1.
         21   -1    0    0  502  503 -0.00000000000E+00 -0.00000000000E+00 -0.63581644057E+03  0.63581644057E+03  0.00000000000E+00 0. -1.
    9000005    1    1    2  501    0  0.30585520992E+02  0.30277346672E+01 -0.39109753385E+03  0.56026950859E+03  0.40000000000E+03 0. -1.
   -9000005    1    1    2    0  503 -0.30585520992E+02 -0.30277346672E+01  0.91134343381E+02  0.41140018208E+03  0.40000000000E+03 0. -1.
<mgrwt>
<rscale>  2 0.40117906E+03</rscale>
<asrwt>0</asrwt>
<pdfrwt beam="1">  1       21 0.51669731E-01 0.40117906E+03</pdfrwt>
<pdfrwt beam="2">  1       21 0.97817914E-01 0.40117906E+03</pdfrwt>
<totfact> 0.27202446E+03</totfact>
</mgrwt>
</event>
<event>
 4    1  0.4840996E-002  0.8095741E+03  0.7818608E-02  0.9546261E-01
         21   -1    0    0  501  502  0.00000000000E+00  0.00000000000E+00  0.80178345411E+03  0.80178345411E+03  0.00000000000E+00 0. -1.
         21   -1    0    0  502  503 -0.00000000000E+00 -0.00000000000E+00 -0.82781507524E+03  0.82781507524E+03  0.00000000000E+00 0. -1.
    9000005    1    1    2  501    0  0.53969107191E+03  0.45182274972E+03  0.78199885913E+02  0.81334216196E+03  0.40000000000E+03 0. -1.
   -9000005    1    1    2    0  503 -0.53969107191E+03 -0.45182274972E+03 -0.10423150705E+03  0.81625636740E+03  0.40000000000E+03 0. -1.
<mgrwt>
<rscale>  2 0.80957412E+03</rscale>
<asrwt>0</asrwt>
<pdfrwt beam="1">  1       21 0.12335130E+00 0.80957412E+03</pdfrwt>
<pdfrwt beam="2">  1       21 0.12735617E+00 0.80957412E+03</pdfrwt>
<totfact> 0.16029745E+02</totfact>
</mgrwt>
</event>
<event>
 4    1  0.4840996E-002  0.4369521E+03  0.7818608E-02  0.1031686E+00
         21   -1    0    0  501  502  0.00000000000E+00  0.00000000000E+00  0.48804433717E+03  0.48804433717E+03  0.00000000000E+00 0. -1.
         21   -1    0    0  502  503 -0.00000000000E+00 -0.00000000000E+00 -0.39141280393E+03  0.39141280393E+03  0.00000000000E+00 0. -1.
    9000005    1    1    2  501    0 -0.10030832641E+03  0.14444853906E+03  0.58359648798E+02  0.44083215558E+03  0.40000000000E+03 0. -1.
   -9000005    1    1    2    0  503  0.10030832641E+03 -0.14444853906E+03  0.38271884443E+02  0.43862498552E+03  0.40000000000E+03 0. -1.
<mgrwt>
<rscale>  2 0.43695210E+03</rscale>
<asrwt>0</asrwt>
<pdfrwt beam="1">  1       21 0.75083744E-01 0.43695210E+03</pdfrwt>
<pdfrwt beam="2">  1       21 0.60217354E-01 0.43695210E+03</pdfrwt>
<totfact> 0.35800208E+03</totfact>
</mgrwt>
</event>
<event>
 4    1  0.4840996E-002  0.4298245E+03  0.7818608E-02  0.1033915E+00
         21   -1    0    0  503  502  0.00000000000E+00  0.00000000000E+00  0.22772216627E+03  0.22772216627E+03  0.00000000000E+00 0.  1.
         21   -1    0    0  501  503 -0.00000000000E+00 -0.00000000000E+00 -0.11631712360E+04  0.11631712360E+04  0.00000000000E+00 0.  1.
    9000005    1    1    2  501    0 -0.15731287337E+03  0.13348281422E+01 -0.85023117581E+03  0.95270256335E+03  0.40000000000E+03 0.  1.
   -9000005    1    1    2    0  502  0.15731287337E+03 -0.13348281422E+01 -0.85217893952E+02  0.43819083895E+03  0.40000000000E+03 0.  1.
<mgrwt>
<rscale>  2 0.42982452E+03</rscale>
<asrwt>0</asrwt>
<pdfrwt beam="1">  1       21 0.35034180E-01 0.42982452E+03</pdfrwt>
<pdfrwt beam="2">  1       21 0.17894942E+00 0.42982452E+03</pdfrwt>
<totfact> 0.12351007E+03</totfact>
</mgrwt>
</event>
<event>
 4    1  0.4840996E-002  0.4233856E+03  0.7818608E-02  0.1035970E+00
         21   -1    0    0  501  502  0.00000000000E+00  0.00000000000E+00  0.13929276021E+04  0.13929276021E+04  0.00000000000E+00 0.  1.
         21   -1    0    0  502  503 -0.00000000000E+00 -0.00000000000E+00 -0.14400950953E+03  0.14400950953E+03  0.00000000000E+00 0.  1.
    9000005    1    1    2  501    0  0.26368053276E+02  0.13623548586E+03  0.87510329424E+03  0.97214256024E+03  0.40000000000E+03 0.  1.
   -9000005    1    1    2    0  503 -0.26368053276E+02 -0.13623548586E+03  0.37381479838E+03  0.56479455143E+03  0.40000000000E+03 0.  1.
<mgrwt>
<rscale>  2 0.42338562E+03</rscale>
<asrwt>0</asrwt>
<pdfrwt beam="1">  1       21 0.21429654E+00 0.42338562E+03</pdfrwt>
<pdfrwt beam="2">  1       21 0.22155310E-01 0.42338562E+03</pdfrwt>
<totfact> 0.17664287E+03</totfact>
</mgrwt>
</event>
<event>
 4    1  0.4840996E-002  0.4037295E+03  0.7818608E-02  0.1042496E+00
         21   -1    0    0  503  502  0.00000000000E+00  0.00000000000E+00  0.94627112269E+03  0.94627112269E+03  0.00000000000E+00 0.  1.
         21   -1    0    0  501  503 -0.00000000000E+00 -0.00000000000E+00 -0.37347700876E+03  0.37347700876E+03  0.00000000000E+00 0.  1.
    9000005    1    1    2  501    0 -0.47823544622E+02  0.26653657191E+02 -0.19796445693E+03  0.44965257152E+03  0.40000000000E+03 0.  1.
   -9000005    1    1    2    0  502  0.47823544622E+02 -0.26653657191E+02  0.77075857087E+03  0.87009555994E+03  0.40000000000E+03 0.  1.
<mgrwt>
<rscale>  2 0.40372950E+03</rscale>
<asrwt>0</asrwt>
<pdfrwt beam="1">  1       21 0.14558017E+00 0.40372950E+03</pdfrwt>
<pdfrwt beam="2">  1       21 0.57458002E-01 0.40372950E+03</pdfrwt>
<totfact> 0.78967681E+02</totfact>
</mgrwt>
</event>
<event>
 4    1  0.4840996E-002  0.4796211E+03  0.7818608E-02  0.1019239E+00
         21   -1    0    0  501  502  0.00000000000E+00  0.00000000000E+00  0.14954812481E+03  0.14954812481E+03  0.00000000000E+00 0.  1.
         21   -1    0    0  502  503 -0.00000000000E+00 -0.00000000000E+00 -0.31967287197E+04  0.31967287197E+04  0.00000000000E+00 0.  1.
    9000005    1    1    2  501    0 -0.22787398930E+02 -0.26366099353E+03 -0.31844557971E+03  0.57571170936E+03  0.40000000000E+03 0. -1.
   -9000005    1    1    2    0  503  0.22787398930E+02  0.26366099353E+03 -0.27287350151E+04  0.27705651351E+04  0.40000000000E+03 0. -1.
<mgrwt>
<rscale>  2 0.47962108E+03</rscale>
<asrwt>0</asrwt>
<pdfrwt beam="1">  1       21 0.23007405E-01 0.47962108E+03</pdfrwt>
<pdfrwt beam="2">  1       21 0.49180439E+00 0.47962108E+03</pdfrwt>
<totfact> 0.27458710E+01</totfact>
</mgrwt>
</event>
<event>
 4    1  0.4840996E-002  0.4331646E+03  0.7818608E-02  0.1032865E+00
         21   -1    0    0  503  502  0.00000000000E+00  0.00000000000E+00  0.40472041503E+03  0.40472041503E+03  0.00000000000E+00 0. -1.
         21   -1    0    0  501  503 -0.00000000000E+00 -0.00000000000E+00 -0.66935609384E+03  0.66935609384E+03  0.00000000000E+00 0. -1.
    9000005    1    1    2  501    0 -0.79526229066E+02  0.14596959870E+03 -0.43006300836E+03  0.61039801442E+03  0.40000000000E+03 0.  1.
   -9000005    1    1    2    0  502  0.79526229066E+02 -0.14596959870E+03  0.16542732955E+03  0.46367849445E+03  0.40000000000E+03 0.  1.
<mgrwt>
<rscale>  2 0.43316457E+03</rscale>
<asrwt>0</asrwt>
<pdfrwt beam="1">  1       21 0.62264680E-01 0.43316457E+03</pdfrwt>
<pdfrwt beam="2">  1       21 0.10297786E+00 0.43316457E+03</pdfrwt>
<totfact> 0.15819271E+03</totfact>
</mgrwt>
</event>
<event>
 4    1  0.4840996E-002  0.4172288E+03  0.7818608E-02  0.1037972E+00
         21   -1    0    0  501  502  0.00000000000E+00  0.00000000000E+00  0.86334109397E+03  0.86334109397E+03  0.00000000000E+00 0. -1.
         21   -1    0    0  502  503 -0.00000000000E+00 -0.00000000000E+00 -0.34277875297E+03  0.34277875297E+03  0.00000000000E+00 0.  1.
    9000005    1    1    2  501    0 -0.76205160827E+02  0.90954276444E+02  0.64725725672E+03  0.77007912796E+03  0.40000000000E+03 0. -1.
   -9000005    1    1    2    0  503  0.76205160827E+02 -0.90954276444E+02 -0.12669491573E+03  0.43604071898E+03  0.40000000000E+03 0.  1.
<mgrwt>
<rscale>  2 0.41722884E+03</rscale>
<asrwt>0</asrwt>
<pdfrwt beam="1">  1       21 0.13282171E+00 0.41722884E+03</pdfrwt>
<pdfrwt beam="2">  1       21 0.52735193E-01 0.41722884E+03</pdfrwt>
<totfact> 0.12030224E+03</totfact>
</mgrwt>
</event>
<event>
 4    1  0.4840996E-002  0.4126357E+03  0.7818608E-02  0.1039490E+00
         21   -1    0    0  501  502  0.00000000000E+00  0.00000000000E+00  0.15809153980E+03  0.15809153980E+03  0.00000000000E+00 0.  1.
         21   -1    0    0  502  503 -0.00000000000E+00 -0.00000000000E+00 -0.17786746657E+04  0.17786746657E+04  0.00000000000E+00 0.  1.
    9000005    1    1    2  501    0 -0.83613867324E+02 -0.57244610337E+02 -0.20207292549E+03  0.45945804100E+03  0.40000000000E+03 0.  1.
   -9000005    1    1    2    0  503  0.83613867324E+02  0.57244610337E+02 -0.14185102004E+04  0.14773081645E+04  0.40000000000E+03 0.  1.
<mgrwt>
<rscale>  2 0.41263570E+03</rscale>
<asrwt>0</asrwt>
<pdfrwt beam="1">  1       21 0.24321775E-01 0.41263570E+03</pdfrwt>
<pdfrwt beam="2">  1       21 0.27364226E+00 0.41263570E+03</pdfrwt>
<totfact> 0.63743753E+02</totfact>
</mgrwt>
</event>
<event>
 4    1  0.4840996E-002  0.7374546E+03  0.7818608E-02  0.9655240E-01
         21   -1    0    0  503  502  0.00000000000E+00  0.00000000000E+00  0.11365687918E+04  0.11365687918E+04  0.00000000000E+00 0. -1.
         21   -1    0    0  501  503 -0.00000000000E+00 -0.00000000000E+00 -0.48316596836E+03  0.48316596836E+03  0.00000000000E+00 0.  1.
    9000005    1    1    2  501    0  0.42239169354E+03  0.45323784865E+03  0.24704884084E+03  0.77773544344E+03  0.40000000000E+03 0. -1.
   -9000005    1    1    2    0  502 -0.42239169354E+03 -0.45323784865E+03  0.40635398264E+03  0.84199931676E+03  0.40000000000E+03 0.  1.
<mgrwt>
<rscale>  2 0.73745460E+03</rscale>
<asrwt>0</asrwt>
<pdfrwt beam="1">  1       21 0.17485674E+00 0.73745460E+03</pdfrwt>
<pdfrwt beam="2">  1       21 0.74333226E-01 0.73745460E+03</pdfrwt>
<totfact> 0.23422883E+02</totfact>
</mgrwt>
</event>
<event>
 4    1  0.4840996E-002  0.4056967E+03  0.7818608E-02  0.1041825E+00
         21   -1    0    0  503  502  0.00000000000E+00  0.00000000000E+00  0.19904678123E+03  0.19904678123E+03  0.00000000000E+00 0.  1.
         21   -1    0    0  501  503 -0.00000000000E+00 -0.00000000000E+00 -0.87707722732E+03  0.87707722732E+03  0.00000000000E+00 0.  1.
    9000005    1    1    2  501    0 -0.67557473594E+02  0.50802064445E+01 -0.46772436782E+03  0.61915741535E+03  0.40000000000E+03 0. -1.
   -9000005    1    1    2    0  502  0.67557473594E+02 -0.50802064445E+01 -0.21030607828E+03  0.45696659320E+03  0.40000000000E+03 0. -1.
<mgrwt>
<rscale>  2 0.40569671E+03</rscale>
<asrwt>0</asrwt>
<pdfrwt beam="1">  1       21 0.30622582E-01 0.40569671E+03</pdfrwt>
<pdfrwt beam="2">  1       21 0.13493496E+00 0.40569671E+03</pdfrwt>
<totfact> 0.35541401E+03</totfact>
</mgrwt>
</event>
<event>
 4    1  0.4840996E-002  0.5268215E+03  0.7818608E-02  0.1007006E+00
         21   -1    0    0  501  502  0.00000000000E+00  0.00000000000E+00  0.79116129326E+03  0.79116129326E+03  0.00000000000E+00 0.  1.
         21   -1    0    0  502  503 -0.00000000000E+00 -0.00000000000E+00 -0.36460165914E+03  0.36460165914E+03  0.00000000000E+00 0.  1.
    9000005    1    1    2  501    0  0.33638271688E+03  0.66239017161E+02  0.32570513328E+03  0.61937450178E+03  0.40000000000E+03 0.  1.
   -9000005    1    1    2    0  503 -0.33638271688E+03 -0.66239017161E+02  0.10085450084E+03  0.53638845061E+03  0.40000000000E+03 0.  1.
<mgrwt>
<rscale>  2 0.52682154E+03</rscale>
<asrwt>0</asrwt>
<pdfrwt beam="1">  1       21 0.12171712E+00 0.52682154E+03</pdfrwt>
<pdfrwt beam="2">  1       21 0.56092563E-01 0.52682154E+03</pdfrwt>
<totfact> 0.12644206E+03</totfact>
</mgrwt>
</event>
<event>
 4    1  0.4840996E-002  0.4664298E+03  0.7818608E-02  0.1022933E+00
         21   -1    0    0  501  502  0.00000000000E+00  0.00000000000E+00  0.49348580768E+03  0.49348580768E+03  0.00000000000E+00 0. -1.
         21   -1    0    0  502  503 -0.00000000000E+00 -0.00000000000E+00 -0.45963230074E+03  0.45963230074E+03  0.00000000000E+00 0. -1.
    9000005    1    1    2  501    0  0.20705911198E+03 -0.12117444905E+03  0.11324392671E+03  0.47998011406E+03  0.40000000000E+03 0. -1.
   -9000005    1    1    2    0  503 -0.20705911198E+03  0.12117444905E+03 -0.79390419763E+02  0.47313799436E+03  0.40000000000E+03 0. -1.
<mgrwt>
<rscale>  2 0.46642976E+03</rscale>
<asrwt>0</asrwt>
<pdfrwt beam="1">  1       21 0.75920893E-01 0.46642976E+03</pdfrwt>
<pdfrwt beam="2">  1       21 0.70712662E-01 0.46642976E+03</pdfrwt>
<totfact> 0.24163528E+03</totfact>
</mgrwt>
</event>
<event>
 4    1  0.4840996E-002  0.4055625E+03  0.7818608E-02  0.1041870E+00
         21   -1    0    0  501  502  0.00000000000E+00  0.00000000000E+00  0.16840079795E+03  0.16840079795E+03  0.00000000000E+00 0.  1.
         21   -1    0    0  502  503 -0.00000000000E+00 -0.00000000000E+00 -0.14538586259E+04  0.14538586259E+04  0.00000000000E+00 0.  1.
    9000005    1    1    2  501    0  0.65597209217E+02 -0.13341171470E+02 -0.17805315858E+03  0.44292652663E+03  0.40000000000E+03 0. -1.
   -9000005    1    1    2    0  503 -0.65597209217E+02  0.13341171470E+02 -0.11074046694E+04  0.11793328972E+04  0.40000000000E+03 0. -1.
<mgrwt>
<rscale>  2 0.40556255E+03</rscale>
<asrwt>0</asrwt>
<pdfrwt beam="1">  1       21 0.25907815E-01 0.40556255E+03</pdfrwt>
<pdfrwt beam="2">  1       21 0.22367056E+00 0.40556255E+03</pdfrwt>
<totfact> 0.11472271E+03</totfact>
</mgrwt>
</event>
<event>
 4    1  0.4840996E-002  0.4330022E+03  0.7818608E-02  0.1032916E+00
         21   -1    0    0  501  502  0.00000000000E+00  0.00000000000E+00  0.21233424640E+04  0.21233424640E+04  0.00000000000E+00 0. -1.
         21   -1    0    0  502  503 -0.00000000000E+00 -0.00000000000E+00 -0.13183116992E+03  0.13183116992E+03  0.00000000000E+00 0.  1.
    9000005    1    1    2  501    0 -0.15454993136E+03  0.60043548300E+02  0.16437058764E+04  0.16997823147E+04  0.40000000000E+03 0. -1.
   -9000005    1    1    2    0  503  0.15454993136E+03 -0.60043548300E+02  0.34780541764E+03  0.55539131927E+03  0.40000000000E+03 0.  1.
<mgrwt>
<rscale>  2 0.43300220E+03</rscale>
<asrwt>0</asrwt>
<pdfrwt beam="1">  1       21 0.32666805E+00 0.43300220E+03</pdfrwt>
<pdfrwt beam="2">  1       21 0.20281720E-01 0.43300220E+03</pdfrwt>
<totfact> 0.42867549E+02</totfact>
</mgrwt>
</event>
<event>
 4    1  0.4840996E-002  0.4167614E+03  0.7818608E-02  0.1038126E+00
         21   -1    0    0  501  502  0.00000000000E+00  0.00000000000E+00  0.47916220573E+03  0.47916220573E+03  0.00000000000E+00 0.  1.
         21   -1    0    0  502  503 -0.00000000000E+00 -0.00000000000E+00 -0.36606944774E+03  0.36606944774E+03  0.00000000000E+00 0.  1.
    9000005    1    1    2  501    0 -0.10515240937E+03 -0.51313298428E+02  0.98353692541E+02  0.42820968302E+03  0.40000000000E+03 0.  1.
   -9000005    1    1    2    0  503  0.10515240937E+03  0.51313298428E+02  0.14739065447E+02  0.41702197045E+03  0.40000000000E+03 0.  1.
<mgrwt>
<rscale>  2 0.41676142E+03</rscale>
<asrwt>0</asrwt>
<pdfrwt beam="1">  1       21 0.73717263E-01 0.41676142E+03</pdfrwt>
<pdfrwt beam="2">  1       21 0.56318376E-01 0.41676142E+03</pdfrwt>
<totfact> 0.43499142E+03</totfact>
</mgrwt>
</event>
<event>
 4    1  0.4840996E-002  0.6771266E+03  0.7818608E-02  0.9757169E-01
         21   -1    0    0  503  502  0.00000000000E+00  0.00000000000E+00  0.13393365138E+04  0.13393365138E+04  0.00000000000E+00 0. -1.
         21   -1    0    0  501  503 -0.00000000000E+00 -0.00000000000E+00 -0.34289067916E+03  0.34289067916E+03  0.00000000000E+00 0. -1.
    9000005    1    1    2  501    0 -0.54635180130E+03  0.28487126937E+00  0.53211475140E+03  0.86118899238E+03  0.40000000000E+03 0. -1.
   -9000005    1    1    2    0  502  0.54635180130E+03 -0.28487126937E+00  0.46433108319E+03  0.82103820054E+03  0.40000000000E+03 0. -1.
<mgrwt>
<rscale>  2 0.67712656E+03</rscale>
<asrwt>0</asrwt>
<pdfrwt beam="1">  1       21 0.20605177E+00 0.67712656E+03</pdfrwt>
<pdfrwt beam="2">  1       21 0.52752413E-01 0.67712656E+03</pdfrwt>
<totfact> 0.31101824E+02</totfact>
</mgrwt>
</event>
<event>
 4    1  0.4840996E-002  0.4108634E+03  0.7818608E-02  0.1040082E+00
         21   -1    0    0  501  502  0.00000000000E+00  0.00000000000E+00  0.19997919401E+03  0.19997919401E+03  0.00000000000E+00 0.  1.
         21   -1    0    0  502  503 -0.00000000000E+00 -0.00000000000E+00 -0.99053680426E+03  0.99053680426E+03  0.00000000000E+00 0.  1.
    9000005    1    1    2  501    0  0.89942233671E+02 -0.26817094948E+02 -0.62412734845E+03  0.74722400193E+03  0.40000000000E+03 0. -1.
   -9000005    1    1    2    0  503 -0.89942233671E+02  0.26817094948E+02 -0.16643026180E+03  0.44329199634E+03  0.40000000000E+03 0. -1.
<mgrwt>
<rscale>  2 0.41086343E+03</rscale>
<asrwt>0</asrwt>
<pdfrwt beam="1">  1       21 0.30766030E-01 0.41086343E+03</pdfrwt>
<pdfrwt beam="2">  1       21 0.15239028E+00 0.41086343E+03</pdfrwt>
<totfact> 0.25391691E+03</totfact>
</mgrwt>
</event>
<event>
 4    1  0.4840996E-002  0.4291632E+03  0.7818608E-02  0.1034125E+00
         21   -1    0    0  503  502  0.00000000000E+00  0.00000000000E+00  0.18512219160E+03  0.18512219160E+03  0.00000000000E+00 0. -1.
         21   -1    0    0  501  503 -0.00000000000E+00 -0.00000000000E+00 -0.13186411869E+04  0.13186411869E+04  0.00000000000E+00 0. -1.
    9000005    1    1    2  501    0 -0.15544809177E+03  0.41171400367E+01 -0.93930071358E+03  0.10326988383E+04  0.40000000000E+03 0. -1.
   -9000005    1    1    2    0  502  0.15544809177E+03 -0.41171400367E+01 -0.19421828171E+03  0.47106454019E+03  0.40000000000E+03 0. -1.
<mgrwt>
<rscale>  2 0.42916321E+03</rscale>
<asrwt>0</asrwt>
<pdfrwt beam="1">  1       21 0.28480337E-01 0.42916321E+03</pdfrwt>
<pdfrwt beam="2">  1       21 0.20286788E+00 0.42916321E+03</pdfrwt>
<totfact> 0.12832915E+03</totfact>
</mgrwt>
</event>
<event>
 4    1  0.4840996E-002  0.7149795E+03  0.7818608E-02  0.9691953E-01
         21   -1    0    0  501  502  0.00000000000E+00  0.00000000000E+00  0.77666217290E+03  0.77666217290E+03  0.00000000000E+00 0.  1.
         21   -1    0    0  502  503 -0.00000000000E+00 -0.00000000000E+00 -0.67491603628E+03  0.67491603628E+03  0.00000000000E+00 0.  1.
    9000005    1    1    2  501    0 -0.42815749249E+03  0.40972781520E+03  0.16511032553E+03  0.73379638901E+03  0.40000000000E+03 0.  1.
   -9000005    1    1    2    0  503  0.42815749249E+03 -0.40972781520E+03 -0.63364188915E+02  0.71778182017E+03  0.40000000000E+03 0.  1.
<mgrwt>
<rscale>  2 0.71497952E+03</rscale>
<asrwt>0</asrwt>
<pdfrwt beam="1">  1       21 0.11948649E+00 0.71497952E+03</pdfrwt>
<pdfrwt beam="2">  1       21 0.10383324E+00 0.71497952E+03</pdfrwt>
<totfact> 0.30081700E+02</totfact>
</mgrwt>
</event>
<event>
 4    1  0.4840996E-002  0.4178153E+03  0.7818608E-02  0.1037780E+00
         21   -1    0    0  503  502  0.00000000000E+00  0.00000000000E+00  0.16110050045E+03  0.16110050045E+03  0.00000000000E+00 0. -1.
         21   -1    0    0  501  503 -0.00000000000E+00 -0.00000000000E+00 -0.11115365696E+04  0.11115365696E+04  0.00000000000E+00 0. -1.
    9000005    1    1    2  501    0  0.36168193075E+02 -0.11515861177E+03 -0.57608388133E+03  0.71164758299E+03  0.40000000000E+03 0. -1.
   -9000005    1    1    2    0  502 -0.36168193075E+02  0.11515861177E+03 -0.37435218780E+03  0.56098948704E+03  0.40000000000E+03 0. -1.
<mgrwt>
<rscale>  2 0.41781532E+03</rscale>
<asrwt>0</asrwt>
<pdfrwt beam="1">  1       21 0.24784692E-01 0.41781532E+03</pdfrwt>
<pdfrwt beam="2">  1       21 0.17100563E+00 0.41781532E+03</pdfrwt>
<totfact> 0.28083726E+03</totfact>
</mgrwt>
</event>
<event>
 4    1  0.4840996E-002  0.4412405E+03  0.7818608E-02  0.1030367E+00
         21   -1    0    0  503  502  0.00000000000E+00  0.00000000000E+00  0.32408895000E+03  0.32408895000E+03  0.00000000000E+00 0. -1.
         21   -1    0    0  501  503 -0.00000000000E+00 -0.00000000000E+00 -0.99954292213E+03  0.99954292213E+03  0.00000000000E+00 0. -1.
    9000005    1    1    2  501    0 -0.65683710031E+02 -0.17429517562E+03 -0.75576495189E+03  0.87514217160E+03  0.40000000000E+03 0. -1.
   -9000005    1    1    2    0  502  0.65683710031E+02  0.17429517562E+03  0.80310979762E+02  0.44848970053E+03  0.40000000000E+03 0. -1.
<mgrwt>
<rscale>  2 0.44124048E+03</rscale>
<asrwt>0</asrwt>
<pdfrwt beam="1">  1       21 0.49859838E-01 0.44124048E+03</pdfrwt>
<pdfrwt beam="2">  1       21 0.15377583E+00 0.44124048E+03</pdfrwt>
<totfact> 0.90717289E+02</totfact>
</mgrwt>
</event>
<event>
 4    1  0.4840996E-002  0.4601818E+03  0.7818608E-02  0.1024729E+00
         21   -1    0    0  503  502  0.00000000000E+00  0.00000000000E+00  0.43996728676E+03  0.43996728676E+03  0.00000000000E+00 0.  1.
         21   -1    0    0  501  503 -0.00000000000E+00 -0.00000000000E+00 -0.21078154375E+04  0.21078154375E+04  0.00000000000E+00 0.  1.
    9000005    1    1    2  501    0  0.27313306371E+02 -0.22587881848E+03 -0.19529544075E+04  0.20064391781E+04  0.40000000000E+03 0.  1.
   -9000005    1    1    2    0  502 -0.27313306371E+02  0.22587881848E+03  0.28510625679E+03  0.54134354619E+03  0.40000000000E+03 0.  1.
<mgrwt>
<rscale>  2 0.46018177E+03</rscale>
<asrwt>0</asrwt>
<pdfrwt beam="1">  1       21 0.67687275E-01 0.46018177E+03</pdfrwt>
<pdfrwt beam="2">  1       21 0.32427930E+00 0.46018177E+03</pdfrwt>
<totfact> 0.36820552E+01</totfact>
</mgrwt>
</event>
<event>
 4    1  0.4840996E-002  0.4311909E+03  0.7818608E-02  0.1033484E+00
         21   -1    0    0  501  502  0.00000000000E+00  0.00000000000E+00  0.21740106345E+03  0.21740106345E+03  0.00000000000E+00 0. -1.
         21   -1    0    0  502  503 -0.00000000000E+00 -0.00000000000E+00 -0.11366794282E+04  0.11366794282E+04  0.00000000000E+00 0. -1.
    9000005    1    1    2  501    0 -0.16094483559E+03 -0.47318702623E+01 -0.12273704600E+03  0.44831909747E+03  0.40000000000E+03 0. -1.
   -9000005    1    1    2    0  503  0.16094483559E+03  0.47318702623E+01 -0.79654131871E+03  0.90576139414E+03  0.40000000000E+03 0. -1.
<mgrwt>
<rscale>  2 0.43119094E+03</rscale>
<asrwt>0</asrwt>
<pdfrwt beam="1">  1       21 0.33446316E-01 0.43119094E+03</pdfrwt>
<pdfrwt beam="2">  1       21 0.17487376E+00 0.43119094E+03</pdfrwt>
<totfact> 0.14489068E+03</totfact>
</mgrwt>
</event>
<event>
 4    1  0.4840996E-002  0.4302664E+03  0.7818608E-02  0.1033776E+00
         21   -1    0    0  503  502  0.00000000000E+00  0.00000000000E+00  0.26406110275E+03  0.26406110275E+03  0.00000000000E+00 0. -1.
         21   -1    0    0  501  503 -0.00000000000E+00 -0.00000000000E+00 -0.71091132697E+03  0.71091132697E+03  0.00000000000E+00 0. -1.
    9000005    1    1    2  501    0 -0.72787123466E+02 -0.14082341718E+03 -0.28073858956E+03  0.51375417841E+03  0.40000000000E+03 0. -1.
   -9000005    1    1    2    0  502  0.72787123466E+02  0.14082341718E+03 -0.16611163466E+03  0.46121825131E+03  0.40000000000E+03 0. -1.
<mgrwt>
<rscale>  2 0.43026643E+03</rscale>
<asrwt>0</asrwt>
<pdfrwt beam="1">  1       21 0.40624785E-01 0.43026643E+03</pdfrwt>
<pdfrwt beam="2">  1       21 0.10937097E+00 0.43026643E+03</pdfrwt>
<totfact> 0.33894817E+03</totfact>
</mgrwt>
</event>
<event>
 4    1  0.4840996E-002  0.5052498E+03  0.7818608E-02  0.1012418E+00
         21   -1    0    0  503  502  0.00000000000E+00  0.00000000000E+00  0.58880133288E+03  0.58880133288E+03  0.00000000000E+00 0. -1.
         21   -1    0    0  501  503 -0.00000000000E+00 -0.00000000000E+00 -0.69893591081E+03  0.69893591081E+03  0.00000000000E+00 0. -1.
    9000005    1    1    2  501    0 -0.22035545935E+03  0.21615008239E+03 -0.45181455715E+03  0.67780069389E+03  0.40000000000E+03 0. -1.
   -9000005    1    1    2    0  502  0.22035545935E+03 -0.21615008239E+03  0.34167997922E+03  0.60993654980E+03  0.40000000000E+03 0. -1.
<mgrwt>
<rscale>  2 0.50524983E+03</rscale>
<asrwt>0</asrwt>
<pdfrwt beam="1">  1       21 0.90584820E-01 0.50524983E+03</pdfrwt>
<pdfrwt beam="2">  1       21 0.10752860E+00 0.50524983E+03</pdfrwt>
<totfact> 0.58632571E+02</totfact>
</mgrwt>
</event>
<event>
 4    1  0.4840996E-002  0.6062443E+03  0.7818608E-02  0.9892535E-01
         21   -1    0    0  503  502  0.00000000000E+00  0.00000000000E+00  0.62392940572E+03  0.62392940572E+03  0.00000000000E+00 0. -1.
         21   -1    0    0  501  503 -0.00000000000E+00 -0.00000000000E+00 -0.62601071238E+03  0.62601071238E+03  0.00000000000E+00 0.  1.
    9000005    1    1    2  501    0 -0.37095815655E+03  0.26442800367E+03 -0.15287751524E+03  0.62522288642E+03  0.40000000000E+03 0. -1.
   -9000005    1    1    2    0  502  0.37095815655E+03 -0.26442800367E+03  0.15079620858E+03  0.62471723168E+03  0.40000000000E+03 0.  1.
<mgrwt>
<rscale>  2 0.60624428E+03</rscale>
<asrwt>0</asrwt>
<pdfrwt beam="1">  1       21 0.95989140E-01 0.60624428E+03</pdfrwt>
<pdfrwt beam="2">  1       21 0.96309340E-01 0.60624428E+03</pdfrwt>
<totfact> 0.64540841E+02</totfact>
</mgrwt>
</event>
<event>
 4    1  0.4840996E-002  0.5266957E+03  0.7818608E-02  0.1007037E+00
         21   -1    0    0  501  502  0.00000000000E+00  0.00000000000E+00  0.28120686307E+03  0.28120686307E+03  0.00000000000E+00 0. -1.
         21   -1    0    0  502  503 -0.00000000000E+00 -0.00000000000E+00 -0.12590896752E+04  0.12590896752E+04  0.00000000000E+00 0. -1.
    9000005    1    1    2  501    0  0.26532566129E+03  0.21681949090E+03 -0.13059185314E+03  0.54264411015E+03  0.40000000000E+03 0. -1.
   -9000005    1    1    2    0  503 -0.26532566129E+03 -0.21681949090E+03 -0.84729095902E+03  0.99765242815E+03  0.40000000000E+03 0. -1.
<mgrwt>
<rscale>  2 0.52669574E+03</rscale>
<asrwt>0</asrwt>
<pdfrwt beam="1">  1       21 0.43262594E-01 0.52669574E+03</pdfrwt>
<pdfrwt beam="2">  1       21 0.19370611E+00 0.52669574E+03</pdfrwt>
<totfact> 0.60683267E+02</totfact>
</mgrwt>
</event>
<event>
 4    1  0.4840996E-002  0.4954976E+03  0.7818608E-02  0.1014961E+00
         21   -1    0    0  503  502  0.00000000000E+00  0.00000000000E+00  0.13867826856E+04  0.13867826856E+04  0.00000000000E+00 0. -1.
         21   -1    0    0  501  503 -0.00000000000E+00 -0.00000000000E+00 -0.18459765389E+03  0.18459765389E+03  0.00000000000E+00 0. -1.
    9000005    1    1    2  501    0 -0.26687748811E+01  0.29242229486E+03  0.44213097387E+03  0.66407659117E+03  0.40000000000E+03 0. -1.
   -9000005    1    1    2    0  502  0.26687748811E+01 -0.29242229486E+03  0.76005405789E+03  0.90730374837E+03  0.40000000000E+03 0. -1.
<mgrwt>
<rscale>  2 0.49549765E+03</rscale>
<asrwt>0</asrwt>
<pdfrwt beam="1">  1       21 0.21335118E+00 0.49549765E+03</pdfrwt>
<pdfrwt beam="2">  1       21 0.28399640E-01 0.49549765E+03</pdfrwt>
<totfact> 0.10694601E+03</totfact>
</mgrwt>
</event>
<event>
 4    1  0.4840996E-002  0.4615774E+03  0.7818608E-02  0.1024325E+00
         21   -1    0    0  503  502  0.00000000000E+00  0.00000000000E+00  0.51550097550E+03  0.51550097550E+03  0.00000000000E+00 0.  1.
         21   -1    0    0  501  503 -0.00000000000E+00 -0.00000000000E+00 -0.41752539976E+03  0.41752539976E+03  0.00000000000E+00 0.  1.
    9000005    1    1    2  501    0 -0.66381040951E+02 -0.22056124326E+03  0.20264818934E+01  0.46158185759E+03  0.40000000000E+03 0.  1.
   -9000005    1    1    2    0  502  0.66381040951E+02  0.22056124326E+03  0.95949093844E+02  0.47144451766E+03  0.40000000000E+03 0.  1.
<mgrwt>
<rscale>  2 0.46157741E+03</rscale>
<asrwt>0</asrwt>
<pdfrwt beam="1">  1       21 0.79307842E-01 0.46157741E+03</pdfrwt>
<pdfrwt beam="2">  1       21 0.64234677E-01 0.46157741E+03</pdfrwt>
<totfact> 0.27148149E+03</totfact>
</mgrwt>
</event>
<event>
 4    1  0.4840996E-002  0.4148219E+03  0.7818608E-02  0.1038765E+00
         21   -1    0    0  501  502  0.00000000000E+00  0.00000000000E+00  0.96649309393E+03  0.96649309393E+03  0.00000000000E+00 0.  1.
         21   -1    0    0  502  503 -0.00000000000E+00 -0.00000000000E+00 -0.17812478136E+03  0.17812478136E+03  0.00000000000E+00 0.  1.
    9000005    1    1    2  501    0 -0.10828895343E+03  0.18727062429E+02  0.38191113911E+03  0.56385576035E+03  0.40000000000E+03 0.  1.
   -9000005    1    1    2    0  503  0.10828895343E+03 -0.18727062429E+02  0.40645717345E+03  0.58076211494E+03  0.40000000000E+03 0.  1.
<mgrwt>
<rscale>  2 0.41482189E+03</rscale>
<asrwt>0</asrwt>
<pdfrwt beam="1">  1       21 0.14869124E+00 0.41482189E+03</pdfrwt>
<pdfrwt beam="2">  1       21 0.27403813E-01 0.41482189E+03</pdfrwt>
<totfact> 0.34058406E+03</totfact>
</mgrwt>
</event>
<event>
 4    1  0.4840996E-002  0.4575564E+03  0.7818608E-02  0.1025492E+00
         21   -1    0    0  503  502  0.00000000000E+00  0.00000000000E+00  0.10209208079E+04  0.10209208079E+04  0.00000000000E+00 0.  1.
         21   -1    0    0  501  503 -0.00000000000E+00 -0.00000000000E+00 -0.20509459885E+03  0.20509459885E+03  0.00000000000E+00 0.  1.
    9000005    1    1    2  501    0  0.16064587322E+03 -0.15346263716E+03  0.40089224658E+03  0.60833582087E+03  0.40000000000E+03 0.  1.
   -9000005    1    1    2    0  502 -0.16064587322E+03  0.15346263716E+03  0.41493396243E+03  0.61767958584E+03  0.40000000000E+03 0.  1.
<mgrwt>
<rscale>  2 0.45755642E+03</rscale>
<asrwt>0</asrwt>
<pdfrwt beam="1">  1       21 0.15706474E+00 0.45755642E+03</pdfrwt>
<pdfrwt beam="2">  1       21 0.31553016E-01 0.45755642E+03</pdfrwt>
<totfact> 0.21807826E+03</totfact>
</mgrwt>
</event>
<event>
 4    1  0.4840996E-002  0.4251226E+03  0.7818608E-02  0.1035412E+00
         21   -1    0    0  503  502  0.00000000000E+00  0.00000000000E+00  0.11140072804E+03  0.11140072804E+03  0.00000000000E+00 0.  1.
         21   -1    0    0  501  503 -0.00000000000E+00 -0.00000000000E+00 -0.20450983308E+04  0.20450983308E+04  0.00000000000E+00 0. -1.
    9000005    1    1    2  501    0 -0.71238175629E+02  0.12511722363E+03 -0.14570916980E+04  0.15178423547E+04  0.40000000000E+03 0. -1.
   -9000005    1    1    2    0  502  0.71238175629E+02 -0.12511722363E+03 -0.47660590477E+03  0.63865670417E+03  0.40000000000E+03 0.  1.
<mgrwt>
<rscale>  2 0.42512257E+03</rscale>
<asrwt>0</asrwt>
<pdfrwt beam="1">  1       21 0.17138574E-01 0.42512257E+03</pdfrwt>
<pdfrwt beam="2">  1       21 0.31463051E+00 0.42512257E+03</pdfrwt>
<totfact> 0.69961227E+02</totfact>
</mgrwt>
</event>
<event>
 4    1  0.4840996E-002  0.4155684E+03  0.7818608E-02  0.1038518E+00
         21   -1    0    0  503  502  0.00000000000E+00  0.00000000000E+00  0.89734821101E+03  0.89734821101E+03  0.00000000000E+00 0.  1.
         21   -1    0    0  501  503 -0.00000000000E+00 -0.00000000000E+00 -0.25193330169E+03  0.25193330169E+03  0.00000000000E+00 0.  1.
    9000005    1    1    2  501    0  0.99333597288E+02  0.53197229061E+02  0.43490863825E+02  0.41783796377E+03  0.40000000000E+03 0. -1.
   -9000005    1    1    2    0  502 -0.99333597288E+02 -0.53197229061E+02  0.60192404550E+03  0.73144354894E+03  0.40000000000E+03 0. -1.
<mgrwt>
<rscale>  2 0.41556842E+03</rscale>
<asrwt>0</asrwt>
<pdfrwt beam="1">  1       21 0.13805357E+00 0.41556842E+03</pdfrwt>
<pdfrwt beam="2">  1       21 0.38758970E-01 0.41556842E+03</pdfrwt>
<totfact> 0.20729368E+03</totfact>
</mgrwt>
</event>
<event>
 4    1  0.4840996E-002  0.4238165E+03  0.7818608E-02  0.1035831E+00
         21   -1    0    0  501  502  0.00000000000E+00  0.00000000000E+00  0.45413239859E+03  0.45413239859E+03  0.00000000000E+00 0. -1.
         21   -1    0    0  502  503 -0.00000000000E+00 -0.00000000000E+00 -0.43268989358E+03  0.43268989358E+03  0.00000000000E+00 0. -1.
    9000005    1    1    2  501    0  0.15184536689E+02  0.13924731196E+03 -0.11923254053E+03  0.44026898910E+03  0.40000000000E+03 0. -1.
   -9000005    1    1    2    0  503 -0.15184536689E+02 -0.13924731196E+03  0.14067504554E+03  0.44655330307E+03  0.40000000000E+03 0. -1.
<mgrwt>
<rscale>  2 0.42381645E+03</rscale>
<asrwt>0</asrwt>
<pdfrwt beam="1">  1       21 0.69866523E-01 0.42381645E+03</pdfrwt>
<pdfrwt beam="2">  1       21 0.66567676E-01 0.42381645E+03</pdfrwt>
<totfact> 0.33925656E+03</totfact>
</mgrwt>
</event>
<event>
 4    1  0.4840996E-002  0.5015943E+03  0.7818608E-02  0.1013364E+00
         21   -1    0    0  503  502  0.00000000000E+00  0.00000000000E+00  0.89277771940E+03  0.89277771940E+03  0.00000000000E+00 0.  1.
         21   -1    0    0  501  503 -0.00000000000E+00 -0.00000000000E+00 -0.28279204068E+03  0.28279204068E+03  0.00000000000E+00 0.  1.
    9000005    1    1    2  501    0 -0.29844711616E+03 -0.50261103886E+02  0.27041778614E+03  0.56984439873E+03  0.40000000000E+03 0. -1.
   -9000005    1    1    2    0  502  0.29844711616E+03  0.50261103886E+02  0.33956789258E+03  0.60572536135E+03  0.40000000000E+03 0. -1.
<mgrwt>
<rscale>  2 0.50159432E+03</rscale>
<asrwt>0</asrwt>
<pdfrwt beam="1">  1       21 0.13735042E+00 0.50159432E+03</pdfrwt>
<pdfrwt beam="2">  1       21 0.43506468E-01 0.50159432E+03</pdfrwt>
<totfact> 0.16001040E+03</totfact>
</mgrwt>
</event>
<event>
 4    1  0.4840996E-002  0.4354826E+03  0.7818608E-02  0.1032142E+00
         21   -1    0    0  501  502  0.00000000000E+00  0.00000000000E+00  0.35410222027E+03  0.35410222027E+03  0.00000000000E+00 0. -1.
         21   -1    0    0  502  503 -0.00000000000E+00 -0.00000000000E+00 -0.55712238163E+03  0.55712238163E+03  0.00000000000E+00 0.  1.
    9000005    1    1    2  501    0  0.10220918760E+03  0.13855808295E+03 -0.11889145194E+02  0.43564482340E+03  0.40000000000E+03 0. -1.
   -9000005    1    1    2    0  503 -0.10220918760E+03 -0.13855808295E+03 -0.19113101617E+03  0.47557977850E+03  0.40000000000E+03 0. -1.
<mgrwt>
<rscale>  2 0.43548256E+03</rscale>
<asrwt>0</asrwt>
<pdfrwt beam="1">  1       21 0.54477265E-01 0.43548256E+03</pdfrwt>
<pdfrwt beam="2">  1       21 0.85711135E-01 0.43548256E+03</pdfrwt>
<totfact> 0.32795478E+03</totfact>
</mgrwt>
</event>
<event>
 4    1  0.4840996E-002  0.4018339E+03  0.7818608E-02  0.1043147E+00
         21   -1    0    0  501  502  0.00000000000E+00  0.00000000000E+00  0.26420701392E+03  0.26420701392E+03  0.00000000000E+00 0.  1.
         21   -1    0    0  502  503 -0.00000000000E+00 -0.00000000000E+00 -0.65179302307E+03  0.65179302307E+03  0.00000000000E+00 0.  1.
    9000005    1    1    2  501    0  0.37600639916E+02  0.75289770135E+01 -0.79427245015E+02  0.40960857031E+03  0.40000000000E+03 0.  1.
   -9000005    1    1    2    0  503 -0.37600639916E+02 -0.75289770135E+01 -0.30815876414E+03  0.50639146669E+03  0.40000000000E+03 0.  1.
<mgrwt>
<rscale>  2 0.40183391E+03</rscale>
<asrwt>0</asrwt>
<pdfrwt beam="1">  1       21 0.40647233E-01 0.40183391E+03</pdfrwt>
<pdfrwt beam="2">  1       21 0.10027585E+00 0.40183391E+03</pdfrwt>
<totfact> 0.42348450E+03</totfact>
</mgrwt>
</event>
<event>
 4    1  0.4840996E-002  0.4224173E+03  0.7818608E-02  0.1036282E+00
         21   -1    0    0  501  502  0.00000000000E+00  0.00000000000E+00  0.29134546373E+04  0.29134546373E+04  0.00000000000E+00 0. -1.
         21   -1    0    0  502  503 -0.00000000000E+00 -0.00000000000E+00 -0.69295261205E+02  0.69295261205E+02  0.00000000000E+00 0. -1.
    9000005    1    1    2  501    0 -0.11685860832E+03  0.69140446868E+02  0.19303834644E+04  0.19760608937E+04  0.40000000000E+03 0. -1.
   -9000005    1    1    2    0  503  0.11685860832E+03 -0.69140446868E+02  0.91377591171E+03  0.10066890049E+04  0.40000000000E+03 0. -1.
<mgrwt>
<rscale>  2 0.42241725E+03</rscale>
<asrwt>0</asrwt>
<pdfrwt beam="1">  1       21 0.44822369E+00 0.42241725E+03</pdfrwt>
<pdfrwt beam="2">  1       21 0.10660812E-01 0.42241725E+03</pdfrwt>
<totfact> 0.24027738E+02</totfact>
</mgrwt>
</event>
<event>
 4    1  0.4840996E-002  0.4221491E+03  0.7818608E-02  0.1036369E+00
         21   -1    0    0  503  502  0.00000000000E+00  0.00000000000E+00  0.68300982668E+02  0.68300982668E+02  0.00000000000E+00 0. -1.
         21   -1    0    0  501  503 -0.00000000000E+00 -0.00000000000E+00 -0.26195992580E+04  0.26195992580E+04  0.00000000000E+00 0. -1.
    9000005    1    1    2  501    0  0.13209799054E+03  0.27568174040E+02 -0.11909098491E+04  0.12635173730E+04  0.40000000000E+03 0. -1.
   -9000005    1    1    2    0  502 -0.13209799054E+03 -0.27568174040E+02 -0.13603884262E+04  0.14243828676E+04  0.40000000000E+03 0. -1.
<mgrwt>
<rscale>  2 0.42214912E+03</rscale>
<asrwt>0</asrwt>
<pdfrwt beam="1">  1       21 0.10507846E-01 0.42214912E+03</pdfrwt>
<pdfrwt beam="2">  1       21 0.40301519E+00 0.42214912E+03</pdfrwt>
<totfact> 0.48939009E+02</totfact>
</mgrwt>
</event>
<event>
 4    1  0.4840996E-002  0.4342366E+03  0.7818608E-02  0.1032530E+00
         21   -1    0    0  503  502  0.00000000000E+00  0.00000000000E+00  0.58486723929E+03  0.58486723929E+03  0.00000000000E+00 0.  1.
         21   -1    0    0  501  503 -0.00000000000E+00 -0.00000000000E+00 -0.39105301242E+03  0.39105301242E+03  0.00000000000E+00 0.  1.
    9000005    1    1    2  501    0  0.10358782188E+02 -0.16868342077E+03 -0.10754670165E+03  0.44735633878E+03  0.40000000000E+03 0.  1.
   -9000005    1    1    2    0  502 -0.10358782188E+02  0.16868342077E+03  0.30136092852E+03  0.52856391293E+03  0.40000000000E+03 0.  1.
<mgrwt>
<rscale>  2 0.43423657E+03</rscale>
<asrwt>0</asrwt>
<pdfrwt beam="1">  1       21 0.89979575E-01 0.43423657E+03</pdfrwt>
<pdfrwt beam="2">  1       21 0.60162002E-01 0.43423657E+03</pdfrwt>
<totfact> 0.23587919E+03</totfact>
</mgrwt>
</event>
<event>
 4    1  0.4840996E-002  0.4709106E+03  0.7818608E-02  0.1021664E+00
         21   -1    0    0  501  502  0.00000000000E+00  0.00000000000E+00  0.15927354971E+04  0.15927354971E+04  0.00000000000E+00 0.  1.
         21   -1    0    0  502  503 -0.00000000000E+00 -0.00000000000E+00 -0.15960789002E+03  0.15960789002E+03  0.00000000000E+00 0. -1.
    9000005    1    1    2  501    0 -0.86333322516E+02 -0.23303077950E+03  0.10296328653E+04  0.11322105035E+04  0.40000000000E+03 0.  1.
   -9000005    1    1    2    0  503  0.86333322516E+02  0.23303077950E+03  0.40349474171E+03  0.62013288363E+03  0.40000000000E+03 0. -1.
<mgrwt>
<rscale>  2 0.47091059E+03</rscale>
<asrwt>0</asrwt>
<pdfrwt beam="1">  1       21 0.24503622E+00 0.47091059E+03</pdfrwt>
<pdfrwt beam="2">  1       21 0.24555061E-01 0.47091059E+03</pdfrwt>
<totfact> 0.90645849E+02</totfact>
</mgrwt>
</event>
<event>
 4    1  0.4840996E-002  0.4123029E+03  0.7818608E-02  0.1039601E+00
         21   -1    0    0  503  502  0.00000000000E+00  0.00000000000E+00  0.12311227537E+03  0.12311227537E+03  0.00000000000E+00 0. -1.
         21   -1    0    0  501  503 -0.00000000000E+00 -0.00000000000E+00 -0.18951155202E+04  0.18951155202E+04  0.00000000000E+00 0. -1.
    9000005    1    1    2  501    0  0.97963399769E+02  0.19921359859E+02 -0.14116995586E+04  0.14706764878E+04  0.40000000000E+03 0. -1.
   -9000005    1    1    2    0  502 -0.97963399769E+02 -0.19921359859E+02 -0.36030368632E+03  0.54755130778E+03  0.40000000000E+03 0. -1.
<mgrwt>
<rscale>  2 0.41230291E+03</rscale>
<asrwt>0</asrwt>
<pdfrwt beam="1">  1       21 0.18940349E-01 0.41230291E+03</pdfrwt>
<pdfrwt beam="2">  1       21 0.29155625E+00 0.41230291E+03</pdfrwt>
<totfact> 0.80317171E+02</totfact>
</mgrwt>
</event>
<event>
 4    1  0.4840996E-002  0.4556788E+03  0.7818608E-02  0.1026042E+00
         21   -1    0    0  503  502  0.00000000000E+00  0.00000000000E+00  0.57931086262E+03  0.57931086262E+03  0.00000000000E+00 0.  1.
         21   -1    0    0  501  503 -0.00000000000E+00 -0.00000000000E+00 -0.87562184907E+03  0.87562184907E+03  0.00000000000E+00 0.  1.
    9000005    1    1    2  501    0 -0.18932772597E+03  0.10861962916E+03 -0.70724309301E+03  0.84132990216E+03  0.40000000000E+03 0.  1.
   -9000005    1    1    2    0  502  0.18932772597E+03 -0.10861962916E+03  0.41093210656E+03  0.61360280953E+03  0.40000000000E+03 0.  1.
<mgrwt>
<rscale>  2 0.45567885E+03</rscale>
<asrwt>0</asrwt>
<pdfrwt beam="1">  1       21 0.89124748E-01 0.45567885E+03</pdfrwt>
<pdfrwt beam="2">  1       21 0.13471105E+00 0.45567885E+03</pdfrwt>
<totfact> 0.35069981E+02</totfact>
</mgrwt>
</event>
<event>
 4    1  0.4840996E-002  0.4213182E+03  0.7818608E-02  0.1036638E+00
         21   -1    0    0  501  502  0.00000000000E+00  0.00000000000E+00  0.69022936713E+03  0.69022936713E+03  0.00000000000E+00 0.  1.
         21   -1    0    0  502  503 -0.00000000000E+00 -0.00000000000E+00 -0.52801751178E+03  0.52801751178E+03  0.00000000000E+00 0.  1.
    9000005    1    1    2  501    0 -0.12664458570E+03 -0.38342424566E+02  0.51736094046E+03  0.66721161210E+03  0.40000000000E+03 0.  1.
   -9000005    1    1    2    0  503  0.12664458570E+03  0.38342424566E+02 -0.35514908511E+03  0.55103526680E+03  0.40000000000E+03 0.  1.
<mgrwt>
<rscale>  2 0.42131816E+03</rscale>
<asrwt>0</asrwt>
<pdfrwt beam="1">  1       21 0.10618913E+00 0.42131816E+03</pdfrwt>
<pdfrwt beam="2">  1       21 0.81233463E-01 0.42131816E+03</pdfrwt>
<totfact> 0.80909284E+02</totfact>
</mgrwt>
</event>
<event>
 4    1  0.4840996E-002  0.5332066E+03  0.7818608E-02  0.1005457E+00
         21   -1    0    0  501  502  0.00000000000E+00  0.00000000000E+00  0.50403479207E+03  0.50403479207E+03  0.00000000000E+00 0. -1.
         21   -1    0    0  502  503 -0.00000000000E+00 -0.00000000000E+00 -0.85061589144E+03  0.85061589144E+03  0.00000000000E+00 0. -1.
    9000005    1    1    2  501    0  0.30216322124E+03  0.18167733168E+03  0.21983397478E+03  0.57674625407E+03  0.40000000000E+03 0. -1.
   -9000005    1    1    2    0  503 -0.30216322124E+03 -0.18167733168E+03 -0.56641507415E+03  0.77790442944E+03  0.40000000000E+03 0. -1.
<mgrwt>
<rscale>  2 0.53320659E+03</rscale>
<asrwt>0</asrwt>
<pdfrwt beam="1">  1       21 0.77543814E-01 0.53320659E+03</pdfrwt>
<pdfrwt beam="2">  1       21 0.13086398E+00 0.53320659E+03</pdfrwt>
<totfact> 0.50667690E+02</totfact>
</mgrwt>
</event>
<event>
 4    1  0.4840996E-002  0.4148497E+03  0.7818608E-02  0.1038756E+00
         21   -1    0    0  503  502  0.00000000000E+00  0.00000000000E+00  0.21735520687E+04  0.21735520687E+04  0.00000000000E+00 0. -1.
         21   -1    0    0  501  503 -0.00000000000E+00 -0.00000000000E+00 -0.84450571934E+02  0.84450571934E+02  0.00000000000E+00 0. -1.
    9000005    1    1    2  501    0 -0.33503363624E+02 -0.10477498443E+03  0.76248394745E+03  0.86803343418E+03  0.40000000000E+03 0. -1.
   -9000005    1    1    2    0  502  0.33503363624E+02  0.10477498443E+03  0.13266175493E+04  0.13899692064E+04  0.40000000000E+03 0. -1.
<mgrwt>
<rscale>  2 0.41484970E+03</rscale>
<asrwt>0</asrwt>
<pdfrwt beam="1">  1       21 0.33439258E+00 0.41484970E+03</pdfrwt>
<pdfrwt beam="2">  1       21 0.12992397E-01 0.41484970E+03</pdfrwt>
<totfact> 0.89356961E+02</totfact>
</mgrwt>
</event>
<event>
 4    1  0.4840996E-002  0.5313823E+03  0.7818608E-02  0.1005897E+00
         21   -1    0    0  501  502  0.00000000000E+00  0.00000000000E+00  0.15889313788E+04  0.15889313788E+04  0.00000000000E+00 0. -1.
         21   -1    0    0  502  503 -0.00000000000E+00 -0.00000000000E+00 -0.22311562266E+03  0.22311562266E+03  0.00000000000E+00 0.  1.
    9000005    1    1    2  501    0 -0.18129424321E+03  0.29916469567E+03  0.10916363966E+04  0.12140993123E+04  0.40000000000E+03 0. -1.
   -9000005    1    1    2    0  503  0.18129424321E+03 -0.29916469567E+03  0.27417935951E+03  0.59794768914E+03  0.40000000000E+03 0.  1.
<mgrwt>
<rscale>  2 0.53138227E+03</rscale>
<asrwt>0</asrwt>
<pdfrwt beam="1">  1       21 0.24445097E+00 0.53138227E+03</pdfrwt>
<pdfrwt beam="2">  1       21 0.34325481E-01 0.53138227E+03</pdfrwt>
<totfact> 0.45747540E+02</totfact>
</mgrwt>
</event>
<event>
 4    1  0.4840996E-002  0.4285167E+03  0.7818608E-02  0.1034330E+00
         21   -1    0    0  503  502  0.00000000000E+00  0.00000000000E+00  0.34334705404E+03  0.34334705404E+03  0.00000000000E+00 0.  1.
         21   -1    0    0  501  503 -0.00000000000E+00 -0.00000000000E+00 -0.73332957299E+03  0.73332957299E+03  0.00000000000E+00 0. -1.
    9000005    1    1    2  501    0 -0.14577687167E+03  0.48741036224E+02 -0.47508519273E+03  0.63979100125E+03  0.40000000000E+03 0. -1.
   -9000005    1    1    2    0  502  0.14577687167E+03 -0.48741036224E+02  0.85102673775E+02  0.43688562578E+03  0.40000000000E+03 0.  1.
<mgrwt>
<rscale>  2 0.42851673E+03</rscale>
<asrwt>0</asrwt>
<pdfrwt beam="1">  1       21 0.52822624E-01 0.42851673E+03</pdfrwt>
<pdfrwt beam="2">  1       21 0.11281993E+00 0.42851673E+03</pdfrwt>
<totfact> 0.18083274E+03</totfact>
</mgrwt>
</event>
<event>
 4    1  0.4840996E-002  0.4862023E+03  0.7818608E-02  0.1017444E+00
         21   -1    0    0  501  502  0.00000000000E+00  0.00000000000E+00  0.21957321515E+03  0.21957321515E+03  0.00000000000E+00 0. -1.
         21   -1    0    0  502  503 -0.00000000000E+00 -0.00000000000E+00 -0.11314755779E+04  0.11314755779E+04  0.00000000000E+00 0. -1.
    9000005    1    1    2  501    0 -0.12941696798E+03  0.24422113723E+03 -0.30718488936E+03  0.57511326860E+03  0.40000000000E+03 0.  1.
   -9000005    1    1    2    0  503  0.12941696798E+03 -0.24422113723E+03 -0.60471747338E+03  0.77593552444E+03  0.40000000000E+03 0.  1.
<mgrwt>
<rscale>  2 0.48620234E+03</rscale>
<asrwt>0</asrwt>
<pdfrwt beam="1">  1       21 0.33780494E-01 0.48620234E+03</pdfrwt>
<pdfrwt beam="2">  1       21 0.17407317E+00 0.48620234E+03</pdfrwt>
<totfact> 0.14062920E+03</totfact>
</mgrwt>
</event>
<event>
 4    1  0.4840996E-002  0.4618784E+03  0.7818608E-02  0.1024238E+00
         21   -1    0    0  503  502  0.00000000000E+00  0.00000000000E+00  0.17145056451E+03  0.17145056451E+03  0.00000000000E+00 0.  1.
         21   -1    0    0  501  503 -0.00000000000E+00 -0.00000000000E+00 -0.14999309055E+04  0.14999309055E+04  0.00000000000E+00 0.  1.
    9000005    1    1    2  501    0  0.47177695956E+02  0.22606623110E+03 -0.10092549923E+04  0.11099222114E+04  0.40000000000E+03 0.  1.
   -9000005    1    1    2    0  502 -0.47177695956E+02 -0.22606623110E+03 -0.31922534864E+03  0.56145925858E+03  0.40000000000E+03 0.  1.
<mgrwt>
<rscale>  2 0.46187842E+03</rscale>
<asrwt>0</asrwt>
<pdfrwt beam="1">  1       21 0.26377009E-01 0.46187842E+03</pdfrwt>
<pdfrwt beam="2">  1       21 0.23075861E+00 0.46187842E+03</pdfrwt>
<totfact> 0.97188575E+02</totfact>
</mgrwt>
</event>
<event>
 4    1  0.4840996E-002  0.6182380E+03  0.7818608E-02  0.9868274E-01
         21   -1    0    0  501  502  0.00000000000E+00  0.00000000000E+00  0.37160161727E+03  0.37160161727E+03  0.00000000000E+00 0.  1.
         21   -1    0    0  502  503 -0.00000000000E+00 -0.00000000000E+00 -0.10285698233E+04  0.10285698233E+04  0.00000000000E+00 0.  1.
    9000005    1    1    2  501    0  0.39397147738E+03  0.25885261738E+03 -0.32838730657E+03  0.70004030286E+03  0.40000000000E+03 0.  1.
   -9000005    1    1    2    0  503 -0.39397147738E+03 -0.25885261738E+03 -0.32858089946E+03  0.70013113772E+03  0.40000000000E+03 0.  1.
<mgrwt>
<rscale>  2 0.61823798E+03</rscale>
<asrwt>0</asrwt>
<pdfrwt beam="1">  1       21 0.57169479E-01 0.61823798E+03</pdfrwt>
<pdfrwt beam="2">  1       21 0.15824151E+00 0.61823798E+03</pdfrwt>
<totfact> 0.58343044E+02</totfact>
</mgrwt>
</event>
<event>
 4    1  0.4840996E-002  0.6493909E+03  0.7818608E-02  0.9807923E-01
         21   -1    0    0  501  502  0.00000000000E+00  0.00000000000E+00  0.21933869513E+04  0.21933869513E+04  0.00000000000E+00 0.  1.
         21   -1    0    0  502  503 -0.00000000000E+00 -0.00000000000E+00 -0.20457872106E+03  0.20457872106E+03  0.00000000000E+00 0. -1.
    9000005    1    1    2  501    0  0.81625336019E+02  0.50502069129E+03  0.70023227774E+03  0.95500462663E+03  0.40000000000E+03 0. -1.
   -9000005    1    1    2    0  503 -0.81625336019E+02 -0.50502069129E+03  0.12885759525E+04  0.14429610458E+04  0.40000000000E+03 0.  1.
<mgrwt>
<rscale>  2 0.64939094E+03</rscale>
<asrwt>0</asrwt>
<pdfrwt beam="1">  1       21 0.33744413E+00 0.64939094E+03</pdfrwt>
<pdfrwt beam="2">  1       21 0.31473651E-01 0.64939094E+03</pdfrwt>
<totfact> 0.13944184E+02</totfact>
</mgrwt>
</event>
<event>
 4    1  0.4840996E-002  0.5108767E+03  0.7818608E-02  0.1010978E+00
         21   -1    0    0  503  502  0.00000000000E+00  0.00000000000E+00  0.32474005534E+03  0.32474005534E+03  0.00000000000E+00 0.  1.
         21   -1    0    0  501  503 -0.00000000000E+00 -0.00000000000E+00 -0.80841701579E+03  0.80841701579E+03  0.00000000000E+00 0.  1.
    9000005    1    1    2  501    0  0.61376980607E+02 -0.31181388826E+03 -0.19858011513E+03  0.54811412752E+03  0.40000000000E+03 0.  1.
   -9000005    1    1    2    0  502 -0.61376980607E+02  0.31181388826E+03 -0.28509684532E+03  0.58504294361E+03  0.40000000000E+03 0.  1.
<mgrwt>
<rscale>  2 0.51087673E+03</rscale>
<asrwt>0</asrwt>
<pdfrwt beam="1">  1       21 0.49960009E-01 0.51087673E+03</pdfrwt>
<pdfrwt beam="2">  1       21 0.12437185E+00 0.51087673E+03</pdfrwt>
<totfact> 0.15430644E+03</totfact>
</mgrwt>
</event>
<event>
 4    1  0.4840996E-002  0.4324800E+03  0.7818608E-02  0.1033079E+00
         21   -1    0    0  501  502  0.00000000000E+00  0.00000000000E+00  0.59197416743E+03  0.59197416743E+03  0.00000000000E+00 0. -1.
         21   -1    0    0  502  503 -0.00000000000E+00 -0.00000000000E+00 -0.81492068429E+03  0.81492068429E+03  0.00000000000E+00 0. -1.
    9000005    1    1    2  501    0 -0.15606014311E+03  0.51808721376E+02  0.43896429208E+03  0.61622119535E+03  0.40000000000E+03 0. -1.
   -9000005    1    1    2    0  503  0.15606014311E+03 -0.51808721376E+02 -0.66191080894E+03  0.79067365637E+03  0.40000000000E+03 0. -1.
<mgrwt>
<rscale>  2 0.43247996E+03</rscale>
<asrwt>0</asrwt>
<pdfrwt beam="1">  1       21 0.91072949E-01 0.43247996E+03</pdfrwt>
<pdfrwt beam="2">  1       21 0.12537241E+00 0.43247996E+03</pdfrwt>
<totfact> 0.40590995E+02</totfact>
</mgrwt>
</event>
<event>
 4    1  0.4840996E-002  0.4745223E+03  0.7818608E-02  0.1020652E+00
         21   -1    0    0  503  502  0.00000000000E+00  0.00000000000E+00  0.20200405273E+03  0.20200405273E+03  0.00000000000E+00 0. -1.
         21   -1    0    0  501  503 -0.00000000000E+00 -0.00000000000E+00 -0.12338254397E+04  0.12338254397E+04  0.00000000000E+00 0. -1.
    9000005    1    1    2  501    0 -0.42576971972E+02  0.25171128155E+03 -0.29282522614E+03  0.55760019805E+03  0.40000000000E+03 0. -1.
   -9000005    1    1    2    0  502  0.42576971972E+02 -0.25171128155E+03 -0.73899616087E+03  0.87822929442E+03  0.40000000000E+03 0. -1.
<mgrwt>
<rscale>  2 0.47452225E+03</rscale>
<asrwt>0</asrwt>
<pdfrwt beam="1">  1       21 0.31077547E-01 0.47452225E+03</pdfrwt>
<pdfrwt beam="2">  1       21 0.18981930E+00 0.47452225E+03</pdfrwt>
<totfact> 0.12948219E+03</totfact>
</mgrwt>
</event>
<event>
 4    1  0.4840996E-002  0.4185109E+03  0.7818608E-02  0.1037552E+00
         21   -1    0    0  501  502  0.00000000000E+00  0.00000000000E+00  0.81614616362E+03  0.81614616362E+03  0.00000000000E+00 0. -1.
         21   -1    0    0  502  503 -0.00000000000E+00 -0.00000000000E+00 -0.33339435595E+03  0.33339435595E+03  0.00000000000E+00 0. -1.
    9000005    1    1    2  501    0 -0.39563955231E+02 -0.11655920193E+03  0.58445856026E+03  0.71884849779E+03  0.40000000000E+03 0. -1.
   -9000005    1    1    2    0  503  0.39563955231E+02  0.11655920193E+03 -0.10170675260E+03  0.43069202179E+03  0.40000000000E+03 0. -1.
<mgrwt>
<rscale>  2 0.41851088E+03</rscale>
<asrwt>0</asrwt>
<pdfrwt beam="1">  1       21 0.12556095E+00 0.41851088E+03</pdfrwt>
<pdfrwt beam="2">  1       21 0.51291440E-01 0.41851088E+03</pdfrwt>
<totfact> 0.14753526E+03</totfact>
</mgrwt>
</event>
<event>
 4    1  0.4840996E-002  0.5096137E+03  0.7818608E-02  0.1011300E+00
         21   -1    0    0  503  502  0.00000000000E+00  0.00000000000E+00  0.77237406869E+03  0.77237406869E+03  0.00000000000E+00 0.  1.
         21   -1    0    0  501  503 -0.00000000000E+00 -0.00000000000E+00 -0.42282230287E+03  0.42282230287E+03  0.00000000000E+00 0. -1.
    9000005    1    1    2  501    0  0.24766957492E+03  0.19587226928E+03 -0.95641623004E+02  0.51851083331E+03  0.40000000000E+03 0. -1.
   -9000005    1    1    2    0  502 -0.24766957492E+03 -0.19587226928E+03  0.44519338882E+03  0.67668553824E+03  0.40000000000E+03 0.  1.
<mgrwt>
<rscale>  2 0.50961374E+03</rscale>
<asrwt>0</asrwt>
<pdfrwt beam="1">  1       21 0.11882678E+00 0.50961374E+03</pdfrwt>
<pdfrwt beam="2">  1       21 0.65049585E-01 0.50961374E+03</pdfrwt>
<totfact> 0.97634217E+02</totfact>
</mgrwt>
</event>
<event>
 4    1  0.4840996E-002  0.4980146E+03  0.7818608E-02  0.1014298E+00
         21   -1    0    0  501  502  0.00000000000E+00  0.00000000000E+00  0.28287650540E+03  0.28287650540E+03  0.00000000000E+00 0.  1.
         21   -1    0    0  502  503 -0.00000000000E+00 -0.00000000000E+00 -0.97732098331E+03  0.97732098331E+03  0.00000000000E+00 0.  1.
    9000005    1    1    2  501    0  0.28002664556E+03 -0.97997928915E+02 -0.14511753353E+03  0.51872691740E+03  0.40000000000E+03 0.  1.
   -9000005    1    1    2    0  503 -0.28002664556E+03  0.97997928915E+02 -0.54932694438E+03  0.74147057131E+03  0.40000000000E+03 0.  1.
<mgrwt>
<rscale>  2 0.49801457E+03</rscale>
<asrwt>0</asrwt>
<pdfrwt beam="1">  1       21 0.43519462E-01 0.49801457E+03</pdfrwt>
<pdfrwt beam="2">  1       21 0.15035708E+00 0.49801457E+03</pdfrwt>
<totfact> 0.12551094E+03</totfact>
</mgrwt>
</event>
<event>
 4    1  0.4840996E-002  0.4802129E+03  0.7818608E-02  0.1019077E+00
         21   -1    0    0  501  502  0.00000000000E+00  0.00000000000E+00  0.38374126905E+03  0.38374126905E+03  0.00000000000E+00 0.  1.
         21   -1    0    0  502  503 -0.00000000000E+00 -0.00000000000E+00 -0.77136765547E+03  0.77136765547E+03  0.00000000000E+00 0.  1.
    9000005    1    1    2  501    0 -0.25321409587E+03  0.80542362234E+02  0.77665455403E+02  0.48645284810E+03  0.40000000000E+03 0.  1.
   -9000005    1    1    2    0  503  0.25321409587E+03 -0.80542362234E+02 -0.46529184183E+03  0.66865607642E+03  0.40000000000E+03 0.  1.
<mgrwt>
<rscale>  2 0.48021292E+03</rscale>
<asrwt>0</asrwt>
<pdfrwt beam="1">  1       21 0.59037118E-01 0.48021292E+03</pdfrwt>
<pdfrwt beam="2">  1       21 0.11867195E+00 0.48021292E+03</pdfrwt>
<totfact> 0.12269502E+03</totfact>
</mgrwt>
</event>
<event>
 4    1  0.4840996E-002  0.5657618E+03  0.7818608E-02  0.9979101E-01
         21   -1    0    0  503  502  0.00000000000E+00  0.00000000000E+00  0.74115763481E+03  0.74115763481E+03  0.00000000000E+00 0. -1.
         21   -1    0    0  501  503 -0.00000000000E+00 -0.00000000000E+00 -0.95412085483E+03  0.95412085483E+03  0.00000000000E+00 0.  1.
    9000005    1    1    2  501    0 -0.29419627978E+03  0.27117340754E+03 -0.73359693701E+03  0.92641833638E+03  0.40000000000E+03 0.  1.
   -9000005    1    1    2    0  502  0.29419627978E+03 -0.27117340754E+03  0.52063371699E+03  0.76886015325E+03  0.40000000000E+03 0. -1.
<mgrwt>
<rscale>  2 0.56576185E+03</rscale>
<asrwt>0</asrwt>
<pdfrwt beam="1">  1       21 0.11402425E+00 0.56576185E+03</pdfrwt>
<pdfrwt beam="2">  1       21 0.14678782E+00 0.56576185E+03</pdfrwt>
<totfact> 0.14554004E+02</totfact>
</mgrwt>
</event>
<event>
 4    1  0.4840996E-002  0.4348525E+03  0.7818608E-02  0.1032338E+00
         21   -1    0    0  503  502  0.00000000000E+00  0.00000000000E+00  0.13101841330E+04  0.13101841330E+04  0.00000000000E+00 0. -1.
         21   -1    0    0  501  503 -0.00000000000E+00 -0.00000000000E+00 -0.17362835419E+03  0.17362835419E+03  0.00000000000E+00 0.  1.
    9000005    1    1    2  501    0 -0.11808767349E+03 -0.12309356376E+03  0.26350769890E+03  0.50846143556E+03  0.40000000000E+03 0.  1.
   -9000005    1    1    2    0  502  0.11808767349E+03  0.12309356376E+03  0.87304807986E+03  0.97535105158E+03  0.40000000000E+03 0. -1.
<mgrwt>
<rscale>  2 0.43485253E+03</rscale>
<asrwt>0</asrwt>
<pdfrwt beam="1">  1       21 0.20156678E+00 0.43485253E+03</pdfrwt>
<pdfrwt beam="2">  1       21 0.26712055E-01 0.43485253E+03</pdfrwt>
<totfact> 0.14809069E+03</totfact>
</mgrwt>
</event>
<event>
 4    1  0.4840996E-002  0.4267052E+03  0.7818608E-02  0.1034906E+00
         21   -1    0    0  503  502  0.00000000000E+00  0.00000000000E+00  0.18702761585E+03  0.18702761585E+03  0.00000000000E+00 0.  1.
         21   -1    0    0  501  503 -0.00000000000E+00 -0.00000000000E+00 -0.14698063608E+04  0.14698063608E+04  0.00000000000E+00 0.  1.
    9000005    1    1    2  501    0 -0.10182904334E+03 -0.10820444079E+03 -0.11227603326E+04  0.12011112020E+04  0.40000000000E+03 0.  1.
   -9000005    1    1    2    0  502  0.10182904334E+03  0.10820444079E+03 -0.16001841237E+03  0.45572277469E+03  0.40000000000E+03 0.  1.
<mgrwt>
<rscale>  2 0.42670523E+03</rscale>
<asrwt>0</asrwt>
<pdfrwt beam="1">  1       21 0.28773481E-01 0.42670523E+03</pdfrwt>
<pdfrwt beam="2">  1       21 0.22612404E+00 0.42670523E+03</pdfrwt>
<totfact> 0.89130732E+02</totfact>
</mgrwt>
</event>
<event>
 4    1  0.4840996E-002  0.4378564E+03  0.7818608E-02  0.1031407E+00
         21   -1    0    0  503  502  0.00000000000E+00  0.00000000000E+00  0.28085830623E+03  0.28085830623E+03  0.00000000000E+00 0. -1.
         21   -1    0    0  501  503 -0.00000000000E+00 -0.00000000000E+00 -0.68360925053E+03  0.68360925053E+03  0.00000000000E+00 0.  1.
    9000005    1    1    2  501    0  0.10881449598E+03  0.14098791353E+03 -0.21976323054E+03  0.48991230214E+03  0.40000000000E+03 0.  1.
   -9000005    1    1    2    0  502 -0.10881449598E+03 -0.14098791353E+03 -0.18298771376E+03  0.47455525462E+03  0.40000000000E+03 0.  1.
<mgrwt>
<rscale>  2 0.43785635E+03</rscale>
<asrwt>0</asrwt>
<pdfrwt beam="1">  1       21 0.43208971E-01 0.43785635E+03</pdfrwt>
<pdfrwt beam="2">  1       21 0.10517065E+00 0.43785635E+03</pdfrwt>
<totfact> 0.32763914E+03</totfact>
</mgrwt>
</event>
<event>
 4    1  0.4840996E-002  0.4161156E+03  0.7818608E-02  0.1038338E+00
         21   -1    0    0  501  502  0.00000000000E+00  0.00000000000E+00  0.73126359202E+03  0.73126359202E+03  0.00000000000E+00 0.  1.
         21   -1    0    0  502  503 -0.00000000000E+00 -0.00000000000E+00 -0.32473102067E+03  0.32473102067E+03  0.00000000000E+00 0.  1.
    9000005    1    1    2  501    0  0.67023080148E+02  0.93059765035E+02  0.47804180549E+03  0.63377928408E+03  0.40000000000E+03 0.  1.
   -9000005    1    1    2    0  503 -0.67023080148E+02 -0.93059765035E+02 -0.71509234142E+02  0.42221532860E+03  0.40000000000E+03 0.  1.
<mgrwt>
<rscale>  2 0.41611562E+03</rscale>
<asrwt>0</asrwt>
<pdfrwt beam="1">  1       21 0.11250209E+00 0.41611562E+03</pdfrwt>
<pdfrwt beam="2">  1       21 0.49958619E-01 0.41611562E+03</pdfrwt>
<totfact> 0.20613504E+03</totfact>
</mgrwt>
</event>
<event>
 4    1  0.4840996E-002  0.5015633E+03  0.7818608E-02  0.1013372E+00
         21   -1    0    0  503  502  0.00000000000E+00  0.00000000000E+00  0.14491494603E+04  0.14491494603E+04  0.00000000000E+00 0. -1.
         21   -1    0    0  501  503 -0.00000000000E+00 -0.00000000000E+00 -0.20104230648E+03  0.20104230648E+03  0.00000000000E+00 0. -1.
    9000005    1    1    2  501    0  0.15577742238E+03  0.25942072572E+03  0.31918884594E+03  0.59451428715E+03  0.40000000000E+03 0. -1.
   -9000005    1    1    2    0  502 -0.15577742238E+03 -0.25942072572E+03  0.92891830787E+03  0.10556774796E+04  0.40000000000E+03 0. -1.
<mgrwt>
<rscale>  2 0.50156327E+03</rscale>
<asrwt>0</asrwt>
<pdfrwt beam="1">  1       21 0.22294606E+00 0.50156327E+03</pdfrwt>
<pdfrwt beam="2">  1       21 0.30929587E-01 0.50156327E+03</pdfrwt>
<totfact> 0.78072196E+02</totfact>
</mgrwt>
</event>
<event>
 4    1  0.4840996E-002  0.4055608E+03  0.7818608E-02  0.1041871E+00
         21   -1    0    0  503  502  0.00000000000E+00  0.00000000000E+00  0.29901184593E+03  0.29901184593E+03  0.00000000000E+00 0. -1.
         21   -1    0    0  501  503 -0.00000000000E+00 -0.00000000000E+00 -0.70273162120E+03  0.70273162120E+03  0.00000000000E+00 0. -1.
    9000005    1    1    2  501    0 -0.46017211718E+02  0.48600571770E+02 -0.43530590371E+03  0.59495447654E+03  0.40000000000E+03 0. -1.
   -9000005    1    1    2    0  502  0.46017211718E+02 -0.48600571770E+02  0.31586128443E+02  0.40678899058E+03  0.40000000000E+03 0. -1.
<mgrwt>
<rscale>  2 0.40556085E+03</rscale>
<asrwt>0</asrwt>
<pdfrwt beam="1">  1       21 0.46001822E-01 0.40556085E+03</pdfrwt>
<pdfrwt beam="2">  1       21 0.10811256E+00 0.40556085E+03</pdfrwt>
<totfact> 0.27192000E+03</totfact>
</mgrwt>
</event>
<event>
 4    1  0.4840996E-002  0.6857760E+03  0.7818608E-02  0.9741871E-01
         21   -1    0    0  501  502  0.00000000000E+00  0.00000000000E+00  0.36099124623E+03  0.36099124623E+03  0.00000000000E+00 0. -1.
         21   -1    0    0  502  503 -0.00000000000E+00 -0.00000000000E+00 -0.14799593035E+04  0.14799593035E+04  0.00000000000E+00 0. -1.
    9000005    1    1    2  501    0  0.34398975104E+03 -0.43813213473E+03 -0.87798112725E+03  0.11140644398E+04  0.40000000000E+03 0. -1.
   -9000005    1    1    2    0  503 -0.34398975104E+03  0.43813213473E+03 -0.24098693001E+03  0.72688610988E+03  0.40000000000E+03 0. -1.
<mgrwt>
<rscale>  2 0.68577600E+03</rscale>
<asrwt>0</asrwt>
<pdfrwt beam="1">  1       21 0.55537114E-01 0.68577600E+03</pdfrwt>
<pdfrwt beam="2">  1       21 0.22768605E+00 0.68577600E+03</pdfrwt>
<totfact> 0.20011779E+02</totfact>
</mgrwt>
</event>
<event>
 4    1  0.4840996E-002  0.4182056E+03  0.7818608E-02  0.1037652E+00
         21   -1    0    0  501  502  0.00000000000E+00  0.00000000000E+00  0.27711546716E+03  0.27711546716E+03  0.00000000000E+00 0.  1.
         21   -1    0    0  502  503 -0.00000000000E+00 -0.00000000000E+00 -0.64399891848E+03  0.64399891848E+03  0.00000000000E+00 0.  1.
    9000005    1    1    2  501    0 -0.10065126765E+03 -0.69030462476E+02 -0.24854639971E+03  0.48648863834E+03  0.40000000000E+03 0. -1.
   -9000005    1    1    2    0  503  0.10065126765E+03  0.69030462476E+02 -0.11833705161E+03  0.43462574730E+03  0.40000000000E+03 0. -1.
<mgrwt>
<rscale>  2 0.41820555E+03</rscale>
<asrwt>0</asrwt>
<pdfrwt beam="1">  1       21 0.42633150E-01 0.41820555E+03</pdfrwt>
<pdfrwt beam="2">  1       21 0.99076755E-01 0.41820555E+03</pdfrwt>
<totfact> 0.39259505E+03</totfact>
</mgrwt>
</event>
<event>
 4    1  0.4840996E-002  0.4244037E+03  0.7818608E-02  0.1035643E+00
         21   -1    0    0  503  502  0.00000000000E+00  0.00000000000E+00  0.17838161477E+03  0.17838161477E+03  0.00000000000E+00 0.  1.
         21   -1    0    0  501  503 -0.00000000000E+00 -0.00000000000E+00 -0.17305880121E+04  0.17305880121E+04  0.00000000000E+00 0.  1.
    9000005    1    1    2  501    0  0.13653473040E+03  0.38429052532E+02 -0.13921233511E+04  0.14553782839E+04  0.40000000000E+03 0.  1.
   -9000005    1    1    2    0  502 -0.13653473040E+03 -0.38429052532E+02 -0.16008304623E+03  0.45359134292E+03  0.40000000000E+03 0.  1.
<mgrwt>
<rscale>  2 0.42440373E+03</rscale>
<asrwt>0</asrwt>
<pdfrwt beam="1">  1       21 0.27443325E-01 0.42440373E+03</pdfrwt>
<pdfrwt beam="2">  1       21 0.26624431E+00 0.42440373E+03</pdfrwt>
<totfact> 0.55451148E+02</totfact>
</mgrwt>
</event>
<event>
 4    1  0.4840996E-002  0.4339585E+03  0.7818608E-02  0.1032617E+00
         21   -1    0    0  503  502  0.00000000000E+00  0.00000000000E+00  0.37645957290E+03  0.37645957290E+03  0.00000000000E+00 0.  1.
         21   -1    0    0  501  503 -0.00000000000E+00 -0.00000000000E+00 -0.74197702415E+03  0.74197702415E+03  0.00000000000E+00 0.  1.
    9000005    1    1    2  501    0 -0.80464489294E+02  0.14780196707E+03 -0.50195525703E+03  0.66353525571E+03  0.40000000000E+03 0.  1.
   -9000005    1    1    2    0  502  0.80464489294E+02 -0.14780196707E+03  0.13643780578E+03  0.45490134134E+03  0.40000000000E+03 0.  1.
<mgrwt>
<rscale>  2 0.43395847E+03</rscale>
<asrwt>0</asrwt>
<pdfrwt beam="1">  1       21 0.57916857E-01 0.43395847E+03</pdfrwt>
<pdfrwt beam="2">  1       21 0.11415031E+00 0.43395847E+03</pdfrwt>
<totfact> 0.14364805E+03</totfact>
</mgrwt>
</event>
<event>
 4    1  0.4840996E-002  0.4745001E+03  0.7818608E-02  0.1020658E+00
         21   -1    0    0  501  502  0.00000000000E+00  0.00000000000E+00  0.10293410967E+04  0.10293410967E+04  0.00000000000E+00 0. -1.
         21   -1    0    0  502  503 -0.00000000000E+00 -0.00000000000E+00 -0.22741039187E+03  0.22741039187E+03  0.00000000000E+00 0. -1.
    9000005    1    1    2  501    0 -0.22138397608E+03  0.12704133595E+03  0.27821548702E+03  0.55004929154E+03  0.40000000000E+03 0.  1.
   -9000005    1    1    2    0  503  0.22138397608E+03 -0.12704133595E+03  0.52371521777E+03  0.70670219699E+03  0.40000000000E+03 0.  1.
<mgrwt>
<rscale>  2 0.47450012E+03</rscale>
<asrwt>0</asrwt>
<pdfrwt beam="1">  1       21 0.15836017E+00 0.47450012E+03</pdfrwt>
<pdfrwt beam="2">  1       21 0.34986215E-01 0.47450012E+03</pdfrwt>
<totfact> 0.17201579E+03</totfact>
</mgrwt>
</event>
<event>
 4    1  0.4840996E-002  0.5064429E+03  0.7818608E-02  0.1012111E+00
         21   -1    0    0  503  502  0.00000000000E+00  0.00000000000E+00  0.12279843276E+04  0.12279843276E+04  0.00000000000E+00 0. -1.
         21   -1    0    0  501  503 -0.00000000000E+00 -0.00000000000E+00 -0.39634073570E+03  0.39634073570E+03  0.00000000000E+00 0. -1.
    9000005    1    1    2  501    0  0.83586927183E+02 -0.29916153652E+03 -0.14275097006E+03  0.52617700328E+03  0.40000000000E+03 0. -1.
   -9000005    1    1    2    0  502 -0.83586927183E+02  0.29916153652E+03  0.97439456196E+03  0.10981480600E+04  0.40000000000E+03 0. -1.
<mgrwt>
<rscale>  2 0.50644289E+03</rscale>
<asrwt>0</asrwt>
<pdfrwt beam="1">  1       21 0.18892066E+00 0.50644289E+03</pdfrwt>
<pdfrwt beam="2">  1       21 0.60975498E-01 0.50644289E+03</pdfrwt>
<totfact> 0.31625105E+02</totfact>
</mgrwt>
</event>
<event>
 4    1  0.4840996E-002  0.4255824E+03  0.7818608E-02  0.1035265E+00
         21   -1    0    0  501  502  0.00000000000E+00  0.00000000000E+00  0.44556251747E+03  0.44556251747E+03  0.00000000000E+00 0.  1.
         21   -1    0    0  502  503 -0.00000000000E+00 -0.00000000000E+00 -0.51686233047E+03  0.51686233047E+03  0.00000000000E+00 0.  1.
    9000005    1    1    2  501    0 -0.14476541003E+03 -0.12781887218E+02  0.18671343438E+03  0.46473896669E+03  0.40000000000E+03 0. -1.
   -9000005    1    1    2    0  503  0.14476541003E+03  0.12781887218E+02 -0.25801324737E+03  0.49768588126E+03  0.40000000000E+03 0. -1.
<mgrwt>
<rscale>  2 0.42558243E+03</rscale>
<asrwt>0</asrwt>
<pdfrwt beam="1">  1       21 0.68548080E-01 0.42558243E+03</pdfrwt>
<pdfrwt beam="2">  1       21 0.79517281E-01 0.42558243E+03</pdfrwt>
<totfact> 0.23654643E+03</totfact>
</mgrwt>
</event>
<event>
 4    1  0.4840996E-002  0.4842915E+03  0.7818608E-02  0.1017962E+00
         21   -1    0    0  503  502  0.00000000000E+00  0.00000000000E+00  0.49570859277E+03  0.49570859277E+03  0.00000000000E+00 0. -1.
         21   -1    0    0  501  503 -0.00000000000E+00 -0.00000000000E+00 -0.48855165239E+03  0.48855165239E+03  0.00000000000E+00 0. -1.
    9000005    1    1    2  501    0  0.26654361819E+03  0.59099822403E+02 -0.83836441129E+02  0.49149449465E+03  0.40000000000E+03 0. -1.
   -9000005    1    1    2    0  502 -0.26654361819E+03 -0.59099822403E+02  0.90993381506E+02  0.49276575052E+03  0.40000000000E+03 0. -1.
<mgrwt>
<rscale>  2 0.48429153E+03</rscale>
<asrwt>0</asrwt>
<pdfrwt beam="1">  1       21 0.76262860E-01 0.48429153E+03</pdfrwt>
<pdfrwt beam="2">  1       21 0.75161793E-01 0.48429153E+03</pdfrwt>
<totfact> 0.20690209E+03</totfact>
</mgrwt>
</event>
<event>
 4    1  0.4840996E-002  0.4761185E+03  0.7818608E-02  0.1020207E+00
         21   -1    0    0  503  502  0.00000000000E+00  0.00000000000E+00  0.10946119998E+03  0.10946119998E+03  0.00000000000E+00 0. -1.
         21   -1    0    0  501  503 -0.00000000000E+00 -0.00000000000E+00 -0.21216663496E+04  0.21216663496E+04  0.00000000000E+00 0. -1.
    9000005    1    1    2  501    0 -0.14024366914E+03  0.21684229232E+03 -0.11785760245E+04  0.12711138076E+04  0.40000000000E+03 0. -1.
   -9000005    1    1    2    0  502  0.14024366914E+03 -0.21684229232E+03 -0.83362912520E+03  0.96001374202E+03  0.40000000000E+03 0. -1.
<mgrwt>
<rscale>  2 0.47611854E+03</rscale>
<asrwt>0</asrwt>
<pdfrwt beam="1">  1       21 0.16840186E-01 0.47611854E+03</pdfrwt>
<pdfrwt beam="2">  1       21 0.32641018E+00 0.47611854E+03</pdfrwt>
<totfact> 0.59610038E+02</totfact>
</mgrwt>
</event>
<event>
 4    1  0.4840996E-002  0.5139130E+03  0.7818608E-02  0.1010210E+00
         21   -1    0    0  503  502  0.00000000000E+00  0.00000000000E+00  0.64315846104E+03  0.64315846104E+03  0.00000000000E+00 0. -1.
         21   -1    0    0  501  503 -0.00000000000E+00 -0.00000000000E+00 -0.41847521655E+03  0.41847521655E+03  0.00000000000E+00 0.  1.
    9000005    1    1    2  501    0  0.12165773226E+03  0.29884100066E+03  0.39708088694E+02  0.51544473981E+03  0.40000000000E+03 0.  1.
   -9000005    1    1    2    0  502 -0.12165773226E+03 -0.29884100066E+03  0.18497515580E+03  0.54618893778E+03  0.40000000000E+03 0.  1.
<mgrwt>
<rscale>  2 0.51391298E+03</rscale>
<asrwt>0</asrwt>
<pdfrwt beam="1">  1       21 0.98947455E-01 0.51391298E+03</pdfrwt>
<pdfrwt beam="2">  1       21 0.64380803E-01 0.51391298E+03</pdfrwt>
<totfact> 0.15718002E+03</totfact>
</mgrwt>
</event>
<event>
 4    1  0.4840996E-002  0.4271245E+03  0.7818608E-02  0.1034772E+00
         21   -1    0    0  501  502  0.00000000000E+00  0.00000000000E+00  0.26459462695E+03  0.26459462695E+03  0.00000000000E+00 0.  1.
         21   -1    0    0  502  503 -0.00000000000E+00 -0.00000000000E+00 -0.15740510414E+04  0.15740510414E+04  0.00000000000E+00 0.  1.
    9000005    1    1    2  501    0  0.10390812591E+02 -0.14942344699E+03  0.34435753906E+02  0.42851039269E+03  0.40000000000E+03 0.  1.
   -9000005    1    1    2    0  503 -0.10390812591E+02  0.14942344699E+03 -0.13438921683E+04  0.14101352756E+04  0.40000000000E+03 0.  1.
<mgrwt>
<rscale>  2 0.42712450E+03</rscale>
<asrwt>0</asrwt>
<pdfrwt beam="1">  1       21 0.40706865E-01 0.42712450E+03</pdfrwt>
<pdfrwt beam="2">  1       21 0.24216170E+00 0.42712450E+03</pdfrwt>
<totfact> 0.35148809E+02</totfact>
</mgrwt>
</event>
<event>
 4    1  0.4840996E-002  0.4252421E+03  0.7818608E-02  0.1035374E+00
         21   -1    0    0  501  502  0.00000000000E+00  0.00000000000E+00  0.29622614064E+03  0.29622614064E+03  0.00000000000E+00 0. -1.
         21   -1    0    0  502  503 -0.00000000000E+00 -0.00000000000E+00 -0.62189893841E+03  0.62189893841E+03  0.00000000000E+00 0.  1.
    9000005    1    1    2  501    0  0.48667835889E+02  0.13587589565E+03 -0.10054585760E+03  0.43696714608E+03  0.40000000000E+03 0. -1.
   -9000005    1    1    2    0  503 -0.48667835889E+02 -0.13587589565E+03 -0.22512694017E+03  0.48115793297E+03  0.40000000000E+03 0. -1.
<mgrwt>
<rscale>  2 0.42524207E+03</rscale>
<asrwt>0</asrwt>
<pdfrwt beam="1">  1       21 0.45573253E-01 0.42524207E+03</pdfrwt>
<pdfrwt beam="2">  1       21 0.95676759E-01 0.42524207E+03</pdfrwt>
<totfact> 0.37059858E+03</totfact>
</mgrwt>
</event>
<event>
 4    1  0.4840996E-002  0.4701702E+03  0.7818608E-02  0.1021872E+00
         21   -1    0    0  503  502  0.00000000000E+00  0.00000000000E+00  0.84508345770E+03  0.84508345770E+03  0.00000000000E+00 0. -1.
         21   -1    0    0  501  503 -0.00000000000E+00 -0.00000000000E+00 -0.36041388784E+03  0.36041388784E+03  0.00000000000E+00 0. -1.
    9000005    1    1    2  501    0 -0.43812474107E+02 -0.24318824315E+03 -0.73296703090E+02  0.47584920004E+03  0.40000000000E+03 0.  1.
   -9000005    1    1    2    0  502  0.43812474107E+02  0.24318824315E+03  0.55796627295E+03  0.72964814551E+03  0.40000000000E+03 0.  1.
<mgrwt>
<rscale>  2 0.47017024E+03</rscale>
<asrwt>0</asrwt>
<pdfrwt beam="1">  1       21 0.13001284E+00 0.47017024E+03</pdfrwt>
<pdfrwt beam="2">  1       21 0.55448291E-01 0.47017024E+03</pdfrwt>
<totfact> 0.11164830E+03</totfact>
</mgrwt>
</event>
<event>
 4    1  0.4840996E-002  0.4059752E+03  0.7818608E-02  0.1041730E+00
         21   -1    0    0  503  502  0.00000000000E+00  0.00000000000E+00  0.68448248476E+03  0.68448248476E+03  0.00000000000E+00 0.  1.
         21   -1    0    0  501  503 -0.00000000000E+00 -0.00000000000E+00 -0.46865017782E+03  0.46865017782E+03  0.00000000000E+00 0.  1.
    9000005    1    1    2  501    0  0.46876186224E+02  0.51171263391E+02 -0.29411529195E+03  0.50131794301E+03  0.40000000000E+03 0.  1.
   -9000005    1    1    2    0  502 -0.46876186224E+02 -0.51171263391E+02  0.50994759888E+03  0.65181471956E+03  0.40000000000E+03 0.  1.
<mgrwt>
<rscale>  2 0.40597521E+03</rscale>
<asrwt>0</asrwt>
<pdfrwt beam="1">  1       21 0.10530500E+00 0.40597521E+03</pdfrwt>
<pdfrwt beam="2">  1       21 0.72100027E-01 0.40597521E+03</pdfrwt>
<totfact> 0.10923399E+03</totfact>
</mgrwt>
</event>
<event>
 4    1  0.4840996E-002  0.5294302E+03  0.7818608E-02  0.1006370E+00
         21   -1    0    0  503  502  0.00000000000E+00  0.00000000000E+00  0.25424271515E+04  0.25424271515E+04  0.00000000000E+00 0. -1.
         21   -1    0    0  501  503 -0.00000000000E+00 -0.00000000000E+00 -0.14565243804E+03  0.14565243804E+03  0.00000000000E+00 0. -1.
    9000005    1    1    2  501    0 -0.48966329571E+01 -0.34680305706E+03  0.53573625184E+03  0.75319962091E+03  0.40000000000E+03 0.  1.
   -9000005    1    1    2    0  502  0.48966329571E+01  0.34680305706E+03  0.18610384616E+04  0.19348799686E+04  0.40000000000E+03 0.  1.
<mgrwt>
<rscale>  2 0.52943020E+03</rscale>
<asrwt>0</asrwt>
<pdfrwt beam="1">  1       21 0.39114261E+00 0.52943020E+03</pdfrwt>
<pdfrwt beam="2">  1       21 0.22408069E-01 0.52943020E+03</pdfrwt>
<totfact> 0.13311878E+02</totfact>
</mgrwt>
</event>
<event>
 4    1  0.4840996E-002  0.4625363E+03  0.7818608E-02  0.1024048E+00
         21   -1    0    0  503  502  0.00000000000E+00  0.00000000000E+00  0.18347310743E+03  0.18347310743E+03  0.00000000000E+00 0.  1.
         21   -1    0    0  501  503 -0.00000000000E+00 -0.00000000000E+00 -0.12397222351E+04  0.12397222351E+04  0.00000000000E+00 0. -1.
    9000005    1    1    2  501    0 -0.14752944211E+03 -0.17937356952E+03 -0.70158811438E+03  0.84033665633E+03  0.40000000000E+03 0. -1.
   -9000005    1    1    2    0  502  0.14752944211E+03  0.17937356952E+03 -0.35466101329E+03  0.58285868620E+03  0.40000000000E+03 0.  1.
<mgrwt>
<rscale>  2 0.46253628E+03</rscale>
<asrwt>0</asrwt>
<pdfrwt beam="1">  1       21 0.28226633E-01 0.46253628E+03</pdfrwt>
<pdfrwt beam="2">  1       21 0.19072649E+00 0.46253628E+03</pdfrwt>
<totfact> 0.15530256E+03</totfact>
</mgrwt>
</event>
<event>
 4    1  0.4840996E-002  0.6188370E+03  0.7818608E-02  0.9867078E-01
         21   -1    0    0  503  502  0.00000000000E+00  0.00000000000E+00  0.12610532546E+04  0.12610532546E+04  0.00000000000E+00 0.  1.
         21   -1    0    0  501  503 -0.00000000000E+00 -0.00000000000E+00 -0.38393414035E+03  0.38393414035E+03  0.00000000000E+00 0.  1.
    9000005    1    1    2  501    0 -0.43910531434E+03  0.17362526480E+03  0.62520938114E+02  0.62198720032E+03  0.40000000000E+03 0.  1.
   -9000005    1    1    2    0  502  0.43910531434E+03 -0.17362526480E+03  0.81459817618E+03  0.10230001947E+04  0.40000000000E+03 0.  1.
<mgrwt>
<rscale>  2 0.61883698E+03</rscale>
<asrwt>0</asrwt>
<pdfrwt beam="1">  1       21 0.19400819E+00 0.61883698E+03</pdfrwt>
<pdfrwt beam="2">  1       21 0.59066792E-01 0.61883698E+03</pdfrwt>
<totfact> 0.29918212E+02</totfact>
</mgrwt>
</event>
<event>
 4    1  0.4840996E-002  0.4238067E+03  0.7818608E-02  0.1035834E+00
         21   -1    0    0  503  502  0.00000000000E+00  0.00000000000E+00  0.34685850383E+03  0.34685850383E+03  0.00000000000E+00 0. -1.
         21   -1    0    0  501  503 -0.00000000000E+00 -0.00000000000E+00 -0.54314411027E+03  0.54314411027E+03  0.00000000000E+00 0. -1.
    9000005    1    1    2  501    0  0.25647729089E+02 -0.13767466988E+03 -0.19422105707E+03  0.46619088338E+03  0.40000000000E+03 0.  1.
   -9000005    1    1    2    0  502 -0.25647729089E+02  0.13767466988E+03 -0.20645493700E+01  0.42381173072E+03  0.40000000000E+03 0.  1.
<mgrwt>
<rscale>  2 0.42380670E+03</rscale>
<asrwt>0</asrwt>
<pdfrwt beam="1">  1       21 0.53362847E-01 0.42380670E+03</pdfrwt>
<pdfrwt beam="2">  1       21 0.83560632E-01 0.42380670E+03</pdfrwt>
<totfact> 0.36536131E+03</totfact>
</mgrwt>
</event>
<event>
 4    1  0.4840996E-002  0.4297928E+03  0.7818608E-02  0.1033925E+00
         21   -1    0    0  501  502  0.00000000000E+00  0.00000000000E+00  0.10842780610E+04  0.10842780610E+04  0.00000000000E+00 0. -1.
         21   -1    0    0  502  503 -0.00000000000E+00 -0.00000000000E+00 -0.30235801039E+03  0.30235801039E+03  0.00000000000E+00 0. -1.
    9000005    1    1    2  501    0  0.14812534765E+03 -0.52732677080E+02  0.84904812821E+03  0.95163258554E+03  0.40000000000E+03 0. -1.
   -9000005    1    1    2    0  503 -0.14812534765E+03  0.52732677080E+02 -0.67128077646E+02  0.43500348580E+03  0.40000000000E+03 0. -1.
<mgrwt>
<rscale>  2 0.42979280E+03</rscale>
<asrwt>0</asrwt>
<pdfrwt beam="1">  1       21 0.16681201E+00 0.42979280E+03</pdfrwt>
<pdfrwt beam="2">  1       21 0.46516618E-01 0.42979280E+03</pdfrwt>
<totfact> 0.84201506E+02</totfact>
</mgrwt>
</event>
<event>
 4    1  0.4840996E-002  0.5903887E+03  0.7818608E-02  0.9925549E-01
         21   -1    0    0  503  502  0.00000000000E+00  0.00000000000E+00  0.49058259198E+03  0.49058259198E+03  0.00000000000E+00 0. -1.
         21   -1    0    0  501  503 -0.00000000000E+00 -0.00000000000E+00 -0.91184220327E+03  0.91184220327E+03  0.00000000000E+00 0. -1.
    9000005    1    1    2  501    0 -0.32844305769E+03  0.28404929378E+03 -0.54013126591E+03  0.80018787035E+03  0.40000000000E+03 0. -1.
   -9000005    1    1    2    0  502  0.32844305769E+03 -0.28404929378E+03  0.11887165462E+03  0.60223692490E+03  0.40000000000E+03 0. -1.
<mgrwt>
<rscale>  2 0.59038872E+03</rscale>
<asrwt>0</asrwt>
<pdfrwt beam="1">  1       21 0.75474245E-01 0.59038872E+03</pdfrwt>
<pdfrwt beam="2">  1       21 0.14028342E+00 0.59038872E+03</pdfrwt>
<totfact> 0.43941123E+02</totfact>
</mgrwt>
</event>
<event>
 4    1  0.4840996E-002  0.4305314E+03  0.7818608E-02  0.1033692E+00
         21   -1    0    0  501  502  0.00000000000E+00  0.00000000000E+00  0.18794428420E+04  0.18794428420E+04  0.00000000000E+00 0. -1.
         21   -1    0    0  502  503 -0.00000000000E+00 -0.00000000000E+00 -0.19261450895E+03  0.19261450895E+03  0.00000000000E+00 0. -1.
    9000005    1    1    2  501    0 -0.12266138287E+03 -0.10154538149E+03  0.15671338319E+04  0.16251971346E+04  0.40000000000E+03 0. -1.
   -9000005    1    1    2    0  503  0.12266138287E+03  0.10154538149E+03  0.11969450121E+03  0.44686021636E+03  0.40000000000E+03 0. -1.
<mgrwt>
<rscale>  2 0.43053139E+03</rscale>
<asrwt>0</asrwt>
<pdfrwt beam="1">  1       21 0.28914504E+00 0.43053139E+03</pdfrwt>
<pdfrwt beam="2">  1       21 0.29633003E-01 0.43053139E+03</pdfrwt>
<totfact> 0.34567820E+02</totfact>
</mgrwt>
</event>
<event>
 4    1  0.4840996E-002  0.4164961E+03  0.7818608E-02  0.1038213E+00
         21   -1    0    0  503  502  0.00000000000E+00  0.00000000000E+00  0.89687614574E+03  0.89687614574E+03  0.00000000000E+00 0. -1.
         21   -1    0    0  501  503 -0.00000000000E+00 -0.00000000000E+00 -0.19344137471E+03  0.19344137471E+03  0.00000000000E+00 0. -1.
    9000005    1    1    2  501    0 -0.76955499611E+02 -0.86872648596E+02  0.34531234306E+03  0.54102645062E+03  0.40000000000E+03 0. -1.
   -9000005    1    1    2    0  502  0.76955499611E+02  0.86872648596E+02  0.35812242797E+03  0.54929106984E+03  0.40000000000E+03 0. -1.
<mgrwt>
<rscale>  2 0.41649611E+03</rscale>
<asrwt>0</asrwt>
<pdfrwt beam="1">  1       21 0.13798094E+00 0.41649611E+03</pdfrwt>
<pdfrwt beam="2">  1       21 0.29760212E-01 0.41649611E+03</pdfrwt>
<totfact> 0.35321400E+03</totfact>
</mgrwt>
</event>
<event>
 4    1  0.4840996E-002  0.4497818E+03  0.7818608E-02  0.1027787E+00
         21   -1    0    0  501  502  0.00000000000E+00  0.00000000000E+00  0.11245866543E+04  0.11245866543E+04  0.00000000000E+00 0.  1.
         21   -1    0    0  502  503 -0.00000000000E+00 -0.00000000000E+00 -0.28577602460E+03  0.28577602460E+03  0.00000000000E+00 0.  1.
    9000005    1    1    2  501    0  0.20004743658E+03  0.47798803204E+02  0.84864902367E+03  0.96047325202E+03  0.40000000000E+03 0.  1.
   -9000005    1    1    2    0  503 -0.20004743658E+03 -0.47798803204E+02 -0.98383939299E+01  0.44988942693E+03  0.40000000000E+03 0.  1.
<mgrwt>
<rscale>  2 0.44978184E+03</rscale>
<asrwt>0</asrwt>
<pdfrwt beam="1">  1       21 0.17301333E+00 0.44978184E+03</pdfrwt>
<pdfrwt beam="2">  1       21 0.43965543E-01 0.44978184E+03</pdfrwt>
<totfact> 0.84642819E+02</totfact>
</mgrwt>
</event>
<event>
 4    1  0.4840996E-002  0.4447138E+03  0.7818608E-02  0.1029310E+00
         21   -1    0    0  501  502  0.00000000000E+00  0.00000000000E+00  0.70551029386E+03  0.70551029386E+03  0.00000000000E+00 0. -1.
         21   -1    0    0  502  503 -0.00000000000E+00 -0.00000000000E+00 -0.35640465415E+03  0.35640465415E+03  0.00000000000E+00 0.  1.
    9000005    1    1    2  501    0  0.10676205371E+03 -0.16239529158E+03  0.41987093963E+03  0.61160606013E+03  0.40000000000E+03 0.  1.
   -9000005    1    1    2    0  503 -0.10676205371E+03  0.16239529158E+03 -0.70765299920E+02  0.45030888789E+03  0.40000000000E+03 0.  1.
<mgrwt>
<rscale>  2 0.44471380E+03</rscale>
<asrwt>0</asrwt>
<pdfrwt beam="1">  1       21 0.10854004E+00 0.44471380E+03</pdfrwt>
<pdfrwt beam="2">  1       21 0.54831486E-01 0.44471380E+03</pdfrwt>
<totfact> 0.18252612E+03</totfact>
</mgrwt>
</event>
<event>
 4    1  0.4840996E-002  0.4190868E+03  0.7818608E-02  0.1037364E+00
         21   -1    0    0  501  502  0.00000000000E+00  0.00000000000E+00  0.13118620175E+04  0.13118620175E+04  0.00000000000E+00 0.  1.
         21   -1    0    0  502  503 -0.00000000000E+00 -0.00000000000E+00 -0.19946352811E+03  0.19946352811E+03  0.00000000000E+00 0.  1.
    9000005    1    1    2  501    0  0.44600930341E+02  0.11680969407E+03  0.98950002966E+03  0.10745901806E+04  0.40000000000E+03 0.  1.
   -9000005    1    1    2    0  503 -0.44600930341E+02 -0.11680969407E+03  0.12289845973E+03  0.43673536498E+03  0.40000000000E+03 0.  1.
<mgrwt>
<rscale>  2 0.41908680E+03</rscale>
<asrwt>0</asrwt>
<pdfrwt beam="1">  1       21 0.20182492E+00 0.41908680E+03</pdfrwt>
<pdfrwt beam="2">  1       21 0.30686697E-01 0.41908680E+03</pdfrwt>
<totfact> 0.11300864E+03</totfact>
</mgrwt>
</event>
<event>
 4    1  0.4840996E-002  0.4680828E+03  0.7818608E-02  0.1022463E+00
         21   -1    0    0  503  502  0.00000000000E+00  0.00000000000E+00  0.87258374071E+03  0.87258374071E+03  0.00000000000E+00 0.  1.
         21   -1    0    0  501  503 -0.00000000000E+00 -0.00000000000E+00 -0.35620767760E+03  0.35620767760E+03  0.00000000000E+00 0.  1.
    9000005    1    1    2  501    0 -0.22856921639E+03 -0.82810854806E+02 -0.75563928808E+02  0.47414283891E+03  0.40000000000E+03 0.  1.
   -9000005    1    1    2    0  502  0.22856921639E+03  0.82810854806E+02  0.59193999192E+03  0.75464857940E+03  0.40000000000E+03 0.  1.
<mgrwt>
<rscale>  2 0.46808282E+03</rscale>
<asrwt>0</asrwt>
<pdfrwt beam="1">  1       21 0.13424365E+00 0.46808282E+03</pdfrwt>
<pdfrwt beam="2">  1       21 0.54801181E-01 0.46808282E+03</pdfrwt>
<totfact> 0.10543217E+03</totfact>
</mgrwt>
</event>
<event>
 4    1  0.4840996E-002  0.4007764E+03  0.7818608E-02  0.1043511E+00
         21   -1    0    0  501  502  0.00000000000E+00  0.00000000000E+00  0.20295709428E+03  0.20295709428E+03  0.00000000000E+00 0. -1.
         21   -1    0    0  502  503 -0.00000000000E+00 -0.00000000000E+00 -0.81574256997E+03  0.81574256997E+03  0.00000000000E+00 0. -1.
    9000005    1    1    2  501    0 -0.24693722167E+02  0.34572169137E+01 -0.39436736055E+03  0.56226981720E+03  0.40000000000E+03 0.  1.
   -9000005    1    1    2    0  503  0.24693722167E+02 -0.34572169137E+01 -0.21841811513E+03  0.45642984705E+03  0.40000000000E+03 0.  1.
<mgrwt>
<rscale>  2 0.40077641E+03</rscale>
<asrwt>0</asrwt>
<pdfrwt beam="1">  1       21 0.31224169E-01 0.40077641E+03</pdfrwt>
<pdfrwt beam="2">  1       21 0.12549886E+00 0.40077641E+03</pdfrwt>
<totfact> 0.41326804E+03</totfact>
</mgrwt>
</event>
<event>
 4    1  0.4840996E-002  0.4172496E+03  0.7818608E-02  0.1037965E+00
         21   -1    0    0  503  502  0.00000000000E+00  0.00000000000E+00  0.46241835178E+03  0.46241835178E+03  0.00000000000E+00 0.  1.
         21   -1    0    0  501  503 -0.00000000000E+00 -0.00000000000E+00 -0.14665706798E+04  0.14665706798E+04  0.00000000000E+00 0.  1.
    9000005    1    1    2  501    0  0.13213810198E+02  0.11799425748E+03 -0.13336043922E+04  0.13973539009E+04  0.40000000000E+03 0.  1.
   -9000005    1    1    2    0  502 -0.13213810198E+02 -0.11799425748E+03  0.32945206416E+03  0.53163513067E+03  0.40000000000E+03 0.  1.
<mgrwt>
<rscale>  2 0.41724963E+03</rscale>
<asrwt>0</asrwt>
<pdfrwt beam="1">  1       21 0.71141285E-01 0.41724963E+03</pdfrwt>
<pdfrwt beam="2">  1       21 0.22562626E+00 0.41724963E+03</pdfrwt>
<totfact> 0.13482870E+02</totfact>
</mgrwt>
</event>
<event>
 4    1  0.4840996E-002  0.4652702E+03  0.7818608E-02  0.1023264E+00
         21   -1    0    0  501  502  0.00000000000E+00  0.00000000000E+00  0.21524627128E+03  0.21524627128E+03  0.00000000000E+00 0. -1.
         21   -1    0    0  502  503 -0.00000000000E+00 -0.00000000000E+00 -0.13828775902E+04  0.13828775902E+04  0.00000000000E+00 0. -1.
    9000005    1    1    2  501    0  0.64503650951E+02  0.22872604151E+03 -0.16651113686E+03  0.49416827271E+03  0.40000000000E+03 0. -1.
   -9000005    1    1    2    0  503 -0.64503650951E+02 -0.22872604151E+03 -0.10011201820E+04  0.11039555888E+04  0.40000000000E+03 0. -1.
<mgrwt>
<rscale>  2 0.46527016E+03</rscale>
<asrwt>0</asrwt>
<pdfrwt beam="1">  1       21 0.33114811E-01 0.46527016E+03</pdfrwt>
<pdfrwt beam="2">  1       21 0.21275040E+00 0.46527016E+03</pdfrwt>
<totfact> 0.80509639E+02</totfact>
</mgrwt>
</event>
<event>
 4    1  0.4840996E-002  0.4390431E+03  0.7818608E-02  0.1031041E+00
         21   -1    0    0  501  502  0.00000000000E+00  0.00000000000E+00  0.14263821126E+03  0.14263821126E+03  0.00000000000E+00 0. -1.
         21   -1    0    0  502  503 -0.00000000000E+00 -0.00000000000E+00 -0.15133034755E+04  0.15133034755E+04  0.00000000000E+00 0. -1.
    9000005    1    1    2  501    0  0.50834067060E+02 -0.17370885746E+03 -0.95616637193E+03  0.10521468530E+04  0.40000000000E+03 0. -1.
   -9000005    1    1    2    0  503 -0.50834067060E+02  0.17370885746E+03 -0.41449889234E+03  0.60379483377E+03  0.40000000000E+03 0. -1.
<mgrwt>
<rscale>  2 0.43904313E+03</rscale>
<asrwt>0</asrwt>
<pdfrwt beam="1">  1       21 0.21944340E-01 0.43904313E+03</pdfrwt>
<pdfrwt beam="2">  1       21 0.23281592E+00 0.43904313E+03</pdfrwt>
<totfact> 0.13623969E+03</totfact>
</mgrwt>
</event>
<event>
 4    1  0.4840996E-002  0.4541536E+03  0.7818608E-02  0.1026491E+00
         21   -1    0    0  501  502  0.00000000000E+00  0.00000000000E+00  0.40938582522E+03  0.40938582522E+03  0.00000000000E+00 0. -1.
         21   -1    0    0  502  503 -0.00000000000E+00 -0.00000000000E+00 -0.60289461114E+03  0.60289461114E+03  0.00000000000E+00 0. -1.
    9000005    1    1    2  501    0  0.18433006599E+03  0.11080565234E+03  0.10842715332E+03  0.46691745887E+03  0.40000000000E+03 0.  1.
   -9000005    1    1    2    0  503 -0.18433006599E+03 -0.11080565234E+03 -0.30193593923E+03  0.54536297749E+03  0.40000000000E+03 0.  1.
<mgrwt>
<rscale>  2 0.45415357E+03</rscale>
<asrwt>0</asrwt>
<pdfrwt beam="1">  1       21 0.62982435E-01 0.45415357E+03</pdfrwt>
<pdfrwt beam="2">  1       21 0.92753017E-01 0.45415357E+03</pdfrwt>
<totfact> 0.19693455E+03</totfact>
</mgrwt>
</event>
<event>
 4    1  0.4840996E-002  0.5767601E+03  0.7818608E-02  0.9954830E-01
         21   -1    0    0  501  502  0.00000000000E+00  0.00000000000E+00  0.25994531205E+03  0.25994531205E+03  0.00000000000E+00 0. -1.
         21   -1    0    0  502  503 -0.00000000000E+00 -0.00000000000E+00 -0.22078975652E+04  0.22078975652E+04  0.00000000000E+00 0.  1.
    9000005    1    1    2  501    0 -0.85878573283E+01 -0.41542567398E+03 -0.17392441512E+03  0.60241343284E+03  0.40000000000E+03 0. -1.
   -9000005    1    1    2    0  503  0.85878573283E+01  0.41542567398E+03 -0.17740278380E+04  0.18654294444E+04  0.40000000000E+03 0.  1.
<mgrwt>
<rscale>  2 0.57676013E+03</rscale>
<asrwt>0</asrwt>
<pdfrwt beam="1">  1       21 0.39991584E-01 0.57676013E+03</pdfrwt>
<pdfrwt beam="2">  1       21 0.33967657E+00 0.57676013E+03</pdfrwt>
<totfact> 0.85740284E+01</totfact>
</mgrwt>
</event>
<event>
 4    1  0.4840996E-002  0.4217736E+03  0.7818608E-02  0.1036491E+00
         21   -1    0    0  501  502  0.00000000000E+00  0.00000000000E+00  0.74735215934E+03  0.74735215934E+03  0.00000000000E+00 0.  1.
         21   -1    0    0  502  503 -0.00000000000E+00 -0.00000000000E+00 -0.73700792812E+03  0.73700792812E+03  0.00000000000E+00 0.  1.
    9000005    1    1    2  501    0 -0.13269939106E+03  0.16846468007E+02  0.61585177448E+03  0.74643575745E+03  0.40000000000E+03 0.  1.
   -9000005    1    1    2    0  503  0.13269939106E+03 -0.16846468007E+02 -0.60550754326E+03  0.73792433001E+03  0.40000000000E+03 0.  1.
<mgrwt>
<rscale>  2 0.42177356E+03</rscale>
<asrwt>0</asrwt>
<pdfrwt beam="1">  1       21 0.11497726E+00 0.42177356E+03</pdfrwt>
<pdfrwt beam="2">  1       21 0.11338583E+00 0.42177356E+03</pdfrwt>
<totfact> 0.29811337E+02</totfact>
</mgrwt>
</event>
<event>
 4    1  0.4840996E-002  0.4213967E+03  0.7818608E-02  0.1036613E+00
         21   -1    0    0  501  502  0.00000000000E+00  0.00000000000E+00  0.30331110126E+03  0.30331110126E+03  0.00000000000E+00 0.  1.
         21   -1    0    0  502  503 -0.00000000000E+00 -0.00000000000E+00 -0.64390955828E+03  0.64390955828E+03  0.00000000000E+00 0.  1.
    9000005    1    1    2  501    0 -0.94629106529E+02  0.92846906614E+02 -0.27602082422E+02  0.42229976418E+03  0.40000000000E+03 0.  1.
   -9000005    1    1    2    0  503  0.94629106529E+02 -0.92846906614E+02 -0.31299637460E+03  0.52492089536E+03  0.40000000000E+03 0.  1.
<mgrwt>
<rscale>  2 0.42139674E+03</rscale>
<asrwt>0</asrwt>
<pdfrwt beam="1">  1       21 0.46663247E-01 0.42139674E+03</pdfrwt>
<pdfrwt beam="2">  1       21 0.99063008E-01 0.42139674E+03</pdfrwt>
<totfact> 0.32480629E+03</totfact>
</mgrwt>
</event>
<event>
 4    1  0.4840996E-002  0.4006182E+03  0.7818608E-02  0.1043566E+00
         21   -1    0    0  501  502  0.00000000000E+00  0.00000000000E+00  0.53205889040E+03  0.53205889040E+03  0.00000000000E+00 0. -1.
         21   -1    0    0  502  503 -0.00000000000E+00 -0.00000000000E+00 -0.32816156854E+03  0.32816156854E+03  0.00000000000E+00 0. -1.
    9000005    1    1    2  501    0 -0.13277489921E+02  0.17850796274E+02  0.22420269344E+03  0.45908799855E+03  0.40000000000E+03 0. -1.
   -9000005    1    1    2    0  503  0.13277489921E+02 -0.17850796274E+02 -0.20305371585E+02  0.40113246039E+03  0.40000000000E+03 0. -1.
<mgrwt>
<rscale>  2 0.40061820E+03</rscale>
<asrwt>0</asrwt>
<pdfrwt beam="1">  1       21 0.81855214E-01 0.40061820E+03</pdfrwt>
<pdfrwt beam="2">  1       21 0.50486395E-01 0.40061820E+03</pdfrwt>
<totfact> 0.43516560E+03</totfact>
</mgrwt>
</event>
<event>
 4    1  0.4840996E-002  0.4040459E+03  0.7818608E-02  0.1042388E+00
         21   -1    0    0  503  502  0.00000000000E+00  0.00000000000E+00  0.29149950179E+03  0.29149950179E+03  0.00000000000E+00 0. -1.
         21   -1    0    0  501  503 -0.00000000000E+00 -0.00000000000E+00 -0.10808517882E+04  0.10808517882E+04  0.00000000000E+00 0. -1.
    9000005    1    1    2  501    0  0.29349970010E+02 -0.48904314261E+02 -0.87098673406E+03  0.96014110609E+03  0.40000000000E+03 0. -1.
   -9000005    1    1    2    0  502 -0.29349970010E+02  0.48904314261E+02  0.81634447628E+02  0.41221018393E+03  0.40000000000E+03 0. -1.
<mgrwt>
<rscale>  2 0.40404585E+03</rscale>
<asrwt>0</asrwt>
<pdfrwt beam="1">  1       21 0.44846077E-01 0.40404585E+03</pdfrwt>
<pdfrwt beam="2">  1       21 0.16628489E+00 0.40404585E+03</pdfrwt>
<totfact> 0.92864489E+02</totfact>
</mgrwt>
</event>
<event>
 4    1  0.4840996E-002  0.4874738E+03  0.7818608E-02  0.1017101E+00
         21   -1    0    0  501  502  0.00000000000E+00  0.00000000000E+00  0.71619835182E+03  0.71619835182E+03  0.00000000000E+00 0. -1.
         21   -1    0    0  502  503 -0.00000000000E+00 -0.00000000000E+00 -0.57494947344E+03  0.57494947344E+03  0.00000000000E+00 0.  1.
    9000005    1    1    2  501    0  0.69031996158E+02 -0.26993571401E+03  0.49045366735E+03  0.69150235431E+03  0.40000000000E+03 0. -1.
   -9000005    1    1    2    0  503 -0.69031996158E+02  0.26993571401E+03 -0.34920478897E+03  0.59964547095E+03  0.40000000000E+03 0.  1.
<mgrwt>
<rscale>  2 0.48747380E+03</rscale>
<asrwt>0</asrwt>
<pdfrwt beam="1">  1       21 0.11018436E+00 0.48747380E+03</pdfrwt>
<pdfrwt beam="2">  1       21 0.88453765E-01 0.48747380E+03</pdfrwt>
<totfact> 0.58804317E+02</totfact>
</mgrwt>
</event>
<event>
 4    1  0.4840996E-002  0.8521667E+03  0.7818608E-02  0.9487433E-01
         21   -1    0    0  503  502  0.00000000000E+00  0.00000000000E+00  0.53396651872E+03  0.53396651872E+03  0.00000000000E+00 0. -1.
         21   -1    0    0  501  503 -0.00000000000E+00 -0.00000000000E+00 -0.14806203987E+04  0.14806203987E+04  0.00000000000E+00 0. -1.
    9000005    1    1    2  501    0  0.28543210797E+03  0.69621596243E+03 -0.76084544738E+03  0.11423983322E+04  0.40000000000E+03 0. -1.
   -9000005    1    1    2    0  502 -0.28543210797E+03 -0.69621596243E+03 -0.18580843262E+03  0.87218858525E+03  0.40000000000E+03 0. -1.
<mgrwt>
<rscale>  2 0.85216674E+03</rscale>
<asrwt>0</asrwt>
<pdfrwt beam="1">  1       21 0.82148696E-01 0.85216674E+03</pdfrwt>
<pdfrwt beam="2">  1       21 0.22778775E+00 0.85216674E+03</pdfrwt>
<totfact> 0.78006502E+01</totfact>
</mgrwt>
</event>
<event>
 4    1  0.4840996E-002  0.6157386E+03  0.7818608E-02  0.9873281E-01
         21   -1    0    0  501  502  0.00000000000E+00  0.00000000000E+00  0.13108588936E+04  0.13108588936E+04  0.00000000000E+00 0. -1.
         21   -1    0    0  502  503 -0.00000000000E+00 -0.00000000000E+00 -0.62323376384E+03  0.62323376384E+03  0.00000000000E+00 0.  1.
    9000005    1    1    2  501    0 -0.11017437520E+03  0.45496777255E+03  0.10517588005E+04  0.12187414170E+04  0.40000000000E+03 0. -1.
   -9000005    1    1    2    0  503  0.11017437520E+03 -0.45496777255E+03 -0.36413367076E+03  0.71535124044E+03  0.40000000000E+03 0.  1.
<mgrwt>
<rscale>  2 0.61573864E+03</rscale>
<asrwt>0</asrwt>
<pdfrwt beam="1">  1       21 0.20167060E+00 0.61573864E+03</pdfrwt>
<pdfrwt beam="2">  1       21 0.95882118E-01 0.61573864E+03</pdfrwt>
<totfact> 0.87041565E+01</totfact>
</mgrwt>
</event>
<event>
 4    1  0.4840996E-002  0.1070943E+04  0.7818608E-02  0.9233985E-01
         21   -1    0    0  501  502  0.00000000000E+00  0.00000000000E+00  0.81277913154E+03  0.81277913154E+03  0.00000000000E+00 0. -1.
         21   -1    0    0  502  503 -0.00000000000E+00 -0.00000000000E+00 -0.19013646913E+04  0.19013646913E+04  0.00000000000E+00 0.  1.
    9000005    1    1    2  501    0  0.44919542130E+03 -0.88608200098E+03  0.14480780783E+03  0.10806882715E+04  0.40000000000E+03 0. -1.
   -9000005    1    1    2    0  503 -0.44919542130E+03  0.88608200098E+03 -0.12333933676E+04  0.16334555514E+04  0.40000000000E+03 0.  1.
<mgrwt>
<rscale>  2 0.10709425E+04</rscale>
<asrwt>0</asrwt>
<pdfrwt beam="1">  1       21 0.12504294E+00 0.10709425E+04</pdfrwt>
<pdfrwt beam="2">  1       21 0.29251764E+00 0.10709425E+04</pdfrwt>
<totfact> 0.10046356E+01</totfact>
</mgrwt>
</event>
<event>
 4    1  0.4840996E-002  0.4138631E+03  0.7818608E-02  0.1039082E+00
         21   -1    0    0  503  502  0.00000000000E+00  0.00000000000E+00  0.42457288126E+03  0.42457288126E+03  0.00000000000E+00 0.  1.
         21   -1    0    0  501  503 -0.00000000000E+00 -0.00000000000E+00 -0.51081808988E+03  0.51081808988E+03  0.00000000000E+00 0.  1.
    9000005    1    1    2  501    0  0.70904369541E+02 -0.79089876896E+02 -0.25757032453E+03  0.48746806083E+03  0.40000000000E+03 0.  1.
   -9000005    1    1    2    0  502 -0.70904369541E+02  0.79089876896E+02  0.17132511590E+03  0.44792291032E+03  0.40000000000E+03 0.  1.
<mgrwt>
<rscale>  2 0.41386307E+03</rscale>
<asrwt>0</asrwt>
<pdfrwt beam="1">  1       21 0.65318906E-01 0.41386307E+03</pdfrwt>
<pdfrwt beam="2">  1       21 0.78587397E-01 0.41386307E+03</pdfrwt>
<totfact> 0.27187977E+03</totfact>
</mgrwt>
</event>
<event>
 4    1  0.4840996E-002  0.5272935E+03  0.7818608E-02  0.1006891E+00
         21   -1    0    0  501  502  0.00000000000E+00  0.00000000000E+00  0.19728811057E+03  0.19728811057E+03  0.00000000000E+00 0.  1.
         21   -1    0    0  502  503 -0.00000000000E+00 -0.00000000000E+00 -0.26541887184E+04  0.26541887184E+04  0.00000000000E+00 0. -1.
    9000005    1    1    2  501    0 -0.21088591941E+03  0.27122974956E+03 -0.25202519257E+03  0.58442719456E+03  0.40000000000E+03 0.  1.
   -9000005    1    1    2    0  503  0.21088591941E+03 -0.27122974956E+03 -0.22048754153E+04  0.22670496344E+04  0.40000000000E+03 0. -1.
<mgrwt>
<rscale>  2 0.52729351E+03</rscale>
<asrwt>0</asrwt>
<pdfrwt beam="1">  1       21 0.30352016E-01 0.52729351E+03</pdfrwt>
<pdfrwt beam="2">  1       21 0.40833674E+00 0.52729351E+03</pdfrwt>
<totfact> 0.56934615E+01</totfact>
</mgrwt>
</event>
<event>
 4    1  0.4840996E-002  0.4511403E+03  0.7818608E-02  0.1027383E+00
         21   -1    0    0  501  502  0.00000000000E+00  0.00000000000E+00  0.13062644540E+04  0.13062644540E+04  0.00000000000E+00 0.  1.
         21   -1    0    0  502  503 -0.00000000000E+00 -0.00000000000E+00 -0.23466058215E+03  0.23466058215E+03  0.00000000000E+00 0.  1.
    9000005    1    1    2  501    0  0.20267460709E+03 -0.49503679994E+02  0.98242069546E+03  0.10810541307E+04  0.40000000000E+03 0.  1.
   -9000005    1    1    2    0  503 -0.20267460709E+03  0.49503679994E+02  0.89183176385E+02  0.45987090541E+03  0.40000000000E+03 0.  1.
<mgrwt>
<rscale>  2 0.45114034E+03</rscale>
<asrwt>0</asrwt>
<pdfrwt beam="1">  1       21 0.20096376E+00 0.45114034E+03</pdfrwt>
<pdfrwt beam="2">  1       21 0.36101629E-01 0.45114034E+03</pdfrwt>
<totfact> 0.81343792E+02</totfact>
</mgrwt>
</event>
<event>
 4    1  0.4840996E-002  0.5136484E+03  0.7818608E-02  0.1010277E+00
         21   -1    0    0  503  502  0.00000000000E+00  0.00000000000E+00  0.27075286553E+04  0.27075286553E+04  0.00000000000E+00 0.  1.
         21   -1    0    0  501  503 -0.00000000000E+00 -0.00000000000E+00 -0.10859398404E+03  0.10859398404E+03  0.00000000000E+00 0.  1.
    9000005    1    1    2  501    0  0.70273305032E+01 -0.32215728216E+03  0.84829814023E+03  0.99168766885E+03  0.40000000000E+03 0.  1.
   -9000005    1    1    2    0  502 -0.70273305032E+01  0.32215728216E+03  0.17506365310E+04  0.18244349705E+04  0.40000000000E+03 0.  1.
<mgrwt>
<rscale>  2 0.51364842E+03</rscale>
<asrwt>0</asrwt>
<pdfrwt beam="1">  1       21 0.41654282E+00 0.51364842E+03</pdfrwt>
<pdfrwt beam="2">  1       21 0.16706769E-01 0.51364842E+03</pdfrwt>
<totfact> 0.16087993E+02</totfact>
</mgrwt>
</event>
<event>
 4    1  0.4840996E-002  0.4356521E+03  0.7818608E-02  0.1032089E+00
         21   -1    0    0  501  502  0.00000000000E+00  0.00000000000E+00  0.45202112978E+03  0.45202112978E+03  0.00000000000E+00 0. -1.
         21   -1    0    0  502  503 -0.00000000000E+00 -0.00000000000E+00 -0.74253977962E+03  0.74253977962E+03  0.00000000000E+00 0.  1.
    9000005    1    1    2  501    0  0.15762486169E+03  0.70335950654E+02  0.24846628972E+03  0.50152591170E+03  0.40000000000E+03 0. -1.
   -9000005    1    1    2    0  503 -0.15762486169E+03 -0.70335950654E+02 -0.53898493955E+03  0.69303499771E+03  0.40000000000E+03 0.  1.
<mgrwt>
<rscale>  2 0.43565209E+03</rscale>
<asrwt>0</asrwt>
<pdfrwt beam="1">  1       21 0.69541713E-01 0.43565209E+03</pdfrwt>
<pdfrwt beam="2">  1       21 0.11423689E+00 0.43565209E+03</pdfrwt>
<totfact> 0.95604024E+02</totfact>
</mgrwt>
</event>
<event>
 4    1  0.4840996E-002  0.4536812E+03  0.7818608E-02  0.1026630E+00
         21   -1    0    0  503  502  0.00000000000E+00  0.00000000000E+00  0.11473013492E+04  0.11473013492E+04  0.00000000000E+00 0. -1.
         21   -1    0    0  501  503 -0.00000000000E+00 -0.00000000000E+00 -0.18673635240E+03  0.18673635240E+03  0.00000000000E+00 0.  1.
    9000005    1    1    2  501    0  0.19491794588E+02 -0.21318222455E+03  0.34807838754E+03  0.57182615784E+03  0.40000000000E+03 0.  1.
   -9000005    1    1    2    0  502 -0.19491794588E+02  0.21318222455E+03  0.61248660926E+03  0.76221154376E+03  0.40000000000E+03 0. -1.
<mgrwt>
<rscale>  2 0.45368116E+03</rscale>
<asrwt>0</asrwt>
<pdfrwt beam="1">  1       21 0.17650790E+00 0.45368116E+03</pdfrwt>
<pdfrwt beam="2">  1       21 0.28728670E-01 0.45368116E+03</pdfrwt>
<totfact> 0.18917061E+03</totfact>
</mgrwt>
</event>
<event>
 4    1  0.4840996E-002  0.6285561E+03  0.7818608E-02  0.9847870E-01
         21   -1    0    0  501  502  0.00000000000E+00  0.00000000000E+00  0.47730795506E+03  0.47730795506E+03  0.00000000000E+00 0. -1.
         21   -1    0    0  502  503 -0.00000000000E+00 -0.00000000000E+00 -0.96925881979E+03  0.96925881979E+03  0.00000000000E+00 0.  1.
    9000005    1    1    2  501    0  0.41921569420E+03  0.24360013686E+03  0.30405937787E+02  0.62929114565E+03  0.40000000000E+03 0. -1.
   -9000005    1    1    2    0  503 -0.41921569420E+03 -0.24360013686E+03 -0.52235680251E+03  0.81727562919E+03  0.40000000000E+03 0. -1.
<mgrwt>
<rscale>  2 0.62855614E+03</rscale>
<asrwt>0</asrwt>
<pdfrwt beam="1">  1       21 0.73431994E-01 0.62855614E+03</pdfrwt>
<pdfrwt beam="2">  1       21 0.14911674E+00 0.62855614E+03</pdfrwt>
<totfact> 0.39145271E+02</totfact>
</mgrwt>
</event>
<event>
 4    1  0.4840996E-002  0.4640765E+03  0.7818608E-02  0.1023606E+00
         21   -1    0    0  501  502  0.00000000000E+00  0.00000000000E+00  0.69184722623E+03  0.69184722623E+03  0.00000000000E+00 0. -1.
         21   -1    0    0  502  503 -0.00000000000E+00 -0.00000000000E+00 -0.40856631704E+03  0.40856631704E+03  0.00000000000E+00 0.  1.
    9000005    1    1    2  501    0  0.14811182411E+03 -0.18283834828E+03 -0.12682736686E+03  0.48109474642E+03  0.40000000000E+03 0.  1.
   -9000005    1    1    2    0  503 -0.14811182411E+03  0.18283834828E+03  0.41010827606E+03  0.61931879685E+03  0.40000000000E+03 0. -1.
<mgrwt>
<rscale>  2 0.46407647E+03</rscale>
<asrwt>0</asrwt>
<pdfrwt beam="1">  1       21 0.10643803E+00 0.46407647E+03</pdfrwt>
<pdfrwt beam="2">  1       21 0.62856356E-01 0.46407647E+03</pdfrwt>
<totfact> 0.14109756E+03</totfact>
</mgrwt>
</event>
<event>
 4    1  0.4840996E-002  0.4556793E+03  0.7818608E-02  0.1026042E+00
         21   -1    0    0  501  502  0.00000000000E+00  0.00000000000E+00  0.84859018535E+03  0.84859018535E+03  0.00000000000E+00 0.  1.
         21   -1    0    0  502  503 -0.00000000000E+00 -0.00000000000E+00 -0.25108033823E+03  0.25108033823E+03  0.00000000000E+00 0.  1.
    9000005    1    1    2  501    0 -0.19916094864E+03 -0.89322488546E+02  0.38645616370E+03  0.59748803912E+03  0.40000000000E+03 0.  1.
   -9000005    1    1    2    0  503  0.19916094864E+03  0.89322488546E+02  0.21105368342E+03  0.50218248447E+03  0.40000000000E+03 0.  1.
<mgrwt>
<rscale>  2 0.45567926E+03</rscale>
<asrwt>0</asrwt>
<pdfrwt beam="1">  1       21 0.13055233E+00 0.45567926E+03</pdfrwt>
<pdfrwt beam="2">  1       21 0.38627745E-01 0.45567926E+03</pdfrwt>
<totfact> 0.23776334E+03</totfact>
</mgrwt>
</event>
<event>
 4    1  0.4840996E-002  0.4355156E+03  0.7818608E-02  0.1032132E+00
         21   -1    0    0  503  502  0.00000000000E+00  0.00000000000E+00  0.10280018307E+04  0.10280018307E+04  0.00000000000E+00 0. -1.
         21   -1    0    0  501  503 -0.00000000000E+00 -0.00000000000E+00 -0.26631005295E+03  0.26631005295E+03  0.00000000000E+00 0.  1.
    9000005    1    1    2  501    0 -0.17149887698E+03 -0.16186685126E+02  0.22172595004E+02  0.43607969174E+03  0.40000000000E+03 0.  1.
   -9000005    1    1    2    0  502  0.17149887698E+03  0.16186685126E+02  0.73951918278E+03  0.85823219194E+03  0.40000000000E+03 0. -1.
<mgrwt>
<rscale>  2 0.43551564E+03</rscale>
<asrwt>0</asrwt>
<pdfrwt beam="1">  1       21 0.15815413E+00 0.43551564E+03</pdfrwt>
<pdfrwt beam="2">  1       21 0.40970778E-01 0.43551564E+03</pdfrwt>
<totfact> 0.12701590E+03</totfact>
</mgrwt>
</event>
<event>
 4    1  0.4840996E-002  0.5104306E+03  0.7818608E-02  0.1011092E+00
         21   -1    0    0  503  502  0.00000000000E+00  0.00000000000E+00  0.13705567832E+03  0.13705567832E+03  0.00000000000E+00 0. -1.
         21   -1    0    0  501  503 -0.00000000000E+00 -0.00000000000E+00 -0.19454753277E+04  0.19454753277E+04  0.00000000000E+00 0. -1.
    9000005    1    1    2  501    0 -0.27242483787E+03  0.16224719222E+03 -0.10616912404E+04  0.11780185625E+04  0.40000000000E+03 0. -1.
   -9000005    1    1    2    0  502  0.27242483787E+03 -0.16224719222E+03 -0.74672840896E+03  0.90451244349E+03  0.40000000000E+03 0. -1.
<mgrwt>
<rscale>  2 0.51043065E+03</rscale>
<asrwt>0</asrwt>
<pdfrwt beam="1">  1       21 0.21085489E-01 0.51043065E+03</pdfrwt>
<pdfrwt beam="2">  1       21 0.29930389E+00 0.51043065E+03</pdfrwt>
<totfact> 0.55781331E+02</totfact>
</mgrwt>
</event>
<event>
 4    1  0.4840996E-002  0.4478076E+03  0.7818608E-02  0.1028378E+00
         21   -1    0    0  503  502  0.00000000000E+00  0.00000000000E+00  0.85559954258E+03  0.85559954258E+03  0.00000000000E+00 0. -1.
         21   -1    0    0  501  503 -0.00000000000E+00 -0.00000000000E+00 -0.23688312689E+03  0.23688312689E+03  0.00000000000E+00 0. -1.
    9000005    1    1    2  501    0 -0.21099779736E+02  0.20021596914E+03  0.36555900000E+03  0.57807008008E+03  0.40000000000E+03 0. -1.
   -9000005    1    1    2    0  502  0.21099779736E+02 -0.20021596914E+03  0.25315741569E+03  0.51441258939E+03  0.40000000000E+03 0. -1.
<mgrwt>
<rscale>  2 0.44780759E+03</rscale>
<asrwt>0</asrwt>
<pdfrwt beam="1">  1       21 0.13163070E+00 0.44780759E+03</pdfrwt>
<pdfrwt beam="2">  1       21 0.36443558E-01 0.44780759E+03</pdfrwt>
<totfact> 0.26287797E+03</totfact>
</mgrwt>
</event>
<event>
 4    1  0.4840996E-002  0.4749611E+03  0.7818608E-02  0.1020529E+00
         21   -1    0    0  501  502  0.00000000000E+00  0.00000000000E+00  0.11019128200E+04  0.11019128200E+04  0.00000000000E+00 0. -1.
         21   -1    0    0  502  503 -0.00000000000E+00 -0.00000000000E+00 -0.30870004323E+03  0.30870004323E+03  0.00000000000E+00 0. -1.
    9000005    1    1    2  501    0  0.20053428907E+03  0.15929244260E+03  0.80593865895E+03  0.93548126937E+03  0.40000000000E+03 0. -1.
   -9000005    1    1    2    0  503 -0.20053428907E+03 -0.15929244260E+03 -0.12725882227E+02  0.47513159381E+03  0.40000000000E+03 0. -1.
<mgrwt>
<rscale>  2 0.47496114E+03</rscale>
<asrwt>0</asrwt>
<pdfrwt beam="1">  1       21 0.16952505E+00 0.47496114E+03</pdfrwt>
<pdfrwt beam="2">  1       21 0.47492315E-01 0.47496114E+03</pdfrwt>
<totfact> 0.75447783E+02</totfact>
</mgrwt>
</event>
<event>
 4    1  0.4840996E-002  0.4084081E+03  0.7818608E-02  0.1040907E+00
         21   -1    0    0  503  502  0.00000000000E+00  0.00000000000E+00  0.11022431172E+03  0.11022431172E+03  0.00000000000E+00 0.  1.
         21   -1    0    0  501  503 -0.00000000000E+00 -0.00000000000E+00 -0.18911277531E+04  0.18911277531E+04  0.00000000000E+00 0.  1.
    9000005    1    1    2  501    0  0.78290069558E+02 -0.25842460651E+02 -0.13377606184E+04  0.13987139235E+04  0.40000000000E+03 0.  1.
   -9000005    1    1    2    0  502 -0.78290069558E+02  0.25842460651E+02 -0.44314282300E+03  0.60263814129E+03  0.40000000000E+03 0.  1.
<mgrwt>
<rscale>  2 0.40840809E+03</rscale>
<asrwt>0</asrwt>
<pdfrwt beam="1">  1       21 0.16957587E-01 0.40840809E+03</pdfrwt>
<pdfrwt beam="2">  1       21 0.29094272E+00 0.40840809E+03</pdfrwt>
<totfact> 0.99942825E+02</totfact>
</mgrwt>
</event>
<event>
 4    1  0.4840996E-002  0.5190422E+03  0.7818608E-02  0.1008925E+00
         21   -1    0    0  503  502  0.00000000000E+00  0.00000000000E+00  0.63887805904E+03  0.63887805904E+03  0.00000000000E+00 0.  1.
         21   -1    0    0  501  503 -0.00000000000E+00 -0.00000000000E+00 -0.62447001936E+03  0.62447001936E+03  0.00000000000E+00 0.  1.
    9000005    1    1    2  501    0  0.29941766681E+03 -0.14054845589E+03 -0.35275742142E+03  0.62756880580E+03  0.40000000000E+03 0.  1.
   -9000005    1    1    2    0  502 -0.29941766681E+03  0.14054845589E+03  0.36716546110E+03  0.63577927260E+03  0.40000000000E+03 0.  1.
<mgrwt>
<rscale>  2 0.51904220E+03</rscale>
<asrwt>0</asrwt>
<pdfrwt beam="1">  1       21 0.98288932E-01 0.51904220E+03</pdfrwt>
<pdfrwt beam="2">  1       21 0.96072311E-01 0.51904220E+03</pdfrwt>
<totfact> 0.63175862E+02</totfact>
</mgrwt>
</event>
<event>
 4    1  0.4840996E-002  0.4822843E+03  0.7818608E-02  0.1018509E+00
         21   -1    0    0  501  502  0.00000000000E+00  0.00000000000E+00  0.67956520524E+03  0.67956520524E+03  0.00000000000E+00 0.  1.
         21   -1    0    0  502  503 -0.00000000000E+00 -0.00000000000E+00 -0.66911167041E+03  0.66911167041E+03  0.00000000000E+00 0.  1.
    9000005    1    1    2  501    0  0.10578768186E+02  0.26923261461E+03  0.47652311040E+03  0.67799143494E+03  0.40000000000E+03 0.  1.
   -9000005    1    1    2    0  503 -0.10578768186E+02 -0.26923261461E+03 -0.46606957557E+03  0.67068544071E+03  0.40000000000E+03 0.  1.
<mgrwt>
<rscale>  2 0.48228426E+03</rscale>
<asrwt>0</asrwt>
<pdfrwt beam="1">  1       21 0.10454849E+00 0.48228426E+03</pdfrwt>
<pdfrwt beam="2">  1       21 0.10294026E+00 0.48228426E+03</pdfrwt>
<totfact> 0.46590315E+02</totfact>
</mgrwt>
</event>
<event>
 4    1  0.4840996E-002  0.4189284E+03  0.7818608E-02  0.1037416E+00
         21   -1    0    0  501  502  0.00000000000E+00  0.00000000000E+00  0.89868204847E+03  0.89868204847E+03  0.00000000000E+00 0.  1.
         21   -1    0    0  502  503 -0.00000000000E+00 -0.00000000000E+00 -0.20710541870E+03  0.20710541870E+03  0.00000000000E+00 0.  1.
    9000005    1    1    2  501    0  0.12279309491E+03  0.20564543713E+02  0.47786406915E+03  0.63549595844E+03  0.40000000000E+03 0.  1.
   -9000005    1    1    2    0  503 -0.12279309491E+03 -0.20564543713E+02  0.21371256062E+03  0.47029150873E+03  0.40000000000E+03 0.  1.
<mgrwt>
<rscale>  2 0.41892845E+03</rscale>
<asrwt>0</asrwt>
<pdfrwt beam="1">  1       21 0.13825877E+00 0.41892845E+03</pdfrwt>
<pdfrwt beam="2">  1       21 0.31862373E-01 0.41892845E+03</pdfrwt>
<totfact> 0.30642718E+03</totfact>
</mgrwt>
</event>
<event>
 4    1  0.4840996E-002  0.4374511E+03  0.7818608E-02  0.1031532E+00
         21   -1    0    0  503  502  0.00000000000E+00  0.00000000000E+00  0.61973830100E+03  0.61973830100E+03  0.00000000000E+00 0. -1.
         21   -1    0    0  501  503 -0.00000000000E+00 -0.00000000000E+00 -0.67129455709E+03  0.67129455709E+03  0.00000000000E+00 0.  1.
    9000005    1    1    2  501    0  0.15748246874E+03 -0.81010512117E+02 -0.50014335442E+03  0.66445978509E+03  0.40000000000E+03 0.  1.
   -9000005    1    1    2    0  502 -0.15748246874E+03  0.81010512117E+02  0.44858709832E+03  0.62657307300E+03  0.40000000000E+03 0. -1.
<mgrwt>
<rscale>  2 0.43745106E+03</rscale>
<asrwt>0</asrwt>
<pdfrwt beam="1">  1       21 0.95344355E-01 0.43745106E+03</pdfrwt>
<pdfrwt beam="2">  1       21 0.10327609E+00 0.43745106E+03</pdfrwt>
<totfact> 0.58979913E+02</totfact>
</mgrwt>
</event>
<event>
 4    1  0.4840996E-002  0.4151372E+03  0.7818608E-02  0.1038661E+00
         21   -1    0    0  503  502  0.00000000000E+00  0.00000000000E+00  0.39727016189E+03  0.39727016189E+03  0.00000000000E+00 0. -1.
         21   -1    0    0  501  503 -0.00000000000E+00 -0.00000000000E+00 -0.87833514625E+03  0.87833514625E+03  0.00000000000E+00 0. -1.
    9000005    1    1    2  501    0  0.53732718352E+02  0.97219710273E+02 -0.69427080820E+03  0.80891954619E+03  0.40000000000E+03 0. -1.
   -9000005    1    1    2    0  502 -0.53732718352E+02 -0.97219710273E+02  0.21320582384E+03  0.46668576195E+03  0.40000000000E+03 0. -1.
<mgrwt>
<rscale>  2 0.41513718E+03</rscale>
<asrwt>0</asrwt>
<pdfrwt beam="1">  1       21 0.61118487E-01 0.41513718E+03</pdfrwt>
<pdfrwt beam="2">  1       21 0.13512848E+00 0.41513718E+03</pdfrwt>
<totfact> 0.83625590E+02</totfact>
</mgrwt>
</event>
<event>
 4    1  0.4840996E-002  0.7028576E+03  0.7818608E-02  0.9712358E-01
         21   -1    0    0  501  502  0.00000000000E+00  0.00000000000E+00  0.10742903578E+04  0.10742903578E+04  0.00000000000E+00 0. -1.
         21   -1    0    0  502  503 -0.00000000000E+00 -0.00000000000E+00 -0.46768830140E+03  0.46768830140E+03  0.00000000000E+00 0. -1.
    9000005    1    1    2  501    0  0.39176943528E+03  0.42488287572E+03  0.40313440921E+03  0.81026298224E+03  0.40000000000E+03 0. -1.
   -9000005    1    1    2    0  503 -0.39176943528E+03 -0.42488287572E+03  0.20346764723E+03  0.73171567700E+03  0.40000000000E+03 0. -1.
<mgrwt>
<rscale>  2 0.70285756E+03</rscale>
<asrwt>0</asrwt>
<pdfrwt beam="1">  1       21 0.16527544E+00 0.70285756E+03</pdfrwt>
<pdfrwt beam="2">  1       21 0.71952046E-01 0.70285756E+03</pdfrwt>
<totfact> 0.30026681E+02</totfact>
</mgrwt>
</event>
<event>
 4    1  0.4840996E-002  0.4066710E+03  0.7818608E-02  0.1041494E+00
         21   -1    0    0  501  502  0.00000000000E+00  0.00000000000E+00  0.17168721300E+03  0.17168721300E+03  0.00000000000E+00 0. -1.
         21   -1    0    0  502  503 -0.00000000000E+00 -0.00000000000E+00 -0.12154412275E+04  0.12154412275E+04  0.00000000000E+00 0. -1.
    9000005    1    1    2  501    0 -0.68680093147E+02 -0.25775264060E+02 -0.20596467954E+03  0.45585388958E+03  0.40000000000E+03 0. -1.
   -9000005    1    1    2    0  503  0.68680093147E+02  0.25775264060E+02 -0.83778933500E+03  0.93127455096E+03  0.40000000000E+03 0. -1.
<mgrwt>
<rscale>  2 0.40667102E+03</rscale>
<asrwt>0</asrwt>
<pdfrwt beam="1">  1       21 0.26413417E-01 0.40667102E+03</pdfrwt>
<pdfrwt beam="2">  1       21 0.18699096E+00 0.40667102E+03</pdfrwt>
<totfact> 0.19234969E+03</totfact>
</mgrwt>
</event>
<event>
 4    1  0.4840996E-002  0.4421252E+03  0.7818608E-02  0.1030097E+00
         21   -1    0    0  501  502  0.00000000000E+00  0.00000000000E+00  0.19158575584E+03  0.19158575584E+03  0.00000000000E+00 0. -1.
         21   -1    0    0  502  503 -0.00000000000E+00 -0.00000000000E+00 -0.12109542640E+04  0.12109542640E+04  0.00000000000E+00 0.  1.
    9000005    1    1    2  501    0  0.12865136941E+03 -0.13756280780E+03 -0.23142724131E+03  0.49903233258E+03  0.40000000000E+03 0. -1.
   -9000005    1    1    2    0  503 -0.12865136941E+03  0.13756280780E+03 -0.78794126687E+03  0.90350768729E+03  0.40000000000E+03 0.  1.
<mgrwt>
<rscale>  2 0.44212521E+03</rscale>
<asrwt>0</asrwt>
<pdfrwt beam="1">  1       21 0.29474732E-01 0.44212521E+03</pdfrwt>
<pdfrwt beam="2">  1       21 0.18630066E+00 0.44212521E+03</pdfrwt>
<totfact> 0.15424196E+03</totfact>
</mgrwt>
</event>
<event>
 4    1  0.4840996E-002  0.5787966E+03  0.7818608E-02  0.9950400E-01
         21   -1    0    0  501  502  0.00000000000E+00  0.00000000000E+00  0.24155105059E+04  0.24155105059E+04  0.00000000000E+00 0.  1.
         21   -1    0    0  502  503 -0.00000000000E+00 -0.00000000000E+00 -0.33324216262E+03  0.33324216262E+03  0.00000000000E+00 0.  1.
    9000005    1    1    2  501    0 -0.13687500989E+03  0.39531099067E+03  0.20912675651E+04  0.21698860745E+04  0.40000000000E+03 0.  1.
   -9000005    1    1    2    0  503  0.13687500989E+03 -0.39531099067E+03 -0.89992217749E+01  0.57886659402E+03  0.40000000000E+03 0.  1.
<mgrwt>
<rscale>  2 0.57879664E+03</rscale>
<asrwt>0</asrwt>
<pdfrwt beam="1">  1       21 0.37161699E+00 0.57879664E+03</pdfrwt>
<pdfrwt beam="2">  1       21 0.51268027E-01 0.57879664E+03</pdfrwt>
<totfact> 0.32096805E+01</totfact>
</mgrwt>
</event>
<event>
 4    1  0.4840996E-002  0.4313787E+03  0.7818608E-02  0.1033425E+00
         21   -1    0    0  503  502  0.00000000000E+00  0.00000000000E+00  0.50304509750E+03  0.50304509750E+03  0.00000000000E+00 0.  1.
         21   -1    0    0  501  503 -0.00000000000E+00 -0.00000000000E+00 -0.37165798112E+03  0.37165798112E+03  0.00000000000E+00 0.  1.
    9000005    1    1    2  501    0  0.19149827111E+02 -0.16037715241E+03  0.35804861742E+02  0.43286202769E+03  0.40000000000E+03 0.  1.
   -9000005    1    1    2    0  502 -0.19149827111E+02  0.16037715241E+03  0.95582254638E+02  0.44184105094E+03  0.40000000000E+03 0.  1.
<mgrwt>
<rscale>  2 0.43137866E+03</rscale>
<asrwt>0</asrwt>
<pdfrwt beam="1">  1       21 0.77391554E-01 0.43137866E+03</pdfrwt>
<pdfrwt beam="2">  1       21 0.57178151E-01 0.43137866E+03</pdfrwt>
<totfact> 0.37476654E+03</totfact>
</mgrwt>
</event>
<event>
 4    1  0.4840996E-002  0.4593548E+03  0.7818608E-02  0.1024969E+00
         21   -1    0    0  501  502  0.00000000000E+00  0.00000000000E+00  0.24079096960E+03  0.24079096960E+03  0.00000000000E+00 0. -1.
         21   -1    0    0  502  503 -0.00000000000E+00 -0.00000000000E+00 -0.10055043086E+04  0.10055043086E+04  0.00000000000E+00 0. -1.
    9000005    1    1    2  501    0 -0.92907948625E+01  0.22565572606E+03 -0.15898626742E+03  0.48608996986E+03  0.40000000000E+03 0.  1.
   -9000005    1    1    2    0  503  0.92907948625E+01 -0.22565572606E+03 -0.60572707155E+03  0.76020530831E+03  0.40000000000E+03 0.  1.
<mgrwt>
<rscale>  2 0.45935479E+03</rscale>
<asrwt>0</asrwt>
<pdfrwt beam="1">  1       21 0.37044765E-01 0.45935479E+03</pdfrwt>
<pdfrwt beam="2">  1       21 0.15469297E+00 0.45935479E+03</pdfrwt>
<totfact> 0.16438465E+03</totfact>
</mgrwt>
</event>
<event>
 4    1  0.4840996E-002  0.5478792E+03  0.7818608E-02  0.1001986E+00
         21   -1    0    0  503  502  0.00000000000E+00  0.00000000000E+00  0.10019380090E+04  0.10019380090E+04  0.00000000000E+00 0. -1.
         21   -1    0    0  501  503 -0.00000000000E+00 -0.00000000000E+00 -0.30031470963E+03  0.30031470963E+03  0.00000000000E+00 0. -1.
    9000005    1    1    2  501    0  0.35072436532E+03  0.13101176751E+03  0.38277432310E+03  0.66834710000E+03  0.40000000000E+03 0. -1.
   -9000005    1    1    2    0  502 -0.35072436532E+03 -0.13101176751E+03  0.31884897627E+03  0.63390561863E+03  0.40000000000E+03 0. -1.
<mgrwt>
<rscale>  2 0.54787924E+03</rscale>
<asrwt>0</asrwt>
<pdfrwt beam="1">  1       21 0.15414431E+00 0.54787924E+03</pdfrwt>
<pdfrwt beam="2">  1       21 0.46202264E-01 0.54787924E+03</pdfrwt>
<totfact> 0.10156297E+03</totfact>
</mgrwt>
</event>
<event>
 4    1  0.4840996E-002  0.4466988E+03  0.7818608E-02  0.1028711E+00
         21   -1    0    0  503  502  0.00000000000E+00  0.00000000000E+00  0.35946947677E+03  0.35946947677E+03  0.00000000000E+00 0. -1.
         21   -1    0    0  501  503 -0.00000000000E+00 -0.00000000000E+00 -0.58002518122E+03  0.58002518122E+03  0.00000000000E+00 0. -1.
    9000005    1    1    2  501    0 -0.14200120156E+03  0.13919578899E+03 -0.20766489915E+03  0.49260990576E+03  0.40000000000E+03 0. -1.
   -9000005    1    1    2    0  502  0.14200120156E+03 -0.13919578899E+03 -0.12890805304E+02  0.44688475223E+03  0.40000000000E+03 0. -1.
<mgrwt>
<rscale>  2 0.44669879E+03</rscale>
<asrwt>0</asrwt>
<pdfrwt beam="1">  1       21 0.55302996E-01 0.44669879E+03</pdfrwt>
<pdfrwt beam="2">  1       21 0.89234643E-01 0.44669879E+03</pdfrwt>
<totfact> 0.28760577E+03</totfact>
</mgrwt>
</event>
<event>
 4    1  0.4840996E-002  0.4291323E+03  0.7818608E-02  0.1034134E+00
         21   -1    0    0  501  502  0.00000000000E+00  0.00000000000E+00  0.12776549239E+04  0.12776549239E+04  0.00000000000E+00 0.  1.
         21   -1    0    0  502  503 -0.00000000000E+00 -0.00000000000E+00 -0.36930071159E+03  0.36930071159E+03  0.00000000000E+00 0.  1.
    9000005    1    1    2  501    0  0.40842967884E+02 -0.14995458168E+03  0.10971803489E+04  0.11781168204E+04  0.40000000000E+03 0.  1.
   -9000005    1    1    2    0  503 -0.40842967884E+02  0.14995458168E+03 -0.18882613662E+03  0.46883881501E+03  0.40000000000E+03 0.  1.
<mgrwt>
<rscale>  2 0.42913229E+03</rscale>
<asrwt>0</asrwt>
<pdfrwt beam="1">  1       21 0.19656229E+00 0.42913229E+03</pdfrwt>
<pdfrwt beam="2">  1       21 0.56815495E-01 0.42913229E+03</pdfrwt>
<totfact> 0.34006699E+02</totfact>
</mgrwt>
</event>
<event>
 4    1  0.4840996E-002  0.5279108E+03  0.7818608E-02  0.1006740E+00
         21   -1    0    0  503  502  0.00000000000E+00  0.00000000000E+00  0.15422378010E+04  0.15422378010E+04  0.00000000000E+00 0. -1.
         21   -1    0    0  501  503 -0.00000000000E+00 -0.00000000000E+00 -0.22461492570E+03  0.22461492570E+03  0.00000000000E+00 0.  1.
    9000005    1    1    2  501    0 -0.28276458873E+03  0.19680965100E+03  0.26821062760E+03  0.59213747739E+03  0.40000000000E+03 0.  1.
   -9000005    1    1    2    0  502  0.28276458873E+03 -0.19680965100E+03  0.10494122477E+04  0.11747152493E+04  0.40000000000E+03 0. -1.
<mgrwt>
<rscale>  2 0.52791084E+03</rscale>
<asrwt>0</asrwt>
<pdfrwt beam="1">  1       21 0.23726735E+00 0.52791084E+03</pdfrwt>
<pdfrwt beam="2">  1       21 0.34556143E-01 0.52791084E+03</pdfrwt>
<totfact> 0.50118876E+02</totfact>
</mgrwt>
</event>
<event>
 4    1  0.4840996E-002  0.4141917E+03  0.7818608E-02  0.1038973E+00
         21   -1    0    0  503  502  0.00000000000E+00  0.00000000000E+00  0.33683928047E+03  0.33683928047E+03  0.00000000000E+00 0. -1.
         21   -1    0    0  501  503 -0.00000000000E+00 -0.00000000000E+00 -0.94353507427E+03  0.94353507427E+03  0.00000000000E+00 0. -1.
    9000005    1    1    2  501    0  0.10739655167E+03  0.45507557256E+01 -0.73764477755E+03  0.84597549996E+03  0.40000000000E+03 0. -1.
   -9000005    1    1    2    0  502 -0.10739655167E+03 -0.45507557256E+01  0.13094898376E+03  0.43439885478E+03  0.40000000000E+03 0. -1.
<mgrwt>
<rscale>  2 0.41419166E+03</rscale>
<asrwt>0</asrwt>
<pdfrwt beam="1">  1       21 0.51821428E-01 0.41419166E+03</pdfrwt>
<pdfrwt beam="2">  1       21 0.14515924E+00 0.41419166E+03</pdfrwt>
<totfact> 0.98881099E+02</totfact>
</mgrwt>
</event>
<event>
 4    1  0.4840996E-002  0.5921004E+03  0.7818608E-02  0.9921932E-01
         21   -1    0    0  501  502  0.00000000000E+00  0.00000000000E+00  0.73929019563E+03  0.73929019563E+03  0.00000000000E+00 0. -1.
         21   -1    0    0  502  503 -0.00000000000E+00 -0.00000000000E+00 -0.47801814121E+03  0.47801814121E+03  0.00000000000E+00 0.  1.
    9000005    1    1    2  501    0  0.41271148429E+03 -0.14230993736E+03  0.76349793253E+02  0.59700266202E+03  0.40000000000E+03 0.  1.
   -9000005    1    1    2    0  503 -0.41271148429E+03  0.14230993736E+03  0.18492226116E+03  0.62030567481E+03  0.40000000000E+03 0. -1.
<mgrwt>
<rscale>  2 0.59210040E+03</rscale>
<asrwt>0</asrwt>
<pdfrwt beam="1">  1       21 0.11373695E+00 0.59210040E+03</pdfrwt>
<pdfrwt beam="2">  1       21 0.73541253E-01 0.59210040E+03</pdfrwt>
<totfact> 0.80365461E+02</totfact>
</mgrwt>
</event>
<event>
 4    1  0.4840996E-002  0.5402704E+03  0.7818608E-02  0.1003771E+00
         21   -1    0    0  501  502  0.00000000000E+00  0.00000000000E+00  0.25615408522E+04  0.25615408522E+04  0.00000000000E+00 0.  1.
         21   -1    0    0  502  503 -0.00000000000E+00 -0.00000000000E+00 -0.11878120158E+03  0.11878120158E+03  0.00000000000E+00 0.  1.
    9000005    1    1    2  501    0 -0.36316776375E+03 -0.11107267755E+01  0.95115072620E+03  0.10938828833E+04  0.40000000000E+03 0.  1.
   -9000005    1    1    2    0  503  0.36316776375E+03  0.11107267755E+01  0.14916089244E+04  0.15864391705E+04  0.40000000000E+03 0.  1.
<mgrwt>
<rscale>  2 0.54027036E+03</rscale>
<asrwt>0</asrwt>
<pdfrwt beam="1">  1       21 0.39408317E+00 0.54027036E+03</pdfrwt>
<pdfrwt beam="2">  1       21 0.18274033E-01 0.54027036E+03</pdfrwt>
<totfact> 0.18714335E+02</totfact>
</mgrwt>
</event>
<event>
 4    1  0.4840996E-002  0.6468074E+03  0.7818608E-02  0.9812788E-01
         21   -1    0    0  501  502  0.00000000000E+00  0.00000000000E+00  0.12413826929E+04  0.12413826929E+04  0.00000000000E+00 0. -1.
         21   -1    0    0  502  503 -0.00000000000E+00 -0.00000000000E+00 -0.33809821930E+03  0.33809821930E+03  0.00000000000E+00 0.  1.
    9000005    1    1    2  501    0  0.40519498501E+03 -0.30688249049E+03  0.49642251049E+03  0.81534970887E+03  0.40000000000E+03 0.  1.
   -9000005    1    1    2    0  503 -0.40519498501E+03  0.30688249049E+03  0.40686196307E+03  0.76413120329E+03  0.40000000000E+03 0. -1.
<mgrwt>
<rscale>  2 0.64680742E+03</rscale>
<asrwt>0</asrwt>
<pdfrwt beam="1">  1       21 0.19098195E+00 0.64680742E+03</pdfrwt>
<pdfrwt beam="2">  1       21 0.52015111E-01 0.64680742E+03</pdfrwt>
<totfact> 0.41007818E+02</totfact>
</mgrwt>
</event>
<event>
 4    1  0.4840996E-002  0.4675784E+03  0.7818608E-02  0.1022606E+00
         21   -1    0    0  501  502  0.00000000000E+00  0.00000000000E+00  0.75853963077E+03  0.75853963077E+03  0.00000000000E+00 0.  1.
         21   -1    0    0  502  503 -0.00000000000E+00 -0.00000000000E+00 -0.49750991881E+03  0.49750991881E+03  0.00000000000E+00 0. -1.
    9000005    1    1    2  501    0  0.69079500514E+02 -0.23207240426E+03  0.53784407537E+03  0.71267512067E+03  0.40000000000E+03 0.  1.
   -9000005    1    1    2    0  503 -0.69079500514E+02  0.23207240426E+03 -0.27681436341E+03  0.54337442892E+03  0.40000000000E+03 0. -1.
<mgrwt>
<rscale>  2 0.46757842E+03</rscale>
<asrwt>0</asrwt>
<pdfrwt beam="1">  1       21 0.11669840E+00 0.46757842E+03</pdfrwt>
<pdfrwt beam="2">  1       21 0.76539988E-01 0.46757842E+03</pdfrwt>
<totfact> 0.71928155E+02</totfact>
</mgrwt>
</event>
<event>
 4    1  0.4840996E-002  0.4133095E+03  0.7818608E-02  0.1039266E+00
         21   -1    0    0  501  502  0.00000000000E+00  0.00000000000E+00  0.11342718462E+03  0.11342718462E+03  0.00000000000E+00 0. -1.
         21   -1    0    0  502  503 -0.00000000000E+00 -0.00000000000E+00 -0.19710083644E+04  0.19710083644E+04  0.00000000000E+00 0. -1.
    9000005    1    1    2  501    0 -0.33420365431E+02 -0.98528117265E+02 -0.42258055870E+03  0.59109985562E+03  0.40000000000E+03 0. -1.
   -9000005    1    1    2    0  503  0.33420365431E+02  0.98528117265E+02 -0.14350006210E+04  0.14933356934E+04  0.40000000000E+03 0. -1.
<mgrwt>
<rscale>  2 0.41330946E+03</rscale>
<asrwt>0</asrwt>
<pdfrwt beam="1">  1       21 0.17450336E-01 0.41330946E+03</pdfrwt>
<pdfrwt beam="2">  1       21 0.30323205E+00 0.41330946E+03</pdfrwt>
<totfact> 0.79728980E+02</totfact>
</mgrwt>
</event>
<event>
 4    1  0.4840996E-002  0.4530981E+03  0.7818608E-02  0.1026802E+00
         21   -1    0    0  503  502  0.00000000000E+00  0.00000000000E+00  0.75523692174E+03  0.75523692174E+03  0.00000000000E+00 0. -1.
         21   -1    0    0  501  503 -0.00000000000E+00 -0.00000000000E+00 -0.60029671348E+03  0.60029671348E+03  0.00000000000E+00 0. -1.
    9000005    1    1    2  501    0 -0.19405890799E+03 -0.87401386146E+02 -0.42388035651E+03  0.62046145626E+03  0.40000000000E+03 0. -1.
   -9000005    1    1    2    0  502  0.19405890799E+03  0.87401386146E+02  0.57882056477E+03  0.73507217896E+03  0.40000000000E+03 0. -1.
<mgrwt>
<rscale>  2 0.45309807E+03</rscale>
<asrwt>0</asrwt>
<pdfrwt beam="1">  1       21 0.11619030E+00 0.45309807E+03</pdfrwt>
<pdfrwt beam="2">  1       21 0.92353340E-01 0.45309807E+03</pdfrwt>
<totfact> 0.47190054E+02</totfact>
</mgrwt>
</event>
<event>
 4    1  0.4840996E-002  0.4049136E+03  0.7818608E-02  0.1042091E+00
         21   -1    0    0  501  502  0.00000000000E+00  0.00000000000E+00  0.39354589278E+03  0.39354589278E+03  0.00000000000E+00 0. -1.
         21   -1    0    0  502  503 -0.00000000000E+00 -0.00000000000E+00 -0.54180194055E+03  0.54180194055E+03  0.00000000000E+00 0. -1.
    9000005    1    1    2  501    0 -0.60452934575E+02 -0.17334713376E+02  0.15067985003E+03  0.43204104758E+03  0.40000000000E+03 0. -1.
   -9000005    1    1    2    0  503  0.60452934575E+02  0.17334713376E+02 -0.29893589781E+03  0.50330678575E+03  0.40000000000E+03 0. -1.
<mgrwt>
<rscale>  2 0.40491363E+03</rscale>
<asrwt>0</asrwt>
<pdfrwt beam="1">  1       21 0.60545523E-01 0.40491363E+03</pdfrwt>
<pdfrwt beam="2">  1       21 0.83354144E-01 0.40491363E+03</pdfrwt>
<totfact> 0.28151217E+03</totfact>
</mgrwt>
</event>
<event>
 4    1  0.4840996E-002  0.5771824E+03  0.7818608E-02  0.9953910E-01
         21   -1    0    0  503  502  0.00000000000E+00  0.00000000000E+00  0.23759235855E+03  0.23759235855E+03  0.00000000000E+00 0.  1.
         21   -1    0    0  501  503 -0.00000000000E+00 -0.00000000000E+00 -0.14950379438E+04  0.14950379438E+04  0.00000000000E+00 0.  1.
    9000005    1    1    2  501    0  0.27207356642E+03 -0.31482609824E+03 -0.41278152092E+03  0.70959712632E+03  0.40000000000E+03 0.  1.
   -9000005    1    1    2    0  502 -0.27207356642E+03  0.31482609824E+03 -0.84466406431E+03  0.10230331760E+04  0.40000000000E+03 0.  1.
<mgrwt>
<rscale>  2 0.57718238E+03</rscale>
<asrwt>0</asrwt>
<pdfrwt beam="1">  1       21 0.36552671E-01 0.57718238E+03</pdfrwt>
<pdfrwt beam="2">  1       21 0.23000583E+00 0.57718238E+03</pdfrwt>
<totfact> 0.48680082E+02</totfact>
</mgrwt>
</event>
<event>
 4    1  0.4840996E-002  0.6384258E+03  0.7818608E-02  0.9828743E-01
         21   -1    0    0  503  502  0.00000000000E+00  0.00000000000E+00  0.50831182130E+03  0.50831182130E+03  0.00000000000E+00 0. -1.
         21   -1    0    0  501  503 -0.00000000000E+00 -0.00000000000E+00 -0.12375517634E+04  0.12375517634E+04  0.00000000000E+00 0. -1.
    9000005    1    1    2  501    0  0.48293038947E+03  0.11985700698E+03 -0.88257923780E+03  0.10892812191E+04  0.40000000000E+03 0. -1.
   -9000005    1    1    2    0  502 -0.48293038947E+03 -0.11985700698E+03  0.15333929574E+03  0.65658236560E+03  0.40000000000E+03 0. -1.
<mgrwt>
<rscale>  2 0.63842577E+03</rscale>
<asrwt>0</asrwt>
<pdfrwt beam="1">  1       21 0.78201819E-01 0.63842577E+03</pdfrwt>
<pdfrwt beam="2">  1       21 0.19039258E+00 0.63842577E+03</pdfrwt>
<totfact> 0.16696077E+02</totfact>
</mgrwt>
</event>
<event>
 4    1  0.4840996E-002  0.4000781E+03  0.7818608E-02  0.1043753E+00
         21   -1    0    0  501  502  0.00000000000E+00  0.00000000000E+00  0.15813803295E+03  0.15813803295E+03  0.00000000000E+00 0. -1.
         21   -1    0    0  502  503 -0.00000000000E+00 -0.00000000000E+00 -0.30170067184E+04  0.30170067184E+04  0.00000000000E+00 0. -1.
    9000005    1    1    2  501    0  0.73041965593E+01 -0.30177232698E+01 -0.13528326795E+03  0.42233164756E+03  0.40000000000E+03 0. -1.
   -9000005    1    1    2    0  503 -0.73041965593E+01  0.30177232698E+01 -0.27235854175E+04  0.27528131037E+04  0.40000000000E+03 0. -1.
<mgrwt>
<rscale>  2 0.40007806E+03</rscale>
<asrwt>0</asrwt>
<pdfrwt beam="1">  1       21 0.24328932E-01 0.40007806E+03</pdfrwt>
<pdfrwt beam="2">  1       21 0.46415480E+00 0.40007806E+03</pdfrwt>
<totfact> 0.40891662E+01</totfact>
</mgrwt>
</event>
<event>
 4    1  0.4840996E-002  0.4555716E+03  0.7818608E-02  0.1026073E+00
         21   -1    0    0  503  502  0.00000000000E+00  0.00000000000E+00  0.18921115065E+04  0.18921115065E+04  0.00000000000E+00 0. -1.
         21   -1    0    0  501  503 -0.00000000000E+00 -0.00000000000E+00 -0.15096680451E+03  0.15096680451E+03  0.00000000000E+00 0. -1.
    9000005    1    1    2  501    0 -0.21430422458E+03  0.40239101004E+02  0.33641655279E+03  0.56632286102E+03  0.40000000000E+03 0. -1.
   -9000005    1    1    2    0  502  0.21430422458E+03 -0.40239101004E+02  0.14047281492E+04  0.14767554500E+04  0.40000000000E+03 0. -1.
<mgrwt>
<rscale>  2 0.45557160E+03</rscale>
<asrwt>0</asrwt>
<pdfrwt beam="1">  1       21 0.29109406E+00 0.45557160E+03</pdfrwt>
<pdfrwt beam="2">  1       21 0.23225664E-01 0.45557160E+03</pdfrwt>
<totfact> 0.53413081E+02</totfact>
</mgrwt>
</event>
<event>
 4    1  0.4840996E-002  0.4744234E+03  0.7818608E-02  0.1020679E+00
         21   -1    0    0  503  502  0.00000000000E+00  0.00000000000E+00  0.74658526223E+03  0.74658526223E+03  0.00000000000E+00 0.  1.
         21   -1    0    0  501  503 -0.00000000000E+00 -0.00000000000E+00 -0.42763127465E+03  0.42763127465E+03  0.00000000000E+00 0.  1.
    9000005    1    1    2  501    0  0.24867712947E+03  0.56896628378E+02 -0.15940953112E+03  0.50048870083E+03  0.40000000000E+03 0.  1.
   -9000005    1    1    2    0  502 -0.24867712947E+03 -0.56896628378E+02  0.47836351871E+03  0.67372783605E+03  0.40000000000E+03 0.  1.
<mgrwt>
<rscale>  2 0.47442338E+03</rscale>
<asrwt>0</asrwt>
<pdfrwt beam="1">  1       21 0.11485927E+00 0.47442338E+03</pdfrwt>
<pdfrwt beam="2">  1       21 0.65789427E-01 0.47442338E+03</pdfrwt>
<totfact> 0.10509040E+03</totfact>
</mgrwt>
</event>
<event>
 4    1  0.4840996E-002  0.4812465E+03  0.7818608E-02  0.1018793E+00
         21   -1    0    0  503  502  0.00000000000E+00  0.00000000000E+00  0.13712758104E+04  0.13712758104E+04  0.00000000000E+00 0. -1.
         21   -1    0    0  501  503 -0.00000000000E+00 -0.00000000000E+00 -0.39444815301E+03  0.39444815301E+03  0.00000000000E+00 0.  1.
    9000005    1    1    2  501    0 -0.14321775781E+03 -0.22602393805E+03 -0.17919911362E+03  0.51352747643E+03  0.40000000000E+03 0.  1.
   -9000005    1    1    2    0  502  0.14321775781E+03  0.22602393805E+03  0.11560267711E+04  0.12521964870E+04  0.40000000000E+03 0. -1.
<mgrwt>
<rscale>  2 0.48124645E+03</rscale>
<asrwt>0</asrwt>
<pdfrwt beam="1">  1       21 0.21096551E+00 0.48124645E+03</pdfrwt>
<pdfrwt beam="2">  1       21 0.60684332E-01 0.48124645E+03</pdfrwt>
<totfact> 0.23018101E+02</totfact>
</mgrwt>
</event>
<event>
 4    1  0.4840996E-002  0.5070886E+03  0.7818608E-02  0.1011945E+00
         21   -1    0    0  503  502  0.00000000000E+00  0.00000000000E+00  0.69240887645E+03  0.69240887645E+03  0.00000000000E+00 0.  1.
         21   -1    0    0  501  503 -0.00000000000E+00 -0.00000000000E+00 -0.45445701901E+03  0.45445701901E+03  0.00000000000E+00 0.  1.
    9000005    1    1    2  501    0  0.89564151966E+02  0.29852495303E+03 -0.12621624083E+03  0.52256045043E+03  0.40000000000E+03 0.  1.
   -9000005    1    1    2    0  502 -0.89564151966E+02 -0.29852495303E+03  0.36416809828E+03  0.62430544504E+03  0.40000000000E+03 0.  1.
<mgrwt>
<rscale>  2 0.50708864E+03</rscale>
<asrwt>0</asrwt>
<pdfrwt beam="1">  1       21 0.10652444E+00 0.50708864E+03</pdfrwt>
<pdfrwt beam="2">  1       21 0.69916464E-01 0.50708864E+03</pdfrwt>
<totfact> 0.10924692E+03</totfact>
</mgrwt>
</event>
<event>
 4    1  0.4840996E-002  0.6240952E+03  0.7818608E-02  0.9856640E-01
         21   -1    0    0  503  502  0.00000000000E+00  0.00000000000E+00  0.14169144760E+03  0.14169144760E+03  0.00000000000E+00 0.  1.
         21   -1    0    0  501  503 -0.00000000000E+00 -0.00000000000E+00 -0.31396473889E+04  0.31396473889E+04  0.00000000000E+00 0. -1.
    9000005    1    1    2  501    0 -0.46869867315E+03  0.99077300140E+02 -0.20777827000E+04  0.21694874293E+04  0.40000000000E+03 0. -1.
   -9000005    1    1    2    0  502  0.46869867315E+03 -0.99077300140E+02 -0.92017324133E+03  0.11118514072E+04  0.40000000000E+03 0.  1.
<mgrwt>
<rscale>  2 0.62409515E+03</rscale>
<asrwt>0</asrwt>
<pdfrwt beam="1">  1       21 0.21798685E-01 0.62409515E+03</pdfrwt>
<pdfrwt beam="2">  1       21 0.48302266E+00 0.62409515E+03</pdfrwt>
<totfact> 0.32201667E+01</totfact>
</mgrwt>
</event>
<event>
 4    1  0.4840996E-002  0.5347764E+03  0.7818608E-02  0.1005080E+00
         21   -1    0    0  503  502  0.00000000000E+00  0.00000000000E+00  0.43581807683E+03  0.43581807683E+03  0.00000000000E+00 0.  1.
         21   -1    0    0  501  503 -0.00000000000E+00 -0.00000000000E+00 -0.68859876042E+03  0.68859876042E+03  0.00000000000E+00 0. -1.
    9000005    1    1    2  501    0 -0.32713137362E+03  0.13773456638E+03 -0.44496015540E+01  0.53479486285E+03  0.40000000000E+03 0.  1.
   -9000005    1    1    2    0  502  0.32713137362E+03 -0.13773456638E+03 -0.24833108204E+03  0.58962197439E+03  0.40000000000E+03 0. -1.
<mgrwt>
<rscale>  2 0.53477635E+03</rscale>
<asrwt>0</asrwt>
<pdfrwt beam="1">  1       21 0.67048935E-01 0.53477635E+03</pdfrwt>
<pdfrwt beam="2">  1       21 0.10593827E+00 0.53477635E+03</pdfrwt>
<totfact> 0.12053823E+03</totfact>
</mgrwt>
</event>
<event>
 4    1  0.4840996E-002  0.4045113E+03  0.7818608E-02  0.1042229E+00
         21   -1    0    0  501  502  0.00000000000E+00  0.00000000000E+00  0.73263683710E+03  0.73263683710E+03  0.00000000000E+00 0. -1.
         21   -1    0    0  502  503 -0.00000000000E+00 -0.00000000000E+00 -0.29594061253E+03  0.29594061253E+03  0.00000000000E+00 0. -1.
    9000005    1    1    2  501    0 -0.14886572453E+02 -0.58376137129E+02  0.47306960125E+03  0.62243411784E+03  0.40000000000E+03 0. -1.
   -9000005    1    1    2    0  503  0.14886572453E+02  0.58376137129E+02 -0.36373376678E+02  0.40614333179E+03  0.40000000000E+03 0. -1.
<mgrwt>
<rscale>  2 0.40451129E+03</rscale>
<asrwt>0</asrwt>
<pdfrwt beam="1">  1       21 0.11271336E+00 0.40451129E+03</pdfrwt>
<pdfrwt beam="2">  1       21 0.45529325E-01 0.40451129E+03</pdfrwt>
<totfact> 0.25073524E+03</totfact>
</mgrwt>
</event>
<event>
 4    1  0.4840996E-002  0.4838339E+03  0.7818608E-02  0.1018087E+00
         21   -1    0    0  503  502  0.00000000000E+00  0.00000000000E+00  0.58748824962E+03  0.58748824962E+03  0.00000000000E+00 0. -1.
         21   -1    0    0  501  503 -0.00000000000E+00 -0.00000000000E+00 -0.60729066169E+03  0.60729066169E+03  0.00000000000E+00 0. -1.
    9000005    1    1    2  501    0 -0.26653952868E+03  0.55244640279E+02 -0.36020756780E+03  0.60319547622E+03  0.40000000000E+03 0. -1.
   -9000005    1    1    2    0  502  0.26653952868E+03 -0.55244640279E+02  0.34040515573E+03  0.59158343509E+03  0.40000000000E+03 0. -1.
<mgrwt>
<rscale>  2 0.48383395E+03</rscale>
<asrwt>0</asrwt>
<pdfrwt beam="1">  1       21 0.90382807E-01 0.48383395E+03</pdfrwt>
<pdfrwt beam="2">  1       21 0.93429333E-01 0.48383395E+03</pdfrwt>
<totfact> 0.83727010E+02</totfact>
</mgrwt>
</event>
<event>
 4    1  0.4840996E-002  0.5158933E+03  0.7818608E-02  0.1009712E+00
         21   -1    0    0  503  502  0.00000000000E+00  0.00000000000E+00  0.14854315069E+04  0.14854315069E+04  0.00000000000E+00 0. -1.
         21   -1    0    0  501  503 -0.00000000000E+00 -0.00000000000E+00 -0.20587348836E+03  0.20587348836E+03  0.00000000000E+00 0. -1.
    9000005    1    1    2  501    0 -0.19755240297E+03 -0.25907319649E+03  0.33522126517E+03  0.61523911586E+03  0.40000000000E+03 0. -1.
   -9000005    1    1    2    0  502  0.19755240297E+03  0.25907319649E+03  0.94433675338E+03  0.10760658794E+04  0.40000000000E+03 0. -1.
<mgrwt>
<rscale>  2 0.51589328E+03</rscale>
<asrwt>0</asrwt>
<pdfrwt beam="1">  1       21 0.22852792E+00 0.51589328E+03</pdfrwt>
<pdfrwt beam="2">  1       21 0.31672845E-01 0.51589328E+03</pdfrwt>
<totfact> 0.68184894E+02</totfact>
</mgrwt>
</event>
<event>
 4    1  0.4840996E-002  0.4213701E+03  0.7818608E-02  0.1036621E+00
         21   -1    0    0  503  502  0.00000000000E+00  0.00000000000E+00  0.71173918854E+03  0.71173918854E+03  0.00000000000E+00 0.  1.
         21   -1    0    0  501  503 -0.00000000000E+00 -0.00000000000E+00 -0.25423898714E+03  0.25423898714E+03  0.00000000000E+00 0.  1.
    9000005    1    1    2  501    0  0.13241583991E+03  0.43400521882E+01  0.16255357438E+03  0.45163752640E+03  0.40000000000E+03 0.  1.
   -9000005    1    1    2    0  502 -0.13241583991E+03 -0.43400521882E+01  0.29494662702E+03  0.51434064928E+03  0.40000000000E+03 0.  1.
<mgrwt>
<rscale>  2 0.42137014E+03</rscale>
<asrwt>0</asrwt>
<pdfrwt beam="1">  1       21 0.10949834E+00 0.42137014E+03</pdfrwt>
<pdfrwt beam="2">  1       21 0.39113690E-01 0.42137014E+03</pdfrwt>
<totfact> 0.36659042E+03</totfact>
</mgrwt>
</event>
<event>
 4    1  0.4840996E-002  0.4684400E+03  0.7818608E-02  0.1022361E+00
         21   -1    0    0  501  502  0.00000000000E+00  0.00000000000E+00  0.15063201094E+04  0.15063201094E+04  0.00000000000E+00 0. -1.
         21   -1    0    0  502  503 -0.00000000000E+00 -0.00000000000E+00 -0.18096392148E+03  0.18096392148E+03  0.00000000000E+00 0. -1.
    9000005    1    1    2  501    0 -0.22589078768E+03 -0.91702823194E+02  0.10352153006E+04  0.11362687949E+04  0.40000000000E+03 0. -1.
   -9000005    1    1    2    0  503  0.22589078768E+03  0.91702823194E+02  0.29014088730E+03  0.55101523593E+03  0.40000000000E+03 0. -1.
<mgrwt>
<rscale>  2 0.46844002E+03</rscale>
<asrwt>0</asrwt>
<pdfrwt beam="1">  1       21 0.23174155E+00 0.46844002E+03</pdfrwt>
<pdfrwt beam="2">  1       21 0.27840604E-01 0.46844002E+03</pdfrwt>
<totfact> 0.85901285E+02</totfact>
</mgrwt>
</event>
<event>
 4    1  0.4840996E-002  0.4622762E+03  0.7818608E-02  0.1024123E+00
         21   -1    0    0  501  502  0.00000000000E+00  0.00000000000E+00  0.18253172702E+03  0.18253172702E+03  0.00000000000E+00 0.  1.
         21   -1    0    0  502  503 -0.00000000000E+00 -0.00000000000E+00 -0.12163760988E+04  0.12163760988E+04  0.00000000000E+00 0.  1.
    9000005    1    1    2  501    0  0.75480287889E+01  0.23160819649E+03 -0.65238614063E+03  0.79956676138E+03  0.40000000000E+03 0.  1.
   -9000005    1    1    2    0  503 -0.75480287889E+01 -0.23160819649E+03 -0.38145823118E+03  0.59934106446E+03  0.40000000000E+03 0.  1.
<mgrwt>
<rscale>  2 0.46227625E+03</rscale>
<asrwt>0</asrwt>
<pdfrwt beam="1">  1       21 0.28081804E-01 0.46227625E+03</pdfrwt>
<pdfrwt beam="2">  1       21 0.18713478E+00 0.46227625E+03</pdfrwt>
<totfact> 0.16606904E+03</totfact>
</mgrwt>
</event>
<event>
 4    1  0.4840996E-002  0.4193919E+03  0.7818608E-02  0.1037264E+00
         21   -1    0    0  503  502  0.00000000000E+00  0.00000000000E+00  0.30068585772E+03  0.30068585772E+03  0.00000000000E+00 0.  1.
         21   -1    0    0  501  503 -0.00000000000E+00 -0.00000000000E+00 -0.13134337872E+04  0.13134337872E+04  0.00000000000E+00 0.  1.
    9000005    1    1    2  501    0 -0.11490243134E+03 -0.51836598250E+02 -0.11074206429E+04  0.11841748528E+04  0.40000000000E+03 0.  1.
   -9000005    1    1    2    0  502  0.11490243134E+03  0.51836598250E+02  0.94672713399E+02  0.42994479216E+03  0.40000000000E+03 0.  1.
<mgrwt>
<rscale>  2 0.41939194E+03</rscale>
<asrwt>0</asrwt>
<pdfrwt beam="1">  1       21 0.46259363E-01 0.41939194E+03</pdfrwt>
<pdfrwt beam="2">  1       21 0.20206674E+00 0.41939194E+03</pdfrwt>
<totfact> 0.48697581E+02</totfact>
</mgrwt>
</event>
<event>
 4    1  0.4840996E-002  0.5872431E+03  0.7818608E-02  0.9932232E-01
         21   -1    0    0  501  502  0.00000000000E+00  0.00000000000E+00  0.60466972241E+03  0.60466972241E+03  0.00000000000E+00 0. -1.
         21   -1    0    0  502  503 -0.00000000000E+00 -0.00000000000E+00 -0.58604038316E+03  0.58604038316E+03  0.00000000000E+00 0. -1.
    9000005    1    1    2  501    0 -0.32230555355E+03 -0.28455852116E+03  0.10682765128E+03  0.59688069905E+03  0.40000000000E+03 0. -1.
   -9000005    1    1    2    0  503  0.32230555355E+03  0.28455852116E+03 -0.88198312033E+02  0.59382940653E+03  0.40000000000E+03 0. -1.
<mgrwt>
<rscale>  2 0.58724307E+03</rscale>
<asrwt>0</asrwt>
<pdfrwt beam="1">  1       21 0.93026112E-01 0.58724307E+03</pdfrwt>
<pdfrwt beam="2">  1       21 0.90160059E-01 0.58724307E+03</pdfrwt>
<totfact> 0.82064277E+02</totfact>
</mgrwt>
</event>
<event>
 4    1  0.4840996E-002  0.4654668E+03  0.7818608E-02  0.1023208E+00
         21   -1    0    0  501  502  0.00000000000E+00  0.00000000000E+00  0.58209896510E+03  0.58209896510E+03  0.00000000000E+00 0. -1.
         21   -1    0    0  502  503 -0.00000000000E+00 -0.00000000000E+00 -0.43053378908E+03  0.43053378908E+03  0.00000000000E+00 0.  1.
    9000005    1    1    2  501    0 -0.14965527735E+03  0.18510181783E+03  0.26214773541E+03  0.53421046431E+03  0.40000000000E+03 0. -1.
   -9000005    1    1    2    0  503  0.14965527735E+03 -0.18510181783E+03 -0.11058255938E+03  0.47842228987E+03  0.40000000000E+03 0.  1.
<mgrwt>
<rscale>  2 0.46546685E+03</rscale>
<asrwt>0</asrwt>
<pdfrwt beam="1">  1       21 0.89553687E-01 0.46546685E+03</pdfrwt>
<pdfrwt beam="2">  1       21 0.66235968E-01 0.46546685E+03</pdfrwt>
<totfact> 0.19061108E+03</totfact>
</mgrwt>
</event>
<event>
 4    1  0.4840996E-002  0.4761202E+03  0.7818608E-02  0.1020207E+00
         21   -1    0    0  501  502  0.00000000000E+00  0.00000000000E+00  0.33875501102E+03  0.33875501102E+03  0.00000000000E+00 0.  1.
         21   -1    0    0  502  503 -0.00000000000E+00 -0.00000000000E+00 -0.70682892184E+03  0.70682892184E+03  0.00000000000E+00 0.  1.
    9000005    1    1    2  501    0 -0.24275882536E+03  0.88082853942E+02 -0.63392361178E+02  0.48032179620E+03  0.40000000000E+03 0.  1.
   -9000005    1    1    2    0  503  0.24275882536E+03 -0.88082853942E+02 -0.30468154965E+03  0.56526213666E+03  0.40000000000E+03 0.  1.
<mgrwt>
<rscale>  2 0.47612019E+03</rscale>
<asrwt>0</asrwt>
<pdfrwt beam="1">  1       21 0.52116156E-01 0.47612019E+03</pdfrwt>
<pdfrwt beam="2">  1       21 0.10874291E+00 0.47612019E+03</pdfrwt>
<totfact> 0.20027934E+03</totfact>
</mgrwt>
</event>
<event>
 4    1  0.4840996E-002  0.4160706E+03  0.7818608E-02  0.1038353E+00
         21   -1    0    0  501  502  0.00000000000E+00  0.00000000000E+00  0.22679894003E+04  0.22679894003E+04  0.00000000000E+00 0.  1.
         21   -1    0    0  502  503 -0.00000000000E+00 -0.00000000000E+00 -0.60899053778E+03  0.60899053778E+03  0.00000000000E+00 0.  1.
    9000005    1    1    2  501    0  0.93374714968E+02 -0.66301809814E+02  0.21748237172E+04  0.22142657854E+04  0.40000000000E+03 0.  1.
   -9000005    1    1    2    0  503 -0.93374714968E+02  0.66301809814E+02 -0.51582485473E+03  0.66271415266E+03  0.40000000000E+03 0.  1.
<mgrwt>
<rscale>  2 0.41607063E+03</rscale>
<asrwt>0</asrwt>
<pdfrwt beam="1">  1       21 0.34892144E+00 0.41607063E+03</pdfrwt>
<pdfrwt beam="2">  1       21 0.93690853E-01 0.41607063E+03</pdfrwt>
<totfact> 0.12735233E+01</totfact>
</mgrwt>
</event>
<event>
 4    1  0.4840996E-002  0.4518405E+03  0.7818608E-02  0.1027175E+00
         21   -1    0    0  501  502  0.00000000000E+00  0.00000000000E+00  0.74323582584E+03  0.74323582584E+03  0.00000000000E+00 0.  1.
         21   -1    0    0  502  503 -0.00000000000E+00 -0.00000000000E+00 -0.29766985179E+03  0.29766985179E+03  0.00000000000E+00 0. -1.
    9000005    1    1    2  501    0 -0.17188898469E+03 -0.12088840139E+03  0.78178176435E+02  0.45855387461E+03  0.40000000000E+03 0. -1.
   -9000005    1    1    2    0  503  0.17188898469E+03  0.12088840139E+03  0.36738779761E+03  0.58235180302E+03  0.40000000000E+03 0. -1.
<mgrwt>
<rscale>  2 0.45184049E+03</rscale>
<asrwt>0</asrwt>
<pdfrwt beam="1">  1       21 0.11434397E+00 0.45184049E+03</pdfrwt>
<pdfrwt beam="2">  1       21 0.45795362E-01 0.45184049E+03</pdfrwt>
<totfact> 0.23459711E+03</totfact>
</mgrwt>
</event>
<event>
 4    1  0.4840996E-002  0.5016611E+03  0.7818608E-02  0.1013346E+00
         21   -1    0    0  501  502  0.00000000000E+00  0.00000000000E+00  0.42047179194E+03  0.42047179194E+03  0.00000000000E+00 0.  1.
         21   -1    0    0  502  503 -0.00000000000E+00 -0.00000000000E+00 -0.80449597327E+03  0.80449597327E+03  0.00000000000E+00 0.  1.
    9000005    1    1    2  501    0  0.21818933722E+03 -0.20989822998E+03  0.11789627126E+03  0.51532842402E+03  0.40000000000E+03 0.  1.
   -9000005    1    1    2    0  503 -0.21818933722E+03  0.20989822998E+03 -0.50192045260E+03  0.70963934119E+03  0.40000000000E+03 0.  1.
<mgrwt>
<rscale>  2 0.50166109E+03</rscale>
<asrwt>0</asrwt>
<pdfrwt beam="1">  1       21 0.64687968E-01 0.50166109E+03</pdfrwt>
<pdfrwt beam="2">  1       21 0.12376861E+00 0.50166109E+03</pdfrwt>
<totfact> 0.89312501E+02</totfact>
</mgrwt>
</event>
<event>
 4    1  0.4840996E-002  0.7010685E+03  0.7818608E-02  0.9715407E-01
         21   -1    0    0  503  502  0.00000000000E+00  0.00000000000E+00  0.13098186234E+04  0.13098186234E+04  0.00000000000E+00 0.  1.
         21   -1    0    0  501  503 -0.00000000000E+00 -0.00000000000E+00 -0.98859153601E+03  0.98859153601E+03  0.00000000000E+00 0. -1.
    9000005    1    1    2  501    0 -0.55811931245E+03  0.14142083128E+03 -0.74458456600E+03  0.10226940864E+04  0.40000000000E+03 0. -1.
   -9000005    1    1    2    0  502  0.55811931245E+03 -0.14142083128E+03  0.10658116534E+04  0.12757160730E+04  0.40000000000E+03 0.  1.
<mgrwt>
<rscale>  2 0.70106848E+03</rscale>
<asrwt>0</asrwt>
<pdfrwt beam="1">  1       21 0.20151056E+00 0.70106848E+03</pdfrwt>
<pdfrwt beam="2">  1       21 0.15209101E+00 0.70106848E+03</pdfrwt>
<totfact> 0.25629292E+01</totfact>
</mgrwt>
</event>
<event>
 4    1  0.4840996E-002  0.4321590E+03  0.7818608E-02  0.1033180E+00
         21   -1    0    0  503  502  0.00000000000E+00  0.00000000000E+00  0.80051729143E+03  0.80051729143E+03  0.00000000000E+00 0.  1.
         21   -1    0    0  501  503 -0.00000000000E+00 -0.00000000000E+00 -0.23483946013E+03  0.23483946013E+03  0.00000000000E+00 0.  1.
    9000005    1    1    2  501    0  0.88233510154E+02 -0.13775430150E+03  0.24093712859E+03  0.49478490259E+03  0.40000000000E+03 0.  1.
   -9000005    1    1    2    0  502 -0.88233510154E+02  0.13775430150E+03  0.32474070271E+03  0.54057184896E+03  0.40000000000E+03 0.  1.
<mgrwt>
<rscale>  2 0.43215900E+03</rscale>
<asrwt>0</asrwt>
<pdfrwt beam="1">  1       21 0.12315650E+00 0.43215900E+03</pdfrwt>
<pdfrwt beam="2">  1       21 0.36129148E-01 0.43215900E+03</pdfrwt>
<totfact> 0.31955050E+03</totfact>
</mgrwt>
</event>
<event>
 4    1  0.4840996E-002  0.5478568E+03  0.7818608E-02  0.1001991E+00
         21   -1    0    0  501  502  0.00000000000E+00  0.00000000000E+00  0.60987120092E+03  0.60987120092E+03  0.00000000000E+00 0.  1.
         21   -1    0    0  502  503 -0.00000000000E+00 -0.00000000000E+00 -0.17622741512E+04  0.17622741512E+04  0.00000000000E+00 0. -1.
    9000005    1    1    2  501    0  0.35954302396E+03 -0.10428746463E+03  0.43072543365E+03  0.69690132770E+03  0.40000000000E+03 0.  1.
   -9000005    1    1    2    0  503 -0.35954302396E+03  0.10428746463E+03 -0.15831283839E+04  0.16752440244E+04  0.40000000000E+03 0. -1.
<mgrwt>
<rscale>  2 0.54785679E+03</rscale>
<asrwt>0</asrwt>
<pdfrwt beam="1">  1       21 0.93826340E-01 0.54785679E+03</pdfrwt>
<pdfrwt beam="2">  1       21 0.27111910E+00 0.54785679E+03</pdfrwt>
<totfact> 0.34351912E+01</totfact>
</mgrwt>
</event>
<event>
 4    1  0.4840996E-002  0.4166308E+03  0.7818608E-02  0.1038168E+00
         21   -1    0    0  501  502  0.00000000000E+00  0.00000000000E+00  0.13922774177E+04  0.13922774177E+04  0.00000000000E+00 0. -1.
         21   -1    0    0  502  503 -0.00000000000E+00 -0.00000000000E+00 -0.12467442843E+03  0.12467442843E+03  0.00000000000E+00 0. -1.
    9000005    1    1    2  501    0  0.85335215350E+02 -0.79367228988E+02  0.63447102399E+03  0.75903539858E+03  0.40000000000E+03 0. -1.
   -9000005    1    1    2    0  503 -0.85335215350E+02  0.79367228988E+02  0.63313196532E+03  0.75791644759E+03  0.40000000000E+03 0. -1.
<mgrwt>
<rscale>  2 0.41663084E+03</rscale>
<asrwt>0</asrwt>
<pdfrwt beam="1">  1       21 0.21419651E+00 0.41663084E+03</pdfrwt>
<pdfrwt beam="2">  1       21 0.19180682E-01 0.41663084E+03</pdfrwt>
<totfact> 0.23359821E+03</totfact>
</mgrwt>
</event>
<event>
 4    1  0.4840996E-002  0.6539781E+03  0.7818608E-02  0.9799343E-01
         21   -1    0    0  503  502  0.00000000000E+00  0.00000000000E+00  0.11624043656E+04  0.11624043656E+04  0.00000000000E+00 0.  1.
         21   -1    0    0  501  503 -0.00000000000E+00 -0.00000000000E+00 -0.43082767931E+03  0.43082767931E+03  0.00000000000E+00 0. -1.
    9000005    1    1    2  501    0 -0.33145577865E+03 -0.39727117140E+03  0.61417512537E+02  0.65685571298E+03  0.40000000000E+03 0.  1.
   -9000005    1    1    2    0  502  0.33145577865E+03  0.39727117140E+03  0.67015917372E+03  0.93637633190E+03  0.40000000000E+03 0. -1.
<mgrwt>
<rscale>  2 0.65397807E+03</rscale>
<asrwt>0</asrwt>
<pdfrwt beam="1">  1       21 0.17883144E+00 0.65397807E+03</pdfrwt>
<pdfrwt beam="2">  1       21 0.66281182E-01 0.65397807E+03</pdfrwt>
<totfact> 0.29218888E+02</totfact>
</mgrwt>
</event>
<event>
 4    1  0.4840996E-002  0.7879233E+03  0.7818608E-02  0.9577664E-01
         21   -1    0    0  501  502  0.00000000000E+00  0.00000000000E+00  0.89627118691E+03  0.89627118691E+03  0.00000000000E+00 0.  1.
         21   -1    0    0  502  503 -0.00000000000E+00 -0.00000000000E+00 -0.14630317397E+04  0.14630317397E+04  0.00000000000E+00 0. -1.
    9000005    1    1    2  501    0  0.50627237841E+03 -0.45222929988E+03  0.57261876441E+03  0.97402017955E+03  0.40000000000E+03 0.  1.
   -9000005    1    1    2    0  503 -0.50627237841E+03  0.45222929988E+03 -0.11393793172E+04  0.13852827470E+04  0.40000000000E+03 0. -1.
<mgrwt>
<rscale>  2 0.78792326E+03</rscale>
<asrwt>0</asrwt>
<pdfrwt beam="1">  1       21 0.13788788E+00 0.78792326E+03</pdfrwt>
<pdfrwt beam="2">  1       21 0.22508180E+00 0.78792326E+03</pdfrwt>
<totfact> 0.22628586E+01</totfact>
</mgrwt>
</event>
<event>
 4    1  0.4840996E-002  0.5014699E+03  0.7818608E-02  0.1013396E+00
         21   -1    0    0  501  502  0.00000000000E+00  0.00000000000E+00  0.30771073102E+03  0.30771073102E+03  0.00000000000E+00 0. -1.
         21   -1    0    0  502  503 -0.00000000000E+00 -0.00000000000E+00 -0.10904302457E+04  0.10904302457E+04  0.00000000000E+00 0.  1.
    9000005    1    1    2  501    0 -0.15288037898E+03 -0.26095902321E+03 -0.74127147164E+03  0.89496112583E+03  0.40000000000E+03 0. -1.
   -9000005    1    1    2    0  503  0.15288037898E+03  0.26095902321E+03 -0.41448043025E+02  0.50317985089E+03  0.40000000000E+03 0. -1.
<mgrwt>
<rscale>  2 0.50146986E+03</rscale>
<asrwt>0</asrwt>
<pdfrwt beam="1">  1       21 0.47340112E-01 0.50146986E+03</pdfrwt>
<pdfrwt beam="2">  1       21 0.16775850E+00 0.50146986E+03</pdfrwt>
<totfact> 0.77401423E+02</totfact>
</mgrwt>
</event>
<event>
 4    1  0.4840996E-002  0.5360799E+03  0.7818608E-02  0.1004768E+00
         21   -1    0    0  501  502  0.00000000000E+00  0.00000000000E+00  0.55068042968E+03  0.55068042968E+03  0.00000000000E+00 0.  1.
         21   -1    0    0  502  503 -0.00000000000E+00 -0.00000000000E+00 -0.95856438973E+03  0.95856438973E+03  0.00000000000E+00 0.  1.
    9000005    1    1    2  501    0  0.10407887056E+03  0.34139302583E+03  0.30540021145E+03  0.61696912284E+03  0.40000000000E+03 0.  1.
   -9000005    1    1    2    0  503 -0.10407887056E+03 -0.34139302583E+03 -0.71328417150E+03  0.89227569657E+03  0.40000000000E+03 0.  1.
<mgrwt>
<rscale>  2 0.53607985E+03</rscale>
<asrwt>0</asrwt>
<pdfrwt beam="1">  1       21 0.84720067E-01 0.53607985E+03</pdfrwt>
<pdfrwt beam="2">  1       21 0.14747144E+00 0.53607985E+03</pdfrwt>
<totfact> 0.29960000E+02</totfact>
</mgrwt>
</event>
<event>
 4    1  0.4840996E-002  0.4694002E+03  0.7818608E-02  0.1022090E+00
         21   -1    0    0  503  502  0.00000000000E+00  0.00000000000E+00  0.92117320372E+03  0.92117320372E+03  0.00000000000E+00 0. -1.
         21   -1    0    0  501  503 -0.00000000000E+00 -0.00000000000E+00 -0.24518563043E+03  0.24518563043E+03  0.00000000000E+00 0. -1.
    9000005    1    1    2  501    0  0.99774229963E+02 -0.22445859745E+03  0.42917959848E+03  0.63602805495E+03  0.40000000000E+03 0. -1.
   -9000005    1    1    2    0  502 -0.99774229963E+02  0.22445859745E+03  0.24680797482E+03  0.53033077920E+03  0.40000000000E+03 0. -1.
<mgrwt>
<rscale>  2 0.46940021E+03</rscale>
<asrwt>0</asrwt>
<pdfrwt beam="1">  1       21 0.14171895E+00 0.46940021E+03</pdfrwt>
<pdfrwt beam="2">  1       21 0.37720867E-01 0.46940021E+03</pdfrwt>
<totfact> 0.20005391E+03</totfact>
</mgrwt>
</event>
<event>
 4    1  0.4840996E-002  0.5471263E+03  0.7818608E-02  0.1002161E+00
         21   -1    0    0  501  502  0.00000000000E+00  0.00000000000E+00  0.14829134848E+04  0.14829134848E+04  0.00000000000E+00 0.  1.
         21   -1    0    0  502  503 -0.00000000000E+00 -0.00000000000E+00 -0.35743047322E+03  0.35743047322E+03  0.00000000000E+00 0. -1.
    9000005    1    1    2  501    0 -0.16634156093E+03  0.33418203805E+03  0.11698005517E+04  0.12914257548E+04  0.40000000000E+03 0.  1.
   -9000005    1    1    2    0  503  0.16634156093E+03 -0.33418203805E+03 -0.44317540126E+02  0.54891820320E+03  0.40000000000E+03 0. -1.
<mgrwt>
<rscale>  2 0.54712626E+03</rscale>
<asrwt>0</asrwt>
<pdfrwt beam="1">  1       21 0.22814053E+00 0.54712626E+03</pdfrwt>
<pdfrwt beam="2">  1       21 0.54989305E-01 0.54712626E+03</pdfrwt>
<totfact> 0.21452262E+02</totfact>
</mgrwt>
</event>
<event>
 4    1  0.4840996E-002  0.4381224E+03  0.7818608E-02  0.1031324E+00
         21   -1    0    0  503  502  0.00000000000E+00  0.00000000000E+00  0.13743776973E+03  0.13743776973E+03  0.00000000000E+00 0. -1.
         21   -1    0    0  501  503 -0.00000000000E+00 -0.00000000000E+00 -0.17093530795E+04  0.17093530795E+04  0.00000000000E+00 0. -1.
    9000005    1    1    2  501    0 -0.17568410475E+03  0.32959584174E+02 -0.11809094422E+04  0.12595627612E+04  0.40000000000E+03 0. -1.
   -9000005    1    1    2    0  502  0.17568410475E+03 -0.32959584174E+02 -0.39100586760E+03  0.58722808801E+03  0.40000000000E+03 0. -1.
<mgrwt>
<rscale>  2 0.43812240E+03</rscale>
<asrwt>0</asrwt>
<pdfrwt beam="1">  1       21 0.21144271E-01 0.43812240E+03</pdfrwt>
<pdfrwt beam="2">  1       21 0.26297741E+00 0.43812240E+03</pdfrwt>
<totfact> 0.95461005E+02</totfact>
</mgrwt>
</event>
<event>
 4    1  0.4840996E-002  0.5326036E+03  0.7818608E-02  0.1005603E+00
         21   -1    0    0  503  502  0.00000000000E+00  0.00000000000E+00  0.75817908845E+03  0.75817908845E+03  0.00000000000E+00 0. -1.
         21   -1    0    0  501  503 -0.00000000000E+00 -0.00000000000E+00 -0.41718677804E+03  0.41718677804E+03  0.00000000000E+00 0. -1.
    9000005    1    1    2  501    0 -0.97569882921E+02 -0.33785610481E+03 -0.18276080619E+02  0.53291710869E+03  0.40000000000E+03 0. -1.
   -9000005    1    1    2    0  502  0.97569882921E+02  0.33785610481E+03  0.35926839103E+03  0.64244875780E+03  0.40000000000E+03 0. -1.
<mgrwt>
<rscale>  2 0.53260363E+03</rscale>
<asrwt>0</asrwt>
<pdfrwt beam="1">  1       21 0.11664294E+00 0.53260363E+03</pdfrwt>
<pdfrwt beam="2">  1       21 0.64182581E-01 0.53260363E+03</pdfrwt>
<totfact> 0.10457434E+03</totfact>
</mgrwt>
</event>
<event>
 4    1  0.4840996E-002  0.4466992E+03  0.7818608E-02  0.1028711E+00
         21   -1    0    0  503  502  0.00000000000E+00  0.00000000000E+00  0.23574224135E+04  0.23574224135E+04  0.00000000000E+00 0. -1.
         21   -1    0    0  501  503 -0.00000000000E+00 -0.00000000000E+00 -0.15012809272E+03  0.15012809272E+03  0.00000000000E+00 0. -1.
    9000005    1    1    2  501    0  0.11785504344E+03  0.16015739901E+03  0.27559314091E+03  0.52487311137E+03  0.40000000000E+03 0. -1.
   -9000005    1    1    2    0  502 -0.11785504344E+03 -0.16015739901E+03  0.19317011798E+04  0.19826773948E+04  0.40000000000E+03 0. -1.
<mgrwt>
<rscale>  2 0.44669923E+03</rscale>
<asrwt>0</asrwt>
<pdfrwt beam="1">  1       21 0.36268034E+00 0.44669923E+03</pdfrwt>
<pdfrwt beam="2">  1       21 0.23096631E-01 0.44669923E+03</pdfrwt>
<totfact> 0.19954128E+02</totfact>
</mgrwt>
</event>
<event>
 4    1  0.4840996E-002  0.4185867E+03  0.7818608E-02  0.1037527E+00
         21   -1    0    0  501  502  0.00000000000E+00  0.00000000000E+00  0.66544812742E+03  0.66544812742E+03  0.00000000000E+00 0. -1.
         21   -1    0    0  502  503 -0.00000000000E+00 -0.00000000000E+00 -0.55396517245E+03  0.55396517245E+03  0.00000000000E+00 0. -1.
    9000005    1    1    2  501    0 -0.11232630808E+03  0.50967252143E+02  0.49738670419E+03  0.65008337449E+03  0.40000000000E+03 0. -1.
   -9000005    1    1    2    0  503  0.11232630808E+03 -0.50967252143E+02 -0.38590374922E+03  0.56932992538E+03  0.40000000000E+03 0. -1.
<mgrwt>
<rscale>  2 0.41858674E+03</rscale>
<asrwt>0</asrwt>
<pdfrwt beam="1">  1       21 0.10237664E+00 0.41858674E+03</pdfrwt>
<pdfrwt beam="2">  1       21 0.85225411E-01 0.41858674E+03</pdfrwt>
<totfact> 0.79258358E+02</totfact>
</mgrwt>
</event>
<event>
 4    1  0.4840996E-002  0.5302770E+03  0.7818608E-02  0.1006165E+00
         21   -1    0    0  503  502  0.00000000000E+00  0.00000000000E+00  0.52920927553E+03  0.52920927553E+03  0.00000000000E+00 0.  1.
         21   -1    0    0  501  503 -0.00000000000E+00 -0.00000000000E+00 -0.54207843244E+03  0.54207843244E+03  0.00000000000E+00 0.  1.
    9000005    1    1    2  501    0 -0.34770087565E+03 -0.17255544922E+02 -0.81801026149E+02  0.53654921548E+03  0.40000000000E+03 0.  1.
   -9000005    1    1    2    0  502  0.34770087565E+03  0.17255544922E+02  0.68931869240E+02  0.53473849249E+03  0.40000000000E+03 0.  1.
<mgrwt>
<rscale>  2 0.53027696E+03</rscale>
<asrwt>0</asrwt>
<pdfrwt beam="1">  1       21 0.81416812E-01 0.53027696E+03</pdfrwt>
<pdfrwt beam="2">  1       21 0.83396682E-01 0.53027696E+03</pdfrwt>
<totfact> 0.13773995E+03</totfact>
</mgrwt>
</event>
<event>
 4    1  0.4840996E-002  0.5090721E+03  0.7818608E-02  0.1011438E+00
         21   -1    0    0  501  502  0.00000000000E+00  0.00000000000E+00  0.34881765914E+03  0.34881765914E+03  0.00000000000E+00 0. -1.
         21   -1    0    0  502  503 -0.00000000000E+00 -0.00000000000E+00 -0.75696247084E+03  0.75696247084E+03  0.00000000000E+00 0. -1.
    9000005    1    1    2  501    0  0.61503914628E+02  0.30882305404E+03 -0.12885050643E+03  0.52512556901E+03  0.40000000000E+03 0. -1.
   -9000005    1    1    2    0  503 -0.61503914628E+02 -0.30882305404E+03 -0.27929430527E+03  0.58065456097E+03  0.40000000000E+03 0. -1.
<mgrwt>
<rscale>  2 0.50907211E+03</rscale>
<asrwt>0</asrwt>
<pdfrwt beam="1">  1       21 0.53664256E-01 0.50907211E+03</pdfrwt>
<pdfrwt beam="2">  1       21 0.11645576E+00 0.50907211E+03</pdfrwt>
<totfact> 0.15665679E+03</totfact>
</mgrwt>
</event>
<event>
 4    1  0.4840996E-002  0.6794583E+03  0.7818608E-02  0.9753021E-01
         21   -1    0    0  503  502  0.00000000000E+00  0.00000000000E+00  0.33421696913E+04  0.33421696913E+04  0.00000000000E+00 0. -1.
         21   -1    0    0  501  503 -0.00000000000E+00 -0.00000000000E+00 -0.18308822191E+03  0.18308822191E+03  0.00000000000E+00 0.  1.
    9000005    1    1    2  501    0  0.38935698843E+03 -0.38738188639E+03  0.70612451043E+03  0.97993643394E+03  0.40000000000E+03 0. -1.
   -9000005    1    1    2    0  502 -0.38935698843E+03  0.38738188639E+03  0.24529569590E+04  0.25453214793E+04  0.40000000000E+03 0. -1.
<mgrwt>
<rscale>  2 0.67945831E+03</rscale>
<asrwt>0</asrwt>
<pdfrwt beam="1">  1       21 0.51417991E+00 0.67945831E+03</pdfrwt>
<pdfrwt beam="2">  1       21 0.28167421E-01 0.67945831E+03</pdfrwt>
<totfact> 0.11341102E+01</totfact>
</mgrwt>
</event>
<event>
 4    1  0.4840996E-002  0.4139268E+03  0.7818608E-02  0.1039061E+00
         21   -1    0    0  501  502  0.00000000000E+00  0.00000000000E+00  0.90186035408E+03  0.90186035408E+03  0.00000000000E+00 0.  1.
         21   -1    0    0  502  503 -0.00000000000E+00 -0.00000000000E+00 -0.19159769074E+03  0.19159769074E+03  0.00000000000E+00 0. -1.
    9000005    1    1    2  501    0 -0.27970610266E+02  0.10272788491E+03  0.40536942875E+03  0.57936149954E+03  0.40000000000E+03 0.  1.
   -9000005    1    1    2    0  503  0.27970610266E+02 -0.10272788491E+03  0.30489323459E+03  0.51409654529E+03  0.40000000000E+03 0.  1.
<mgrwt>
<rscale>  2 0.41392677E+03</rscale>
<asrwt>0</asrwt>
<pdfrwt beam="1">  1       21 0.13874774E+00 0.41392677E+03</pdfrwt>
<pdfrwt beam="2">  1       21 0.29476568E-01 0.41392677E+03</pdfrwt>
<totfact> 0.35509437E+03</totfact>
</mgrwt>
</event>
<event>
 4    1  0.4840996E-002  0.4483841E+03  0.7818608E-02  0.1028205E+00
         21   -1    0    0  501  502  0.00000000000E+00  0.00000000000E+00  0.36762975188E+03  0.36762975188E+03  0.00000000000E+00 0.  1.
         21   -1    0    0  502  503 -0.00000000000E+00 -0.00000000000E+00 -0.56282288933E+03  0.56282288933E+03  0.00000000000E+00 0.  1.
    9000005    1    1    2  501    0  0.80598692352E+02 -0.18588219148E+03 -0.19289725184E+02  0.44879887680E+03  0.40000000000E+03 0.  1.
   -9000005    1    1    2    0  503 -0.80598692352E+02  0.18588219148E+03 -0.17590341227E+03  0.48165376441E+03  0.40000000000E+03 0.  1.
<mgrwt>
<rscale>  2 0.44838414E+03</rscale>
<asrwt>0</asrwt>
<pdfrwt beam="1">  1       21 0.56558423E-01 0.44838414E+03</pdfrwt>
<pdfrwt beam="2">  1       21 0.86588137E-01 0.44838414E+03</pdfrwt>
<totfact> 0.29393090E+03</totfact>
</mgrwt>
</event>
<event>
 4    1  0.4840996E-002  0.4895726E+03  0.7818608E-02  0.1016537E+00
         21   -1    0    0  501  502  0.00000000000E+00  0.00000000000E+00  0.35598750145E+03  0.35598750145E+03  0.00000000000E+00 0.  1.
         21   -1    0    0  502  503 -0.00000000000E+00 -0.00000000000E+00 -0.80241404683E+03  0.80241404683E+03  0.00000000000E+00 0.  1.
    9000005    1    1    2  501    0  0.54169766092E+02 -0.27703238445E+03  0.91356234452E+01  0.48965780420E+03  0.40000000000E+03 0.  1.
   -9000005    1    1    2    0  503 -0.54169766092E+02  0.27703238445E+03 -0.45556216882E+03  0.66874374408E+03  0.40000000000E+03 0.  1.
<mgrwt>
<rscale>  2 0.48957257E+03</rscale>
<asrwt>0</asrwt>
<pdfrwt beam="1">  1       21 0.54767308E-01 0.48957257E+03</pdfrwt>
<pdfrwt beam="2">  1       21 0.12344831E+00 0.48957257E+03</pdfrwt>
<totfact> 0.13012210E+03</totfact>
</mgrwt>
</event>
<event>
 4    1  0.4840996E-002  0.5583466E+03  0.7818608E-02  0.9995803E-01
         21   -1    0    0  501  502  0.00000000000E+00  0.00000000000E+00  0.17667734286E+03  0.17667734286E+03  0.00000000000E+00 0.  1.
         21   -1    0    0  502  503 -0.00000000000E+00 -0.00000000000E+00 -0.19340078610E+04  0.19340078610E+04  0.00000000000E+00 0.  1.
    9000005    1    1    2  501    0  0.83720591917E+02 -0.38044943991E+03 -0.56625007187E+03  0.79522956292E+03  0.40000000000E+03 0.  1.
   -9000005    1    1    2    0  503 -0.83720591917E+02  0.38044943991E+03 -0.11910804463E+04  0.13154556410E+04  0.40000000000E+03 0.  1.
<mgrwt>
<rscale>  2 0.55834659E+03</rscale>
<asrwt>0</asrwt>
<pdfrwt beam="1">  1       21 0.27181130E-01 0.55834659E+03</pdfrwt>
<pdfrwt beam="2">  1       21 0.29753967E+00 0.55834659E+03</pdfrwt>
<totfact> 0.34112792E+02</totfact>
</mgrwt>
</event>
<event>
 4    1  0.4840996E-002  0.4267589E+03  0.7818608E-02  0.1034889E+00
         21   -1    0    0  501  502  0.00000000000E+00  0.00000000000E+00  0.12661535877E+04  0.12661535877E+04  0.00000000000E+00 0.  1.
         21   -1    0    0  502  503 -0.00000000000E+00 -0.00000000000E+00 -0.22150099817E+03  0.22150099817E+03  0.00000000000E+00 0.  1.
    9000005    1    1    2  501    0  0.14891362770E+01 -0.14873104223E+03  0.96276615361E+03  0.10531105388E+04  0.40000000000E+03 0.  1.
   -9000005    1    1    2    0  503 -0.14891362770E+01  0.14873104223E+03  0.81886435930E+02  0.43454404706E+03  0.40000000000E+03 0.  1.
<mgrwt>
<rscale>  2 0.42675888E+03</rscale>
<asrwt>0</asrwt>
<pdfrwt beam="1">  1       21 0.19479286E+00 0.42675888E+03</pdfrwt>
<pdfrwt beam="2">  1       21 0.34077077E-01 0.42675888E+03</pdfrwt>
<totfact> 0.10171807E+03</totfact>
</mgrwt>
</event>
<event>
 4    1  0.4840996E-002  0.4966933E+03  0.7818608E-02  0.1014646E+00
         21   -1    0    0  503  502  0.00000000000E+00  0.00000000000E+00  0.18808498233E+04  0.18808498233E+04  0.00000000000E+00 0.  1.
         21   -1    0    0  501  503 -0.00000000000E+00 -0.00000000000E+00 -0.53065691334E+03  0.53065691334E+03  0.00000000000E+00 0.  1.
    9000005    1    1    2  501    0  0.25214531089E+03  0.15207543588E+03 -0.37107974543E+03  0.62000352698E+03  0.40000000000E+03 0.  1.
   -9000005    1    1    2    0  502 -0.25214531089E+03 -0.15207543588E+03  0.17212726553E+04  0.17915032096E+04  0.40000000000E+03 0.  1.
<mgrwt>
<rscale>  2 0.49669326E+03</rscale>
<asrwt>0</asrwt>
<pdfrwt beam="1">  1       21 0.28936151E+00 0.49669326E+03</pdfrwt>
<pdfrwt beam="2">  1       21 0.81639526E-01 0.49669326E+03</pdfrwt>
<totfact> 0.38083578E+01</totfact>
</mgrwt>
</event>
<event>
 4    1  0.4840996E-002  0.4535348E+03  0.7818608E-02  0.1026673E+00
         21   -1    0    0  501  502  0.00000000000E+00  0.00000000000E+00  0.74953083530E+03  0.74953083530E+03  0.00000000000E+00 0.  1.
         21   -1    0    0  502  503 -0.00000000000E+00 -0.00000000000E+00 -0.28388103958E+03  0.28388103958E+03  0.00000000000E+00 0.  1.
    9000005    1    1    2  501    0 -0.63714407638E+01 -0.21366608076E+03  0.32710363493E+03  0.55918742592E+03  0.40000000000E+03 0.  1.
   -9000005    1    1    2    0  503  0.63714407638E+01  0.21366608076E+03  0.13854616079E+03  0.47422444896E+03  0.40000000000E+03 0.  1.
<mgrwt>
<rscale>  2 0.45353477E+03</rscale>
<asrwt>0</asrwt>
<pdfrwt beam="1">  1       21 0.11531244E+00 0.45353477E+03</pdfrwt>
<pdfrwt beam="2">  1       21 0.43674006E-01 0.45353477E+03</pdfrwt>
<totfact> 0.25351774E+03</totfact>
</mgrwt>
</event>
<event>
 4    1  0.4840996E-002  0.4599817E+03  0.7818608E-02  0.1024787E+00
         21   -1    0    0  501  502  0.00000000000E+00  0.00000000000E+00  0.11056691761E+04  0.11056691761E+04  0.00000000000E+00 0.  1.
         21   -1    0    0  502  503 -0.00000000000E+00 -0.00000000000E+00 -0.44961955804E+03  0.44961955804E+03  0.00000000000E+00 0.  1.
    9000005    1    1    2  501    0 -0.20051035478E+03 -0.10667113427E+03  0.91739056913E+03  0.10262497696E+04  0.40000000000E+03 0.  1.
   -9000005    1    1    2    0  503  0.20051035478E+03  0.10667113427E+03 -0.26134095109E+03  0.52903896452E+03  0.40000000000E+03 0.  1.
<mgrwt>
<rscale>  2 0.45998167E+03</rscale>
<asrwt>0</asrwt>
<pdfrwt beam="1">  1       21 0.17010295E+00 0.45998167E+03</pdfrwt>
<pdfrwt beam="2">  1       21 0.69172240E-01 0.45998167E+03</pdfrwt>
<totfact> 0.33172458E+02</totfact>
</mgrwt>
</event>
<event>
 4    1  0.4840996E-002  0.4015563E+03  0.7818608E-02  0.1043242E+00
         21   -1    0    0  501  502  0.00000000000E+00  0.00000000000E+00  0.12777282518E+04  0.12777282518E+04  0.00000000000E+00 0. -1.
         21   -1    0    0  502  503 -0.00000000000E+00 -0.00000000000E+00 -0.20004142302E+03  0.20004142302E+03  0.00000000000E+00 0. -1.
    9000005    1    1    2  501    0 -0.25548441052E+01  0.35226771993E+02  0.98776561133E+03  0.10662684257E+04  0.40000000000E+03 0. -1.
   -9000005    1    1    2    0  503  0.25548441052E+01 -0.35226771993E+02  0.89921217459E+02  0.41150124914E+03  0.40000000000E+03 0. -1.
<mgrwt>
<rscale>  2 0.40155629E+03</rscale>
<asrwt>0</asrwt>
<pdfrwt beam="1">  1       21 0.19657357E+00 0.40155629E+03</pdfrwt>
<pdfrwt beam="2">  1       21 0.30775604E-01 0.40155629E+03</pdfrwt>
<totfact> 0.12285257E+03</totfact>
</mgrwt>
</event>
<event>
 4    1  0.4840996E-002  0.4361776E+03  0.7818608E-02  0.1031926E+00
         21   -1    0    0  501  502  0.00000000000E+00  0.00000000000E+00  0.11630246289E+04  0.11630246289E+04  0.00000000000E+00 0. -1.
         21   -1    0    0  502  503 -0.00000000000E+00 -0.00000000000E+00 -0.19744258715E+03  0.19744258715E+03  0.00000000000E+00 0. -1.
    9000005    1    1    2  501    0 -0.11751489080E+03 -0.12822293931E+03  0.76448627106E+03  0.88016483136E+03  0.40000000000E+03 0. -1.
   -9000005    1    1    2    0  503  0.11751489080E+03  0.12822293931E+03  0.20109577066E+03  0.48030238465E+03  0.40000000000E+03 0. -1.
<mgrwt>
<rscale>  2 0.43617757E+03</rscale>
<asrwt>0</asrwt>
<pdfrwt beam="1">  1       21 0.17892686E+00 0.43617757E+03</pdfrwt>
<pdfrwt beam="2">  1       21 0.30375783E-01 0.43617757E+03</pdfrwt>
<totfact> 0.16401225E+03</totfact>
</mgrwt>
</event>
<event>
 4    1  0.4840996E-002  0.4182026E+03  0.7818608E-02  0.1037653E+00
         21   -1    0    0  501  502  0.00000000000E+00  0.00000000000E+00  0.68514241329E+03  0.68514241329E+03  0.00000000000E+00 0. -1.
         21   -1    0    0  502  503 -0.00000000000E+00 -0.00000000000E+00 -0.28413068414E+03  0.28413068414E+03  0.00000000000E+00 0.  1.
    9000005    1    1    2  501    0 -0.87881535856E+02  0.84677347232E+02  0.35497513674E+03  0.54854422354E+03  0.40000000000E+03 0. -1.
   -9000005    1    1    2    0  503  0.87881535856E+02 -0.84677347232E+02  0.46036592412E+02  0.42072887388E+03  0.40000000000E+03 0.  1.
<mgrwt>
<rscale>  2 0.41820260E+03</rscale>
<asrwt>0</asrwt>
<pdfrwt beam="1">  1       21 0.10540652E+00 0.41820260E+03</pdfrwt>
<pdfrwt beam="2">  1       21 0.43712413E-01 0.41820260E+03</pdfrwt>
<totfact> 0.32041338E+03</totfact>
</mgrwt>
</event>
<event>
 4    1  0.4840996E-002  0.4023754E+03  0.7818608E-02  0.1042960E+00
         21   -1    0    0  501  502  0.00000000000E+00  0.00000000000E+00  0.14045385969E+04  0.14045385969E+04  0.00000000000E+00 0.  1.
         21   -1    0    0  502  503 -0.00000000000E+00 -0.00000000000E+00 -0.15535306973E+03  0.15535306973E+03  0.00000000000E+00 0.  1.
    9000005    1    1    2  501    0  0.31525794924E+02 -0.30200408120E+02  0.10207490814E+04  0.10971939790E+04  0.40000000000E+03 0.  1.
   -9000005    1    1    2    0  503 -0.31525794924E+02  0.30200408120E+02  0.22843644582E+03  0.46269768767E+03  0.40000000000E+03 0.  1.
<mgrwt>
<rscale>  2 0.40237537E+03</rscale>
<asrwt>0</asrwt>
<pdfrwt beam="1">  1       21 0.21608285E+00 0.40237537E+03</pdfrwt>
<pdfrwt beam="2">  1       21 0.23900473E-01 0.40237537E+03</pdfrwt>
<totfact> 0.15019573E+03</totfact>
</mgrwt>
</event>
<event>
 4    1  0.4840996E-002  0.5757046E+03  0.7818608E-02  0.9957134E-01
         21   -1    0    0  501  502  0.00000000000E+00  0.00000000000E+00  0.56513907278E+03  0.56513907278E+03  0.00000000000E+00 0. -1.
         21   -1    0    0  502  503 -0.00000000000E+00 -0.00000000000E+00 -0.59084670859E+03  0.59084670859E+03  0.00000000000E+00 0.  1.
    9000005    1    1    2  501    0 -0.33412139687E+03  0.24453776823E+03 -0.62612813283E+02  0.57909946670E+03  0.40000000000E+03 0. -1.
   -9000005    1    1    2    0  503  0.33412139687E+03 -0.24453776823E+03  0.36905177474E+02  0.57688631468E+03  0.40000000000E+03 0.  1.
<mgrwt>
<rscale>  2 0.57570464E+03</rscale>
<asrwt>0</asrwt>
<pdfrwt beam="1">  1       21 0.86944473E-01 0.57570464E+03</pdfrwt>
<pdfrwt beam="2">  1       21 0.90899493E-01 0.57570464E+03</pdfrwt>
<totfact> 0.94902499E+02</totfact>
</mgrwt>
</event>
<event>
 4    1  0.4840996E-002  0.4902575E+03  0.7818608E-02  0.1016354E+00
         21   -1    0    0  503  502  0.00000000000E+00  0.00000000000E+00  0.22684226110E+03  0.22684226110E+03  0.00000000000E+00 0. -1.
         21   -1    0    0  501  503 -0.00000000000E+00 -0.00000000000E+00 -0.19819350198E+04  0.19819350198E+04  0.00000000000E+00 0. -1.
    9000005    1    1    2  501    0 -0.45089556783E+02  0.27985592675E+03 -0.16309567461E+04  0.17030479487E+04  0.40000000000E+03 0. -1.
   -9000005    1    1    2    0  502  0.45089556783E+02 -0.27985592675E+03 -0.12413601264E+03  0.50572933225E+03  0.40000000000E+03 0. -1.
<mgrwt>
<rscale>  2 0.49025749E+03</rscale>
<asrwt>0</asrwt>
<pdfrwt beam="1">  1       21 0.34898810E-01 0.49025749E+03</pdfrwt>
<pdfrwt beam="2">  1       21 0.30491307E+00 0.49025749E+03</pdfrwt>
<totfact> 0.19326377E+02</totfact>
</mgrwt>
</event>
<event>
 4    1  0.4840996E-002  0.5167429E+03  0.7818608E-02  0.1009499E+00
         21   -1    0    0  503  502  0.00000000000E+00  0.00000000000E+00  0.46320717745E+03  0.46320717745E+03  0.00000000000E+00 0. -1.
         21   -1    0    0  501  503 -0.00000000000E+00 -0.00000000000E+00 -0.66606168173E+03  0.66606168173E+03  0.00000000000E+00 0.  1.
    9000005    1    1    2  501    0 -0.22887798712E+03  0.23374798993E+03 -0.30851448269E+03  0.60183423117E+03  0.40000000000E+03 0.  1.
   -9000005    1    1    2    0  502  0.22887798712E+03 -0.23374798993E+03  0.10565997841E+03  0.52743462801E+03  0.40000000000E+03 0. -1.
<mgrwt>
<rscale>  2 0.51674293E+03</rscale>
<asrwt>0</asrwt>
<pdfrwt beam="1">  1       21 0.71262642E-01 0.51674293E+03</pdfrwt>
<pdfrwt beam="2">  1       21 0.10247103E+00 0.51674293E+03</pdfrwt>
<totfact> 0.11475441E+03</totfact>
</mgrwt>
</event>
<event>
 4    1  0.4840996E-002  0.4351396E+03  0.7818608E-02  0.1032249E+00
         21   -1    0    0  501  502  0.00000000000E+00  0.00000000000E+00  0.14035852261E+04  0.14035852261E+04  0.00000000000E+00 0. -1.
         21   -1    0    0  502  503 -0.00000000000E+00 -0.00000000000E+00 -0.25951526145E+03  0.25951526145E+03  0.00000000000E+00 0. -1.
    9000005    1    1    2  501    0  0.13843568342E+03  0.10090584515E+03  0.11482561493E+04  0.12279408017E+04  0.40000000000E+03 0. -1.
   -9000005    1    1    2    0  503 -0.13843568342E+03 -0.10090584515E+03 -0.41861846970E+01  0.43515968583E+03  0.40000000000E+03 0. -1.
<mgrwt>
<rscale>  2 0.43513955E+03</rscale>
<asrwt>0</asrwt>
<pdfrwt beam="1">  1       21 0.21593618E+00 0.43513955E+03</pdfrwt>
<pdfrwt beam="2">  1       21 0.39925426E-01 0.43513955E+03</pdfrwt>
<totfact> 0.53266693E+02</totfact>
</mgrwt>
</event>
<event>
 4    1  0.4840996E-002  0.4314123E+03  0.7818608E-02  0.1033415E+00
         21   -1    0    0  503  502  0.00000000000E+00  0.00000000000E+00  0.75700146316E+03  0.75700146316E+03  0.00000000000E+00 0. -1.
         21   -1    0    0  501  503 -0.00000000000E+00 -0.00000000000E+00 -0.28619725300E+03  0.28619725300E+03  0.00000000000E+00 0.  1.
    9000005    1    1    2  501    0 -0.92269070429E+02  0.13267626864E+03  0.39582532406E+02  0.43322436507E+03  0.40000000000E+03 0.  1.
   -9000005    1    1    2    0  502  0.92269070429E+02 -0.13267626864E+03  0.43122167775E+03  0.60997435108E+03  0.40000000000E+03 0. -1.
<mgrwt>
<rscale>  2 0.43141230E+03</rscale>
<asrwt>0</asrwt>
<pdfrwt beam="1">  1       21 0.11646176E+00 0.43141230E+03</pdfrwt>
<pdfrwt beam="2">  1       21 0.44030347E-01 0.43141230E+03</pdfrwt>
<totfact> 0.24518303E+03</totfact>
</mgrwt>
</event>
<event>
 4    1  0.4840996E-002  0.5009280E+03  0.7818608E-02  0.1013537E+00
         21   -1    0    0  503  502  0.00000000000E+00  0.00000000000E+00  0.72812337874E+03  0.72812337874E+03  0.00000000000E+00 0. -1.
         21   -1    0    0  501  503 -0.00000000000E+00 -0.00000000000E+00 -0.47148404910E+03  0.47148404910E+03  0.00000000000E+00 0. -1.
    9000005    1    1    2  501    0  0.28483568645E+03  0.98982252716E+02 -0.18280750390E+03  0.53324238214E+03  0.40000000000E+03 0. -1.
   -9000005    1    1    2    0  502 -0.28483568645E+03 -0.98982252716E+02  0.43944683354E+03  0.66636504570E+03  0.40000000000E+03 0. -1.
<mgrwt>
<rscale>  2 0.50092799E+03</rscale>
<asrwt>0</asrwt>
<pdfrwt beam="1">  1       21 0.11201898E+00 0.50092799E+03</pdfrwt>
<pdfrwt beam="2">  1       21 0.72536007E-01 0.50092799E+03</pdfrwt>
<totfact> 0.88898195E+02</totfact>
</mgrwt>
</event>
<event>
 4    1  0.4840996E-002  0.4439596E+03  0.7818608E-02  0.1029539E+00
         21   -1    0    0  503  502  0.00000000000E+00  0.00000000000E+00  0.22846472389E+03  0.22846472389E+03  0.00000000000E+00 0. -1.
         21   -1    0    0  501  503 -0.00000000000E+00 -0.00000000000E+00 -0.13127328080E+04  0.13127328080E+04  0.00000000000E+00 0. -1.
    9000005    1    1    2  501    0 -0.12899788232E+03  0.14303746716E+03 -0.99331889521E+03  0.10880177380E+04  0.40000000000E+03 0. -1.
   -9000005    1    1    2    0  502  0.12899788232E+03 -0.14303746716E+03 -0.90949188951E+02  0.45317979393E+03  0.40000000000E+03 0. -1.
<mgrwt>
<rscale>  2 0.44395965E+03</rscale>
<asrwt>0</asrwt>
<pdfrwt beam="1">  1       21 0.35148419E-01 0.44395965E+03</pdfrwt>
<pdfrwt beam="2">  1       21 0.20195889E+00 0.44395965E+03</pdfrwt>
<totfact> 0.84869206E+02</totfact>
</mgrwt>
</event>
<event>
 4    1  0.4840996E-002  0.4671348E+03  0.7818608E-02  0.1022732E+00
         21   -1    0    0  503  502  0.00000000000E+00  0.00000000000E+00  0.77253005580E+03  0.77253005580E+03  0.00000000000E+00 0.  1.
         21   -1    0    0  501  503 -0.00000000000E+00 -0.00000000000E+00 -0.36303765977E+03  0.36303765977E+03  0.00000000000E+00 0.  1.
    9000005    1    1    2  501    0  0.72963709013E+02 -0.22998100762E+03 -0.62734933628E+02  0.47132858877E+03  0.40000000000E+03 0.  1.
   -9000005    1    1    2    0  502 -0.72963709013E+02  0.22998100762E+03  0.47222732965E+03  0.66423912680E+03  0.40000000000E+03 0.  1.
<mgrwt>
<rscale>  2 0.46713485E+03</rscale>
<asrwt>0</asrwt>
<pdfrwt beam="1">  1       21 0.11885078E+00 0.46713485E+03</pdfrwt>
<pdfrwt beam="2">  1       21 0.55851948E-01 0.46713485E+03</pdfrwt>
<totfact> 0.13861155E+03</totfact>
</mgrwt>
</event>
<event>
 4    1  0.4840996E-002  0.4947038E+03  0.7818608E-02  0.1015171E+00
         21   -1    0    0  501  502  0.00000000000E+00  0.00000000000E+00  0.21851854172E+03  0.21851854172E+03  0.00000000000E+00 0. -1.
         21   -1    0    0  502  503 -0.00000000000E+00 -0.00000000000E+00 -0.14169540668E+04  0.14169540668E+04  0.00000000000E+00 0.  1.
    9000005    1    1    2  501    0 -0.16577366046E+03  0.23927169889E+03 -0.22484015846E+03  0.54340127829E+03  0.40000000000E+03 0. -1.
   -9000005    1    1    2    0  503  0.16577366046E+03 -0.23927169889E+03 -0.97359536661E+03  0.10920713302E+04  0.40000000000E+03 0.  1.
<mgrwt>
<rscale>  2 0.49470380E+03</rscale>
<asrwt>0</asrwt>
<pdfrwt beam="1">  1       21 0.33618237E-01 0.49470380E+03</pdfrwt>
<pdfrwt beam="2">  1       21 0.21799293E+00 0.49470380E+03</pdfrwt>
<totfact> 0.71263873E+02</totfact>
</mgrwt>
</event>
<event>
 4    1  0.4840996E-002  0.7197008E+03  0.7818608E-02  0.9684122E-01
         21   -1    0    0  501  502  0.00000000000E+00  0.00000000000E+00  0.53489901385E+03  0.53489901385E+03  0.00000000000E+00 0. -1.
         21   -1    0    0  502  503 -0.00000000000E+00 -0.00000000000E+00 -0.12435068481E+04  0.12435068481E+04  0.00000000000E+00 0. -1.
    9000005    1    1    2  501    0  0.54767265894E+03 -0.24088136662E+03 -0.77258418711E+03  0.10558671793E+04  0.40000000000E+03 0. -1.
   -9000005    1    1    2    0  503 -0.54767265894E+03  0.24088136662E+03  0.63976352897E+02  0.72253868261E+03  0.40000000000E+03 0. -1.
<mgrwt>
<rscale>  2 0.71970075E+03</rscale>
<asrwt>0</asrwt>
<pdfrwt beam="1">  1       21 0.82292156E-01 0.71970075E+03</pdfrwt>
<pdfrwt beam="2">  1       21 0.19130875E+00 0.71970075E+03</pdfrwt>
<totfact> 0.14199295E+02</totfact>
</mgrwt>
</event>
<event>
 4    1  0.4840996E-002  0.4057830E+03  0.7818608E-02  0.1041795E+00
         21   -1    0    0  503  502  0.00000000000E+00  0.00000000000E+00  0.14428943923E+03  0.14428943923E+03  0.00000000000E+00 0. -1.
         21   -1    0    0  501  503 -0.00000000000E+00 -0.00000000000E+00 -0.15815674040E+04  0.15815674040E+04  0.00000000000E+00 0. -1.
    9000005    1    1    2  501    0 -0.62512673952E+02 -0.27423113952E+02 -0.11739934452E+04  0.12421434985E+04  0.40000000000E+03 0. -1.
   -9000005    1    1    2    0  502  0.62512673952E+02  0.27423113952E+02 -0.26328451955E+03  0.48371334468E+03  0.40000000000E+03 0. -1.
<mgrwt>
<rscale>  2 0.40578302E+03</rscale>
<asrwt>0</asrwt>
<pdfrwt beam="1">  1       21 0.22198375E-01 0.40578302E+03</pdfrwt>
<pdfrwt beam="2">  1       21 0.24331806E+00 0.40578302E+03</pdfrwt>
<totfact> 0.11664504E+03</totfact>
</mgrwt>
</event>
<event>
 4    1  0.4840996E-002  0.4731094E+03  0.7818608E-02  0.1021046E+00
         21   -1    0    0  501  502  0.00000000000E+00  0.00000000000E+00  0.27753633440E+04  0.27753633440E+04  0.00000000000E+00 0.  1.
         21   -1    0    0  502  503 -0.00000000000E+00 -0.00000000000E+00 -0.20198074885E+03  0.20198074885E+03  0.00000000000E+00 0.  1.
    9000005    1    1    2  501    0  0.24221735805E+02 -0.25148718030E+03  0.24404894633E+04  0.24859246398E+04  0.40000000000E+03 0.  1.
   -9000005    1    1    2    0  503 -0.24221735805E+02  0.25148718030E+03  0.13289313187E+03  0.49141945305E+03  0.40000000000E+03 0.  1.
<mgrwt>
<rscale>  2 0.47310939E+03</rscale>
<asrwt>0</asrwt>
<pdfrwt beam="1">  1       21 0.42697895E+00 0.47310939E+03</pdfrwt>
<pdfrwt beam="2">  1       21 0.31073963E-01 0.47310939E+03</pdfrwt>
<totfact> 0.42487891E+01</totfact>
</mgrwt>
</event>
<event>
 4    1  0.4840996E-002  0.4231690E+03  0.7818608E-02  0.1036040E+00
         21   -1    0    0  501  502  0.00000000000E+00  0.00000000000E+00  0.56145887051E+03  0.56145887051E+03  0.00000000000E+00 0. -1.
         21   -1    0    0  502  503 -0.00000000000E+00 -0.00000000000E+00 -0.54133470402E+03  0.54133470402E+03  0.00000000000E+00 0. -1.
    9000005    1    1    2  501    0 -0.46974398273E+02  0.12986699074E+03  0.36348355450E+03  0.55784614704E+03  0.40000000000E+03 0. -1.
   -9000005    1    1    2    0  503  0.46974398273E+02 -0.12986699074E+03 -0.34335938802E+03  0.54494742748E+03  0.40000000000E+03 0. -1.
<mgrwt>
<rscale>  2 0.42316903E+03</rscale>
<asrwt>0</asrwt>
<pdfrwt beam="1">  1       21 0.86378289E-01 0.42316903E+03</pdfrwt>
<pdfrwt beam="2">  1       21 0.83282261E-01 0.42316903E+03</pdfrwt>
<totfact> 0.12527326E+03</totfact>
</mgrwt>
</event>
<event>
 4    1  0.4840996E-002  0.4150011E+03  0.7818608E-02  0.1038706E+00
         21   -1    0    0  501  502  0.00000000000E+00  0.00000000000E+00  0.27319827289E+03  0.27319827289E+03  0.00000000000E+00 0.  1.
         21   -1    0    0  502  503 -0.00000000000E+00 -0.00000000000E+00 -0.74732988982E+03  0.74732988982E+03  0.00000000000E+00 0.  1.
    9000005    1    1    2  501    0 -0.52605162855E+02  0.97255431957E+02 -0.43889771648E+03  0.60403404518E+03  0.40000000000E+03 0.  1.
   -9000005    1    1    2    0  503  0.52605162855E+02 -0.97255431957E+02 -0.35233900449E+02  0.41649411754E+03  0.40000000000E+03 0.  1.
<mgrwt>
<rscale>  2 0.41500111E+03</rscale>
<asrwt>0</asrwt>
<pdfrwt beam="1">  1       21 0.42030504E-01 0.41500111E+03</pdfrwt>
<pdfrwt beam="2">  1       21 0.11497383E+00 0.41500111E+03</pdfrwt>
<totfact> 0.28067229E+03</totfact>
</mgrwt>
</event>
<event>
 4    1  0.4840996E-002  0.4060107E+03  0.7818608E-02  0.1041718E+00
         21   -1    0    0  501  502  0.00000000000E+00  0.00000000000E+00  0.62611182134E+02  0.62611182134E+02  0.00000000000E+00 0.  1.
         21   -1    0    0  502  503 -0.00000000000E+00 -0.00000000000E+00 -0.27484550808E+04  0.27484550808E+04  0.00000000000E+00 0.  1.
    9000005    1    1    2  501    0  0.28488391776E+02 -0.63506860536E+02 -0.10546386682E+04  0.11300917796E+04  0.40000000000E+03 0.  1.
   -9000005    1    1    2    0  503 -0.28488391776E+02  0.63506860536E+02 -0.16312052305E+04  0.16809744834E+04  0.40000000000E+03 0.  1.
<mgrwt>
<rscale>  2 0.40601073E+03</rscale>
<asrwt>0</asrwt>
<pdfrwt beam="1">  1       21 0.96324941E-02 0.40601073E+03</pdfrwt>
<pdfrwt beam="2">  1       21 0.42283904E+00 0.40601073E+03</pdfrwt>
<totfact> 0.43031926E+02</totfact>
</mgrwt>
</event>
<event>
 4    1  0.4840996E-002  0.4720836E+03  0.7818608E-02  0.1021334E+00
         21   -1    0    0  501  502  0.00000000000E+00  0.00000000000E+00  0.84441342102E+03  0.84441342102E+03  0.00000000000E+00 0. -1.
         21   -1    0    0  502  503 -0.00000000000E+00 -0.00000000000E+00 -0.26521286891E+03  0.26521286891E+03  0.00000000000E+00 0. -1.
    9000005    1    1    2  501    0 -0.10799598343E+03  0.22627374950E+03  0.25095828270E+03  0.53464287315E+03  0.40000000000E+03 0. -1.
   -9000005    1    1    2    0  503  0.10799598343E+03 -0.22627374950E+03  0.32824226941E+03  0.57498341678E+03  0.40000000000E+03 0. -1.
<mgrwt>
<rscale>  2 0.47208362E+03</rscale>
<asrwt>0</asrwt>
<pdfrwt beam="1">  1       21 0.12990976E+00 0.47208362E+03</pdfrwt>
<pdfrwt beam="2">  1       21 0.40801980E-01 0.47208362E+03</pdfrwt>
<totfact> 0.21384163E+03</totfact>
</mgrwt>
</event>
<event>
 4    1  0.4840996E-002  0.6041382E+03  0.7818608E-02  0.9896858E-01
         21   -1    0    0  503  502  0.00000000000E+00  0.00000000000E+00  0.62497778867E+03  0.62497778867E+03  0.00000000000E+00 0. -1.
         21   -1    0    0  501  503 -0.00000000000E+00 -0.00000000000E+00 -0.73271195737E+03  0.73271195737E+03  0.00000000000E+00 0.  1.
    9000005    1    1    2  501    0 -0.38683996098E+03 -0.23523998231E+03 -0.35970142524E+03  0.70311316301E+03  0.40000000000E+03 0.  1.
   -9000005    1    1    2    0  502  0.38683996098E+03  0.23523998231E+03  0.25196725654E+03  0.65457658303E+03  0.40000000000E+03 0. -1.
<mgrwt>
<rscale>  2 0.60413823E+03</rscale>
<asrwt>0</asrwt>
<pdfrwt beam="1">  1       21 0.96150429E-01 0.60413823E+03</pdfrwt>
<pdfrwt beam="2">  1       21 0.11272492E+00 0.60413823E+03</pdfrwt>
<totfact> 0.43585829E+02</totfact>
</mgrwt>
</event>
<event>
 4    1  0.4840996E-002  0.4478881E+03  0.7818608E-02  0.1028354E+00
         21   -1    0    0  503  502  0.00000000000E+00  0.00000000000E+00  0.97361057691E+03  0.97361057691E+03  0.00000000000E+00 0. -1.
         21   -1    0    0  501  503 -0.00000000000E+00 -0.00000000000E+00 -0.42674478838E+03  0.42674478838E+03  0.00000000000E+00 0. -1.
    9000005    1    1    2  501    0 -0.50807088119E+01  0.20143974757E+03 -0.23010128517E+03  0.50353787041E+03  0.40000000000E+03 0. -1.
   -9000005    1    1    2    0  502  0.50807088119E+01 -0.20143974757E+03  0.77696707370E+03  0.89681749488E+03  0.40000000000E+03 0. -1.
<mgrwt>
<rscale>  2 0.44788814E+03</rscale>
<asrwt>0</asrwt>
<pdfrwt beam="1">  1       21 0.14978624E+00 0.44788814E+03</pdfrwt>
<pdfrwt beam="2">  1       21 0.65653045E-01 0.44788814E+03</pdfrwt>
<totfact> 0.53417705E+02</totfact>
</mgrwt>
</event>
<event>
 4    1  0.4840996E-002  0.5512737E+03  0.7818608E-02  0.1001200E+00
         21   -1    0    0  503  502  0.00000000000E+00  0.00000000000E+00  0.22694047963E+03  0.22694047963E+03  0.00000000000E+00 0.  1.
         21   -1    0    0  501  503 -0.00000000000E+00 -0.00000000000E+00 -0.14820833746E+04  0.14820833746E+04  0.00000000000E+00 0. -1.
    9000005    1    1    2  501    0  0.64319159219E+02 -0.37385258659E+03 -0.89295844721E+03  0.10494176953E+04  0.40000000000E+03 0.  1.
   -9000005    1    1    2    0  502 -0.64319159219E+02  0.37385258659E+03 -0.36218444780E+03  0.65960615899E+03  0.40000000000E+03 0.  1.
<mgrwt>
<rscale>  2 0.55127372E+03</rscale>
<asrwt>0</asrwt>
<pdfrwt beam="1">  1       21 0.34913920E-01 0.55127372E+03</pdfrwt>
<pdfrwt beam="2">  1       21 0.22801283E+00 0.55127372E+03</pdfrwt>
<totfact> 0.55612747E+02</totfact>
</mgrwt>
</event>
<event>
 4    1  0.4840996E-002  0.4001843E+03  0.7818608E-02  0.1043716E+00
         21   -1    0    0  503  502  0.00000000000E+00  0.00000000000E+00  0.23787302467E+04  0.23787302467E+04  0.00000000000E+00 0. -1.
         21   -1    0    0  501  503 -0.00000000000E+00 -0.00000000000E+00 -0.69953260782E+02  0.69953260782E+02  0.00000000000E+00 0. -1.
    9000005    1    1    2  501    0  0.82609907593E+01  0.88994680833E+01  0.91705847029E+03  0.10005716778E+04  0.40000000000E+03 0.  1.
   -9000005    1    1    2    0  502 -0.82609907593E+01 -0.88994680833E+01  0.13917185156E+04  0.14481118297E+04  0.40000000000E+03 0.  1.
<mgrwt>
<rscale>  2 0.40018426E+03</rscale>
<asrwt>0</asrwt>
<pdfrwt beam="1">  1       21 0.36595844E+00 0.40018426E+03</pdfrwt>
<pdfrwt beam="2">  1       21 0.10762042E-01 0.40018426E+03</pdfrwt>
<totfact> 0.81447326E+02</totfact>
</mgrwt>
</event>
<event>
 4    1  0.4840996E-002  0.4310648E+03  0.7818608E-02  0.1033524E+00
         21   -1    0    0  503  502  0.00000000000E+00  0.00000000000E+00  0.61610277965E+03  0.61610277965E+03  0.00000000000E+00 0.  1.
         21   -1    0    0  501  503 -0.00000000000E+00 -0.00000000000E+00 -0.30184678803E+03  0.30184678803E+03  0.00000000000E+00 0.  1.
    9000005    1    1    2  501    0 -0.14584248115E+03 -0.67430319320E+02  0.17023969186E+03  0.46346351524E+03  0.40000000000E+03 0.  1.
   -9000005    1    1    2    0  502  0.14584248115E+03  0.67430319320E+02  0.14401629975E+03  0.45448605244E+03  0.40000000000E+03 0.  1.
<mgrwt>
<rscale>  2 0.43106482E+03</rscale>
<asrwt>0</asrwt>
<pdfrwt beam="1">  1       21 0.94785043E-01 0.43106482E+03</pdfrwt>
<pdfrwt beam="2">  1       21 0.46437968E-01 0.43106482E+03</pdfrwt>
<totfact> 0.36357031E+03</totfact>
</mgrwt>
</event>
<event>
 4    1  0.4840996E-002  0.4128441E+03  0.7818608E-02  0.1039421E+00
         21   -1    0    0  501  502  0.00000000000E+00  0.00000000000E+00  0.21817099954E+04  0.21817099954E+04  0.00000000000E+00 0. -1.
         21   -1    0    0  502  503 -0.00000000000E+00 -0.00000000000E+00 -0.79821174917E+02  0.79821174917E+02  0.00000000000E+00 0. -1.
    9000005    1    1    2  501    0  0.31485227660E+02 -0.97205720735E+02  0.12159087935E+04  0.12840850695E+04  0.40000000000E+03 0.  1.
   -9000005    1    1    2    0  503 -0.31485227660E+02  0.97205720735E+02  0.88598002694E+03  0.97744610073E+03  0.40000000000E+03 0.  1.
<mgrwt>
<rscale>  2 0.41284413E+03</rscale>
<asrwt>0</asrwt>
<pdfrwt beam="1">  1       21 0.33564765E+00 0.41284413E+03</pdfrwt>
<pdfrwt beam="2">  1       21 0.12280182E-01 0.41284413E+03</pdfrwt>
<totfact> 0.97447360E+02</totfact>
</mgrwt>
</event>
<event>
 4    1  0.4840996E-002  0.4329037E+03  0.7818608E-02  0.1032947E+00
         21   -1    0    0  501  502  0.00000000000E+00  0.00000000000E+00  0.14447127551E+03  0.14447127551E+03  0.00000000000E+00 0.  1.
         21   -1    0    0  502  503 -0.00000000000E+00 -0.00000000000E+00 -0.13505094476E+04  0.13505094476E+04  0.00000000000E+00 0.  1.
    9000005    1    1    2  501    0  0.13861534499E+03  0.90506507516E+02 -0.75155424354E+03  0.86731737141E+03  0.40000000000E+03 0.  1.
   -9000005    1    1    2    0  503 -0.13861534499E+03 -0.90506507516E+02 -0.45448392860E+03  0.62766335174E+03  0.40000000000E+03 0.  1.
<mgrwt>
<rscale>  2 0.43290373E+03</rscale>
<asrwt>0</asrwt>
<pdfrwt beam="1">  1       21 0.22226349E-01 0.43290373E+03</pdfrwt>
<pdfrwt beam="2">  1       21 0.20777069E+00 0.43290373E+03</pdfrwt>
<totfact> 0.19271067E+03</totfact>
</mgrwt>
</event>
<event>
 4    1  0.4840996E-002  0.4145923E+03  0.7818608E-02  0.1038841E+00
         21   -1    0    0  503  502  0.00000000000E+00  0.00000000000E+00  0.48900541708E+03  0.48900541708E+03  0.00000000000E+00 0. -1.
         21   -1    0    0  501  503 -0.00000000000E+00 -0.00000000000E+00 -0.35871124858E+03  0.35871124858E+03  0.00000000000E+00 0. -1.
    9000005    1    1    2  501    0  0.62163799879E+02 -0.89568279414E+02  0.50620128893E+01  0.41462324907E+03  0.40000000000E+03 0. -1.
   -9000005    1    1    2    0  502 -0.62163799879E+02  0.89568279414E+02  0.12523215561E+03  0.43309341659E+03  0.40000000000E+03 0. -1.
<mgrwt>
<rscale>  2 0.41459235E+03</rscale>
<asrwt>0</asrwt>
<pdfrwt beam="1">  1       21 0.75231602E-01 0.41459235E+03</pdfrwt>
<pdfrwt beam="2">  1       21 0.55186346E-01 0.41459235E+03</pdfrwt>
<totfact> 0.43429462E+03</totfact>
</mgrwt>
</event>
<event>
 4    1  0.4840996E-002  0.4440006E+03  0.7818608E-02  0.1029526E+00
         21   -1    0    0  503  502  0.00000000000E+00  0.00000000000E+00  0.11064151679E+04  0.11064151679E+04  0.00000000000E+00 0.  1.
         21   -1    0    0  501  503 -0.00000000000E+00 -0.00000000000E+00 -0.33090693450E+03  0.33090693450E+03  0.00000000000E+00 0. -1.
    9000005    1    1    2  501    0 -0.19820467357E+02  0.19168634314E+03 -0.10048754817E+03  0.45522988963E+03  0.40000000000E+03 0. -1.
   -9000005    1    1    2    0  502  0.19820467357E+02 -0.19168634314E+03  0.87599578162E+03  0.98209221282E+03  0.40000000000E+03 0.  1.
<mgrwt>
<rscale>  2 0.44400057E+03</rscale>
<asrwt>0</asrwt>
<pdfrwt beam="1">  1       21 0.17021772E+00 0.44400057E+03</pdfrwt>
<pdfrwt beam="2">  1       21 0.50908760E-01 0.44400057E+03</pdfrwt>
<totfact> 0.65252195E+02</totfact>
</mgrwt>
</event>
<event>
 4    1  0.4840996E-002  0.4568342E+03  0.7818608E-02  0.1025703E+00
         21   -1    0    0  501  502  0.00000000000E+00  0.00000000000E+00  0.53764694194E+03  0.53764694194E+03  0.00000000000E+00 0. -1.
         21   -1    0    0  502  503 -0.00000000000E+00 -0.00000000000E+00 -0.72578925698E+03  0.72578925698E+03  0.00000000000E+00 0. -1.
    9000005    1    1    2  501    0  0.17442231324E+03  0.13518270071E+03  0.33678543541E+03  0.56755786968E+03  0.40000000000E+03 0. -1.
   -9000005    1    1    2    0  503 -0.17442231324E+03 -0.13518270071E+03 -0.52492775045E+03  0.69587832925E+03  0.40000000000E+03 0. -1.
<mgrwt>
<rscale>  2 0.45683422E+03</rscale>
<asrwt>0</asrwt>
<pdfrwt beam="1">  1       21 0.82714914E-01 0.45683422E+03</pdfrwt>
<pdfrwt beam="2">  1       21 0.11165989E+00 0.45683422E+03</pdfrwt>
<totfact> 0.67449311E+02</totfact>
</mgrwt>
</event>
<event>
 4    1  0.4840996E-002  0.4126707E+03  0.7818608E-02  0.1039478E+00
         21   -1    0    0  503  502  0.00000000000E+00  0.00000000000E+00  0.13288130256E+04  0.13288130256E+04  0.00000000000E+00 0. -1.
         21   -1    0    0  501  503 -0.00000000000E+00 -0.00000000000E+00 -0.13110618458E+03  0.13110618458E+03  0.00000000000E+00 0. -1.
    9000005    1    1    2  501    0  0.10122585701E+03 -0.71025738066E+01  0.48937855989E+03  0.64014724522E+03  0.40000000000E+03 0. -1.
   -9000005    1    1    2    0  502 -0.10122585701E+03  0.71025738066E+01  0.70832828116E+03  0.81977196498E+03  0.40000000000E+03 0. -1.
<mgrwt>
<rscale>  2 0.41267072E+03</rscale>
<asrwt>0</asrwt>
<pdfrwt beam="1">  1       21 0.20443276E+00 0.41267072E+03</pdfrwt>
<pdfrwt beam="2">  1       21 0.20170183E-01 0.41267072E+03</pdfrwt>
<totfact> 0.24622816E+03</totfact>
</mgrwt>
</event>
<event>
 4    1  0.4840996E-002  0.4285194E+03  0.7818608E-02  0.1034329E+00
         21   -1    0    0  501  502  0.00000000000E+00  0.00000000000E+00  0.33555837718E+03  0.33555837718E+03  0.00000000000E+00 0.  1.
         21   -1    0    0  502  503 -0.00000000000E+00 -0.00000000000E+00 -0.55349568727E+03  0.55349568727E+03  0.00000000000E+00 0.  1.
    9000005    1    1    2  501    0 -0.15332057602E+03  0.11031665170E+02 -0.61687011836E+02  0.43293669756E+03  0.40000000000E+03 0. -1.
   -9000005    1    1    2    0  503  0.15332057602E+03 -0.11031665170E+02 -0.15625029826E+03  0.45611736689E+03  0.40000000000E+03 0. -1.
<mgrwt>
<rscale>  2 0.42851942E+03</rscale>
<asrwt>0</asrwt>
<pdfrwt beam="1">  1       21 0.51624366E-01 0.42851942E+03</pdfrwt>
<pdfrwt beam="2">  1       21 0.85153182E-01 0.42851942E+03</pdfrwt>
<totfact> 0.37466164E+03</totfact>
</mgrwt>
</event>
<event>
 4    1  0.4840996E-002  0.4041576E+03  0.7818608E-02  0.1042349E+00
         21   -1    0    0  501  502  0.00000000000E+00  0.00000000000E+00  0.13594193311E+04  0.13594193311E+04  0.00000000000E+00 0. -1.
         21   -1    0    0  502  503 -0.00000000000E+00 -0.00000000000E+00 -0.21644676906E+03  0.21644676906E+03  0.00000000000E+00 0. -1.
    9000005    1    1    2  501    0  0.40952726108E+02  0.40819586571E+02  0.10970247041E+04  0.11691050277E+04  0.40000000000E+03 0. -1.
   -9000005    1    1    2    0  503 -0.40952726108E+02 -0.40819586571E+02  0.45947857969E+02  0.40676107247E+03  0.40000000000E+03 0. -1.
<mgrwt>
<rscale>  2 0.40415760E+03</rscale>
<asrwt>0</asrwt>
<pdfrwt beam="1">  1       21 0.20914143E+00 0.40415760E+03</pdfrwt>
<pdfrwt beam="2">  1       21 0.33299504E-01 0.40415760E+03</pdfrwt>
<totfact> 0.86605318E+02</totfact>
</mgrwt>
</event>
<event>
 4    1  0.4840996E-002  0.5453494E+03  0.7818608E-02  0.1002576E+00
         21   -1    0    0  501  502  0.00000000000E+00  0.00000000000E+00  0.40653893383E+03  0.40653893383E+03  0.00000000000E+00 0. -1.
         21   -1    0    0  502  503 -0.00000000000E+00 -0.00000000000E+00 -0.14235194217E+04  0.14235194217E+04  0.00000000000E+00 0. -1.
    9000005    1    1    2  501    0 -0.36234850235E+03 -0.78163441745E+02  0.12947179962E+03  0.56050772312E+03  0.40000000000E+03 0. -1.
   -9000005    1    1    2    0  503  0.36234850235E+03  0.78163441745E+02 -0.11464522875E+04  0.12695506324E+04  0.40000000000E+03 0. -1.
<mgrwt>
<rscale>  2 0.54534939E+03</rscale>
<asrwt>0</asrwt>
<pdfrwt beam="1">  1       21 0.62544451E-01 0.54534939E+03</pdfrwt>
<pdfrwt beam="2">  1       21 0.21900299E+00 0.54534939E+03</pdfrwt>
<totfact> 0.18526395E+02</totfact>
</mgrwt>
</event>
<event>
 4    1  0.4840996E-002  0.4010178E+03  0.7818608E-02  0.1043428E+00
         21   -1    0    0  503  502  0.00000000000E+00  0.00000000000E+00  0.23382869009E+03  0.23382869009E+03  0.00000000000E+00 0. -1.
         21   -1    0    0  501  503 -0.00000000000E+00 -0.00000000000E+00 -0.94561051543E+03  0.94561051543E+03  0.00000000000E+00 0. -1.
    9000005    1    1    2  501    0 -0.26766825216E+02 -0.99409841693E+01 -0.66384308032E+03  0.77556619407E+03  0.40000000000E+03 0. -1.
   -9000005    1    1    2    0  502  0.26766825216E+02  0.99409841693E+01 -0.47938745024E+02  0.40387301144E+03  0.40000000000E+03 0. -1.
<mgrwt>
<rscale>  2 0.40101781E+03</rscale>
<asrwt>0</asrwt>
<pdfrwt beam="1">  1       21 0.35973644E-01 0.40101781E+03</pdfrwt>
<pdfrwt beam="2">  1       21 0.14547854E+00 0.40101781E+03</pdfrwt>
<totfact> 0.21119972E+03</totfact>
</mgrwt>
</event>
<event>
 4    1  0.4840996E-002  0.4192599E+03  0.7818608E-02  0.1037307E+00
         21   -1    0    0  501  502  0.00000000000E+00  0.00000000000E+00  0.17427354132E+03  0.17427354132E+03  0.00000000000E+00 0. -1.
         21   -1    0    0  502  503 -0.00000000000E+00 -0.00000000000E+00 -0.10791895688E+04  0.10791895688E+04  0.00000000000E+00 0. -1.
    9000005    1    1    2  501    0 -0.11218957648E+03 -0.56500763510E+02 -0.61270409645E+03  0.74241844478E+03  0.40000000000E+03 0. -1.
   -9000005    1    1    2    0  503  0.11218957648E+03  0.56500763510E+02 -0.29221193108E+03  0.51104466538E+03  0.40000000000E+03 0. -1.
<mgrwt>
<rscale>  2 0.41925987E+03</rscale>
<asrwt>0</asrwt>
<pdfrwt beam="1">  1       21 0.26811313E-01 0.41925987E+03</pdfrwt>
<pdfrwt beam="2">  1       21 0.16602917E+00 0.41925987E+03</pdfrwt>
<totfact> 0.26179147E+03</totfact>
</mgrwt>
</event>
<event>
 4    1  0.4840996E-002  0.4274551E+03  0.7818608E-02  0.1034667E+00
         21   -1    0    0  501  502  0.00000000000E+00  0.00000000000E+00  0.13961968329E+04  0.13961968329E+04  0.00000000000E+00 0. -1.
         21   -1    0    0  502  503 -0.00000000000E+00 -0.00000000000E+00 -0.17310873804E+03  0.17310873804E+03  0.00000000000E+00 0.  1.
    9000005    1    1    2  501    0 -0.18340161704E+02  0.14960457886E+03  0.99914272394E+03  0.10867401135E+04  0.40000000000E+03 0. -1.
   -9000005    1    1    2    0  503  0.18340161704E+02 -0.14960457886E+03  0.22394537094E+03  0.48256545744E+03  0.40000000000E+03 0.  1.
<mgrwt>
<rscale>  2 0.42745513E+03</rscale>
<asrwt>0</asrwt>
<pdfrwt beam="1">  1       21 0.21479951E+00 0.42745513E+03</pdfrwt>
<pdfrwt beam="2">  1       21 0.26632114E-01 0.42745513E+03</pdfrwt>
<totfact> 0.12249396E+03</totfact>
</mgrwt>
</event>
<event>
 4    1  0.4840996E-002  0.4991804E+03  0.7818608E-02  0.1013993E+00
         21   -1    0    0  503  502  0.00000000000E+00  0.00000000000E+00  0.67372573365E+03  0.67372573365E+03  0.00000000000E+00 0. -1.
         21   -1    0    0  501  503 -0.00000000000E+00 -0.00000000000E+00 -0.63378040867E+03  0.63378040867E+03  0.00000000000E+00 0. -1.
    9000005    1    1    2  501    0 -0.12216292026E+03  0.27250182570E+03 -0.40190322402E+03  0.64086443619E+03  0.40000000000E+03 0. -1.
   -9000005    1    1    2    0  502  0.12216292026E+03 -0.27250182570E+03  0.44184854900E+03  0.66664170612E+03  0.40000000000E+03 0. -1.
<mgrwt>
<rscale>  2 0.49918035E+03</rscale>
<asrwt>0</asrwt>
<pdfrwt beam="1">  1       21 0.10365011E+00 0.49918035E+03</pdfrwt>
<pdfrwt beam="2">  1       21 0.97504678E-01 0.49918035E+03</pdfrwt>
<totfact> 0.53941538E+02</totfact>
</mgrwt>
</event>
<event>
 4    1  0.4840996E-002  0.4596705E+03  0.7818608E-02  0.1024877E+00
         21   -1    0    0  503  502  0.00000000000E+00  0.00000000000E+00  0.78580816345E+03  0.78580816345E+03  0.00000000000E+00 0.  1.
         21   -1    0    0  501  503 -0.00000000000E+00 -0.00000000000E+00 -0.43152609059E+03  0.43152609059E+03  0.00000000000E+00 0.  1.
    9000005    1    1    2  501    0  0.21680916884E+03 -0.65504159224E+02 -0.19652445390E+03  0.49991886497E+03  0.40000000000E+03 0.  1.
   -9000005    1    1    2    0  502 -0.21680916884E+03  0.65504159224E+02  0.55080652675E+03  0.71741538908E+03  0.40000000000E+03 0.  1.
<mgrwt>
<rscale>  2 0.45967055E+03</rscale>
<asrwt>0</asrwt>
<pdfrwt beam="1">  1       21 0.12089356E+00 0.45967055E+03</pdfrwt>
<pdfrwt beam="2">  1       21 0.66388629E-01 0.45967055E+03</pdfrwt>
<totfact> 0.91033482E+02</totfact>
</mgrwt>
</event>
<event>
 4    1  0.4840996E-002  0.6917467E+03  0.7818608E-02  0.9731451E-01
         21   -1    0    0  503  502  0.00000000000E+00  0.00000000000E+00  0.12121210275E+04  0.12121210275E+04  0.00000000000E+00 0. -1.
         21   -1    0    0  501  503 -0.00000000000E+00 -0.00000000000E+00 -0.44065335022E+03  0.44065335022E+03  0.00000000000E+00 0.  1.
    9000005    1    1    2  501    0  0.44510236409E+03  0.34698332656E+03  0.11908178763E+03  0.70192165914E+03  0.40000000000E+03 0.  1.
   -9000005    1    1    2    0  502 -0.44510236409E+03 -0.34698332656E+03  0.65238588967E+03  0.95085271860E+03  0.40000000000E+03 0. -1.
<mgrwt>
<rscale>  2 0.69174673E+03</rscale>
<asrwt>0</asrwt>
<pdfrwt beam="1">  1       21 0.18648016E+00 0.69174673E+03</pdfrwt>
<pdfrwt beam="2">  1       21 0.67792823E-01 0.69174673E+03</pdfrwt>
<totfact> 0.24202752E+02</totfact>
</mgrwt>
</event>
<event>
 4    1  0.4840996E-002  0.6900530E+03  0.7818608E-02  0.9734396E-01
         21   -1    0    0  501  502  0.00000000000E+00  0.00000000000E+00  0.13413547761E+04  0.13413547761E+04  0.00000000000E+00 0.  1.
         21   -1    0    0  502  503 -0.00000000000E+00 -0.00000000000E+00 -0.35520670617E+03  0.35520670617E+03  0.00000000000E+00 0. -1.
    9000005    1    1    2  501    0 -0.24961339207E+03 -0.50385152221E+03  0.47232694639E+03  0.83622123043E+03  0.40000000000E+03 0.  1.
   -9000005    1    1    2    0  503  0.24961339207E+03  0.50385152221E+03  0.51382112354E+03  0.86034025184E+03  0.40000000000E+03 0. -1.
<mgrwt>
<rscale>  2 0.69005304E+03</rscale>
<asrwt>0</asrwt>
<pdfrwt beam="1">  1       21 0.20636227E+00 0.69005304E+03</pdfrwt>
<pdfrwt beam="2">  1       21 0.54647186E-01 0.69005304E+03</pdfrwt>
<totfact> 0.28549284E+02</totfact>
</mgrwt>
</event>
<event>
 4    1  0.4840996E-002  0.4436357E+03  0.7818608E-02  0.1029637E+00
         21   -1    0    0  503  502  0.00000000000E+00  0.00000000000E+00  0.15589415965E+04  0.15589415965E+04  0.00000000000E+00 0.  1.
         21   -1    0    0  501  503 -0.00000000000E+00 -0.00000000000E+00 -0.24241213197E+03  0.24241213197E+03  0.00000000000E+00 0.  1.
    9000005    1    1    2  501    0  0.62545272904E+02  0.18138557462E+03  0.34776010787E+02  0.44499663905E+03  0.40000000000E+03 0.  1.
   -9000005    1    1    2    0  502 -0.62545272904E+02 -0.18138557462E+03  0.12817534537E+04  0.13563570894E+04  0.40000000000E+03 0.  1.
<mgrwt>
<rscale>  2 0.44363570E+03</rscale>
<asrwt>0</asrwt>
<pdfrwt beam="1">  1       21 0.23983716E+00 0.44363570E+03</pdfrwt>
<pdfrwt beam="2">  1       21 0.37294175E-01 0.44363570E+03</pdfrwt>
<totfact> 0.43086519E+02</totfact>
</mgrwt>
</event>
<event>
 4    1  0.4840996E-002  0.6230488E+03  0.7818608E-02  0.9858708E-01
         21   -1    0    0  501  502  0.00000000000E+00  0.00000000000E+00  0.15261320234E+03  0.15261320234E+03  0.00000000000E+00 0.  1.
         21   -1    0    0  502  503 -0.00000000000E+00 -0.00000000000E+00 -0.26792626035E+04  0.26792626035E+04  0.00000000000E+00 0. -1.
    9000005    1    1    2  501    0 -0.10322855945E+03  0.46640499185E+03 -0.94473101692E+03  0.11316830149E+04  0.40000000000E+03 0.  1.
   -9000005    1    1    2    0  503  0.10322855945E+03 -0.46640499185E+03 -0.15819183842E+04  0.17001927909E+04  0.40000000000E+03 0. -1.
<mgrwt>
<rscale>  2 0.62304876E+03</rscale>
<asrwt>0</asrwt>
<pdfrwt beam="1">  1       21 0.23478953E-01 0.62304876E+03</pdfrwt>
<pdfrwt beam="2">  1       21 0.41219426E+00 0.62304876E+03</pdfrwt>
<totfact> 0.84537474E+01</totfact>
</mgrwt>
</event>
<event>
 4    1  0.4840996E-002  0.5747255E+03  0.7818608E-02  0.9959276E-01
         21   -1    0    0  501  502  0.00000000000E+00  0.00000000000E+00  0.86383120137E+03  0.86383120137E+03  0.00000000000E+00 0. -1.
         21   -1    0    0  502  503 -0.00000000000E+00 -0.00000000000E+00 -0.41951273111E+03  0.41951273111E+03  0.00000000000E+00 0.  1.
    9000005    1    1    2  501    0 -0.69780534243E+02 -0.40674330001E+03  0.41307191694E+03  0.70776962610E+03  0.40000000000E+03 0. -1.
   -9000005    1    1    2    0  503  0.69780534243E+02  0.40674330001E+03  0.31246553323E+02  0.57557430638E+03  0.40000000000E+03 0.  1.
<mgrwt>
<rscale>  2 0.57472553E+03</rscale>
<asrwt>0</asrwt>
<pdfrwt beam="1">  1       21 0.13289711E+00 0.57472553E+03</pdfrwt>
<pdfrwt beam="2">  1       21 0.64540420E-01 0.57472553E+03</pdfrwt>
<totfact> 0.72694814E+02</totfact>
</mgrwt>
</event>
<event>
 4    1  0.4840996E-002  0.4158610E+03  0.7818608E-02  0.1038422E+00
         21   -1    0    0  501  502  0.00000000000E+00  0.00000000000E+00  0.22135977027E+03  0.22135977027E+03  0.00000000000E+00 0.  1.
         21   -1    0    0  502  503 -0.00000000000E+00 -0.00000000000E+00 -0.78226793965E+03  0.78226793965E+03  0.00000000000E+00 0.  1.
    9000005    1    1    2  501    0  0.10098538102E+03 -0.52367520814E+02 -0.29843175802E+03  0.51186122983E+03  0.40000000000E+03 0.  1.
   -9000005    1    1    2    0  503 -0.10098538102E+03  0.52367520814E+02 -0.26247641136E+03  0.49176648009E+03  0.40000000000E+03 0.  1.
<mgrwt>
<rscale>  2 0.41586104E+03</rscale>
<asrwt>0</asrwt>
<pdfrwt beam="1">  1       21 0.34055349E-01 0.41586104E+03</pdfrwt>
<pdfrwt beam="2">  1       21 0.12034891E+00 0.41586104E+03</pdfrwt>
<totfact> 0.38430261E+03</totfact>
</mgrwt>
</event>
<event>
 4    1  0.4840996E-002  0.4286044E+03  0.7818608E-02  0.1034302E+00
         21   -1    0    0  503  502  0.00000000000E+00  0.00000000000E+00  0.10497450673E+04  0.10497450673E+04  0.00000000000E+00 0. -1.
         21   -1    0    0  501  503 -0.00000000000E+00 -0.00000000000E+00 -0.17532712970E+03  0.17532712970E+03  0.00000000000E+00 0. -1.
    9000005    1    1    2  501    0  0.14491127903E+03 -0.51985441179E+02  0.46380674852E+03  0.63152075568E+03  0.40000000000E+03 0. -1.
   -9000005    1    1    2    0  502 -0.14491127903E+03  0.51985441179E+02  0.41061118907E+03  0.59355144130E+03  0.40000000000E+03 0. -1.
<mgrwt>
<rscale>  2 0.42860444E+03</rscale>
<asrwt>0</asrwt>
<pdfrwt beam="1">  1       21 0.16149924E+00 0.42860444E+03</pdfrwt>
<pdfrwt beam="2">  1       21 0.26973405E-01 0.42860444E+03</pdfrwt>
<totfact> 0.27850522E+03</totfact>
</mgrwt>
</event>
<event>
 4    1  0.4840996E-002  0.4429207E+03  0.7818608E-02  0.1029854E+00
         21   -1    0    0  503  502  0.00000000000E+00  0.00000000000E+00  0.14576484398E+04  0.14576484398E+04  0.00000000000E+00 0. -1.
         21   -1    0    0  501  503 -0.00000000000E+00 -0.00000000000E+00 -0.15060688388E+03  0.15060688388E+03  0.00000000000E+00 0.  1.
    9000005    1    1    2  501    0  0.12499385155E+02  0.18979606064E+03  0.39125081349E+03  0.59097883068E+03  0.40000000000E+03 0.  1.
   -9000005    1    1    2    0  502 -0.12499385155E+02 -0.18979606064E+03  0.91579074243E+03  0.10172764930E+04  0.40000000000E+03 0. -1.
<mgrwt>
<rscale>  2 0.44292074E+03</rscale>
<asrwt>0</asrwt>
<pdfrwt beam="1">  1       21 0.22425360E+00 0.44292074E+03</pdfrwt>
<pdfrwt beam="2">  1       21 0.23170291E-01 0.44292074E+03</pdfrwt>
<totfact> 0.13867744E+03</totfact>
</mgrwt>
</event>
<event>
 4    1  0.4840996E-002  0.4536135E+03  0.7818608E-02  0.1026650E+00
         21   -1    0    0  501  502  0.00000000000E+00  0.00000000000E+00  0.12196211001E+04  0.12196211001E+04  0.00000000000E+00 0. -1.
         21   -1    0    0  502  503 -0.00000000000E+00 -0.00000000000E+00 -0.18341888007E+03  0.18341888007E+03  0.00000000000E+00 0.  1.
    9000005    1    1    2  501    0 -0.12421382791E+03  0.17417261484E+03  0.31945834963E+03  0.55481421391E+03  0.40000000000E+03 0. -1.
   -9000005    1    1    2    0  503  0.12421382791E+03 -0.17417261484E+03  0.71674387045E+03  0.84822576631E+03  0.40000000000E+03 0. -1.
<mgrwt>
<rscale>  2 0.45361346E+03</rscale>
<asrwt>0</asrwt>
<pdfrwt beam="1">  1       21 0.18763401E+00 0.45361346E+03</pdfrwt>
<pdfrwt beam="2">  1       21 0.28218290E-01 0.45361346E+03</pdfrwt>
<totfact> 0.16378602E+03</totfact>
</mgrwt>
</event>
<event>
 4    1  0.4840996E-002  0.6164985E+03  0.7818608E-02  0.9871756E-01
         21   -1    0    0  503  502  0.00000000000E+00  0.00000000000E+00  0.11125288313E+04  0.11125288313E+04  0.00000000000E+00 0. -1.
         21   -1    0    0  501  503 -0.00000000000E+00 -0.00000000000E+00 -0.34873326586E+03  0.34873326586E+03  0.00000000000E+00 0. -1.
    9000005    1    1    2  501    0  0.44111958054E+03 -0.15963679978E+03  0.27760403201E+03  0.67611714279E+03  0.40000000000E+03 0. -1.
   -9000005    1    1    2    0  502 -0.44111958054E+03  0.15963679978E+03  0.48619153342E+03  0.78514495435E+03  0.40000000000E+03 0. -1.
<mgrwt>
<rscale>  2 0.61649849E+03</rscale>
<asrwt>0</asrwt>
<pdfrwt beam="1">  1       21 0.17115828E+00 0.61649849E+03</pdfrwt>
<pdfrwt beam="2">  1       21 0.53651272E-01 0.61649849E+03</pdfrwt>
<totfact> 0.53613303E+02</totfact>
</mgrwt>
</event>
<event>
 4    1  0.4840996E-002  0.4969401E+03  0.7818608E-02  0.1014581E+00
         21   -1    0    0  501  502  0.00000000000E+00  0.00000000000E+00  0.41639844667E+03  0.41639844667E+03  0.00000000000E+00 0. -1.
         21   -1    0    0  502  503 -0.00000000000E+00 -0.00000000000E+00 -0.11435303733E+04  0.11435303733E+04  0.00000000000E+00 0. -1.
    9000005    1    1    2  501    0 -0.24834871507E+03  0.15897281110E+03  0.17758413541E+03  0.52771731457E+03  0.40000000000E+03 0. -1.
   -9000005    1    1    2    0  503  0.24834871507E+03 -0.15897281110E+03 -0.90471606202E+03  0.10322115054E+04  0.40000000000E+03 0. -1.
<mgrwt>
<rscale>  2 0.49694008E+03</rscale>
<asrwt>0</asrwt>
<pdfrwt beam="1">  1       21 0.64061300E-01 0.49694008E+03</pdfrwt>
<pdfrwt beam="2">  1       21 0.17592775E+00 0.49694008E+03</pdfrwt>
<totfact> 0.35132712E+02</totfact>
</mgrwt>
</event>
<event>
 4    1  0.4840996E-002  0.5720698E+03  0.7818608E-02  0.9965109E-01
         21   -1    0    0  501  502  0.00000000000E+00  0.00000000000E+00  0.94659840059E+03  0.94659840059E+03  0.00000000000E+00 0. -1.
         21   -1    0    0  502  503 -0.00000000000E+00 -0.00000000000E+00 -0.11270680532E+04  0.11270680532E+04  0.00000000000E+00 0.  1.
    9000005    1    1    2  501    0 -0.67002066828E+02  0.40345336611E+03  0.77305052666E+03  0.96170214326E+03  0.40000000000E+03 0. -1.
   -9000005    1    1    2    0  503  0.67002066828E+02 -0.40345336611E+03 -0.95352017923E+03  0.11119643105E+04  0.40000000000E+03 0.  1.
<mgrwt>
<rscale>  2 0.57206983E+03</rscale>
<asrwt>0</asrwt>
<pdfrwt beam="1">  1       21 0.14563052E+00 0.57206983E+03</pdfrwt>
<pdfrwt beam="2">  1       21 0.17339508E+00 0.57206983E+03</pdfrwt>
<totfact> 0.48027106E+01</totfact>
</mgrwt>
</event>
<event>
 4    1  0.4840996E-002  0.4873123E+03  0.7818608E-02  0.1017145E+00
         21   -1    0    0  503  502  0.00000000000E+00  0.00000000000E+00  0.68183656937E+03  0.68183656937E+03  0.00000000000E+00 0.  1.
         21   -1    0    0  501  503 -0.00000000000E+00 -0.00000000000E+00 -0.34848098574E+03  0.34848098574E+03  0.00000000000E+00 0.  1.
    9000005    1    1    2  501    0  0.26886439744E+03 -0.72008239184E+02  0.15445172766E+03  0.51120307794E+03  0.40000000000E+03 0.  1.
   -9000005    1    1    2    0  502 -0.26886439744E+03  0.72008239184E+02  0.17890385598E+03  0.51911447717E+03  0.40000000000E+03 0.  1.
<mgrwt>
<rscale>  2 0.48731227E+03</rscale>
<asrwt>0</asrwt>
<pdfrwt beam="1">  1       21 0.10489793E+00 0.48731227E+03</pdfrwt>
<pdfrwt beam="2">  1       21 0.53612459E-01 0.48731227E+03</pdfrwt>
<totfact> 0.20519316E+03</totfact>
</mgrwt>
</event>
<event>
 4    1  0.4840996E-002  0.4572705E+03  0.7818608E-02  0.1025576E+00
         21   -1    0    0  503  502  0.00000000000E+00  0.00000000000E+00  0.79340475350E+03  0.79340475350E+03  0.00000000000E+00 0.  1.
         21   -1    0    0  501  503 -0.00000000000E+00 -0.00000000000E+00 -0.32163899609E+03  0.32163899609E+03  0.00000000000E+00 0.  1.
    9000005    1    1    2  501    0 -0.20005127730E+03 -0.95266999393E+02 -0.10637034102E+01  0.45727174217E+03  0.40000000000E+03 0.  1.
   -9000005    1    1    2    0  502  0.20005127730E+03  0.95266999393E+02  0.47282946083E+03  0.65777200742E+03  0.40000000000E+03 0.  1.
<mgrwt>
<rscale>  2 0.45727050E+03</rscale>
<asrwt>0</asrwt>
<pdfrwt beam="1">  1       21 0.12206227E+00 0.45727050E+03</pdfrwt>
<pdfrwt beam="2">  1       21 0.49482923E-01 0.45727050E+03</pdfrwt>
<totfact> 0.16853730E+03</totfact>
</mgrwt>
</event>
<event>
 4    1  0.4840996E-002  0.4608750E+03  0.7818608E-02  0.1024528E+00
         21   -1    0    0  501  502  0.00000000000E+00  0.00000000000E+00  0.16520414998E+04  0.16520414998E+04  0.00000000000E+00 0.  1.
         21   -1    0    0  502  503 -0.00000000000E+00 -0.00000000000E+00 -0.31073249554E+03  0.31073249554E+03  0.00000000000E+00 0.  1.
    9000005    1    1    2  501    0  0.86228423897E+02 -0.21206234717E+03  0.14220600950E+04  0.14948781535E+04  0.40000000000E+03 0.  1.
   -9000005    1    1    2    0  503 -0.86228423897E+02  0.21206234717E+03 -0.80751090672E+02  0.46789584185E+03  0.40000000000E+03 0.  1.
<mgrwt>
<rscale>  2 0.46087502E+03</rscale>
<asrwt>0</asrwt>
<pdfrwt beam="1">  1       21 0.25416022E+00 0.46087502E+03</pdfrwt>
<pdfrwt beam="2">  1       21 0.47805000E-01 0.46087502E+03</pdfrwt>
<totfact> 0.20799710E+02</totfact>
</mgrwt>
</event>
<event>
 4    1  0.4840996E-002  0.6398105E+03  0.7818608E-02  0.9826089E-01
         21   -1    0    0  501  502  0.00000000000E+00  0.00000000000E+00  0.20962392851E+03  0.20962392851E+03  0.00000000000E+00 0. -1.
         21   -1    0    0  502  503 -0.00000000000E+00 -0.00000000000E+00 -0.20165385798E+04  0.20165385798E+04  0.00000000000E+00 0. -1.
    9000005    1    1    2  501    0  0.35217883380E+03 -0.35401638017E+03 -0.11013187182E+04  0.12736798842E+04  0.40000000000E+03 0. -1.
   -9000005    1    1    2    0  503 -0.35217883380E+03  0.35401638017E+03 -0.70559593312E+03  0.95248262412E+03  0.40000000000E+03 0. -1.
<mgrwt>
<rscale>  2 0.63981054E+03</rscale>
<asrwt>0</asrwt>
<pdfrwt beam="1">  1       21 0.32249835E-01 0.63981054E+03</pdfrwt>
<pdfrwt beam="2">  1       21 0.31023670E+00 0.63981054E+03</pdfrwt>
<totfact> 0.19582283E+02</totfact>
</mgrwt>
</event>
<event>
 4    1  0.4840996E-002  0.4740877E+03  0.7818608E-02  0.1020773E+00
         21   -1    0    0  501  502  0.00000000000E+00  0.00000000000E+00  0.17936942847E+03  0.17936942847E+03  0.00000000000E+00 0.  1.
         21   -1    0    0  502  503 -0.00000000000E+00 -0.00000000000E+00 -0.14898728775E+04  0.14898728775E+04  0.00000000000E+00 0.  1.
    9000005    1    1    2  501    0  0.25405932704E+03 -0.14594880136E+02 -0.32249631404E+03  0.57337860507E+03  0.40000000000E+03 0.  1.
   -9000005    1    1    2    0  503 -0.25405932704E+03  0.14594880136E+02 -0.98800713502E+03  0.10958637009E+04  0.40000000000E+03 0.  1.
<mgrwt>
<rscale>  2 0.47408771E+03</rscale>
<asrwt>0</asrwt>
<pdfrwt beam="1">  1       21 0.27595297E-01 0.47408771E+03</pdfrwt>
<pdfrwt beam="2">  1       21 0.22921121E+00 0.47408771E+03</pdfrwt>
<totfact> 0.90444196E+02</totfact>
</mgrwt>
</event>
<event>
 4    1  0.4840996E-002  0.4584081E+03  0.7818608E-02  0.1025244E+00
         21   -1    0    0  503  502  0.00000000000E+00  0.00000000000E+00  0.40931931007E+03  0.40931931007E+03  0.00000000000E+00 0.  1.
         21   -1    0    0  501  503 -0.00000000000E+00 -0.00000000000E+00 -0.57781258182E+03  0.57781258182E+03  0.00000000000E+00 0.  1.
    9000005    1    1    2  501    0  0.17178950141E+03 -0.14361872723E+03 -0.24905949139E+03  0.52169780703E+03  0.40000000000E+03 0.  1.
   -9000005    1    1    2    0  502 -0.17178950141E+03  0.14361872723E+03  0.80566219638E+02  0.46543408487E+03  0.40000000000E+03 0.  1.
<mgrwt>
<rscale>  2 0.45840808E+03</rscale>
<asrwt>0</asrwt>
<pdfrwt beam="1">  1       21 0.62972202E-01 0.45840808E+03</pdfrwt>
<pdfrwt beam="2">  1       21 0.88894243E-01 0.45840808E+03</pdfrwt>
<totfact> 0.21757285E+03</totfact>
</mgrwt>
</event>
<event>
 4    1  0.4840996E-002  0.6207263E+03  0.7818608E-02  0.9863315E-01
         21   -1    0    0  503  502  0.00000000000E+00  0.00000000000E+00  0.87952412600E+03  0.87952412600E+03  0.00000000000E+00 0.  1.
         21   -1    0    0  501  503 -0.00000000000E+00 -0.00000000000E+00 -0.44527586018E+03  0.44527586018E+03  0.00000000000E+00 0. -1.
    9000005    1    1    2  501    0  0.40754818741E+03  0.24332204275E+03  0.13291210579E+03  0.63479663627E+03  0.40000000000E+03 0. -1.
   -9000005    1    1    2    0  502 -0.40754818741E+03 -0.24332204275E+03  0.30133616003E+03  0.69000334991E+03  0.40000000000E+03 0.  1.
<mgrwt>
<rscale>  2 0.62072630E+03</rscale>
<asrwt>0</asrwt>
<pdfrwt beam="1">  1       21 0.13531140E+00 0.62072630E+03</pdfrwt>
<pdfrwt beam="2">  1       21 0.68503979E-01 0.62072630E+03</pdfrwt>
<totfact> 0.59741602E+02</totfact>
</mgrwt>
</event>
<event>
 4    1  0.4840996E-002  0.6133435E+03  0.7818608E-02  0.9878103E-01
         21   -1    0    0  501  502  0.00000000000E+00  0.00000000000E+00  0.14648002361E+04  0.14648002361E+04  0.00000000000E+00 0.  1.
         21   -1    0    0  502  503 -0.00000000000E+00 -0.00000000000E+00 -0.35949995845E+03  0.35949995845E+03  0.00000000000E+00 0. -1.
    9000005    1    1    2  501    0  0.38506349796E+03 -0.26060761694E+03  0.10401330492E+04  0.12075044462E+04  0.40000000000E+03 0.  1.
   -9000005    1    1    2    0  503 -0.38506349796E+03  0.26060761694E+03  0.65167228357E+02  0.61679574830E+03  0.40000000000E+03 0. -1.
<mgrwt>
<rscale>  2 0.61334348E+03</rscale>
<asrwt>0</asrwt>
<pdfrwt beam="1">  1       21 0.22535388E+00 0.61334348E+03</pdfrwt>
<pdfrwt beam="2">  1       21 0.55307686E-01 0.61334348E+03</pdfrwt>
<totfact> 0.21466814E+02</totfact>
</mgrwt>
</event>
<event>
 4    1  0.4840996E-002  0.4178502E+03  0.7818608E-02  0.1037768E+00
         21   -1    0    0  501  502  0.00000000000E+00  0.00000000000E+00  0.15478136609E+03  0.15478136609E+03  0.00000000000E+00 0. -1.
         21   -1    0    0  502  503 -0.00000000000E+00 -0.00000000000E+00 -0.11328069875E+04  0.11328069875E+04  0.00000000000E+00 0.  1.
    9000005    1    1    2  501    0 -0.97535624140E+02  0.71313181410E+02 -0.44722710971E+03  0.61205461805E+03  0.40000000000E+03 0.  1.
   -9000005    1    1    2    0  503  0.97535624140E+02 -0.71313181410E+02 -0.53079851167E+03  0.67553373550E+03  0.40000000000E+03 0. -1.
<mgrwt>
<rscale>  2 0.41785017E+03</rscale>
<asrwt>0</asrwt>
<pdfrwt beam="1">  1       21 0.23812518E-01 0.41785017E+03</pdfrwt>
<pdfrwt beam="2">  1       21 0.17427800E+00 0.41785017E+03</pdfrwt>
<totfact> 0.28746525E+03</totfact>
</mgrwt>
</event>
<event>
 4    1  0.4840996E-002  0.4167364E+03  0.7818608E-02  0.1038134E+00
         21   -1    0    0  503  502  0.00000000000E+00  0.00000000000E+00  0.50676204748E+03  0.50676204748E+03  0.00000000000E+00 0.  1.
         21   -1    0    0  501  503 -0.00000000000E+00 -0.00000000000E+00 -0.63641084063E+03  0.63641084063E+03  0.00000000000E+00 0.  1.
    9000005    1    1    2  501    0 -0.94628253880E+02 -0.68663706942E+02  0.32347830693E+03  0.52754850596E+03  0.40000000000E+03 0.  1.
   -9000005    1    1    2    0  502  0.94628253880E+02  0.68663706942E+02 -0.45312710008E+03  0.61562438216E+03  0.40000000000E+03 0.  1.
<mgrwt>
<rscale>  2 0.41673638E+03</rscale>
<asrwt>0</asrwt>
<pdfrwt beam="1">  1       21 0.77963391E-01 0.41673638E+03</pdfrwt>
<pdfrwt beam="2">  1       21 0.97909361E-01 0.41673638E+03</pdfrwt>
<totfact> 0.10863686E+03</totfact>
</mgrwt>
</event>
<event>
 4    1  0.4840996E-002  0.4036969E+03  0.7818608E-02  0.1042507E+00
         21   -1    0    0  503  502  0.00000000000E+00  0.00000000000E+00  0.29041598972E+03  0.29041598972E+03  0.00000000000E+00 0.  1.
         21   -1    0    0  501  503 -0.00000000000E+00 -0.00000000000E+00 -0.73893188992E+03  0.73893188992E+03  0.00000000000E+00 0.  1.
    9000005    1    1    2  501    0 -0.44031796453E+02 -0.32131029002E+02 -0.47669655757E+03  0.62466856021E+03  0.40000000000E+03 0.  1.
   -9000005    1    1    2    0  502  0.44031796453E+02  0.32131029002E+02  0.28180657365E+02  0.40467931943E+03  0.40000000000E+03 0.  1.
<mgrwt>
<rscale>  2 0.40369692E+03</rscale>
<asrwt>0</asrwt>
<pdfrwt beam="1">  1       21 0.44679383E-01 0.40369692E+03</pdfrwt>
<pdfrwt beam="2">  1       21 0.11368183E+00 0.40369692E+03</pdfrwt>
<totfact> 0.25540849E+03</totfact>
</mgrwt>
</event>
<event>
 4    1  0.4840996E-002  0.6777258E+03  0.7818608E-02  0.9756101E-01
         21   -1    0    0  501  502  0.00000000000E+00  0.00000000000E+00  0.13791377408E+04  0.13791377408E+04  0.00000000000E+00 0.  1.
         21   -1    0    0  502  503 -0.00000000000E+00 -0.00000000000E+00 -0.40144460182E+03  0.40144460182E+03  0.00000000000E+00 0. -1.
    9000005    1    1    2  501    0 -0.21316867974E+03 -0.50385652063E+03  0.12135097168E+03  0.68850442100E+03  0.40000000000E+03 0. -1.
   -9000005    1    1    2    0  503  0.21316867974E+03  0.50385652063E+03  0.85634216733E+03  0.10920779216E+04  0.40000000000E+03 0.  1.
<mgrwt>
<rscale>  2 0.67772581E+03</rscale>
<asrwt>0</asrwt>
<pdfrwt beam="1">  1       21 0.21217504E+00 0.67772581E+03</pdfrwt>
<pdfrwt beam="2">  1       21 0.61760708E-01 0.67772581E+03</pdfrwt>
<totfact> 0.20041440E+02</totfact>
</mgrwt>
</event>
<event>
 4    1  0.4840996E-002  0.4738343E+03  0.7818608E-02  0.1020844E+00
         21   -1    0    0  503  502  0.00000000000E+00  0.00000000000E+00  0.52075777874E+03  0.52075777874E+03  0.00000000000E+00 0.  1.
         21   -1    0    0  501  503 -0.00000000000E+00 -0.00000000000E+00 -0.44520209037E+03  0.44520209037E+03  0.00000000000E+00 0.  1.
    9000005    1    1    2  501    0  0.22529064792E+03 -0.11731621778E+03 -0.48062485702E+02  0.47626565436E+03  0.40000000000E+03 0.  1.
   -9000005    1    1    2    0  502 -0.22529064792E+03  0.11731621778E+03  0.12361817408E+03  0.48969421474E+03  0.40000000000E+03 0.  1.
<mgrwt>
<rscale>  2 0.47383433E+03</rscale>
<asrwt>0</asrwt>
<pdfrwt beam="1">  1       21 0.80116581E-01 0.47383433E+03</pdfrwt>
<pdfrwt beam="2">  1       21 0.68492630E-01 0.47383433E+03</pdfrwt>
<totfact> 0.22880803E+03</totfact>
</mgrwt>
</event>
<event>
 4    1  0.4840996E-002  0.4328853E+03  0.7818608E-02  0.1032952E+00
         21   -1    0    0  501  502  0.00000000000E+00  0.00000000000E+00  0.29131854692E+04  0.29131854692E+04  0.00000000000E+00 0. -1.
         21   -1    0    0  502  503 -0.00000000000E+00 -0.00000000000E+00 -0.15481834937E+03  0.15481834937E+03  0.00000000000E+00 0. -1.
    9000005    1    1    2  501    0 -0.27756281317E+01 -0.16547514027E+03  0.25519830824E+04  0.25884372465E+04  0.40000000000E+03 0. -1.
   -9000005    1    1    2    0  503  0.27756281317E+01  0.16547514027E+03  0.20638403744E+03  0.47956657209E+03  0.40000000000E+03 0. -1.
<mgrwt>
<rscale>  2 0.43288535E+03</rscale>
<asrwt>0</asrwt>
<pdfrwt beam="1">  1       21 0.44818234E+00 0.43288535E+03</pdfrwt>
<pdfrwt beam="2">  1       21 0.23818210E-01 0.43288535E+03</pdfrwt>
<totfact> 0.53281454E+01</totfact>
</mgrwt>
</event>
<event>
 4    1  0.4840996E-002  0.5926948E+03  0.7818608E-02  0.9920679E-01
         21   -1    0    0  503  502  0.00000000000E+00  0.00000000000E+00  0.28957320446E+04  0.28957320446E+04  0.00000000000E+00 0. -1.
         21   -1    0    0  501  503 -0.00000000000E+00 -0.00000000000E+00 -0.12970971683E+03  0.12970971683E+03  0.00000000000E+00 0. -1.
    9000005    1    1    2  501    0  0.43038335810E+03  0.77828829219E+02  0.99810742909E+03  0.11608210894E+04  0.40000000000E+03 0. -1.
   -9000005    1    1    2    0  502 -0.43038335810E+03 -0.77828829219E+02  0.17679148987E+04  0.18646206720E+04  0.40000000000E+03 0. -1.
<mgrwt>
<rscale>  2 0.59269483E+03</rscale>
<asrwt>0</asrwt>
<pdfrwt beam="1">  1       21 0.44549719E+00 0.59269483E+03</pdfrwt>
<pdfrwt beam="2">  1       21 0.19955343E-01 0.59269483E+03</pdfrwt>
<totfact> 0.70470697E+01</totfact>
</mgrwt>
</event>
<event>
 4    1  0.4840996E-002  0.4507184E+03  0.7818608E-02  0.1027508E+00
         21   -1    0    0  501  502  0.00000000000E+00  0.00000000000E+00  0.32051974504E+03  0.32051974504E+03  0.00000000000E+00 0.  1.
         21   -1    0    0  502  503 -0.00000000000E+00 -0.00000000000E+00 -0.79750137907E+03  0.79750137907E+03  0.00000000000E+00 0.  1.
    9000005    1    1    2  501    0 -0.18704680523E+03 -0.90335893775E+02  0.14773242433E+02  0.45096045253E+03  0.40000000000E+03 0.  1.
   -9000005    1    1    2    0  503  0.18704680523E+03  0.90335893775E+02 -0.49175487646E+03  0.66706067159E+03  0.40000000000E+03 0.  1.
<mgrwt>
<rscale>  2 0.45071841E+03</rscale>
<asrwt>0</asrwt>
<pdfrwt beam="1">  1       21 0.49310731E-01 0.45071841E+03</pdfrwt>
<pdfrwt beam="2">  1       21 0.12269252E+00 0.45071841E+03</pdfrwt>
<totfact> 0.16799406E+03</totfact>
</mgrwt>
</event>
<event>
 4    1  0.4840996E-002  0.6384463E+03  0.7818608E-02  0.9828704E-01
         21   -1    0    0  503  502  0.00000000000E+00  0.00000000000E+00  0.11035841683E+04  0.11035841683E+04  0.00000000000E+00 0. -1.
         21   -1    0    0  501  503 -0.00000000000E+00 -0.00000000000E+00 -0.40859819684E+03  0.40859819684E+03  0.00000000000E+00 0.  1.
    9000005    1    1    2  501    0  0.14239081472E+03 -0.47680031569E+03  0.58181407390E+03  0.86378313352E+03  0.40000000000E+03 0. -1.
   -9000005    1    1    2    0  502 -0.14239081472E+03  0.47680031569E+03  0.11317189756E+03  0.64839923161E+03  0.40000000000E+03 0.  1.
<mgrwt>
<rscale>  2 0.63844631E+03</rscale>
<asrwt>0</asrwt>
<pdfrwt beam="1">  1       21 0.16978218E+00 0.63844631E+03</pdfrwt>
<pdfrwt beam="2">  1       21 0.62861262E-01 0.63844631E+03</pdfrwt>
<totfact> 0.38477128E+02</totfact>
</mgrwt>
</event>
<event>
 4    1  0.4840996E-002  0.4324804E+03  0.7818608E-02  0.1033079E+00
         21   -1    0    0  501  502  0.00000000000E+00  0.00000000000E+00  0.94414966396E+03  0.94414966396E+03  0.00000000000E+00 0.  1.
         21   -1    0    0  502  503 -0.00000000000E+00 -0.00000000000E+00 -0.45148972926E+03  0.45148972926E+03  0.00000000000E+00 0.  1.
    9000005    1    1    2  501    0 -0.15671260992E+03 -0.49804493997E+02  0.76910015336E+03  0.88235728343E+03  0.40000000000E+03 0.  1.
   -9000005    1    1    2    0  503  0.15671260992E+03  0.49804493997E+02 -0.27644021866E+03  0.51328210978E+03  0.40000000000E+03 0.  1.
<mgrwt>
<rscale>  2 0.43248044E+03</rscale>
<asrwt>0</asrwt>
<pdfrwt beam="1">  1       21 0.14525379E+00 0.43248044E+03</pdfrwt>
<pdfrwt beam="2">  1       21 0.69459958E-01 0.43248044E+03</pdfrwt>
<totfact> 0.51536708E+02</totfact>
</mgrwt>
</event>
<event>
 4    1  0.4840996E-002  0.4592742E+03  0.7818608E-02  0.1024992E+00
         21   -1    0    0  503  502  0.00000000000E+00  0.00000000000E+00  0.13336883000E+04  0.13336883000E+04  0.00000000000E+00 0.  1.
         21   -1    0    0  501  503 -0.00000000000E+00 -0.00000000000E+00 -0.16096562390E+03  0.16096562390E+03  0.00000000000E+00 0.  1.
    9000005    1    1    2  501    0 -0.17823085945E+03  0.13844325824E+03  0.48765294367E+03  0.66987921932E+03  0.40000000000E+03 0.  1.
   -9000005    1    1    2    0  502  0.17823085945E+03 -0.13844325824E+03  0.68506973246E+03  0.82477470460E+03  0.40000000000E+03 0.  1.
<mgrwt>
<rscale>  2 0.45927418E+03</rscale>
<asrwt>0</asrwt>
<pdfrwt beam="1">  1       21 0.20518281E+00 0.45927418E+03</pdfrwt>
<pdfrwt beam="2">  1       21 0.24763943E-01 0.45927418E+03</pdfrwt>
<totfact> 0.16072235E+03</totfact>
</mgrwt>
</event>
<event>
 4    1  0.4840996E-002  0.4773242E+03  0.7818608E-02  0.1019873E+00
         21   -1    0    0  501  502  0.00000000000E+00  0.00000000000E+00  0.29250416608E+03  0.29250416608E+03  0.00000000000E+00 0. -1.
         21   -1    0    0  502  503 -0.00000000000E+00 -0.00000000000E+00 -0.86956027828E+03  0.86956027828E+03  0.00000000000E+00 0. -1.
    9000005    1    1    2  501    0 -0.20539760824E+03  0.16015695508E+03 -0.10094132363E+03  0.48788070114E+03  0.40000000000E+03 0. -1.
   -9000005    1    1    2    0  503  0.20539760824E+03 -0.16015695508E+03 -0.47611478856E+03  0.67418374322E+03  0.40000000000E+03 0. -1.
<mgrwt>
<rscale>  2 0.47732424E+03</rscale>
<asrwt>0</asrwt>
<pdfrwt beam="1">  1       21 0.45000641E-01 0.47732424E+03</pdfrwt>
<pdfrwt beam="2">  1       21 0.13377850E+00 0.47732424E+03</pdfrwt>
<totfact> 0.16121919E+03</totfact>
</mgrwt>
</event>
<event>
 4    1  0.4840996E-002  0.6237384E+03  0.7818608E-02  0.9857345E-01
         21   -1    0    0  503  502  0.00000000000E+00  0.00000000000E+00  0.36811121408E+03  0.36811121408E+03  0.00000000000E+00 0.  1.
         21   -1    0    0  501  503 -0.00000000000E+00 -0.00000000000E+00 -0.12255522047E+04  0.12255522047E+04  0.00000000000E+00 0.  1.
    9000005    1    1    2  501    0 -0.47843687080E+03  0.12153916740E+02 -0.72433234704E+03  0.95588017345E+03  0.40000000000E+03 0.  1.
   -9000005    1    1    2    0  502  0.47843687080E+03 -0.12153916740E+02 -0.13310864359E+03  0.63778324533E+03  0.40000000000E+03 0.  1.
<mgrwt>
<rscale>  2 0.62373837E+03</rscale>
<asrwt>0</asrwt>
<pdfrwt beam="1">  1       21 0.56632495E-01 0.62373837E+03</pdfrwt>
<pdfrwt beam="2">  1       21 0.18854649E+00 0.62373837E+03</pdfrwt>
<totfact> 0.35726126E+02</totfact>
</mgrwt>
</event>
<event>
 4    1  0.4840996E-002  0.5644534E+03  0.7818608E-02  0.9982028E-01
         21   -1    0    0  503  502  0.00000000000E+00  0.00000000000E+00  0.15550089122E+04  0.15550089122E+04  0.00000000000E+00 0.  1.
         21   -1    0    0  501  503 -0.00000000000E+00 -0.00000000000E+00 -0.47217765718E+03  0.47217765718E+03  0.00000000000E+00 0. -1.
    9000005    1    1    2  501    0  0.39051551716E+03 -0.78136105764E+02 -0.22118910628E+03  0.60624437392E+03  0.40000000000E+03 0. -1.
   -9000005    1    1    2    0  502 -0.39051551716E+03  0.78136105764E+02  0.13040203613E+04  0.14209421955E+04  0.40000000000E+03 0.  1.
<mgrwt>
<rscale>  2 0.56445338E+03</rscale>
<asrwt>0</asrwt>
<pdfrwt beam="1">  1       21 0.23923214E+00 0.56445338E+03</pdfrwt>
<pdfrwt beam="2">  1       21 0.72642717E-01 0.56445338E+03</pdfrwt>
<totfact> 0.97538295E+01</totfact>
</mgrwt>
</event>
<event>
 4    1  0.4840996E-002  0.4025445E+03  0.7818608E-02  0.1042902E+00
         21   -1    0    0  501  502  0.00000000000E+00  0.00000000000E+00  0.79033553151E+03  0.79033553151E+03  0.00000000000E+00 0.  1.
         21   -1    0    0  502  503 -0.00000000000E+00 -0.00000000000E+00 -0.21235834470E+03  0.21235834470E+03  0.00000000000E+00 0.  1.
    9000005    1    1    2  501    0  0.38155911388E+02  0.24210756999E+02  0.19585124277E+03  0.44766029936E+03  0.40000000000E+03 0.  1.
   -9000005    1    1    2    0  503 -0.38155911388E+02 -0.24210756999E+02  0.38212594404E+03  0.55503357685E+03  0.40000000000E+03 0.  1.
<mgrwt>
<rscale>  2 0.40254445E+03</rscale>
<asrwt>0</asrwt>
<pdfrwt beam="1">  1       21 0.12159008E+00 0.40254445E+03</pdfrwt>
<pdfrwt beam="2">  1       21 0.32670515E-01 0.40254445E+03</pdfrwt>
<totfact> 0.40905801E+03</totfact>
</mgrwt>
</event>
<event>
 4    1  0.4840996E-002  0.4233531E+03  0.7818608E-02  0.1035980E+00
         21   -1    0    0  503  502  0.00000000000E+00  0.00000000000E+00  0.17021538468E+04  0.17021538468E+04  0.00000000000E+00 0. -1.
         21   -1    0    0  501  503 -0.00000000000E+00 -0.00000000000E+00 -0.10651981787E+03  0.10651981787E+03  0.00000000000E+00 0. -1.
    9000005    1    1    2  501    0  0.63371676133E+02 -0.12333638374E+03  0.89480061462E+03  0.98989695060E+03  0.40000000000E+03 0. -1.
   -9000005    1    1    2    0  502 -0.63371676133E+02  0.12333638374E+03  0.70083341434E+03  0.81877671410E+03  0.40000000000E+03 0. -1.
<mgrwt>
<rscale>  2 0.42335308E+03</rscale>
<asrwt>0</asrwt>
<pdfrwt beam="1">  1       21 0.26186980E+00 0.42335308E+03</pdfrwt>
<pdfrwt beam="2">  1       21 0.16387666E-01 0.42335308E+03</pdfrwt>
<totfact> 0.15809205E+03</totfact>
</mgrwt>
</event>
<event>
 4    1  0.4840996E-002  0.4680402E+03  0.7818608E-02  0.1022475E+00
         21   -1    0    0  503  502  0.00000000000E+00  0.00000000000E+00  0.67390389566E+03  0.67390389566E+03  0.00000000000E+00 0.  1.
         21   -1    0    0  501  503 -0.00000000000E+00 -0.00000000000E+00 -0.32834111227E+03  0.32834111227E+03  0.00000000000E+00 0. -1.
    9000005    1    1    2  501    0 -0.52851499068E+02 -0.23720945326E+03  0.12271394173E+03  0.48385981148E+03  0.40000000000E+03 0. -1.
   -9000005    1    1    2    0  502  0.52851499068E+02  0.23720945326E+03  0.22284884166E+03  0.51838519645E+03  0.40000000000E+03 0.  1.
<mgrwt>
<rscale>  2 0.46804018E+03</rscale>
<asrwt>0</asrwt>
<pdfrwt beam="1">  1       21 0.10367752E+00 0.46804018E+03</pdfrwt>
<pdfrwt beam="2">  1       21 0.50514018E-01 0.46804018E+03</pdfrwt>
<totfact> 0.24156733E+03</totfact>
</mgrwt>
</event>
<event>
 4    1  0.4840996E-002  0.4423099E+03  0.7818608E-02  0.1030040E+00
         21   -1    0    0  501  502  0.00000000000E+00  0.00000000000E+00  0.45507597636E+03  0.45507597636E+03  0.00000000000E+00 0.  1.
         21   -1    0    0  502  503 -0.00000000000E+00 -0.00000000000E+00 -0.63814791381E+03  0.63814791381E+03  0.00000000000E+00 0.  1.
    9000005    1    1    2  501    0  0.16438816244E+03 -0.92814892405E+02  0.22071707891E+03  0.49432185985E+03  0.40000000000E+03 0.  1.
   -9000005    1    1    2    0  503 -0.16438816244E+03  0.92814892405E+02 -0.40378901635E+03  0.59890203033E+03  0.40000000000E+03 0.  1.
<mgrwt>
<rscale>  2 0.44230993E+03</rscale>
<asrwt>0</asrwt>
<pdfrwt beam="1">  1       21 0.70011689E-01 0.44230993E+03</pdfrwt>
<pdfrwt beam="2">  1       21 0.98176602E-01 0.44230993E+03</pdfrwt>
<totfact> 0.13633690E+03</totfact>
</mgrwt>
</event>
<event>
 4    1  0.4840996E-002  0.6586285E+03  0.7818608E-02  0.9790722E-01
         21   -1    0    0  503  502  0.00000000000E+00  0.00000000000E+00  0.65039150052E+03  0.65039150052E+03  0.00000000000E+00 0.  1.
         21   -1    0    0  501  503 -0.00000000000E+00 -0.00000000000E+00 -0.67600101985E+03  0.67600101985E+03  0.00000000000E+00 0.  1.
    9000005    1    1    2  501    0  0.24873959883E+03  0.46034778269E+03 -0.89460086319E+02  0.66467629422E+03  0.40000000000E+03 0.  1.
   -9000005    1    1    2    0  502 -0.24873959883E+03 -0.46034778269E+03  0.63850566985E+02  0.66171622615E+03  0.40000000000E+03 0.  1.
<mgrwt>
<rscale>  2 0.65862848E+03</rscale>
<asrwt>0</asrwt>
<pdfrwt beam="1">  1       21 0.10006023E+00 0.65862848E+03</pdfrwt>
<pdfrwt beam="2">  1       21 0.10400016E+00 0.65862848E+03</pdfrwt>
<totfact> 0.47546701E+02</totfact>
</mgrwt>
</event>
<event>
 4    1  0.4840996E-002  0.6580846E+03  0.7818608E-02  0.9791726E-01
         21   -1    0    0  503  502  0.00000000000E+00  0.00000000000E+00  0.12614398951E+04  0.12614398951E+04  0.00000000000E+00 0. -1.
         21   -1    0    0  501  503 -0.00000000000E+00 -0.00000000000E+00 -0.51304947794E+03  0.51304947794E+03  0.00000000000E+00 0.  1.
    9000005    1    1    2  501    0 -0.28580202610E+03  0.43748426809E+03 -0.13612728805E+03  0.67201631044E+03  0.40000000000E+03 0.  1.
   -9000005    1    1    2    0  502  0.28580202610E+03 -0.43748426809E+03  0.88451770523E+03  0.11024730626E+04  0.40000000000E+03 0. -1.
<mgrwt>
<rscale>  2 0.65808456E+03</rscale>
<asrwt>0</asrwt>
<pdfrwt beam="1">  1       21 0.19406768E+00 0.65808456E+03</pdfrwt>
<pdfrwt beam="2">  1       21 0.78930689E-01 0.65808456E+03</pdfrwt>
<totfact> 0.15303822E+02</totfact>
</mgrwt>
</event>
<event>
 4    1  0.4840996E-002  0.5257888E+03  0.7818608E-02  0.1007259E+00
         21   -1    0    0  501  502  0.00000000000E+00  0.00000000000E+00  0.63562045363E+03  0.63562045363E+03  0.00000000000E+00 0.  1.
         21   -1    0    0  502  503 -0.00000000000E+00 -0.00000000000E+00 -0.58766096737E+03  0.58766096737E+03  0.00000000000E+00 0.  1.
    9000005    1    1    2  501    0  0.34017837320E+03 -0.27066375968E+02 -0.28782926682E+03  0.59941605012E+03  0.40000000000E+03 0.  1.
   -9000005    1    1    2    0  503 -0.34017837320E+03  0.27066375968E+02  0.33578875307E+03  0.62386537089E+03  0.40000000000E+03 0.  1.
<mgrwt>
<rscale>  2 0.52578885E+03</rscale>
<asrwt>0</asrwt>
<pdfrwt beam="1">  1       21 0.97787763E-01 0.52578885E+03</pdfrwt>
<pdfrwt beam="2">  1       21 0.90409379E-01 0.52578885E+03</pdfrwt>
<totfact> 0.73802640E+02</totfact>
</mgrwt>
</event>
<event>
 4    1  0.4840996E-002  0.5195817E+03  0.7818608E-02  0.1008791E+00
         21   -1    0    0  501  502  0.00000000000E+00  0.00000000000E+00  0.98721925504E+03  0.98721925504E+03  0.00000000000E+00 0.  1.
         21   -1    0    0  502  503 -0.00000000000E+00 -0.00000000000E+00 -0.36942305913E+03  0.36942305913E+03  0.00000000000E+00 0.  1.
    9000005    1    1    2  501    0 -0.31830915308E+03 -0.92975158317E+02  0.65461859682E+03  0.83575750329E+03  0.40000000000E+03 0.  1.
   -9000005    1    1    2    0  503  0.31830915308E+03  0.92975158317E+02 -0.36822400913E+02  0.52088481088E+03  0.40000000000E+03 0.  1.
<mgrwt>
<rscale>  2 0.51958166E+03</rscale>
<asrwt>0</asrwt>
<pdfrwt beam="1">  1       21 0.15187988E+00 0.51958166E+03</pdfrwt>
<pdfrwt beam="2">  1       21 0.56834317E-01 0.51958166E+03</pdfrwt>
<totfact> 0.68559922E+02</totfact>
</mgrwt>
</event>
<event>
 4    1  0.4840996E-002  0.4635496E+03  0.7818608E-02  0.1023757E+00
         21   -1    0    0  503  502  0.00000000000E+00  0.00000000000E+00  0.74423245500E+03  0.74423245500E+03  0.00000000000E+00 0. -1.
         21   -1    0    0  501  503 -0.00000000000E+00 -0.00000000000E+00 -0.33927746809E+03  0.33927746809E+03  0.00000000000E+00 0. -1.
    9000005    1    1    2  501    0 -0.88281759132E+02 -0.21698982760E+03 -0.66437141458E+01  0.46359723167E+03  0.40000000000E+03 0. -1.
   -9000005    1    1    2    0  502  0.88281759132E+02  0.21698982760E+03  0.41159870106E+03  0.61991269142E+03  0.40000000000E+03 0. -1.
<mgrwt>
<rscale>  2 0.46354962E+03</rscale>
<asrwt>0</asrwt>
<pdfrwt beam="1">  1       21 0.11449730E+00 0.46354962E+03</pdfrwt>
<pdfrwt beam="2">  1       21 0.52196534E-01 0.46354962E+03</pdfrwt>
<totfact> 0.17637666E+03</totfact>
</mgrwt>
</event>
<event>
 4    1  0.4840996E-002  0.4366884E+03  0.7818608E-02  0.1031768E+00
         21   -1    0    0  501  502  0.00000000000E+00  0.00000000000E+00  0.83243971429E+03  0.83243971429E+03  0.00000000000E+00 0. -1.
         21   -1    0    0  502  503 -0.00000000000E+00 -0.00000000000E+00 -0.53633964332E+03  0.53633964332E+03  0.00000000000E+00 0. -1.
    9000005    1    1    2  501    0 -0.14362634284E+03 -0.10034041968E+03  0.66605633766E+03  0.79644696692E+03  0.40000000000E+03 0. -1.
   -9000005    1    1    2    0  503  0.14362634284E+03  0.10034041968E+03 -0.36995626669E+03  0.57233239069E+03  0.40000000000E+03 0. -1.
<mgrwt>
<rscale>  2 0.43668836E+03</rscale>
<asrwt>0</asrwt>
<pdfrwt beam="1">  1       21 0.12806765E+00 0.43668836E+03</pdfrwt>
<pdfrwt beam="2">  1       21 0.82513791E-01 0.43668836E+03</pdfrwt>
<totfact> 0.48348269E+02</totfact>
</mgrwt>
</event>
<event>
 4    1  0.4840996E-002  0.4025009E+03  0.7818608E-02  0.1042917E+00
         21   -1    0    0  503  502  0.00000000000E+00  0.00000000000E+00  0.12559473474E+04  0.12559473474E+04  0.00000000000E+00 0. -1.
         21   -1    0    0  501  503 -0.00000000000E+00 -0.00000000000E+00 -0.17416534387E+03  0.17416534387E+03  0.00000000000E+00 0. -1.
    9000005    1    1    2  501    0  0.37094595402E+02  0.25118704758E+02  0.17672341618E+03  0.43958858511E+03  0.40000000000E+03 0. -1.
   -9000005    1    1    2    0  502 -0.37094595402E+02 -0.25118704758E+02  0.90505858736E+03  0.99052410617E+03  0.40000000000E+03 0. -1.
<mgrwt>
<rscale>  2 0.40250088E+03</rscale>
<asrwt>0</asrwt>
<pdfrwt beam="1">  1       21 0.19322266E+00 0.40250088E+03</pdfrwt>
<pdfrwt beam="2">  1       21 0.26794669E-01 0.40250088E+03</pdfrwt>
<totfact> 0.16997278E+03</totfact>
</mgrwt>
</event>
<event>
 4    1  0.4840996E-002  0.4990679E+03  0.7818608E-02  0.1014023E+00
         21   -1    0    0  503  502  0.00000000000E+00  0.00000000000E+00  0.12515519552E+03  0.12515519552E+03  0.00000000000E+00 0. -1.
         21   -1    0    0  501  503 -0.00000000000E+00 -0.00000000000E+00 -0.20438778777E+04  0.20438778777E+04  0.00000000000E+00 0. -1.
    9000005    1    1    2  501    0  0.28296657175E+03 -0.94861169976E+02 -0.11353138425E+04  0.12401637970E+04  0.40000000000E+03 0. -1.
   -9000005    1    1    2    0  502 -0.28296657175E+03  0.94861169976E+02 -0.78340883970E+03  0.92886927628E+03  0.40000000000E+03 0. -1.
<mgrwt>
<rscale>  2 0.49906785E+03</rscale>
<asrwt>0</asrwt>
<pdfrwt beam="1">  1       21 0.19254647E-01 0.49906785E+03</pdfrwt>
<pdfrwt beam="2">  1       21 0.31444272E+00 0.49906785E+03</pdfrwt>
<totfact> 0.54032912E+02</totfact>
</mgrwt>
</event>
<event>
 4    1  0.4840996E-002  0.4090688E+03  0.7818608E-02  0.1040684E+00
         21   -1    0    0  501  502  0.00000000000E+00  0.00000000000E+00  0.32746079790E+03  0.32746079790E+03  0.00000000000E+00 0. -1.
         21   -1    0    0  502  503 -0.00000000000E+00 -0.00000000000E+00 -0.59497924090E+03  0.59497924090E+03  0.00000000000E+00 0. -1.
    9000005    1    1    2  501    0 -0.13327786751E+01  0.85647593920E+02  0.39503511492E+02  0.41097179230E+03  0.40000000000E+03 0. -1.
   -9000005    1    1    2    0  503  0.13327786751E+01 -0.85647593920E+02 -0.30702195449E+03  0.51146824650E+03  0.40000000000E+03 0. -1.
<mgrwt>
<rscale>  2 0.40906880E+03</rscale>
<asrwt>0</asrwt>
<pdfrwt beam="1">  1       21 0.50378584E-01 0.40906880E+03</pdfrwt>
<pdfrwt beam="2">  1       21 0.91535268E-01 0.40906880E+03</pdfrwt>
<totfact> 0.33533231E+03</totfact>
</mgrwt>
</event>
<event>
 4    1  0.4840996E-002  0.4522969E+03  0.7818608E-02  0.1027039E+00
         21   -1    0    0  503  502  0.00000000000E+00  0.00000000000E+00  0.44953104118E+03  0.44953104118E+03  0.00000000000E+00 0.  1.
         21   -1    0    0  501  503 -0.00000000000E+00 -0.00000000000E+00 -0.72332132327E+03  0.72332132327E+03  0.00000000000E+00 0.  1.
    9000005    1    1    2  501    0 -0.17941160532E+03  0.11128321566E+03 -0.49401232961E+03  0.66979150489E+03  0.40000000000E+03 0.  1.
   -9000005    1    1    2    0  502  0.17941160532E+03 -0.11128321566E+03  0.22022204752E+03  0.50306085956E+03  0.40000000000E+03 0.  1.
<mgrwt>
<rscale>  2 0.45229689E+03</rscale>
<asrwt>0</asrwt>
<pdfrwt beam="1">  1       21 0.69158621E-01 0.45229689E+03</pdfrwt>
<pdfrwt beam="2">  1       21 0.11128020E+00 0.45229689E+03</pdfrwt>
<totfact> 0.10260998E+03</totfact>
</mgrwt>
</event>
<event>
 4    1  0.4840996E-002  0.4784897E+03  0.7818608E-02  0.1019551E+00
         21   -1    0    0  503  502  0.00000000000E+00  0.00000000000E+00  0.52583824085E+03  0.52583824085E+03  0.00000000000E+00 0. -1.
         21   -1    0    0  501  503 -0.00000000000E+00 -0.00000000000E+00 -0.43560518613E+03  0.43560518613E+03  0.00000000000E+00 0. -1.
    9000005    1    1    2  501    0  0.25354887451E+03 -0.68303775954E+02  0.34803231689E+02  0.47975379364E+03  0.40000000000E+03 0. -1.
   -9000005    1    1    2    0  502 -0.25354887451E+03  0.68303775954E+02  0.55429823029E+02  0.48168963333E+03  0.40000000000E+03 0. -1.
<mgrwt>
<rscale>  2 0.47848975E+03</rscale>
<asrwt>0</asrwt>
<pdfrwt beam="1">  1       21 0.80898191E-01 0.47848975E+03</pdfrwt>
<pdfrwt beam="2">  1       21 0.67016183E-01 0.47848975E+03</pdfrwt>
<totfact> 0.23453908E+03</totfact>
</mgrwt>
</event>
<event>
 4    1  0.4840996E-002  0.4364034E+03  0.7818608E-02  0.1031856E+00
         21   -1    0    0  503  502  0.00000000000E+00  0.00000000000E+00  0.11536133773E+04  0.11536133773E+04  0.00000000000E+00 0.  1.
         21   -1    0    0  501  503 -0.00000000000E+00 -0.00000000000E+00 -0.18850594250E+03  0.18850594250E+03  0.00000000000E+00 0.  1.
    9000005    1    1    2  501    0  0.16961651945E+03  0.40965508855E+02  0.24603186134E+03  0.50097865561E+03  0.40000000000E+03 0.  1.
   -9000005    1    1    2    0  502 -0.16961651945E+03 -0.40965508855E+02  0.71907557343E+03  0.84114066415E+03  0.40000000000E+03 0.  1.
<mgrwt>
<rscale>  2 0.43640341E+03</rscale>
<asrwt>0</asrwt>
<pdfrwt beam="1">  1       21 0.17747898E+00 0.43640341E+03</pdfrwt>
<pdfrwt beam="2">  1       21 0.29000915E-01 0.43640341E+03</pdfrwt>
<totfact> 0.18407166E+03</totfact>
</mgrwt>
</event>
<event>
 4    1  0.4840996E-002  0.4091839E+03  0.7818608E-02  0.1040645E+00
         21   -1    0    0  503  502  0.00000000000E+00  0.00000000000E+00  0.98786511560E+02  0.98786511560E+02  0.00000000000E+00 0.  1.
         21   -1    0    0  501  503 -0.00000000000E+00 -0.00000000000E+00 -0.17010967903E+04  0.17010967903E+04  0.00000000000E+00 0.  1.
    9000005    1    1    2  501    0  0.57463193198E+02 -0.64260884245E+02 -0.85555067326E+03  0.94836619210E+03  0.40000000000E+03 0.  1.
   -9000005    1    1    2    0  502 -0.57463193198E+02  0.64260884245E+02 -0.74675960544E+03  0.85151710972E+03  0.40000000000E+03 0.  1.
<mgrwt>
<rscale>  2 0.40918392E+03</rscale>
<asrwt>0</asrwt>
<pdfrwt beam="1">  1       21 0.15197926E-01 0.40918392E+03</pdfrwt>
<pdfrwt beam="2">  1       21 0.26170719E+00 0.40918392E+03</pdfrwt>
<totfact> 0.18363424E+03</totfact>
</mgrwt>
</event>
<event>
 4    1  0.4840996E-002  0.4751626E+03  0.7818608E-02  0.1020473E+00
         21   -1    0    0  501  502  0.00000000000E+00  0.00000000000E+00  0.22577524376E+03  0.22577524376E+03  0.00000000000E+00 0. -1.
         21   -1    0    0  502  503 -0.00000000000E+00 -0.00000000000E+00 -0.15187095819E+04  0.15187095819E+04  0.00000000000E+00 0. -1.
    9000005    1    1    2  501    0  0.14041078345E+03  0.21462591920E+03 -0.13672081674E+03  0.49444115427E+03  0.40000000000E+03 0. -1.
   -9000005    1    1    2    0  503 -0.14041078345E+03 -0.21462591920E+03 -0.11562135214E+04  0.12500436714E+04  0.40000000000E+03 0. -1.
<mgrwt>
<rscale>  2 0.47516258E+03</rscale>
<asrwt>0</asrwt>
<pdfrwt beam="1">  1       21 0.34734654E-01 0.47516258E+03</pdfrwt>
<pdfrwt beam="2">  1       21 0.23364762E+00 0.47516258E+03</pdfrwt>
<totfact> 0.53540665E+02</totfact>
</mgrwt>
</event>
<event>
 4    1  0.4840996E-002  0.4327973E+03  0.7818608E-02  0.1032980E+00
         21   -1    0    0  503  502  0.00000000000E+00  0.00000000000E+00  0.15281122608E+04  0.15281122608E+04  0.00000000000E+00 0.  1.
         21   -1    0    0  501  503 -0.00000000000E+00 -0.00000000000E+00 -0.12853482338E+03  0.12853482338E+03  0.00000000000E+00 0.  1.
    9000005    1    1    2  501    0 -0.11660499629E+03  0.11711865867E+03  0.52147547974E+03  0.67767999922E+03  0.40000000000E+03 0. -1.
   -9000005    1    1    2    0  502  0.11660499629E+03 -0.11711865867E+03  0.87810195766E+03  0.97896708495E+03  0.40000000000E+03 0. -1.
<mgrwt>
<rscale>  2 0.43279730E+03</rscale>
<asrwt>0</asrwt>
<pdfrwt beam="1">  1       21 0.23509418E+00 0.43279730E+03</pdfrwt>
<pdfrwt beam="2">  1       21 0.19774589E-01 0.43279730E+03</pdfrwt>
<totfact> 0.16132906E+03</totfact>
</mgrwt>
</event>
<event>
 4    1  0.4840996E-002  0.4265103E+03  0.7818608E-02  0.1034968E+00
         21   -1    0    0  501  502  0.00000000000E+00  0.00000000000E+00  0.24180835340E+04  0.24180835340E+04  0.00000000000E+00 0. -1.
         21   -1    0    0  502  503 -0.00000000000E+00 -0.00000000000E+00 -0.10826196117E+03  0.10826196117E+03  0.00000000000E+00 0. -1.
    9000005    1    1    2  501    0 -0.74730602193E+02 -0.12777476152E+03  0.18526541445E+04  0.19011150496E+04  0.40000000000E+03 0. -1.
   -9000005    1    1    2    0  503  0.74730602193E+02  0.12777476152E+03  0.45716742836E+03  0.62523044563E+03  0.40000000000E+03 0. -1.
<mgrwt>
<rscale>  2 0.42651032E+03</rscale>
<asrwt>0</asrwt>
<pdfrwt beam="1">  1       21 0.37201281E+00 0.42651032E+03</pdfrwt>
<pdfrwt beam="2">  1       21 0.16655688E-01 0.42651032E+03</pdfrwt>
<totfact> 0.32919425E+02</totfact>
</mgrwt>
</event>
<event>
 4    1  0.4840996E-002  0.5019294E+03  0.7818608E-02  0.1013277E+00
         21   -1    0    0  503  502  0.00000000000E+00  0.00000000000E+00  0.12327007462E+04  0.12327007462E+04  0.00000000000E+00 0.  1.
         21   -1    0    0  501  503 -0.00000000000E+00 -0.00000000000E+00 -0.33906397792E+03  0.33906397792E+03  0.00000000000E+00 0.  1.
    9000005    1    1    2  501    0  0.23352525456E+02  0.30230415827E+03 -0.48498162275E+02  0.50426700893E+03  0.40000000000E+03 0.  1.
   -9000005    1    1    2    0  502 -0.23352525456E+02 -0.30230415827E+03  0.94213493051E+03  0.10674977151E+04  0.40000000000E+03 0.  1.
<mgrwt>
<rscale>  2 0.50192942E+03</rscale>
<asrwt>0</asrwt>
<pdfrwt beam="1">  1       21 0.18964627E+00 0.50192942E+03</pdfrwt>
<pdfrwt beam="2">  1       21 0.52163689E-01 0.50192942E+03</pdfrwt>
<totfact> 0.43980791E+02</totfact>
</mgrwt>
</event>
<event>
 4    1  0.4840996E-002  0.5781527E+03  0.7818608E-02  0.9951798E-01
         21   -1    0    0  501  502  0.00000000000E+00  0.00000000000E+00  0.58965850259E+03  0.58965850259E+03  0.00000000000E+00 0. -1.
         21   -1    0    0  502  503 -0.00000000000E+00 -0.00000000000E+00 -0.62347192904E+03  0.62347192904E+03  0.00000000000E+00 0.  1.
    9000005    1    1    2  501    0  0.36895052801E+03 -0.19528454613E+03  0.16585249197E+03  0.60147119230E+03  0.40000000000E+03 0. -1.
   -9000005    1    1    2    0  503 -0.36895052801E+03  0.19528454613E+03 -0.19966591843E+03  0.61165923933E+03  0.40000000000E+03 0.  1.
<mgrwt>
<rscale>  2 0.57815270E+03</rscale>
<asrwt>0</asrwt>
<pdfrwt beam="1">  1       21 0.90716693E-01 0.57815270E+03</pdfrwt>
<pdfrwt beam="2">  1       21 0.95918758E-01 0.57815270E+03</pdfrwt>
<totfact> 0.75337698E+02</totfact>
</mgrwt>
</event>
<event>
 4    1  0.4840996E-002  0.4494821E+03  0.7818608E-02  0.1027877E+00
         21   -1    0    0  503  502  0.00000000000E+00  0.00000000000E+00  0.40324163521E+03  0.40324163521E+03  0.00000000000E+00 0. -1.
         21   -1    0    0  501  503 -0.00000000000E+00 -0.00000000000E+00 -0.88652158561E+03  0.88652158561E+03  0.00000000000E+00 0. -1.
    9000005    1    1    2  501    0  0.20174713767E+03  0.36499958692E+02 -0.66689121003E+03  0.80422511809E+03  0.40000000000E+03 0. -1.
   -9000005    1    1    2    0  502 -0.20174713767E+03 -0.36499958692E+02  0.18361125963E+03  0.48553810273E+03  0.40000000000E+03 0. -1.
<mgrwt>
<rscale>  2 0.44948210E+03</rscale>
<asrwt>0</asrwt>
<pdfrwt beam="1">  1       21 0.62037175E-01 0.44948210E+03</pdfrwt>
<pdfrwt beam="2">  1       21 0.13638794E+00 0.44948210E+03</pdfrwt>
<totfact> 0.77771386E+02</totfact>
</mgrwt>
</event>
<event>
 4    1  0.4840996E-002  0.4478150E+03  0.7818608E-02  0.1028376E+00
         21   -1    0    0  501  502  0.00000000000E+00  0.00000000000E+00  0.44437382538E+03  0.44437382538E+03  0.00000000000E+00 0.  1.
         21   -1    0    0  502  503 -0.00000000000E+00 -0.00000000000E+00 -0.70486665833E+03  0.70486665833E+03  0.00000000000E+00 0. -1.
    9000005    1    1    2  501    0 -0.10411073898E+03 -0.17233469850E+03  0.21441143889E+03  0.49649829748E+03  0.40000000000E+03 0.  1.
   -9000005    1    1    2    0  503  0.10411073898E+03  0.17233469850E+03 -0.47490427184E+03  0.65274218623E+03  0.40000000000E+03 0. -1.
<mgrwt>
<rscale>  2 0.44781502E+03</rscale>
<asrwt>0</asrwt>
<pdfrwt beam="1">  1       21 0.68365204E-01 0.44781502E+03</pdfrwt>
<pdfrwt beam="2">  1       21 0.10844102E+00 0.44781502E+03</pdfrwt>
<totfact> 0.11248257E+03</totfact>
</mgrwt>
</event>
<event>
 4    1  0.4840996E-002  0.6040981E+03  0.7818608E-02  0.9896940E-01
         21   -1    0    0  503  502  0.00000000000E+00  0.00000000000E+00  0.11572604532E+04  0.11572604532E+04  0.00000000000E+00 0. -1.
         21   -1    0    0  501  503 -0.00000000000E+00 -0.00000000000E+00 -0.55626005569E+03  0.55626005569E+03  0.00000000000E+00 0. -1.
    9000005    1    1    2  501    0 -0.64642664735E+02 -0.44805789828E+03 -0.26333697076E+03  0.65899993512E+03  0.40000000000E+03 0. -1.
   -9000005    1    1    2    0  502  0.64642664735E+02  0.44805789828E+03  0.86433736823E+03  0.10545205737E+04  0.40000000000E+03 0. -1.
<mgrwt>
<rscale>  2 0.60409813E+03</rscale>
<asrwt>0</asrwt>
<pdfrwt beam="1">  1       21 0.17804007E+00 0.60409813E+03</pdfrwt>
<pdfrwt beam="2">  1       21 0.85578471E-01 0.60409813E+03</pdfrwt>
<totfact> 0.16734785E+02</totfact>
</mgrwt>
</event>
<event>
 4    1  0.4840996E-002  0.5237481E+03  0.7818608E-02  0.1007760E+00
         21   -1    0    0  503  502  0.00000000000E+00  0.00000000000E+00  0.16141606682E+03  0.16141606682E+03  0.00000000000E+00 0. -1.
         21   -1    0    0  501  503 -0.00000000000E+00 -0.00000000000E+00 -0.23695453995E+04  0.23695453995E+04  0.00000000000E+00 0. -1.
    9000005    1    1    2  501    0 -0.30575085039E+03 -0.14432087844E+03 -0.17770479231E+04  0.18526228487E+04  0.40000000000E+03 0. -1.
   -9000005    1    1    2    0  502  0.30575085039E+03  0.14432087844E+03 -0.43108140950E+03  0.67833861757E+03  0.40000000000E+03 0. -1.
<mgrwt>
<rscale>  2 0.52374813E+03</rscale>
<asrwt>0</asrwt>
<pdfrwt beam="1">  1       21 0.24833242E-01 0.52374813E+03</pdfrwt>
<pdfrwt beam="2">  1       21 0.36454544E+00 0.52374813E+03</pdfrwt>
<totfact> 0.16105072E+02</totfact>
</mgrwt>
</event>
<event>
 4    1  0.4840996E-002  0.5154435E+03  0.7818608E-02  0.1009825E+00
         21   -1    0    0  501  502  0.00000000000E+00  0.00000000000E+00  0.42068292890E+03  0.42068292890E+03  0.00000000000E+00 0. -1.
         21   -1    0    0  502  503 -0.00000000000E+00 -0.00000000000E+00 -0.92315201664E+03  0.92315201664E+03  0.00000000000E+00 0.  1.
    9000005    1    1    2  501    0  0.28451698566E+03  0.15726435923E+03  0.12640297326E+03  0.53071621933E+03  0.40000000000E+03 0. -1.
   -9000005    1    1    2    0  503 -0.28451698566E+03 -0.15726435923E+03 -0.62887206099E+03  0.81311872621E+03  0.40000000000E+03 0.  1.
<mgrwt>
<rscale>  2 0.51544349E+03</rscale>
<asrwt>0</asrwt>
<pdfrwt beam="1">  1       21 0.64720451E-01 0.51544349E+03</pdfrwt>
<pdfrwt beam="2">  1       21 0.14202339E+00 0.51544349E+03</pdfrwt>
<totfact> 0.61867008E+02</totfact>
</mgrwt>
</event>
<event>
 4    1  0.4840996E-002  0.4608144E+03  0.7818608E-02  0.1024545E+00
         21   -1    0    0  501  502  0.00000000000E+00  0.00000000000E+00  0.83104285016E+03  0.83104285016E+03  0.00000000000E+00 0.  1.
         21   -1    0    0  502  503 -0.00000000000E+00 -0.00000000000E+00 -0.29115655479E+03  0.29115655479E+03  0.00000000000E+00 0. -1.
    9000005    1    1    2  501    0 -0.22866125083E+03  0.79992268435E+01  0.73647451466E+02  0.46666251443E+03  0.40000000000E+03 0. -1.
   -9000005    1    1    2    0  503  0.22866125083E+03 -0.79992268435E+01  0.46623884391E+03  0.65553689052E+03  0.40000000000E+03 0.  1.
<mgrwt>
<rscale>  2 0.46081445E+03</rscale>
<asrwt>0</asrwt>
<pdfrwt beam="1">  1       21 0.12785275E+00 0.46081445E+03</pdfrwt>
<pdfrwt beam="2">  1       21 0.44793316E-01 0.46081445E+03</pdfrwt>
<totfact> 0.18430228E+03</totfact>
</mgrwt>
</event>
<event>
 4    1  0.4840996E-002  0.6566034E+03  0.7818608E-02  0.9794467E-01
         21   -1    0    0  501  502  0.00000000000E+00  0.00000000000E+00  0.20029392653E+03  0.20029392653E+03  0.00000000000E+00 0.  1.
         21   -1    0    0  502  503 -0.00000000000E+00 -0.00000000000E+00 -0.26583240957E+04  0.26583240957E+04  0.00000000000E+00 0.  1.
    9000005    1    1    2  501    0 -0.52850857613E+02  0.51801046107E+03 -0.60552171515E+03  0.89318788530E+03  0.40000000000E+03 0.  1.
   -9000005    1    1    2    0  503  0.52850857613E+02 -0.51801046107E+03 -0.18525084540E+04  0.19654301369E+04  0.40000000000E+03 0.  1.
<mgrwt>
<rscale>  2 0.65660342E+03</rscale>
<asrwt>0</asrwt>
<pdfrwt beam="1">  1       21 0.30814450E-01 0.65660342E+03</pdfrwt>
<pdfrwt beam="2">  1       21 0.40897294E+00 0.65660342E+03</pdfrwt>
<totfact> 0.51023778E+01</totfact>
</mgrwt>
</event>
<event>
 4    1  0.4840996E-002  0.5873411E+03  0.7818608E-02  0.9932023E-01
         21   -1    0    0  501  502  0.00000000000E+00  0.00000000000E+00  0.22704467095E+03  0.22704467095E+03  0.00000000000E+00 0. -1.
         21   -1    0    0  502  503 -0.00000000000E+00 -0.00000000000E+00 -0.15859131462E+04  0.15859131462E+04  0.00000000000E+00 0. -1.
    9000005    1    1    2  501    0  0.39087412995E+03 -0.17940734813E+03 -0.86508717056E+03  0.10456315769E+04  0.40000000000E+03 0. -1.
   -9000005    1    1    2    0  503 -0.39087412995E+03  0.17940734813E+03 -0.49378130465E+03  0.76732624016E+03  0.40000000000E+03 0. -1.
<mgrwt>
<rscale>  2 0.58734111E+03</rscale>
<asrwt>0</asrwt>
<pdfrwt beam="1">  1       21 0.34929950E-01 0.58734111E+03</pdfrwt>
<pdfrwt beam="2">  1       21 0.24398663E+00 0.58734111E+03</pdfrwt>
<totfact> 0.43415738E+02</totfact>
</mgrwt>
</event>
<event>
 4    1  0.4840996E-002  0.4426580E+03  0.7818608E-02  0.1029934E+00
         21   -1    0    0  501  502  0.00000000000E+00  0.00000000000E+00  0.19289859805E+03  0.19289859805E+03  0.00000000000E+00 0. -1.
         21   -1    0    0  502  503 -0.00000000000E+00 -0.00000000000E+00 -0.13041471801E+04  0.13041471801E+04  0.00000000000E+00 0.  1.
    9000005    1    1    2  501    0  0.12265918728E+03 -0.14457132613E+03 -0.20365836820E+03  0.48726058275E+03  0.40000000000E+03 0. -1.
   -9000005    1    1    2    0  503 -0.12265918728E+03  0.14457132613E+03 -0.90759021382E+03  0.10097851954E+04  0.40000000000E+03 0.  1.
<mgrwt>
<rscale>  2 0.44265804E+03</rscale>
<asrwt>0</asrwt>
<pdfrwt beam="1">  1       21 0.29676708E-01 0.44265804E+03</pdfrwt>
<pdfrwt beam="2">  1       21 0.20063802E+00 0.44265804E+03</pdfrwt>
<totfact> 0.12163003E+03</totfact>
</mgrwt>
</event>
<event>
 4    1  0.4840996E-002  0.5084622E+03  0.7818608E-02  0.1011593E+00
         21   -1    0    0  501  502  0.00000000000E+00  0.00000000000E+00  0.18811656472E+03  0.18811656472E+03  0.00000000000E+00 0. -1.
         21   -1    0    0  502  503 -0.00000000000E+00 -0.00000000000E+00 -0.26482905844E+04  0.26482905844E+04  0.00000000000E+00 0.  1.
    9000005    1    1    2  501    0  0.31305080303E+03 -0.23085977730E+02 -0.24645154296E+03  0.56504170702E+03  0.40000000000E+03 0. -1.
   -9000005    1    1    2    0  503 -0.31305080303E+03  0.23085977730E+02 -0.22137224767E+04  0.22713654421E+04  0.40000000000E+03 0.  1.
<mgrwt>
<rscale>  2 0.50846216E+03</rscale>
<asrwt>0</asrwt>
<pdfrwt beam="1">  1       21 0.28941014E-01 0.50846216E+03</pdfrwt>
<pdfrwt beam="2">  1       21 0.40742926E+00 0.50846216E+03</pdfrwt>
<totfact> 0.64180528E+01</totfact>
</mgrwt>
</event>
<event>
 4    1  0.4840996E-002  0.4080881E+03  0.7818608E-02  0.1041014E+00
         21   -1    0    0  501  502  0.00000000000E+00  0.00000000000E+00  0.17937375807E+04  0.17937375807E+04  0.00000000000E+00 0. -1.
         21   -1    0    0  502  503 -0.00000000000E+00 -0.00000000000E+00 -0.10138958859E+03  0.10138958859E+03  0.00000000000E+00 0.  1.
    9000005    1    1    2  501    0  0.63706852954E+02  0.49773188224E+02  0.11212854779E+04  0.11932380552E+04  0.40000000000E+03 0. -1.
   -9000005    1    1    2    0  503 -0.63706852954E+02 -0.49773188224E+02  0.57106251427E+03  0.70188911416E+03  0.40000000000E+03 0.  1.
<mgrwt>
<rscale>  2 0.40808814E+03</rscale>
<asrwt>0</asrwt>
<pdfrwt beam="1">  1       21 0.27595960E+00 0.40808814E+03</pdfrwt>
<pdfrwt beam="2">  1       21 0.15598400E-01 0.40808814E+03</pdfrwt>
<totfact> 0.14364941E+03</totfact>
</mgrwt>
</event>
<event>
 4    1  0.4840996E-002  0.4101214E+03  0.7818608E-02  0.1040330E+00
         21   -1    0    0  501  502  0.00000000000E+00  0.00000000000E+00  0.43390911209E+03  0.43390911209E+03  0.00000000000E+00 0.  1.
         21   -1    0    0  502  503 -0.00000000000E+00 -0.00000000000E+00 -0.38832987272E+03  0.38832987272E+03  0.00000000000E+00 0.  1.
    9000005    1    1    2  501    0  0.39719741306E+02 -0.81374955074E+02  0.40146313261E+02  0.41208162739E+03  0.40000000000E+03 0.  1.
   -9000005    1    1    2    0  503 -0.39719741306E+02  0.81374955074E+02  0.54329261105E+01  0.41015735742E+03  0.40000000000E+03 0.  1.
<mgrwt>
<rscale>  2 0.41012137E+03</rscale>
<asrwt>0</asrwt>
<pdfrwt beam="1">  1       21 0.66755248E-01 0.41012137E+03</pdfrwt>
<pdfrwt beam="2">  1       21 0.59743057E-01 0.41012137E+03</pdfrwt>
<totfact> 0.47933356E+03</totfact>
</mgrwt>
</event>
<event>
 4    1  0.4840996E-002  0.4422879E+03  0.7818608E-02  0.1030047E+00
         21   -1    0    0  501  502  0.00000000000E+00  0.00000000000E+00  0.96940640274E+03  0.96940640274E+03  0.00000000000E+00 0.  1.
         21   -1    0    0  502  503 -0.00000000000E+00 -0.00000000000E+00 -0.34780811745E+03  0.34780811745E+03  0.00000000000E+00 0.  1.
    9000005    1    1    2  501    0  0.18732286894E+03 -0.22993420404E+02  0.73753280711E+03  0.85998441624E+03  0.40000000000E+03 0.  1.
   -9000005    1    1    2    0  503 -0.18732286894E+03  0.22993420404E+02 -0.11593452182E+03  0.45723010395E+03  0.40000000000E+03 0.  1.
<mgrwt>
<rscale>  2 0.44228786E+03</rscale>
<asrwt>0</asrwt>
<pdfrwt beam="1">  1       21 0.14913945E+00 0.44228786E+03</pdfrwt>
<pdfrwt beam="2">  1       21 0.53508941E-01 0.44228786E+03</pdfrwt>
<totfact> 0.84745263E+02</totfact>
</mgrwt>
</event>
<event>
 4    1  0.4840996E-002  0.6361175E+03  0.7818608E-02  0.9833183E-01
         21   -1    0    0  503  502  0.00000000000E+00  0.00000000000E+00  0.33872738810E+03  0.33872738810E+03  0.00000000000E+00 0.  1.
         21   -1    0    0  501  503 -0.00000000000E+00 -0.00000000000E+00 -0.11955690957E+04  0.11955690957E+04  0.00000000000E+00 0. -1.
    9000005    1    1    2  501    0 -0.42926043616E+03  0.24572532983E+03 -0.40663707546E+03  0.75498289445E+03  0.40000000000E+03 0. -1.
   -9000005    1    1    2    0  502  0.42926043616E+03 -0.24572532983E+03 -0.45020463218E+03  0.77931358939E+03  0.40000000000E+03 0. -1.
<mgrwt>
<rscale>  2 0.63611749E+03</rscale>
<asrwt>0</asrwt>
<pdfrwt beam="1">  1       21 0.52111907E-01 0.63611749E+03</pdfrwt>
<pdfrwt beam="2">  1       21 0.18393370E+00 0.63611749E+03</pdfrwt>
<totfact> 0.45906257E+02</totfact>
</mgrwt>
</event>
<event>
 4    1  0.4840996E-002  0.4145692E+03  0.7818608E-02  0.1038848E+00
         21   -1    0    0  501  502  0.00000000000E+00  0.00000000000E+00  0.36849579110E+03  0.36849579110E+03  0.00000000000E+00 0.  1.
         21   -1    0    0  502  503 -0.00000000000E+00 -0.00000000000E+00 -0.46653231609E+03  0.46653231609E+03  0.00000000000E+00 0.  1.
    9000005    1    1    2  501    0 -0.69123199880E+02  0.84199815189E+02 -0.42073184675E+02  0.41669866631E+03  0.40000000000E+03 0. -1.
   -9000005    1    1    2    0  503  0.69123199880E+02 -0.84199815189E+02 -0.55963340317E+02  0.41832944087E+03  0.40000000000E+03 0. -1.
<mgrwt>
<rscale>  2 0.41456920E+03</rscale>
<asrwt>0</asrwt>
<pdfrwt beam="1">  1       21 0.56691660E-01 0.41456920E+03</pdfrwt>
<pdfrwt beam="2">  1       21 0.71774202E-01 0.41456920E+03</pdfrwt>
<totfact> 0.45590698E+03</totfact>
</mgrwt>
</event>
<event>
 4    1  0.4840996E-002  0.4945787E+03  0.7818608E-02  0.1015204E+00
         21   -1    0    0  501  502  0.00000000000E+00  0.00000000000E+00  0.46814266518E+03  0.46814266518E+03  0.00000000000E+00 0.  1.
         21   -1    0    0  502  503 -0.00000000000E+00 -0.00000000000E+00 -0.54270520724E+03  0.54270520724E+03  0.00000000000E+00 0.  1.
    9000005    1    1    2  501    0  0.21564576625E+03  0.19520511460E+03  0.60222860620E+02  0.49823179967E+03  0.40000000000E+03 0.  1.
   -9000005    1    1    2    0  503 -0.21564576625E+03 -0.19520511460E+03 -0.13478540267E+03  0.51261607275E+03  0.40000000000E+03 0.  1.
<mgrwt>
<rscale>  2 0.49457874E+03</rscale>
<asrwt>0</asrwt>
<pdfrwt beam="1">  1       21 0.72021948E-01 0.49457874E+03</pdfrwt>
<pdfrwt beam="2">  1       21 0.83493109E-01 0.49457874E+03</pdfrwt>
<totfact> 0.18424505E+03</totfact>
</mgrwt>
</event>
<event>
 4    1  0.4840996E-002  0.4620454E+03  0.7818608E-02  0.1024190E+00
         21   -1    0    0  501  502  0.00000000000E+00  0.00000000000E+00  0.33766567312E+03  0.33766567312E+03  0.00000000000E+00 0. -1.
         21   -1    0    0  502  503 -0.00000000000E+00 -0.00000000000E+00 -0.14994054486E+04  0.14994054486E+04  0.00000000000E+00 0. -1.
    9000005    1    1    2  501    0  0.58273098876E+02 -0.22380834711E+03  0.11766367500E+03  0.47679206233E+03  0.40000000000E+03 0. -1.
   -9000005    1    1    2    0  503 -0.58273098876E+02  0.22380834711E+03 -0.12794034505E+04  0.13602790594E+04  0.40000000000E+03 0. -1.
<mgrwt>
<rscale>  2 0.46204538E+03</rscale>
<asrwt>0</asrwt>
<pdfrwt beam="1">  1       21 0.51948564E-01 0.46204538E+03</pdfrwt>
<pdfrwt beam="2">  1       21 0.23067777E+00 0.46204538E+03</pdfrwt>
<totfact> 0.24357158E+02</totfact>
</mgrwt>
</event>
<event>
 4    1  0.4840996E-002  0.8364868E+03  0.7818608E-02  0.9508656E-01
         21   -1    0    0  501  502  0.00000000000E+00  0.00000000000E+00  0.41174156581E+03  0.41174156581E+03  0.00000000000E+00 0. -1.
         21   -1    0    0  502  503 -0.00000000000E+00 -0.00000000000E+00 -0.19417964284E+04  0.19417964284E+04  0.00000000000E+00 0. -1.
    9000005    1    1    2  501    0  0.67226544615E+03  0.29625888924E+03 -0.34925087343E+03  0.90646915674E+03  0.40000000000E+03 0. -1.
   -9000005    1    1    2    0  503 -0.67226544615E+03 -0.29625888924E+03 -0.11808039891E+04  0.14470688375E+04  0.40000000000E+03 0. -1.
<mgrwt>
<rscale>  2 0.83648680E+03</rscale>
<asrwt>0</asrwt>
<pdfrwt beam="1">  1       21 0.63344858E-01 0.83648680E+03</pdfrwt>
<pdfrwt beam="2">  1       21 0.29873790E+00 0.83648680E+03</pdfrwt>
<totfact> 0.51117727E+01</totfact>
</mgrwt>
</event>
<event>
 4    1  0.4840996E-002  0.4318587E+03  0.7818608E-02  0.1033274E+00
         21   -1    0    0  501  502  0.00000000000E+00  0.00000000000E+00  0.43810801507E+03  0.43810801507E+03  0.00000000000E+00 0. -1.
         21   -1    0    0  502  503 -0.00000000000E+00 -0.00000000000E+00 -0.84866298778E+03  0.84866298778E+03  0.00000000000E+00 0. -1.
    9000005    1    1    2  501    0 -0.80911556059E+02  0.14126315964E+03  0.24893132005E+03  0.49846641038E+03  0.40000000000E+03 0. -1.
   -9000005    1    1    2    0  503  0.80911556059E+02 -0.14126315964E+03 -0.65948629276E+03  0.78830459247E+03  0.40000000000E+03 0. -1.
<mgrwt>
<rscale>  2 0.43185873E+03</rscale>
<asrwt>0</asrwt>
<pdfrwt beam="1">  1       21 0.67401234E-01 0.43185873E+03</pdfrwt>
<pdfrwt beam="2">  1       21 0.13056354E+00 0.43185873E+03</pdfrwt>
<totfact> 0.73070997E+02</totfact>
</mgrwt>
</event>
<event>
 4    1  0.4840996E-002  0.4215891E+03  0.7818608E-02  0.1036550E+00
         21   -1    0    0  501  502  0.00000000000E+00  0.00000000000E+00  0.26702090158E+03  0.26702090158E+03  0.00000000000E+00 0.  1.
         21   -1    0    0  502  503 -0.00000000000E+00 -0.00000000000E+00 -0.73591520122E+03  0.73591520122E+03  0.00000000000E+00 0.  1.
    9000005    1    1    2  501    0  0.10178897263E+03  0.85885699916E+02 -0.38942110511E+03  0.57392172419E+03  0.40000000000E+03 0.  1.
   -9000005    1    1    2    0  503 -0.10178897263E+03 -0.85885699916E+02 -0.79473194530E+02  0.42901437860E+03  0.40000000000E+03 0.  1.
<mgrwt>
<rscale>  2 0.42158908E+03</rscale>
<asrwt>0</asrwt>
<pdfrwt beam="1">  1       21 0.41080139E-01 0.42158908E+03</pdfrwt>
<pdfrwt beam="2">  1       21 0.11321772E+00 0.42158908E+03</pdfrwt>
<totfact> 0.30499321E+03</totfact>
</mgrwt>
</event>
<event>
 4    1  0.4840996E-002  0.4762751E+03  0.7818608E-02  0.1020164E+00
         21   -1    0    0  501  502  0.00000000000E+00  0.00000000000E+00  0.27186985809E+03  0.27186985809E+03  0.00000000000E+00 0.  1.
         21   -1    0    0  502  503 -0.00000000000E+00 -0.00000000000E+00 -0.94678465940E+03  0.94678465940E+03  0.00000000000E+00 0. -1.
    9000005    1    1    2  501    0 -0.11864265181E+03  0.22969959818E+03 -0.12749033585E+03  0.49304337534E+03  0.40000000000E+03 0.  1.
   -9000005    1    1    2    0  503  0.11864265181E+03 -0.22969959818E+03 -0.54742446546E+03  0.72561114215E+03  0.40000000000E+03 0. -1.
<mgrwt>
<rscale>  2 0.47627511E+03</rscale>
<asrwt>0</asrwt>
<pdfrwt beam="1">  1       21 0.41826133E-01 0.47627511E+03</pdfrwt>
<pdfrwt beam="2">  1       21 0.14565918E+00 0.47627511E+03</pdfrwt>
<totfact> 0.14982131E+03</totfact>
</mgrwt>
</event>
<event>
 4    1  0.4840996E-002  0.4172648E+03  0.7818608E-02  0.1037960E+00
         21   -1    0    0  501  502  0.00000000000E+00  0.00000000000E+00  0.61864525397E+03  0.61864525397E+03  0.00000000000E+00 0. -1.
         21   -1    0    0  502  503 -0.00000000000E+00 -0.00000000000E+00 -0.37066248682E+03  0.37066248682E+03  0.00000000000E+00 0. -1.
    9000005    1    1    2  501    0 -0.86621977171E+02 -0.81280908805E+02  0.36668336154E+03  0.55548775027E+03  0.40000000000E+03 0. -1.
   -9000005    1    1    2    0  503  0.86621977171E+02  0.81280908805E+02 -0.11870059439E+03  0.43381999052E+03  0.40000000000E+03 0. -1.
<mgrwt>
<rscale>  2 0.41726485E+03</rscale>
<asrwt>0</asrwt>
<pdfrwt beam="1">  1       21 0.95176193E-01 0.41726485E+03</pdfrwt>
<pdfrwt beam="2">  1       21 0.57024998E-01 0.41726485E+03</pdfrwt>
<totfact> 0.23346915E+03</totfact>
</mgrwt>
</event>
<event>
 4    1  0.4840996E-002  0.5797349E+03  0.7818608E-02  0.9948365E-01
         21   -1    0    0  501  502  0.00000000000E+00  0.00000000000E+00  0.87427565996E+03  0.87427565996E+03  0.00000000000E+00 0.  1.
         21   -1    0    0  502  503 -0.00000000000E+00 -0.00000000000E+00 -0.71607558712E+03  0.71607558712E+03  0.00000000000E+00 0.  1.
    9000005    1    1    2  501    0 -0.25677568510E+03  0.33190186928E+03  0.62025870740E+03  0.84900734236E+03  0.40000000000E+03 0.  1.
   -9000005    1    1    2    0  503  0.25677568510E+03 -0.33190186928E+03 -0.46205863456E+03  0.74134390471E+03  0.40000000000E+03 0.  1.
<mgrwt>
<rscale>  2 0.57973494E+03</rscale>
<asrwt>0</asrwt>
<pdfrwt beam="1">  1       21 0.13450395E+00 0.57973494E+03</pdfrwt>
<pdfrwt beam="2">  1       21 0.11016547E+00 0.57973494E+03</pdfrwt>
<totfact> 0.19943755E+02</totfact>
</mgrwt>
</event>
<event>
 4    1  0.4840996E-002  0.4035079E+03  0.7818608E-02  0.1042572E+00
         21   -1    0    0  503  502  0.00000000000E+00  0.00000000000E+00  0.16622887946E+03  0.16622887946E+03  0.00000000000E+00 0. -1.
         21   -1    0    0  501  503 -0.00000000000E+00 -0.00000000000E+00 -0.14748887697E+04  0.14748887697E+04  0.00000000000E+00 0. -1.
    9000005    1    1    2  501    0 -0.29840930888E+02  0.43911088801E+02 -0.11298948704E+04  0.11997837651E+04  0.40000000000E+03 0. -1.
   -9000005    1    1    2    0  502  0.29840930888E+02 -0.43911088801E+02 -0.17876501981E+03  0.44133388402E+03  0.40000000000E+03 0. -1.
<mgrwt>
<rscale>  2 0.40350795E+03</rscale>
<asrwt>0</asrwt>
<pdfrwt beam="1">  1       21 0.25573674E-01 0.40350795E+03</pdfrwt>
<pdfrwt beam="2">  1       21 0.22690596E+00 0.40350795E+03</pdfrwt>
<totfact> 0.11238743E+03</totfact>
</mgrwt>
</event>
<event>
 4    1  0.4840996E-002  0.5701903E+03  0.7818608E-02  0.9969258E-01
         21   -1    0    0  503  502  0.00000000000E+00  0.00000000000E+00  0.24209752215E+03  0.24209752215E+03  0.00000000000E+00 0.  1.
         21   -1    0    0  501  503 -0.00000000000E+00 -0.00000000000E+00 -0.13471263560E+04  0.13471263560E+04  0.00000000000E+00 0.  1.
    9000005    1    1    2  501    0  0.54208339819E+02  0.40271379025E+03 -0.59693102199E+03  0.82549596363E+03  0.40000000000E+03 0.  1.
   -9000005    1    1    2    0  502 -0.54208339819E+02 -0.40271379025E+03 -0.50809781182E+03  0.76372791447E+03  0.40000000000E+03 0.  1.
<mgrwt>
<rscale>  2 0.57019027E+03</rscale>
<asrwt>0</asrwt>
<pdfrwt beam="1">  1       21 0.37245773E-01 0.57019027E+03</pdfrwt>
<pdfrwt beam="2">  1       21 0.20725020E+00 0.57019027E+03</pdfrwt>
<totfact> 0.65969988E+02</totfact>
</mgrwt>
</event>
<event>
 4    1  0.4840996E-002  0.4382600E+03  0.7818608E-02  0.1031282E+00
         21   -1    0    0  503  502  0.00000000000E+00  0.00000000000E+00  0.60177100398E+03  0.60177100398E+03  0.00000000000E+00 0.  1.
         21   -1    0    0  501  503 -0.00000000000E+00 -0.00000000000E+00 -0.46470683737E+03  0.46470683737E+03  0.00000000000E+00 0.  1.
    9000005    1    1    2  501    0 -0.58770109446E+02  0.16916828402E+03 -0.22987382190E+03  0.49488767218E+03  0.40000000000E+03 0.  1.
   -9000005    1    1    2    0  502  0.58770109446E+02 -0.16916828402E+03  0.36693798851E+03  0.57159016917E+03  0.40000000000E+03 0.  1.
<mgrwt>
<rscale>  2 0.43826001E+03</rscale>
<asrwt>0</asrwt>
<pdfrwt beam="1">  1       21 0.92580155E-01 0.43826001E+03</pdfrwt>
<pdfrwt beam="2">  1       21 0.71493359E-01 0.43826001E+03</pdfrwt>
<totfact> 0.14994155E+03</totfact>
</mgrwt>
</event>
<event>
 4    1  0.4840996E-002  0.5060295E+03  0.7818608E-02  0.1012217E+00
         21   -1    0    0  501  502  0.00000000000E+00  0.00000000000E+00  0.42718979807E+03  0.42718979807E+03  0.00000000000E+00 0. -1.
         21   -1    0    0  502  503 -0.00000000000E+00 -0.00000000000E+00 -0.62239599196E+03  0.62239599196E+03  0.00000000000E+00 0. -1.
    9000005    1    1    2  501    0  0.14016166608E+03  0.27644271628E+03  0.32285856063E+01  0.50603981245E+03  0.40000000000E+03 0. -1.
   -9000005    1    1    2    0  503 -0.14016166608E+03 -0.27644271628E+03 -0.19843477950E+03  0.54354597757E+03  0.40000000000E+03 0. -1.
<mgrwt>
<rscale>  2 0.50602951E+03</rscale>
<asrwt>0</asrwt>
<pdfrwt beam="1">  1       21 0.65721507E-01 0.50602951E+03</pdfrwt>
<pdfrwt beam="2">  1       21 0.95753229E-01 0.50602951E+03</pdfrwt>
<totfact> 0.16295068E+03</totfact>
</mgrwt>
</event>
<event>
 4    1  0.4840996E-002  0.5529073E+03  0.7818608E-02  0.1000823E+00
         21   -1    0    0  503  502  0.00000000000E+00  0.00000000000E+00  0.11257773614E+04  0.11257773614E+04  0.00000000000E+00 0.  1.
         21   -1    0    0  501  503 -0.00000000000E+00 -0.00000000000E+00 -0.27254586227E+03  0.27254586227E+03  0.00000000000E+00 0.  1.
    9000005    1    1    2  501    0 -0.38021431600E+03  0.33816132400E+02  0.46884802701E+03  0.72493098246E+03  0.40000000000E+03 0.  1.
   -9000005    1    1    2    0  502  0.38021431600E+03 -0.33816132400E+02  0.38438347212E+03  0.67339224122E+03  0.40000000000E+03 0.  1.
<mgrwt>
<rscale>  2 0.55290728E+03</rscale>
<asrwt>0</asrwt>
<pdfrwt beam="1">  1       21 0.17319651E+00 0.55290728E+03</pdfrwt>
<pdfrwt beam="2">  1       21 0.41930133E-01 0.55290728E+03</pdfrwt>
<totfact> 0.89384306E+02</totfact>
</mgrwt>
</event>
<event>
 4    1  0.4840996E-002  0.4581889E+03  0.7818608E-02  0.1025308E+00
         21   -1    0    0  503  502  0.00000000000E+00  0.00000000000E+00  0.96625706403E+03  0.96625706403E+03  0.00000000000E+00 0. -1.
         21   -1    0    0  501  503 -0.00000000000E+00 -0.00000000000E+00 -0.24846120024E+03  0.24846120024E+03  0.00000000000E+00 0.  1.
    9000005    1    1    2  501    0 -0.18666535993E+03  0.12285402081E+03  0.14369712995E+03  0.48019364030E+03  0.40000000000E+03 0.  1.
   -9000005    1    1    2    0  502  0.18666535993E+03 -0.12285402081E+03  0.57409873383E+03  0.73452462397E+03  0.40000000000E+03 0. -1.
<mgrwt>
<rscale>  2 0.45818890E+03</rscale>
<asrwt>0</asrwt>
<pdfrwt beam="1">  1       21 0.14865493E+00 0.45818890E+03</pdfrwt>
<pdfrwt beam="2">  1       21 0.38224801E-01 0.45818890E+03</pdfrwt>
<totfact> 0.17193738E+03</totfact>
</mgrwt>
</event>
<event>
 4    1  0.4840996E-002  0.5048856E+03  0.7818608E-02  0.1012512E+00
         21   -1    0    0  501  502  0.00000000000E+00  0.00000000000E+00  0.42549136871E+04  0.42549136871E+04  0.00000000000E+00 0. -1.
         21   -1    0    0  502  503 -0.00000000000E+00 -0.00000000000E+00 -0.18092826374E+03  0.18092826374E+03  0.00000000000E+00 0. -1.
    9000005    1    1    2  501    0 -0.11092295388E+03 -0.28741189878E+03  0.38509176932E+04  0.38838739142E+04  0.40000000000E+03 0. -1.
   -9000005    1    1    2    0  503  0.11092295388E+03  0.28741189878E+03  0.22306773011E+03  0.55196803664E+03  0.40000000000E+03 0. -1.
<mgrwt>
<rscale>  2 0.50488563E+03</rscale>
<asrwt>0</asrwt>
<pdfrwt beam="1">  1       21 0.65460203E+00 0.50488563E+03</pdfrwt>
<pdfrwt beam="2">  1       21 0.27835121E-01 0.50488563E+03</pdfrwt>
<totfact> 0.10396048E+00</totfact>
</mgrwt>
</event>
<event>
 4    1  0.4840996E-002  0.4452396E+03  0.7818608E-02  0.1029151E+00
         21   -1    0    0  501  502  0.00000000000E+00  0.00000000000E+00  0.31281789909E+04  0.31281789909E+04  0.00000000000E+00 0.  1.
         21   -1    0    0  502  503 -0.00000000000E+00 -0.00000000000E+00 -0.23064153747E+03  0.23064153747E+03  0.00000000000E+00 0.  1.
    9000005    1    1    2  501    0 -0.15679606728E+03 -0.11684746701E+03  0.28789685729E+04  0.29131938454E+04  0.40000000000E+03 0.  1.
   -9000005    1    1    2    0  503  0.15679606728E+03  0.11684746701E+03  0.18568880557E+02  0.44562668298E+03  0.40000000000E+03 0.  1.
<mgrwt>
<rscale>  2 0.44523964E+03</rscale>
<asrwt>0</asrwt>
<pdfrwt beam="1">  1       21 0.48125827E+00 0.44523964E+03</pdfrwt>
<pdfrwt beam="2">  1       21 0.35483316E-01 0.44523964E+03</pdfrwt>
<totfact> 0.14201968E+01</totfact>
</mgrwt>
</event>
<event>
 4    1  0.4840996E-002  0.4270122E+03  0.7818608E-02  0.1034808E+00
         21   -1    0    0  503  502  0.00000000000E+00  0.00000000000E+00  0.23816429352E+04  0.23816429352E+04  0.00000000000E+00 0. -1.
         21   -1    0    0  501  503 -0.00000000000E+00 -0.00000000000E+00 -0.18054287993E+03  0.18054287993E+03  0.00000000000E+00 0. -1.
    9000005    1    1    2  501    0  0.12940888895E+03  0.74784719604E+02  0.12831640658E+03  0.44587499933E+03  0.40000000000E+03 0. -1.
   -9000005    1    1    2    0  502 -0.12940888895E+03 -0.74784719604E+02  0.20727836487E+04  0.21163108158E+04  0.40000000000E+03 0. -1.
<mgrwt>
<rscale>  2 0.42701220E+03</rscale>
<asrwt>0</asrwt>
<pdfrwt beam="1">  1       21 0.36640658E+00 0.42701220E+03</pdfrwt>
<pdfrwt beam="2">  1       21 0.27775829E-01 0.42701220E+03</pdfrwt>
<totfact> 0.13387935E+02</totfact>
</mgrwt>
</event>
<event>
 4    1  0.4840996E-002  0.4652213E+03  0.7818608E-02  0.1023278E+00
         21   -1    0    0  501  502  0.00000000000E+00  0.00000000000E+00  0.15714186455E+03  0.15714186455E+03  0.00000000000E+00 0. -1.
         21   -1    0    0  502  503 -0.00000000000E+00 -0.00000000000E+00 -0.17412407227E+04  0.17412407227E+04  0.00000000000E+00 0. -1.
    9000005    1    1    2  501    0 -0.15100770794E+03 -0.18337814599E+03 -0.35809711320E+03  0.58708126760E+03  0.40000000000E+03 0. -1.
   -9000005    1    1    2    0  503  0.15100770794E+03  0.18337814599E+03 -0.12260017449E+04  0.13113013196E+04  0.40000000000E+03 0. -1.
<mgrwt>
<rscale>  2 0.46522132E+03</rscale>
<asrwt>0</asrwt>
<pdfrwt beam="1">  1       21 0.24175672E-01 0.46522132E+03</pdfrwt>
<pdfrwt beam="2">  1       21 0.26788318E+00 0.46522132E+03</pdfrwt>
<totfact> 0.67897620E+02</totfact>
</mgrwt>
</event>
<event>
 4    1  0.4840996E-002  0.4760291E+03  0.7818608E-02  0.1020232E+00
         21   -1    0    0  503  502  0.00000000000E+00  0.00000000000E+00  0.23754634301E+04  0.23754634301E+04  0.00000000000E+00 0.  1.
         21   -1    0    0  501  503 -0.00000000000E+00 -0.00000000000E+00 -0.16702086335E+03  0.16702086335E+03  0.00000000000E+00 0.  1.
    9000005    1    1    2  501    0  0.22148330878E+03  0.13247190226E+03  0.27172453984E+03  0.54812214561E+03  0.40000000000E+03 0.  1.
   -9000005    1    1    2    0  502 -0.22148330878E+03 -0.13247190226E+03  0.19367180269E+04  0.19943621479E+04  0.40000000000E+03 0.  1.
<mgrwt>
<rscale>  2 0.47602905E+03</rscale>
<asrwt>0</asrwt>
<pdfrwt beam="1">  1       21 0.36545589E+00 0.47602905E+03</pdfrwt>
<pdfrwt beam="2">  1       21 0.25695519E-01 0.47602905E+03</pdfrwt>
<totfact> 0.15296939E+02</totfact>
</mgrwt>
</event>
<event>
 4    1  0.4840996E-002  0.4081673E+03  0.7818608E-02  0.1040988E+00
         21   -1    0    0  501  502  0.00000000000E+00  0.00000000000E+00  0.81544093502E+03  0.81544093502E+03  0.00000000000E+00 0.  1.
         21   -1    0    0  502  503 -0.00000000000E+00 -0.00000000000E+00 -0.59251198494E+03  0.59251198494E+03  0.00000000000E+00 0.  1.
    9000005    1    1    2  501    0  0.27496723484E+02 -0.76449238454E+02  0.68128742902E+03  0.79419967061E+03  0.40000000000E+03 0.  1.
   -9000005    1    1    2    0  503 -0.27496723484E+02  0.76449238454E+02 -0.45835847894E+03  0.61375324934E+03  0.40000000000E+03 0.  1.
<mgrwt>
<rscale>  2 0.40816731E+03</rscale>
<asrwt>0</asrwt>
<pdfrwt beam="1">  1       21 0.12545245E+00 0.40816731E+03</pdfrwt>
<pdfrwt beam="2">  1       21 0.91155689E-01 0.40816731E+03</pdfrwt>
<totfact> 0.40930145E+02</totfact>
</mgrwt>
</event>
<event>
 4    1  0.4840996E-002  0.6051658E+03  0.7818608E-02  0.9894746E-01
         21   -1    0    0  501  502  0.00000000000E+00  0.00000000000E+00  0.36054364270E+03  0.36054364270E+03  0.00000000000E+00 0. -1.
         21   -1    0    0  502  503 -0.00000000000E+00 -0.00000000000E+00 -0.10159010094E+04  0.10159010094E+04  0.00000000000E+00 0. -1.
    9000005    1    1    2  501    0 -0.94131763095E+02  0.44425763094E+03 -0.31955616970E+03  0.68435500807E+03  0.40000000000E+03 0. -1.
   -9000005    1    1    2    0  503  0.94131763095E+02 -0.44425763094E+03 -0.33580119699E+03  0.69208964403E+03  0.40000000000E+03 0. -1.
<mgrwt>
<rscale>  2 0.60516579E+03</rscale>
<asrwt>0</asrwt>
<pdfrwt beam="1">  1       21 0.55468253E-01 0.60516579E+03</pdfrwt>
<pdfrwt beam="2">  1       21 0.15629246E+00 0.60516579E+03</pdfrwt>
<totfact> 0.64789618E+02</totfact>
</mgrwt>
</event>
<event>
 4    1  0.4840996E-002  0.4606380E+03  0.7818608E-02  0.1024596E+00
         21   -1    0    0  503  502  0.00000000000E+00  0.00000000000E+00  0.47370679400E+03  0.47370679400E+03  0.00000000000E+00 0.  1.
         21   -1    0    0  501  503 -0.00000000000E+00 -0.00000000000E+00 -0.64865517084E+03  0.64865517084E+03  0.00000000000E+00 0.  1.
    9000005    1    1    2  501    0  0.22736600845E+03  0.22182172325E+02 -0.39964854564E+03  0.60984121753E+03  0.40000000000E+03 0.  1.
   -9000005    1    1    2    0  502 -0.22736600845E+03 -0.22182172325E+02  0.22470016880E+03  0.51252074731E+03  0.40000000000E+03 0.  1.
<mgrwt>
<rscale>  2 0.46063798E+03</rscale>
<asrwt>0</asrwt>
<pdfrwt beam="1">  1       21 0.72877969E-01 0.46063798E+03</pdfrwt>
<pdfrwt beam="2">  1       21 0.99793103E-01 0.46063798E+03</pdfrwt>
<totfact> 0.11881786E+03</totfact>
</mgrwt>
</event>
<event>
 4    1  0.4840996E-002  0.4887832E+03  0.7818608E-02  0.1016749E+00
         21   -1    0    0  501  502  0.00000000000E+00  0.00000000000E+00  0.90195026754E+03  0.90195026754E+03  0.00000000000E+00 0.  1.
         21   -1    0    0  502  503 -0.00000000000E+00 -0.00000000000E+00 -0.28794472320E+03  0.28794472320E+03  0.00000000000E+00 0.  1.
    9000005    1    1    2  501    0 -0.71587511980E+02 -0.27163248120E+03  0.47538417856E+03  0.68183509292E+03  0.40000000000E+03 0.  1.
   -9000005    1    1    2    0  503  0.71587511980E+02  0.27163248120E+03  0.13862136578E+03  0.50805989781E+03  0.40000000000E+03 0.  1.
<mgrwt>
<rscale>  2 0.48878316E+03</rscale>
<asrwt>0</asrwt>
<pdfrwt beam="1">  1       21 0.13876158E+00 0.48878316E+03</pdfrwt>
<pdfrwt beam="2">  1       21 0.44299189E-01 0.48878316E+03</pdfrwt>
<totfact> 0.15064455E+03</totfact>
</mgrwt>
</event>
<event>
 4    1  0.4840996E-002  0.6763133E+03  0.7818608E-02  0.9758620E-01
         21   -1    0    0  501  502  0.00000000000E+00  0.00000000000E+00  0.59148026216E+03  0.59148026216E+03  0.00000000000E+00 0.  1.
         21   -1    0    0  502  503 -0.00000000000E+00 -0.00000000000E+00 -0.80565665053E+03  0.80565665053E+03  0.00000000000E+00 0.  1.
    9000005    1    1    2  501    0 -0.49965189193E+03 -0.21851248796E+03 -0.24705484808E+03  0.72002487350E+03  0.40000000000E+03 0.  1.
   -9000005    1    1    2    0  503  0.49965189193E+03  0.21851248796E+03  0.32878459712E+02  0.67711203919E+03  0.40000000000E+03 0.  1.
<mgrwt>
<rscale>  2 0.67631333E+03</rscale>
<asrwt>0</asrwt>
<pdfrwt beam="1">  1       21 0.90996964E-01 0.67631333E+03</pdfrwt>
<pdfrwt beam="2">  1       21 0.12394718E+00 0.67631333E+03</pdfrwt>
<totfact> 0.38188319E+02</totfact>
</mgrwt>
</event>
<event>
 4    1  0.4840996E-002  0.4084686E+03  0.7818608E-02  0.1040886E+00
         21   -1    0    0  501  502  0.00000000000E+00  0.00000000000E+00  0.20034151103E+04  0.20034151103E+04  0.00000000000E+00 0.  1.
         21   -1    0    0  502  503 -0.00000000000E+00 -0.00000000000E+00 -0.83654747414E+02  0.83654747414E+02  0.00000000000E+00 0.  1.
    9000005    1    1    2  501    0  0.60459970735E+02  0.56490913596E+02  0.10296211035E+04  0.11076850852E+04  0.40000000000E+03 0.  1.
   -9000005    1    1    2    0  503 -0.60459970735E+02 -0.56490913596E+02  0.89013925945E+03  0.97938477249E+03  0.40000000000E+03 0.  1.
<mgrwt>
<rscale>  2 0.40846864E+03</rscale>
<asrwt>0</asrwt>
<pdfrwt beam="1">  1       21 0.30821767E+00 0.40846864E+03</pdfrwt>
<pdfrwt beam="2">  1       21 0.12869963E-01 0.40846864E+03</pdfrwt>
<totfact> 0.13117188E+03</totfact>
</mgrwt>
</event>
<event>
 4    1  0.4840996E-002  0.4159532E+03  0.7818608E-02  0.1038392E+00
         21   -1    0    0  501  502  0.00000000000E+00  0.00000000000E+00  0.39222090792E+03  0.39222090792E+03  0.00000000000E+00 0. -1.
         21   -1    0    0  502  503 -0.00000000000E+00 -0.00000000000E+00 -0.44112150035E+03  0.44112150035E+03  0.00000000000E+00 0. -1.
    9000005    1    1    2  501    0  0.75631345366E+02  0.85422102974E+02 -0.24648859876E+02  0.41668285586E+03  0.40000000000E+03 0. -1.
   -9000005    1    1    2    0  503 -0.75631345366E+02 -0.85422102974E+02 -0.24251732558E+02  0.41665955241E+03  0.40000000000E+03 0. -1.
<mgrwt>
<rscale>  2 0.41595317E+03</rscale>
<asrwt>0</asrwt>
<pdfrwt beam="1">  1       21 0.60341678E-01 0.41595317E+03</pdfrwt>
<pdfrwt beam="2">  1       21 0.67864846E-01 0.41595317E+03</pdfrwt>
<totfact> 0.45110401E+03</totfact>
</mgrwt>
</event>
<event>
 4    1  0.4840996E-002  0.4330666E+03  0.7818608E-02  0.1032896E+00
         21   -1    0    0  503  502  0.00000000000E+00  0.00000000000E+00  0.26543766471E+03  0.26543766471E+03  0.00000000000E+00 0. -1.
         21   -1    0    0  501  503 -0.00000000000E+00 -0.00000000000E+00 -0.92740003766E+03  0.92740003766E+03  0.00000000000E+00 0. -1.
    9000005    1    1    2  501    0  0.13766675364E+03  0.92706945704E+02 -0.62202618105E+03  0.75793356090E+03  0.40000000000E+03 0. -1.
   -9000005    1    1    2    0  502 -0.13766675364E+03 -0.92706945704E+02 -0.39936191899E+02  0.43490414146E+03  0.40000000000E+03 0. -1.
<mgrwt>
<rscale>  2 0.43306664E+03</rscale>
<asrwt>0</asrwt>
<pdfrwt beam="1">  1       21 0.40836564E-01 0.43306664E+03</pdfrwt>
<pdfrwt beam="2">  1       21 0.14267693E+00 0.43306664E+03</pdfrwt>
<totfact> 0.16933698E+03</totfact>
</mgrwt>
</event>
<event>
 4    1  0.4840996E-002  0.4279987E+03  0.7818608E-02  0.1034494E+00
         21   -1    0    0  503  502  0.00000000000E+00  0.00000000000E+00  0.75915176790E+03  0.75915176790E+03  0.00000000000E+00 0.  1.
         21   -1    0    0  501  503 -0.00000000000E+00 -0.00000000000E+00 -0.50761833999E+03  0.50761833999E+03  0.00000000000E+00 0.  1.
    9000005    1    1    2  501    0 -0.47062236246E+02 -0.14480350506E+03 -0.33300870378E+03  0.54228931941E+03  0.40000000000E+03 0.  1.
   -9000005    1    1    2    0  502  0.47062236246E+02  0.14480350506E+03  0.58454213169E+03  0.72448078848E+03  0.40000000000E+03 0.  1.
<mgrwt>
<rscale>  2 0.42799873E+03</rscale>
<asrwt>0</asrwt>
<pdfrwt beam="1">  1       21 0.11679258E+00 0.42799873E+03</pdfrwt>
<pdfrwt beam="2">  1       21 0.78095129E-01 0.42799873E+03</pdfrwt>
<totfact> 0.69741188E+02</totfact>
</mgrwt>
</event>
<event>
 4    1  0.4840996E-002  0.4883312E+03  0.7818608E-02  0.1016870E+00
         21   -1    0    0  503  502  0.00000000000E+00  0.00000000000E+00  0.29253807445E+03  0.29253807445E+03  0.00000000000E+00 0.  1.
         21   -1    0    0  501  503 -0.00000000000E+00 -0.00000000000E+00 -0.99880844134E+03  0.99880844134E+03  0.00000000000E+00 0.  1.
    9000005    1    1    2  501    0  0.27983827201E+03 -0.12565789461E+02 -0.62999323163E+03  0.79709399034E+03  0.40000000000E+03 0.  1.
   -9000005    1    1    2    0  502 -0.27983827201E+03  0.12565789461E+02 -0.76277135273E+02  0.49425252545E+03  0.40000000000E+03 0.  1.
<mgrwt>
<rscale>  2 0.48833120E+03</rscale>
<asrwt>0</asrwt>
<pdfrwt beam="1">  1       21 0.45005857E-01 0.48833120E+03</pdfrwt>
<pdfrwt beam="2">  1       21 0.15366284E+00 0.48833120E+03</pdfrwt>
<totfact> 0.11064393E+03</totfact>
</mgrwt>
</event>
<event>
 4    1  0.4840996E-002  0.5342409E+03  0.7818608E-02  0.1005209E+00
         21   -1    0    0  501  502  0.00000000000E+00  0.00000000000E+00  0.10467750851E+04  0.10467750851E+04  0.00000000000E+00 0. -1.
         21   -1    0    0  502  503 -0.00000000000E+00 -0.00000000000E+00 -0.28581185969E+03  0.28581185969E+03  0.00000000000E+00 0. -1.
    9000005    1    1    2  501    0  0.33223668716E+03 -0.12260568127E+03  0.52341186175E+03  0.74791265960E+03  0.40000000000E+03 0. -1.
   -9000005    1    1    2    0  503 -0.33223668716E+03  0.12260568127E+03  0.23755136363E+03  0.58467428517E+03  0.40000000000E+03 0. -1.
<mgrwt>
<rscale>  2 0.53424093E+03</rscale>
<asrwt>0</asrwt>
<pdfrwt beam="1">  1       21 0.16104232E+00 0.53424093E+03</pdfrwt>
<pdfrwt beam="2">  1       21 0.43971056E-01 0.53424093E+03</pdfrwt>
<totfact> 0.10024142E+03</totfact>
</mgrwt>
</event>
<event>
 4    1  0.4840996E-002  0.5314920E+03  0.7818608E-02  0.1005871E+00
         21   -1    0    0  503  502  0.00000000000E+00  0.00000000000E+00  0.21006192083E+03  0.21006192083E+03  0.00000000000E+00 0. -1.
         21   -1    0    0  501  503 -0.00000000000E+00 -0.00000000000E+00 -0.13509762740E+04  0.13509762740E+04  0.00000000000E+00 0.  1.
    9000005    1    1    2  501    0  0.32412415190E+03 -0.13201258318E+03 -0.51753084180E+03  0.74183688246E+03  0.40000000000E+03 0.  1.
   -9000005    1    1    2    0  502 -0.32412415190E+03  0.13201258318E+03 -0.62338351140E+03  0.81920131241E+03  0.40000000000E+03 0. -1.
<mgrwt>
<rscale>  2 0.53149204E+03</rscale>
<asrwt>0</asrwt>
<pdfrwt beam="1">  1       21 0.32317220E-01 0.53149204E+03</pdfrwt>
<pdfrwt beam="2">  1       21 0.20784250E+00 0.53149204E+03</pdfrwt>
<totfact> 0.88518193E+02</totfact>
</mgrwt>
</event>
<event>
 4    1  0.4840996E-002  0.4348747E+03  0.7818608E-02  0.1032331E+00
         21   -1    0    0  503  502  0.00000000000E+00  0.00000000000E+00  0.13269452622E+04  0.13269452622E+04  0.00000000000E+00 0.  1.
         21   -1    0    0  501  503 -0.00000000000E+00 -0.00000000000E+00 -0.18228103940E+03  0.18228103940E+03  0.00000000000E+00 0.  1.
    9000005    1    1    2  501    0  0.15545769641E+03 -0.70348540593E+02  0.21989355245E+03  0.48730810269E+03  0.40000000000E+03 0.  1.
   -9000005    1    1    2    0  502 -0.15545769641E+03  0.70348540593E+02  0.92477067034E+03  0.10219181989E+04  0.40000000000E+03 0.  1.
<mgrwt>
<rscale>  2 0.43487471E+03</rscale>
<asrwt>0</asrwt>
<pdfrwt beam="1">  1       21 0.20414542E+00 0.43487471E+03</pdfrwt>
<pdfrwt beam="2">  1       21 0.28043238E-01 0.43487471E+03</pdfrwt>
<totfact> 0.12941342E+03</totfact>
</mgrwt>
</event>
<event>
 4    1  0.4840996E-002  0.5403458E+03  0.7818608E-02  0.1003754E+00
         21   -1    0    0  501  502  0.00000000000E+00  0.00000000000E+00  0.12481008501E+04  0.12481008501E+04  0.00000000000E+00 0. -1.
         21   -1    0    0  502  503 -0.00000000000E+00 -0.00000000000E+00 -0.38615125875E+03  0.38615125875E+03  0.00000000000E+00 0.  1.
    9000005    1    1    2  501    0  0.34969446641E+03  0.98424442360E+02  0.94400373097E+03  0.10877116506E+04  0.40000000000E+03 0. -1.
   -9000005    1    1    2    0  503 -0.34969446641E+03 -0.98424442360E+02 -0.82054139629E+02  0.54654045827E+03  0.40000000000E+03 0.  1.
<mgrwt>
<rscale>  2 0.54034581E+03</rscale>
<asrwt>0</asrwt>
<pdfrwt beam="1">  1       21 0.19201551E+00 0.54034581E+03</pdfrwt>
<pdfrwt beam="2">  1       21 0.59407886E-01 0.54034581E+03</pdfrwt>
<totfact> 0.31431863E+02</totfact>
</mgrwt>
</event>
<event>
 4    1  0.4840996E-002  0.4910465E+03  0.7818608E-02  0.1016143E+00
         21   -1    0    0  501  502  0.00000000000E+00  0.00000000000E+00  0.68629388210E+03  0.68629388210E+03  0.00000000000E+00 0. -1.
         21   -1    0    0  502  503 -0.00000000000E+00 -0.00000000000E+00 -0.42873747798E+03  0.42873747798E+03  0.00000000000E+00 0. -1.
    9000005    1    1    2  501    0 -0.21795956087E+02 -0.28399226545E+03  0.36564690721E+03  0.61222898599E+03  0.40000000000E+03 0. -1.
   -9000005    1    1    2    0  503  0.21795956087E+02  0.28399226545E+03 -0.10809050310E+03  0.50280237409E+03  0.40000000000E+03 0. -1.
<mgrwt>
<rscale>  2 0.49104651E+03</rscale>
<asrwt>0</asrwt>
<pdfrwt beam="1">  1       21 0.10558367E+00 0.49104651E+03</pdfrwt>
<pdfrwt beam="2">  1       21 0.65959612E-01 0.49104651E+03</pdfrwt>
<totfact> 0.12800940E+03</totfact>
</mgrwt>
</event>
<event>
 4    1  0.4840996E-002  0.4562633E+03  0.7818608E-02  0.1025871E+00
         21   -1    0    0  503  502  0.00000000000E+00  0.00000000000E+00  0.95584830334E+03  0.95584830334E+03  0.00000000000E+00 0. -1.
         21   -1    0    0  501  503 -0.00000000000E+00 -0.00000000000E+00 -0.62364304230E+03  0.62364304230E+03  0.00000000000E+00 0. -1.
    9000005    1    1    2  501    0 -0.60020344689E+02 -0.21112488201E+03 -0.47098991350E+03  0.65574969020E+03  0.40000000000E+03 0. -1.
   -9000005    1    1    2    0  502  0.60020344689E+02  0.21112488201E+03  0.80319517454E+03  0.92374165543E+03  0.40000000000E+03 0. -1.
<mgrwt>
<rscale>  2 0.45626325E+03</rscale>
<asrwt>0</asrwt>
<pdfrwt beam="1">  1       21 0.14705358E+00 0.45626325E+03</pdfrwt>
<pdfrwt beam="2">  1       21 0.95945084E-01 0.45626325E+03</pdfrwt>
<totfact> 0.23283238E+02</totfact>
</mgrwt>
</event>
<event>
 4    1  0.4840996E-002  0.4595839E+03  0.7818608E-02  0.1024902E+00
         21   -1    0    0  503  502  0.00000000000E+00  0.00000000000E+00  0.53009517485E+03  0.53009517485E+03  0.00000000000E+00 0. -1.
         21   -1    0    0  501  503 -0.00000000000E+00 -0.00000000000E+00 -0.40123490362E+03  0.40123490362E+03  0.00000000000E+00 0. -1.
    9000005    1    1    2  501    0 -0.12819848181E+03 -0.18650081680E+03  0.25647731445E+02  0.46029904577E+03  0.40000000000E+03 0. -1.
   -9000005    1    1    2    0  502  0.12819848181E+03  0.18650081680E+03  0.10321253978E+03  0.47103103271E+03  0.40000000000E+03 0. -1.
<mgrwt>
<rscale>  2 0.45958395E+03</rscale>
<asrwt>0</asrwt>
<pdfrwt beam="1">  1       21 0.81553104E-01 0.45958395E+03</pdfrwt>
<pdfrwt beam="2">  1       21 0.61728446E-01 0.45958395E+03</pdfrwt>
<totfact> 0.27810424E+03</totfact>
</mgrwt>
</event>
<event>
 4    1  0.4840996E-002  0.5307854E+03  0.7818608E-02  0.1006042E+00
         21   -1    0    0  503  502  0.00000000000E+00  0.00000000000E+00  0.21669112089E+03  0.21669112089E+03  0.00000000000E+00 0. -1.
         21   -1    0    0  501  503 -0.00000000000E+00 -0.00000000000E+00 -0.13652695738E+04  0.13652695738E+04  0.00000000000E+00 0. -1.
    9000005    1    1    2  501    0  0.31555537904E+03 -0.14885529210E+03 -0.74702385653E+03  0.91639387681E+03  0.40000000000E+03 0. -1.
   -9000005    1    1    2    0  502 -0.31555537904E+03  0.14885529210E+03 -0.40155459642E+03  0.66556681793E+03  0.40000000000E+03 0. -1.
<mgrwt>
<rscale>  2 0.53078536E+03</rscale>
<asrwt>0</asrwt>
<pdfrwt beam="1">  1       21 0.33337096E-01 0.53078536E+03</pdfrwt>
<pdfrwt beam="2">  1       21 0.21004147E+00 0.53078536E+03</pdfrwt>
<totfact> 0.80446890E+02</totfact>
</mgrwt>
</event>
<event>
 4    1  0.4840996E-002  0.4149573E+03  0.7818608E-02  0.1038720E+00
         21   -1    0    0  501  502  0.00000000000E+00  0.00000000000E+00  0.99720030525E+03  0.99720030525E+03  0.00000000000E+00 0.  1.
         21   -1    0    0  502  503 -0.00000000000E+00 -0.00000000000E+00 -0.17304095465E+03  0.17304095465E+03  0.00000000000E+00 0.  1.
    9000005    1    1    2  501    0 -0.27599715347E+02  0.10690097294E+03  0.43906152128E+03  0.60412298564E+03  0.40000000000E+03 0.  1.
   -9000005    1    1    2    0  503  0.27599715347E+02 -0.10690097294E+03  0.38509782933E+03  0.56611827426E+03  0.40000000000E+03 0.  1.
<mgrwt>
<rscale>  2 0.41495730E+03</rscale>
<asrwt>0</asrwt>
<pdfrwt beam="1">  1       21 0.15341543E+00 0.41495730E+03</pdfrwt>
<pdfrwt beam="2">  1       21 0.26621686E-01 0.41495730E+03</pdfrwt>
<totfact> 0.33111770E+03</totfact>
</mgrwt>
</event>
<event>
 4    1  0.4840996E-002  0.4448461E+03  0.7818608E-02  0.1029270E+00
         21   -1    0    0  503  502  0.00000000000E+00  0.00000000000E+00  0.10460034890E+04  0.10460034890E+04  0.00000000000E+00 0.  1.
         21   -1    0    0  501  503 -0.00000000000E+00 -0.00000000000E+00 -0.27526821986E+03  0.27526821986E+03  0.00000000000E+00 0.  1.
    9000005    1    1    2  501    0 -0.26744711134E+02 -0.19280242676E+03  0.15927876378E+02  0.44513116335E+03  0.40000000000E+03 0.  1.
   -9000005    1    1    2    0  502  0.26744711134E+02  0.19280242676E+03  0.75480739279E+03  0.87614054555E+03  0.40000000000E+03 0.  1.
<mgrwt>
<rscale>  2 0.44484610E+03</rscale>
<asrwt>0</asrwt>
<pdfrwt beam="1">  1       21 0.16092361E+00 0.44484610E+03</pdfrwt>
<pdfrwt beam="2">  1       21 0.42348957E-01 0.44484610E+03</pdfrwt>
<totfact> 0.11255452E+03</totfact>
</mgrwt>
</event>
<event>
 4    1  0.4840996E-002  0.4331796E+03  0.7818608E-02  0.1032860E+00
         21   -1    0    0  503  502  0.00000000000E+00  0.00000000000E+00  0.10432840722E+03  0.10432840722E+03  0.00000000000E+00 0.  1.
         21   -1    0    0  501  503 -0.00000000000E+00 -0.00000000000E+00 -0.27632123491E+04  0.27632123491E+04  0.00000000000E+00 0.  1.
    9000005    1    1    2  501    0 -0.11669070924E+03 -0.11843926601E+03 -0.21765717390E+04  0.22192586862E+04  0.40000000000E+03 0.  1.
   -9000005    1    1    2    0  502  0.11669070924E+03  0.11843926601E+03 -0.48231220288E+03  0.64828207009E+03  0.40000000000E+03 0.  1.
<mgrwt>
<rscale>  2 0.43317962E+03</rscale>
<asrwt>0</asrwt>
<pdfrwt beam="1">  1       21 0.16050527E-01 0.43317962E+03</pdfrwt>
<pdfrwt beam="2">  1       21 0.42510951E+00 0.43317962E+03</pdfrwt>
<totfact> 0.16055891E+02</totfact>
</mgrwt>
</event>
<event>
 4    1  0.4840996E-002  0.5064097E+03  0.7818608E-02  0.1012119E+00
         21   -1    0    0  501  502  0.00000000000E+00  0.00000000000E+00  0.11820644181E+04  0.11820644181E+04  0.00000000000E+00 0. -1.
         21   -1    0    0  502  503 -0.00000000000E+00 -0.00000000000E+00 -0.27587027780E+03  0.27587027780E+03  0.00000000000E+00 0. -1.
    9000005    1    1    2  501    0 -0.20745139467E+03  0.23111624432E+03  0.78998233353E+03  0.93836181019E+03  0.40000000000E+03 0. -1.
   -9000005    1    1    2    0  503  0.20745139467E+03 -0.23111624432E+03  0.11621180678E+03  0.51957288572E+03  0.40000000000E+03 0. -1.
<mgrwt>
<rscale>  2 0.50640972E+03</rscale>
<asrwt>0</asrwt>
<pdfrwt beam="1">  1       21 0.18185606E+00 0.50640972E+03</pdfrwt>
<pdfrwt beam="2">  1       21 0.42441582E-01 0.50640972E+03</pdfrwt>
<totfact> 0.76910271E+02</totfact>
</mgrwt>
</event>
<event>
 4    1  0.4840996E-002  0.4109601E+03  0.7818608E-02  0.1040049E+00
         21   -1    0    0  503  502  0.00000000000E+00  0.00000000000E+00  0.20531924737E+03  0.20531924737E+03  0.00000000000E+00 0. -1.
         21   -1    0    0  501  503 -0.00000000000E+00 -0.00000000000E+00 -0.86143926821E+03  0.86143926821E+03  0.00000000000E+00 0. -1.
    9000005    1    1    2  501    0 -0.89394182320E+02  0.29948695751E+02 -0.44136782646E+03  0.60307031302E+03  0.40000000000E+03 0.  1.
   -9000005    1    1    2    0  502  0.89394182320E+02 -0.29948695751E+02 -0.21475219438E+03  0.46368820257E+03  0.40000000000E+03 0.  1.
<mgrwt>
<rscale>  2 0.41096015E+03</rscale>
<asrwt>0</asrwt>
<pdfrwt beam="1">  1       21 0.31587576E-01 0.41096015E+03</pdfrwt>
<pdfrwt beam="2">  1       21 0.13252912E+00 0.41096015E+03</pdfrwt>
<totfact> 0.34939960E+03</totfact>
</mgrwt>
</event>
<event>
 4    1  0.4840996E-002  0.4332353E+03  0.7818608E-02  0.1032843E+00
         21   -1    0    0  501  502  0.00000000000E+00  0.00000000000E+00  0.75727109681E+03  0.75727109681E+03  0.00000000000E+00 0.  1.
         21   -1    0    0  502  503 -0.00000000000E+00 -0.00000000000E+00 -0.11931242180E+04  0.11931242180E+04  0.00000000000E+00 0.  1.
    9000005    1    1    2  501    0 -0.11536480772E+02 -0.16601114443E+03  0.65008951817E+03  0.78122286967E+03  0.40000000000E+03 0.  1.
   -9000005    1    1    2    0  503  0.11536480772E+02  0.16601114443E+03 -0.10859426394E+04  0.11691724451E+04  0.40000000000E+03 0.  1.
<mgrwt>
<rscale>  2 0.43323526E+03</rscale>
<asrwt>0</asrwt>
<pdfrwt beam="1">  1       21 0.11650325E+00 0.43323526E+03</pdfrwt>
<pdfrwt beam="2">  1       21 0.18355757E+00 0.43323526E+03</pdfrwt>
<totfact> 0.78377226E+01</totfact>
</mgrwt>
</event>
<event>
 4    1  0.4840996E-002  0.4012385E+03  0.7818608E-02  0.1043352E+00
         21   -1    0    0  503  502  0.00000000000E+00  0.00000000000E+00  0.34173941257E+03  0.34173941257E+03  0.00000000000E+00 0.  1.
         21   -1    0    0  501  503 -0.00000000000E+00 -0.00000000000E+00 -0.58707768748E+03  0.58707768748E+03  0.00000000000E+00 0.  1.
    9000005    1    1    2  501    0 -0.17206392237E+02 -0.26387656681E+02 -0.32908615464E+03  0.51893165786E+03  0.40000000000E+03 0.  1.
   -9000005    1    1    2    0  502  0.17206392237E+02  0.26387656681E+02  0.83747879719E+02  0.40988544219E+03  0.40000000000E+03 0.  1.
<mgrwt>
<rscale>  2 0.40123854E+03</rscale>
<asrwt>0</asrwt>
<pdfrwt beam="1">  1       21 0.52575294E-01 0.40123854E+03</pdfrwt>
<pdfrwt beam="2">  1       21 0.90319644E-01 0.40123854E+03</pdfrwt>
<totfact> 0.31700478E+03</totfact>
</mgrwt>
</event>
<event>
 4    1  0.4840996E-002  0.4993864E+03  0.7818608E-02  0.1013939E+00
         21   -1    0    0  501  502  0.00000000000E+00  0.00000000000E+00  0.15472647239E+04  0.15472647239E+04  0.00000000000E+00 0. -1.
         21   -1    0    0  502  503 -0.00000000000E+00 -0.00000000000E+00 -0.42687959576E+03  0.42687959576E+03  0.00000000000E+00 0.  1.
    9000005    1    1    2  501    0  0.25614829779E+03 -0.15419084531E+03  0.13389323623E+04  0.14290299640E+04  0.40000000000E+03 0. -1.
   -9000005    1    1    2    0  503 -0.25614829779E+03  0.15419084531E+03 -0.21854723412E+03  0.54511435569E+03  0.40000000000E+03 0.  1.
<mgrwt>
<rscale>  2 0.49938639E+03</rscale>
<asrwt>0</asrwt>
<pdfrwt beam="1">  1       21 0.23804072E+00 0.49938639E+03</pdfrwt>
<pdfrwt beam="2">  1       21 0.65673785E-01 0.49938639E+03</pdfrwt>
<totfact> 0.12861635E+02</totfact>
</mgrwt>
</event>
<event>
 4    1  0.4840996E-002  0.4620411E+03  0.7818608E-02  0.1024191E+00
         21   -1    0    0  503  502  0.00000000000E+00  0.00000000000E+00  0.76084007500E+03  0.76084007500E+03  0.00000000000E+00 0.  1.
         21   -1    0    0  501  503 -0.00000000000E+00 -0.00000000000E+00 -0.34085498304E+03  0.34085498304E+03  0.00000000000E+00 0.  1.
    9000005    1    1    2  501    0  0.22694305144E+03 -0.44484179547E+02 -0.21634446686E+02  0.46254733824E+03  0.40000000000E+03 0.  1.
   -9000005    1    1    2    0  502 -0.22694305144E+03  0.44484179547E+02  0.44161953864E+03  0.63914771981E+03  0.40000000000E+03 0.  1.
<mgrwt>
<rscale>  2 0.46204111E+03</rscale>
<asrwt>0</asrwt>
<pdfrwt beam="1">  1       21 0.11705232E+00 0.46204111E+03</pdfrwt>
<pdfrwt beam="2">  1       21 0.52439228E-01 0.46204111E+03</pdfrwt>
<totfact> 0.16533048E+03</totfact>
</mgrwt>
</event>
<event>
 4    1  0.4840996E-002  0.4098283E+03  0.7818608E-02  0.1040429E+00
         21   -1    0    0  501  502  0.00000000000E+00  0.00000000000E+00  0.71434207046E+03  0.71434207046E+03  0.00000000000E+00 0. -1.
         21   -1    0    0  502  503 -0.00000000000E+00 -0.00000000000E+00 -0.44704695469E+03  0.44704695469E+03  0.00000000000E+00 0. -1.
    9000005    1    1    2  501    0 -0.86229686438E+02 -0.22883822340E+02  0.53346319376E+03  0.67271257402E+03  0.40000000000E+03 0. -1.
   -9000005    1    1    2    0  503  0.86229686438E+02  0.22883822340E+02 -0.26616807799E+03  0.48867645113E+03  0.40000000000E+03 0. -1.
<mgrwt>
<rscale>  2 0.40982829E+03</rscale>
<asrwt>0</asrwt>
<pdfrwt beam="1">  1       21 0.10989878E+00 0.40982829E+03</pdfrwt>
<pdfrwt beam="2">  1       21 0.68776455E-01 0.40982829E+03</pdfrwt>
<totfact> 0.10913646E+03</totfact>
</mgrwt>
</event>
<event>
 4    1  0.4840996E-002  0.4820676E+03  0.7818608E-02  0.1018568E+00
         21   -1    0    0  501  502  0.00000000000E+00  0.00000000000E+00  0.30098495545E+03  0.30098495545E+03  0.00000000000E+00 0. -1.
         21   -1    0    0  502  503 -0.00000000000E+00 -0.00000000000E+00 -0.78393542843E+03  0.78393542843E+03  0.00000000000E+00 0. -1.
    9000005    1    1    2  501    0 -0.24215398973E+03 -0.11726282317E+03 -0.17480951490E+03  0.51278405878E+03  0.40000000000E+03 0. -1.
   -9000005    1    1    2    0  503  0.24215398973E+03  0.11726282317E+03 -0.30814095808E+03  0.57213632509E+03  0.40000000000E+03 0. -1.
<mgrwt>
<rscale>  2 0.48206755E+03</rscale>
<asrwt>0</asrwt>
<pdfrwt beam="1">  1       21 0.46305379E-01 0.48206755E+03</pdfrwt>
<pdfrwt beam="2">  1       21 0.12060545E+00 0.48206755E+03</pdfrwt>
<totfact> 0.19814765E+03</totfact>
</mgrwt>
</event>
<event>
 4    1  0.4840996E-002  0.4153974E+03  0.7818608E-02  0.1038575E+00
         21   -1    0    0  503  502  0.00000000000E+00  0.00000000000E+00  0.74692106186E+03  0.74692106186E+03  0.00000000000E+00 0. -1.
         21   -1    0    0  501  503 -0.00000000000E+00 -0.00000000000E+00 -0.25773177077E+03  0.25773177077E+03  0.00000000000E+00 0. -1.
    9000005    1    1    2  501    0  0.63987043742E+02  0.91981724298E+02  0.40630561986E+03  0.58106732493E+03  0.40000000000E+03 0. -1.
   -9000005    1    1    2    0  502 -0.63987043742E+02 -0.91981724298E+02  0.82883671228E+02  0.42358550769E+03  0.40000000000E+03 0. -1.
<mgrwt>
<rscale>  2 0.41539738E+03</rscale>
<asrwt>0</asrwt>
<pdfrwt beam="1">  1       21 0.11491093E+00 0.41539738E+03</pdfrwt>
<pdfrwt beam="2">  1       21 0.39651042E-01 0.41539738E+03</pdfrwt>
<totfact> 0.31691304E+03</totfact>
</mgrwt>
</event>
<event>
 4    1  0.4840996E-002  0.4313813E+03  0.7818608E-02  0.1033425E+00
         21   -1    0    0  503  502  0.00000000000E+00  0.00000000000E+00  0.10169710545E+04  0.10169710545E+04  0.00000000000E+00 0. -1.
         21   -1    0    0  501  503 -0.00000000000E+00 -0.00000000000E+00 -0.39959718167E+03  0.39959718167E+03  0.00000000000E+00 0. -1.
    9000005    1    1    2  501    0 -0.15294577010E+03 -0.51936336263E+02 -0.21279393322E+03  0.48101044649E+03  0.40000000000E+03 0. -1.
   -9000005    1    1    2    0  502  0.15294577010E+03  0.51936336263E+02  0.83016780601E+03  0.93555778963E+03  0.40000000000E+03 0. -1.
<mgrwt>
<rscale>  2 0.43138126E+03</rscale>
<asrwt>0</asrwt>
<pdfrwt beam="1">  1       21 0.15645708E+00 0.43138126E+03</pdfrwt>
<pdfrwt beam="2">  1       21 0.61476490E-01 0.43138126E+03</pdfrwt>
<totfact> 0.55272141E+02</totfact>
</mgrwt>
</event>
<event>
 4    1  0.4840996E-002  0.4956236E+03  0.7818608E-02  0.1014928E+00
         21   -1    0    0  501  502  0.00000000000E+00  0.00000000000E+00  0.46347419098E+03  0.46347419098E+03  0.00000000000E+00 0. -1.
         21   -1    0    0  502  503 -0.00000000000E+00 -0.00000000000E+00 -0.86151122066E+03  0.86151122066E+03  0.00000000000E+00 0. -1.
    9000005    1    1    2  501    0  0.28684121245E+03  0.58007784934E+02  0.21193971344E+03  0.53903731448E+03  0.40000000000E+03 0. -1.
   -9000005    1    1    2    0  503 -0.28684121245E+03 -0.58007784934E+02 -0.60997674312E+03  0.78594809715E+03  0.40000000000E+03 0. -1.
<mgrwt>
<rscale>  2 0.49562363E+03</rscale>
<asrwt>0</asrwt>
<pdfrwt beam="1">  1       21 0.71303722E-01 0.49562363E+03</pdfrwt>
<pdfrwt beam="2">  1       21 0.13254019E+00 0.49562363E+03</pdfrwt>
<totfact> 0.60233964E+02</totfact>
</mgrwt>
</event>
<event>
 4    1  0.4840996E-002  0.4146835E+03  0.7818608E-02  0.1038811E+00
         21   -1    0    0  501  502  0.00000000000E+00  0.00000000000E+00  0.91579196753E+03  0.91579196753E+03  0.00000000000E+00 0.  1.
         21   -1    0    0  502  503 -0.00000000000E+00 -0.00000000000E+00 -0.45310838625E+03  0.45310838625E+03  0.00000000000E+00 0.  1.
    9000005    1    1    2  501    0  0.27977585659E+02 -0.10573403801E+03  0.75510754741E+03  0.86148118972E+03  0.40000000000E+03 0.  1.
   -9000005    1    1    2    0  503 -0.27977585659E+02  0.10573403801E+03 -0.29242396612E+03  0.50741916406E+03  0.40000000000E+03 0.  1.
<mgrwt>
<rscale>  2 0.41468353E+03</rscale>
<asrwt>0</asrwt>
<pdfrwt beam="1">  1       21 0.14089107E+00 0.41468353E+03</pdfrwt>
<pdfrwt beam="2">  1       21 0.69708983E-01 0.41468353E+03</pdfrwt>
<totfact> 0.55945987E+02</totfact>
</mgrwt>
</event>
<event>
 4    1  0.4840996E-002  0.5686932E+03  0.7818608E-02  0.9972575E-01
         21   -1    0    0  501  502  0.00000000000E+00  0.00000000000E+00  0.50462522081E+03  0.50462522081E+03  0.00000000000E+00 0.  1.
         21   -1    0    0  502  503 -0.00000000000E+00 -0.00000000000E+00 -0.94352864693E+03  0.94352864693E+03  0.00000000000E+00 0. -1.
    9000005    1    1    2  501    0  0.11505176153E+03 -0.38752422654E+03  0.19062542283E+03  0.59979161866E+03  0.40000000000E+03 0.  1.
   -9000005    1    1    2    0  503 -0.11505176153E+03  0.38752422654E+03 -0.62952884896E+03  0.84836224907E+03  0.40000000000E+03 0. -1.
<mgrwt>
<rscale>  2 0.56869318E+03</rscale>
<asrwt>0</asrwt>
<pdfrwt beam="1">  1       21 0.77634650E-01 0.56869318E+03</pdfrwt>
<pdfrwt beam="2">  1       21 0.14515825E+00 0.56869318E+03</pdfrwt>
<totfact> 0.37844711E+02</totfact>
</mgrwt>
</event>
<event>
 4    1  0.4840996E-002  0.7074224E+03  0.7818608E-02  0.9704622E-01
         21   -1    0    0  503  502  0.00000000000E+00  0.00000000000E+00  0.11193738680E+04  0.11193738680E+04  0.00000000000E+00 0.  1.
         21   -1    0    0  501  503 -0.00000000000E+00 -0.00000000000E+00 -0.44799555385E+03  0.44799555385E+03  0.00000000000E+00 0. -1.
    9000005    1    1    2  501    0  0.27213722512E+03  0.51612764460E+03  0.30020497004E+03  0.76848515851E+03  0.40000000000E+03 0.  1.
   -9000005    1    1    2    0  502 -0.27213722512E+03 -0.51612764460E+03  0.37117334407E+03  0.79888426331E+03  0.40000000000E+03 0. -1.
<mgrwt>
<rscale>  2 0.70742237E+03</rscale>
<asrwt>0</asrwt>
<pdfrwt beam="1">  1       21 0.17221136E+00 0.70742237E+03</pdfrwt>
<pdfrwt beam="2">  1       21 0.68922393E-01 0.70742237E+03</pdfrwt>
<totfact> 0.29372606E+02</totfact>
</mgrwt>
</event>
<event>
 4    1  0.4840996E-002  0.4525554E+03  0.7818608E-02  0.1026963E+00
         21   -1    0    0  501  502  0.00000000000E+00  0.00000000000E+00  0.12739516031E+04  0.12739516031E+04  0.00000000000E+00 0. -1.
         21   -1    0    0  502  503 -0.00000000000E+00 -0.00000000000E+00 -0.17824123988E+03  0.17824123988E+03  0.00000000000E+00 0. -1.
    9000005    1    1    2  501    0  0.68708261430E+02 -0.20021375450E+03  0.32049277739E+03  0.55454665542E+03  0.40000000000E+03 0. -1.
   -9000005    1    1    2    0  503 -0.68708261430E+02  0.20021375450E+03  0.77521758583E+03  0.89764618757E+03  0.40000000000E+03 0. -1.
<mgrwt>
<rscale>  2 0.45255538E+03</rscale>
<asrwt>0</asrwt>
<pdfrwt beam="1">  1       21 0.19599255E+00 0.45255538E+03</pdfrwt>
<pdfrwt beam="2">  1       21 0.27421730E-01 0.45255538E+03</pdfrwt>
<totfact> 0.15206857E+03</totfact>
</mgrwt>
</event>
<event>
 4    1  0.4840996E-002  0.5490933E+03  0.7818608E-02  0.1001704E+00
         21   -1    0    0  503  502  0.00000000000E+00  0.00000000000E+00  0.79526288583E+03  0.79526288583E+03  0.00000000000E+00 0.  1.
         21   -1    0    0  501  503 -0.00000000000E+00 -0.00000000000E+00 -0.44409309022E+03  0.44409309022E+03  0.00000000000E+00 0. -1.
    9000005    1    1    2  501    0  0.24519863802E+03 -0.28527371745E+03 -0.61433212469E+02  0.55251923545E+03  0.40000000000E+03 0. -1.
   -9000005    1    1    2    0  502 -0.24519863802E+03  0.28527371745E+03  0.41260300808E+03  0.68683674060E+03  0.40000000000E+03 0.  1.
<mgrwt>
<rscale>  2 0.54909331E+03</rscale>
<asrwt>0</asrwt>
<pdfrwt beam="1">  1       21 0.12234814E+00 0.54909331E+03</pdfrwt>
<pdfrwt beam="2">  1       21 0.68322014E-01 0.54909331E+03</pdfrwt>
<totfact> 0.80035031E+02</totfact>
</mgrwt>
</event>
<event>
 4    1  0.4840996E-002  0.5235979E+03  0.7818608E-02  0.1007797E+00
         21   -1    0    0  501  502  0.00000000000E+00  0.00000000000E+00  0.41584931170E+03  0.41584931170E+03  0.00000000000E+00 0. -1.
         21   -1    0    0  502  503 -0.00000000000E+00 -0.00000000000E+00 -0.10070894880E+04  0.10070894880E+04  0.00000000000E+00 0. -1.
    9000005    1    1    2  501    0  0.81216406560E+02 -0.32796130671E+03 -0.71374161878E+03  0.88520157126E+03  0.40000000000E+03 0. -1.
   -9000005    1    1    2    0  503 -0.81216406560E+02  0.32796130671E+03  0.12250144252E+03  0.53773722840E+03  0.40000000000E+03 0. -1.
<mgrwt>
<rscale>  2 0.52359786E+03</rscale>
<asrwt>0</asrwt>
<pdfrwt beam="1">  1       21 0.63976818E-01 0.52359786E+03</pdfrwt>
<pdfrwt beam="2">  1       21 0.15493684E+00 0.52359786E+03</pdfrwt>
<totfact> 0.49941793E+02</totfact>
</mgrwt>
</event>
<event>
 4    1  0.4840996E-002  0.4591125E+03  0.7818608E-02  0.1025039E+00
         21   -1    0    0  503  502  0.00000000000E+00  0.00000000000E+00  0.34795947992E+03  0.34795947992E+03  0.00000000000E+00 0. -1.
         21   -1    0    0  501  503 -0.00000000000E+00 -0.00000000000E+00 -0.61409681548E+03  0.61409681548E+03  0.00000000000E+00 0. -1.
    9000005    1    1    2  501    0 -0.12669937552E+03  0.18636414005E+03 -0.77064118813E+02  0.46553539378E+03  0.40000000000E+03 0. -1.
   -9000005    1    1    2    0  502  0.12669937552E+03 -0.18636414005E+03 -0.18907321675E+03  0.49652090162E+03  0.40000000000E+03 0. -1.
<mgrwt>
<rscale>  2 0.45911254E+03</rscale>
<asrwt>0</asrwt>
<pdfrwt beam="1">  1       21 0.53532228E-01 0.45911254E+03</pdfrwt>
<pdfrwt beam="2">  1       21 0.94476432E-01 0.45911254E+03</pdfrwt>
<totfact> 0.26813187E+03</totfact>
</mgrwt>
</event>
<event>
 4    1  0.4840996E-002  0.4656349E+03  0.7818608E-02  0.1023160E+00
         21   -1    0    0  501  502  0.00000000000E+00  0.00000000000E+00  0.11914976929E+04  0.11914976929E+04  0.00000000000E+00 0. -1.
         21   -1    0    0  502  503 -0.00000000000E+00 -0.00000000000E+00 -0.26028912168E+03  0.26028912168E+03  0.00000000000E+00 0.  1.
    9000005    1    1    2  501    0  0.13892798690E+03  0.19368749517E+03  0.67422781102E+02  0.47049087424E+03  0.40000000000E+03 0.  1.
   -9000005    1    1    2    0  503 -0.13892798690E+03 -0.19368749517E+03  0.86378579010E+03  0.98129594033E+03  0.40000000000E+03 0.  1.
<mgrwt>
<rscale>  2 0.46563487E+03</rscale>
<asrwt>0</asrwt>
<pdfrwt beam="1">  1       21 0.18330734E+00 0.46563487E+03</pdfrwt>
<pdfrwt beam="2">  1       21 0.40044481E-01 0.46563487E+03</pdfrwt>
<totfact> 0.86224590E+02</totfact>
</mgrwt>
</event>
<event>
 4    1  0.4840996E-002  0.4336230E+03  0.7818608E-02  0.1032722E+00
         21   -1    0    0  503  502  0.00000000000E+00  0.00000000000E+00  0.34077309566E+03  0.34077309566E+03  0.00000000000E+00 0.  1.
         21   -1    0    0  501  503 -0.00000000000E+00 -0.00000000000E+00 -0.64900613151E+03  0.64900613151E+03  0.00000000000E+00 0.  1.
    9000005    1    1    2  501    0 -0.16740243724E+03  0.23103562843E+01 -0.34567183822E+03  0.55454299516E+03  0.40000000000E+03 0.  1.
   -9000005    1    1    2    0  502  0.16740243724E+03 -0.23103562843E+01  0.37438802369E+02  0.43523623202E+03  0.40000000000E+03 0.  1.
<mgrwt>
<rscale>  2 0.43362301E+03</rscale>
<asrwt>0</asrwt>
<pdfrwt beam="1">  1       21 0.52426630E-01 0.43362301E+03</pdfrwt>
<pdfrwt beam="2">  1       21 0.99847097E-01 0.43362301E+03</pdfrwt>
<totfact> 0.24776074E+03</totfact>
</mgrwt>
</event>
<event>
 4    1  0.4840996E-002  0.4147662E+03  0.7818608E-02  0.1038783E+00
         21   -1    0    0  503  502  0.00000000000E+00  0.00000000000E+00  0.88038309491E+03  0.88038309491E+03  0.00000000000E+00 0.  1.
         21   -1    0    0  501  503 -0.00000000000E+00 -0.00000000000E+00 -0.50994713267E+03  0.50994713267E+03  0.00000000000E+00 0.  1.
    9000005    1    1    2  501    0  0.10174567737E+03  0.40973837038E+02 -0.36074724044E+03  0.54969956310E+03  0.40000000000E+03 0.  1.
   -9000005    1    1    2    0  502 -0.10174567737E+03 -0.40973837038E+02  0.73118320268E+03  0.84063066448E+03  0.40000000000E+03 0.  1.
<mgrwt>
<rscale>  2 0.41476625E+03</rscale>
<asrwt>0</asrwt>
<pdfrwt beam="1">  1       21 0.13544355E+00 0.41476625E+03</pdfrwt>
<pdfrwt beam="2">  1       21 0.78453405E-01 0.41476625E+03</pdfrwt>
<totfact> 0.47470672E+02</totfact>
</mgrwt>
</event>
<event>
 4    1  0.4840996E-002  0.5965309E+03  0.7818608E-02  0.9912629E-01
         21   -1    0    0  501  502  0.00000000000E+00  0.00000000000E+00  0.20558271544E+04  0.20558271544E+04  0.00000000000E+00 0. -1.
         21   -1    0    0  502  503 -0.00000000000E+00 -0.00000000000E+00 -0.21985028141E+03  0.21985028141E+03  0.00000000000E+00 0.  1.
    9000005    1    1    2  501    0  0.39001690264E+03 -0.20913148649E+03  0.14427259426E+04  0.15611877877E+04  0.40000000000E+03 0. -1.
   -9000005    1    1    2    0  503 -0.39001690264E+03  0.20913148649E+03  0.39325093037E+03  0.71448964809E+03  0.40000000000E+03 0.  1.
<mgrwt>
<rscale>  2 0.59653094E+03</rscale>
<asrwt>0</asrwt>
<pdfrwt beam="1">  1       21 0.31628109E+00 0.59653094E+03</pdfrwt>
<pdfrwt beam="2">  1       21 0.33823122E-01 0.59653094E+03</pdfrwt>
<totfact> 0.16642587E+02</totfact>
</mgrwt>
</event>
<event>
 4    1  0.4840996E-002  0.4040511E+03  0.7818608E-02  0.1042386E+00
         21   -1    0    0  503  502  0.00000000000E+00  0.00000000000E+00  0.85783023950E+03  0.85783023950E+03  0.00000000000E+00 0. -1.
         21   -1    0    0  501  503 -0.00000000000E+00 -0.00000000000E+00 -0.44759186808E+03  0.44759186808E+03  0.00000000000E+00 0. -1.
    9000005    1    1    2  501    0 -0.30183793496E+02 -0.48437601381E+02 -0.28973919777E+03  0.49719821534E+03  0.40000000000E+03 0. -1.
   -9000005    1    1    2    0  502  0.30183793496E+02  0.48437601381E+02  0.69997756919E+03  0.80822389224E+03  0.40000000000E+03 0. -1.
<mgrwt>
<rscale>  2 0.40405106E+03</rscale>
<asrwt>0</asrwt>
<pdfrwt beam="1">  1       21 0.13197388E+00 0.40405106E+03</pdfrwt>
<pdfrwt beam="2">  1       21 0.68860288E-01 0.40405106E+03</pdfrwt>
<totfact> 0.68635418E+02</totfact>
</mgrwt>
</event>
<event>
 4    1  0.4840996E-002  0.4205547E+03  0.7818608E-02  0.1036886E+00
         21   -1    0    0  503  502  0.00000000000E+00  0.00000000000E+00  0.33209880632E+03  0.33209880632E+03  0.00000000000E+00 0.  1.
         21   -1    0    0  501  503 -0.00000000000E+00 -0.00000000000E+00 -0.65481377169E+03  0.65481377169E+03  0.00000000000E+00 0.  1.
    9000005    1    1    2  501    0  0.72508648557E+02  0.10774405324E+03  0.51849237552E+02  0.42373886836E+03  0.40000000000E+03 0.  1.
   -9000005    1    1    2    0  502 -0.72508648557E+02 -0.10774405324E+03 -0.37456420292E+03  0.56317370965E+03  0.40000000000E+03 0.  1.
<mgrwt>
<rscale>  2 0.42055473E+03</rscale>
<asrwt>0</asrwt>
<pdfrwt beam="1">  1       21 0.51092124E-01 0.42055473E+03</pdfrwt>
<pdfrwt beam="2">  1       21 0.10074058E+00 0.42055473E+03</pdfrwt>
<totfact> 0.25746701E+03</totfact>
</mgrwt>
</event>
<event>
 4    1  0.4840996E-002  0.4378906E+03  0.7818608E-02  0.1031396E+00
         21   -1    0    0  503  502  0.00000000000E+00  0.00000000000E+00  0.56532734715E+03  0.56532734715E+03  0.00000000000E+00 0. -1.
         21   -1    0    0  501  503 -0.00000000000E+00 -0.00000000000E+00 -0.54357265183E+03  0.54357265183E+03  0.00000000000E+00 0. -1.
    9000005    1    1    2  501    0 -0.12487276120E+03 -0.12710206957E+03  0.35086680575E+03  0.56112000317E+03  0.40000000000E+03 0. -1.
   -9000005    1    1    2    0  502  0.12487276120E+03  0.12710206957E+03 -0.32911211043E+03  0.54777999581E+03  0.40000000000E+03 0. -1.
<mgrwt>
<rscale>  2 0.43789056E+03</rscale>
<asrwt>0</asrwt>
<pdfrwt beam="1">  1       21 0.86973438E-01 0.43789056E+03</pdfrwt>
<pdfrwt beam="2">  1       21 0.83626562E-01 0.43789056E+03</pdfrwt>
<totfact> 0.12134336E+03</totfact>
</mgrwt>
</event>
<event>
 4    1  0.4840996E-002  0.4186736E+03  0.7818608E-02  0.1037499E+00
         21   -1    0    0  501  502  0.00000000000E+00  0.00000000000E+00  0.64281134232E+03  0.64281134232E+03  0.00000000000E+00 0. -1.
         21   -1    0    0  502  503 -0.00000000000E+00 -0.00000000000E+00 -0.35151438770E+03  0.35151438770E+03  0.00000000000E+00 0. -1.
    9000005    1    1    2  501    0  0.94964050423E+02 -0.79179873716E+02  0.38107750588E+03  0.56613398482E+03  0.40000000000E+03 0. -1.
   -9000005    1    1    2    0  503 -0.94964050423E+02  0.79179873716E+02 -0.89780551263E+02  0.42819174520E+03  0.40000000000E+03 0. -1.
<mgrwt>
<rscale>  2 0.41867365E+03</rscale>
<asrwt>0</asrwt>
<pdfrwt beam="1">  1       21 0.98894052E-01 0.41867365E+03</pdfrwt>
<pdfrwt beam="2">  1       21 0.54079137E-01 0.41867365E+03</pdfrwt>
<totfact> 0.23862037E+03</totfact>
</mgrwt>
</event>
<event>
 4    1  0.4840996E-002  0.4710662E+03  0.7818608E-02  0.1021620E+00
         21   -1    0    0  503  502  0.00000000000E+00  0.00000000000E+00  0.24104391550E+04  0.24104391550E+04  0.00000000000E+00 0. -1.
         21   -1    0    0  501  503 -0.00000000000E+00 -0.00000000000E+00 -0.10371208034E+03  0.10371208034E+03  0.00000000000E+00 0. -1.
    9000005    1    1    2  501    0 -0.22761165367E+02  0.24776064126E+03  0.73199606236E+03  0.87047207958E+03  0.40000000000E+03 0. -1.
   -9000005    1    1    2    0  502  0.22761165367E+02 -0.24776064126E+03  0.15747310123E+04  0.16436791558E+04  0.40000000000E+03 0. -1.
<mgrwt>
<rscale>  2 0.47106624E+03</rscale>
<asrwt>0</asrwt>
<pdfrwt beam="1">  1       21 0.37083675E+00 0.47106624E+03</pdfrwt>
<pdfrwt beam="2">  1       21 0.15955706E-01 0.47106624E+03</pdfrwt>
<totfact> 0.35260185E+02</totfact>
</mgrwt>
</event>
<event>
 4    1  0.4840996E-002  0.4742505E+03  0.7818608E-02  0.1020727E+00
         21   -1    0    0  503  502  0.00000000000E+00  0.00000000000E+00  0.16104165791E+04  0.16104165791E+04  0.00000000000E+00 0.  1.
         21   -1    0    0  501  503 -0.00000000000E+00 -0.00000000000E+00 -0.17361535319E+03  0.17361535319E+03  0.00000000000E+00 0.  1.
    9000005    1    1    2  501    0  0.25022069022E+03  0.47991017941E+02  0.32392354596E+03  0.57431698150E+03  0.40000000000E+03 0.  1.
   -9000005    1    1    2    0  502 -0.25022069022E+03 -0.47991017941E+02  0.11128776800E+04  0.12097149508E+04  0.40000000000E+03 0.  1.
<mgrwt>
<rscale>  2 0.47425049E+03</rscale>
<asrwt>0</asrwt>
<pdfrwt beam="1">  1       21 0.24775639E+00 0.47425049E+03</pdfrwt>
<pdfrwt beam="2">  1       21 0.26710055E-01 0.47425049E+03</pdfrwt>
<totfact> 0.73876487E+02</totfact>
</mgrwt>
</event>
<event>
 4    1  0.4840996E-002  0.4655068E+03  0.7818608E-02  0.1023196E+00
         21   -1    0    0  503  502  0.00000000000E+00  0.00000000000E+00  0.16250768970E+03  0.16250768970E+03  0.00000000000E+00 0. -1.
         21   -1    0    0  501  503 -0.00000000000E+00 -0.00000000000E+00 -0.13559869988E+04  0.13559869988E+04  0.00000000000E+00 0.  1.
    9000005    1    1    2  501    0 -0.11960494682E+03  0.20589140313E+03 -0.69461200437E+03  0.83617130410E+03  0.40000000000E+03 0. -1.
   -9000005    1    1    2    0  502  0.11960494682E+03 -0.20589140313E+03 -0.49886730476E+03  0.68232338443E+03  0.40000000000E+03 0. -1.
<mgrwt>
<rscale>  2 0.46550683E+03</rscale>
<asrwt>0</asrwt>
<pdfrwt beam="1">  1       21 0.25001183E-01 0.46550683E+03</pdfrwt>
<pdfrwt beam="2">  1       21 0.20861339E+00 0.46550683E+03</pdfrwt>
<totfact> 0.14938915E+03</totfact>
</mgrwt>
</event>
<event>
 4    1  0.4840996E-002  0.4592150E+03  0.7818608E-02  0.1025009E+00
         21   -1    0    0  503  502  0.00000000000E+00  0.00000000000E+00  0.31683698239E+03  0.31683698239E+03  0.00000000000E+00 0. -1.
         21   -1    0    0  501  503 -0.00000000000E+00 -0.00000000000E+00 -0.77157030173E+03  0.77157030173E+03  0.00000000000E+00 0. -1.
    9000005    1    1    2  501    0  0.47035312580E+02  0.22060394616E+03 -0.42907287549E+03  0.62847589785E+03  0.40000000000E+03 0. -1.
   -9000005    1    1    2    0  502 -0.47035312580E+02 -0.22060394616E+03 -0.25660443847E+02  0.45993138626E+03  0.40000000000E+03 0. -1.
<mgrwt>
<rscale>  2 0.45921501E+03</rscale>
<asrwt>0</asrwt>
<pdfrwt beam="1">  1       21 0.48744152E-01 0.45921501E+03</pdfrwt>
<pdfrwt beam="2">  1       21 0.11870312E+00 0.45921501E+03</pdfrwt>
<totfact> 0.18670261E+03</totfact>
</mgrwt>
</event>
<event>
 4    1  0.4840996E-002  0.7415630E+03  0.7818608E-02  0.9648680E-01
         21   -1    0    0  503  502  0.00000000000E+00  0.00000000000E+00  0.37901213743E+03  0.37901213743E+03  0.00000000000E+00 0. -1.
         21   -1    0    0  501  503 -0.00000000000E+00 -0.00000000000E+00 -0.22730519210E+04  0.22730519210E+04  0.00000000000E+00 0.  1.
    9000005    1    1    2  501    0 -0.13143363564E+02  0.62429389172E+03 -0.17445012962E+04  0.18955738930E+04  0.40000000000E+03 0.  1.
   -9000005    1    1    2    0  502  0.13143363564E+02 -0.62429389172E+03 -0.14953848737E+03  0.75649016547E+03  0.40000000000E+03 0. -1.
<mgrwt>
<rscale>  2 0.74156295E+03</rscale>
<asrwt>0</asrwt>
<pdfrwt beam="1">  1       21 0.58309561E-01 0.74156295E+03</pdfrwt>
<pdfrwt beam="2">  1       21 0.34970029E+00 0.74156295E+03</pdfrwt>
<totfact> 0.30782642E+01</totfact>
</mgrwt>
</event>
<event>
 4    1  0.4840996E-002  0.5305603E+03  0.7818608E-02  0.1006096E+00
         21   -1    0    0  501  502  0.00000000000E+00  0.00000000000E+00  0.21794110190E+04  0.21794110190E+04  0.00000000000E+00 0. -1.
         21   -1    0    0  502  503 -0.00000000000E+00 -0.00000000000E+00 -0.14662844742E+03  0.14662844742E+03  0.00000000000E+00 0.  1.
    9000005    1    1    2  501    0 -0.34137398748E+03  0.70413412918E+02  0.14178089176E+04  0.15138283835E+04  0.40000000000E+03 0. -1.
   -9000005    1    1    2    0  503  0.34137398748E+03 -0.70413412918E+02  0.61497365405E+03  0.81221108292E+03  0.40000000000E+03 0.  1.
<mgrwt>
<rscale>  2 0.53056032E+03</rscale>
<asrwt>0</asrwt>
<pdfrwt beam="1">  1       21 0.33529398E+00 0.53056032E+03</pdfrwt>
<pdfrwt beam="2">  1       21 0.22558224E-01 0.53056032E+03</pdfrwt>
<totfact> 0.29314115E+02</totfact>
</mgrwt>
</event>
<event>
 4    1  0.4840996E-002  0.6133329E+03  0.7818608E-02  0.9878124E-01
         21   -1    0    0  501  502  0.00000000000E+00  0.00000000000E+00  0.39300829141E+04  0.39300829141E+04  0.00000000000E+00 0. -1.
         21   -1    0    0  502  503 -0.00000000000E+00 -0.00000000000E+00 -0.11086981408E+03  0.11086981408E+03  0.00000000000E+00 0.  1.
    9000005    1    1    2  501    0 -0.43371966641E+03  0.16752457389E+03  0.26565510693E+04  0.27264337174E+04  0.40000000000E+03 0. -1.
   -9000005    1    1    2    0  503  0.43371966641E+03 -0.16752457389E+03  0.11626620307E+04  0.13145190107E+04  0.40000000000E+03 0.  1.
<mgrwt>
<rscale>  2 0.61333289E+03</rscale>
<asrwt>0</asrwt>
<pdfrwt beam="1">  1       21 0.60462803E+00 0.61333289E+03</pdfrwt>
<pdfrwt beam="2">  1       21 0.17056898E-01 0.61333289E+03</pdfrwt>
<totfact> 0.63952898E+00</totfact>
</mgrwt>
</event>
<event>
 4    1  0.4840996E-002  0.6134843E+03  0.7818608E-02  0.9877819E-01
         21   -1    0    0  503  502  0.00000000000E+00  0.00000000000E+00  0.12825207295E+04  0.12825207295E+04  0.00000000000E+00 0.  1.
         21   -1    0    0  501  503 -0.00000000000E+00 -0.00000000000E+00 -0.36263876842E+03  0.36263876842E+03  0.00000000000E+00 0.  1.
    9000005    1    1    2  501    0 -0.32184772574E+03  0.33582292019E+03  0.10065450308E+03  0.62168667452E+03  0.40000000000E+03 0.  1.
   -9000005    1    1    2    0  502  0.32184772574E+03 -0.33582292019E+03  0.81922745804E+03  0.10234728234E+04  0.40000000000E+03 0.  1.
<mgrwt>
<rscale>  2 0.61348430E+03</rscale>
<asrwt>0</asrwt>
<pdfrwt beam="1">  1       21 0.19731088E+00 0.61348430E+03</pdfrwt>
<pdfrwt beam="2">  1       21 0.55790581E-01 0.61348430E+03</pdfrwt>
<totfact> 0.32245524E+02</totfact>
</mgrwt>
</event>
<event>
 4    1  0.4840996E-002  0.5142336E+03  0.7818608E-02  0.1010129E+00
         21   -1    0    0  501  502  0.00000000000E+00  0.00000000000E+00  0.96222835721E+03  0.96222835721E+03  0.00000000000E+00 0. -1.
         21   -1    0    0  502  503 -0.00000000000E+00 -0.00000000000E+00 -0.47945086856E+03  0.47945086856E+03  0.00000000000E+00 0. -1.
    9000005    1    1    2  501    0  0.30173825492E+03  0.11571593117E+03  0.71231831753E+03  0.87854057203E+03  0.40000000000E+03 0. -1.
   -9000005    1    1    2    0  503 -0.30173825492E+03 -0.11571593117E+03 -0.22954082888E+03  0.56313865374E+03  0.40000000000E+03 0. -1.
<mgrwt>
<rscale>  2 0.51423356E+03</rscale>
<asrwt>0</asrwt>
<pdfrwt beam="1">  1       21 0.14803513E+00 0.51423356E+03</pdfrwt>
<pdfrwt beam="2">  1       21 0.73761672E-01 0.51423356E+03</pdfrwt>
<totfact> 0.41214444E+02</totfact>
</mgrwt>
</event>
<event>
 4    1  0.4840996E-002  0.4763751E+03  0.7818608E-02  0.1020136E+00
         21   -1    0    0  501  502  0.00000000000E+00  0.00000000000E+00  0.14814978790E+03  0.14814978790E+03  0.00000000000E+00 0. -1.
         21   -1    0    0  502  503 -0.00000000000E+00 -0.00000000000E+00 -0.16892669944E+04  0.16892669944E+04  0.00000000000E+00 0. -1.
    9000005    1    1    2  501    0 -0.21375219657E+03  0.14575051129E+03 -0.49004895624E+03  0.68343338563E+03  0.40000000000E+03 0. -1.
   -9000005    1    1    2    0  503  0.21375219657E+03 -0.14575051129E+03 -0.10510682502E+04  0.11539833966E+04  0.40000000000E+03 0. -1.
<mgrwt>
<rscale>  2 0.47637508E+03</rscale>
<asrwt>0</asrwt>
<pdfrwt beam="1">  1       21 0.22792275E-01 0.47637508E+03</pdfrwt>
<pdfrwt beam="2">  1       21 0.25988724E+00 0.47637508E+03</pdfrwt>
<totfact> 0.84646407E+02</totfact>
</mgrwt>
</event>
<event>
 4    1  0.4840996E-002  0.4565478E+03  0.7818608E-02  0.1025787E+00
         21   -1    0    0  501  502  0.00000000000E+00  0.00000000000E+00  0.17594141327E+03  0.17594141327E+03  0.00000000000E+00 0.  1.
         21   -1    0    0  502  503 -0.00000000000E+00 -0.00000000000E+00 -0.14504180956E+04  0.14504180956E+04  0.00000000000E+00 0.  1.
    9000005    1    1    2  501    0 -0.25952917596E+02  0.21854587280E+03 -0.28917400328E+03  0.54042340495E+03  0.40000000000E+03 0.  1.
   -9000005    1    1    2    0  503  0.25952917596E+02 -0.21854587280E+03 -0.98530267906E+03  0.10859361039E+04  0.40000000000E+03 0.  1.
<mgrwt>
<rscale>  2 0.45654775E+03</rscale>
<asrwt>0</asrwt>
<pdfrwt beam="1">  1       21 0.27067909E-01 0.45654775E+03</pdfrwt>
<pdfrwt beam="2">  1       21 0.22314125E+00 0.45654775E+03</pdfrwt>
<totfact> 0.10348459E+03</totfact>
</mgrwt>
</event>
<event>
 4    1  0.4840996E-002  0.4009626E+03  0.7818608E-02  0.1043447E+00
         21   -1    0    0  503  502  0.00000000000E+00  0.00000000000E+00  0.23102413856E+03  0.23102413856E+03  0.00000000000E+00 0. -1.
         21   -1    0    0  501  503 -0.00000000000E+00 -0.00000000000E+00 -0.69900310551E+03  0.69900310551E+03  0.00000000000E+00 0. -1.
    9000005    1    1    2  501    0 -0.26707169601E+02 -0.75966815575E+01 -0.20303418603E+03  0.44943727390E+03  0.40000000000E+03 0.  1.
   -9000005    1    1    2    0  502  0.26707169601E+02  0.75966815575E+01 -0.26494478092E+03  0.48058997016E+03  0.40000000000E+03 0.  1.
<mgrwt>
<rscale>  2 0.40096257E+03</rscale>
<asrwt>0</asrwt>
<pdfrwt beam="1">  1       21 0.35542176E-01 0.40096257E+03</pdfrwt>
<pdfrwt beam="2">  1       21 0.10753894E+00 0.40096257E+03</pdfrwt>
<totfact> 0.46944009E+03</totfact>
</mgrwt>
</event>
<event>
 4    1  0.4840996E-002  0.4117310E+03  0.7818608E-02  0.1039792E+00
         21   -1    0    0  503  502  0.00000000000E+00  0.00000000000E+00  0.13190537616E+03  0.13190537616E+03  0.00000000000E+00 0.  1.
         21   -1    0    0  501  503 -0.00000000000E+00 -0.00000000000E+00 -0.13348155009E+04  0.13348155009E+04  0.00000000000E+00 0.  1.
    9000005    1    1    2  501    0  0.67190544688E+02 -0.70766308018E+02 -0.46004070665E+03  0.61738147965E+03  0.40000000000E+03 0.  1.
   -9000005    1    1    2    0  502 -0.67190544688E+02  0.70766308018E+02 -0.74286941812E+03  0.84933939743E+03  0.40000000000E+03 0.  1.
<mgrwt>
<rscale>  2 0.41173103E+03</rscale>
<asrwt>0</asrwt>
<pdfrwt beam="1">  1       21 0.20293135E-01 0.41173103E+03</pdfrwt>
<pdfrwt beam="2">  1       21 0.20535623E+00 0.41173103E+03</pdfrwt>
<totfact> 0.24012658E+03</totfact>
</mgrwt>
</event>
<event>
 4    1  0.4840996E-002  0.4226657E+03  0.7818608E-02  0.1036202E+00
         21   -1    0    0  501  502  0.00000000000E+00  0.00000000000E+00  0.64664699781E+03  0.64664699781E+03  0.00000000000E+00 0.  1.
         21   -1    0    0  502  503 -0.00000000000E+00 -0.00000000000E+00 -0.31314062445E+03  0.31314062445E+03  0.00000000000E+00 0.  1.
    9000005    1    1    2  501    0  0.10826404750E+03  0.83217962355E+02  0.33143342547E+03  0.53711679248E+03  0.40000000000E+03 0.  1.
   -9000005    1    1    2    0  503 -0.10826404750E+03 -0.83217962355E+02  0.20729478820E+01  0.42267082979E+03  0.40000000000E+03 0.  1.
<mgrwt>
<rscale>  2 0.42266575E+03</rscale>
<asrwt>0</asrwt>
<pdfrwt beam="1">  1       21 0.99484153E-01 0.42266575E+03</pdfrwt>
<pdfrwt beam="2">  1       21 0.48175481E-01 0.42266575E+03</pdfrwt>
<totfact> 0.30044808E+03</totfact>
</mgrwt>
</event>
<event>
 4    1  0.4840996E-002  0.4375944E+03  0.7818608E-02  0.1031487E+00
         21   -1    0    0  503  502  0.00000000000E+00  0.00000000000E+00  0.12043497955E+04  0.12043497955E+04  0.00000000000E+00 0. -1.
         21   -1    0    0  501  503 -0.00000000000E+00 -0.00000000000E+00 -0.23977480349E+03  0.23977480349E+03  0.00000000000E+00 0. -1.
    9000005    1    1    2  501    0 -0.30299565860E+02  0.17484514425E+03  0.63188186308E+02  0.44213305130E+03  0.40000000000E+03 0. -1.
   -9000005    1    1    2    0  502  0.30299565860E+02 -0.17484514425E+03  0.90138680567E+03  0.10019915477E+04  0.40000000000E+03 0. -1.
<mgrwt>
<rscale>  2 0.43759443E+03</rscale>
<asrwt>0</asrwt>
<pdfrwt beam="1">  1       21 0.18528458E+00 0.43759443E+03</pdfrwt>
<pdfrwt beam="2">  1       21 0.36888432E-01 0.43759443E+03</pdfrwt>
<totfact> 0.10009424E+03</totfact>
</mgrwt>
</event>
<event>
 4    1  0.4840996E-002  0.5343693E+03  0.7818608E-02  0.1005178E+00
         21   -1    0    0  503  502  0.00000000000E+00  0.00000000000E+00  0.40366589426E+03  0.40366589426E+03  0.00000000000E+00 0.  1.
         21   -1    0    0  501  503 -0.00000000000E+00 -0.00000000000E+00 -0.88001362346E+03  0.88001362346E+03  0.00000000000E+00 0.  1.
    9000005    1    1    2  501    0 -0.33334138918E+03  0.12014207807E+03 -0.52244169863E+03  0.74732585204E+03  0.40000000000E+03 0.  1.
   -9000005    1    1    2    0  502  0.33334138918E+03 -0.12014207807E+03  0.46093969427E+02  0.53635366568E+03  0.40000000000E+03 0.  1.
<mgrwt>
<rscale>  2 0.53436935E+03</rscale>
<asrwt>0</asrwt>
<pdfrwt beam="1">  1       21 0.62102446E-01 0.53436935E+03</pdfrwt>
<pdfrwt beam="2">  1       21 0.13538671E+00 0.53436935E+03</pdfrwt>
<totfact> 0.76487446E+02</totfact>
</mgrwt>
</event>
<event>
 4    1  0.4840996E-002  0.4865017E+03  0.7818608E-02  0.1017363E+00
         21   -1    0    0  501  502  0.00000000000E+00  0.00000000000E+00  0.13234174472E+04  0.13234174472E+04  0.00000000000E+00 0.  1.
         21   -1    0    0  502  503 -0.00000000000E+00 -0.00000000000E+00 -0.25737453647E+03  0.25737453647E+03  0.00000000000E+00 0.  1.
    9000005    1    1    2  501    0 -0.22436537903E+03  0.16230848840E+03  0.96962187657E+03  0.10848273836E+04  0.40000000000E+03 0.  1.
   -9000005    1    1    2    0  503  0.22436537903E+03 -0.16230848840E+03  0.96421034202E+02  0.49596460010E+03  0.40000000000E+03 0.  1.
<mgrwt>
<rscale>  2 0.48650166E+03</rscale>
<asrwt>0</asrwt>
<pdfrwt beam="1">  1       21 0.20360268E+00 0.48650166E+03</pdfrwt>
<pdfrwt beam="2">  1       21 0.39596083E-01 0.48650166E+03</pdfrwt>
<totfact> 0.63628524E+02</totfact>
</mgrwt>
</event>
<event>
 4    1  0.4840996E-002  0.4202396E+03  0.7818608E-02  0.1036988E+00
         21   -1    0    0  503  502  0.00000000000E+00  0.00000000000E+00  0.15097035901E+04  0.15097035901E+04  0.00000000000E+00 0.  1.
         21   -1    0    0  501  503 -0.00000000000E+00 -0.00000000000E+00 -0.17524613270E+03  0.17524613270E+03  0.00000000000E+00 0.  1.
    9000005    1    1    2  501    0  0.10776360351E+03  0.70627957666E+02  0.18143683429E+03  0.45773423237E+03  0.40000000000E+03 0. -1.
   -9000005    1    1    2    0  502 -0.10776360351E+03 -0.70627957666E+02  0.11530206231E+04  0.12272154904E+04  0.40000000000E+03 0. -1.
<mgrwt>
<rscale>  2 0.42023958E+03</rscale>
<asrwt>0</asrwt>
<pdfrwt beam="1">  1       21 0.23226208E+00 0.42023958E+03</pdfrwt>
<pdfrwt beam="2">  1       21 0.26960945E-01 0.42023958E+03</pdfrwt>
<totfact> 0.93003139E+02</totfact>
</mgrwt>
</event>
<event>
 4    1  0.4840996E-002  0.6302229E+03  0.7818608E-02  0.9844614E-01
         21   -1    0    0  503  502  0.00000000000E+00  0.00000000000E+00  0.74479782930E+03  0.74479782930E+03  0.00000000000E+00 0. -1.
         21   -1    0    0  501  503 -0.00000000000E+00 -0.00000000000E+00 -0.57312551420E+03  0.57312551420E+03  0.00000000000E+00 0. -1.
    9000005    1    1    2  501    0 -0.17479694753E+03 -0.45456240771E+03 -0.87928059308E+02  0.63632719491E+03  0.40000000000E+03 0. -1.
   -9000005    1    1    2    0  502  0.17479694753E+03  0.45456240771E+03  0.25960037441E+03  0.68159614859E+03  0.40000000000E+03 0. -1.
<mgrwt>
<rscale>  2 0.63022294E+03</rscale>
<asrwt>0</asrwt>
<pdfrwt beam="1">  1       21 0.11458428E+00 0.63022294E+03</pdfrwt>
<pdfrwt beam="2">  1       21 0.88173155E-01 0.63022294E+03</pdfrwt>
<totfact> 0.51061777E+02</totfact>
</mgrwt>
</event>
<event>
 4    1  0.4840996E-002  0.4660156E+03  0.7818608E-02  0.1023051E+00
         21   -1    0    0  503  502  0.00000000000E+00  0.00000000000E+00  0.21374864896E+04  0.21374864896E+04  0.00000000000E+00 0.  1.
         21   -1    0    0  501  503 -0.00000000000E+00 -0.00000000000E+00 -0.35644896995E+03  0.35644896995E+03  0.00000000000E+00 0.  1.
    9000005    1    1    2  501    0 -0.20552882764E+02  0.23821867244E+03 -0.16386134997E+03  0.49398491768E+03  0.40000000000E+03 0.  1.
   -9000005    1    1    2    0  502  0.20552882764E+02 -0.23821867244E+03  0.19448988696E+04  0.19999505419E+04  0.40000000000E+03 0.  1.
<mgrwt>
<rscale>  2 0.46601562E+03</rscale>
<asrwt>0</asrwt>
<pdfrwt beam="1">  1       21 0.32884407E+00 0.46601562E+03</pdfrwt>
<pdfrwt beam="2">  1       21 0.54838305E-01 0.46601562E+03</pdfrwt>
<totfact> 0.54666386E+01</totfact>
</mgrwt>
</event>
<event>
 4    1  0.4840996E-002  0.4141507E+03  0.7818608E-02  0.1038987E+00
         21   -1    0    0  501  502  0.00000000000E+00  0.00000000000E+00  0.72323396366E+03  0.72323396366E+03  0.00000000000E+00 0. -1.
         21   -1    0    0  502  503 -0.00000000000E+00 -0.00000000000E+00 -0.32485222115E+03  0.32485222115E+03  0.00000000000E+00 0. -1.
    9000005    1    1    2  501    0 -0.59351398427E+02  0.89432946766E+02  0.47146674282E+03  0.62753623803E+03  0.40000000000E+03 0. -1.
   -9000005    1    1    2    0  503  0.59351398427E+02 -0.89432946766E+02 -0.73085000311E+02  0.42054994678E+03  0.40000000000E+03 0. -1.
<mgrwt>
<rscale>  2 0.41415075E+03</rscale>
<asrwt>0</asrwt>
<pdfrwt beam="1">  1       21 0.11126676E+00 0.41415075E+03</pdfrwt>
<pdfrwt beam="2">  1       21 0.49977265E-01 0.41415075E+03</pdfrwt>
<totfact> 0.21186706E+03</totfact>
</mgrwt>
</event>
<event>
 4    1  0.4840996E-002  0.4356481E+03  0.7818608E-02  0.1032090E+00
         21   -1    0    0  503  502  0.00000000000E+00  0.00000000000E+00  0.73229976589E+03  0.73229976589E+03  0.00000000000E+00 0.  1.
         21   -1    0    0  501  503 -0.00000000000E+00 -0.00000000000E+00 -0.58193062430E+03  0.58193062430E+03  0.00000000000E+00 0.  1.
    9000005    1    1    2  501    0 -0.11000035157E+03 -0.13300063472E+03 -0.41419629985E+03  0.60112213483E+03  0.40000000000E+03 0.  1.
   -9000005    1    1    2    0  502  0.11000035157E+03  0.13300063472E+03  0.56456544144E+03  0.71310825535E+03  0.40000000000E+03 0.  1.
<mgrwt>
<rscale>  2 0.43564808E+03</rscale>
<asrwt>0</asrwt>
<pdfrwt beam="1">  1       21 0.11266150E+00 0.43564808E+03</pdfrwt>
<pdfrwt beam="2">  1       21 0.89527788E-01 0.43564808E+03</pdfrwt>
<totfact> 0.55309056E+02</totfact>
</mgrwt>
</event>
<event>
 4    1  0.4840996E-002  0.4756613E+03  0.7818608E-02  0.1020334E+00
         21   -1    0    0  503  502  0.00000000000E+00  0.00000000000E+00  0.22559996596E+03  0.22559996596E+03  0.00000000000E+00 0. -1.
         21   -1    0    0  501  503 -0.00000000000E+00 -0.00000000000E+00 -0.10254825769E+04  0.10254825769E+04  0.00000000000E+00 0.  1.
    9000005    1    1    2  501    0 -0.25059370088E+03  0.58791530302E+02 -0.49277430745E+03  0.68489427289E+03  0.40000000000E+03 0.  1.
   -9000005    1    1    2    0  502  0.25059370088E+03 -0.58791530302E+02 -0.30710830346E+03  0.56618826993E+03  0.40000000000E+03 0. -1.
<mgrwt>
<rscale>  2 0.47566127E+03</rscale>
<asrwt>0</asrwt>
<pdfrwt beam="1">  1       21 0.34707687E-01 0.47566127E+03</pdfrwt>
<pdfrwt beam="2">  1       21 0.15776655E+00 0.47566127E+03</pdfrwt>
<totfact> 0.17657811E+03</totfact>
</mgrwt>
</event>
<event>
 4    1  0.4840996E-002  0.4756637E+03  0.7818608E-02  0.1020334E+00
         21   -1    0    0  501  502  0.00000000000E+00  0.00000000000E+00  0.11226734702E+03  0.11226734702E+03  0.00000000000E+00 0. -1.
         21   -1    0    0  502  503 -0.00000000000E+00 -0.00000000000E+00 -0.24640523922E+04  0.24640523922E+04  0.00000000000E+00 0.  1.
    9000005    1    1    2  501    0  0.68623774028E+01  0.25731088570E+03 -0.62618374841E+03  0.78636001354E+03  0.40000000000E+03 0. -1.
   -9000005    1    1    2    0  503 -0.68623774028E+01 -0.25731088570E+03 -0.17256012968E+04  0.17899597257E+04  0.40000000000E+03 0.  1.
<mgrwt>
<rscale>  2 0.47566373E+03</rscale>
<asrwt>0</asrwt>
<pdfrwt beam="1">  1       21 0.17271901E-01 0.47566373E+03</pdfrwt>
<pdfrwt beam="2">  1       21 0.37908496E+00 0.47566373E+03</pdfrwt>
<totfact> 0.26905263E+02</totfact>
</mgrwt>
</event>
<event>
 4    1  0.4840996E-002  0.4336186E+03  0.7818608E-02  0.1032723E+00
         21   -1    0    0  501  502  0.00000000000E+00  0.00000000000E+00  0.15921893028E+04  0.15921893028E+04  0.00000000000E+00 0. -1.
         21   -1    0    0  502  503 -0.00000000000E+00 -0.00000000000E+00 -0.12279042785E+03  0.12279042785E+03  0.00000000000E+00 0. -1.
    9000005    1    1    2  501    0 -0.16371477478E+03 -0.34964595865E+02  0.90243158470E+03  0.10012031839E+04  0.40000000000E+03 0. -1.
   -9000005    1    1    2    0  503  0.16371477478E+03  0.34964595865E+02  0.56696729030E+03  0.71377654677E+03  0.40000000000E+03 0. -1.
<mgrwt>
<rscale>  2 0.43361855E+03</rscale>
<asrwt>0</asrwt>
<pdfrwt beam="1">  1       21 0.24495219E+00 0.43361855E+03</pdfrwt>
<pdfrwt beam="2">  1       21 0.18890836E-01 0.43361855E+03</pdfrwt>
<totfact> 0.15279176E+03</totfact>
</mgrwt>
</event>
<event>
 4    1  0.4840996E-002  0.4217526E+03  0.7818608E-02  0.1036497E+00
         21   -1    0    0  503  502  0.00000000000E+00  0.00000000000E+00  0.55973798310E+03  0.55973798310E+03  0.00000000000E+00 0. -1.
         21   -1    0    0  501  503 -0.00000000000E+00 -0.00000000000E+00 -0.31912968383E+03  0.31912968383E+03  0.00000000000E+00 0.  1.
    9000005    1    1    2  501    0 -0.85490152655E+02 -0.10279427630E+03  0.14884971790E+03  0.44724877636E+03  0.40000000000E+03 0. -1.
   -9000005    1    1    2    0  502  0.85490152655E+02  0.10279427630E+03  0.91758581366E+02  0.43161889057E+03  0.40000000000E+03 0.  1.
<mgrwt>
<rscale>  2 0.42175257E+03</rscale>
<asrwt>0</asrwt>
<pdfrwt beam="1">  1       21 0.86113536E-01 0.42175257E+03</pdfrwt>
<pdfrwt beam="2">  1       21 0.49096874E-01 0.42175257E+03</pdfrwt>
<totfact> 0.40706864E+03</totfact>
</mgrwt>
</event>
<event>
 4    1  0.4840996E-002  0.4247166E+03  0.7818608E-02  0.1035542E+00
         21   -1    0    0  503  502  0.00000000000E+00  0.00000000000E+00  0.19582653510E+04  0.19582653510E+04  0.00000000000E+00 0. -1.
         21   -1    0    0  501  503 -0.00000000000E+00 -0.00000000000E+00 -0.97552844168E+02  0.97552844168E+02  0.00000000000E+00 0.  1.
    9000005    1    1    2  501    0 -0.14180742293E+03 -0.16579278829E+02  0.11730600490E+04  0.12475792945E+04  0.40000000000E+03 0. -1.
   -9000005    1    1    2    0  502  0.14180742293E+03  0.16579278829E+02  0.68765245788E+03  0.80823890064E+03  0.40000000000E+03 0. -1.
<mgrwt>
<rscale>  2 0.42471663E+03</rscale>
<asrwt>0</asrwt>
<pdfrwt beam="1">  1       21 0.30127156E+00 0.42471663E+03</pdfrwt>
<pdfrwt beam="2">  1       21 0.15008131E-01 0.42471663E+03</pdfrwt>
<totfact> 0.10778785E+03</totfact>
</mgrwt>
</event>
<event>
 4    1  0.4840996E-002  0.4210061E+03  0.7818608E-02  0.1036739E+00
         21   -1    0    0  503  502  0.00000000000E+00  0.00000000000E+00  0.30195448667E+03  0.30195448667E+03  0.00000000000E+00 0.  1.
         21   -1    0    0  501  503 -0.00000000000E+00 -0.00000000000E+00 -0.94183270619E+03  0.94183270619E+03  0.00000000000E+00 0.  1.
    9000005    1    1    2  501    0 -0.37993656383E+02 -0.12570830952E+03 -0.70165780249E+03  0.81827242946E+03  0.40000000000E+03 0.  1.
   -9000005    1    1    2    0  502  0.37993656383E+02  0.12570830952E+03  0.61779582969E+02  0.42551476341E+03  0.40000000000E+03 0.  1.
<mgrwt>
<rscale>  2 0.42100605E+03</rscale>
<asrwt>0</asrwt>
<pdfrwt beam="1">  1       21 0.46454537E-01 0.42100605E+03</pdfrwt>
<pdfrwt beam="2">  1       21 0.14489734E+00 0.42100605E+03</pdfrwt>
<totfact> 0.12486470E+03</totfact>
</mgrwt>
</event>
<event>
 4    1  0.4840996E-002  0.5175327E+03  0.7818608E-02  0.1009301E+00
         21   -1    0    0  501  502  0.00000000000E+00  0.00000000000E+00  0.21511064585E+03  0.21511064585E+03  0.00000000000E+00 0.  1.
         21   -1    0    0  502  503 -0.00000000000E+00 -0.00000000000E+00 -0.12756324553E+04  0.12756324553E+04  0.00000000000E+00 0.  1.
    9000005    1    1    2  501    0 -0.16871048362E+03 -0.28173899719E+03 -0.41499569733E+03  0.66337132786E+03  0.40000000000E+03 0.  1.
   -9000005    1    1    2    0  503  0.16871048362E+03  0.28173899719E+03 -0.64552611215E+03  0.82737177332E+03  0.40000000000E+03 0.  1.
<mgrwt>
<rscale>  2 0.51753269E+03</rscale>
<asrwt>0</asrwt>
<pdfrwt beam="1">  1       21 0.33093945E-01 0.51753269E+03</pdfrwt>
<pdfrwt beam="2">  1       21 0.19625115E+00 0.51753269E+03</pdfrwt>
<totfact> 0.10140284E+03</totfact>
</mgrwt>
</event>
<event>
 4    1  0.4840996E-002  0.4385401E+03  0.7818608E-02  0.1031196E+00
         21   -1    0    0  501  502  0.00000000000E+00  0.00000000000E+00  0.70823069396E+03  0.70823069396E+03  0.00000000000E+00 0.  1.
         21   -1    0    0  502  503 -0.00000000000E+00 -0.00000000000E+00 -0.11556894198E+04  0.11556894198E+04  0.00000000000E+00 0.  1.
    9000005    1    1    2  501    0 -0.16730435367E+03  0.65777443958E+02  0.59142154820E+03  0.73627227747E+03  0.40000000000E+03 0.  1.
   -9000005    1    1    2    0  503  0.16730435367E+03 -0.65777443958E+02 -0.10388802740E+04  0.11276478363E+04  0.40000000000E+03 0.  1.
<mgrwt>
<rscale>  2 0.43854010E+03</rscale>
<asrwt>0</asrwt>
<pdfrwt beam="1">  1       21 0.10895857E+00 0.43854010E+03</pdfrwt>
<pdfrwt beam="2">  1       21 0.17779837E+00 0.43854010E+03</pdfrwt>
<totfact> 0.10131967E+02</totfact>
</mgrwt>
</event>
<event>
 4    1  0.4840996E-002  0.4251617E+03  0.7818608E-02  0.1035399E+00
         21   -1    0    0  503  502  0.00000000000E+00  0.00000000000E+00  0.15866161226E+04  0.15866161226E+04  0.00000000000E+00 0.  1.
         21   -1    0    0  501  503 -0.00000000000E+00 -0.00000000000E+00 -0.13882131461E+03  0.13882131461E+03  0.00000000000E+00 0.  1.
    9000005    1    1    2  501    0  0.62665636517E+02 -0.12975165855E+03  0.35858122178E+03  0.55618609072E+03  0.40000000000E+03 0.  1.
   -9000005    1    1    2    0  502 -0.62665636517E+02  0.12975165855E+03  0.10892135862E+04  0.11692513465E+04  0.40000000000E+03 0.  1.
<mgrwt>
<rscale>  2 0.42516170E+03</rscale>
<asrwt>0</asrwt>
<pdfrwt beam="1">  1       21 0.24409478E+00 0.42516170E+03</pdfrwt>
<pdfrwt beam="2">  1       21 0.21357126E-01 0.42516170E+03</pdfrwt>
<totfact> 0.12297638E+03</totfact>
</mgrwt>
</event>
<event>
 4    1  0.4840996E-002  0.5170586E+03  0.7818608E-02  0.1009420E+00
         21   -1    0    0  501  502  0.00000000000E+00  0.00000000000E+00  0.40710664976E+03  0.40710664976E+03  0.00000000000E+00 0.  1.
         21   -1    0    0  502  503 -0.00000000000E+00 -0.00000000000E+00 -0.65677821821E+03  0.65677821821E+03  0.00000000000E+00 0. -1.
    9000005    1    1    2  501    0 -0.30571358870E+03  0.11785088840E+03 -0.13038995556E+03  0.53324588205E+03  0.40000000000E+03 0. -1.
   -9000005    1    1    2    0  503  0.30571358870E+03 -0.11785088840E+03 -0.11928161288E+03  0.53063898592E+03  0.40000000000E+03 0.  1.
<mgrwt>
<rscale>  2 0.51705863E+03</rscale>
<asrwt>0</asrwt>
<pdfrwt beam="1">  1       21 0.62631792E-01 0.51705863E+03</pdfrwt>
<pdfrwt beam="2">  1       21 0.10104280E+00 0.51705863E+03</pdfrwt>
<totfact> 0.15859695E+03</totfact>
</mgrwt>
</event>
<event>
 4    1  0.4840996E-002  0.4603991E+03  0.7818608E-02  0.1024666E+00
         21   -1    0    0  501  502  0.00000000000E+00  0.00000000000E+00  0.75459487362E+03  0.75459487362E+03  0.00000000000E+00 0. -1.
         21   -1    0    0  502  503 -0.00000000000E+00 -0.00000000000E+00 -0.33074897220E+03  0.33074897220E+03  0.00000000000E+00 0.  1.
    9000005    1    1    2  501    0  0.22121701748E+03 -0.55048909385E+02  0.12510214380E+01  0.46040082135E+03  0.40000000000E+03 0.  1.
   -9000005    1    1    2    0  503 -0.22121701748E+03  0.55048909385E+02  0.42259487999E+03  0.62494302447E+03  0.40000000000E+03 0. -1.
<mgrwt>
<rscale>  2 0.46039912E+03</rscale>
<asrwt>0</asrwt>
<pdfrwt beam="1">  1       21 0.11609152E+00 0.46039912E+03</pdfrwt>
<pdfrwt beam="2">  1       21 0.50884457E-01 0.46039912E+03</pdfrwt>
<totfact> 0.18012068E+03</totfact>
</mgrwt>
</event>
<event>
 4    1  0.4840996E-002  0.6427944E+03  0.7818608E-02  0.9820395E-01
         21   -1    0    0  503  502  0.00000000000E+00  0.00000000000E+00  0.15604554310E+04  0.15604554310E+04  0.00000000000E+00 0.  1.
         21   -1    0    0  501  503 -0.00000000000E+00 -0.00000000000E+00 -0.29826238786E+03  0.29826238786E+03  0.00000000000E+00 0. -1.
    9000005    1    1    2  501    0 -0.48693847744E+03  0.12678950008E+03  0.31973695095E+03  0.71792504897E+03  0.40000000000E+03 0.  1.
   -9000005    1    1    2    0  502  0.48693847744E+03 -0.12678950008E+03  0.94245609223E+03  0.11407927699E+04  0.40000000000E+03 0.  1.
<mgrwt>
<rscale>  2 0.64279441E+03</rscale>
<asrwt>0</asrwt>
<pdfrwt beam="1">  1       21 0.24007006E+00 0.64279441E+03</pdfrwt>
<pdfrwt beam="2">  1       21 0.45886522E-01 0.64279441E+03</pdfrwt>
<totfact> 0.25542913E+02</totfact>
</mgrwt>
</event>
<event>
 4    1  0.4840996E-002  0.4358682E+03  0.7818608E-02  0.1032022E+00
         21   -1    0    0  503  502  0.00000000000E+00  0.00000000000E+00  0.48071072526E+03  0.48071072526E+03  0.00000000000E+00 0. -1.
         21   -1    0    0  501  503 -0.00000000000E+00 -0.00000000000E+00 -0.41178143990E+03  0.41178143990E+03  0.00000000000E+00 0.  1.
    9000005    1    1    2  501    0 -0.82727701821E+02  0.15210913170E+03  0.12398837821E+03  0.45316021287E+03  0.40000000000E+03 0.  1.
   -9000005    1    1    2    0  502  0.82727701821E+02 -0.15210913170E+03 -0.55059092860E+02  0.43933195229E+03  0.40000000000E+03 0.  1.
<mgrwt>
<rscale>  2 0.43586817E+03</rscale>
<asrwt>0</asrwt>
<pdfrwt beam="1">  1       21 0.73955496E-01 0.43586817E+03</pdfrwt>
<pdfrwt beam="2">  1       21 0.63350991E-01 0.43586817E+03</pdfrwt>
<totfact> 0.33153445E+03</totfact>
</mgrwt>
</event>
<event>
 4    1  0.4840996E-002  0.4849507E+03  0.7818608E-02  0.1017783E+00
         21   -1    0    0  501  502  0.00000000000E+00  0.00000000000E+00  0.37649132670E+03  0.37649132670E+03  0.00000000000E+00 0. -1.
         21   -1    0    0  502  503 -0.00000000000E+00 -0.00000000000E+00 -0.64757250916E+03  0.64757250916E+03  0.00000000000E+00 0. -1.
    9000005    1    1    2  501    0 -0.17387061420E+03 -0.21200517982E+03 -0.23186505777E+03  0.53753008452E+03  0.40000000000E+03 0. -1.
   -9000005    1    1    2    0  503  0.17387061420E+03  0.21200517982E+03 -0.39216124689E+02  0.48653375133E+03  0.40000000000E+03 0. -1.
<mgrwt>
<rscale>  2 0.48495071E+03</rscale>
<asrwt>0</asrwt>
<pdfrwt beam="1">  1       21 0.57921744E-01 0.48495071E+03</pdfrwt>
<pdfrwt beam="2">  1       21 0.99626538E-01 0.48495071E+03</pdfrwt>
<totfact> 0.19709092E+03</totfact>
</mgrwt>
</event>
<event>
 4    1  0.4840996E-002  0.9221220E+03  0.7818608E-02  0.9398343E-01
         21   -1    0    0  503  502  0.00000000000E+00  0.00000000000E+00  0.96341331485E+03  0.96341331485E+03  0.00000000000E+00 0.  1.
         21   -1    0    0  501  503 -0.00000000000E+00 -0.00000000000E+00 -0.90325102968E+03  0.90325102968E+03  0.00000000000E+00 0.  1.
    9000005    1    1    2  501    0  0.45303075021E+03 -0.69647113584E+03  0.17120467991E+03  0.93788056069E+03  0.40000000000E+03 0.  1.
   -9000005    1    1    2    0  502 -0.45303075021E+03  0.69647113584E+03 -0.11104239475E+03  0.92878378384E+03  0.40000000000E+03 0.  1.
<mgrwt>
<rscale>  2 0.92212196E+03</rscale>
<asrwt>0</asrwt>
<pdfrwt beam="1">  1       21 0.14821743E+00 0.92212196E+03</pdfrwt>
<pdfrwt beam="2">  1       21 0.13896170E+00 0.92212196E+03</pdfrwt>
<totfact> 0.75361141E+01</totfact>
</mgrwt>
</event>
<event>
 4    1  0.4840996E-002  0.5744616E+03  0.7818608E-02  0.9959854E-01
         21   -1    0    0  501  502  0.00000000000E+00  0.00000000000E+00  0.29198747344E+04  0.29198747344E+04  0.00000000000E+00 0. -1.
         21   -1    0    0  502  503 -0.00000000000E+00 -0.00000000000E+00 -0.13330482410E+03  0.13330482410E+03  0.00000000000E+00 0.  1.
    9000005    1    1    2  501    0  0.31775121300E+03 -0.26275510802E+03  0.19887802069E+04  0.20700852136E+04  0.40000000000E+03 0. -1.
   -9000005    1    1    2    0  503 -0.31775121300E+03  0.26275510802E+03  0.79778970337E+03  0.98309434489E+03  0.40000000000E+03 0.  1.
<mgrwt>
<rscale>  2 0.57446156E+03</rscale>
<asrwt>0</asrwt>
<pdfrwt beam="1">  1       21 0.44921145E+00 0.57446156E+03</pdfrwt>
<pdfrwt beam="2">  1       21 0.20508437E-01 0.57446156E+03</pdfrwt>
<totfact> 0.63750882E+01</totfact>
</mgrwt>
</event>
<event>
 4    1  0.4840996E-002  0.4333730E+03  0.7818608E-02  0.1032800E+00
         21   -1    0    0  503  502  0.00000000000E+00  0.00000000000E+00  0.13459100060E+03  0.13459100060E+03  0.00000000000E+00 0.  1.
         21   -1    0    0  501  503 -0.00000000000E+00 -0.00000000000E+00 -0.14048711073E+04  0.14048711073E+04  0.00000000000E+00 0.  1.
    9000005    1    1    2  501    0 -0.47227709875E+02 -0.15994274301E+03 -0.69824499844E+03  0.82180181033E+03  0.40000000000E+03 0.  1.
   -9000005    1    1    2    0  502  0.47227709875E+02  0.15994274301E+03 -0.57203510826E+03  0.71766029757E+03  0.40000000000E+03 0.  1.
<mgrwt>
<rscale>  2 0.43337298E+03</rscale>
<asrwt>0</asrwt>
<pdfrwt beam="1">  1       21 0.20706307E-01 0.43337298E+03</pdfrwt>
<pdfrwt beam="2">  1       21 0.21613402E+00 0.43337298E+03</pdfrwt>
<totfact> 0.19475243E+03</totfact>
</mgrwt>
</event>
<event>
 4    1  0.4840996E-002  0.5498878E+03  0.7818608E-02  0.1001520E+00
         21   -1    0    0  503  502  0.00000000000E+00  0.00000000000E+00  0.16606814560E+03  0.16606814560E+03  0.00000000000E+00 0. -1.
         21   -1    0    0  501  503 -0.00000000000E+00 -0.00000000000E+00 -0.18760108817E+04  0.18760108817E+04  0.00000000000E+00 0.  1.
    9000005    1    1    2  501    0  0.31998326221E+03 -0.19996822319E+03 -0.10301351631E+04  0.11677135919E+04  0.40000000000E+03 0.  1.
   -9000005    1    1    2    0  502 -0.31998326221E+03  0.19996822319E+03 -0.67980757304E+03  0.87436543547E+03  0.40000000000E+03 0. -1.
<mgrwt>
<rscale>  2 0.54988779E+03</rscale>
<asrwt>0</asrwt>
<pdfrwt beam="1">  1       21 0.25548946E-01 0.54988779E+03</pdfrwt>
<pdfrwt beam="2">  1       21 0.28861705E+00 0.54988779E+03</pdfrwt>
<totfact> 0.43814256E+02</totfact>
</mgrwt>
</event>
<event>
 4    1  0.4840996E-002  0.5150645E+03  0.7818608E-02  0.1009920E+00
         21   -1    0    0  501  502  0.00000000000E+00  0.00000000000E+00  0.10696164897E+04  0.10696164897E+04  0.00000000000E+00 0.  1.
         21   -1    0    0  502  503 -0.00000000000E+00 -0.00000000000E+00 -0.38174659516E+03  0.38174659516E+03  0.00000000000E+00 0. -1.
    9000005    1    1    2  501    0 -0.30965620010E+03  0.96976584210E+02  0.77343140235E+03  0.92924031030E+03  0.40000000000E+03 0.  1.
   -9000005    1    1    2    0  503  0.30965620010E+03 -0.96976584210E+02 -0.85561507770E+02  0.52212277460E+03  0.40000000000E+03 0.  1.
<mgrwt>
<rscale>  2 0.51506448E+03</rscale>
<asrwt>0</asrwt>
<pdfrwt beam="1">  1       21 0.16455638E+00 0.51506448E+03</pdfrwt>
<pdfrwt beam="2">  1       21 0.58730246E-01 0.51506448E+03</pdfrwt>
<totfact> 0.51136853E+02</totfact>
</mgrwt>
</event>
<event>
 4    1  0.4840996E-002  0.4740571E+03  0.7818608E-02  0.1020781E+00
         21   -1    0    0  503  502  0.00000000000E+00  0.00000000000E+00  0.25174180440E+03  0.25174180440E+03  0.00000000000E+00 0. -1.
         21   -1    0    0  501  503 -0.00000000000E+00 -0.00000000000E+00 -0.89442589772E+03  0.89442589772E+03  0.00000000000E+00 0. -1.
    9000005    1    1    2  501    0 -0.17506592698E+03 -0.18461313352E+03 -0.34651093324E+03  0.58719665761E+03  0.40000000000E+03 0. -1.
   -9000005    1    1    2    0  502  0.17506592698E+03  0.18461313352E+03 -0.29617316008E+03  0.55897104451E+03  0.40000000000E+03 0. -1.
<mgrwt>
<rscale>  2 0.47405705E+03</rscale>
<asrwt>0</asrwt>
<pdfrwt beam="1">  1       21 0.38729507E-01 0.47405705E+03</pdfrwt>
<pdfrwt beam="2">  1       21 0.13760399E+00 0.47405705E+03</pdfrwt>
<totfact> 0.20464891E+03</totfact>
</mgrwt>
</event>
<event>
 4    1  0.4840996E-002  0.9675352E+03  0.7818608E-02  0.9344886E-01
         21   -1    0    0  503  502  0.00000000000E+00  0.00000000000E+00  0.90242874787E+03  0.90242874787E+03  0.00000000000E+00 0. -1.
         21   -1    0    0  501  503 -0.00000000000E+00 -0.00000000000E+00 -0.11376807300E+04  0.11376807300E+04  0.00000000000E+00 0.  1.
    9000005    1    1    2  501    0  0.49799015264E+03  0.72672560631E+03 -0.42056460543E+03  0.10549876238E+04  0.40000000000E+03 0.  1.
   -9000005    1    1    2    0  502 -0.49799015264E+03 -0.72672560631E+03  0.18531262333E+03  0.98512185407E+03  0.40000000000E+03 0. -1.
<mgrwt>
<rscale>  2 0.96753517E+03</rscale>
<asrwt>0</asrwt>
<pdfrwt beam="1">  1       21 0.13883519E+00 0.96753517E+03</pdfrwt>
<pdfrwt beam="2">  1       21 0.17502780E+00 0.96753517E+03</pdfrwt>
<totfact> 0.46393031E+01</totfact>
</mgrwt>
</event>
<event>
 4    1  0.4840996E-002  0.4652449E+03  0.7818608E-02  0.1023271E+00
         21   -1    0    0  501  502  0.00000000000E+00  0.00000000000E+00  0.61034022050E+03  0.61034022050E+03  0.00000000000E+00 0.  1.
         21   -1    0    0  502  503 -0.00000000000E+00 -0.00000000000E+00 -0.47436499262E+03  0.47436499262E+03  0.00000000000E+00 0.  1.
    9000005    1    1    2  501    0  0.23545159820E+03  0.31865043378E+02  0.34045375138E+03  0.57650810308E+03  0.40000000000E+03 0.  1.
   -9000005    1    1    2    0  503 -0.23545159820E+03 -0.31865043378E+02 -0.20447852349E+03  0.50819711004E+03  0.40000000000E+03 0.  1.
<mgrwt>
<rscale>  2 0.46524492E+03</rscale>
<asrwt>0</asrwt>
<pdfrwt beam="1">  1       21 0.93898496E-01 0.46524492E+03</pdfrwt>
<pdfrwt beam="2">  1       21 0.72979229E-01 0.46524492E+03</pdfrwt>
<totfact> 0.13690852E+03</totfact>
</mgrwt>
</event>
<event>
 4    1  0.4840996E-002  0.4610039E+03  0.7818608E-02  0.1024490E+00
         21   -1    0    0  501  502  0.00000000000E+00  0.00000000000E+00  0.62108920700E+03  0.62108920700E+03  0.00000000000E+00 0. -1.
         21   -1    0    0  502  503 -0.00000000000E+00 -0.00000000000E+00 -0.53313122971E+03  0.53313122971E+03  0.00000000000E+00 0.  1.
    9000005    1    1    2  501    0 -0.18540775151E+03  0.13471668953E+03  0.38936309905E+03  0.60343039670E+03  0.40000000000E+03 0. -1.
   -9000005    1    1    2    0  503  0.18540775151E+03 -0.13471668953E+03 -0.30140512175E+03  0.55079004001E+03  0.40000000000E+03 0.  1.
<mgrwt>
<rscale>  2 0.46100393E+03</rscale>
<asrwt>0</asrwt>
<pdfrwt beam="1">  1       21 0.95552185E-01 0.46100393E+03</pdfrwt>
<pdfrwt beam="2">  1       21 0.82020190E-01 0.46100393E+03</pdfrwt>
<totfact> 0.10057433E+03</totfact>
</mgrwt>
</event>
<event>
 4    1  0.4840996E-002  0.4844535E+03  0.7818608E-02  0.1017918E+00
         21   -1    0    0  503  502  0.00000000000E+00  0.00000000000E+00  0.20590620055E+04  0.20590620055E+04  0.00000000000E+00 0.  1.
         21   -1    0    0  501  503 -0.00000000000E+00 -0.00000000000E+00 -0.17334132980E+03  0.17334132980E+03  0.00000000000E+00 0. -1.
    9000005    1    1    2  501    0 -0.25534161665E+03 -0.97446453443E+02  0.28967321397E+03  0.56445170155E+03  0.40000000000E+03 0. -1.
   -9000005    1    1    2    0  502  0.25534161665E+03  0.97446453443E+02  0.15960474617E+04  0.16679516337E+04  0.40000000000E+03 0.  1.
<mgrwt>
<rscale>  2 0.48445346E+03</rscale>
<asrwt>0</asrwt>
<pdfrwt beam="1">  1       21 0.31677875E+00 0.48445346E+03</pdfrwt>
<pdfrwt beam="2">  1       21 0.26667898E-01 0.48445346E+03</pdfrwt>
<totfact> 0.28111092E+02</totfact>
</mgrwt>
</event>
<event>
 4    1  0.4840996E-002  0.4134093E+03  0.7818608E-02  0.1039233E+00
         21   -1    0    0  501  502  0.00000000000E+00  0.00000000000E+00  0.95827105953E+03  0.95827105953E+03  0.00000000000E+00 0.  1.
         21   -1    0    0  502  503 -0.00000000000E+00 -0.00000000000E+00 -0.23152156331E+03  0.23152156331E+03  0.00000000000E+00 0.  1.
    9000005    1    1    2  501    0  0.95497656090E+02  0.42277723343E+02  0.64846812135E+03  0.76903713344E+03  0.40000000000E+03 0. -1.
   -9000005    1    1    2    0  503 -0.95497656090E+02 -0.42277723343E+02  0.78281374876E+02  0.42075548940E+03  0.40000000000E+03 0. -1.
<mgrwt>
<rscale>  2 0.41340925E+03</rscale>
<asrwt>0</asrwt>
<pdfrwt beam="1">  1       21 0.14742631E+00 0.41340925E+03</pdfrwt>
<pdfrwt beam="2">  1       21 0.35618703E-01 0.41340925E+03</pdfrwt>
<totfact> 0.20678723E+03</totfact>
</mgrwt>
</event>
<event>
 4    1  0.4840996E-002  0.5502590E+03  0.7818608E-02  0.1001434E+00
         21   -1    0    0  501  502  0.00000000000E+00  0.00000000000E+00  0.46296804820E+03  0.46296804820E+03  0.00000000000E+00 0.  1.
         21   -1    0    0  502  503 -0.00000000000E+00 -0.00000000000E+00 -0.70672258109E+03  0.70672258109E+03  0.00000000000E+00 0. -1.
    9000005    1    1    2  501    0  0.37753508178E+03 -0.15881814364E+02  0.37850516216E+02  0.55155927295E+03  0.40000000000E+03 0. -1.
   -9000005    1    1    2    0  503 -0.37753508178E+03  0.15881814364E+02 -0.28160504910E+03  0.61813135634E+03  0.40000000000E+03 0.  1.
<mgrwt>
<rscale>  2 0.55025900E+03</rscale>
<asrwt>0</asrwt>
<pdfrwt beam="1">  1       21 0.71225854E-01 0.55025900E+03</pdfrwt>
<pdfrwt beam="2">  1       21 0.10872655E+00 0.55025900E+03</pdfrwt>
<totfact> 0.98092948E+02</totfact>
</mgrwt>
</event>
<event>
 4    1  0.4840996E-002  0.5673729E+03  0.7818608E-02  0.9975509E-01
         21   -1    0    0  503  502  0.00000000000E+00  0.00000000000E+00  0.56434813319E+03  0.56434813319E+03  0.00000000000E+00 0.  1.
         21   -1    0    0  501  503 -0.00000000000E+00 -0.00000000000E+00 -0.14704745475E+04  0.14704745475E+04  0.00000000000E+00 0. -1.
    9000005    1    1    2  501    0  0.21369023287E+03  0.34095224844E+03 -0.12490461006E+04  0.13718702974E+04  0.40000000000E+03 0. -1.
   -9000005    1    1    2    0  502 -0.21369023287E+03 -0.34095224844E+03  0.34291968628E+03  0.66295238334E+03  0.40000000000E+03 0.  1.
<mgrwt>
<rscale>  2 0.56737285E+03</rscale>
<asrwt>0</asrwt>
<pdfrwt beam="1">  1       21 0.86822790E-01 0.56737285E+03</pdfrwt>
<pdfrwt beam="2">  1       21 0.22622685E+00 0.56737285E+03</pdfrwt>
<totfact> 0.77852991E+01</totfact>
</mgrwt>
</event>
<event>
 4    1  0.4840996E-002  0.4993799E+03  0.7818608E-02  0.1013941E+00
         21   -1    0    0  503  502  0.00000000000E+00  0.00000000000E+00  0.99489128218E+03  0.99489128218E+03  0.00000000000E+00 0.  1.
         21   -1    0    0  501  503 -0.00000000000E+00 -0.00000000000E+00 -0.33563588054E+03  0.33563588054E+03  0.00000000000E+00 0.  1.
    9000005    1    1    2  501    0 -0.29895529128E+03  0.24480184008E+01  0.66436592990E+03  0.83112113905E+03  0.40000000000E+03 0.  1.
   -9000005    1    1    2    0  502  0.29895529128E+03 -0.24480184008E+01 -0.51105282484E+01  0.49940602367E+03  0.40000000000E+03 0.  1.
<mgrwt>
<rscale>  2 0.49937987E+03</rscale>
<asrwt>0</asrwt>
<pdfrwt beam="1">  1       21 0.15306020E+00 0.49937987E+03</pdfrwt>
<pdfrwt beam="2">  1       21 0.51636290E-01 0.49937987E+03</pdfrwt>
<totfact> 0.83210847E+02</totfact>
</mgrwt>
</event>
<event>
 4    1  0.4840996E-002  0.4071883E+03  0.7818608E-02  0.1041319E+00
         21   -1    0    0  503  502  0.00000000000E+00  0.00000000000E+00  0.28127716599E+03  0.28127716599E+03  0.00000000000E+00 0.  1.
         21   -1    0    0  501  503 -0.00000000000E+00 -0.00000000000E+00 -0.14361318275E+04  0.14361318275E+04  0.00000000000E+00 0.  1.
    9000005    1    1    2  501    0  0.10703564163E+02 -0.75417066323E+02  0.81903728468E+02  0.41534385865E+03  0.40000000000E+03 0.  1.
   -9000005    1    1    2    0  502 -0.10703564163E+02  0.75417066323E+02 -0.12367583900E+04  0.13020651349E+04  0.40000000000E+03 0.  1.
<mgrwt>
<rscale>  2 0.40718829E+03</rscale>
<asrwt>0</asrwt>
<pdfrwt beam="1">  1       21 0.43273409E-01 0.40718829E+03</pdfrwt>
<pdfrwt beam="2">  1       21 0.22094337E+00 0.40718829E+03</pdfrwt>
<totfact> 0.42525257E+02</totfact>
</mgrwt>
</event>
<event>
 4    1  0.4840996E-002  0.5266579E+03  0.7818608E-02  0.1007046E+00
         21   -1    0    0  501  502  0.00000000000E+00  0.00000000000E+00  0.15400839860E+03  0.15400839860E+03  0.00000000000E+00 0.  1.
         21   -1    0    0  502  503 -0.00000000000E+00 -0.00000000000E+00 -0.18039269124E+04  0.18039269124E+04  0.00000000000E+00 0. -1.
    9000005    1    1    2  501    0  0.32684982836E+03 -0.10265348849E+03 -0.86441783651E+03  0.10122187239E+04  0.40000000000E+03 0. -1.
   -9000005    1    1    2    0  503 -0.32684982836E+03  0.10265348849E+03 -0.78550067725E+03  0.94571658702E+03  0.40000000000E+03 0.  1.
<mgrwt>
<rscale>  2 0.52665791E+03</rscale>
<asrwt>0</asrwt>
<pdfrwt beam="1">  1       21 0.23693599E-01 0.52665791E+03</pdfrwt>
<pdfrwt beam="2">  1       21 0.27752723E+00 0.52665791E+03</pdfrwt>
<totfact> 0.59893025E+02</totfact>
</mgrwt>
</event>
<event>
 4    1  0.4840996E-002  0.4103297E+03  0.7818608E-02  0.1040260E+00
         21   -1    0    0  503  502  0.00000000000E+00  0.00000000000E+00  0.12725330262E+03  0.12725330262E+03  0.00000000000E+00 0.  1.
         21   -1    0    0  501  503 -0.00000000000E+00 -0.00000000000E+00 -0.18152790026E+04  0.18152790026E+04  0.00000000000E+00 0.  1.
    9000005    1    1    2  501    0 -0.11036520496E+02  0.90822218936E+02 -0.13497471770E+04  0.14107402036E+04  0.40000000000E+03 0.  1.
   -9000005    1    1    2    0  502  0.11036520496E+02 -0.90822218936E+02 -0.33827852301E+03  0.53179210164E+03  0.40000000000E+03 0.  1.
<mgrwt>
<rscale>  2 0.41032972E+03</rscale>
<asrwt>0</asrwt>
<pdfrwt beam="1">  1       21 0.19577432E-01 0.41032972E+03</pdfrwt>
<pdfrwt beam="2">  1       21 0.27927368E+00 0.41032972E+03</pdfrwt>
<totfact> 0.89483248E+02</totfact>
</mgrwt>
</event>
<event>
 4    1  0.4840996E-002  0.5259242E+03  0.7818608E-02  0.1007225E+00
         21   -1    0    0  503  502  0.00000000000E+00  0.00000000000E+00  0.34426046834E+03  0.34426046834E+03  0.00000000000E+00 0. -1.
         21   -1    0    0  501  503 -0.00000000000E+00 -0.00000000000E+00 -0.82122217992E+03  0.82122217992E+03  0.00000000000E+00 0. -1.
    9000005    1    1    2  501    0  0.31862809484E+03  0.12276959250E+03 -0.32420636405E+03  0.61782360117E+03  0.40000000000E+03 0. -1.
   -9000005    1    1    2    0  502 -0.31862809484E+03 -0.12276959250E+03 -0.15275534752E+03  0.54765904709E+03  0.40000000000E+03 0. -1.
<mgrwt>
<rscale>  2 0.52592417E+03</rscale>
<asrwt>0</asrwt>
<pdfrwt beam="1">  1       21 0.52963149E-01 0.52592417E+03</pdfrwt>
<pdfrwt beam="2">  1       21 0.12634187E+00 0.52592417E+03</pdfrwt>
<totfact> 0.13007143E+03</totfact>
</mgrwt>
</event>
<event>
 4    1  0.4840996E-002  0.4138335E+03  0.7818608E-02  0.1039092E+00
         21   -1    0    0  501  502  0.00000000000E+00  0.00000000000E+00  0.58920800110E+03  0.58920800110E+03  0.00000000000E+00 0.  1.
         21   -1    0    0  502  503 -0.00000000000E+00 -0.00000000000E+00 -0.33188695181E+03  0.33188695181E+03  0.00000000000E+00 0.  1.
    9000005    1    1    2  501    0 -0.93881744056E+02 -0.49440467075E+02  0.29098326646E+03  0.50589465604E+03  0.40000000000E+03 0.  1.
   -9000005    1    1    2    0  503  0.93881744056E+02  0.49440467075E+02 -0.33662217167E+02  0.41520029686E+03  0.40000000000E+03 0.  1.
<mgrwt>
<rscale>  2 0.41383347E+03</rscale>
<asrwt>0</asrwt>
<pdfrwt beam="1">  1       21 0.90647385E-01 0.41383347E+03</pdfrwt>
<pdfrwt beam="2">  1       21 0.51059531E-01 0.41383347E+03</pdfrwt>
<totfact> 0.33289536E+03</totfact>
</mgrwt>
</event>
<event>
 4    1  0.4840996E-002  0.4014708E+03  0.7818608E-02  0.1043272E+00
         21   -1    0    0  503  502  0.00000000000E+00  0.00000000000E+00  0.31530496024E+03  0.31530496024E+03  0.00000000000E+00 0.  1.
         21   -1    0    0  501  503 -0.00000000000E+00 -0.00000000000E+00 -0.52501678669E+03  0.52501678669E+03  0.00000000000E+00 0.  1.
    9000005    1    1    2  501    0  0.26284080683E+02  0.22089490181E+02 -0.17305624027E+03  0.43718103890E+03  0.40000000000E+03 0.  1.
   -9000005    1    1    2    0  502 -0.26284080683E+02 -0.22089490181E+02 -0.36655586180E+02  0.40314070803E+03  0.40000000000E+03 0.  1.
<mgrwt>
<rscale>  2 0.40147079E+03</rscale>
<asrwt>0</asrwt>
<pdfrwt beam="1">  1       21 0.48508455E-01 0.40147079E+03</pdfrwt>
<pdfrwt beam="2">  1       21 0.80771814E-01 0.40147079E+03</pdfrwt>
<totfact> 0.48827043E+03</totfact>
</mgrwt>
</event>
<event>
 4    1  0.4840996E-002  0.4082840E+03  0.7818608E-02  0.1040948E+00
         21   -1    0    0  501  502  0.00000000000E+00  0.00000000000E+00  0.10008743320E+04  0.10008743320E+04  0.00000000000E+00 0.  1.
         21   -1    0    0  502  503 -0.00000000000E+00 -0.00000000000E+00 -0.19068041411E+03  0.19068041411E+03  0.00000000000E+00 0.  1.
    9000005    1    1    2  501    0 -0.67244698599E+02  0.46625594878E+02  0.19315752466E+03  0.45166981847E+03  0.40000000000E+03 0.  1.
   -9000005    1    1    2    0  503  0.67244698599E+02 -0.46625594878E+02  0.61703639325E+03  0.73988492766E+03  0.40000000000E+03 0.  1.
<mgrwt>
<rscale>  2 0.40828396E+03</rscale>
<asrwt>0</asrwt>
<pdfrwt beam="1">  1       21 0.15398066E+00 0.40828396E+03</pdfrwt>
<pdfrwt beam="2">  1       21 0.29335449E-01 0.40828396E+03</pdfrwt>
<totfact> 0.27158315E+03</totfact>
</mgrwt>
</event>
<event>
 4    1  0.4840996E-002  0.5207132E+03  0.7818608E-02  0.1008510E+00
         21   -1    0    0  501  502  0.00000000000E+00  0.00000000000E+00  0.41355376019E+03  0.41355376019E+03  0.00000000000E+00 0. -1.
         21   -1    0    0  502  503 -0.00000000000E+00 -0.00000000000E+00 -0.69134676372E+03  0.69134676372E+03  0.00000000000E+00 0.  1.
    9000005    1    1    2  501    0 -0.27514473410E+03 -0.18824868828E+03 -0.13344594563E+02  0.52088412487E+03  0.40000000000E+03 0. -1.
   -9000005    1    1    2    0  503  0.27514473410E+03  0.18824868828E+03 -0.26444840896E+03  0.58401639904E+03  0.40000000000E+03 0.  1.
<mgrwt>
<rscale>  2 0.52071316E+03</rscale>
<asrwt>0</asrwt>
<pdfrwt beam="1">  1       21 0.63623656E-01 0.52071316E+03</pdfrwt>
<pdfrwt beam="2">  1       21 0.10636104E+00 0.52071316E+03</pdfrwt>
<totfact> 0.13481203E+03</totfact>
</mgrwt>
</event>
<event>
 4    1  0.4840996E-002  0.4535507E+03  0.7818608E-02  0.1026668E+00
         21   -1    0    0  501  502  0.00000000000E+00  0.00000000000E+00  0.41986796546E+03  0.41986796546E+03  0.00000000000E+00 0.  1.
         21   -1    0    0  502  503 -0.00000000000E+00 -0.00000000000E+00 -0.49972944952E+03  0.49972944952E+03  0.00000000000E+00 0. -1.
    9000005    1    1    2  501    0  0.17338793407E+03  0.12507936340E+03 -0.10430009439E+03  0.46538879716E+03  0.40000000000E+03 0. -1.
   -9000005    1    1    2    0  503 -0.17338793407E+03 -0.12507936340E+03  0.24438610325E+02  0.45420861782E+03  0.40000000000E+03 0. -1.
<mgrwt>
<rscale>  2 0.45355068E+03</rscale>
<asrwt>0</asrwt>
<pdfrwt beam="1">  1       21 0.64595072E-01 0.45355068E+03</pdfrwt>
<pdfrwt beam="2">  1       21 0.76881453E-01 0.45355068E+03</pdfrwt>
<totfact> 0.28880957E+03</totfact>
</mgrwt>
</event>
<event>
 4    1  0.4840996E-002  0.4328581E+03  0.7818608E-02  0.1032961E+00
         21   -1    0    0  501  502  0.00000000000E+00  0.00000000000E+00  0.10630230526E+04  0.10630230526E+04  0.00000000000E+00 0. -1.
         21   -1    0    0  502  503 -0.00000000000E+00 -0.00000000000E+00 -0.82918167040E+03  0.82918167040E+03  0.00000000000E+00 0. -1.
    9000005    1    1    2  501    0 -0.16390015983E+03 -0.22425663045E+02  0.95646675878E+03  0.10498546725E+04  0.40000000000E+03 0. -1.
   -9000005    1    1    2    0  503  0.16390015983E+03  0.22425663045E+02 -0.72262537655E+03  0.84235005051E+03  0.40000000000E+03 0. -1.
<mgrwt>
<rscale>  2 0.43285814E+03</rscale>
<asrwt>0</asrwt>
<pdfrwt beam="1">  1       21 0.16354201E+00 0.43285814E+03</pdfrwt>
<pdfrwt beam="2">  1       21 0.12756641E+00 0.43285814E+03</pdfrwt>
<totfact> 0.86643347E+01</totfact>
</mgrwt>
</event>
<event>
 4    1  0.4840996E-002  0.4473975E+03  0.7818608E-02  0.1028501E+00
         21   -1    0    0  501  502  0.00000000000E+00  0.00000000000E+00  0.34201165780E+04  0.34201165780E+04  0.00000000000E+00 0.  1.
         21   -1    0    0  502  503 -0.00000000000E+00 -0.00000000000E+00 -0.58726808161E+02  0.58726808161E+02  0.00000000000E+00 0.  1.
    9000005    1    1    2  501    0  0.15284930107E+03  0.12962099252E+03  0.15788904629E+04  0.16410544185E+04  0.40000000000E+03 0. -1.
   -9000005    1    1    2    0  503 -0.15284930107E+03 -0.12962099252E+03  0.17824993070E+04  0.18377889677E+04  0.40000000000E+03 0. -1.
<mgrwt>
<rscale>  2 0.44739749E+03</rscale>
<asrwt>0</asrwt>
<pdfrwt beam="1">  1       21 0.52617163E+00 0.44739749E+03</pdfrwt>
<pdfrwt beam="2">  1       21 0.90348962E-02 0.44739749E+03</pdfrwt>
<totfact> 0.89833098E+01</totfact>
</mgrwt>
</event>
<event>
 4    1  0.4840996E-002  0.4085608E+03  0.7818608E-02  0.1040855E+00
         21   -1    0    0  503  502  0.00000000000E+00  0.00000000000E+00  0.49727723829E+03  0.49727723829E+03  0.00000000000E+00 0.  1.
         21   -1    0    0  501  503 -0.00000000000E+00 -0.00000000000E+00 -0.34100582003E+03  0.34100582003E+03  0.00000000000E+00 0.  1.
    9000005    1    1    2  501    0 -0.51568683521E+01  0.83038101192E+02  0.25714231469E+02  0.40936919918E+03  0.40000000000E+03 0.  1.
   -9000005    1    1    2    0  502  0.51568683521E+01 -0.83038101192E+02  0.13055718679E+03  0.42891385914E+03  0.40000000000E+03 0.  1.
<mgrwt>
<rscale>  2 0.40856079E+03</rscale>
<asrwt>0</asrwt>
<pdfrwt beam="1">  1       21 0.76504191E-01 0.40856079E+03</pdfrwt>
<pdfrwt beam="2">  1       21 0.52462434E-01 0.40856079E+03</pdfrwt>
<totfact> 0.46700193E+03</totfact>
</mgrwt>
</event>
<event>
 4    1  0.4840996E-002  0.5005341E+03  0.7818608E-02  0.1013640E+00
         21   -1    0    0  501  502  0.00000000000E+00  0.00000000000E+00  0.17970822249E+04  0.17970822249E+04  0.00000000000E+00 0. -1.
         21   -1    0    0  502  503 -0.00000000000E+00 -0.00000000000E+00 -0.13949728154E+03  0.13949728154E+03  0.00000000000E+00 0.  1.
    9000005    1    1    2  501    0  0.29151592312E+03  0.74517197828E+02  0.80481351231E+03  0.94776533794E+03  0.40000000000E+03 0.  1.
   -9000005    1    1    2    0  503 -0.29151592312E+03 -0.74517197828E+02  0.85277143102E+03  0.98881416847E+03  0.40000000000E+03 0.  1.
<mgrwt>
<rscale>  2 0.50053406E+03</rscale>
<asrwt>0</asrwt>
<pdfrwt beam="1">  1       21 0.27647417E+00 0.50053406E+03</pdfrwt>
<pdfrwt beam="2">  1       21 0.21461122E-01 0.50053406E+03</pdfrwt>
<totfact> 0.74464912E+02</totfact>
</mgrwt>
</event>
<event>
 4    1  0.4840996E-002  0.4856370E+03  0.7818608E-02  0.1017597E+00
         21   -1    0    0  503  502  0.00000000000E+00  0.00000000000E+00  0.21096590816E+04  0.21096590816E+04  0.00000000000E+00 0.  1.
         21   -1    0    0  501  503 -0.00000000000E+00 -0.00000000000E+00 -0.15481739266E+03  0.15481739266E+03  0.00000000000E+00 0.  1.
    9000005    1    1    2  501    0 -0.26552272691E+03  0.73081842800E+02  0.38053713316E+03  0.61696984040E+03  0.40000000000E+03 0.  1.
   -9000005    1    1    2    0  502  0.26552272691E+03 -0.73081842800E+02  0.15743045558E+04  0.16475066338E+04  0.40000000000E+03 0.  1.
<mgrwt>
<rscale>  2 0.48563698E+03</rscale>
<asrwt>0</asrwt>
<pdfrwt beam="1">  1       21 0.32456292E+00 0.48563698E+03</pdfrwt>
<pdfrwt beam="2">  1       21 0.23818062E-01 0.48563698E+03</pdfrwt>
<totfact> 0.31416636E+02</totfact>
</mgrwt>
</event>
<event>
 4    1  0.4840996E-002  0.4016553E+03  0.7818608E-02  0.1043208E+00
         21   -1    0    0  501  502  0.00000000000E+00  0.00000000000E+00  0.77037561658E+03  0.77037561658E+03  0.00000000000E+00 0. -1.
         21   -1    0    0  502  503 -0.00000000000E+00 -0.00000000000E+00 -0.28820899157E+03  0.28820899157E+03  0.00000000000E+00 0. -1.
    9000005    1    1    2  501    0 -0.13207284611E+02  0.33948619398E+02  0.51783667458E+03  0.65534858103E+03  0.40000000000E+03 0. -1.
   -9000005    1    1    2    0  503  0.13207284611E+02 -0.33948619398E+02 -0.35670049568E+02  0.40323602711E+03  0.40000000000E+03 0. -1.
<mgrwt>
<rscale>  2 0.40165525E+03</rscale>
<asrwt>0</asrwt>
<pdfrwt beam="1">  1       21 0.11851933E+00 0.40165525E+03</pdfrwt>
<pdfrwt beam="2">  1       21 0.44339845E-01 0.40165525E+03</pdfrwt>
<totfact> 0.23405068E+03</totfact>
</mgrwt>
</event>
<event>
 4    1  0.4840996E-002  0.5042638E+03  0.7818608E-02  0.1012672E+00
         21   -1    0    0  503  502  0.00000000000E+00  0.00000000000E+00  0.57199334502E+03  0.57199334502E+03  0.00000000000E+00 0.  1.
         21   -1    0    0  501  503 -0.00000000000E+00 -0.00000000000E+00 -0.91304290230E+03  0.91304290230E+03  0.00000000000E+00 0.  1.
    9000005    1    1    2  501    0 -0.27617241410E+03  0.13420416240E+03 -0.70240163801E+03  0.86466757809E+03  0.40000000000E+03 0.  1.
   -9000005    1    1    2    0  502  0.27617241410E+03 -0.13420416240E+03  0.36135208073E+03  0.62036866923E+03  0.40000000000E+03 0.  1.
<mgrwt>
<rscale>  2 0.50426378E+03</rscale>
<asrwt>0</asrwt>
<pdfrwt beam="1">  1       21 0.87998976E-01 0.50426378E+03</pdfrwt>
<pdfrwt beam="2">  1       21 0.14046814E+00 0.50426378E+03</pdfrwt>
<totfact> 0.31648133E+02</totfact>
</mgrwt>
</event>
<event>
 4    1  0.4840996E-002  0.4319314E+03  0.7818608E-02  0.1033252E+00
         21   -1    0    0  503  502  0.00000000000E+00  0.00000000000E+00  0.23130538565E+03  0.23130538565E+03  0.00000000000E+00 0. -1.
         21   -1    0    0  501  503 -0.00000000000E+00 -0.00000000000E+00 -0.16934275654E+04  0.16934275654E+04  0.00000000000E+00 0. -1.
    9000005    1    1    2  501    0 -0.50075071850E+02  0.15510380008E+03 -0.14275005211E+04  0.14914162529E+04  0.40000000000E+03 0. -1.
   -9000005    1    1    2    0  502  0.50075071850E+02 -0.15510380008E+03 -0.34621658606E+02  0.43331669812E+03  0.40000000000E+03 0. -1.
<mgrwt>
<rscale>  2 0.43193136E+03</rscale>
<asrwt>0</asrwt>
<pdfrwt beam="1">  1       21 0.35585444E-01 0.43193136E+03</pdfrwt>
<pdfrwt beam="2">  1       21 0.26052732E+00 0.43193136E+03</pdfrwt>
<totfact> 0.35614281E+02</totfact>
</mgrwt>
</event>
<event>
 4    1  0.4840996E-002  0.4386266E+03  0.7818608E-02  0.1031169E+00
         21   -1    0    0  501  502  0.00000000000E+00  0.00000000000E+00  0.30857647344E+03  0.30857647344E+03  0.00000000000E+00 0. -1.
         21   -1    0    0  502  503 -0.00000000000E+00 -0.00000000000E+00 -0.95941865413E+03  0.95941865413E+03  0.00000000000E+00 0. -1.
    9000005    1    1    2  501    0 -0.15736878737E+03 -0.87340642636E+02 -0.70057474059E+03  0.82655809853E+03  0.40000000000E+03 0. -1.
   -9000005    1    1    2    0  503  0.15736878737E+03  0.87340642636E+02  0.49732559901E+02  0.44143702904E+03  0.40000000000E+03 0. -1.
<mgrwt>
<rscale>  2 0.43862663E+03</rscale>
<asrwt>0</asrwt>
<pdfrwt beam="1">  1       21 0.47473303E-01 0.43862663E+03</pdfrwt>
<pdfrwt beam="2">  1       21 0.14760287E+00 0.43862663E+03</pdfrwt>
<totfact> 0.11262402E+03</totfact>
</mgrwt>
</event>
<event>
 4    1  0.4840996E-002  0.4262445E+03  0.7818608E-02  0.1035053E+00
         21   -1    0    0  501  502  0.00000000000E+00  0.00000000000E+00  0.70731704714E+03  0.70731704714E+03  0.00000000000E+00 0.  1.
         21   -1    0    0  502  503 -0.00000000000E+00 -0.00000000000E+00 -0.25964204521E+03  0.25964204521E+03  0.00000000000E+00 0.  1.
    9000005    1    1    2  501    0  0.55770661028E+01  0.14715053179E+03  0.27384666165E+03  0.50663238820E+03  0.40000000000E+03 0. -1.
   -9000005    1    1    2    0  503 -0.55770661028E+01 -0.14715053179E+03  0.17382834029E+03  0.46032670416E+03  0.40000000000E+03 0. -1.
<mgrwt>
<rscale>  2 0.42624451E+03</rscale>
<asrwt>0</asrwt>
<pdfrwt beam="1">  1       21 0.10881801E+00 0.42624451E+03</pdfrwt>
<pdfrwt beam="2">  1       21 0.39944930E-01 0.42624451E+03</pdfrwt>
<totfact> 0.35590219E+03</totfact>
</mgrwt>
</event>
<event>
 4    1  0.4840996E-002  0.5908699E+03  0.7818608E-02  0.9924531E-01
         21   -1    0    0  501  502  0.00000000000E+00  0.00000000000E+00  0.47479546055E+03  0.47479546055E+03  0.00000000000E+00 0. -1.
         21   -1    0    0  502  503 -0.00000000000E+00 -0.00000000000E+00 -0.78289435234E+03  0.78289435234E+03  0.00000000000E+00 0.  1.
    9000005    1    1    2  501    0  0.25295979704E+03  0.35374926837E+03 -0.30906403970E+03  0.66681915421E+03  0.40000000000E+03 0. -1.
   -9000005    1    1    2    0  503 -0.25295979704E+03 -0.35374926837E+03  0.96514790806E+00  0.59087065869E+03  0.40000000000E+03 0.  1.
<mgrwt>
<rscale>  2 0.59086987E+03</rscale>
<asrwt>0</asrwt>
<pdfrwt beam="1">  1       21 0.73045455E-01 0.59086987E+03</pdfrwt>
<pdfrwt beam="2">  1       21 0.12044529E+00 0.59086987E+03</pdfrwt>
<totfact> 0.70604245E+02</totfact>
</mgrwt>
</event>
<event>
 4    1  0.4840996E-002  0.4775067E+03  0.7818608E-02  0.1019823E+00
         21   -1    0    0  503  502  0.00000000000E+00  0.00000000000E+00  0.48768225696E+03  0.48768225696E+03  0.00000000000E+00 0. -1.
         21   -1    0    0  501  503 -0.00000000000E+00 -0.00000000000E+00 -0.88003512617E+03  0.88003512617E+03  0.00000000000E+00 0.  1.
    9000005    1    1    2  501    0  0.22991101462E+03  0.12309967698E+03 -0.66436845223E+03  0.81816749229E+03  0.40000000000E+03 0. -1.
   -9000005    1    1    2    0  502 -0.22991101462E+03 -0.12309967698E+03  0.27201558302E+03  0.54954989084E+03  0.40000000000E+03 0. -1.
<mgrwt>
<rscale>  2 0.47750665E+03</rscale>
<asrwt>0</asrwt>
<pdfrwt beam="1">  1       21 0.75028040E-01 0.47750665E+03</pdfrwt>
<pdfrwt beam="2">  1       21 0.13539002E+00 0.47750665E+03</pdfrwt>
<totfact> 0.51127625E+02</totfact>
</mgrwt>
</event>
<event>
 4    1  0.4840996E-002  0.6618622E+03  0.7818608E-02  0.9784772E-01
         21   -1    0    0  501  502  0.00000000000E+00  0.00000000000E+00  0.12461479299E+04  0.12461479299E+04  0.00000000000E+00 0.  1.
         21   -1    0    0  502  503 -0.00000000000E+00 -0.00000000000E+00 -0.61178031803E+03  0.61178031803E+03  0.00000000000E+00 0.  1.
    9000005    1    1    2  501    0 -0.21561830106E+03  0.48121748635E+03  0.92307511680E+03  0.11358385414E+04  0.40000000000E+03 0.  1.
   -9000005    1    1    2    0  503  0.21561830106E+03 -0.48121748635E+03 -0.28870750488E+03  0.72208970655E+03  0.40000000000E+03 0.  1.
<mgrwt>
<rscale>  2 0.66186216E+03</rscale>
<asrwt>0</asrwt>
<pdfrwt beam="1">  1       21 0.19171507E+00 0.66186216E+03</pdfrwt>
<pdfrwt beam="2">  1       21 0.94120049E-01 0.66186216E+03</pdfrwt>
<totfact> 0.10455888E+02</totfact>
</mgrwt>
</event>
<event>
 4    1  0.4840996E-002  0.4752747E+03  0.7818608E-02  0.1020442E+00
         21   -1    0    0  503  502  0.00000000000E+00  0.00000000000E+00  0.26609609500E+03  0.26609609500E+03  0.00000000000E+00 0. -1.
         21   -1    0    0  501  503 -0.00000000000E+00 -0.00000000000E+00 -0.93563122103E+03  0.93563122103E+03  0.00000000000E+00 0. -1.
    9000005    1    1    2  501    0  0.25274217074E+03  0.44804594871E+02 -0.15181488421E+03  0.49893267648E+03  0.40000000000E+03 0. -1.
   -9000005    1    1    2    0  502 -0.25274217074E+03 -0.44804594871E+02 -0.51772024182E+03  0.70279463955E+03  0.40000000000E+03 0. -1.
<mgrwt>
<rscale>  2 0.47527472E+03</rscale>
<asrwt>0</asrwt>
<pdfrwt beam="1">  1       21 0.40937862E-01 0.47527472E+03</pdfrwt>
<pdfrwt beam="2">  1       21 0.14394326E+00 0.47527472E+03</pdfrwt>
<totfact> 0.16177970E+03</totfact>
</mgrwt>
</event>
<event>
 4    1  0.4840996E-002  0.4420326E+03  0.7818608E-02  0.1030125E+00
         21   -1    0    0  501  502  0.00000000000E+00  0.00000000000E+00  0.66158280202E+03  0.66158280202E+03  0.00000000000E+00 0.  1.
         21   -1    0    0  502  503 -0.00000000000E+00 -0.00000000000E+00 -0.40442409910E+03  0.40442409910E+03  0.00000000000E+00 0.  1.
    9000005    1    1    2  501    0 -0.30852510808E+02  0.18558274029E+03  0.40539416331E+03  0.59978100884E+03  0.40000000000E+03 0.  1.
   -9000005    1    1    2    0  503  0.30852510808E+02 -0.18558274029E+03 -0.14823546039E+03  0.46622589228E+03  0.40000000000E+03 0.  1.
<mgrwt>
<rscale>  2 0.44203261E+03</rscale>
<asrwt>0</asrwt>
<pdfrwt beam="1">  1       21 0.10178197E+00 0.44203261E+03</pdfrwt>
<pdfrwt beam="2">  1       21 0.62219093E-01 0.44203261E+03</pdfrwt>
<totfact> 0.16246588E+03</totfact>
</mgrwt>
</event>
<event>
 4    1  0.4840996E-002  0.4463071E+03  0.7818608E-02  0.1028829E+00
         21   -1    0    0  503  502  0.00000000000E+00  0.00000000000E+00  0.13470138091E+04  0.13470138091E+04  0.00000000000E+00 0. -1.
         21   -1    0    0  501  503 -0.00000000000E+00 -0.00000000000E+00 -0.29178366299E+03  0.29178366299E+03  0.00000000000E+00 0. -1.
    9000005    1    1    2  501    0 -0.19531843041E+03  0.32260502864E+02 -0.47835288169E+02  0.44886327996E+03  0.40000000000E+03 0. -1.
   -9000005    1    1    2    0  502  0.19531843041E+03 -0.32260502864E+02  0.11030654342E+04  0.11899341921E+04  0.40000000000E+03 0. -1.
<mgrwt>
<rscale>  2 0.44630710E+03</rscale>
<asrwt>0</asrwt>
<pdfrwt beam="1">  1       21 0.20723289E+00 0.44630710E+03</pdfrwt>
<pdfrwt beam="2">  1       21 0.44889795E-01 0.44630710E+03</pdfrwt>
<totfact> 0.47297784E+02</totfact>
</mgrwt>
</event>
<event>
 4    1  0.4840996E-002  0.4585408E+03  0.7818608E-02  0.1025205E+00
         21   -1    0    0  501  502  0.00000000000E+00  0.00000000000E+00  0.45959208141E+03  0.45959208141E+03  0.00000000000E+00 0.  1.
         21   -1    0    0  502  503 -0.00000000000E+00 -0.00000000000E+00 -0.83875942726E+03  0.83875942726E+03  0.00000000000E+00 0.  1.
    9000005    1    1    2  501    0 -0.20507072864E+03  0.90584981928E+02  0.24809814700E+03  0.52135624408E+03  0.40000000000E+03 0.  1.
   -9000005    1    1    2    0  503  0.20507072864E+03 -0.90584981928E+02 -0.62726549284E+03  0.77699526460E+03  0.40000000000E+03 0.  1.
<mgrwt>
<rscale>  2 0.45854078E+03</rscale>
<asrwt>0</asrwt>
<pdfrwt beam="1">  1       21 0.70706475E-01 0.45854078E+03</pdfrwt>
<pdfrwt beam="2">  1       21 0.12903991E+00 0.45854078E+03</pdfrwt>
<totfact> 0.66854452E+02</totfact>
</mgrwt>
</event>
<event>
 4    1  0.4840996E-002  0.4587039E+03  0.7818608E-02  0.1025158E+00
         21   -1    0    0  501  502  0.00000000000E+00  0.00000000000E+00  0.28516933901E+03  0.28516933901E+03  0.00000000000E+00 0. -1.
         21   -1    0    0  502  503 -0.00000000000E+00 -0.00000000000E+00 -0.79038368772E+03  0.79038368772E+03  0.00000000000E+00 0. -1.
    9000005    1    1    2  501    0 -0.20315161480E+03  0.95596476191E+02 -0.11394938091E+03  0.47264545514E+03  0.40000000000E+03 0. -1.
   -9000005    1    1    2    0  503  0.20315161480E+03 -0.95596476191E+02 -0.39126496780E+03  0.60290757159E+03  0.40000000000E+03 0. -1.
<mgrwt>
<rscale>  2 0.45870390E+03</rscale>
<asrwt>0</asrwt>
<pdfrwt beam="1">  1       21 0.43872206E-01 0.45870390E+03</pdfrwt>
<pdfrwt beam="2">  1       21 0.12159749E+00 0.45870390E+03</pdfrwt>
<totfact> 0.21916908E+03</totfact>
</mgrwt>
</event>
<event>
 4    1  0.4840996E-002  0.5074828E+03  0.7818608E-02  0.1011844E+00
         21   -1    0    0  501  502  0.00000000000E+00  0.00000000000E+00  0.54381703299E+03  0.54381703299E+03  0.00000000000E+00 0.  1.
         21   -1    0    0  502  503 -0.00000000000E+00 -0.00000000000E+00 -0.52577731320E+03  0.52577731320E+03  0.00000000000E+00 0. -1.
    9000005    1    1    2  501    0  0.30221571847E+03  0.78768644823E+02 -0.15949095898E+03  0.53195507883E+03  0.40000000000E+03 0. -1.
   -9000005    1    1    2    0  503 -0.30221571847E+03 -0.78768644823E+02  0.17753067877E+03  0.53763926736E+03  0.40000000000E+03 0.  1.
<mgrwt>
<rscale>  2 0.50748285E+03</rscale>
<asrwt>0</asrwt>
<pdfrwt beam="1">  1       21 0.83664160E-01 0.50748285E+03</pdfrwt>
<pdfrwt beam="2">  1       21 0.80888817E-01 0.50748285E+03</pdfrwt>
<totfact> 0.13986014E+03</totfact>
</mgrwt>
</event>
<event>
 4    1  0.4840996E-002  0.4944324E+03  0.7818608E-02  0.1015242E+00
         21   -1    0    0  503  502  0.00000000000E+00  0.00000000000E+00  0.54987021536E+03  0.54987021536E+03  0.00000000000E+00 0. -1.
         21   -1    0    0  501  503 -0.00000000000E+00 -0.00000000000E+00 -0.66921688408E+03  0.66921688408E+03  0.00000000000E+00 0.  1.
    9000005    1    1    2  501    0  0.24863326950E+03 -0.15048234548E+03 -0.41282240573E+03  0.64411627652E+03  0.40000000000E+03 0.  1.
   -9000005    1    1    2    0  502 -0.24863326950E+03  0.15048234548E+03  0.29347573701E+03  0.57497082293E+03  0.40000000000E+03 0. -1.
<mgrwt>
<rscale>  2 0.49443244E+03</rscale>
<asrwt>0</asrwt>
<pdfrwt beam="1">  1       21 0.84595418E-01 0.49443244E+03</pdfrwt>
<pdfrwt beam="2">  1       21 0.10295644E+00 0.49443244E+03</pdfrwt>
<totfact> 0.77030959E+02</totfact>
</mgrwt>
</event>
<event>
 4    1  0.4840996E-002  0.4194394E+03  0.7818608E-02  0.1037249E+00
         21   -1    0    0  501  502  0.00000000000E+00  0.00000000000E+00  0.26737519469E+03  0.26737519469E+03  0.00000000000E+00 0.  1.
         21   -1    0    0  502  503 -0.00000000000E+00 -0.00000000000E+00 -0.66323481479E+03  0.66323481479E+03  0.00000000000E+00 0. -1.
    9000005    1    1    2  501    0  0.99228921554E+02  0.77993883849E+02 -0.23931927609E+03  0.48291111056E+03  0.40000000000E+03 0. -1.
   -9000005    1    1    2    0  503 -0.99228921554E+02 -0.77993883849E+02 -0.15654034401E+03  0.44769889892E+03  0.40000000000E+03 0. -1.
<mgrwt>
<rscale>  2 0.41943942E+03</rscale>
<asrwt>0</asrwt>
<pdfrwt beam="1">  1       21 0.41134646E-01 0.41943942E+03</pdfrwt>
<pdfrwt beam="2">  1       21 0.10203612E+00 0.41943942E+03</pdfrwt>
<totfact> 0.39341078E+03</totfact>
</mgrwt>
</event>
<event>
 4    1  0.4840996E-002  0.5552125E+03  0.7818608E-02  0.1000295E+00
         21   -1    0    0  501  502  0.00000000000E+00  0.00000000000E+00  0.57845347403E+03  0.57845347403E+03  0.00000000000E+00 0.  1.
         21   -1    0    0  502  503 -0.00000000000E+00 -0.00000000000E+00 -0.54477811891E+03  0.54477811891E+03  0.00000000000E+00 0. -1.
    9000005    1    1    2  501    0  0.20853171817E+03 -0.32369042602E+03  0.99747295582E+02  0.56410149118E+03  0.40000000000E+03 0. -1.
   -9000005    1    1    2    0  503 -0.20853171817E+03  0.32369042602E+03 -0.66071940457E+02  0.55913010176E+03  0.40000000000E+03 0. -1.
<mgrwt>
<rscale>  2 0.55521254E+03</rscale>
<asrwt>0</asrwt>
<pdfrwt beam="1">  1       21 0.88992842E-01 0.55521254E+03</pdfrwt>
<pdfrwt beam="2">  1       21 0.83812018E-01 0.55521254E+03</pdfrwt>
<totfact> 0.10954887E+03</totfact>
</mgrwt>
</event>
<event>
 4    1  0.4840996E-002  0.4993343E+03  0.7818608E-02  0.1013953E+00
         21   -1    0    0  503  502  0.00000000000E+00  0.00000000000E+00  0.93811900111E+03  0.93811900111E+03  0.00000000000E+00 0.  1.
         21   -1    0    0  501  503 -0.00000000000E+00 -0.00000000000E+00 -0.27225365885E+03  0.27225365885E+03  0.00000000000E+00 0.  1.
    9000005    1    1    2  501    0  0.14154112515E+03  0.26325064377E+03  0.23962385638E+03  0.55385411807E+03  0.40000000000E+03 0.  1.
   -9000005    1    1    2    0  502 -0.14154112515E+03 -0.26325064377E+03  0.42624148589E+03  0.65651854189E+03  0.40000000000E+03 0.  1.
<mgrwt>
<rscale>  2 0.49933435E+03</rscale>
<asrwt>0</asrwt>
<pdfrwt beam="1">  1       21 0.14432600E+00 0.49933435E+03</pdfrwt>
<pdfrwt beam="2">  1       21 0.41885179E-01 0.49933435E+03</pdfrwt>
<totfact> 0.15181057E+03</totfact>
</mgrwt>
</event>
<event>
 4    1  0.4840996E-002  0.4859982E+03  0.7818608E-02  0.1017500E+00
         21   -1    0    0  501  502  0.00000000000E+00  0.00000000000E+00  0.15588484180E+04  0.15588484180E+04  0.00000000000E+00 0. -1.
         21   -1    0    0  502  503 -0.00000000000E+00 -0.00000000000E+00 -0.35894400491E+03  0.35894400491E+03  0.00000000000E+00 0.  1.
    9000005    1    1    2  501    0 -0.99148846818E+02  0.25761172665E+03  0.13288881765E+04  0.14149692863E+04  0.40000000000E+03 0. -1.
   -9000005    1    1    2    0  503  0.99148846818E+02 -0.25761172665E+03 -0.12898376336E+03  0.50282313664E+03  0.40000000000E+03 0.  1.
<mgrwt>
<rscale>  2 0.48599825E+03</rscale>
<asrwt>0</asrwt>
<pdfrwt beam="1">  1       21 0.23982283E+00 0.48599825E+03</pdfrwt>
<pdfrwt beam="2">  1       21 0.55222155E-01 0.48599825E+03</pdfrwt>
<totfact> 0.18478202E+02</totfact>
</mgrwt>
</event>
<event>
 4    1  0.4840996E-002  0.4357505E+03  0.7818608E-02  0.1032059E+00
         21   -1    0    0  501  502  0.00000000000E+00  0.00000000000E+00  0.56494886077E+03  0.56494886077E+03  0.00000000000E+00 0. -1.
         21   -1    0    0  502  503 -0.00000000000E+00 -0.00000000000E+00 -0.33663299622E+03  0.33663299622E+03  0.00000000000E+00 0. -1.
    9000005    1    1    2  501    0 -0.17284373835E+03 -0.18871883185E+01  0.13211890347E+03  0.45533935040E+03  0.40000000000E+03 0. -1.
   -9000005    1    1    2    0  503  0.17284373835E+03  0.18871883185E+01  0.96196961077E+02  0.44624250659E+03  0.40000000000E+03 0. -1.
<mgrwt>
<rscale>  2 0.43575052E+03</rscale>
<asrwt>0</asrwt>
<pdfrwt beam="1">  1       21 0.86915209E-01 0.43575052E+03</pdfrwt>
<pdfrwt beam="2">  1       21 0.51789692E-01 0.43575052E+03</pdfrwt>
<totfact> 0.35375327E+03</totfact>
</mgrwt>
</event>
<event>
 4    1  0.4840996E-002  0.4112089E+03  0.7818608E-02  0.1039966E+00
         21   -1    0    0  501  502  0.00000000000E+00  0.00000000000E+00  0.54737765074E+03  0.54737765074E+03  0.00000000000E+00 0.  1.
         21   -1    0    0  502  503 -0.00000000000E+00 -0.00000000000E+00 -0.43177857775E+03  0.43177857775E+03  0.00000000000E+00 0.  1.
    9000005    1    1    2  501    0  0.20703763966E+02  0.93081129495E+02  0.31895817679E+03  0.52041047362E+03  0.40000000000E+03 0.  1.
   -9000005    1    1    2    0  503 -0.20703763966E+02 -0.93081129495E+02 -0.20335910380E+03  0.45874575487E+03  0.40000000000E+03 0.  1.
<mgrwt>
<rscale>  2 0.41120888E+03</rscale>
<asrwt>0</asrwt>
<pdfrwt beam="1">  1       21 0.84211946E-01 0.41120888E+03</pdfrwt>
<pdfrwt beam="2">  1       21 0.66427474E-01 0.41120888E+03</pdfrwt>
<totfact> 0.22342639E+03</totfact>
</mgrwt>
</event>
<event>
 4    1  0.4840996E-002  0.4002152E+03  0.7818608E-02  0.1043705E+00
         21   -1    0    0  503  502  0.00000000000E+00  0.00000000000E+00  0.83328722947E+03  0.83328722947E+03  0.00000000000E+00 0.  1.
         21   -1    0    0  501  503 -0.00000000000E+00 -0.00000000000E+00 -0.44127486564E+03  0.44127486564E+03  0.00000000000E+00 0.  1.
    9000005    1    1    2  501    0  0.13036384978E+02  0.14997528760E+01 -0.28276312707E+03  0.49002773658E+03  0.40000000000E+03 0.  1.
   -9000005    1    1    2    0  502 -0.13036384978E+02 -0.14997528760E+01  0.67477549089E+03  0.78453435852E+03  0.40000000000E+03 0.  1.
<mgrwt>
<rscale>  2 0.40021519E+03</rscale>
<asrwt>0</asrwt>
<pdfrwt beam="1">  1       21 0.12819803E+00 0.40021519E+03</pdfrwt>
<pdfrwt beam="2">  1       21 0.67888441E-01 0.40021519E+03</pdfrwt>
<totfact> 0.76522393E+02</totfact>
</mgrwt>
</event>
<event>
 4    1  0.4840996E-002  0.7162224E+03  0.7818608E-02  0.9689885E-01
         21   -1    0    0  501  502  0.00000000000E+00  0.00000000000E+00  0.88033078838E+03  0.88033078838E+03  0.00000000000E+00 0. -1.
         21   -1    0    0  502  503 -0.00000000000E+00 -0.00000000000E+00 -0.59028172747E+03  0.59028172747E+03  0.00000000000E+00 0. -1.
    9000005    1    1    2  501    0 -0.26847637838E+03 -0.52999518673E+03  0.22832294183E+03  0.75173521234E+03  0.40000000000E+03 0. -1.
   -9000005    1    1    2    0  503  0.26847637838E+03  0.52999518673E+03  0.61726119077E+02  0.71887730350E+03  0.40000000000E+03 0. -1.
<mgrwt>
<rscale>  2 0.71622236E+03</rscale>
<asrwt>0</asrwt>
<pdfrwt beam="1">  1       21 0.13543551E+00 0.71622236E+03</pdfrwt>
<pdfrwt beam="2">  1       21 0.90812573E-01 0.71622236E+03</pdfrwt>
<totfact> 0.30043787E+02</totfact>
</mgrwt>
</event>
<event>
 4    1  0.4840996E-002  0.4123144E+03  0.7818608E-02  0.1039597E+00
         21   -1    0    0  501  502  0.00000000000E+00  0.00000000000E+00  0.24414357787E+03  0.24414357787E+03  0.00000000000E+00 0. -1.
         21   -1    0    0  502  503 -0.00000000000E+00 -0.00000000000E+00 -0.10304300042E+04  0.10304300042E+04  0.00000000000E+00 0. -1.
    9000005    1    1    2  501    0  0.73847267800E+02 -0.67452002089E+02 -0.30259575553E+02  0.41342331025E+03  0.40000000000E+03 0. -1.
   -9000005    1    1    2    0  503 -0.73847267800E+02  0.67452002089E+02 -0.75602685075E+03  0.86115027179E+03  0.40000000000E+03 0. -1.
<mgrwt>
<rscale>  2 0.41231443E+03</rscale>
<asrwt>0</asrwt>
<pdfrwt beam="1">  1       21 0.37560550E-01 0.41231443E+03</pdfrwt>
<pdfrwt beam="2">  1       21 0.15852769E+00 0.41231443E+03</pdfrwt>
<totfact> 0.15237277E+03</totfact>
</mgrwt>
</event>
<event>
 4    1  0.4840996E-002  0.4435420E+03  0.7818608E-02  0.1029666E+00
         21   -1    0    0  501  502  0.00000000000E+00  0.00000000000E+00  0.13036789317E+04  0.13036789317E+04  0.00000000000E+00 0. -1.
         21   -1    0    0  502  503 -0.00000000000E+00 -0.00000000000E+00 -0.18618077313E+03  0.18618077313E+03  0.00000000000E+00 0. -1.
    9000005    1    1    2  501    0  0.17095416239E+03 -0.86626626753E+02  0.88301139922E+03  0.98814909263E+03  0.40000000000E+03 0. -1.
   -9000005    1    1    2    0  503 -0.17095416239E+03  0.86626626753E+02  0.23448675936E+03  0.50171061222E+03  0.40000000000E+03 0. -1.
<mgrwt>
<rscale>  2 0.44354199E+03</rscale>
<asrwt>0</asrwt>
<pdfrwt beam="1">  1       21 0.20056598E+00 0.44354199E+03</pdfrwt>
<pdfrwt beam="2">  1       21 0.28643197E-01 0.44354199E+03</pdfrwt>
<totfact> 0.13056407E+03</totfact>
</mgrwt>
</event>
<event>
 4    1  0.4840996E-002  0.4427454E+03  0.7818608E-02  0.1029908E+00
         21   -1    0    0  503  502  0.00000000000E+00  0.00000000000E+00  0.23863637313E+03  0.23863637313E+03  0.00000000000E+00 0.  1.
         21   -1    0    0  501  503 -0.00000000000E+00 -0.00000000000E+00 -0.83905758692E+03  0.83905758692E+03  0.00000000000E+00 0.  1.
    9000005    1    1    2  501    0  0.88760332832E+02 -0.16776504576E+03 -0.37830929464E+03  0.58235850614E+03  0.40000000000E+03 0. -1.
   -9000005    1    1    2    0  502 -0.88760332832E+02  0.16776504576E+03 -0.22211191915E+03  0.49533545390E+03  0.40000000000E+03 0. -1.
<mgrwt>
<rscale>  2 0.44274542E+03</rscale>
<asrwt>0</asrwt>
<pdfrwt beam="1">  1       21 0.36713288E-01 0.44274542E+03</pdfrwt>
<pdfrwt beam="2">  1       21 0.12908578E+00 0.44274542E+03</pdfrwt>
<totfact> 0.27294317E+03</totfact>
</mgrwt>
</event>
<event>
 4    1  0.4840996E-002  0.4720546E+03  0.7818608E-02  0.1021342E+00
         21   -1    0    0  503  502  0.00000000000E+00  0.00000000000E+00  0.24939701584E+03  0.24939701584E+03  0.00000000000E+00 0. -1.
         21   -1    0    0  501  503 -0.00000000000E+00 -0.00000000000E+00 -0.11804329569E+04  0.11804329569E+04  0.00000000000E+00 0. -1.
    9000005    1    1    2  501    0  0.21824278534E+03  0.12331110836E+03 -0.81799112983E+03  0.94442841512E+03  0.40000000000E+03 0. -1.
   -9000005    1    1    2    0  502 -0.21824278534E+03 -0.12331110836E+03 -0.11304481123E+03  0.48540155762E+03  0.40000000000E+03 0. -1.
<mgrwt>
<rscale>  2 0.47205460E+03</rscale>
<asrwt>0</asrwt>
<pdfrwt beam="1">  1       21 0.38368772E-01 0.47205460E+03</pdfrwt>
<pdfrwt beam="2">  1       21 0.18160507E+00 0.47205460E+03</pdfrwt>
<totfact> 0.96495485E+02</totfact>
</mgrwt>
</event>
<event>
 4    1  0.4840996E-002  0.4549563E+03  0.7818608E-02  0.1026254E+00
         21   -1    0    0  503  502  0.00000000000E+00  0.00000000000E+00  0.62092791799E+03  0.62092791799E+03  0.00000000000E+00 0. -1.
         21   -1    0    0  501  503 -0.00000000000E+00 -0.00000000000E+00 -0.35957914834E+03  0.35957914834E+03  0.00000000000E+00 0. -1.
    9000005    1    1    2  501    0 -0.58619173218E+02 -0.20868406283E+03  0.26308717039E+03  0.52554743342E+03  0.40000000000E+03 0.  1.
   -9000005    1    1    2    0  502  0.58619173218E+02  0.20868406283E+03 -0.17384007359E+01  0.45495963292E+03  0.40000000000E+03 0.  1.
<mgrwt>
<rscale>  2 0.45495631E+03</rscale>
<asrwt>0</asrwt>
<pdfrwt beam="1">  1       21 0.95527372E-01 0.45495631E+03</pdfrwt>
<pdfrwt beam="2">  1       21 0.55319869E-01 0.45495631E+03</pdfrwt>
<totfact> 0.24362544E+03</totfact>
</mgrwt>
</event>
<event>
 4    1  0.4840996E-002  0.4001363E+03  0.7818608E-02  0.1043732E+00
         21   -1    0    0  501  502  0.00000000000E+00  0.00000000000E+00  0.10251109781E+03  0.10251109781E+03  0.00000000000E+00 0. -1.
         21   -1    0    0  502  503 -0.00000000000E+00 -0.00000000000E+00 -0.19877019788E+04  0.19877019788E+04  0.00000000000E+00 0. -1.
    9000005    1    1    2  501    0  0.68312521411E+01  0.78991411889E+01 -0.45886457773E+03  0.60882326100E+03  0.40000000000E+03 0. -1.
   -9000005    1    1    2    0  503 -0.68312521411E+01 -0.78991411889E+01 -0.14263263032E+04  0.14813898156E+04  0.40000000000E+03 0. -1.
<mgrwt>
<rscale>  2 0.40013630E+03</rscale>
<asrwt>0</asrwt>
<pdfrwt beam="1">  1       21 0.15770939E-01 0.40013630E+03</pdfrwt>
<pdfrwt beam="2">  1       21 0.30580029E+00 0.40013630E+03</pdfrwt>
<totfact> 0.93718832E+02</totfact>
</mgrwt>
</event>
<event>
 4    1  0.4840996E-002  0.5435869E+03  0.7818608E-02  0.1002989E+00
         21   -1    0    0  501  502  0.00000000000E+00  0.00000000000E+00  0.77903291891E+03  0.77903291891E+03  0.00000000000E+00 0.  1.
         21   -1    0    0  502  503 -0.00000000000E+00 -0.00000000000E+00 -0.37932040110E+03  0.37932040110E+03  0.00000000000E+00 0.  1.
    9000005    1    1    2  501    0  0.24170815717E+03  0.27760384418E+03  0.20416461772E+03  0.58066334366E+03  0.40000000000E+03 0.  1.
   -9000005    1    1    2    0  503 -0.24170815717E+03 -0.27760384418E+03  0.19554790009E+03  0.57768997635E+03  0.40000000000E+03 0.  1.
<mgrwt>
<rscale>  2 0.54358691E+03</rscale>
<asrwt>0</asrwt>
<pdfrwt beam="1">  1       21 0.11985122E+00 0.54358691E+03</pdfrwt>
<pdfrwt beam="2">  1       21 0.58356985E-01 0.54358691E+03</pdfrwt>
<totfact> 0.11999032E+03</totfact>
</mgrwt>
</event>
<event>
 4    1  0.4840996E-002  0.5736939E+03  0.7818608E-02  0.9961538E-01
         21   -1    0    0  501  502  0.00000000000E+00  0.00000000000E+00  0.31559616007E+03  0.31559616007E+03  0.00000000000E+00 0. -1.
         21   -1    0    0  502  503 -0.00000000000E+00 -0.00000000000E+00 -0.13265200127E+04  0.13265200127E+04  0.00000000000E+00 0. -1.
    9000005    1    1    2  501    0  0.24088184998E+03  0.33331756813E+03 -0.88513609683E+03  0.10547940921E+04  0.40000000000E+03 0. -1.
   -9000005    1    1    2    0  503 -0.24088184998E+03 -0.33331756813E+03 -0.12578775578E+03  0.58732208061E+03  0.40000000000E+03 0. -1.
<mgrwt>
<rscale>  2 0.57369388E+03</rscale>
<asrwt>0</asrwt>
<pdfrwt beam="1">  1       21 0.48553256E-01 0.57369388E+03</pdfrwt>
<pdfrwt beam="2">  1       21 0.20408000E+00 0.57369388E+03</pdfrwt>
<totfact> 0.39747373E+02</totfact>
</mgrwt>
</event>
<event>
 4    1  0.4840996E-002  0.4143639E+03  0.7818608E-02  0.1038916E+00
         21   -1    0    0  501  502  0.00000000000E+00  0.00000000000E+00  0.92845904277E+03  0.92845904277E+03  0.00000000000E+00 0.  1.
         21   -1    0    0  502  503 -0.00000000000E+00 -0.00000000000E+00 -0.20980809065E+03  0.20980809065E+03  0.00000000000E+00 0.  1.
    9000005    1    1    2  501    0  0.10780745996E+03 -0.86586941865E+01  0.55531605558E+03  0.69287325175E+03  0.40000000000E+03 0.  1.
   -9000005    1    1    2    0  503 -0.10780745996E+03  0.86586941865E+01  0.16333489655E+03  0.44539388168E+03  0.40000000000E+03 0.  1.
<mgrwt>
<rscale>  2 0.41436388E+03</rscale>
<asrwt>0</asrwt>
<pdfrwt beam="1">  1       21 0.14283985E+00 0.41436388E+03</pdfrwt>
<pdfrwt beam="2">  1       21 0.32278168E-01 0.41436388E+03</pdfrwt>
<totfact> 0.27430369E+03</totfact>
</mgrwt>
</event>
<event>
 4    1  0.4840996E-002  0.4247907E+03  0.7818608E-02  0.1035518E+00
         21   -1    0    0  501  502  0.00000000000E+00  0.00000000000E+00  0.71923992755E+03  0.71923992755E+03  0.00000000000E+00 0.  1.
         21   -1    0    0  502  503 -0.00000000000E+00 -0.00000000000E+00 -0.58836043964E+03  0.58836043964E+03  0.00000000000E+00 0.  1.
    9000005    1    1    2  501    0 -0.10785441751E+03 -0.93886112345E+02  0.56059773741E+03  0.70336121634E+03  0.40000000000E+03 0.  1.
   -9000005    1    1    2    0  503  0.10785441751E+03  0.93886112345E+02 -0.42971824950E+03  0.60423915085E+03  0.40000000000E+03 0.  1.
<mgrwt>
<rscale>  2 0.42479075E+03</rscale>
<asrwt>0</asrwt>
<pdfrwt beam="1">  1       21 0.11065230E+00 0.42479075E+03</pdfrwt>
<pdfrwt beam="2">  1       21 0.90516990E-01 0.42479075E+03</pdfrwt>
<totfact> 0.56639577E+02</totfact>
</mgrwt>
</event>
<event>
 4    1  0.4840996E-002  0.4031434E+03  0.7818608E-02  0.1042697E+00
         21   -1    0    0  503  502  0.00000000000E+00  0.00000000000E+00  0.12116188416E+03  0.12116188416E+03  0.00000000000E+00 0.  1.
         21   -1    0    0  501  503 -0.00000000000E+00 -0.00000000000E+00 -0.13596559064E+04  0.13596559064E+04  0.00000000000E+00 0.  1.
    9000005    1    1    2  501    0 -0.11676152712E+02  0.48870181086E+02 -0.70507869780E+03  0.81219492564E+03  0.40000000000E+03 0.  1.
   -9000005    1    1    2    0  502  0.11676152712E+02 -0.48870181086E+02 -0.53341532443E+03  0.66862286491E+03  0.40000000000E+03 0.  1.
<mgrwt>
<rscale>  2 0.40314343E+03</rscale>
<asrwt>0</asrwt>
<pdfrwt beam="1">  1       21 0.18640290E-01 0.40314343E+03</pdfrwt>
<pdfrwt beam="2">  1       21 0.20917783E+00 0.40314343E+03</pdfrwt>
<totfact> 0.26741107E+03</totfact>
</mgrwt>
</event>
<event>
 4    1  0.4840996E-002  0.5907189E+03  0.7818608E-02  0.9924851E-01
         21   -1    0    0  503  502  0.00000000000E+00  0.00000000000E+00  0.62457483755E+03  0.62457483755E+03  0.00000000000E+00 0.  1.
         21   -1    0    0  501  503 -0.00000000000E+00 -0.00000000000E+00 -0.57526920075E+03  0.57526920075E+03  0.00000000000E+00 0.  1.
    9000005    1    1    2  501    0 -0.66194444464E+02  0.42961273606E+03  0.12647308728E+03  0.60410615728E+03  0.40000000000E+03 0.  1.
   -9000005    1    1    2    0  502  0.66194444464E+02 -0.42961273606E+03 -0.77167450483E+02  0.59573788101E+03  0.40000000000E+03 0.  1.
<mgrwt>
<rscale>  2 0.59071889E+03</rscale>
<asrwt>0</asrwt>
<pdfrwt beam="1">  1       21 0.96088437E-01 0.59071889E+03</pdfrwt>
<pdfrwt beam="2">  1       21 0.88502954E-01 0.59071889E+03</pdfrwt>
<totfact> 0.79238933E+02</totfact>
</mgrwt>
</event>
<event>
 4    1  0.4840996E-002  0.4171595E+03  0.7818608E-02  0.1037995E+00
         21   -1    0    0  501  502  0.00000000000E+00  0.00000000000E+00  0.37837658218E+03  0.37837658218E+03  0.00000000000E+00 0. -1.
         21   -1    0    0  502  503 -0.00000000000E+00 -0.00000000000E+00 -0.60112811131E+03  0.60112811131E+03  0.00000000000E+00 0. -1.
    9000005    1    1    2  501    0  0.76543610215E+02  0.90349873538E+02  0.12599466941E+03  0.43577136280E+03  0.40000000000E+03 0. -1.
   -9000005    1    1    2    0  503 -0.76543610215E+02 -0.90349873538E+02 -0.34874619854E+03  0.54373333069E+03  0.40000000000E+03 0. -1.
<mgrwt>
<rscale>  2 0.41715947E+03</rscale>
<asrwt>0</asrwt>
<pdfrwt beam="1">  1       21 0.58211783E-01 0.41715947E+03</pdfrwt>
<pdfrwt beam="2">  1       21 0.92481246E-01 0.41715947E+03</pdfrwt>
<totfact> 0.23909330E+03</totfact>
</mgrwt>
</event>
<event>
 4    1  0.4840996E-002  0.6326830E+03  0.7818608E-02  0.9839827E-01
         21   -1    0    0  501  502  0.00000000000E+00  0.00000000000E+00  0.59979448035E+03  0.59979448035E+03  0.00000000000E+00 0. -1.
         21   -1    0    0  502  503 -0.00000000000E+00 -0.00000000000E+00 -0.68104591790E+03  0.68104591790E+03  0.00000000000E+00 0. -1.
    9000005    1    1    2  501    0  0.47823104269E+03 -0.10762383597E+03  0.50109568685E+02  0.63466431217E+03  0.40000000000E+03 0.  1.
   -9000005    1    1    2    0  503 -0.47823104269E+03  0.10762383597E+03 -0.13136100623E+03  0.64617608608E+03  0.40000000000E+03 0.  1.
<mgrwt>
<rscale>  2 0.63268303E+03</rscale>
<asrwt>0</asrwt>
<pdfrwt beam="1">  1       21 0.92276074E-01 0.63268303E+03</pdfrwt>
<pdfrwt beam="2">  1       21 0.10477630E+00 0.63268303E+03</pdfrwt>
<totfact> 0.57255215E+02</totfact>
</mgrwt>
</event>
<event>
 4    1  0.4840996E-002  0.5904736E+03  0.7818608E-02  0.9925370E-01
         21   -1    0    0  503  502  0.00000000000E+00  0.00000000000E+00  0.11934339786E+04  0.11934339786E+04  0.00000000000E+00 0.  1.
         21   -1    0    0  501  503 -0.00000000000E+00 -0.00000000000E+00 -0.35654806980E+03  0.35654806980E+03  0.00000000000E+00 0.  1.
    9000005    1    1    2  501    0  0.40635396784E+03 -0.15341277952E+03  0.89074724179E+02  0.59715436412E+03  0.40000000000E+03 0.  1.
   -9000005    1    1    2    0  502 -0.40635396784E+03  0.15341277952E+03  0.74781118466E+03  0.95282768432E+03  0.40000000000E+03 0.  1.
<mgrwt>
<rscale>  2 0.59047356E+03</rscale>
<asrwt>0</asrwt>
<pdfrwt beam="1">  1       21 0.18360523E+00 0.59047356E+03</pdfrwt>
<pdfrwt beam="2">  1       21 0.54853550E-01 0.59047356E+03</pdfrwt>
<totfact> 0.41961072E+02</totfact>
</mgrwt>
</event>
<event>
 4    1  0.4840996E-002  0.6483818E+03  0.7818608E-02  0.9809820E-01
         21   -1    0    0  501  502  0.00000000000E+00  0.00000000000E+00  0.19457807839E+04  0.19457807839E+04  0.00000000000E+00 0.  1.
         21   -1    0    0  502  503 -0.00000000000E+00 -0.00000000000E+00 -0.21631910709E+03  0.21631910709E+03  0.00000000000E+00 0. -1.
    9000005    1    1    2  501    0  0.49031508696E+03 -0.14138608028E+03  0.82707654080E+03  0.10509303081E+04  0.40000000000E+03 0. -1.
   -9000005    1    1    2    0  503 -0.49031508696E+03  0.14138608028E+03  0.90238513604E+03  0.11111695829E+04  0.40000000000E+03 0.  1.
<mgrwt>
<rscale>  2 0.64838176E+03</rscale>
<asrwt>0</asrwt>
<pdfrwt beam="1">  1       21 0.29935088E+00 0.64838176E+03</pdfrwt>
<pdfrwt beam="2">  1       21 0.33279864E-01 0.64838176E+03</pdfrwt>
<totfact> 0.21342480E+02</totfact>
</mgrwt>
</event>
<event>
 4    1  0.4840996E-002  0.4578776E+03  0.7818608E-02  0.1025399E+00
         21   -1    0    0  503  502  0.00000000000E+00  0.00000000000E+00  0.12652292028E+03  0.12652292028E+03  0.00000000000E+00 0.  1.
         21   -1    0    0  501  503 -0.00000000000E+00 -0.00000000000E+00 -0.23518176354E+04  0.23518176354E+04  0.00000000000E+00 0.  1.
    9000005    1    1    2  501    0 -0.80744709518E+02  0.20768288715E+03 -0.17861761376E+04  0.18439297937E+04  0.40000000000E+03 0.  1.
   -9000005    1    1    2    0  502  0.80744709518E+02 -0.20768288715E+03 -0.43911857752E+03  0.63441076193E+03  0.40000000000E+03 0.  1.
<mgrwt>
<rscale>  2 0.45787759E+03</rscale>
<asrwt>0</asrwt>
<pdfrwt beam="1">  1       21 0.19465063E-01 0.45787759E+03</pdfrwt>
<pdfrwt beam="2">  1       21 0.36181812E+00 0.45787759E+03</pdfrwt>
<totfact> 0.27827603E+02</totfact>
</mgrwt>
</event>
<event>
 4    1  0.4840996E-002  0.4882185E+03  0.7818608E-02  0.1016901E+00
         21   -1    0    0  501  502  0.00000000000E+00  0.00000000000E+00  0.27441403784E+03  0.27441403784E+03  0.00000000000E+00 0.  1.
         21   -1    0    0  502  503 -0.00000000000E+00 -0.00000000000E+00 -0.95214705345E+03  0.95214705345E+03  0.00000000000E+00 0.  1.
    9000005    1    1    2  501    0  0.99464173177E+02  0.26165669882E+03 -0.52052691095E+03  0.71365651038E+03  0.40000000000E+03 0.  1.
   -9000005    1    1    2    0  503 -0.99464173177E+02 -0.26165669882E+03 -0.15720610466E+03  0.51290458091E+03  0.40000000000E+03 0.  1.
<mgrwt>
<rscale>  2 0.48821855E+03</rscale>
<asrwt>0</asrwt>
<pdfrwt beam="1">  1       21 0.42217545E-01 0.48821855E+03</pdfrwt>
<pdfrwt beam="2">  1       21 0.14648416E+00 0.48821855E+03</pdfrwt>
<totfact> 0.14406251E+03</totfact>
</mgrwt>
</event>
<event>
 4    1  0.4840996E-002  0.5469602E+03  0.7818608E-02  0.1002200E+00
         21   -1    0    0  503  502  0.00000000000E+00  0.00000000000E+00  0.14070377254E+04  0.14070377254E+04  0.00000000000E+00 0.  1.
         21   -1    0    0  501  503 -0.00000000000E+00 -0.00000000000E+00 -0.71776431259E+03  0.71776431259E+03  0.00000000000E+00 0.  1.
    9000005    1    1    2  501    0 -0.71627104099E+02  0.36610795498E+03 -0.54662437144E+03  0.77328111330E+03  0.40000000000E+03 0.  1.
   -9000005    1    1    2    0  502  0.71627104099E+02 -0.36610795498E+03  0.12358977843E+04  0.13515209247E+04  0.40000000000E+03 0.  1.
<mgrwt>
<rscale>  2 0.54696021E+03</rscale>
<asrwt>0</asrwt>
<pdfrwt beam="1">  1       21 0.21646734E+00 0.54696021E+03</pdfrwt>
<pdfrwt beam="2">  1       21 0.11042528E+00 0.54696021E+03</pdfrwt>
<totfact> 0.50648705E+01</totfact>
</mgrwt>
</event>
<event>
 4    1  0.4840996E-002  0.4310454E+03  0.7818608E-02  0.1033530E+00
         21   -1    0    0  501  502  0.00000000000E+00  0.00000000000E+00  0.22326313861E+04  0.22326313861E+04  0.00000000000E+00 0. -1.
         21   -1    0    0  502  503 -0.00000000000E+00 -0.00000000000E+00 -0.18716590066E+03  0.18716590066E+03  0.00000000000E+00 0. -1.
    9000005    1    1    2  501    0  0.11371279208E+03  0.11344407159E+03  0.19243843748E+04  0.19720688068E+04  0.40000000000E+03 0. -1.
   -9000005    1    1    2    0  503 -0.11371279208E+03 -0.11344407159E+03  0.12108111059E+03  0.44772848000E+03  0.40000000000E+03 0. -1.
<mgrwt>
<rscale>  2 0.43104542E+03</rscale>
<asrwt>0</asrwt>
<pdfrwt beam="1">  1       21 0.34348173E+00 0.43104542E+03</pdfrwt>
<pdfrwt beam="2">  1       21 0.28794756E-01 0.43104542E+03</pdfrwt>
<totfact> 0.17203346E+02</totfact>
</mgrwt>
</event>
<event>
 4    1  0.4840996E-002  0.4331035E+03  0.7818608E-02  0.1032884E+00
         21   -1    0    0  501  502  0.00000000000E+00  0.00000000000E+00  0.96716718150E+03  0.96716718150E+03  0.00000000000E+00 0.  1.
         21   -1    0    0  502  503 -0.00000000000E+00 -0.00000000000E+00 -0.30473289708E+03  0.30473289708E+03  0.00000000000E+00 0.  1.
    9000005    1    1    2  501    0  0.11904476654E+03  0.11578850365E+03  0.71466530439E+03  0.83565850162E+03  0.40000000000E+03 0.  1.
   -9000005    1    1    2    0  503 -0.11904476654E+03 -0.11578850365E+03 -0.52231019976E+02  0.43624157696E+03  0.40000000000E+03 0.  1.
<mgrwt>
<rscale>  2 0.43310349E+03</rscale>
<asrwt>0</asrwt>
<pdfrwt beam="1">  1       21 0.14879495E+00 0.43310349E+03</pdfrwt>
<pdfrwt beam="2">  1       21 0.46881985E-01 0.43310349E+03</pdfrwt>
<totfact> 0.11342460E+03</totfact>
</mgrwt>
</event>
<event>
 4    1  0.4840996E-002  0.5432321E+03  0.7818608E-02  0.1003073E+00
         21   -1    0    0  501  502  0.00000000000E+00  0.00000000000E+00  0.27203197905E+04  0.27203197905E+04  0.00000000000E+00 0.  1.
         21   -1    0    0  502  503 -0.00000000000E+00 -0.00000000000E+00 -0.12234345453E+03  0.12234345453E+03  0.00000000000E+00 0.  1.
    9000005    1    1    2  501    0 -0.36566223439E+03 -0.37312315208E+02  0.17774378220E+04  0.18585979365E+04  0.40000000000E+03 0.  1.
   -9000005    1    1    2    0  503  0.36566223439E+03  0.37312315208E+02  0.82053851396E+03  0.98406530851E+03  0.40000000000E+03 0.  1.
<mgrwt>
<rscale>  2 0.54323207E+03</rscale>
<asrwt>0</asrwt>
<pdfrwt beam="1">  1       21 0.41851069E+00 0.54323207E+03</pdfrwt>
<pdfrwt beam="2">  1       21 0.18822072E-01 0.54323207E+03</pdfrwt>
<totfact> 0.12260854E+02</totfact>
</mgrwt>
</event>
<event>
 4    1  0.4840996E-002  0.5275404E+03  0.7818608E-02  0.1006830E+00
         21   -1    0    0  501  502  0.00000000000E+00  0.00000000000E+00  0.38684911519E+03  0.38684911519E+03  0.00000000000E+00 0.  1.
         21   -1    0    0  502  503 -0.00000000000E+00 -0.00000000000E+00 -0.84998707312E+03  0.84998707312E+03  0.00000000000E+00 0. -1.
    9000005    1    1    2  501    0 -0.28674629944E+03 -0.18993545868E+03  0.10828199648E+02  0.52765155985E+03  0.40000000000E+03 0.  1.
   -9000005    1    1    2    0  503  0.28674629944E+03  0.18993545868E+03 -0.47396615758E+03  0.70918462846E+03  0.40000000000E+03 0. -1.
<mgrwt>
<rscale>  2 0.52754044E+03</rscale>
<asrwt>0</asrwt>
<pdfrwt beam="1">  1       21 0.59515248E-01 0.52754044E+03</pdfrwt>
<pdfrwt beam="2">  1       21 0.13076724E+00 0.52754044E+03</pdfrwt>
<totfact> 0.92241834E+02</totfact>
</mgrwt>
</event>
<event>
 4    1  0.4840996E-002  0.4999464E+03  0.7818608E-02  0.1013793E+00
         21   -1    0    0  503  502  0.00000000000E+00  0.00000000000E+00  0.71586783957E+03  0.71586783957E+03  0.00000000000E+00 0. -1.
         21   -1    0    0  501  503 -0.00000000000E+00 -0.00000000000E+00 -0.34951133990E+03  0.34951133990E+03  0.00000000000E+00 0. -1.
    9000005    1    1    2  501    0 -0.50710568542E+02  0.29559242000E+03  0.20026679263E+03  0.53856590010E+03  0.40000000000E+03 0. -1.
   -9000005    1    1    2    0  502  0.50710568542E+02 -0.29559242000E+03  0.16608970704E+03  0.52681327936E+03  0.40000000000E+03 0. -1.
<mgrwt>
<rscale>  2 0.49994644E+03</rscale>
<asrwt>0</asrwt>
<pdfrwt beam="1">  1       21 0.11013351E+00 0.49994644E+03</pdfrwt>
<pdfrwt beam="2">  1       21 0.53770975E-01 0.49994644E+03</pdfrwt>
<totfact> 0.17992510E+03</totfact>
</mgrwt>
</event>
<event>
 4    1  0.4840996E-002  0.4029418E+03  0.7818608E-02  0.1042766E+00
         21   -1    0    0  503  502  0.00000000000E+00  0.00000000000E+00  0.25760569755E+03  0.25760569755E+03  0.00000000000E+00 0.  1.
         21   -1    0    0  501  503 -0.00000000000E+00 -0.00000000000E+00 -0.99269514966E+03  0.99269514966E+03  0.00000000000E+00 0.  1.
    9000005    1    1    2  501    0  0.43027584988E+02 -0.22599266788E+02 -0.74527649945E+03  0.84723028780E+03  0.40000000000E+03 0.  1.
   -9000005    1    1    2    0  502 -0.43027584988E+02  0.22599266788E+02  0.10187047337E+02  0.40307055941E+03  0.40000000000E+03 0.  1.
<mgrwt>
<rscale>  2 0.40294181E+03</rscale>
<asrwt>0</asrwt>
<pdfrwt beam="1">  1       21 0.39631647E-01 0.40294181E+03</pdfrwt>
<pdfrwt beam="2">  1       21 0.15272233E+00 0.40294181E+03</pdfrwt>
<totfact> 0.15191502E+03</totfact>
</mgrwt>
</event>
<event>
 4    1  0.4840996E-002  0.5071982E+03  0.7818608E-02  0.1011917E+00
         21   -1    0    0  503  502  0.00000000000E+00  0.00000000000E+00  0.64651775676E+03  0.64651775676E+03  0.00000000000E+00 0. -1.
         21   -1    0    0  501  503 -0.00000000000E+00 -0.00000000000E+00 -0.15276363765E+04  0.15276363765E+04  0.00000000000E+00 0.  1.
    9000005    1    1    2  501    0 -0.28935858949E+03 -0.11628232731E+03 -0.13754024140E+04  0.14659405764E+04  0.40000000000E+03 0.  1.
   -9000005    1    1    2    0  502  0.28935858949E+03  0.11628232731E+03  0.49428379424E+03  0.70821355692E+03  0.40000000000E+03 0. -1.
<mgrwt>
<rscale>  2 0.50719816E+03</rscale>
<asrwt>0</asrwt>
<pdfrwt beam="1">  1       21 0.99464270E-01 0.50719816E+03</pdfrwt>
<pdfrwt beam="2">  1       21 0.23502098E+00 0.50719816E+03</pdfrwt>
<totfact> 0.50975069E+01</totfact>
</mgrwt>
</event>
<event>
 4    1  0.4840996E-002  0.4198837E+03  0.7818608E-02  0.1037104E+00
         21   -1    0    0  501  502  0.00000000000E+00  0.00000000000E+00  0.52019516058E+03  0.52019516058E+03  0.00000000000E+00 0.  1.
         21   -1    0    0  502  503 -0.00000000000E+00 -0.00000000000E+00 -0.34312266242E+03  0.34312266242E+03  0.00000000000E+00 0.  1.
    9000005    1    1    2  501    0  0.46791564756E+02  0.11879775730E+03  0.13633266115E+03  0.44146228850E+03  0.40000000000E+03 0.  1.
   -9000005    1    1    2    0  503 -0.46791564756E+02 -0.11879775730E+03  0.40739837006E+02  0.42185553450E+03  0.40000000000E+03 0.  1.
<mgrwt>
<rscale>  2 0.41988374E+03</rscale>
<asrwt>0</asrwt>
<pdfrwt beam="1">  1       21 0.80030024E-01 0.41988374E+03</pdfrwt>
<pdfrwt beam="2">  1       21 0.52788102E-01 0.41988374E+03</pdfrwt>
<totfact> 0.41386925E+03</totfact>
</mgrwt>
</event>
<event>
 4    1  0.4840996E-002  0.6330718E+03  0.7818608E-02  0.9839073E-01
         21   -1    0    0  503  502  0.00000000000E+00  0.00000000000E+00  0.59997065640E+03  0.59997065640E+03  0.00000000000E+00 0.  1.
         21   -1    0    0  501  503 -0.00000000000E+00 -0.00000000000E+00 -0.80277713956E+03  0.80277713956E+03  0.00000000000E+00 0. -1.
    9000005    1    1    2  501    0 -0.28652570609E+03  0.39835024887E+03 -0.38878655933E+03  0.74292320582E+03  0.40000000000E+03 0. -1.
   -9000005    1    1    2    0  502  0.28652570609E+03 -0.39835024887E+03  0.18598007617E+03  0.65982459014E+03  0.40000000000E+03 0.  1.
<mgrwt>
<rscale>  2 0.63307180E+03</rscale>
<asrwt>0</asrwt>
<pdfrwt beam="1">  1       21 0.92303179E-01 0.63307180E+03</pdfrwt>
<pdfrwt beam="2">  1       21 0.12350417E+00 0.63307180E+03</pdfrwt>
<totfact> 0.37753326E+02</totfact>
</mgrwt>
</event>
<event>
 4    1  0.4840996E-002  0.4326104E+03  0.7818608E-02  0.1033039E+00
         21   -1    0    0  501  502  0.00000000000E+00  0.00000000000E+00  0.38148871572E+03  0.38148871572E+03  0.00000000000E+00 0. -1.
         21   -1    0    0  502  503 -0.00000000000E+00 -0.00000000000E+00 -0.54390533945E+03  0.54390533945E+03  0.00000000000E+00 0. -1.
    9000005    1    1    2  501    0 -0.59720712272E+02  0.15357468182E+03  0.63665890494E+02  0.43727004469E+03  0.40000000000E+03 0. -1.
   -9000005    1    1    2    0  503  0.59720712272E+02 -0.15357468182E+03 -0.22608251422E+03  0.48812401048E+03  0.40000000000E+03 0. -1.
<mgrwt>
<rscale>  2 0.43261039E+03</rscale>
<asrwt>0</asrwt>
<pdfrwt beam="1">  1       21 0.58690572E-01 0.43261039E+03</pdfrwt>
<pdfrwt beam="2">  1       21 0.83677744E-01 0.43261039E+03</pdfrwt>
<totfact> 0.29546662E+03</totfact>
</mgrwt>
</event>
<event>
 4    1  0.4840996E-002  0.4943719E+03  0.7818608E-02  0.1015258E+00
         21   -1    0    0  503  502  0.00000000000E+00  0.00000000000E+00  0.37979521589E+03  0.37979521589E+03  0.00000000000E+00 0. -1.
         21   -1    0    0  501  503 -0.00000000000E+00 -0.00000000000E+00 -0.85170563545E+03  0.85170563545E+03  0.00000000000E+00 0. -1.
    9000005    1    1    2  501    0 -0.27498102494E+03 -0.93749670391E+02 -0.54038806911E+03  0.73240892267E+03  0.40000000000E+03 0. -1.
   -9000005    1    1    2    0  502  0.27498102494E+03  0.93749670391E+02  0.68477649551E+02  0.49909192867E+03  0.40000000000E+03 0. -1.
<mgrwt>
<rscale>  2 0.49437189E+03</rscale>
<asrwt>0</asrwt>
<pdfrwt beam="1">  1       21 0.58430033E-01 0.49437189E+03</pdfrwt>
<pdfrwt beam="2">  1       21 0.13103164E+00 0.49437189E+03</pdfrwt>
<totfact> 0.96698980E+02</totfact>
</mgrwt>
</event>
<event>
 4    1  0.4840996E-002  0.5220589E+03  0.7818608E-02  0.1008176E+00
         21   -1    0    0  503  502  0.00000000000E+00  0.00000000000E+00  0.52611064241E+03  0.52611064241E+03  0.00000000000E+00 0. -1.
         21   -1    0    0  501  503 -0.00000000000E+00 -0.00000000000E+00 -0.80119448032E+03  0.80119448032E+03  0.00000000000E+00 0.  1.
    9000005    1    1    2  501    0  0.29085193626E+03  0.16718444340E+03 -0.53207623906E+03  0.74541975498E+03  0.40000000000E+03 0.  1.
   -9000005    1    1    2    0  502 -0.29085193626E+03 -0.16718444340E+03  0.25699240115E+03  0.58188536774E+03  0.40000000000E+03 0. -1.
<mgrwt>
<rscale>  2 0.52205889E+03</rscale>
<asrwt>0</asrwt>
<pdfrwt beam="1">  1       21 0.80940098E-01 0.52205889E+03</pdfrwt>
<pdfrwt beam="2">  1       21 0.12326069E+00 0.52205889E+03</pdfrwt>
<totfact> 0.53813714E+02</totfact>
</mgrwt>
</event>
<event>
 4    1  0.4840996E-002  0.5209978E+03  0.7818608E-02  0.1008439E+00
         21   -1    0    0  501  502  0.00000000000E+00  0.00000000000E+00  0.58975219691E+03  0.58975219691E+03  0.00000000000E+00 0. -1.
         21   -1    0    0  502  503 -0.00000000000E+00 -0.00000000000E+00 -0.10727674867E+04  0.10727674867E+04  0.00000000000E+00 0. -1.
    9000005    1    1    2  501    0 -0.32459956368E+03  0.77934635438E+02  0.38660870415E+03  0.64877189694E+03  0.40000000000E+03 0. -1.
   -9000005    1    1    2    0  503  0.32459956368E+03 -0.77934635438E+02 -0.86962399397E+03  0.10137477867E+04  0.40000000000E+03 0. -1.
<mgrwt>
<rscale>  2 0.52099778E+03</rscale>
<asrwt>0</asrwt>
<pdfrwt beam="1">  1       21 0.90731107E-01 0.52099778E+03</pdfrwt>
<pdfrwt beam="2">  1       21 0.16504115E+00 0.52099778E+03</pdfrwt>
<totfact> 0.18765064E+02</totfact>
</mgrwt>
</event>
<event>
 4    1  0.4840996E-002  0.4657012E+03  0.7818608E-02  0.1023141E+00
         21   -1    0    0  501  502  0.00000000000E+00  0.00000000000E+00  0.10543651300E+03  0.10543651300E+03  0.00000000000E+00 0.  1.
         21   -1    0    0  502  503 -0.00000000000E+00 -0.00000000000E+00 -0.28258774122E+04  0.28258774122E+04  0.00000000000E+00 0.  1.
    9000005    1    1    2  501    0  0.12353560442E+03  0.20400145742E+03 -0.59568375338E+03  0.75611955022E+03  0.40000000000E+03 0.  1.
   -9000005    1    1    2    0  503 -0.12353560442E+03 -0.20400145742E+03 -0.21247571458E+04  0.21751943750E+04  0.40000000000E+03 0.  1.
<mgrwt>
<rscale>  2 0.46570123E+03</rscale>
<asrwt>0</asrwt>
<pdfrwt beam="1">  1       21 0.16221002E-01 0.46570123E+03</pdfrwt>
<pdfrwt beam="2">  1       21 0.43475037E+00 0.46570123E+03</pdfrwt>
<totfact> 0.13286422E+02</totfact>
</mgrwt>
</event>
<event>
 4    1  0.4840996E-002  0.6085372E+03  0.7818608E-02  0.9887851E-01
         21   -1    0    0  501  502  0.00000000000E+00  0.00000000000E+00  0.51284057633E+03  0.51284057633E+03  0.00000000000E+00 0.  1.
         21   -1    0    0  502  503 -0.00000000000E+00 -0.00000000000E+00 -0.87353547022E+03  0.87353547022E+03  0.00000000000E+00 0. -1.
    9000005    1    1    2  501    0 -0.45842209732E+03  0.12911606787E+02  0.10827997371E+03  0.61809552790E+03  0.40000000000E+03 0.  1.
   -9000005    1    1    2    0  503  0.45842209732E+03 -0.12911606787E+02 -0.46897486759E+03  0.76828051865E+03  0.40000000000E+03 0. -1.
<mgrwt>
<rscale>  2 0.60853720E+03</rscale>
<asrwt>0</asrwt>
<pdfrwt beam="1">  1       21 0.78898550E-01 0.60853720E+03</pdfrwt>
<pdfrwt beam="2">  1       21 0.13439007E+00 0.60853720E+03</pdfrwt>
<totfact> 0.44194253E+02</totfact>
</mgrwt>
</event>
<event>
 4    1  0.4840996E-002  0.4143542E+03  0.7818608E-02  0.1038920E+00
         21   -1    0    0  501  502  0.00000000000E+00  0.00000000000E+00  0.11052667913E+03  0.11052667913E+03  0.00000000000E+00 0.  1.
         21   -1    0    0  502  503 -0.00000000000E+00 -0.00000000000E+00 -0.20989919886E+04  0.20989919886E+04  0.00000000000E+00 0.  1.
    9000005    1    1    2  501    0  0.62117590303E+02  0.88491638116E+02 -0.15574892501E+04  0.16116643972E+04  0.40000000000E+03 0.  1.
   -9000005    1    1    2    0  503 -0.62117590303E+02 -0.88491638116E+02 -0.43097605937E+03  0.59785427053E+03  0.40000000000E+03 0.  1.
<mgrwt>
<rscale>  2 0.41435415E+03</rscale>
<asrwt>0</asrwt>
<pdfrwt beam="1">  1       21 0.17004105E-01 0.41435415E+03</pdfrwt>
<pdfrwt beam="2">  1       21 0.32292183E+00 0.41435415E+03</pdfrwt>
<totfact> 0.63710912E+02</totfact>
</mgrwt>
</event>
<event>
 4    1  0.4840996E-002  0.5310019E+03  0.7818608E-02  0.1005989E+00
         21   -1    0    0  503  502  0.00000000000E+00  0.00000000000E+00  0.25408262871E+03  0.25408262871E+03  0.00000000000E+00 0.  1.
         21   -1    0    0  501  503 -0.00000000000E+00 -0.00000000000E+00 -0.23145111359E+04  0.23145111359E+04  0.00000000000E+00 0. -1.
    9000005    1    1    2  501    0 -0.28541483339E+03 -0.20124968720E+03 -0.19568091571E+04  0.20275761739E+04  0.40000000000E+03 0. -1.
   -9000005    1    1    2    0  502  0.28541483339E+03  0.20124968720E+03 -0.10361935007E+03  0.54101759068E+03  0.40000000000E+03 0.  1.
<mgrwt>
<rscale>  2 0.53100194E+03</rscale>
<asrwt>0</asrwt>
<pdfrwt beam="1">  1       21 0.39089636E-01 0.53100194E+03</pdfrwt>
<pdfrwt beam="2">  1       21 0.35607863E+00 0.53100194E+03</pdfrwt>
<totfact> 0.72981469E+01</totfact>
</mgrwt>
</event>
<event>
 4    1  0.4840996E-002  0.4678387E+03  0.7818608E-02  0.1022532E+00
         21   -1    0    0  501  502  0.00000000000E+00  0.00000000000E+00  0.10784493385E+03  0.10784493385E+03  0.00000000000E+00 0.  1.
         21   -1    0    0  502  503 -0.00000000000E+00 -0.00000000000E+00 -0.21241154004E+04  0.21241154004E+04  0.00000000000E+00 0.  1.
    9000005    1    1    2  501    0  0.13371303123E+03  0.20246942244E+03 -0.77262427185E+03  0.90322826971E+03  0.40000000000E+03 0.  1.
   -9000005    1    1    2    0  503 -0.13371303123E+03 -0.20246942244E+03 -0.12436461947E+04  0.13287320645E+04  0.40000000000E+03 0.  1.
<mgrwt>
<rscale>  2 0.46783869E+03</rscale>
<asrwt>0</asrwt>
<pdfrwt beam="1">  1       21 0.16591530E-01 0.46783869E+03</pdfrwt>
<pdfrwt beam="2">  1       21 0.32678695E+00 0.46783869E+03</pdfrwt>
<totfact> 0.61256456E+02</totfact>
</mgrwt>
</event>
<event>
 4    1  0.4840996E-002  0.4489135E+03  0.7818608E-02  0.1028047E+00
         21   -1    0    0  503  502  0.00000000000E+00  0.00000000000E+00  0.43954476850E+03  0.43954476850E+03  0.00000000000E+00 0. -1.
         21   -1    0    0  501  503 -0.00000000000E+00 -0.00000000000E+00 -0.46229400126E+03  0.46229400126E+03  0.00000000000E+00 0.  1.
    9000005    1    1    2  501    0 -0.11569062903E+03 -0.16774689405E+03 -0.52321344335E+02  0.45195228197E+03  0.40000000000E+03 0.  1.
   -9000005    1    1    2    0  502  0.11569062903E+03  0.16774689405E+03  0.29572111574E+02  0.44988648778E+03  0.40000000000E+03 0.  1.
<mgrwt>
<rscale>  2 0.44891351E+03</rscale>
<asrwt>0</asrwt>
<pdfrwt beam="1">  1       21 0.67622272E-01 0.44891351E+03</pdfrwt>
<pdfrwt beam="2">  1       21 0.71122155E-01 0.44891351E+03</pdfrwt>
<totfact> 0.31183892E+03</totfact>
</mgrwt>
</event>
<event>
 4    1  0.4840996E-002  0.4278693E+03  0.7818608E-02  0.1034535E+00
         21   -1    0    0  501  502  0.00000000000E+00  0.00000000000E+00  0.11828155377E+04  0.11828155377E+04  0.00000000000E+00 0. -1.
         21   -1    0    0  502  503 -0.00000000000E+00 -0.00000000000E+00 -0.16379827357E+03  0.16379827357E+03  0.00000000000E+00 0. -1.
    9000005    1    1    2  501    0  0.72088948867E+02  0.13369858908E+03  0.35149202285E+03  0.55373167816E+03  0.40000000000E+03 0. -1.
   -9000005    1    1    2    0  503 -0.72088948867E+02 -0.13369858908E+03  0.66752524131E+03  0.79288213315E+03  0.40000000000E+03 0. -1.
<mgrwt>
<rscale>  2 0.42786929E+03</rscale>
<asrwt>0</asrwt>
<pdfrwt beam="1">  1       21 0.18197162E+00 0.42786929E+03</pdfrwt>
<pdfrwt beam="2">  1       21 0.25199735E-01 0.42786929E+03</pdfrwt>
<totfact> 0.22624906E+03</totfact>
</mgrwt>
</event>
<event>
 4    1  0.4840996E-002  0.6120092E+03  0.7818608E-02  0.9880799E-01
         21   -1    0    0  501  502  0.00000000000E+00  0.00000000000E+00  0.49015079182E+03  0.49015079182E+03  0.00000000000E+00 0.  1.
         21   -1    0    0  502  503 -0.00000000000E+00 -0.00000000000E+00 -0.11744213220E+04  0.11744213220E+04  0.00000000000E+00 0.  1.
    9000005    1    1    2  501    0 -0.38981085203E+03  0.25020541611E+03  0.14977874516E+03  0.63007056995E+03  0.40000000000E+03 0.  1.
   -9000005    1    1    2    0  503  0.38981085203E+03 -0.25020541611E+03 -0.83404927536E+03  0.10345015439E+04  0.40000000000E+03 0.  1.
<mgrwt>
<rscale>  2 0.61200919E+03</rscale>
<asrwt>0</asrwt>
<pdfrwt beam="1">  1       21 0.75407815E-01 0.61200919E+03</pdfrwt>
<pdfrwt beam="2">  1       21 0.18068020E+00 0.61200919E+03</pdfrwt>
<totfact> 0.21451163E+02</totfact>
</mgrwt>
</event>
<event>
 4    1  0.4840996E-002  0.5026511E+03  0.7818608E-02  0.1013089E+00
         21   -1    0    0  503  502  0.00000000000E+00  0.00000000000E+00  0.28371173960E+03  0.28371173960E+03  0.00000000000E+00 0.  1.
         21   -1    0    0  501  503 -0.00000000000E+00 -0.00000000000E+00 -0.90127423704E+03  0.90127423704E+03  0.00000000000E+00 0.  1.
    9000005    1    1    2  501    0 -0.27845318874E+03  0.12297145643E+03 -0.24413653715E+03  0.55880301197E+03  0.40000000000E+03 0.  1.
   -9000005    1    1    2    0  502  0.27845318874E+03 -0.12297145643E+03 -0.37342596029E+03  0.62618296466E+03  0.40000000000E+03 0.  1.
<mgrwt>
<rscale>  2 0.50265113E+03</rscale>
<asrwt>0</asrwt>
<pdfrwt beam="1">  1       21 0.43647960E-01 0.50265113E+03</pdfrwt>
<pdfrwt beam="2">  1       21 0.13865757E+00 0.50265113E+03</pdfrwt>
<totfact> 0.15491532E+03</totfact>
</mgrwt>
</event>
<event>
 4    1  0.4840996E-002  0.4204911E+03  0.7818608E-02  0.1036907E+00
         21   -1    0    0  503  502  0.00000000000E+00  0.00000000000E+00  0.18784637939E+03  0.18784637939E+03  0.00000000000E+00 0. -1.
         21   -1    0    0  501  503 -0.00000000000E+00 -0.00000000000E+00 -0.14330047131E+04  0.14330047131E+04  0.00000000000E+00 0. -1.
    9000005    1    1    2  501    0 -0.78295801513E+02  0.10335647913E+03 -0.10973215011E+04  0.11751286190E+04  0.40000000000E+03 0. -1.
   -9000005    1    1    2    0  502  0.78295801513E+02 -0.10335647913E+03 -0.14783683258E+03  0.44572247350E+03  0.40000000000E+03 0. -1.
<mgrwt>
<rscale>  2 0.42049113E+03</rscale>
<asrwt>0</asrwt>
<pdfrwt beam="1">  1       21 0.28899443E-01 0.42049113E+03</pdfrwt>
<pdfrwt beam="2">  1       21 0.22046226E+00 0.42049113E+03</pdfrwt>
<totfact> 0.96280311E+02</totfact>
</mgrwt>
</event>
<event>
 4    1  0.4840996E-002  0.4011110E+03  0.7818608E-02  0.1043396E+00
         21   -1    0    0  503  502  0.00000000000E+00  0.00000000000E+00  0.14603740518E+03  0.14603740518E+03  0.00000000000E+00 0.  1.
         21   -1    0    0  501  503 -0.00000000000E+00 -0.00000000000E+00 -0.20137769766E+04  0.20137769766E+04  0.00000000000E+00 0.  1.
    9000005    1    1    2  501    0 -0.23590326317E+02 -0.18262135958E+02 -0.16606373159E+04  0.17083929010E+04  0.40000000000E+03 0.  1.
   -9000005    1    1    2    0  502  0.23590326317E+02  0.18262135958E+02 -0.20710225554E+03  0.45142148083E+03  0.40000000000E+03 0.  1.
<mgrwt>
<rscale>  2 0.40111097E+03</rscale>
<asrwt>0</asrwt>
<pdfrwt beam="1">  1       21 0.22467294E-01 0.40111097E+03</pdfrwt>
<pdfrwt beam="2">  1       21 0.30981184E+00 0.40111097E+03</pdfrwt>
<totfact> 0.45427949E+02</totfact>
</mgrwt>
</event>
<event>
 4    1  0.4840996E-002  0.5046550E+03  0.7818608E-02  0.1012571E+00
         21   -1    0    0  503  502  0.00000000000E+00  0.00000000000E+00  0.39164733069E+03  0.39164733069E+03  0.00000000000E+00 0.  1.
         21   -1    0    0  501  503 -0.00000000000E+00 -0.00000000000E+00 -0.66996389351E+03  0.66996389351E+03  0.00000000000E+00 0.  1.
    9000005    1    1    2  501    0 -0.29390594578E+03 -0.91082273626E+02 -0.23016441213E+03  0.55466417060E+03  0.40000000000E+03 0.  1.
   -9000005    1    1    2    0  502  0.29390594578E+03  0.91082273626E+02 -0.48152150695E+02  0.50694705360E+03  0.40000000000E+03 0.  1.
<mgrwt>
<rscale>  2 0.50465502E+03</rscale>
<asrwt>0</asrwt>
<pdfrwt beam="1">  1       21 0.60253436E-01 0.50465502E+03</pdfrwt>
<pdfrwt beam="2">  1       21 0.10307137E+00 0.50465502E+03</pdfrwt>
<totfact> 0.16519955E+03</totfact>
</mgrwt>
</event>
<event>
 4    1  0.4840996E-002  0.6934517E+03  0.7818608E-02  0.9728497E-01
         21   -1    0    0  503  502  0.00000000000E+00  0.00000000000E+00  0.90621966957E+03  0.90621966957E+03  0.00000000000E+00 0. -1.
         21   -1    0    0  501  503 -0.00000000000E+00 -0.00000000000E+00 -0.85358060146E+03  0.85358060146E+03  0.00000000000E+00 0. -1.
    9000005    1    1    2  501    0  0.47326213820E+03 -0.31128483260E+03 -0.51489975008E+03  0.86371120816E+03  0.40000000000E+03 0. -1.
   -9000005    1    1    2    0  502 -0.47326213820E+03  0.31128483260E+03  0.56753881819E+03  0.89608906288E+03  0.40000000000E+03 0. -1.
<mgrwt>
<rscale>  2 0.69345173E+03</rscale>
<asrwt>0</asrwt>
<pdfrwt beam="1">  1       21 0.13941841E+00 0.69345173E+03</pdfrwt>
<pdfrwt beam="2">  1       21 0.13132009E+00 0.69345173E+03</pdfrwt>
<totfact> 0.11083967E+02</totfact>
</mgrwt>
</event>
<event>
 4    1  0.4840996E-002  0.4850856E+03  0.7818608E-02  0.1017747E+00
         21   -1    0    0  503  502  0.00000000000E+00  0.00000000000E+00  0.12907735395E+03  0.12907735395E+03  0.00000000000E+00 0. -1.
         21   -1    0    0  501  503 -0.00000000000E+00 -0.00000000000E+00 -0.23498801636E+04  0.23498801636E+04  0.00000000000E+00 0. -1.
    9000005    1    1    2  501    0 -0.13938918582E+03 -0.23638665401E+03 -0.16973123679E+04  0.17652697442E+04  0.40000000000E+03 0. -1.
   -9000005    1    1    2    0  502  0.13938918582E+03  0.23638665401E+03 -0.52349044170E+03  0.71368777338E+03  0.40000000000E+03 0. -1.
<mgrwt>
<rscale>  2 0.48508555E+03</rscale>
<asrwt>0</asrwt>
<pdfrwt beam="1">  1       21 0.19858053E-01 0.48508555E+03</pdfrwt>
<pdfrwt beam="2">  1       21 0.36152005E+00 0.48508555E+03</pdfrwt>
<totfact> 0.26454992E+02</totfact>
</mgrwt>
</event>
<event>
 4    1  0.4840996E-002  0.4782685E+03  0.7818608E-02  0.1019612E+00
         21   -1    0    0  503  502  0.00000000000E+00  0.00000000000E+00  0.73428481087E+03  0.73428481087E+03  0.00000000000E+00 0.  1.
         21   -1    0    0  501  503 -0.00000000000E+00 -0.00000000000E+00 -0.31853897816E+03  0.31853897816E+03  0.00000000000E+00 0.  1.
    9000005    1    1    2  501    0 -0.21757293222E+03 -0.14629674949E+03  0.12970356092E+03  0.49554387643E+03  0.40000000000E+03 0.  1.
   -9000005    1    1    2    0  502  0.21757293222E+03  0.14629674949E+03  0.28604227178E+03  0.55727991260E+03  0.40000000000E+03 0.  1.
<mgrwt>
<rscale>  2 0.47826846E+03</rscale>
<asrwt>0</asrwt>
<pdfrwt beam="1">  1       21 0.11296689E+00 0.47826846E+03</pdfrwt>
<pdfrwt beam="2">  1       21 0.49005997E-01 0.47826846E+03</pdfrwt>
<totfact> 0.20755021E+03</totfact>
</mgrwt>
</event>
<event>
 4    1  0.4840996E-002  0.5173514E+03  0.7818608E-02  0.1009347E+00
         21   -1    0    0  503  502  0.00000000000E+00  0.00000000000E+00  0.10871687872E+04  0.10871687872E+04  0.00000000000E+00 0. -1.
         21   -1    0    0  501  503 -0.00000000000E+00 -0.00000000000E+00 -0.32431215286E+03  0.32431215286E+03  0.00000000000E+00 0.  1.
    9000005    1    1    2  501    0 -0.23392761215E+03 -0.23006600898E+03  0.35055067582E+02  0.51853770738E+03  0.40000000000E+03 0.  1.
   -9000005    1    1    2    0  502  0.23392761215E+03  0.23006600898E+03  0.72780156672E+03  0.89294323265E+03  0.40000000000E+03 0. -1.
<mgrwt>
<rscale>  2 0.51735142E+03</rscale>
<asrwt>0</asrwt>
<pdfrwt beam="1">  1       21 0.16725673E+00 0.51735142E+03</pdfrwt>
<pdfrwt beam="2">  1       21 0.49894178E-01 0.51735142E+03</pdfrwt>
<totfact> 0.69386898E+02</totfact>
</mgrwt>
</event>
<event>
 4    1  0.4840996E-002  0.4726187E+03  0.7818608E-02  0.1021184E+00
         21   -1    0    0  501  502  0.00000000000E+00  0.00000000000E+00  0.30388535180E+03  0.30388535180E+03  0.00000000000E+00 0. -1.
         21   -1    0    0  502  503 -0.00000000000E+00 -0.00000000000E+00 -0.99423584514E+03  0.99423584514E+03  0.00000000000E+00 0. -1.
    9000005    1    1    2  501    0 -0.97526418482E+02 -0.23207110367E+03 -0.13774755295E+02  0.47281935593E+03  0.40000000000E+03 0. -1.
   -9000005    1    1    2    0  503  0.97526418482E+02  0.23207110367E+03 -0.67657573804E+03  0.82530184101E+03  0.40000000000E+03 0. -1.
<mgrwt>
<rscale>  2 0.47261866E+03</rscale>
<asrwt>0</asrwt>
<pdfrwt beam="1">  1       21 0.46751593E-01 0.47261866E+03</pdfrwt>
<pdfrwt beam="2">  1       21 0.15295936E+00 0.47261866E+03</pdfrwt>
<totfact> 0.10408105E+03</totfact>
</mgrwt>
</event>
<event>
 4    1  0.4840996E-002  0.4827985E+03  0.7818608E-02  0.1018369E+00
         21   -1    0    0  501  502  0.00000000000E+00  0.00000000000E+00  0.52883274563E+03  0.52883274563E+03  0.00000000000E+00 0. -1.
         21   -1    0    0  502  503 -0.00000000000E+00 -0.00000000000E+00 -0.14859706578E+04  0.14859706578E+04  0.00000000000E+00 0.  1.
    9000005    1    1    2  501    0 -0.25276819681E+03 -0.95930487515E+02  0.36631503665E+03  0.60603723139E+03  0.40000000000E+03 0. -1.
   -9000005    1    1    2    0  503  0.25276819681E+03  0.95930487515E+02 -0.13234529488E+04  0.14087661721E+04  0.40000000000E+03 0.  1.
<mgrwt>
<rscale>  2 0.48279853E+03</rscale>
<asrwt>0</asrwt>
<pdfrwt beam="1">  1       21 0.81358886E-01 0.48279853E+03</pdfrwt>
<pdfrwt beam="2">  1       21 0.22861087E+00 0.48279853E+03</pdfrwt>
<totfact> 0.91385738E+01</totfact>
</mgrwt>
</event>
<event>
 4    1  0.4840996E-002  0.4259546E+03  0.7818608E-02  0.1035146E+00
         21   -1    0    0  501  502  0.00000000000E+00  0.00000000000E+00  0.63095039472E+03  0.63095039472E+03  0.00000000000E+00 0. -1.
         21   -1    0    0  502  503 -0.00000000000E+00 -0.00000000000E+00 -0.29670740988E+03  0.29670740988E+03  0.00000000000E+00 0. -1.
    9000005    1    1    2  501    0  0.13974348379E+03  0.43693315088E+02  0.24855358367E+03  0.49316957631E+03  0.40000000000E+03 0. -1.
   -9000005    1    1    2    0  503 -0.13974348379E+03 -0.43693315088E+02  0.85689401172E+02  0.43448822829E+03  0.40000000000E+03 0. -1.
<mgrwt>
<rscale>  2 0.42595463E+03</rscale>
<asrwt>0</asrwt>
<pdfrwt beam="1">  1       21 0.97069291E-01 0.42595463E+03</pdfrwt>
<pdfrwt beam="2">  1       21 0.45647294E-01 0.42595463E+03</pdfrwt>
<totfact> 0.35665153E+03</totfact>
</mgrwt>
</event>
<event>
 4    1  0.4840996E-002  0.4612110E+03  0.7818608E-02  0.1024431E+00
         21   -1    0    0  501  502  0.00000000000E+00  0.00000000000E+00  0.29521555290E+03  0.29521555290E+03  0.00000000000E+00 0.  1.
         21   -1    0    0  502  503 -0.00000000000E+00 -0.00000000000E+00 -0.14190899375E+04  0.14190899375E+04  0.00000000000E+00 0.  1.
    9000005    1    1    2  501    0 -0.22463946519E+03 -0.47462813963E+02  0.39445524901E+02  0.46289475852E+03  0.40000000000E+03 0.  1.
   -9000005    1    1    2    0  503  0.22463946519E+03  0.47462813963E+02 -0.11633199095E+04  0.12514107319E+04  0.40000000000E+03 0.  1.
<mgrwt>
<rscale>  2 0.46121102E+03</rscale>
<asrwt>0</asrwt>
<pdfrwt beam="1">  1       21 0.45417777E-01 0.46121102E+03</pdfrwt>
<pdfrwt beam="2">  1       21 0.21832153E+00 0.46121102E+03</pdfrwt>
<totfact> 0.38813282E+02</totfact>
</mgrwt>
</event>
<event>
 4    1  0.4840996E-002  0.4818349E+03  0.7818608E-02  0.1018632E+00
         21   -1    0    0  503  502  0.00000000000E+00  0.00000000000E+00  0.30494099507E+03  0.30494099507E+03  0.00000000000E+00 0.  1.
         21   -1    0    0  501  503 -0.00000000000E+00 -0.00000000000E+00 -0.10207724944E+04  0.10207724944E+04  0.00000000000E+00 0.  1.
    9000005    1    1    2  501    0 -0.74605754816E+02  0.25806746197E+03 -0.69208346255E+03  0.84329375233E+03  0.40000000000E+03 0.  1.
   -9000005    1    1    2    0  502  0.74605754816E+02 -0.25806746197E+03 -0.23748036832E+02  0.48241973719E+03  0.40000000000E+03 0.  1.
<mgrwt>
<rscale>  2 0.48183486E+03</rscale>
<asrwt>0</asrwt>
<pdfrwt beam="1">  1       21 0.46913998E-01 0.48183486E+03</pdfrwt>
<pdfrwt beam="2">  1       21 0.15704193E+00 0.48183486E+03</pdfrwt>
<totfact> 0.95728187E+02</totfact>
</mgrwt>
</event>
<event>
 4    1  0.4840996E-002  0.4030355E+03  0.7818608E-02  0.1042734E+00
         21   -1    0    0  501  502  0.00000000000E+00  0.00000000000E+00  0.81147600563E+03  0.81147600563E+03  0.00000000000E+00 0. -1.
         21   -1    0    0  502  503 -0.00000000000E+00 -0.00000000000E+00 -0.26877283280E+03  0.26877283280E+03  0.00000000000E+00 0. -1.
    9000005    1    1    2  501    0  0.47678564965E+02  0.12820054043E+02  0.54422096673E+03  0.67721049901E+03  0.40000000000E+03 0. -1.
   -9000005    1    1    2    0  503 -0.47678564965E+02 -0.12820054043E+02 -0.15177938905E+01  0.40303833942E+03  0.40000000000E+03 0. -1.
<mgrwt>
<rscale>  2 0.40303548E+03</rscale>
<asrwt>0</asrwt>
<pdfrwt beam="1">  1       21 0.12484246E+00 0.40303548E+03</pdfrwt>
<pdfrwt beam="2">  1       21 0.41349667E-01 0.40303548E+03</pdfrwt>
<totfact> 0.23685279E+03</totfact>
</mgrwt>
</event>
<event>
 4    1  0.4840996E-002  0.5758899E+03  0.7818608E-02  0.9956729E-01
         21   -1    0    0  501  502  0.00000000000E+00  0.00000000000E+00  0.74288392548E+03  0.74288392548E+03  0.00000000000E+00 0. -1.
         21   -1    0    0  502  503 -0.00000000000E+00 -0.00000000000E+00 -0.54733427380E+03  0.54733427380E+03  0.00000000000E+00 0. -1.
    9000005    1    1    2  501    0 -0.13079511697E+03  0.39311804716E+03  0.37475680484E+03  0.68708938603E+03  0.40000000000E+03 0. -1.
   -9000005    1    1    2    0  503  0.13079511697E+03 -0.39311804716E+03 -0.17920715316E+03  0.60312881325E+03  0.40000000000E+03 0. -1.
<mgrwt>
<rscale>  2 0.57588989E+03</rscale>
<asrwt>0</asrwt>
<pdfrwt beam="1">  1       21 0.11428983E+00 0.57588989E+03</pdfrwt>
<pdfrwt beam="2">  1       21 0.84205273E-01 0.57588989E+03</pdfrwt>
<totfact> 0.58322667E+02</totfact>
</mgrwt>
</event>
<event>
 4    1  0.4840996E-002  0.5034147E+03  0.7818608E-02  0.1012891E+00
         21   -1    0    0  503  502  0.00000000000E+00  0.00000000000E+00  0.49416041893E+03  0.49416041893E+03  0.00000000000E+00 0.  1.
         21   -1    0    0  501  503 -0.00000000000E+00 -0.00000000000E+00 -0.76755409769E+03  0.76755409769E+03  0.00000000000E+00 0.  1.
    9000005    1    1    2  501    0 -0.41465397003E+02 -0.30283167688E+03 -0.50011035255E+03  0.70960324717E+03  0.40000000000E+03 0.  1.
   -9000005    1    1    2    0  502  0.41465397003E+02  0.30283167688E+03  0.22671667379E+03  0.55211126944E+03  0.40000000000E+03 0.  1.
<mgrwt>
<rscale>  2 0.50341474E+03</rscale>
<asrwt>0</asrwt>
<pdfrwt beam="1">  1       21 0.76024680E-01 0.50341474E+03</pdfrwt>
<pdfrwt beam="2">  1       21 0.11808525E+00 0.50341474E+03</pdfrwt>
<totfact> 0.69896397E+02</totfact>
</mgrwt>
</event>
<event>
 4    1  0.4840996E-002  0.6050309E+03  0.7818608E-02  0.9895023E-01
         21   -1    0    0  501  502  0.00000000000E+00  0.00000000000E+00  0.15610325853E+03  0.15610325853E+03  0.00000000000E+00 0.  1.
         21   -1    0    0  502  503 -0.00000000000E+00 -0.00000000000E+00 -0.23960318424E+04  0.23960318424E+04  0.00000000000E+00 0. -1.
    9000005    1    1    2  501    0  0.39048493412E+03  0.23148191123E+03 -0.93373754330E+03  0.11126221995E+04  0.40000000000E+03 0. -1.
   -9000005    1    1    2    0  503 -0.39048493412E+03 -0.23148191123E+03 -0.13061910406E+04  0.14395129015E+04  0.40000000000E+03 0.  1.
<mgrwt>
<rscale>  2 0.60503087E+03</rscale>
<asrwt>0</asrwt>
<pdfrwt beam="1">  1       21 0.24015887E-01 0.60503087E+03</pdfrwt>
<pdfrwt beam="2">  1       21 0.36862027E+00 0.60503087E+03</pdfrwt>
<totfact> 0.15537322E+02</totfact>
</mgrwt>
</event>
<event>
 4    1  0.4840996E-002  0.4253462E+03  0.7818608E-02  0.1035340E+00
         21   -1    0    0  503  502  0.00000000000E+00  0.00000000000E+00  0.60189105518E+03  0.60189105518E+03  0.00000000000E+00 0.  1.
         21   -1    0    0  501  503 -0.00000000000E+00 -0.00000000000E+00 -0.41280416956E+03  0.41280416956E+03  0.00000000000E+00 0.  1.
    9000005    1    1    2  501    0  0.36691971835E+02 -0.13990393736E+03 -0.16998181220E+03  0.45805374026E+03  0.40000000000E+03 0.  1.
   -9000005    1    1    2    0  502 -0.36691971835E+02  0.13990393736E+03  0.35906869782E+03  0.55664148448E+03  0.40000000000E+03 0.  1.
<mgrwt>
<rscale>  2 0.42534623E+03</rscale>
<asrwt>0</asrwt>
<pdfrwt beam="1">  1       21 0.92598624E-01 0.42534623E+03</pdfrwt>
<pdfrwt beam="2">  1       21 0.63508334E-01 0.42534623E+03</pdfrwt>
<totfact> 0.19628497E+03</totfact>
</mgrwt>
</event>
<event>
 4    1  0.4840996E-002  0.4154510E+03  0.7818608E-02  0.1038557E+00
         21   -1    0    0  503  502  0.00000000000E+00  0.00000000000E+00  0.34522799690E+03  0.34522799690E+03  0.00000000000E+00 0.  1.
         21   -1    0    0  501  503 -0.00000000000E+00 -0.00000000000E+00 -0.53561601163E+03  0.53561601163E+03  0.00000000000E+00 0.  1.
    9000005    1    1    2  501    0 -0.10843176502E+03  0.29018870070E+02 -0.20883107678E+03  0.46498382887E+03  0.40000000000E+03 0.  1.
   -9000005    1    1    2    0  502  0.10843176502E+03 -0.29018870070E+02  0.18443062039E+02  0.41586017966E+03  0.40000000000E+03 0.  1.
<mgrwt>
<rscale>  2 0.41545101E+03</rscale>
<asrwt>0</asrwt>
<pdfrwt beam="1">  1       21 0.53112000E-01 0.41545101E+03</pdfrwt>
<pdfrwt beam="2">  1       21 0.82402463E-01 0.41545101E+03</pdfrwt>
<totfact> 0.38240992E+03</totfact>
</mgrwt>
</event>
<event>
 4    1  0.4840996E-002  0.4650182E+03  0.7818608E-02  0.1023336E+00
         21   -1    0    0  501  502  0.00000000000E+00  0.00000000000E+00  0.24456968944E+04  0.24456968944E+04  0.00000000000E+00 0.  1.
         21   -1    0    0  502  503 -0.00000000000E+00 -0.00000000000E+00 -0.89379048797E+02  0.89379048797E+02  0.00000000000E+00 0.  1.
    9000005    1    1    2  501    0  0.16999138142E+03 -0.16536288121E+03  0.13096422231E+04  0.13897498713E+04  0.40000000000E+03 0.  1.
   -9000005    1    1    2    0  503 -0.16999138142E+03  0.16536288121E+03  0.10466756225E+04  0.11453260719E+04  0.40000000000E+03 0.  1.
<mgrwt>
<rscale>  2 0.46501823E+03</rscale>
<asrwt>0</asrwt>
<pdfrwt beam="1">  1       21 0.37626101E+00 0.46501823E+03</pdfrwt>
<pdfrwt beam="2">  1       21 0.13750625E-01 0.46501823E+03</pdfrwt>
<totfact> 0.43125072E+02</totfact>
</mgrwt>
</event>
<event>
 4    1  0.4840996E-002  0.4027938E+03  0.7818608E-02  0.1042817E+00
         21   -1    0    0  503  502  0.00000000000E+00  0.00000000000E+00  0.42632751270E+03  0.42632751270E+03  0.00000000000E+00 0. -1.
         21   -1    0    0  501  503 -0.00000000000E+00 -0.00000000000E+00 -0.39765117905E+03  0.39765117905E+03  0.00000000000E+00 0. -1.
    9000005    1    1    2  501    0 -0.46227261094E+01 -0.47132508370E+02 -0.71076302684E+02  0.40901672795E+03  0.40000000000E+03 0. -1.
   -9000005    1    1    2    0  502  0.46227261094E+01  0.47132508370E+02  0.99752636334E+02  0.41496196380E+03  0.40000000000E+03 0. -1.
<mgrwt>
<rscale>  2 0.40279380E+03</rscale>
<asrwt>0</asrwt>
<pdfrwt beam="1">  1       21 0.65588848E-01 0.40279380E+03</pdfrwt>
<pdfrwt beam="2">  1       21 0.61177104E-01 0.40279380E+03</pdfrwt>
<totfact> 0.47455888E+03</totfact>
</mgrwt>
</event>
<event>
 4    1  0.4840996E-002  0.4272540E+03  0.7818608E-02  0.1034731E+00
         21   -1    0    0  503  502  0.00000000000E+00  0.00000000000E+00  0.24956469211E+03  0.24956469211E+03  0.00000000000E+00 0.  1.
         21   -1    0    0  501  503 -0.00000000000E+00 -0.00000000000E+00 -0.78360494922E+03  0.78360494922E+03  0.00000000000E+00 0.  1.
    9000005    1    1    2  501    0 -0.10021666217E+03 -0.11181512192E+03 -0.13375730677E+03  0.44770192984E+03  0.40000000000E+03 0.  1.
   -9000005    1    1    2    0  502  0.10021666217E+03  0.11181512192E+03 -0.40028295035E+03  0.58546771150E+03  0.40000000000E+03 0.  1.
<mgrwt>
<rscale>  2 0.42725402E+03</rscale>
<asrwt>0</asrwt>
<pdfrwt beam="1">  1       21 0.38394568E-01 0.42725402E+03</pdfrwt>
<pdfrwt beam="2">  1       21 0.12055461E+00 0.42725402E+03</pdfrwt>
<totfact> 0.29868084E+03</totfact>
</mgrwt>
</event>
<event>
 4    1  0.4840996E-002  0.4223989E+03  0.7818608E-02  0.1036288E+00
         21   -1    0    0  503  502  0.00000000000E+00  0.00000000000E+00  0.26913039864E+03  0.26913039864E+03  0.00000000000E+00 0. -1.
         21   -1    0    0  501  503 -0.00000000000E+00 -0.00000000000E+00 -0.85327296492E+03  0.85327296492E+03  0.00000000000E+00 0. -1.
    9000005    1    1    2  501    0 -0.13536873894E+03  0.98057561220E+01 -0.55711466387E+03  0.69914061321E+03  0.40000000000E+03 0.  1.
   -9000005    1    1    2    0  502  0.13536873894E+03 -0.98057561220E+01 -0.27027902409E+02  0.42326275036E+03  0.40000000000E+03 0.  1.
<mgrwt>
<rscale>  2 0.42239892E+03</rscale>
<asrwt>0</asrwt>
<pdfrwt beam="1">  1       21 0.41404677E-01 0.42239892E+03</pdfrwt>
<pdfrwt beam="2">  1       21 0.13127276E+00 0.42239892E+03</pdfrwt>
<totfact> 0.20583602E+03</totfact>
</mgrwt>
</event>
<event>
 4    1  0.4840996E-002  0.4942637E+03  0.7818608E-02  0.1015287E+00
         21   -1    0    0  503  502  0.00000000000E+00  0.00000000000E+00  0.79916834410E+03  0.79916834410E+03  0.00000000000E+00 0.  1.
         21   -1    0    0  501  503 -0.00000000000E+00 -0.00000000000E+00 -0.40621984757E+03  0.40621984757E+03  0.00000000000E+00 0. -1.
    9000005    1    1    2  501    0  0.28498563328E+03 -0.55495665691E+02 -0.10335023836E+03  0.50495331651E+03  0.40000000000E+03 0. -1.
   -9000005    1    1    2    0  502 -0.28498563328E+03  0.55495665691E+02  0.49629873489E+03  0.70043487516E+03  0.40000000000E+03 0.  1.
<mgrwt>
<rscale>  2 0.49426367E+03</rscale>
<asrwt>0</asrwt>
<pdfrwt beam="1">  1       21 0.12294898E+00 0.49426367E+03</pdfrwt>
<pdfrwt beam="2">  1       21 0.62495361E-01 0.49426367E+03</pdfrwt>
<totfact> 0.98346434E+02</totfact>
</mgrwt>
</event>
<event>
 4    1  0.4840996E-002  0.4262259E+03  0.7818608E-02  0.1035059E+00
         21   -1    0    0  503  502  0.00000000000E+00  0.00000000000E+00  0.55362598522E+03  0.55362598522E+03  0.00000000000E+00 0. -1.
         21   -1    0    0  501  503 -0.00000000000E+00 -0.00000000000E+00 -0.42381617703E+03  0.42381617703E+03  0.00000000000E+00 0. -1.
    9000005    1    1    2  501    0 -0.14719317353E+03 -0.16297973756E+01 -0.16729788226E+03  0.45788324711E+03  0.40000000000E+03 0. -1.
   -9000005    1    1    2    0  502  0.14719317353E+03  0.16297973756E+01  0.29710769045E+03  0.51955891514E+03  0.40000000000E+03 0. -1.
<mgrwt>
<rscale>  2 0.42622586E+03</rscale>
<asrwt>0</asrwt>
<pdfrwt beam="1">  1       21 0.85173228E-01 0.42622586E+03</pdfrwt>
<pdfrwt beam="2">  1       21 0.65202489E-01 0.42622586E+03</pdfrwt>
<totfact> 0.22543662E+03</totfact>
</mgrwt>
</event>
<event>
 4    1  0.4840996E-002  0.6208300E+03  0.7818608E-02  0.9863109E-01
         21   -1    0    0  501  502  0.00000000000E+00  0.00000000000E+00  0.60034702649E+03  0.60034702649E+03  0.00000000000E+00 0.  1.
         21   -1    0    0  502  503 -0.00000000000E+00 -0.00000000000E+00 -0.75847391482E+03  0.75847391482E+03  0.00000000000E+00 0.  1.
    9000005    1    1    2  501    0 -0.43597634847E+03  0.18802792137E+03  0.18716487204E+03  0.64842930607E+03  0.40000000000E+03 0.  1.
   -9000005    1    1    2    0  503  0.43597634847E+03 -0.18802792137E+03 -0.34529176038E+03  0.71039163524E+03  0.40000000000E+03 0.  1.
<mgrwt>
<rscale>  2 0.62082999E+03</rscale>
<asrwt>0</asrwt>
<pdfrwt beam="1">  1       21 0.92361082E-01 0.62082999E+03</pdfrwt>
<pdfrwt beam="2">  1       21 0.11668829E+00 0.62082999E+03</pdfrwt>
<totfact> 0.43779219E+02</totfact>
</mgrwt>
</event>
<event>
 4    1  0.4840996E-002  0.4119468E+03  0.7818608E-02  0.1039720E+00
         21   -1    0    0  503  502  0.00000000000E+00  0.00000000000E+00  0.10325878652E+04  0.10325878652E+04  0.00000000000E+00 0. -1.
         21   -1    0    0  501  503 -0.00000000000E+00 -0.00000000000E+00 -0.71249439292E+03  0.71249439292E+03  0.00000000000E+00 0. -1.
    9000005    1    1    2  501    0 -0.10930994028E+02  0.97880802917E+02 -0.60527640994E+03  0.73216095952E+03  0.40000000000E+03 0. -1.
   -9000005    1    1    2    0  502  0.10930994028E+02 -0.97880802917E+02  0.92536988219E+03  0.10129212986E+04  0.40000000000E+03 0. -1.
<mgrwt>
<rscale>  2 0.41194677E+03</rscale>
<asrwt>0</asrwt>
<pdfrwt beam="1">  1       21 0.15885967E+00 0.41194677E+03</pdfrwt>
<pdfrwt beam="2">  1       21 0.10961452E+00 0.41194677E+03</pdfrwt>
<totfact> 0.13947588E+02</totfact>
</mgrwt>
</event>
<event>
 4    1  0.4840996E-002  0.4826234E+03  0.7818608E-02  0.1018417E+00
         21   -1    0    0  503  502  0.00000000000E+00  0.00000000000E+00  0.25460043700E+03  0.25460043700E+03  0.00000000000E+00 0.  1.
         21   -1    0    0  501  503 -0.00000000000E+00 -0.00000000000E+00 -0.15136755889E+04  0.15136755889E+04  0.00000000000E+00 0.  1.
    9000005    1    1    2  501    0  0.26977946469E+03 -0.12014563735E+02 -0.11856313027E+04  0.12800964398E+04  0.40000000000E+03 0.  1.
   -9000005    1    1    2    0  502 -0.26977946469E+03  0.12014563735E+02 -0.73443849252E+02  0.48817958612E+03  0.40000000000E+03 0.  1.
<mgrwt>
<rscale>  2 0.48262336E+03</rscale>
<asrwt>0</asrwt>
<pdfrwt beam="1">  1       21 0.39169298E-01 0.48262336E+03</pdfrwt>
<pdfrwt beam="2">  1       21 0.23287316E+00 0.48262336E+03</pdfrwt>
<totfact> 0.42219043E+02</totfact>
</mgrwt>
</event>
<event>
 4    1  0.4840996E-002  0.4132234E+03  0.7818608E-02  0.1039295E+00
         21   -1    0    0  501  502  0.00000000000E+00  0.00000000000E+00  0.37442218192E+03  0.37442218192E+03  0.00000000000E+00 0.  1.
         21   -1    0    0  502  503 -0.00000000000E+00 -0.00000000000E+00 -0.49001044309E+03  0.49001044309E+03  0.00000000000E+00 0.  1.
    9000005    1    1    2  501    0 -0.93640271402E+02  0.44553968509E+02  0.55998422044E+02  0.41700045541E+03  0.40000000000E+03 0.  1.
   -9000005    1    1    2    0  503  0.93640271402E+02 -0.44553968509E+02 -0.17158668322E+03  0.44743216960E+03  0.40000000000E+03 0.  1.
<mgrwt>
<rscale>  2 0.41322337E+03</rscale>
<asrwt>0</asrwt>
<pdfrwt beam="1">  1       21 0.57603413E-01 0.41322337E+03</pdfrwt>
<pdfrwt beam="2">  1       21 0.75386222E-01 0.41322337E+03</pdfrwt>
<totfact> 0.39417670E+03</totfact>
</mgrwt>
</event>
<event>
 4    1  0.4840996E-002  0.4392940E+03  0.7818608E-02  0.1030964E+00
         21   -1    0    0  503  502  0.00000000000E+00  0.00000000000E+00  0.35008532726E+03  0.35008532726E+03  0.00000000000E+00 0.  1.
         21   -1    0    0  501  503 -0.00000000000E+00 -0.00000000000E+00 -0.69377927619E+03  0.69377927619E+03  0.00000000000E+00 0. -1.
    9000005    1    1    2  501    0 -0.88345476341E+02  0.15866412751E+03  0.64733366276E+02  0.44403787818E+03  0.40000000000E+03 0.  1.
   -9000005    1    1    2    0  502  0.88345476341E+02 -0.15866412751E+03 -0.40842731521E+03  0.59982672528E+03  0.40000000000E+03 0. -1.
<mgrwt>
<rscale>  2 0.43929401E+03</rscale>
<asrwt>0</asrwt>
<pdfrwt beam="1">  1       21 0.53859282E-01 0.43929401E+03</pdfrwt>
<pdfrwt beam="2">  1       21 0.10673527E+00 0.43929401E+03</pdfrwt>
<totfact> 0.19813756E+03</totfact>
</mgrwt>
</event>
<event>
 4    1  0.4840996E-002  0.6564055E+03  0.7818608E-02  0.9794833E-01
         21   -1    0    0  503  502  0.00000000000E+00  0.00000000000E+00  0.58697570610E+03  0.58697570610E+03  0.00000000000E+00 0. -1.
         21   -1    0    0  501  503 -0.00000000000E+00 -0.00000000000E+00 -0.82703317417E+03  0.82703317417E+03  0.00000000000E+00 0. -1.
    9000005    1    1    2  501    0 -0.49291536809E+03  0.16704068320E+03 -0.35709420295E+03  0.74725124270E+03  0.40000000000E+03 0. -1.
   -9000005    1    1    2    0  502  0.49291536809E+03 -0.16704068320E+03  0.11703673487E+03  0.66675763756E+03  0.40000000000E+03 0. -1.
<mgrwt>
<rscale>  2 0.65640548E+03</rscale>
<asrwt>0</asrwt>
<pdfrwt beam="1">  1       21 0.90303955E-01 0.65640548E+03</pdfrwt>
<pdfrwt beam="2">  1       21 0.12723587E+00 0.65640548E+03</pdfrwt>
<totfact> 0.36552894E+02</totfact>
</mgrwt>
</event>
<event>
 4    1  0.4840996E-002  0.4002767E+03  0.7818608E-02  0.1043684E+00
         21   -1    0    0  501  502  0.00000000000E+00  0.00000000000E+00  0.12094287657E+03  0.12094287657E+03  0.00000000000E+00 0. -1.
         21   -1    0    0  502  503 -0.00000000000E+00 -0.00000000000E+00 -0.13297449165E+04  0.13297449165E+04  0.00000000000E+00 0. -1.
    9000005    1    1    2  501    0  0.91395331700E+01 -0.11744982867E+02 -0.64876796364E+03  0.76231315503E+03  0.40000000000E+03 0. -1.
   -9000005    1    1    2    0  503 -0.91395331700E+01  0.11744982867E+02 -0.56003407632E+03  0.68837463807E+03  0.40000000000E+03 0. -1.
<mgrwt>
<rscale>  2 0.40027675E+03</rscale>
<asrwt>0</asrwt>
<pdfrwt beam="1">  1       21 0.18606597E-01 0.40027675E+03</pdfrwt>
<pdfrwt beam="2">  1       21 0.20457614E+00 0.40027675E+03</pdfrwt>
<totfact> 0.28793532E+03</totfact>
</mgrwt>
</event>
<event>
 4    1  0.4840996E-002  0.4634034E+03  0.7818608E-02  0.1023799E+00
         21   -1    0    0  503  502  0.00000000000E+00  0.00000000000E+00  0.12578751292E+04  0.12578751292E+04  0.00000000000E+00 0.  1.
         21   -1    0    0  501  503 -0.00000000000E+00 -0.00000000000E+00 -0.21035635809E+03  0.21035635809E+03  0.00000000000E+00 0. -1.
    9000005    1    1    2  501    0  0.23396907668E+03 -0.10871193028E+01  0.20508942348E+03  0.50675870224E+03  0.40000000000E+03 0. -1.
   -9000005    1    1    2    0  502 -0.23396907668E+03  0.10871193028E+01  0.84242934765E+03  0.96147278508E+03  0.40000000000E+03 0.  1.
<mgrwt>
<rscale>  2 0.46340340E+03</rscale>
<asrwt>0</asrwt>
<pdfrwt beam="1">  1       21 0.19351925E+00 0.46340340E+03</pdfrwt>
<pdfrwt beam="2">  1       21 0.32362517E-01 0.46340340E+03</pdfrwt>
<totfact> 0.11319318E+03</totfact>
</mgrwt>
</event>
<event>
 4    1  0.4840996E-002  0.4264575E+03  0.7818608E-02  0.1034985E+00
         21   -1    0    0  503  502  0.00000000000E+00  0.00000000000E+00  0.63547357750E+03  0.63547357750E+03  0.00000000000E+00 0.  1.
         21   -1    0    0  501  503 -0.00000000000E+00 -0.00000000000E+00 -0.73263718218E+03  0.73263718218E+03  0.00000000000E+00 0.  1.
    9000005    1    1    2  501    0  0.14162447455E+03  0.42526827648E+02 -0.58257035955E+03  0.72197939492E+03  0.40000000000E+03 0.  1.
   -9000005    1    1    2    0  502 -0.14162447455E+03 -0.42526827648E+02  0.48540675487E+03  0.64613136477E+03  0.40000000000E+03 0.  1.
<mgrwt>
<rscale>  2 0.42645753E+03</rscale>
<asrwt>0</asrwt>
<pdfrwt beam="1">  1       21 0.97765166E-01 0.42645753E+03</pdfrwt>
<pdfrwt beam="2">  1       21 0.11271341E+00 0.42645753E+03</pdfrwt>
<totfact> 0.44974450E+02</totfact>
</mgrwt>
</event>
<event>
 4    1  0.4840996E-002  0.4207080E+03  0.7818608E-02  0.1036836E+00
         21   -1    0    0  503  502  0.00000000000E+00  0.00000000000E+00  0.35125672902E+03  0.35125672902E+03  0.00000000000E+00 0.  1.
         21   -1    0    0  501  503 -0.00000000000E+00 -0.00000000000E+00 -0.60908422141E+03  0.60908422141E+03  0.00000000000E+00 0.  1.
    9000005    1    1    2  501    0  0.12497247529E+03 -0.37109517684E+02 -0.32846289662E+03  0.53374442418E+03  0.40000000000E+03 0. -1.
   -9000005    1    1    2    0  502 -0.12497247529E+03  0.37109517684E+02  0.70635404229E+02  0.42659652626E+03  0.40000000000E+03 0. -1.
<mgrwt>
<rscale>  2 0.42070802E+03</rscale>
<asrwt>0</asrwt>
<pdfrwt beam="1">  1       21 0.54039497E-01 0.42070802E+03</pdfrwt>
<pdfrwt beam="2">  1       21 0.93705265E-01 0.42070802E+03</pdfrwt>
<totfact> 0.27177980E+03</totfact>
</mgrwt>
</event>
<event>
 4    1  0.4840996E-002  0.4597166E+03  0.7818608E-02  0.1024863E+00
         21   -1    0    0  501  502  0.00000000000E+00  0.00000000000E+00  0.48207977100E+03  0.48207977100E+03  0.00000000000E+00 0. -1.
         21   -1    0    0  502  503 -0.00000000000E+00 -0.00000000000E+00 -0.90869056952E+03  0.90869056952E+03  0.00000000000E+00 0. -1.
    9000005    1    1    2  501    0 -0.22494389024E+03 -0.27196076015E+02  0.28696494073E+03  0.54193012236E+03  0.40000000000E+03 0. -1.
   -9000005    1    1    2    0  503  0.22494389024E+03  0.27196076015E+02 -0.71357573925E+03  0.84884021815E+03  0.40000000000E+03 0. -1.
<mgrwt>
<rscale>  2 0.45971663E+03</rscale>
<asrwt>0</asrwt>
<pdfrwt beam="1">  1       21 0.74166119E-01 0.45971663E+03</pdfrwt>
<pdfrwt beam="2">  1       21 0.13979855E+00 0.45971663E+03</pdfrwt>
<totfact> 0.48605738E+02</totfact>
</mgrwt>
</event>
<event>
 4    1  0.4840996E-002  0.4141542E+03  0.7818608E-02  0.1038986E+00
         21   -1    0    0  501  502  0.00000000000E+00  0.00000000000E+00  0.54726131027E+03  0.54726131027E+03  0.00000000000E+00 0.  1.
         21   -1    0    0  502  503 -0.00000000000E+00 -0.00000000000E+00 -0.34189483938E+03  0.34189483938E+03  0.00000000000E+00 0.  1.
    9000005    1    1    2  501    0 -0.40042196746E+01  0.10727380639E+03  0.23098055714E+03  0.47421062946E+03  0.40000000000E+03 0.  1.
   -9000005    1    1    2    0  503  0.40042196746E+01 -0.10727380639E+03 -0.25614086253E+02  0.41494552019E+03  0.40000000000E+03 0.  1.
<mgrwt>
<rscale>  2 0.41415420E+03</rscale>
<asrwt>0</asrwt>
<pdfrwt beam="1">  1       21 0.84194048E-01 0.41415420E+03</pdfrwt>
<pdfrwt beam="2">  1       21 0.52599206E-01 0.41415420E+03</pdfrwt>
<totfact> 0.37157010E+03</totfact>
</mgrwt>
</event>
<event>
 4    1  0.4840996E-002  0.5057272E+03  0.7818608E-02  0.1012295E+00
         21   -1    0    0  501  502  0.00000000000E+00  0.00000000000E+00  0.24668035942E+03  0.24668035942E+03  0.00000000000E+00 0.  1.
         21   -1    0    0  502  503 -0.00000000000E+00 -0.00000000000E+00 -0.16395591341E+04  0.16395591341E+04  0.00000000000E+00 0.  1.
    9000005    1    1    2  501    0 -0.97898226880E+02  0.29355743147E+03 -0.12460203422E+03  0.52085093389E+03  0.40000000000E+03 0.  1.
   -9000005    1    1    2    0  503  0.97898226880E+02 -0.29355743147E+03 -0.12682767405E+04  0.13653885597E+04  0.40000000000E+03 0.  1.
<mgrwt>
<rscale>  2 0.50572723E+03</rscale>
<asrwt>0</asrwt>
<pdfrwt beam="1">  1       21 0.37950822E-01 0.50572723E+03</pdfrwt>
<pdfrwt beam="2">  1       21 0.25223988E+00 0.50572723E+03</pdfrwt>
<totfact> 0.33757312E+02</totfact>
</mgrwt>
</event>
<event>
 4    1  0.4840996E-002  0.4149599E+03  0.7818608E-02  0.1038719E+00
         21   -1    0    0  501  502  0.00000000000E+00  0.00000000000E+00  0.15855661647E+03  0.15855661647E+03  0.00000000000E+00 0.  1.
         21   -1    0    0  502  503 -0.00000000000E+00 -0.00000000000E+00 -0.11153772036E+04  0.11153772036E+04  0.00000000000E+00 0. -1.
    9000005    1    1    2  501    0  0.10726307075E+03 -0.26198756789E+02 -0.37502805994E+03  0.55931903860E+03  0.40000000000E+03 0.  1.
   -9000005    1    1    2    0  503 -0.10726307075E+03  0.26198756789E+02 -0.58179252724E+03  0.71461478151E+03  0.40000000000E+03 0.  1.
<mgrwt>
<rscale>  2 0.41495993E+03</rscale>
<asrwt>0</asrwt>
<pdfrwt beam="1">  1       21 0.24393326E-01 0.41495993E+03</pdfrwt>
<pdfrwt beam="2">  1       21 0.17159649E+00 0.41495993E+03</pdfrwt>
<totfact> 0.28715615E+03</totfact>
</mgrwt>
</event>
<event>
 4    1  0.4840996E-002  0.4822808E+03  0.7818608E-02  0.1018510E+00
         21   -1    0    0  503  502  0.00000000000E+00  0.00000000000E+00  0.30226338687E+03  0.30226338687E+03  0.00000000000E+00 0. -1.
         21   -1    0    0  501  503 -0.00000000000E+00 -0.00000000000E+00 -0.79022524579E+03  0.79022524579E+03  0.00000000000E+00 0. -1.
    9000005    1    1    2  501    0  0.89314895060E+02  0.25419998883E+03 -0.33242190917E+03  0.58574662654E+03  0.40000000000E+03 0. -1.
   -9000005    1    1    2    0  502 -0.89314895060E+02 -0.25419998883E+03 -0.15553994976E+03  0.50674200613E+03  0.40000000000E+03 0. -1.
<mgrwt>
<rscale>  2 0.48228082E+03</rscale>
<asrwt>0</asrwt>
<pdfrwt beam="1">  1       21 0.46502060E-01 0.48228082E+03</pdfrwt>
<pdfrwt beam="2">  1       21 0.12157311E+00 0.48228082E+03</pdfrwt>
<totfact> 0.19239685E+03</totfact>
</mgrwt>
</event>
<event>
 4    1  0.4840996E-002  0.4607948E+03  0.7818608E-02  0.1024551E+00
         21   -1    0    0  503  502  0.00000000000E+00  0.00000000000E+00  0.53678228351E+03  0.53678228351E+03  0.00000000000E+00 0. -1.
         21   -1    0    0  501  503 -0.00000000000E+00 -0.00000000000E+00 -0.43737814523E+03  0.43737814523E+03  0.00000000000E+00 0. -1.
    9000005    1    1    2  501    0 -0.16058885408E+03  0.16292053937E+03 -0.10090045635E+03  0.47171260773E+03  0.40000000000E+03 0. -1.
   -9000005    1    1    2    0  502  0.16058885408E+03 -0.16292053937E+03  0.20030459463E+03  0.50244782101E+03  0.40000000000E+03 0. -1.
<mgrwt>
<rscale>  2 0.46079484E+03</rscale>
<asrwt>0</asrwt>
<pdfrwt beam="1">  1       21 0.82581889E-01 0.46079484E+03</pdfrwt>
<pdfrwt beam="2">  1       21 0.67288946E-01 0.46079484E+03</pdfrwt>
<totfact> 0.22295045E+03</totfact>
</mgrwt>
</event>
<event>
 4    1  0.4840996E-002  0.5168534E+03  0.7818608E-02  0.1009471E+00
         21   -1    0    0  503  502  0.00000000000E+00  0.00000000000E+00  0.11221157110E+04  0.11221157110E+04  0.00000000000E+00 0.  1.
         21   -1    0    0  501  503 -0.00000000000E+00 -0.00000000000E+00 -0.24557484064E+03  0.24557484064E+03  0.00000000000E+00 0.  1.
    9000005    1    1    2  501    0 -0.15481752543E+03 -0.28839024188E+03  0.55785015751E+03  0.76048287030E+03  0.40000000000E+03 0.  1.
   -9000005    1    1    2    0  502  0.15481752543E+03  0.28839024188E+03  0.31869071282E+03  0.60720768130E+03  0.40000000000E+03 0.  1.
<mgrwt>
<rscale>  2 0.51685336E+03</rscale>
<asrwt>0</asrwt>
<pdfrwt beam="1">  1       21 0.17263318E+00 0.51685336E+03</pdfrwt>
<pdfrwt beam="2">  1       21 0.37780745E-01 0.51685336E+03</pdfrwt>
<totfact> 0.11338657E+03</totfact>
</mgrwt>
</event>
<event>
 4    1  0.4840996E-002  0.4081821E+03  0.7818608E-02  0.1040983E+00
         21   -1    0    0  503  502  0.00000000000E+00  0.00000000000E+00  0.53806059291E+03  0.53806059291E+03  0.00000000000E+00 0.  1.
         21   -1    0    0  501  503 -0.00000000000E+00 -0.00000000000E+00 -0.38951446111E+03  0.38951446111E+03  0.00000000000E+00 0.  1.
    9000005    1    1    2  501    0  0.45654358068E+02  0.67292813529E+02 -0.13572874281E+03  0.43015687230E+03  0.40000000000E+03 0.  1.
   -9000005    1    1    2    0  502 -0.45654358068E+02 -0.67292813529E+02  0.28427487461E+03  0.49741818171E+03  0.40000000000E+03 0.  1.
<mgrwt>
<rscale>  2 0.40818212E+03</rscale>
<asrwt>0</asrwt>
<pdfrwt beam="1">  1       21 0.82778553E-01 0.40818212E+03</pdfrwt>
<pdfrwt beam="2">  1       21 0.59925302E-01 0.40818212E+03</pdfrwt>
<totfact> 0.29221349E+03</totfact>
</mgrwt>
</event>
<event>
 4    1  0.4840996E-002  0.4281714E+03  0.7818608E-02  0.1034439E+00
         21   -1    0    0  501  502  0.00000000000E+00  0.00000000000E+00  0.10680938318E+04  0.10680938318E+04  0.00000000000E+00 0. -1.
         21   -1    0    0  502  503 -0.00000000000E+00 -0.00000000000E+00 -0.17319329013E+03  0.17319329013E+03  0.00000000000E+00 0. -1.
    9000005    1    1    2  501    0 -0.84482168724E+02  0.12725369272E+03  0.50617149108E+03  0.66297836883E+03  0.40000000000E+03 0. -1.
   -9000005    1    1    2    0  503  0.84482168724E+02 -0.12725369272E+03  0.38872905057E+03  0.57830875309E+03  0.40000000000E+03 0. -1.
<mgrwt>
<rscale>  2 0.42817139E+03</rscale>
<asrwt>0</asrwt>
<pdfrwt beam="1">  1       21 0.16432212E+00 0.42817139E+03</pdfrwt>
<pdfrwt beam="2">  1       21 0.26645122E-01 0.42817139E+03</pdfrwt>
<totfact> 0.27180601E+03</totfact>
</mgrwt>
</event>
<event>
 4    1  0.4840996E-002  0.4736356E+03  0.7818608E-02  0.1020899E+00
         21   -1    0    0  503  502  0.00000000000E+00  0.00000000000E+00  0.83662605042E+03  0.83662605042E+03  0.00000000000E+00 0. -1.
         21   -1    0    0  501  503 -0.00000000000E+00 -0.00000000000E+00 -0.27401165305E+03  0.27401165305E+03  0.00000000000E+00 0. -1.
    9000005    1    1    2  501    0  0.15717740039E+02  0.25314741942E+03  0.36261596028E+03  0.59650733270E+03  0.40000000000E+03 0. -1.
   -9000005    1    1    2    0  502 -0.15717740039E+02 -0.25314741942E+03  0.19999843709E+03  0.51413037077E+03  0.40000000000E+03 0. -1.
<mgrwt>
<rscale>  2 0.47363558E+03</rscale>
<asrwt>0</asrwt>
<pdfrwt beam="1">  1       21 0.12871170E+00 0.47363558E+03</pdfrwt>
<pdfrwt beam="2">  1       21 0.42155639E-01 0.47363558E+03</pdfrwt>
<totfact> 0.20459723E+03</totfact>
</mgrwt>
</event>
<event>
 4    1  0.4840996E-002  0.4281406E+03  0.7818608E-02  0.1034449E+00
         21   -1    0    0  503  502  0.00000000000E+00  0.00000000000E+00  0.12726563415E+04  0.12726563415E+04  0.00000000000E+00 0.  1.
         21   -1    0    0  501  503 -0.00000000000E+00 -0.00000000000E+00 -0.28306010470E+03  0.28306010470E+03  0.00000000000E+00 0.  1.
    9000005    1    1    2  501    0 -0.13951542167E+03 -0.61966149971E+02 -0.50345640239E+02  0.43109052427E+03  0.40000000000E+03 0.  1.
   -9000005    1    1    2    0  502  0.13951542167E+03  0.61966149971E+02  0.10399418770E+04  0.11246259219E+04  0.40000000000E+03 0.  1.
<mgrwt>
<rscale>  2 0.42814058E+03</rscale>
<asrwt>0</asrwt>
<pdfrwt beam="1">  1       21 0.19579328E+00 0.42814058E+03</pdfrwt>
<pdfrwt beam="2">  1       21 0.43547709E-01 0.42814058E+03</pdfrwt>
<totfact> 0.60573148E+02</totfact>
</mgrwt>
</event>
<event>
 4    1  0.4840996E-002  0.4068868E+03  0.7818608E-02  0.1041421E+00
         21   -1    0    0  501  502  0.00000000000E+00  0.00000000000E+00  0.35619107562E+03  0.35619107562E+03  0.00000000000E+00 0.  1.
         21   -1    0    0  502  503 -0.00000000000E+00 -0.00000000000E+00 -0.47067887165E+03  0.47067887165E+03  0.00000000000E+00 0.  1.
    9000005    1    1    2  501    0 -0.36278640101E+02  0.65120930555E+02 -0.10345733019E+03  0.41983365098E+03  0.40000000000E+03 0. -1.
   -9000005    1    1    2    0  503  0.36278640101E+02 -0.65120930555E+02 -0.11030465846E+02  0.40703629629E+03  0.40000000000E+03 0. -1.
<mgrwt>
<rscale>  2 0.40688681E+03</rscale>
<asrwt>0</asrwt>
<pdfrwt beam="1">  1       21 0.54798627E-01 0.40688681E+03</pdfrwt>
<pdfrwt beam="2">  1       21 0.72412134E-01 0.40688681E+03</pdfrwt>
<totfact> 0.48222729E+03</totfact>
</mgrwt>
</event>
<event>
 4    1  0.4840996E-002  0.4780433E+03  0.7818608E-02  0.1019674E+00
         21   -1    0    0  501  502  0.00000000000E+00  0.00000000000E+00  0.32189231587E+03  0.32189231587E+03  0.00000000000E+00 0. -1.
         21   -1    0    0  502  503 -0.00000000000E+00 -0.00000000000E+00 -0.71207212040E+03  0.71207212040E+03  0.00000000000E+00 0. -1.
    9000005    1    1    2  501    0 -0.23025138956E+03  0.12453800517E+03 -0.22335456316E+03  0.52764825216E+03  0.40000000000E+03 0. -1.
   -9000005    1    1    2    0  503  0.23025138956E+03 -0.12453800517E+03 -0.16682524138E+03  0.50631618410E+03  0.40000000000E+03 0. -1.
<mgrwt>
<rscale>  2 0.47804332E+03</rscale>
<asrwt>0</asrwt>
<pdfrwt beam="1">  1       21 0.49521895E-01 0.47804332E+03</pdfrwt>
<pdfrwt beam="2">  1       21 0.10954956E+00 0.47804332E+03</pdfrwt>
<totfact> 0.21913729E+03</totfact>
</mgrwt>
</event>
<event>
 4    1  0.4840996E-002  0.5527238E+03  0.7818608E-02  0.1000865E+00
         21   -1    0    0  501  502  0.00000000000E+00  0.00000000000E+00  0.33012504889E+03  0.33012504889E+03  0.00000000000E+00 0. -1.
         21   -1    0    0  502  503 -0.00000000000E+00 -0.00000000000E+00 -0.22215613692E+04  0.22215613692E+04  0.00000000000E+00 0.  1.
    9000005    1    1    2  501    0  0.17907111149E+03 -0.33680432288E+03  0.28810675876E+02  0.55347418181E+03  0.40000000000E+03 0. -1.
   -9000005    1    1    2    0  503 -0.17907111149E+03  0.33680432288E+03 -0.19202469962E+04  0.19982122363E+04  0.40000000000E+03 0.  1.
<mgrwt>
<rscale>  2 0.55272381E+03</rscale>
<asrwt>0</asrwt>
<pdfrwt beam="1">  1       21 0.50788469E-01 0.55272381E+03</pdfrwt>
<pdfrwt beam="2">  1       21 0.34177867E+00 0.55272381E+03</pdfrwt>
<totfact> 0.50972759E+01</totfact>
</mgrwt>
</event>
<event>
 4    1  0.4840996E-002  0.4062767E+03  0.7818608E-02  0.1041628E+00
         21   -1    0    0  501  502  0.00000000000E+00  0.00000000000E+00  0.15196928096E+03  0.15196928096E+03  0.00000000000E+00 0. -1.
         21   -1    0    0  502  503 -0.00000000000E+00 -0.00000000000E+00 -0.10915625311E+04  0.10915625311E+04  0.00000000000E+00 0. -1.
    9000005    1    1    2  501    0  0.51806927822E+02  0.48752640722E+02 -0.51359682684E+03  0.65486065563E+03  0.40000000000E+03 0. -1.
   -9000005    1    1    2    0  503 -0.51806927822E+02 -0.48752640722E+02 -0.42599642326E+03  0.58867115640E+03  0.40000000000E+03 0. -1.
<mgrwt>
<rscale>  2 0.40627673E+03</rscale>
<asrwt>0</asrwt>
<pdfrwt beam="1">  1       21 0.23379889E-01 0.40627673E+03</pdfrwt>
<pdfrwt beam="2">  1       21 0.16793270E+00 0.40627673E+03</pdfrwt>
<totfact> 0.33260369E+03</totfact>
</mgrwt>
</event>
<event>
 4    1  0.4840996E-002  0.5791775E+03  0.7818608E-02  0.9949573E-01
         21   -1    0    0  503  502  0.00000000000E+00  0.00000000000E+00  0.23305564671E+03  0.23305564671E+03  0.00000000000E+00 0. -1.
         21   -1    0    0  501  503 -0.00000000000E+00 -0.00000000000E+00 -0.20414506648E+04  0.20414506648E+04  0.00000000000E+00 0.  1.
    9000005    1    1    2  501    0 -0.20941028039E+03 -0.36275869477E+03 -0.15218234421E+04  0.16283098984E+04  0.40000000000E+03 0.  1.
   -9000005    1    1    2    0  502  0.20941028039E+03  0.36275869477E+03 -0.28657157595E+03  0.64619641311E+03  0.40000000000E+03 0. -1.
<mgrwt>
<rscale>  2 0.57917747E+03</rscale>
<asrwt>0</asrwt>
<pdfrwt beam="1">  1       21 0.35854714E-01 0.57917747E+03</pdfrwt>
<pdfrwt beam="2">  1       21 0.31406934E+00 0.57917747E+03</pdfrwt>
<totfact> 0.15374838E+02</totfact>
</mgrwt>
</event>
<event>
 4    1  0.4840996E-002  0.4485612E+03  0.7818608E-02  0.1028152E+00
         21   -1    0    0  501  502  0.00000000000E+00  0.00000000000E+00  0.95264875172E+03  0.95264875172E+03  0.00000000000E+00 0. -1.
         21   -1    0    0  502  503 -0.00000000000E+00 -0.00000000000E+00 -0.28185737068E+03  0.28185737068E+03  0.00000000000E+00 0.  1.
    9000005    1    1    2  501    0 -0.16890342006E+02  0.20229156159E+03  0.64442687718E+03  0.78517078370E+03  0.40000000000E+03 0. -1.
   -9000005    1    1    2    0  503  0.16890342006E+02 -0.20229156159E+03  0.26364503867E+02  0.44933533870E+03  0.40000000000E+03 0.  1.
<mgrwt>
<rscale>  2 0.44856121E+03</rscale>
<asrwt>0</asrwt>
<pdfrwt beam="1">  1       21 0.14656134E+00 0.44856121E+03</pdfrwt>
<pdfrwt beam="2">  1       21 0.43362673E-01 0.44856121E+03</pdfrwt>
<totfact> 0.13822031E+03</totfact>
</mgrwt>
</event>
<event>
 4    1  0.4840996E-002  0.4272160E+03  0.7818608E-02  0.1034743E+00
         21   -1    0    0  503  502  0.00000000000E+00  0.00000000000E+00  0.68893636966E+03  0.68893636966E+03  0.00000000000E+00 0.  1.
         21   -1    0    0  501  503 -0.00000000000E+00 -0.00000000000E+00 -0.40805851242E+03  0.40805851242E+03  0.00000000000E+00 0.  1.
    9000005    1    1    2  501    0  0.64891387112E+02 -0.13528729799E+03 -0.18441676649E+03  0.46532041529E+03  0.40000000000E+03 0.  1.
   -9000005    1    1    2    0  502 -0.64891387112E+02  0.13528729799E+03  0.46529462373E+03  0.63167446679E+03  0.40000000000E+03 0.  1.
<mgrwt>
<rscale>  2 0.42721604E+03</rscale>
<asrwt>0</asrwt>
<pdfrwt beam="1">  1       21 0.10599021E+00 0.42721604E+03</pdfrwt>
<pdfrwt beam="2">  1       21 0.62778232E-01 0.42721604E+03</pdfrwt>
<totfact> 0.14508709E+03</totfact>
</mgrwt>
</event>
<event>
 4    1  0.4840996E-002  0.4201902E+03  0.7818608E-02  0.1037004E+00
         21   -1    0    0  501  502  0.00000000000E+00  0.00000000000E+00  0.57165774948E+03  0.57165774948E+03  0.00000000000E+00 0. -1.
         21   -1    0    0  502  503 -0.00000000000E+00 -0.00000000000E+00 -0.37699288854E+03  0.37699288854E+03  0.00000000000E+00 0. -1.
    9000005    1    1    2  501    0 -0.23792988626E+02 -0.12646623772E+03  0.29898394685E+03  0.51570458217E+03  0.40000000000E+03 0. -1.
   -9000005    1    1    2    0  503  0.23792988626E+02  0.12646623772E+03 -0.10431908592E+03  0.43294605585E+03  0.40000000000E+03 0. -1.
<mgrwt>
<rscale>  2 0.42019021E+03</rscale>
<asrwt>0</asrwt>
<pdfrwt beam="1">  1       21 0.87947346E-01 0.42019021E+03</pdfrwt>
<pdfrwt beam="2">  1       21 0.57998906E-01 0.42019021E+03</pdfrwt>
<totfact> 0.27111547E+03</totfact>
</mgrwt>
</event>
<event>
 4    1  0.4840996E-002  0.4869670E+03  0.7818608E-02  0.1017238E+00
         21   -1    0    0  503  502  0.00000000000E+00  0.00000000000E+00  0.10260364159E+04  0.10260364159E+04  0.00000000000E+00 0. -1.
         21   -1    0    0  501  503 -0.00000000000E+00 -0.00000000000E+00 -0.35786913255E+03  0.35786913255E+03  0.00000000000E+00 0. -1.
    9000005    1    1    2  501    0 -0.17155470326E+03 -0.21841672662E+03 -0.77717858196E+02  0.49312974779E+03  0.40000000000E+03 0. -1.
   -9000005    1    1    2    0  502  0.17155470326E+03  0.21841672662E+03  0.74588514158E+03  0.89077580070E+03  0.40000000000E+03 0. -1.
<mgrwt>
<rscale>  2 0.48696702E+03</rscale>
<asrwt>0</asrwt>
<pdfrwt beam="1">  1       21 0.15785176E+00 0.48696702E+03</pdfrwt>
<pdfrwt beam="2">  1       21 0.55056790E-01 0.48696702E+03</pdfrwt>
<totfact> 0.66899895E+02</totfact>
</mgrwt>
</event>
<event>
 4    1  0.4840996E-002  0.4194166E+03  0.7818608E-02  0.1037256E+00
         21   -1    0    0  501  502  0.00000000000E+00  0.00000000000E+00  0.62840379316E+03  0.62840379316E+03  0.00000000000E+00 0. -1.
         21   -1    0    0  502  503 -0.00000000000E+00 -0.00000000000E+00 -0.28026017743E+03  0.28026017743E+03  0.00000000000E+00 0. -1.
    9000005    1    1    2  501    0 -0.10779664358E+03 -0.65499129531E+02  0.18962177197E+03  0.46028976606E+03  0.40000000000E+03 0. -1.
   -9000005    1    1    2    0  503  0.10779664358E+03  0.65499129531E+02  0.15852184375E+03  0.44837420453E+03  0.40000000000E+03 0. -1.
<mgrwt>
<rscale>  2 0.41941656E+03</rscale>
<asrwt>0</asrwt>
<pdfrwt beam="1">  1       21 0.96677506E-01 0.41941656E+03</pdfrwt>
<pdfrwt beam="2">  1       21 0.43116951E-01 0.41941656E+03</pdfrwt>
<totfact> 0.40664405E+03</totfact>
</mgrwt>
</event>
<event>
 4    1  0.4840996E-002  0.4732672E+03  0.7818608E-02  0.1021002E+00
         21   -1    0    0  503  502  0.00000000000E+00  0.00000000000E+00  0.51374497299E+03  0.51374497299E+03  0.00000000000E+00 0.  1.
         21   -1    0    0  501  503 -0.00000000000E+00 -0.00000000000E+00 -0.96929770121E+03  0.96929770121E+03  0.00000000000E+00 0.  1.
    9000005    1    1    2  501    0  0.84994615854E+02 -0.23823877551E+03 -0.77780923216E+03  0.91047734761E+03  0.40000000000E+03 0.  1.
   -9000005    1    1    2    0  502 -0.84994615854E+02  0.23823877551E+03  0.32225650395E+03  0.57256532659E+03  0.40000000000E+03 0.  1.
<mgrwt>
<rscale>  2 0.47326715E+03</rscale>
<asrwt>0</asrwt>
<pdfrwt beam="1">  1       21 0.79037688E-01 0.47326715E+03</pdfrwt>
<pdfrwt beam="2">  1       21 0.14912272E+00 0.47326715E+03</pdfrwt>
<totfact> 0.35096978E+02</totfact>
</mgrwt>
</event>
<event>
 4    1  0.4840996E-002  0.5102764E+03  0.7818608E-02  0.1011131E+00
         21   -1    0    0  501  502  0.00000000000E+00  0.00000000000E+00  0.72590049346E+03  0.72590049346E+03  0.00000000000E+00 0. -1.
         21   -1    0    0  502  503 -0.00000000000E+00 -0.00000000000E+00 -0.45639798756E+03  0.45639798756E+03  0.00000000000E+00 0.  1.
    9000005    1    1    2  501    0 -0.13429482845E+03  0.28696156583E+03  0.40825506693E+03  0.65349387211E+03  0.40000000000E+03 0. -1.
   -9000005    1    1    2    0  503  0.13429482845E+03 -0.28696156583E+03 -0.13875256103E+03  0.52880460891E+03  0.40000000000E+03 0.  1.
<mgrwt>
<rscale>  2 0.51027644E+03</rscale>
<asrwt>0</asrwt>
<pdfrwt beam="1">  1       21 0.11167700E+00 0.51027644E+03</pdfrwt>
<pdfrwt beam="2">  1       21 0.70215075E-01 0.51027644E+03</pdfrwt>
<totfact> 0.96101520E+02</totfact>
</mgrwt>
</event>
<event>
 4    1  0.4840996E-002  0.1271788E+04  0.7818608E-02  0.9052242E-01
         21   -1    0    0  501  502  0.00000000000E+00  0.00000000000E+00  0.11786977300E+04  0.11786977300E+04  0.00000000000E+00 0. -1.
         21   -1    0    0  502  503 -0.00000000000E+00 -0.00000000000E+00 -0.19268013444E+04  0.19268013444E+04  0.00000000000E+00 0.  1.
    9000005    1    1    2  501    0  0.40197713071E+02  0.12065773324E+04  0.45897991793E+03  0.13520751755E+04  0.40000000000E+03 0. -1.
   -9000005    1    1    2    0  503 -0.40197713071E+02 -0.12065773324E+04 -0.12070835324E+04  0.17534238989E+04  0.40000000000E+03 0.  1.
<mgrwt>
<rscale>  2 0.12717880E+04</rscale>
<asrwt>0</asrwt>
<pdfrwt beam="1">  1       21 0.18133811E+00 0.12717880E+04</pdfrwt>
<pdfrwt beam="2">  1       21 0.29643098E+00 0.12717880E+04</pdfrwt>
<totfact> 0.31551871E+00</totfact>
</mgrwt>
</event>
<event>
 4    1  0.4840996E-002  0.4395604E+03  0.7818608E-02  0.1030882E+00
         21   -1    0    0  501  502  0.00000000000E+00  0.00000000000E+00  0.62099285111E+03  0.62099285111E+03  0.00000000000E+00 0.  1.
         21   -1    0    0  502  503 -0.00000000000E+00 -0.00000000000E+00 -0.49182579566E+03  0.49182579566E+03  0.00000000000E+00 0.  1.
    9000005    1    1    2  501    0 -0.66070811343E+02 -0.16984691964E+03  0.40183617983E+03  0.59555490397E+03  0.40000000000E+03 0.  1.
   -9000005    1    1    2    0  503  0.66070811343E+02  0.16984691964E+03 -0.27266912439E+03  0.51726374280E+03  0.40000000000E+03 0.  1.
<mgrwt>
<rscale>  2 0.43956038E+03</rscale>
<asrwt>0</asrwt>
<pdfrwt beam="1">  1       21 0.95537361E-01 0.43956038E+03</pdfrwt>
<pdfrwt beam="2">  1       21 0.75665507E-01 0.43956038E+03</pdfrwt>
<totfact> 0.12220987E+03</totfact>
</mgrwt>
</event>
<event>
 4    1  0.4840996E-002  0.4124381E+03  0.7818608E-02  0.1039556E+00
         21   -1    0    0  501  502  0.00000000000E+00  0.00000000000E+00  0.51794957035E+03  0.51794957035E+03  0.00000000000E+00 0. -1.
         21   -1    0    0  502  503 -0.00000000000E+00 -0.00000000000E+00 -0.45278166443E+03  0.45278166443E+03  0.00000000000E+00 0. -1.
    9000005    1    1    2  501    0 -0.62559569055E+02  0.78685871316E+02  0.28695477215E+03  0.50244224274E+03  0.40000000000E+03 0. -1.
   -9000005    1    1    2    0  503  0.62559569055E+02 -0.78685871316E+02 -0.22178686623E+03  0.46828899203E+03  0.40000000000E+03 0. -1.
<mgrwt>
<rscale>  2 0.41243808E+03</rscale>
<asrwt>0</asrwt>
<pdfrwt beam="1">  1       21 0.79684550E-01 0.41243808E+03</pdfrwt>
<pdfrwt beam="2">  1       21 0.69658717E-01 0.41243808E+03</pdfrwt>
<totfact> 0.22824392E+03</totfact>
</mgrwt>
</event>
<event>
 4    1  0.4840996E-002  0.5257788E+03  0.7818608E-02  0.1007261E+00
         21   -1    0    0  503  502  0.00000000000E+00  0.00000000000E+00  0.11940096832E+04  0.11940096832E+04  0.00000000000E+00 0. -1.
         21   -1    0    0  501  503 -0.00000000000E+00 -0.00000000000E+00 -0.34804066625E+03  0.34804066625E+03  0.00000000000E+00 0. -1.
    9000005    1    1    2  501    0 -0.18210638431E+03 -0.28858378225E+03 -0.23128970589E+02  0.52628726363E+03  0.40000000000E+03 0. -1.
   -9000005    1    1    2    0  502  0.18210638431E+03  0.28858378225E+03  0.86909798759E+03  0.10157630859E+04  0.40000000000E+03 0. -1.
<mgrwt>
<rscale>  2 0.52577879E+03</rscale>
<asrwt>0</asrwt>
<pdfrwt beam="1">  1       21 0.18369379E+00 0.52577879E+03</pdfrwt>
<pdfrwt beam="2">  1       21 0.53544719E-01 0.52577879E+03</pdfrwt>
<totfact> 0.45271330E+02</totfact>
</mgrwt>
</event>
<event>
 4    1  0.4840996E-002  0.6745807E+03  0.7818608E-02  0.9761718E-01
         21   -1    0    0  501  502  0.00000000000E+00  0.00000000000E+00  0.35236737211E+03  0.35236737211E+03  0.00000000000E+00 0.  1.
         21   -1    0    0  502  503 -0.00000000000E+00 -0.00000000000E+00 -0.13263184393E+04  0.13263184393E+04  0.00000000000E+00 0.  1.
    9000005    1    1    2  501    0  0.52604056479E+03 -0.13542705162E+03 -0.35085233405E+03  0.76036604502E+03  0.40000000000E+03 0.  1.
   -9000005    1    1    2    0  503 -0.52604056479E+03  0.13542705162E+03 -0.62309873313E+03  0.91831976638E+03  0.40000000000E+03 0.  1.
<mgrwt>
<rscale>  2 0.67458073E+03</rscale>
<asrwt>0</asrwt>
<pdfrwt beam="1">  1       21 0.54210365E-01 0.67458073E+03</pdfrwt>
<pdfrwt beam="2">  1       21 0.20404899E+00 0.67458073E+03</pdfrwt>
<totfact> 0.30262166E+02</totfact>
</mgrwt>
</event>
<event>
 4    1  0.4840996E-002  0.4066007E+03  0.7818608E-02  0.1041518E+00
         21   -1    0    0  501  502  0.00000000000E+00  0.00000000000E+00  0.60675225981E+03  0.60675225981E+03  0.00000000000E+00 0.  1.
         21   -1    0    0  502  503 -0.00000000000E+00 -0.00000000000E+00 -0.49775967870E+03  0.49775967870E+03  0.00000000000E+00 0.  1.
    9000005    1    1    2  501    0 -0.61252277000E+02  0.39651804304E+02  0.42602940347E+03  0.58891863584E+03  0.40000000000E+03 0.  1.
   -9000005    1    1    2    0  503  0.61252277000E+02 -0.39651804304E+02 -0.31703682236E+03  0.51559330267E+03  0.40000000000E+03 0.  1.
<mgrwt>
<rscale>  2 0.40660067E+03</rscale>
<asrwt>0</asrwt>
<pdfrwt beam="1">  1       21 0.93346502E-01 0.40660067E+03</pdfrwt>
<pdfrwt beam="2">  1       21 0.76578412E-01 0.40660067E+03</pdfrwt>
<totfact> 0.12746323E+03</totfact>
</mgrwt>
</event>
<event>
 4    1  0.4840996E-002  0.4541275E+03  0.7818608E-02  0.1026498E+00
         21   -1    0    0  501  502  0.00000000000E+00  0.00000000000E+00  0.90640087402E+03  0.90640087402E+03  0.00000000000E+00 0.  1.
         21   -1    0    0  502  503 -0.00000000000E+00 -0.00000000000E+00 -0.36436442277E+03  0.36436442277E+03  0.00000000000E+00 0. -1.
    9000005    1    1    2  501    0 -0.14337005733E+03  0.16023972942E+03  0.66039310835E+03  0.80146790440E+03  0.40000000000E+03 0.  1.
   -9000005    1    1    2    0  503  0.14337005733E+03 -0.16023972942E+03 -0.11835665710E+03  0.46929739239E+03  0.40000000000E+03 0. -1.
<mgrwt>
<rscale>  2 0.45412745E+03</rscale>
<asrwt>0</asrwt>
<pdfrwt beam="1">  1       21 0.13944629E+00 0.45412745E+03</pdfrwt>
<pdfrwt beam="2">  1       21 0.56056065E-01 0.45412745E+03</pdfrwt>
<totfact> 0.91339420E+02</totfact>
</mgrwt>
</event>
<event>
 4    1  0.4840996E-002  0.4524031E+03  0.7818608E-02  0.1027008E+00
         21   -1    0    0  501  502  0.00000000000E+00  0.00000000000E+00  0.98181734679E+03  0.98181734679E+03  0.00000000000E+00 0. -1.
         21   -1    0    0  502  503 -0.00000000000E+00 -0.00000000000E+00 -0.21145876127E+03  0.21145876127E+03  0.00000000000E+00 0. -1.
    9000005    1    1    2  501    0  0.69747065832E+02 -0.19950918176E+03  0.45624310390E+03  0.64251563145E+03  0.40000000000E+03 0. -1.
   -9000005    1    1    2    0  503 -0.69747065832E+02  0.19950918176E+03  0.31411548162E+03  0.55076047661E+03  0.40000000000E+03 0. -1.
<mgrwt>
<rscale>  2 0.45240310E+03</rscale>
<asrwt>0</asrwt>
<pdfrwt beam="1">  1       21 0.15104882E+00 0.45240310E+03</pdfrwt>
<pdfrwt beam="2">  1       21 0.32532118E-01 0.45240310E+03</pdfrwt>
<totfact> 0.22878445E+03</totfact>
</mgrwt>
</event>
<event>
 4    1  0.4840996E-002  0.5646874E+03  0.7818608E-02  0.9981504E-01
         21   -1    0    0  503  502  0.00000000000E+00  0.00000000000E+00  0.18317700433E+04  0.18317700433E+04  0.00000000000E+00 0.  1.
         21   -1    0    0  501  503 -0.00000000000E+00 -0.00000000000E+00 -0.24927169383E+03  0.24927169383E+03  0.00000000000E+00 0.  1.
    9000005    1    1    2  501    0 -0.18387697141E+03  0.35363981492E+03  0.21976599084E+03  0.60594467572E+03  0.40000000000E+03 0.  1.
   -9000005    1    1    2    0  502  0.18387697141E+03 -0.35363981492E+03  0.13627323587E+04  0.14750970614E+04  0.40000000000E+03 0.  1.
<mgrwt>
<rscale>  2 0.56468740E+03</rscale>
<asrwt>0</asrwt>
<pdfrwt beam="1">  1       21 0.28181077E+00 0.56468740E+03</pdfrwt>
<pdfrwt beam="2">  1       21 0.38349493E-01 0.56468740E+03</pdfrwt>
<totfact> 0.21191024E+02</totfact>
</mgrwt>
</event>
<event>
 4    1  0.4840996E-002  0.4423951E+03  0.7818608E-02  0.1030014E+00
         21   -1    0    0  503  502  0.00000000000E+00  0.00000000000E+00  0.89206811408E+03  0.89206811408E+03  0.00000000000E+00 0. -1.
         21   -1    0    0  501  503 -0.00000000000E+00 -0.00000000000E+00 -0.21948266996E+03  0.21948266996E+03  0.00000000000E+00 0. -1.
    9000005    1    1    2  501    0 -0.18246562744E+03 -0.49191032457E+02  0.32505643662E+03  0.54897645656E+03  0.40000000000E+03 0. -1.
   -9000005    1    1    2    0  502  0.18246562744E+03  0.49191032457E+02  0.34752900751E+03  0.56257432747E+03  0.40000000000E+03 0. -1.
<mgrwt>
<rscale>  2 0.44239514E+03</rscale>
<asrwt>0</asrwt>
<pdfrwt beam="1">  1       21 0.13724125E+00 0.44239514E+03</pdfrwt>
<pdfrwt beam="2">  1       21 0.33766565E-01 0.44239514E+03</pdfrwt>
<totfact> 0.27560568E+03</totfact>
</mgrwt>
</event>
<event>
 4    1  0.4840996E-002  0.5802296E+03  0.7818608E-02  0.9947294E-01
         21   -1    0    0  503  502  0.00000000000E+00  0.00000000000E+00  0.48997658125E+03  0.48997658125E+03  0.00000000000E+00 0. -1.
         21   -1    0    0  501  503 -0.00000000000E+00 -0.00000000000E+00 -0.77546208015E+03  0.77546208015E+03  0.00000000000E+00 0.  1.
    9000005    1    1    2  501    0  0.39459188679E+03  0.14478819906E+03  0.70830265109E+02  0.58453683046E+03  0.40000000000E+03 0. -1.
   -9000005    1    1    2    0  502 -0.39459188679E+03 -0.14478819906E+03 -0.35631576400E+03  0.68090183094E+03  0.40000000000E+03 0.  1.
<mgrwt>
<rscale>  2 0.58022959E+03</rscale>
<asrwt>0</asrwt>
<pdfrwt beam="1">  1       21 0.75381013E-01 0.58022959E+03</pdfrwt>
<pdfrwt beam="2">  1       21 0.11930186E+00 0.58022959E+03</pdfrwt>
<totfact> 0.67559434E+02</totfact>
</mgrwt>
</event>
<event>
 4    1  0.4840996E-002  0.5167051E+03  0.7818608E-02  0.1009508E+00
         21   -1    0    0  501  502  0.00000000000E+00  0.00000000000E+00  0.61668375334E+03  0.61668375334E+03  0.00000000000E+00 0. -1.
         21   -1    0    0  502  503 -0.00000000000E+00 -0.00000000000E+00 -0.15736123067E+04  0.15736123067E+04  0.00000000000E+00 0.  1.
    9000005    1    1    2  501    0 -0.15406988046E+03 -0.28852487430E+03  0.45394225873E+03  0.68778463593E+03  0.40000000000E+03 0. -1.
   -9000005    1    1    2    0  503  0.15406988046E+03  0.28852487430E+03 -0.14108708121E+04  0.15025114241E+04  0.40000000000E+03 0.  1.
<mgrwt>
<rscale>  2 0.51670507E+03</rscale>
<asrwt>0</asrwt>
<pdfrwt beam="1">  1       21 0.94874423E-01 0.51670507E+03</pdfrwt>
<pdfrwt beam="2">  1       21 0.24209420E+00 0.51670507E+03</pdfrwt>
<totfact> 0.51340315E+01</totfact>
</mgrwt>
</event>
<event>
 4    1  0.4840996E-002  0.4295563E+03  0.7818608E-02  0.1034000E+00
         21   -1    0    0  503  502  0.00000000000E+00  0.00000000000E+00  0.58822138451E+03  0.58822138451E+03  0.00000000000E+00 0.  1.
         21   -1    0    0  501  503 -0.00000000000E+00 -0.00000000000E+00 -0.38369184404E+03  0.38369184404E+03  0.00000000000E+00 0. -1.
    9000005    1    1    2  501    0  0.15628571059E+03 -0.96634927976E+01 -0.10530490490E+03  0.44227562608E+03  0.40000000000E+03 0. -1.
   -9000005    1    1    2    0  502 -0.15628571059E+03  0.96634927976E+01  0.30983444536E+03  0.52963760248E+03  0.40000000000E+03 0. -1.
<mgrwt>
<rscale>  2 0.42955629E+03</rscale>
<asrwt>0</asrwt>
<pdfrwt beam="1">  1       21 0.90495597E-01 0.42955629E+03</pdfrwt>
<pdfrwt beam="2">  1       21 0.59029515E-01 0.42955629E+03</pdfrwt>
<totfact> 0.24301749E+03</totfact>
</mgrwt>
</event>
<event>
 4    1  0.4840996E-002  0.5169793E+03  0.7818608E-02  0.1009440E+00
         21   -1    0    0  501  502  0.00000000000E+00  0.00000000000E+00  0.87704973678E+03  0.87704973678E+03  0.00000000000E+00 0.  1.
         21   -1    0    0  502  503 -0.00000000000E+00 -0.00000000000E+00 -0.41441444758E+03  0.41441444758E+03  0.00000000000E+00 0. -1.
    9000005    1    1    2  501    0  0.32558199478E+03  0.35551744473E+02  0.56351638580E+03  0.76473412303E+03  0.40000000000E+03 0.  1.
   -9000005    1    1    2    0  503 -0.32558199478E+03 -0.35551744473E+02 -0.10088109660E+03  0.52673006133E+03  0.40000000000E+03 0. -1.
<mgrwt>
<rscale>  2 0.51697927E+03</rscale>
<asrwt>0</asrwt>
<pdfrwt beam="1">  1       21 0.13493073E+00 0.51697927E+03</pdfrwt>
<pdfrwt beam="2">  1       21 0.63756069E-01 0.51697927E+03</pdfrwt>
<totfact> 0.73267150E+02</totfact>
</mgrwt>
</event>
<event>
 4    1  0.4840996E-002  0.4592774E+03  0.7818608E-02  0.1024991E+00
         21   -1    0    0  503  502  0.00000000000E+00  0.00000000000E+00  0.71062764248E+03  0.71062764248E+03  0.00000000000E+00 0. -1.
         21   -1    0    0  501  503 -0.00000000000E+00 -0.00000000000E+00 -0.31210602933E+03  0.31210602933E+03  0.00000000000E+00 0. -1.
    9000005    1    1    2  501    0  0.59606767296E+02 -0.21767584877E+03  0.86129202095E+02  0.46728361976E+03  0.40000000000E+03 0. -1.
   -9000005    1    1    2    0  502 -0.59606767296E+02  0.21767584877E+03  0.31239241105E+03  0.55545005205E+03  0.40000000000E+03 0. -1.
<mgrwt>
<rscale>  2 0.45927741E+03</rscale>
<asrwt>0</asrwt>
<pdfrwt beam="1">  1       21 0.10932733E+00 0.45927741E+03</pdfrwt>
<pdfrwt beam="2">  1       21 0.48016312E-01 0.45927741E+03</pdfrwt>
<totfact> 0.23674594E+03</totfact>
</mgrwt>
</event>
<event>
 4    1  0.4840996E-002  0.4122339E+03  0.7818608E-02  0.1039624E+00
         21   -1    0    0  503  502  0.00000000000E+00  0.00000000000E+00  0.37607549201E+03  0.37607549201E+03  0.00000000000E+00 0.  1.
         21   -1    0    0  501  503 -0.00000000000E+00 -0.00000000000E+00 -0.55143290642E+03  0.55143290642E+03  0.00000000000E+00 0. -1.
    9000005    1    1    2  501    0  0.71946803771E+02  0.68996161876E+02 -0.28473609995E+03  0.50101043855E+03  0.40000000000E+03 0. -1.
   -9000005    1    1    2    0  502 -0.71946803771E+02 -0.68996161876E+02  0.10937868554E+03  0.42649795988E+03  0.40000000000E+03 0.  1.
<mgrwt>
<rscale>  2 0.41223393E+03</rscale>
<asrwt>0</asrwt>
<pdfrwt beam="1">  1       21 0.57857768E-01 0.41223393E+03</pdfrwt>
<pdfrwt beam="2">  1       21 0.84835832E-01 0.41223393E+03</pdfrwt>
<totfact> 0.29747042E+03</totfact>
</mgrwt>
</event>
<event>
 4    1  0.4840996E-002  0.4794875E+03  0.7818608E-02  0.1019276E+00
         21   -1    0    0  503  502  0.00000000000E+00  0.00000000000E+00  0.91268519618E+03  0.91268519618E+03  0.00000000000E+00 0. -1.
         21   -1    0    0  501  503 -0.00000000000E+00 -0.00000000000E+00 -0.29569557707E+03  0.29569557707E+03  0.00000000000E+00 0.  1.
    9000005    1    1    2  501    0  0.26090656905E+03  0.42849222976E+02  0.75979899362E+02  0.48547012142E+03  0.40000000000E+03 0. -1.
   -9000005    1    1    2    0  502 -0.26090656905E+03 -0.42849222976E+02  0.54100971975E+03  0.72291065184E+03  0.40000000000E+03 0.  1.
<mgrwt>
<rscale>  2 0.47948753E+03</rscale>
<asrwt>0</asrwt>
<pdfrwt beam="1">  1       21 0.14041311E+00 0.47948753E+03</pdfrwt>
<pdfrwt beam="2">  1       21 0.45491628E-01 0.47948753E+03</pdfrwt>
<totfact> 0.13854608E+03</totfact>
</mgrwt>
</event>
<event>
 4    1  0.4840996E-002  0.4396874E+03  0.7818608E-02  0.1030843E+00
         21   -1    0    0  503  502  0.00000000000E+00  0.00000000000E+00  0.88699349058E+03  0.88699349058E+03  0.00000000000E+00 0. -1.
         21   -1    0    0  501  503 -0.00000000000E+00 -0.00000000000E+00 -0.28765028930E+03  0.28765028930E+03  0.00000000000E+00 0. -1.
    9000005    1    1    2  501    0 -0.17912701412E+03 -0.35192307060E+02  0.58876912363E+03  0.73482927718E+03  0.40000000000E+03 0. -1.
   -9000005    1    1    2    0  502  0.17912701412E+03  0.35192307060E+02  0.10574077641E+02  0.43981450270E+03  0.40000000000E+03 0. -1.
<mgrwt>
<rscale>  2 0.43968737E+03</rscale>
<asrwt>0</asrwt>
<pdfrwt beam="1">  1       21 0.13646054E+00 0.43968737E+03</pdfrwt>
<pdfrwt beam="2">  1       21 0.44253891E-01 0.43968737E+03</pdfrwt>
<totfact> 0.16086857E+03</totfact>
</mgrwt>
</event>
<event>
 4    1  0.4840996E-002  0.4675113E+03  0.7818608E-02  0.1022625E+00
         21   -1    0    0  501  502  0.00000000000E+00  0.00000000000E+00  0.93423363027E+03  0.93423363027E+03  0.00000000000E+00 0. -1.
         21   -1    0    0  502  503 -0.00000000000E+00 -0.00000000000E+00 -0.24866985459E+03  0.24866985459E+03  0.00000000000E+00 0. -1.
    9000005    1    1    2  501    0 -0.10425514355E+03  0.21839790277E+03  0.48666670008E+03  0.67484165243E+03  0.40000000000E+03 0. -1.
   -9000005    1    1    2    0  503  0.10425514355E+03 -0.21839790277E+03  0.19889707559E+03  0.50806183243E+03  0.40000000000E+03 0. -1.
<mgrwt>
<rscale>  2 0.46751126E+03</rscale>
<asrwt>0</asrwt>
<pdfrwt beam="1">  1       21 0.14372825E+00 0.46751126E+03</pdfrwt>
<pdfrwt beam="2">  1       21 0.38256901E-01 0.46751126E+03</pdfrwt>
<totfact> 0.18729627E+03</totfact>
</mgrwt>
</event>
<event>
 4    1  0.4840996E-002  0.4293476E+03  0.7818608E-02  0.1034066E+00
         21   -1    0    0  501  502  0.00000000000E+00  0.00000000000E+00  0.53175253976E+03  0.53175253976E+03  0.00000000000E+00 0. -1.
         21   -1    0    0  502  503 -0.00000000000E+00 -0.00000000000E+00 -0.62973093672E+03  0.62973093672E+03  0.00000000000E+00 0.  1.
    9000005    1    1    2  501    0  0.70784334527E+02 -0.13902859181E+03  0.34036981192E+03  0.54789687006E+03  0.40000000000E+03 0. -1.
   -9000005    1    1    2    0  503 -0.70784334527E+02  0.13902859181E+03 -0.43834820888E+03  0.61358660642E+03  0.40000000000E+03 0.  1.
<mgrwt>
<rscale>  2 0.42934761E+03</rscale>
<asrwt>0</asrwt>
<pdfrwt beam="1">  1       21 0.81808083E-01 0.42934761E+03</pdfrwt>
<pdfrwt beam="2">  1       21 0.96881682E-01 0.42934761E+03</pdfrwt>
<totfact> 0.99177435E+02</totfact>
</mgrwt>
</event>
<event>
 4    1  0.4840996E-002  0.4676584E+03  0.7818608E-02  0.1022583E+00
         21   -1    0    0  501  502  0.00000000000E+00  0.00000000000E+00  0.19893856218E+04  0.19893856218E+04  0.00000000000E+00 0. -1.
         21   -1    0    0  502  503 -0.00000000000E+00 -0.00000000000E+00 -0.20943822989E+03  0.20943822989E+03  0.00000000000E+00 0. -1.
    9000005    1    1    2  501    0  0.22440009562E+03 -0.91372484109E+02  0.16477651603E+04  0.17128439384E+04  0.40000000000E+03 0. -1.
   -9000005    1    1    2    0  503 -0.22440009562E+03  0.91372484109E+02  0.13218223158E+03  0.48597991328E+03  0.40000000000E+03 0. -1.
<mgrwt>
<rscale>  2 0.46765835E+03</rscale>
<asrwt>0</asrwt>
<pdfrwt beam="1">  1       21 0.30605931E+00 0.46765835E+03</pdfrwt>
<pdfrwt beam="2">  1       21 0.32221268E-01 0.46765835E+03</pdfrwt>
<totfact> 0.22638840E+02</totfact>
</mgrwt>
</event>
<event>
 4    1  0.4840996E-002  0.4220030E+03  0.7818608E-02  0.1036416E+00
         21   -1    0    0  501  502  0.00000000000E+00  0.00000000000E+00  0.84641128742E+03  0.84641128742E+03  0.00000000000E+00 0. -1.
         21   -1    0    0  502  503 -0.00000000000E+00 -0.00000000000E+00 -0.33671856386E+03  0.33671856386E+03  0.00000000000E+00 0. -1.
    9000005    1    1    2  501    0 -0.48810172527E+02 -0.12531611543E+03  0.61717208837E+03  0.74765496614E+03  0.40000000000E+03 0. -1.
   -9000005    1    1    2    0  503  0.48810172527E+02  0.12531611543E+03 -0.10747936481E+03  0.43547488514E+03  0.40000000000E+03 0. -1.
<mgrwt>
<rscale>  2 0.42200304E+03</rscale>
<asrwt>0</asrwt>
<pdfrwt beam="1">  1       21 0.13021712E+00 0.42200304E+03</pdfrwt>
<pdfrwt beam="2">  1       21 0.51802856E-01 0.42200304E+03</pdfrwt>
<totfact> 0.13129768E+03</totfact>
</mgrwt>
</event>
<event>
 4    1  0.4840996E-002  0.5006573E+03  0.7818608E-02  0.1013608E+00
         21   -1    0    0  501  502  0.00000000000E+00  0.00000000000E+00  0.62690044070E+03  0.62690044070E+03  0.00000000000E+00 0.  1.
         21   -1    0    0  502  503 -0.00000000000E+00 -0.00000000000E+00 -0.40319342812E+03  0.40319342812E+03  0.00000000000E+00 0.  1.
    9000005    1    1    2  501    0 -0.17723518640E+03 -0.24340374576E+03  0.15884934267E+03  0.52525308987E+03  0.40000000000E+03 0.  1.
   -9000005    1    1    2    0  503  0.17723518640E+03  0.24340374576E+03  0.64857669907E+02  0.50484077895E+03  0.40000000000E+03 0.  1.
<mgrwt>
<rscale>  2 0.50065726E+03</rscale>
<asrwt>0</asrwt>
<pdfrwt beam="1">  1       21 0.96446222E-01 0.50065726E+03</pdfrwt>
<pdfrwt beam="2">  1       21 0.62029758E-01 0.50065726E+03</pdfrwt>
<totfact> 0.18241337E+03</totfact>
</mgrwt>
</event>
<event>
 4    1  0.4840996E-002  0.4385500E+03  0.7818608E-02  0.1031193E+00
         21   -1    0    0  503  502  0.00000000000E+00  0.00000000000E+00  0.48821450949E+03  0.48821450949E+03  0.00000000000E+00 0. -1.
         21   -1    0    0  501  503 -0.00000000000E+00 -0.00000000000E+00 -0.39515605167E+03  0.39515605167E+03  0.00000000000E+00 0.  1.
    9000005    1    1    2  501    0  0.15688258041E+03  0.87829303811E+02  0.22004506047E+02  0.43910172959E+03  0.40000000000E+03 0. -1.
   -9000005    1    1    2    0  502 -0.15688258041E+03 -0.87829303811E+02  0.71053951768E+02  0.44426883157E+03  0.40000000000E+03 0.  1.
<mgrwt>
<rscale>  2 0.43855003E+03</rscale>
<asrwt>0</asrwt>
<pdfrwt beam="1">  1       21 0.75109924E-01 0.43855003E+03</pdfrwt>
<pdfrwt beam="2">  1       21 0.60793239E-01 0.43855003E+03</pdfrwt>
<totfact> 0.35012793E+03</totfact>
</mgrwt>
</event>
<event>
 4    1  0.4840996E-002  0.4101407E+03  0.7818608E-02  0.1040324E+00
         21   -1    0    0  501  502  0.00000000000E+00  0.00000000000E+00  0.62676792681E+03  0.62676792681E+03  0.00000000000E+00 0. -1.
         21   -1    0    0  502  503 -0.00000000000E+00 -0.00000000000E+00 -0.39374566916E+03  0.39374566916E+03  0.00000000000E+00 0. -1.
    9000005    1    1    2  501    0 -0.58705848036E+02 -0.69058067732E+02  0.40442379572E+03  0.57599826376E+03  0.40000000000E+03 0. -1.
   -9000005    1    1    2    0  503  0.58705848036E+02  0.69058067732E+02 -0.17140153807E+03  0.44451533220E+03  0.40000000000E+03 0. -1.
<mgrwt>
<rscale>  2 0.41014070E+03</rscale>
<asrwt>0</asrwt>
<pdfrwt beam="1">  1       21 0.96425835E-01 0.41014070E+03</pdfrwt>
<pdfrwt beam="2">  1       21 0.60576257E-01 0.41014070E+03</pdfrwt>
<totfact> 0.19893216E+03</totfact>
</mgrwt>
</event>
<event>
 4    1  0.4840996E-002  0.5125241E+03  0.7818608E-02  0.1010561E+00
         21   -1    0    0  501  502  0.00000000000E+00  0.00000000000E+00  0.88494389052E+03  0.88494389052E+03  0.00000000000E+00 0. -1.
         21   -1    0    0  502  503 -0.00000000000E+00 -0.00000000000E+00 -0.39246841945E+03  0.39246841945E+03  0.00000000000E+00 0. -1.
    9000005    1    1    2  501    0 -0.32010184635E+03  0.14690320935E+02  0.56152539890E+03  0.76025770050E+03  0.40000000000E+03 0. -1.
   -9000005    1    1    2    0  503  0.32010184635E+03 -0.14690320935E+02 -0.69049927820E+02  0.51715460947E+03  0.40000000000E+03 0. -1.
<mgrwt>
<rscale>  2 0.51252414E+03</rscale>
<asrwt>0</asrwt>
<pdfrwt beam="1">  1       21 0.13614521E+00 0.51252414E+03</pdfrwt>
<pdfrwt beam="2">  1       21 0.60379757E-01 0.51252414E+03</pdfrwt>
<totfact> 0.80842470E+02</totfact>
</mgrwt>
</event>
<event>
 4    1  0.4840996E-002  0.4173742E+03  0.7818608E-02  0.1037924E+00
         21   -1    0    0  501  502  0.00000000000E+00  0.00000000000E+00  0.39994583086E+03  0.39994583086E+03  0.00000000000E+00 0. -1.
         21   -1    0    0  502  503 -0.00000000000E+00 -0.00000000000E+00 -0.45391801960E+03  0.45391801960E+03  0.00000000000E+00 0. -1.
    9000005    1    1    2  501    0 -0.99460029950E+02  0.65642107922E+02  0.58867766391E+02  0.42150515751E+03  0.40000000000E+03 0. -1.
   -9000005    1    1    2    0  503  0.99460029950E+02 -0.65642107922E+02 -0.11283995514E+03  0.43235869295E+03  0.40000000000E+03 0. -1.
<mgrwt>
<rscale>  2 0.41737415E+03</rscale>
<asrwt>0</asrwt>
<pdfrwt beam="1">  1       21 0.61530128E-01 0.41737415E+03</pdfrwt>
<pdfrwt beam="2">  1       21 0.69833541E-01 0.41737415E+03</pdfrwt>
<totfact> 0.40517104E+03</totfact>
</mgrwt>
</event>
<event>
 4    1  0.4840996E-002  0.4183286E+03  0.7818608E-02  0.1037612E+00
         21   -1    0    0  503  502  0.00000000000E+00  0.00000000000E+00  0.11996218123E+04  0.11996218123E+04  0.00000000000E+00 0. -1.
         21   -1    0    0  501  503 -0.00000000000E+00 -0.00000000000E+00 -0.38725996042E+03  0.38725996042E+03  0.00000000000E+00 0. -1.
    9000005    1    1    2  501    0  0.11485379685E+03  0.42514083365E+02 -0.22023872682E+03  0.47276203182E+03  0.40000000000E+03 0. -1.
   -9000005    1    1    2    0  502 -0.11485379685E+03 -0.42514083365E+02  0.10326005787E+04  0.11141197409E+04  0.40000000000E+03 0. -1.
<mgrwt>
<rscale>  2 0.41832863E+03</rscale>
<asrwt>0</asrwt>
<pdfrwt beam="1">  1       21 0.18455720E+00 0.41832863E+03</pdfrwt>
<pdfrwt beam="2">  1       21 0.59578456E-01 0.41832863E+03</pdfrwt>
<totfact> 0.37238659E+02</totfact>
</mgrwt>
</event>
<event>
 4    1  0.4840996E-002  0.4323553E+03  0.7818608E-02  0.1033119E+00
         21   -1    0    0  503  502  0.00000000000E+00  0.00000000000E+00  0.46450678119E+03  0.46450678119E+03  0.00000000000E+00 0.  1.
         21   -1    0    0  501  503 -0.00000000000E+00 -0.00000000000E+00 -0.51093551767E+03  0.51093551767E+03  0.00000000000E+00 0.  1.
    9000005    1    1    2  501    0 -0.13933034606E+03  0.86707274640E+02 -0.24797282177E+03  0.49841911796E+03  0.40000000000E+03 0.  1.
   -9000005    1    1    2    0  502  0.13933034606E+03 -0.86707274640E+02  0.20154408528E+03  0.47702318091E+03  0.40000000000E+03 0.  1.
<mgrwt>
<rscale>  2 0.43235529E+03</rscale>
<asrwt>0</asrwt>
<pdfrwt beam="1">  1       21 0.71462582E-01 0.43235529E+03</pdfrwt>
<pdfrwt beam="2">  1       21 0.78605464E-01 0.43235529E+03</pdfrwt>
<totfact> 0.22061647E+03</totfact>
</mgrwt>
</event>
<event>
 4    1  0.4840996E-002  0.4145640E+03  0.7818608E-02  0.1038850E+00
         21   -1    0    0  503  502  0.00000000000E+00  0.00000000000E+00  0.28751497914E+03  0.28751497914E+03  0.00000000000E+00 0.  1.
         21   -1    0    0  501  503 -0.00000000000E+00 -0.00000000000E+00 -0.69833257656E+03  0.69833257656E+03  0.00000000000E+00 0. -1.
    9000005    1    1    2  501    0  0.92574722334E+02 -0.57386891140E+02 -0.39247725676E+03  0.57087803563E+03  0.40000000000E+03 0. -1.
   -9000005    1    1    2    0  502 -0.92574722334E+02  0.57386891140E+02 -0.18340340658E+02  0.41496952007E+03  0.40000000000E+03 0. -1.
<mgrwt>
<rscale>  2 0.41456403E+03</rscale>
<asrwt>0</asrwt>
<pdfrwt beam="1">  1       21 0.44233074E-01 0.41456403E+03</pdfrwt>
<pdfrwt beam="2">  1       21 0.10743578E+00 0.41456403E+03</pdfrwt>
<totfact> 0.29868415E+03</totfact>
</mgrwt>
</event>
<event>
 4    1  0.4840996E-002  0.4027855E+03  0.7818608E-02  0.1042819E+00
         21   -1    0    0  503  502  0.00000000000E+00  0.00000000000E+00  0.31168027633E+03  0.31168027633E+03  0.00000000000E+00 0. -1.
         21   -1    0    0  501  503 -0.00000000000E+00 -0.00000000000E+00 -0.60541167723E+03  0.60541167723E+03  0.00000000000E+00 0. -1.
    9000005    1    1    2  501    0  0.24971653584E+02 -0.40157105019E+02 -0.31857234457E+03  0.51354115248E+03  0.40000000000E+03 0. -1.
   -9000005    1    1    2    0  502 -0.24971653584E+02  0.40157105019E+02  0.24840943675E+02  0.40355080108E+03  0.40000000000E+03 0. -1.
<mgrwt>
<rscale>  2 0.40278552E+03</rscale>
<asrwt>0</asrwt>
<pdfrwt beam="1">  1       21 0.47950813E-01 0.40278552E+03</pdfrwt>
<pdfrwt beam="2">  1       21 0.93140256E-01 0.40278552E+03</pdfrwt>
<totfact> 0.35812235E+03</totfact>
</mgrwt>
</event>
<event>
 4    1  0.4840996E-002  0.4997458E+03  0.7818608E-02  0.1013845E+00
         21   -1    0    0  503  502  0.00000000000E+00  0.00000000000E+00  0.44304401826E+03  0.44304401826E+03  0.00000000000E+00 0.  1.
         21   -1    0    0  501  503 -0.00000000000E+00 -0.00000000000E+00 -0.78063754334E+03  0.78063754334E+03  0.00000000000E+00 0. -1.
    9000005    1    1    2  501    0 -0.28700466058E+03 -0.85873231697E+02 -0.49133157929E+03  0.70082280779E+03  0.40000000000E+03 0. -1.
   -9000005    1    1    2    0  502  0.28700466058E+03  0.85873231697E+02  0.15373805421E+03  0.52285875380E+03  0.40000000000E+03 0.  1.
<mgrwt>
<rscale>  2 0.49974582E+03</rscale>
<asrwt>0</asrwt>
<pdfrwt beam="1">  1       21 0.68160619E-01 0.49974582E+03</pdfrwt>
<pdfrwt beam="2">  1       21 0.12009808E+00 0.49974582E+03</pdfrwt>
<totfact> 0.85897201E+02</totfact>
</mgrwt>
</event>
<event>
 4    1  0.4840996E-002  0.4179766E+03  0.7818608E-02  0.1037727E+00
         21   -1    0    0  503  502  0.00000000000E+00  0.00000000000E+00  0.21561177696E+03  0.21561177696E+03  0.00000000000E+00 0.  1.
         21   -1    0    0  501  503 -0.00000000000E+00 -0.00000000000E+00 -0.26377666407E+04  0.26377666407E+04  0.00000000000E+00 0.  1.
    9000005    1    1    2  501    0 -0.70418707757E+02 -0.98719908105E+02 -0.23985924766E+04  0.24347382372E+04  0.40000000000E+03 0.  1.
   -9000005    1    1    2    0  502  0.70418707757E+02  0.98719908105E+02 -0.23562387155E+02  0.41864018052E+03  0.40000000000E+03 0.  1.
<mgrwt>
<rscale>  2 0.41797657E+03</rscale>
<asrwt>0</asrwt>
<pdfrwt beam="1">  1       21 0.33171042E-01 0.41797657E+03</pdfrwt>
<pdfrwt beam="2">  1       21 0.40581025E+00 0.41797657E+03</pdfrwt>
<totfact> 0.53398712E+01</totfact>
</mgrwt>
</event>
<event>
 4    1  0.4840996E-002  0.4562760E+03  0.7818608E-02  0.1025867E+00
         21   -1    0    0  503  502  0.00000000000E+00  0.00000000000E+00  0.73019901232E+03  0.73019901232E+03  0.00000000000E+00 0. -1.
         21   -1    0    0  501  503 -0.00000000000E+00 -0.00000000000E+00 -0.37691075173E+03  0.37691075173E+03  0.00000000000E+00 0.  1.
    9000005    1    1    2  501    0 -0.14389329933E+03  0.16577845968E+03 -0.96544202284E+02  0.46637813229E+03  0.40000000000E+03 0.  1.
   -9000005    1    1    2    0  502  0.14389329933E+03 -0.16577845968E+03  0.44983246287E+03  0.64073163176E+03  0.40000000000E+03 0. -1.
<mgrwt>
<rscale>  2 0.45627599E+03</rscale>
<asrwt>0</asrwt>
<pdfrwt beam="1">  1       21 0.11233831E+00 0.45627599E+03</pdfrwt>
<pdfrwt beam="2">  1       21 0.57986270E-01 0.45627599E+03</pdfrwt>
<totfact> 0.14777622E+03</totfact>
</mgrwt>
</event>
<event>
 4    1  0.4840996E-002  0.4134081E+03  0.7818608E-02  0.1039233E+00
         21   -1    0    0  501  502  0.00000000000E+00  0.00000000000E+00  0.28683754393E+03  0.28683754393E+03  0.00000000000E+00 0.  1.
         21   -1    0    0  502  503 -0.00000000000E+00 -0.00000000000E+00 -0.87553197414E+03  0.87553197414E+03  0.00000000000E+00 0.  1.
    9000005    1    1    2  501    0 -0.65938466432E+02 -0.80983971828E+02 -0.62284037109E+03  0.74755361875E+03  0.40000000000E+03 0. -1.
   -9000005    1    1    2    0  503  0.65938466432E+02  0.80983971828E+02  0.34145940874E+02  0.41481589932E+03  0.40000000000E+03 0. -1.
<mgrwt>
<rscale>  2 0.41340813E+03</rscale>
<asrwt>0</asrwt>
<pdfrwt beam="1">  1       21 0.44128854E-01 0.41340813E+03</pdfrwt>
<pdfrwt beam="2">  1       21 0.13469722E+00 0.41340813E+03</pdfrwt>
<totfact> 0.16927639E+03</totfact>
</mgrwt>
</event>
<event>
 4    1  0.4840996E-002  0.5599403E+03  0.7818608E-02  0.9992190E-01
         21   -1    0    0  503  502  0.00000000000E+00  0.00000000000E+00  0.85188160978E+03  0.85188160978E+03  0.00000000000E+00 0. -1.
         21   -1    0    0  501  503 -0.00000000000E+00 -0.00000000000E+00 -0.80984625510E+03  0.80984625510E+03  0.00000000000E+00 0.  1.
    9000005    1    1    2  501    0  0.39116902160E+03 -0.22801424715E+02 -0.59266058417E+03  0.81534022129E+03  0.40000000000E+03 0. -1.
   -9000005    1    1    2    0  502 -0.39116902160E+03  0.22801424715E+02  0.63469593885E+03  0.84638764359E+03  0.40000000000E+03 0.  1.
<mgrwt>
<rscale>  2 0.55994027E+03</rscale>
<asrwt>0</asrwt>
<pdfrwt beam="1">  1       21 0.13105871E+00 0.55994027E+03</pdfrwt>
<pdfrwt beam="2">  1       21 0.12459173E+00 0.55994027E+03</pdfrwt>
<totfact> 0.15747085E+02</totfact>
</mgrwt>
</event>
<event>
 4    1  0.4840996E-002  0.4624659E+03  0.7818608E-02  0.1024068E+00
         21   -1    0    0  501  502  0.00000000000E+00  0.00000000000E+00  0.21754767155E+04  0.21754767155E+04  0.00000000000E+00 0.  1.
         21   -1    0    0  502  503 -0.00000000000E+00 -0.00000000000E+00 -0.98414797996E+02  0.98414797996E+02  0.00000000000E+00 0.  1.
    9000005    1    1    2  501    0  0.13712693574E+03 -0.18727240597E+03  0.10017268521E+04  0.11033274386E+04  0.40000000000E+03 0.  1.
   -9000005    1    1    2    0  503 -0.13712693574E+03  0.18727240597E+03  0.10753350654E+04  0.11705640749E+04  0.40000000000E+03 0.  1.
<mgrwt>
<rscale>  2 0.46246595E+03</rscale>
<asrwt>0</asrwt>
<pdfrwt beam="1">  1       21 0.33468869E+00 0.46246595E+03</pdfrwt>
<pdfrwt beam="2">  1       21 0.15140740E-01 0.46246595E+03</pdfrwt>
<totfact> 0.65252096E+02</totfact>
</mgrwt>
</event>
<event>
 4    1  0.4840996E-002  0.4030235E+03  0.7818608E-02  0.1042738E+00
         21   -1    0    0  503  502  0.00000000000E+00  0.00000000000E+00  0.10054605861E+04  0.10054605861E+04  0.00000000000E+00 0. -1.
         21   -1    0    0  501  503 -0.00000000000E+00 -0.00000000000E+00 -0.18990968932E+03  0.18990968932E+03  0.00000000000E+00 0. -1.
    9000005    1    1    2  501    0  0.43872280894E+02 -0.22431564756E+02  0.17679157824E+03  0.44009455151E+03  0.40000000000E+03 0.  1.
   -9000005    1    1    2    0  502 -0.43872280894E+02  0.22431564756E+02  0.63875931855E+03  0.75527572393E+03  0.40000000000E+03 0.  1.
<mgrwt>
<rscale>  2 0.40302351E+03</rscale>
<asrwt>0</asrwt>
<pdfrwt beam="1">  1       21 0.15468624E+00 0.40302351E+03</pdfrwt>
<pdfrwt beam="2">  1       21 0.29216876E-01 0.40302351E+03</pdfrwt>
<totfact> 0.27099403E+03</totfact>
</mgrwt>
</event>
<event>
 4    1  0.4840996E-002  0.4017321E+03  0.7818608E-02  0.1043182E+00
         21   -1    0    0  503  502  0.00000000000E+00  0.00000000000E+00  0.29394343697E+03  0.29394343697E+03  0.00000000000E+00 0.  1.
         21   -1    0    0  501  503 -0.00000000000E+00 -0.00000000000E+00 -0.60645920393E+03  0.60645920393E+03  0.00000000000E+00 0.  1.
    9000005    1    1    2  501    0  0.37052251522E+02 -0.39788510597E+01 -0.29477673155E+03  0.49827906043E+03  0.40000000000E+03 0.  1.
   -9000005    1    1    2    0  502 -0.37052251522E+02  0.39788510597E+01 -0.17739035412E+02  0.40212358048E+03  0.40000000000E+03 0.  1.
<mgrwt>
<rscale>  2 0.40173213E+03</rscale>
<asrwt>0</asrwt>
<pdfrwt beam="1">  1       21 0.45222068E-01 0.40173213E+03</pdfrwt>
<pdfrwt beam="2">  1       21 0.93301415E-01 0.40173213E+03</pdfrwt>
<totfact> 0.40351482E+03</totfact>
</mgrwt>
</event>
<event>
 4    1  0.4840996E-002  0.4293579E+03  0.7818608E-02  0.1034063E+00
         21   -1    0    0  503  502  0.00000000000E+00  0.00000000000E+00  0.67379846760E+03  0.67379846760E+03  0.00000000000E+00 0. -1.
         21   -1    0    0  501  503 -0.00000000000E+00 -0.00000000000E+00 -0.27440417165E+03  0.27440417165E+03  0.00000000000E+00 0. -1.
    9000005    1    1    2  501    0 -0.13946626216E+02  0.15541447960E+03  0.17395849913E+03  0.46325989279E+03  0.40000000000E+03 0. -1.
   -9000005    1    1    2    0  502  0.13946626216E+02 -0.15541447960E+03  0.22543579682E+03  0.48494274646E+03  0.40000000000E+03 0. -1.
<mgrwt>
<rscale>  2 0.42935786E+03</rscale>
<asrwt>0</asrwt>
<pdfrwt beam="1">  1       21 0.10366130E+00 0.42935786E+03</pdfrwt>
<pdfrwt beam="2">  1       21 0.42216026E-01 0.42935786E+03</pdfrwt>
<totfact> 0.35738920E+03</totfact>
</mgrwt>
</event>
<event>
 4    1  0.4840996E-002  0.4631080E+03  0.7818608E-02  0.1023884E+00
         21   -1    0    0  501  502  0.00000000000E+00  0.00000000000E+00  0.54023216613E+03  0.54023216613E+03  0.00000000000E+00 0.  1.
         21   -1    0    0  502  503 -0.00000000000E+00 -0.00000000000E+00 -0.42413842795E+03  0.42413842795E+03  0.00000000000E+00 0.  1.
    9000005    1    1    2  501    0  0.20995802233E+03  0.10191509582E+03  0.18002966518E+03  0.49686994097E+03  0.40000000000E+03 0.  1.
   -9000005    1    1    2    0  503 -0.20995802233E+03 -0.10191509582E+03 -0.63935927001E+02  0.46750065311E+03  0.40000000000E+03 0.  1.
<mgrwt>
<rscale>  2 0.46310804E+03</rscale>
<asrwt>0</asrwt>
<pdfrwt beam="1">  1       21 0.83112641E-01 0.46310804E+03</pdfrwt>
<pdfrwt beam="2">  1       21 0.65252066E-01 0.46310804E+03</pdfrwt>
<totfact> 0.23504666E+03</totfact>
</mgrwt>
</event>
<event>
 4    1  0.4840996E-002  0.4382756E+03  0.7818608E-02  0.1031277E+00
         21   -1    0    0  503  502  0.00000000000E+00  0.00000000000E+00  0.51819176416E+03  0.51819176416E+03  0.00000000000E+00 0. -1.
         21   -1    0    0  501  503 -0.00000000000E+00 -0.00000000000E+00 -0.37421460662E+03  0.37421460662E+03  0.00000000000E+00 0. -1.
    9000005    1    1    2  501    0 -0.62975598762E+02  0.16768899340E+03  0.28649298442E+02  0.43921100493E+03  0.40000000000E+03 0.  1.
   -9000005    1    1    2    0  502  0.62975598762E+02 -0.16768899340E+03  0.11532785910E+03  0.45319536585E+03  0.40000000000E+03 0.  1.
<mgrwt>
<rscale>  2 0.43827563E+03</rscale>
<asrwt>0</asrwt>
<pdfrwt beam="1">  1       21 0.79721810E-01 0.43827563E+03</pdfrwt>
<pdfrwt beam="2">  1       21 0.57571478E-01 0.43827563E+03</pdfrwt>
<totfact> 0.34402565E+03</totfact>
</mgrwt>
</event>
<event>
 4    1  0.4840996E-002  0.4905989E+03  0.7818608E-02  0.1016262E+00
         21   -1    0    0  501  502  0.00000000000E+00  0.00000000000E+00  0.10744236439E+04  0.10744236439E+04  0.00000000000E+00 0. -1.
         21   -1    0    0  502  503 -0.00000000000E+00 -0.00000000000E+00 -0.52248575453E+03  0.52248575453E+03  0.00000000000E+00 0. -1.
    9000005    1    1    2  501    0 -0.63315884581E+02  0.27690858922E+03  0.87945018323E+03  0.10070351994E+04  0.40000000000E+03 0. -1.
   -9000005    1    1    2    0  503  0.63315884581E+02 -0.27690858922E+03 -0.32751229388E+03  0.58987419902E+03  0.40000000000E+03 0. -1.
<mgrwt>
<rscale>  2 0.49059889E+03</rscale>
<asrwt>0</asrwt>
<pdfrwt beam="1">  1       21 0.16529594E+00 0.49059889E+03</pdfrwt>
<pdfrwt beam="2">  1       21 0.80382424E-01 0.49059889E+03</pdfrwt>
<totfact> 0.25172204E+02</totfact>
</mgrwt>
</event>
<event>
 4    1  0.4840996E-002  0.5783565E+03  0.7818608E-02  0.9951356E-01
         21   -1    0    0  503  502  0.00000000000E+00  0.00000000000E+00  0.82864976432E+03  0.82864976432E+03  0.00000000000E+00 0.  1.
         21   -1    0    0  501  503 -0.00000000000E+00 -0.00000000000E+00 -0.53740788760E+03  0.53740788760E+03  0.00000000000E+00 0. -1.
    9000005    1    1    2  501    0  0.34976348481E+03  0.22838942908E+03 -0.19511951402E+03  0.61038336427E+03  0.40000000000E+03 0. -1.
   -9000005    1    1    2    0  502 -0.34976348481E+03 -0.22838942908E+03  0.48636139073E+03  0.75567428765E+03  0.40000000000E+03 0.  1.
<mgrwt>
<rscale>  2 0.57835649E+03</rscale>
<asrwt>0</asrwt>
<pdfrwt beam="1">  1       21 0.12748458E+00 0.57835649E+03</pdfrwt>
<pdfrwt beam="2">  1       21 0.82678137E-01 0.57835649E+03</pdfrwt>
<totfact> 0.45976557E+02</totfact>
</mgrwt>
</event>
<event>
 4    1  0.4840996E-002  0.4543565E+03  0.7818608E-02  0.1026431E+00
         21   -1    0    0  503  502  0.00000000000E+00  0.00000000000E+00  0.37178915764E+03  0.37178915764E+03  0.00000000000E+00 0.  1.
         21   -1    0    0  501  503 -0.00000000000E+00 -0.00000000000E+00 -0.73684712652E+03  0.73684712652E+03  0.00000000000E+00 0.  1.
    9000005    1    1    2  501    0 -0.20190565164E+03  0.75325748164E+02  0.92648083706E+02  0.46370629489E+03  0.40000000000E+03 0.  1.
   -9000005    1    1    2    0  502  0.20190565164E+03 -0.75325748164E+02 -0.45770605259E+03  0.64492998928E+03  0.40000000000E+03 0.  1.
<mgrwt>
<rscale>  2 0.45435653E+03</rscale>
<asrwt>0</asrwt>
<pdfrwt beam="1">  1       21 0.57198332E-01 0.45435653E+03</pdfrwt>
<pdfrwt beam="2">  1       21 0.11336110E+00 0.45435653E+03</pdfrwt>
<totfact> 0.14895502E+03</totfact>
</mgrwt>
</event>
<event>
 4    1  0.4840996E-002  0.4089495E+03  0.7818608E-02  0.1040724E+00
         21   -1    0    0  503  502  0.00000000000E+00  0.00000000000E+00  0.70116451396E+02  0.70116451396E+02  0.00000000000E+00 0.  1.
         21   -1    0    0  501  503 -0.00000000000E+00 -0.00000000000E+00 -0.25421963269E+04  0.25421963269E+04  0.00000000000E+00 0. -1.
    9000005    1    1    2  501    0 -0.84016404900E+02 -0.13451858518E+02 -0.15606603597E+04  0.16133506956E+04  0.40000000000E+03 0. -1.
   -9000005    1    1    2    0  502  0.84016404900E+02  0.13451858518E+02 -0.91141951581E+03  0.99896208266E+03  0.40000000000E+03 0.  1.
<mgrwt>
<rscale>  2 0.40894952E+03</rscale>
<asrwt>0</asrwt>
<pdfrwt beam="1">  1       21 0.10787146E-01 0.40894952E+03</pdfrwt>
<pdfrwt beam="2">  1       21 0.39110714E+00 0.40894952E+03</pdfrwt>
<totfact> 0.56093924E+02</totfact>
</mgrwt>
</event>
<event>
 4    1  0.4840996E-002  0.4913882E+03  0.7818608E-02  0.1016051E+00
         21   -1    0    0  503  502  0.00000000000E+00  0.00000000000E+00  0.36887140578E+03  0.36887140578E+03  0.00000000000E+00 0.  1.
         21   -1    0    0  501  503 -0.00000000000E+00 -0.00000000000E+00 -0.11006044554E+04  0.11006044554E+04  0.00000000000E+00 0.  1.
    9000005    1    1    2  501    0  0.24679965681E+03 -0.14336057207E+03 -0.83358832366E+03  0.96764240170E+03  0.40000000000E+03 0.  1.
   -9000005    1    1    2    0  502 -0.24679965681E+03  0.14336057207E+03  0.10185527402E+03  0.50183345950E+03  0.40000000000E+03 0.  1.
<mgrwt>
<rscale>  2 0.49138816E+03</rscale>
<asrwt>0</asrwt>
<pdfrwt beam="1">  1       21 0.56749449E-01 0.49138816E+03</pdfrwt>
<pdfrwt beam="2">  1       21 0.16932376E+00 0.49138816E+03</pdfrwt>
<totfact> 0.51319192E+02</totfact>
</mgrwt>
</event>
<event>
 4    1  0.4840996E-002  0.4745492E+03  0.7818608E-02  0.1020644E+00
         21   -1    0    0  503  502  0.00000000000E+00  0.00000000000E+00  0.28446436779E+03  0.28446436779E+03  0.00000000000E+00 0.  1.
         21   -1    0    0  501  503 -0.00000000000E+00 -0.00000000000E+00 -0.12929158045E+04  0.12929158045E+04  0.00000000000E+00 0.  1.
    9000005    1    1    2  501    0  0.17384792996E+03  0.18701281512E+03 -0.99530799998E+03  0.11026490423E+04  0.40000000000E+03 0.  1.
   -9000005    1    1    2    0  502 -0.17384792996E+03 -0.18701281512E+03 -0.13143436686E+02  0.47473112990E+03  0.40000000000E+03 0.  1.
<mgrwt>
<rscale>  2 0.47454915E+03</rscale>
<asrwt>0</asrwt>
<pdfrwt beam="1">  1       21 0.43763749E-01 0.47454915E+03</pdfrwt>
<pdfrwt beam="2">  1       21 0.19891012E+00 0.47454915E+03</pdfrwt>
<totfact> 0.55863700E+02</totfact>
</mgrwt>
</event>
<event>
 4    1  0.4840996E-002  0.5769280E+03  0.7818608E-02  0.9954464E-01
         21   -1    0    0  503  502  0.00000000000E+00  0.00000000000E+00  0.21129648957E+04  0.21129648957E+04  0.00000000000E+00 0. -1.
         21   -1    0    0  501  503 -0.00000000000E+00 -0.00000000000E+00 -0.16106828579E+03  0.16106828579E+03  0.00000000000E+00 0. -1.
    9000005    1    1    2  501    0  0.28290042021E+03  0.30465275255E+03  0.80731961968E+03  0.99227562487E+03  0.40000000000E+03 0. -1.
   -9000005    1    1    2    0  502 -0.28290042021E+03 -0.30465275255E+03  0.11445769902E+04  0.12817575566E+04  0.40000000000E+03 0. -1.
<mgrwt>
<rscale>  2 0.57692803E+03</rscale>
<asrwt>0</asrwt>
<pdfrwt beam="1">  1       21 0.32507150E+00 0.57692803E+03</pdfrwt>
<pdfrwt beam="2">  1       21 0.24779738E-01 0.57692803E+03</pdfrwt>
<totfact> 0.27568704E+02</totfact>
</mgrwt>
</event>
<event>
 4    1  0.4840996E-002  0.5141626E+03  0.7818608E-02  0.1010147E+00
         21   -1    0    0  501  502  0.00000000000E+00  0.00000000000E+00  0.26946174699E+03  0.26946174699E+03  0.00000000000E+00 0.  1.
         21   -1    0    0  502  503 -0.00000000000E+00 -0.00000000000E+00 -0.15056987727E+04  0.15056987727E+04  0.00000000000E+00 0. -1.
    9000005    1    1    2  501    0 -0.28742679839E+03 -0.14747559439E+03 -0.94203329726E+02  0.52272122848E+03  0.40000000000E+03 0.  1.
   -9000005    1    1    2    0  503  0.28742679839E+03  0.14747559439E+03 -0.11420336960E+04  0.12524392912E+04  0.40000000000E+03 0. -1.
<mgrwt>
<rscale>  2 0.51416264E+03</rscale>
<asrwt>0</asrwt>
<pdfrwt beam="1">  1       21 0.41455655E-01 0.51416264E+03</pdfrwt>
<pdfrwt beam="2">  1       21 0.23164596E+00 0.51416264E+03</pdfrwt>
<totfact> 0.37660588E+02</totfact>
</mgrwt>
</event>
<event>
 4    1  0.4840996E-002  0.4754155E+03  0.7818608E-02  0.1020403E+00
         21   -1    0    0  503  502  0.00000000000E+00  0.00000000000E+00  0.11768287456E+04  0.11768287456E+04  0.00000000000E+00 0. -1.
         21   -1    0    0  501  503 -0.00000000000E+00 -0.00000000000E+00 -0.24818014678E+03  0.24818014678E+03  0.00000000000E+00 0. -1.
    9000005    1    1    2  501    0 -0.77140857203E+02  0.24509017990E+03  0.12550398137E+03  0.49170230574E+03  0.40000000000E+03 0. -1.
   -9000005    1    1    2    0  502  0.77140857203E+02 -0.24509017990E+03  0.80314461741E+03  0.93330658661E+03  0.40000000000E+03 0. -1.
<mgrwt>
<rscale>  2 0.47541551E+03</rscale>
<asrwt>0</asrwt>
<pdfrwt beam="1">  1       21 0.18105057E+00 0.47541551E+03</pdfrwt>
<pdfrwt beam="2">  1       21 0.38181562E-01 0.47541551E+03</pdfrwt>
<totfact> 0.98205351E+02</totfact>
</mgrwt>
</event>
<event>
 4    1  0.4840996E-002  0.4737456E+03  0.7818608E-02  0.1020868E+00
         21   -1    0    0  501  502  0.00000000000E+00  0.00000000000E+00  0.31235249857E+03  0.31235249857E+03  0.00000000000E+00 0. -1.
         21   -1    0    0  502  503 -0.00000000000E+00 -0.00000000000E+00 -0.79735388115E+03  0.79735388115E+03  0.00000000000E+00 0. -1.
    9000005    1    1    2  501    0 -0.24689176937E+03 -0.58986079043E+02 -0.68047417765E+02  0.47860772493E+03  0.40000000000E+03 0. -1.
   -9000005    1    1    2    0  503  0.24689176937E+03  0.58986079043E+02 -0.41695396481E+03  0.63109865479E+03  0.40000000000E+03 0. -1.
<mgrwt>
<rscale>  2 0.47374561E+03</rscale>
<asrwt>0</asrwt>
<pdfrwt beam="1">  1       21 0.48054231E-01 0.47374561E+03</pdfrwt>
<pdfrwt beam="2">  1       21 0.12266983E+00 0.47374561E+03</pdfrwt>
<totfact> 0.17597110E+03</totfact>
</mgrwt>
</event>
<event>
 4    1  0.4840996E-002  0.4721530E+03  0.7818608E-02  0.1021314E+00
         21   -1    0    0  503  502  0.00000000000E+00  0.00000000000E+00  0.80229791567E+03  0.80229791567E+03  0.00000000000E+00 0.  1.
         21   -1    0    0  501  503 -0.00000000000E+00 -0.00000000000E+00 -0.40188416460E+03  0.40188416460E+03  0.00000000000E+00 0.  1.
    9000005    1    1    2  501    0 -0.22615828787E+01 -0.25084523508E+03 -0.13426578266E+03  0.49087243466E+03  0.40000000000E+03 0.  1.
   -9000005    1    1    2    0  502  0.22615828787E+01  0.25084523508E+03  0.53467953374E+03  0.71330964561E+03  0.40000000000E+03 0.  1.
<mgrwt>
<rscale>  2 0.47215299E+03</rscale>
<asrwt>0</asrwt>
<pdfrwt beam="1">  1       21 0.12343045E+00 0.47215299E+03</pdfrwt>
<pdfrwt beam="2">  1       21 0.61828333E-01 0.47215299E+03</pdfrwt>
<totfact> 0.10056778E+03</totfact>
</mgrwt>
</event>
<event>
 4    1  0.4840996E-002  0.5465568E+03  0.7818608E-02  0.1002294E+00
         21   -1    0    0  501  502  0.00000000000E+00  0.00000000000E+00  0.59567529113E+03  0.59567529113E+03  0.00000000000E+00 0. -1.
         21   -1    0    0  502  503 -0.00000000000E+00 -0.00000000000E+00 -0.50476271853E+03  0.50476271853E+03  0.00000000000E+00 0. -1.
    9000005    1    1    2  501    0 -0.23909756744E+03  0.28558126307E+03  0.11417518803E+01  0.54655796414E+03  0.40000000000E+03 0. -1.
   -9000005    1    1    2    0  503  0.23909756744E+03 -0.28558126307E+03  0.89770820715E+02  0.55388004552E+03  0.40000000000E+03 0. -1.
<mgrwt>
<rscale>  2 0.54655677E+03</rscale>
<asrwt>0</asrwt>
<pdfrwt beam="1">  1       21 0.91642352E-01 0.54655677E+03</pdfrwt>
<pdfrwt beam="2">  1       21 0.77655803E-01 0.54655677E+03</pdfrwt>
<totfact> 0.12232768E+03</totfact>
</mgrwt>
</event>
<event>
 4    1  0.4840996E-002  0.4230254E+03  0.7818608E-02  0.1036086E+00
         21   -1    0    0  503  502  0.00000000000E+00  0.00000000000E+00  0.65344727397E+03  0.65344727397E+03  0.00000000000E+00 0. -1.
         21   -1    0    0  501  503 -0.00000000000E+00 -0.00000000000E+00 -0.28366047457E+03  0.28366047457E+03  0.00000000000E+00 0. -1.
    9000005    1    1    2  501    0  0.67200563332E+02  0.12014380078E+03  0.97782488477E+02  0.43417952926E+03  0.40000000000E+03 0. -1.
   -9000005    1    1    2    0  502 -0.67200563332E+02 -0.12014380078E+03  0.27200431092E+03  0.50292821927E+03  0.40000000000E+03 0. -1.
<mgrwt>
<rscale>  2 0.42302535E+03</rscale>
<asrwt>0</asrwt>
<pdfrwt beam="1">  1       21 0.10053035E+00 0.42302535E+03</pdfrwt>
<pdfrwt beam="2">  1       21 0.43640073E-01 0.42302535E+03</pdfrwt>
<totfact> 0.36037815E+03</totfact>
</mgrwt>
</event>
<event>
 4    1  0.4840996E-002  0.4281443E+03  0.7818608E-02  0.1034448E+00
         21   -1    0    0  501  502  0.00000000000E+00  0.00000000000E+00  0.71521112004E+03  0.71521112004E+03  0.00000000000E+00 0. -1.
         21   -1    0    0  502  503 -0.00000000000E+00 -0.00000000000E+00 -0.38211366446E+03  0.38211366446E+03  0.00000000000E+00 0. -1.
    9000005    1    1    2  501    0 -0.84629348801E+02 -0.12706448113E+03  0.48137826532E+03  0.64423019439E+03  0.40000000000E+03 0. -1.
   -9000005    1    1    2    0  503  0.84629348801E+02  0.12706448113E+03 -0.14828080974E+03  0.45309459010E+03  0.40000000000E+03 0. -1.
<mgrwt>
<rscale>  2 0.42814426E+03</rscale>
<asrwt>0</asrwt>
<pdfrwt beam="1">  1       21 0.11003248E+00 0.42814426E+03</pdfrwt>
<pdfrwt beam="2">  1       21 0.58786718E-01 0.42814426E+03</pdfrwt>
<totfact> 0.15272291E+03</totfact>
</mgrwt>
</event>
<event>
 4    1  0.4840996E-002  0.5847402E+03  0.7818608E-02  0.9937581E-01
         21   -1    0    0  501  502  0.00000000000E+00  0.00000000000E+00  0.24602745368E+03  0.24602745368E+03  0.00000000000E+00 0. -1.
         21   -1    0    0  502  503 -0.00000000000E+00 -0.00000000000E+00 -0.15355355824E+04  0.15355355824E+04  0.00000000000E+00 0.  1.
    9000005    1    1    2  501    0  0.35345279091E+03 -0.23873038363E+03 -0.91920947456E+03  0.10894343163E+04  0.40000000000E+03 0. -1.
   -9000005    1    1    2    0  503 -0.35345279091E+03  0.23873038363E+03 -0.37029865419E+03  0.69212871979E+03  0.40000000000E+03 0.  1.
<mgrwt>
<rscale>  2 0.58474017E+03</rscale>
<asrwt>0</asrwt>
<pdfrwt beam="1">  1       21 0.37850377E-01 0.58474017E+03</pdfrwt>
<pdfrwt beam="2">  1       21 0.23623624E+00 0.58474017E+03</pdfrwt>
<totfact> 0.41255295E+02</totfact>
</mgrwt>
</event>
<event>
 4    1  0.4840996E-002  0.4325230E+03  0.7818608E-02  0.1033066E+00
         21   -1    0    0  503  502  0.00000000000E+00  0.00000000000E+00  0.83717327646E+03  0.83717327646E+03  0.00000000000E+00 0.  1.
         21   -1    0    0  501  503 -0.00000000000E+00 -0.00000000000E+00 -0.34552218549E+03  0.34552218549E+03  0.00000000000E+00 0.  1.
    9000005    1    1    2  501    0 -0.11931472095E+03  0.11331449888E+03 -0.10564786934E+03  0.44523886913E+03  0.40000000000E+03 0.  1.
   -9000005    1    1    2    0  502  0.11931472095E+03 -0.11331449888E+03  0.59729896032E+03  0.73745659282E+03  0.40000000000E+03 0.  1.
<mgrwt>
<rscale>  2 0.43252304E+03</rscale>
<asrwt>0</asrwt>
<pdfrwt beam="1">  1       21 0.12879589E+00 0.43252304E+03</pdfrwt>
<pdfrwt beam="2">  1       21 0.53157260E-01 0.43252304E+03</pdfrwt>
<totfact> 0.12724570E+03</totfact>
</mgrwt>
</event>
<event>
 4    1  0.4840996E-002  0.4403810E+03  0.7818608E-02  0.1030630E+00
         21   -1    0    0  501  502  0.00000000000E+00  0.00000000000E+00  0.38399194681E+03  0.38399194681E+03  0.00000000000E+00 0.  1.
         21   -1    0    0  502  503 -0.00000000000E+00 -0.00000000000E+00 -0.69972391874E+03  0.69972391874E+03  0.00000000000E+00 0. -1.
    9000005    1    1    2  501    0 -0.59764856093E+02 -0.17425142555E+03  0.12794254845E+03  0.45858989635E+03  0.40000000000E+03 0.  1.
   -9000005    1    1    2    0  503  0.59764856093E+02  0.17425142555E+03 -0.44367452038E+03  0.62512596919E+03  0.40000000000E+03 0. -1.
<mgrwt>
<rscale>  2 0.44038097E+03</rscale>
<asrwt>0</asrwt>
<pdfrwt beam="1">  1       21 0.59075685E-01 0.44038097E+03</pdfrwt>
<pdfrwt beam="2">  1       21 0.10764983E+00 0.44038097E+03</pdfrwt>
<totfact> 0.15871737E+03</totfact>
</mgrwt>
</event>
<event>
 4    1  0.4840996E-002  0.4354488E+03  0.7818608E-02  0.1032152E+00
         21   -1    0    0  501  502  0.00000000000E+00  0.00000000000E+00  0.70036374261E+03  0.70036374261E+03  0.00000000000E+00 0. -1.
         21   -1    0    0  502  503 -0.00000000000E+00 -0.00000000000E+00 -0.27375307337E+03  0.27375307337E+03  0.00000000000E+00 0. -1.
    9000005    1    1    2  501    0 -0.83170918818E+02  0.15065945962E+03  0.16219729376E+03  0.46467584036E+03  0.40000000000E+03 0. -1.
   -9000005    1    1    2    0  503  0.83170918818E+02 -0.15065945962E+03  0.26441337548E+03  0.50944097562E+03  0.40000000000E+03 0. -1.
<mgrwt>
<rscale>  2 0.43544882E+03</rscale>
<asrwt>0</asrwt>
<pdfrwt beam="1">  1       21 0.10774827E+00 0.43544882E+03</pdfrwt>
<pdfrwt beam="2">  1       21 0.42115858E-01 0.43544882E+03</pdfrwt>
<totfact> 0.32581909E+03</totfact>
</mgrwt>
</event>
<event>
 4    1  0.4840996E-002  0.4244514E+03  0.7818608E-02  0.1035627E+00
         21   -1    0    0  503  502  0.00000000000E+00  0.00000000000E+00  0.24609147470E+03  0.24609147470E+03  0.00000000000E+00 0. -1.
         21   -1    0    0  501  503 -0.00000000000E+00 -0.00000000000E+00 -0.13182661935E+04  0.13182661935E+04  0.00000000000E+00 0. -1.
    9000005    1    1    2  501    0  0.48424156865E+02  0.13346957774E+03 -0.10576683110E+04  0.11396584064E+04  0.40000000000E+03 0. -1.
   -9000005    1    1    2    0  502 -0.48424156865E+02 -0.13346957774E+03 -0.14506407826E+02  0.42469926185E+03  0.40000000000E+03 0. -1.
<mgrwt>
<rscale>  2 0.42445144E+03</rscale>
<asrwt>0</asrwt>
<pdfrwt beam="1">  1       21 0.37860228E-01 0.42445144E+03</pdfrwt>
<pdfrwt beam="2">  1       21 0.20281018E+00 0.42445144E+03</pdfrwt>
<totfact> 0.72717356E+02</totfact>
</mgrwt>
</event>
<event>
 4    1  0.4840996E-002  0.4686598E+03  0.7818608E-02  0.1022299E+00
         21   -1    0    0  503  502  0.00000000000E+00  0.00000000000E+00  0.43535928582E+03  0.43535928582E+03  0.00000000000E+00 0.  1.
         21   -1    0    0  501  503 -0.00000000000E+00 -0.00000000000E+00 -0.50779924787E+03  0.50779924787E+03  0.00000000000E+00 0.  1.
    9000005    1    1    2  501    0 -0.23450093138E+03  0.68200784531E+02 -0.74188233048E+02  0.47449544545E+03  0.40000000000E+03 0.  1.
   -9000005    1    1    2    0  502  0.23450093138E+03 -0.68200784531E+02  0.17482709971E+01  0.46866308824E+03  0.40000000000E+03 0.  1.
<mgrwt>
<rscale>  2 0.46865983E+03</rscale>
<asrwt>0</asrwt>
<pdfrwt beam="1">  1       21 0.66978352E-01 0.46865983E+03</pdfrwt>
<pdfrwt beam="2">  1       21 0.78122961E-01 0.46865983E+03</pdfrwt>
<totfact> 0.25542799E+03</totfact>
</mgrwt>
</event>
<event>
 4    1  0.4840996E-002  0.5559679E+03  0.7818608E-02  0.1000122E+00
         21   -1    0    0  503  502  0.00000000000E+00  0.00000000000E+00  0.28059390262E+03  0.28059390262E+03  0.00000000000E+00 0.  1.
         21   -1    0    0  501  503 -0.00000000000E+00 -0.00000000000E+00 -0.12070478206E+04  0.12070478206E+04  0.00000000000E+00 0. -1.
    9000005    1    1    2  501    0  0.37055863031E+03 -0.10856590653E+03 -0.68308356237E+03  0.88074026123E+03  0.40000000000E+03 0. -1.
   -9000005    1    1    2    0  502 -0.37055863031E+03  0.10856590653E+03 -0.24337035558E+03  0.60690146196E+03  0.40000000000E+03 0.  1.
<mgrwt>
<rscale>  2 0.55596785E+03</rscale>
<asrwt>0</asrwt>
<pdfrwt beam="1">  1       21 0.43168292E-01 0.55596785E+03</pdfrwt>
<pdfrwt beam="2">  1       21 0.18569967E+00 0.55596785E+03</pdfrwt>
<totfact> 0.68446443E+02</totfact>
</mgrwt>
</event>
<event>
 4    1  0.4840996E-002  0.4288106E+03  0.7818608E-02  0.1034236E+00
         21   -1    0    0  503  502  0.00000000000E+00  0.00000000000E+00  0.12982149222E+03  0.12982149222E+03  0.00000000000E+00 0.  1.
         21   -1    0    0  501  503 -0.00000000000E+00 -0.00000000000E+00 -0.14342501377E+04  0.14342501377E+04  0.00000000000E+00 0.  1.
    9000005    1    1    2  501    0  0.87249758964E+02  0.12753835143E+03 -0.73946968700E+03  0.85480639300E+03  0.40000000000E+03 0. -1.
   -9000005    1    1    2    0  502 -0.87249758964E+02 -0.12753835143E+03 -0.56495895847E+03  0.70926523690E+03  0.40000000000E+03 0. -1.
<mgrwt>
<rscale>  2 0.42881062E+03</rscale>
<asrwt>0</asrwt>
<pdfrwt beam="1">  1       21 0.19972536E-01 0.42881062E+03</pdfrwt>
<pdfrwt beam="2">  1       21 0.22065388E+00 0.42881062E+03</pdfrwt>
<totfact> 0.19556876E+03</totfact>
</mgrwt>
</event>
<event>
 4    1  0.4840996E-002  0.5054750E+03  0.7818608E-02  0.1012360E+00
         21   -1    0    0  503  502  0.00000000000E+00  0.00000000000E+00  0.62726682017E+03  0.62726682017E+03  0.00000000000E+00 0.  1.
         21   -1    0    0  501  503 -0.00000000000E+00 -0.00000000000E+00 -0.40767435028E+03  0.40767435028E+03  0.00000000000E+00 0.  1.
    9000005    1    1    2  501    0  0.17279707492E+03  0.25621509754E+03  0.12482125862E+03  0.52065857518E+03  0.40000000000E+03 0.  1.
   -9000005    1    1    2    0  502 -0.17279707492E+03 -0.25621509754E+03  0.94771211267E+02  0.51428259526E+03  0.40000000000E+03 0.  1.
<mgrwt>
<rscale>  2 0.50547503E+03</rscale>
<asrwt>0</asrwt>
<pdfrwt beam="1">  1       21 0.96502588E-01 0.50547503E+03</pdfrwt>
<pdfrwt beam="2">  1       21 0.62719131E-01 0.50547503E+03</pdfrwt>
<totfact> 0.17747072E+03</totfact>
</mgrwt>
</event>
<event>
 4    1  0.4840996E-002  0.5640393E+03  0.7818608E-02  0.9982956E-01
         21   -1    0    0  503  502  0.00000000000E+00  0.00000000000E+00  0.59280687760E+03  0.59280687760E+03  0.00000000000E+00 0.  1.
         21   -1    0    0  501  503 -0.00000000000E+00 -0.00000000000E+00 -0.53725559631E+03  0.53725559631E+03  0.00000000000E+00 0. -1.
    9000005    1    1    2  501    0  0.21441306209E+03  0.33491402277E+03  0.90862656553E+01  0.56411251012E+03  0.40000000000E+03 0.  1.
   -9000005    1    1    2    0  502 -0.21441306209E+03 -0.33491402277E+03  0.46465015639E+02  0.56594996380E+03  0.40000000000E+03 0. -1.
<mgrwt>
<rscale>  2 0.56403933E+03</rscale>
<asrwt>0</asrwt>
<pdfrwt beam="1">  1       21 0.91201058E-01 0.56403933E+03</pdfrwt>
<pdfrwt beam="2">  1       21 0.82654708E-01 0.56403933E+03</pdfrwt>
<totfact> 0.10645226E+03</totfact>
</mgrwt>
</event>
<event>
 4    1  0.4840996E-002  0.4626513E+03  0.7818608E-02  0.1024015E+00
         21   -1    0    0  503  502  0.00000000000E+00  0.00000000000E+00  0.84409777630E+03  0.84409777630E+03  0.00000000000E+00 0. -1.
         21   -1    0    0  501  503 -0.00000000000E+00 -0.00000000000E+00 -0.26151336749E+03  0.26151336749E+03  0.00000000000E+00 0. -1.
    9000005    1    1    2  501    0  0.14237565845E+03 -0.18378088992E+03  0.19500766944E+03  0.50206995006E+03  0.40000000000E+03 0. -1.
   -9000005    1    1    2    0  502 -0.14237565845E+03  0.18378088992E+03  0.38757673937E+03  0.60354119372E+03  0.40000000000E+03 0. -1.
<mgrwt>
<rscale>  2 0.46265132E+03</rscale>
<asrwt>0</asrwt>
<pdfrwt beam="1">  1       21 0.12986120E+00 0.46265132E+03</pdfrwt>
<pdfrwt beam="2">  1       21 0.40232826E-01 0.46265132E+03</pdfrwt>
<totfact> 0.22112356E+03</totfact>
</mgrwt>
</event>
<event>
 4    1  0.4840996E-002  0.4046389E+03  0.7818608E-02  0.1042185E+00
         21   -1    0    0  501  502  0.00000000000E+00  0.00000000000E+00  0.11054239723E+04  0.11054239723E+04  0.00000000000E+00 0. -1.
         21   -1    0    0  502  503 -0.00000000000E+00 -0.00000000000E+00 -0.18424232066E+03  0.18424232066E+03  0.00000000000E+00 0. -1.
    9000005    1    1    2  501    0  0.32213637553E+02  0.51912249650E+02  0.74612342367E+03  0.84878310743E+03  0.40000000000E+03 0. -1.
   -9000005    1    1    2    0  503 -0.32213637553E+02 -0.51912249650E+02  0.17505822797E+03  0.44088318554E+03  0.40000000000E+03 0. -1.
<mgrwt>
<rscale>  2 0.40463885E+03</rscale>
<asrwt>0</asrwt>
<pdfrwt beam="1">  1       21 0.17006522E+00 0.40463885E+03</pdfrwt>
<pdfrwt beam="2">  1       21 0.28344973E-01 0.40463885E+03</pdfrwt>
<totfact> 0.22070215E+03</totfact>
</mgrwt>
</event>
<event>
 4    1  0.4840996E-002  0.4991755E+03  0.7818608E-02  0.1013994E+00
         21   -1    0    0  501  502  0.00000000000E+00  0.00000000000E+00  0.21019664738E+03  0.21019664738E+03  0.00000000000E+00 0. -1.
         21   -1    0    0  502  503 -0.00000000000E+00 -0.00000000000E+00 -0.13322725413E+04  0.13322725413E+04  0.00000000000E+00 0. -1.
    9000005    1    1    2  501    0  0.13345306676E+03 -0.26714492362E+03 -0.30500445702E+03  0.58498192284E+03  0.40000000000E+03 0. -1.
   -9000005    1    1    2    0  503 -0.13345306676E+03  0.26714492362E+03 -0.81707143688E+03  0.95748726582E+03  0.40000000000E+03 0. -1.
<mgrwt>
<rscale>  2 0.49917545E+03</rscale>
<asrwt>0</asrwt>
<pdfrwt beam="1">  1       21 0.32337946E-01 0.49917545E+03</pdfrwt>
<pdfrwt beam="2">  1       21 0.20496501E+00 0.49917545E+03</pdfrwt>
<totfact> 0.93558098E+02</totfact>
</mgrwt>
</event>
<event>
 4    1  0.4840996E-002  0.7113931E+03  0.7818608E-02  0.9697944E-01
         21   -1    0    0  501  502  0.00000000000E+00  0.00000000000E+00  0.36371063746E+03  0.36371063746E+03  0.00000000000E+00 0. -1.
         21   -1    0    0  502  503 -0.00000000000E+00 -0.00000000000E+00 -0.13921554851E+04  0.13921554851E+04  0.00000000000E+00 0. -1.
    9000005    1    1    2  501    0  0.17223440718E+03 -0.56250819638E+03 -0.49426723433E+03  0.86624491972E+03  0.40000000000E+03 0. -1.
   -9000005    1    1    2    0  503 -0.17223440718E+03  0.56250819638E+03 -0.53417761333E+03  0.88962120287E+03  0.40000000000E+03 0. -1.
<mgrwt>
<rscale>  2 0.71139311E+03</rscale>
<asrwt>0</asrwt>
<pdfrwt beam="1">  1       21 0.55955483E-01 0.71139311E+03</pdfrwt>
<pdfrwt beam="2">  1       21 0.21417777E+00 0.71139311E+03</pdfrwt>
<totfact> 0.23891956E+02</totfact>
</mgrwt>
</event>
<event>
 4    1  0.4840996E-002  0.4326304E+03  0.7818608E-02  0.1033032E+00
         21   -1    0    0  501  502  0.00000000000E+00  0.00000000000E+00  0.21144560106E+03  0.21144560106E+03  0.00000000000E+00 0. -1.
         21   -1    0    0  502  503 -0.00000000000E+00 -0.00000000000E+00 -0.98509045975E+03  0.98509045975E+03  0.00000000000E+00 0.  1.
    9000005    1    1    2  501    0 -0.15750310025E+03 -0.48598425171E+02 -0.19629978387E+03  0.47508171788E+03  0.40000000000E+03 0. -1.
   -9000005    1    1    2    0  503  0.15750310025E+03  0.48598425171E+02 -0.57734507481E+03  0.72145434293E+03  0.40000000000E+03 0.  1.
<mgrwt>
<rscale>  2 0.43263037E+03</rscale>
<asrwt>0</asrwt>
<pdfrwt beam="1">  1       21 0.32530093E-01 0.43263037E+03</pdfrwt>
<pdfrwt beam="2">  1       21 0.15155238E+00 0.43263037E+03</pdfrwt>
<totfact> 0.22853811E+03</totfact>
</mgrwt>
</event>
<event>
 4    1  0.4840996E-002  0.4361896E+03  0.7818608E-02  0.1031922E+00
         21   -1    0    0  503  502  0.00000000000E+00  0.00000000000E+00  0.16336151737E+03  0.16336151737E+03  0.00000000000E+00 0.  1.
         21   -1    0    0  501  503 -0.00000000000E+00 -0.00000000000E+00 -0.11673793050E+04  0.11673793050E+04  0.00000000000E+00 0.  1.
    9000005    1    1    2  501    0 -0.74525771610E+02 -0.15718547761E+03 -0.53409554041E+03  0.68957915521E+03  0.40000000000E+03 0.  1.
   -9000005    1    1    2    0  502  0.74525771610E+02  0.15718547761E+03 -0.46992224718E+03  0.64116166713E+03  0.40000000000E+03 0.  1.
<mgrwt>
<rscale>  2 0.43618960E+03</rscale>
<asrwt>0</asrwt>
<pdfrwt beam="1">  1       21 0.25132540E-01 0.43618960E+03</pdfrwt>
<pdfrwt beam="2">  1       21 0.17959682E+00 0.43618960E+03</pdfrwt>
<totfact> 0.23550002E+03</totfact>
</mgrwt>
</event>
<event>
 4    1  0.4840996E-002  0.4881697E+03  0.7818608E-02  0.1016914E+00
         21   -1    0    0  501  502  0.00000000000E+00  0.00000000000E+00  0.64634320700E+03  0.64634320700E+03  0.00000000000E+00 0. -1.
         21   -1    0    0  502  503 -0.00000000000E+00 -0.00000000000E+00 -0.36989570455E+03  0.36989570455E+03  0.00000000000E+00 0. -1.
    9000005    1    1    2  501    0  0.12540791343E+03  0.25016489429E+03  0.16705927067E+03  0.51596358302E+03  0.40000000000E+03 0. -1.
   -9000005    1    1    2    0  503 -0.12540791343E+03 -0.25016489429E+03  0.10938823177E+03  0.50027532853E+03  0.40000000000E+03 0. -1.
<mgrwt>
<rscale>  2 0.48816966E+03</rscale>
<asrwt>0</asrwt>
<pdfrwt beam="1">  1       21 0.99437416E-01 0.48816966E+03</pdfrwt>
<pdfrwt beam="2">  1       21 0.56907032E-01 0.48816966E+03</pdfrwt>
<totfact> 0.20554379E+03</totfact>
</mgrwt>
</event>
<event>
 4    1  0.4840996E-002  0.5644122E+03  0.7818608E-02  0.9982120E-01
         21   -1    0    0  503  502  0.00000000000E+00  0.00000000000E+00  0.89824092443E+03  0.89824092443E+03  0.00000000000E+00 0.  1.
         21   -1    0    0  501  503 -0.00000000000E+00 -0.00000000000E+00 -0.70140240202E+03  0.70140240202E+03  0.00000000000E+00 0. -1.
    9000005    1    1    2  501    0 -0.24458368177E+03 -0.31422910156E+03 -0.46394706032E+03  0.73062163973E+03  0.40000000000E+03 0. -1.
   -9000005    1    1    2    0  502  0.24458368177E+03  0.31422910156E+03  0.66078558273E+03  0.86902168673E+03  0.40000000000E+03 0.  1.
<mgrwt>
<rscale>  2 0.56441218E+03</rscale>
<asrwt>0</asrwt>
<pdfrwt beam="1">  1       21 0.13819091E+00 0.56441218E+03</pdfrwt>
<pdfrwt beam="2">  1       21 0.10790806E+00 0.56441218E+03</pdfrwt>
<totfact> 0.19666638E+02</totfact>
</mgrwt>
</event>
<event>
 4    1  0.4840996E-002  0.4551106E+03  0.7818608E-02  0.1026209E+00
         21   -1    0    0  501  502  0.00000000000E+00  0.00000000000E+00  0.71709655594E+03  0.71709655594E+03  0.00000000000E+00 0. -1.
         21   -1    0    0  502  503 -0.00000000000E+00 -0.00000000000E+00 -0.31094044163E+03  0.31094044163E+03  0.00000000000E+00 0. -1.
    9000005    1    1    2  501    0 -0.20109665209E+03 -0.81766580960E+02  0.66037880977E+02  0.45987676498E+03  0.40000000000E+03 0. -1.
   -9000005    1    1    2    0  503  0.20109665209E+03  0.81766580960E+02  0.34011823334E+03  0.56816023259E+03  0.40000000000E+03 0. -1.
<mgrwt>
<rscale>  2 0.45511058E+03</rscale>
<asrwt>0</asrwt>
<pdfrwt beam="1">  1       21 0.11032255E+00 0.45511058E+03</pdfrwt>
<pdfrwt beam="2">  1       21 0.47836991E-01 0.45511058E+03</pdfrwt>
<totfact> 0.23367678E+03</totfact>
</mgrwt>
</event>
<event>
 4    1  0.4840996E-002  0.5476503E+03  0.7818608E-02  0.1002039E+00
         21   -1    0    0  501  502  0.00000000000E+00  0.00000000000E+00  0.94744178255E+03  0.94744178255E+03  0.00000000000E+00 0. -1.
         21   -1    0    0  502  503 -0.00000000000E+00 -0.00000000000E+00 -0.57640666008E+03  0.57640666008E+03  0.00000000000E+00 0. -1.
    9000005    1    1    2  501    0 -0.30593710005E+03  0.21522864274E+03  0.69708983038E+03  0.88648469218E+03  0.40000000000E+03 0. -1.
   -9000005    1    1    2    0  503  0.30593710005E+03 -0.21522864274E+03 -0.32605470791E+03  0.63736375046E+03  0.40000000000E+03 0. -1.
<mgrwt>
<rscale>  2 0.54765032E+03</rscale>
<asrwt>0</asrwt>
<pdfrwt beam="1">  1       21 0.14576027E+00 0.54765032E+03</pdfrwt>
<pdfrwt beam="2">  1       21 0.88677948E-01 0.54765032E+03</pdfrwt>
<totfact> 0.27636156E+02</totfact>
</mgrwt>
</event>
<event>
 4    1  0.4840996E-002  0.4882931E+03  0.7818608E-02  0.1016881E+00
         21   -1    0    0  501  502  0.00000000000E+00  0.00000000000E+00  0.27186507595E+03  0.27186507595E+03  0.00000000000E+00 0.  1.
         21   -1    0    0  502  503 -0.00000000000E+00 -0.00000000000E+00 -0.12701296360E+04  0.12701296360E+04  0.00000000000E+00 0.  1.
    9000005    1    1    2  501    0  0.25888923436E+03 -0.10680151427E+03 -0.70201159349E+02  0.49331369522E+03  0.40000000000E+03 0.  1.
   -9000005    1    1    2    0  503 -0.25888923436E+03  0.10680151427E+03 -0.92806340069E+03  0.10486810167E+04  0.40000000000E+03 0.  1.
<mgrwt>
<rscale>  2 0.48829315E+03</rscale>
<asrwt>0</asrwt>
<pdfrwt beam="1">  1       21 0.41825395E-01 0.48829315E+03</pdfrwt>
<pdfrwt beam="2">  1       21 0.19540456E+00 0.48829315E+03</pdfrwt>
<totfact> 0.64421109E+02</totfact>
</mgrwt>
</event>
<event>
 4    1  0.4840996E-002  0.4564680E+03  0.7818608E-02  0.1025811E+00
         21   -1    0    0  503  502  0.00000000000E+00  0.00000000000E+00  0.98333362306E+03  0.98333362306E+03  0.00000000000E+00 0.  1.
         21   -1    0    0  501  503 -0.00000000000E+00 -0.00000000000E+00 -0.46140181336E+03  0.46140181336E+03  0.00000000000E+00 0. -1.
    9000005    1    1    2  501    0  0.20538438720E+03  0.78615020883E+02 -0.27023676455E+03  0.53046298356E+03  0.40000000000E+03 0. -1.
   -9000005    1    1    2    0  502 -0.20538438720E+03 -0.78615020883E+02  0.79216857426E+03  0.91427245286E+03  0.40000000000E+03 0.  1.
<mgrwt>
<rscale>  2 0.45646804E+03</rscale>
<asrwt>0</asrwt>
<pdfrwt beam="1">  1       21 0.15128210E+00 0.45646804E+03</pdfrwt>
<pdfrwt beam="2">  1       21 0.70984894E-01 0.45646804E+03</pdfrwt>
<totfact> 0.43470539E+02</totfact>
</mgrwt>
</event>
<event>
 4    1  0.4840996E-002  0.6216302E+03  0.7818608E-02  0.9861519E-01
         21   -1    0    0  501  502  0.00000000000E+00  0.00000000000E+00  0.67053285338E+03  0.67053285338E+03  0.00000000000E+00 0. -1.
         21   -1    0    0  502  503 -0.00000000000E+00 -0.00000000000E+00 -0.57918511060E+03  0.57918511060E+03  0.00000000000E+00 0.  1.
    9000005    1    1    2  501    0 -0.42022405758E+03 -0.22323930956E+03  0.89821466759E+02  0.62808593663E+03  0.40000000000E+03 0.  1.
   -9000005    1    1    2    0  503  0.42022405758E+03  0.22323930956E+03  0.15262760148E+01  0.62163202735E+03  0.40000000000E+03 0. -1.
<mgrwt>
<rscale>  2 0.62163015E+03</rscale>
<asrwt>0</asrwt>
<pdfrwt beam="1">  1       21 0.10315890E+00 0.62163015E+03</pdfrwt>
<pdfrwt beam="2">  1       21 0.89105402E-01 0.62163015E+03</pdfrwt>
<totfact> 0.64914417E+02</totfact>
</mgrwt>
</event>
<event>
 4    1  0.4840996E-002  0.4034567E+03  0.7818608E-02  0.1042589E+00
         21   -1    0    0  503  502  0.00000000000E+00  0.00000000000E+00  0.29273829280E+03  0.29273829280E+03  0.00000000000E+00 0. -1.
         21   -1    0    0  501  503 -0.00000000000E+00 -0.00000000000E+00 -0.56433600195E+03  0.56433600195E+03  0.00000000000E+00 0. -1.
    9000005    1    1    2  501    0  0.43552054797E+02 -0.29674212625E+02 -0.83874264947E+02  0.41208279835E+03  0.40000000000E+03 0.  1.
   -9000005    1    1    2    0  502 -0.43552054797E+02  0.29674212625E+02 -0.18772344420E+03  0.44499149640E+03  0.40000000000E+03 0.  1.
<mgrwt>
<rscale>  2 0.40345674E+03</rscale>
<asrwt>0</asrwt>
<pdfrwt beam="1">  1       21 0.45036661E-01 0.40345674E+03</pdfrwt>
<pdfrwt beam="2">  1       21 0.86820922E-01 0.40345674E+03</pdfrwt>
<totfact> 0.48210810E+03</totfact>
</mgrwt>
</event>
<event>
 4    1  0.4840996E-002  0.4362500E+03  0.7818608E-02  0.1031904E+00
         21   -1    0    0  503  502  0.00000000000E+00  0.00000000000E+00  0.92025354349E+03  0.92025354349E+03  0.00000000000E+00 0. -1.
         21   -1    0    0  501  503 -0.00000000000E+00 -0.00000000000E+00 -0.28146216053E+03  0.28146216053E+03  0.00000000000E+00 0. -1.
    9000005    1    1    2  501    0  0.13917581489E+03  0.10461450451E+03  0.99431234728E+01  0.43636334368E+03  0.40000000000E+03 0. -1.
   -9000005    1    1    2    0  502 -0.13917581489E+03 -0.10461450451E+03  0.62884825950E+03  0.76535236034E+03  0.40000000000E+03 0. -1.
<mgrwt>
<rscale>  2 0.43625005E+03</rscale>
<asrwt>0</asrwt>
<pdfrwt beam="1">  1       21 0.14157747E+00 0.43625005E+03</pdfrwt>
<pdfrwt beam="2">  1       21 0.43301871E-01 0.43625005E+03</pdfrwt>
<totfact> 0.15288464E+03</totfact>
</mgrwt>
</event>
<event>
 4    1  0.4840996E-002  0.4397669E+03  0.7818608E-02  0.1030818E+00
         21   -1    0    0  501  502  0.00000000000E+00  0.00000000000E+00  0.22499837121E+03  0.22499837121E+03  0.00000000000E+00 0.  1.
         21   -1    0    0  502  503 -0.00000000000E+00 -0.00000000000E+00 -0.13471753707E+04  0.13471753707E+04  0.00000000000E+00 0. -1.
    9000005    1    1    2  501    0  0.68312145076E+02 -0.16949457030E+03 -0.88148163838E+02  0.44851427772E+03  0.40000000000E+03 0.  1.
   -9000005    1    1    2    0  503 -0.68312145076E+02  0.16949457030E+03 -0.10340288356E+04  0.11236594642E+04  0.40000000000E+03 0. -1.
<mgrwt>
<rscale>  2 0.43976694E+03</rscale>
<asrwt>0</asrwt>
<pdfrwt beam="1">  1       21 0.34615134E-01 0.43976694E+03</pdfrwt>
<pdfrwt beam="2">  1       21 0.20725775E+00 0.43976694E+03</pdfrwt>
<totfact> 0.80934411E+02</totfact>
</mgrwt>
</event>
<event>
 4    1  0.4840996E-002  0.4943122E+03  0.7818608E-02  0.1015274E+00
         21   -1    0    0  501  502  0.00000000000E+00  0.00000000000E+00  0.99832034839E+03  0.99832034839E+03  0.00000000000E+00 0. -1.
         21   -1    0    0  502  503 -0.00000000000E+00 -0.00000000000E+00 -0.64011643032E+03  0.64011643032E+03  0.00000000000E+00 0.  1.
    9000005    1    1    2  501    0  0.15776558572E+03 -0.24383306817E+03  0.82292571618E+03  0.95997462442E+03  0.40000000000E+03 0. -1.
   -9000005    1    1    2    0  503 -0.15776558572E+03  0.24383306817E+03 -0.46472179811E+03  0.67846215429E+03  0.40000000000E+03 0.  1.
<mgrwt>
<rscale>  2 0.49431219E+03</rscale>
<asrwt>0</asrwt>
<pdfrwt beam="1">  1       21 0.15358775E+00 0.49431219E+03</pdfrwt>
<pdfrwt beam="2">  1       21 0.98479451E-01 0.49431219E+03</pdfrwt>
<totfact> 0.19067508E+02</totfact>
</mgrwt>
</event>
<event>
 4    1  0.4840996E-002  0.4184843E+03  0.7818608E-02  0.1037561E+00
         21   -1    0    0  503  502  0.00000000000E+00  0.00000000000E+00  0.61248368326E+03  0.61248368326E+03  0.00000000000E+00 0. -1.
         21   -1    0    0  501  503 -0.00000000000E+00 -0.00000000000E+00 -0.30454929199E+03  0.30454929199E+03  0.00000000000E+00 0. -1.
    9000005    1    1    2  501    0  0.12950616301E+02  0.12231690753E+03  0.40603065894E+02  0.42044946580E+03  0.40000000000E+03 0.  1.
   -9000005    1    1    2    0  502 -0.12950616301E+02 -0.12231690753E+03  0.26733132538E+03  0.49658350945E+03  0.40000000000E+03 0.  1.
<mgrwt>
<rscale>  2 0.41848434E+03</rscale>
<asrwt>0</asrwt>
<pdfrwt beam="1">  1       21 0.94228259E-01 0.41848434E+03</pdfrwt>
<pdfrwt beam="2">  1       21 0.46853737E-01 0.41848434E+03</pdfrwt>
<totfact> 0.36355322E+03</totfact>
</mgrwt>
</event>
<event>
 4    1  0.4840996E-002  0.4208646E+03  0.7818608E-02  0.1036785E+00
         21   -1    0    0  501  502  0.00000000000E+00  0.00000000000E+00  0.15772765379E+03  0.15772765379E+03  0.00000000000E+00 0. -1.
         21   -1    0    0  502  503 -0.00000000000E+00 -0.00000000000E+00 -0.14673950658E+04  0.14673950658E+04  0.00000000000E+00 0.  1.
    9000005    1    1    2  501    0 -0.12640473546E+03 -0.33895298265E+02 -0.26117893099E+03  0.49531957601E+03  0.40000000000E+03 0. -1.
   -9000005    1    1    2    0  503  0.12640473546E+03  0.33895298265E+02 -0.10484884810E+04  0.11298031436E+04  0.40000000000E+03 0.  1.
<mgrwt>
<rscale>  2 0.42086464E+03</rscale>
<asrwt>0</asrwt>
<pdfrwt beam="1">  1       21 0.24265792E-01 0.42086464E+03</pdfrwt>
<pdfrwt beam="2">  1       21 0.22575310E+00 0.42086464E+03</pdfrwt>
<totfact> 0.12541448E+03</totfact>
</mgrwt>
</event>
<event>
 4    1  0.4840996E-002  0.4318481E+03  0.7818608E-02  0.1033278E+00
         21   -1    0    0  501  502  0.00000000000E+00  0.00000000000E+00  0.96280411211E+03  0.96280411211E+03  0.00000000000E+00 0. -1.
         21   -1    0    0  502  503 -0.00000000000E+00 -0.00000000000E+00 -0.25267040509E+03  0.25267040509E+03  0.00000000000E+00 0. -1.
    9000005    1    1    2  501    0  0.13626623924E+03  0.89018476042E+02  0.64867278838E+03  0.77927476760E+03  0.40000000000E+03 0. -1.
   -9000005    1    1    2    0  503 -0.13626623924E+03 -0.89018476042E+02  0.61460918640E+02  0.43619974960E+03  0.40000000000E+03 0. -1.
<mgrwt>
<rscale>  2 0.43184809E+03</rscale>
<asrwt>0</asrwt>
<pdfrwt beam="1">  1       21 0.14812371E+00 0.43184809E+03</pdfrwt>
<pdfrwt beam="2">  1       21 0.38872371E-01 0.43184809E+03</pdfrwt>
<totfact> 0.16954884E+03</totfact>
</mgrwt>
</event>
<event>
 4    1  0.4840996E-002  0.4599154E+03  0.7818608E-02  0.1024806E+00
         21   -1    0    0  501  502  0.00000000000E+00  0.00000000000E+00  0.24197305739E+04  0.24197305739E+04  0.00000000000E+00 0. -1.
         21   -1    0    0  502  503 -0.00000000000E+00 -0.00000000000E+00 -0.15107809604E+03  0.15107809604E+03  0.00000000000E+00 0. -1.
    9000005    1    1    2  501    0 -0.17363262018E+03 -0.14619822056E+03  0.19687387950E+04  0.20217454462E+04  0.40000000000E+03 0. -1.
   -9000005    1    1    2    0  503  0.17363262018E+03  0.14619822056E+03  0.29991368293E+03  0.54906322377E+03  0.40000000000E+03 0. -1.
<mgrwt>
<rscale>  2 0.45991543E+03</rscale>
<asrwt>0</asrwt>
<pdfrwt beam="1">  1       21 0.37226621E+00 0.45991543E+03</pdfrwt>
<pdfrwt beam="2">  1       21 0.23242786E-01 0.45991543E+03</pdfrwt>
<totfact> 0.17033813E+02</totfact>
</mgrwt>
</event>
<event>
 4    1  0.4840996E-002  0.4140313E+03  0.7818608E-02  0.1039027E+00
         21   -1    0    0  501  502  0.00000000000E+00  0.00000000000E+00  0.98029728236E+02  0.98029728236E+02  0.00000000000E+00 0. -1.
         21   -1    0    0  502  503 -0.00000000000E+00 -0.00000000000E+00 -0.19210205270E+04  0.19210205270E+04  0.00000000000E+00 0. -1.
    9000005    1    1    2  501    0 -0.55698431888E+02  0.91211731154E+02 -0.60911459302E+03  0.73650694677E+03  0.40000000000E+03 0.  1.
   -9000005    1    1    2    0  503  0.55698431888E+02 -0.91211731154E+02 -0.12138762058E+04  0.12825433085E+04  0.40000000000E+03 0.  1.
<mgrwt>
<rscale>  2 0.41403127E+03</rscale>
<asrwt>0</asrwt>
<pdfrwt beam="1">  1       21 0.15081497E-01 0.41403127E+03</pdfrwt>
<pdfrwt beam="2">  1       21 0.29554162E+00 0.41403127E+03</pdfrwt>
<totfact> 0.11630269E+03</totfact>
</mgrwt>
</event>
<event>
 4    1  0.4840996E-002  0.4255758E+03  0.7818608E-02  0.1035267E+00
         21   -1    0    0  501  502  0.00000000000E+00  0.00000000000E+00  0.16141152572E+03  0.16141152572E+03  0.00000000000E+00 0.  1.
         21   -1    0    0  502  503 -0.00000000000E+00 -0.00000000000E+00 -0.15697309081E+04  0.15697309081E+04  0.00000000000E+00 0.  1.
    9000005    1    1    2  501    0  0.52942149977E+02  0.13532134608E+03 -0.24192166840E+03  0.48953123658E+03  0.40000000000E+03 0.  1.
   -9000005    1    1    2    0  503 -0.52942149977E+02 -0.13532134608E+03 -0.11663977140E+04  0.12416111973E+04  0.40000000000E+03 0.  1.
<mgrwt>
<rscale>  2 0.42557577E+03</rscale>
<asrwt>0</asrwt>
<pdfrwt beam="1">  1       21 0.24832543E-01 0.42557577E+03</pdfrwt>
<pdfrwt beam="2">  1       21 0.24149705E+00 0.42557577E+03</pdfrwt>
<totfact> 0.95399006E+02</totfact>
</mgrwt>
</event>
<event>
 4    1  0.4840996E-002  0.4287175E+03  0.7818608E-02  0.1034266E+00
         21   -1    0    0  501  502  0.00000000000E+00  0.00000000000E+00  0.34402305771E+03  0.34402305771E+03  0.00000000000E+00 0. -1.
         21   -1    0    0  502  503 -0.00000000000E+00 -0.00000000000E+00 -0.56526836255E+03  0.56526836255E+03  0.00000000000E+00 0. -1.
    9000005    1    1    2  501    0  0.12485022695E+03  0.90615361249E+02 -0.21710204125E+03  0.48055386709E+03  0.40000000000E+03 0. -1.
   -9000005    1    1    2    0  503 -0.12485022695E+03 -0.90615361249E+02 -0.41432635899E+01  0.42873755317E+03  0.40000000000E+03 0. -1.
<mgrwt>
<rscale>  2 0.42871753E+03</rscale>
<asrwt>0</asrwt>
<pdfrwt beam="1">  1       21 0.52926625E-01 0.42871753E+03</pdfrwt>
<pdfrwt beam="2">  1       21 0.86964362E-01 0.42871753E+03</pdfrwt>
<totfact> 0.33809906E+03</totfact>
</mgrwt>
</event>
<event>
 4    1  0.4840996E-002  0.4580569E+03  0.7818608E-02  0.1025346E+00
         21   -1    0    0  503  502  0.00000000000E+00  0.00000000000E+00  0.15454685112E+04  0.15454685112E+04  0.00000000000E+00 0.  1.
         21   -1    0    0  501  503 -0.00000000000E+00 -0.00000000000E+00 -0.15047648493E+03  0.15047648493E+03  0.00000000000E+00 0.  1.
    9000005    1    1    2  501    0  0.13187657845E+03  0.18006847797E+03  0.43232982791E+03  0.62986122980E+03  0.40000000000E+03 0.  1.
   -9000005    1    1    2    0  502 -0.13187657845E+03 -0.18006847797E+03  0.96266219837E+03  0.10660837663E+04  0.40000000000E+03 0.  1.
<mgrwt>
<rscale>  2 0.45805686E+03</rscale>
<asrwt>0</asrwt>
<pdfrwt beam="1">  1       21 0.23776438E+00 0.45805686E+03</pdfrwt>
<pdfrwt beam="2">  1       21 0.23150230E-01 0.45805686E+03</pdfrwt>
<totfact> 0.11342622E+03</totfact>
</mgrwt>
</event>
<event>
 4    1  0.4840996E-002  0.4453029E+03  0.7818608E-02  0.1029132E+00
         21   -1    0    0  501  502  0.00000000000E+00  0.00000000000E+00  0.69566149210E+03  0.69566149210E+03  0.00000000000E+00 0.  1.
         21   -1    0    0  502  503 -0.00000000000E+00 -0.00000000000E+00 -0.28506776297E+03  0.28506776297E+03  0.00000000000E+00 0.  1.
    9000005    1    1    2  501    0  0.99669829346E+02  0.16840600267E+03  0.20089106800E+03  0.48852008947E+03  0.40000000000E+03 0.  1.
   -9000005    1    1    2    0  503 -0.99669829346E+02 -0.16840600267E+03  0.20970266113E+03  0.49220916560E+03  0.40000000000E+03 0.  1.
<mgrwt>
<rscale>  2 0.44530288E+03</rscale>
<asrwt>0</asrwt>
<pdfrwt beam="1">  1       21 0.10702484E+00 0.44530288E+03</pdfrwt>
<pdfrwt beam="2">  1       21 0.43856579E-01 0.44530288E+03</pdfrwt>
<totfact> 0.30342305E+03</totfact>
</mgrwt>
</event>
<event>
 4    1  0.4840996E-002  0.5581773E+03  0.7818608E-02  0.9996187E-01
         21   -1    0    0  503  502  0.00000000000E+00  0.00000000000E+00  0.21309413206E+04  0.21309413206E+04  0.00000000000E+00 0. -1.
         21   -1    0    0  501  503 -0.00000000000E+00 -0.00000000000E+00 -0.18203442700E+03  0.18203442700E+03  0.00000000000E+00 0. -1.
    9000005    1    1    2  501    0 -0.12198408090E+03  0.36970505248E+03  0.46140019420E+03  0.72419063860E+03  0.40000000000E+03 0. -1.
   -9000005    1    1    2    0  502  0.12198408090E+03 -0.36970505248E+03  0.14875066994E+04  0.15887851090E+04  0.40000000000E+03 0. -1.
<mgrwt>
<rscale>  2 0.55817734E+03</rscale>
<asrwt>0</asrwt>
<pdfrwt beam="1">  1       21 0.32783711E+00 0.55817734E+03</pdfrwt>
<pdfrwt beam="2">  1       21 0.28005298E-01 0.55817734E+03</pdfrwt>
<totfact> 0.21036553E+02</totfact>
</mgrwt>
</event>
<event>
 4    1  0.4840996E-002  0.5007805E+03  0.7818608E-02  0.1013575E+00
         21   -1    0    0  503  502  0.00000000000E+00  0.00000000000E+00  0.76451474929E+03  0.76451474929E+03  0.00000000000E+00 0.  1.
         21   -1    0    0  501  503 -0.00000000000E+00 -0.00000000000E+00 -0.10175175620E+04  0.10175175620E+04  0.00000000000E+00 0.  1.
    9000005    1    1    2  501    0  0.26343815644E+03  0.14622392532E+03 -0.85996564112E+03  0.99514923630E+03  0.40000000000E+03 0.  1.
   -9000005    1    1    2    0  502 -0.26343815644E+03 -0.14622392532E+03  0.60696282842E+03  0.78688307498E+03  0.40000000000E+03 0.  1.
<mgrwt>
<rscale>  2 0.50078049E+03</rscale>
<asrwt>0</asrwt>
<pdfrwt beam="1">  1       21 0.11761765E+00 0.50078049E+03</pdfrwt>
<pdfrwt beam="2">  1       21 0.15654116E+00 0.50078049E+03</pdfrwt>
<totfact> 0.11617094E+02</totfact>
</mgrwt>
</event>
<event>
 4    1  0.4840996E-002  0.4219489E+03  0.7818608E-02  0.1036434E+00
         21   -1    0    0  501  502  0.00000000000E+00  0.00000000000E+00  0.86280122195E+03  0.86280122195E+03  0.00000000000E+00 0. -1.
         21   -1    0    0  502  503 -0.00000000000E+00 -0.00000000000E+00 -0.68842911528E+03  0.68842911528E+03  0.00000000000E+00 0.  1.
    9000005    1    1    2  501    0  0.10035972253E+03  0.89268235753E+02  0.73623114062E+03  0.84857361746E+03  0.40000000000E+03 0. -1.
   -9000005    1    1    2    0  503 -0.10035972253E+03 -0.89268235753E+02 -0.56185903395E+03  0.70265671978E+03  0.40000000000E+03 0.  1.
<mgrwt>
<rscale>  2 0.42194892E+03</rscale>
<asrwt>0</asrwt>
<pdfrwt beam="1">  1       21 0.13273865E+00 0.42194892E+03</pdfrwt>
<pdfrwt beam="2">  1       21 0.10591217E+00 0.42194892E+03</pdfrwt>
<totfact> 0.24448132E+02</totfact>
</mgrwt>
</event>
<event>
 4    1  0.4840996E-002  0.4144014E+03  0.7818608E-02  0.1038904E+00
         21   -1    0    0  501  502  0.00000000000E+00  0.00000000000E+00  0.95830913938E+02  0.95830913938E+02  0.00000000000E+00 0. -1.
         21   -1    0    0  502  503 -0.00000000000E+00 -0.00000000000E+00 -0.18583075696E+04  0.18583075696E+04  0.00000000000E+00 0. -1.
    9000005    1    1    2  501    0  0.10105171169E+03 -0.38949523819E+02 -0.69666683035E+03  0.81060050971E+03  0.40000000000E+03 0. -1.
   -9000005    1    1    2    0  503 -0.10105171169E+03  0.38949523819E+02 -0.10658098253E+04  0.11435379738E+04  0.40000000000E+03 0. -1.
<mgrwt>
<rscale>  2 0.41440139E+03</rscale>
<asrwt>0</asrwt>
<pdfrwt beam="1">  1       21 0.14743219E-01 0.41440139E+03</pdfrwt>
<pdfrwt beam="2">  1       21 0.28589345E+00 0.41440139E+03</pdfrwt>
<totfact> 0.13853542E+03</totfact>
</mgrwt>
</event>
<event>
 4    1  0.4840996E-002  0.5692029E+03  0.7818608E-02  0.9971444E-01
         21   -1    0    0  503  502  0.00000000000E+00  0.00000000000E+00  0.79642017560E+03  0.79642017560E+03  0.00000000000E+00 0. -1.
         21   -1    0    0  501  503 -0.00000000000E+00 -0.00000000000E+00 -0.81167439130E+03  0.81167439130E+03  0.00000000000E+00 0.  1.
    9000005    1    1    2  501    0  0.72071228537E+02  0.39849426473E+03 -0.57549235320E+03  0.80943399336E+03  0.40000000000E+03 0.  1.
   -9000005    1    1    2    0  502 -0.72071228537E+02 -0.39849426473E+03  0.56023813751E+03  0.79866057354E+03  0.40000000000E+03 0. -1.
<mgrwt>
<rscale>  2 0.56920290E+03</rscale>
<asrwt>0</asrwt>
<pdfrwt beam="1">  1       21 0.12252618E+00 0.56920290E+03</pdfrwt>
<pdfrwt beam="2">  1       21 0.12487298E+00 0.56920290E+03</pdfrwt>
<totfact> 0.18576291E+02</totfact>
</mgrwt>
</event>
<event>
 4    1  0.4840996E-002  0.4039288E+03  0.7818608E-02  0.1042428E+00
         21   -1    0    0  503  502  0.00000000000E+00  0.00000000000E+00  0.44397676357E+03  0.44397676357E+03  0.00000000000E+00 0.  1.
         21   -1    0    0  501  503 -0.00000000000E+00 -0.00000000000E+00 -0.77446557256E+03  0.77446557256E+03  0.00000000000E+00 0. -1.
    9000005    1    1    2  501    0 -0.28039096510E+02 -0.48706066862E+02 -0.60687215387E+03  0.72900773866E+03  0.40000000000E+03 0. -1.
   -9000005    1    1    2    0  502  0.28039096510E+02  0.48706066862E+02  0.27638334488E+03  0.48943459748E+03  0.40000000000E+03 0.  1.
<mgrwt>
<rscale>  2 0.40392880E+03</rscale>
<asrwt>0</asrwt>
<pdfrwt beam="1">  1       21 0.68304118E-01 0.40392880E+03</pdfrwt>
<pdfrwt beam="2">  1       21 0.11914855E+00 0.40392880E+03</pdfrwt>
<totfact> 0.90854747E+02</totfact>
</mgrwt>
</event>
<event>
 4    1  0.4840996E-002  0.7114568E+03  0.7818608E-02  0.9697838E-01
         21   -1    0    0  503  502  0.00000000000E+00  0.00000000000E+00  0.11422805146E+04  0.11422805146E+04  0.00000000000E+00 0.  1.
         21   -1    0    0  501  503 -0.00000000000E+00 -0.00000000000E+00 -0.97232013912E+03  0.97232013912E+03  0.00000000000E+00 0. -1.
    9000005    1    1    2  501    0 -0.20400552906E+03  0.55186279119E+03 -0.69503392385E+03  0.99460693316E+03  0.40000000000E+03 0. -1.
   -9000005    1    1    2    0  502  0.20400552906E+03 -0.55186279119E+03  0.86499429929E+03  0.11199937205E+04  0.40000000000E+03 0.  1.
<mgrwt>
<rscale>  2 0.71145681E+03</rscale>
<asrwt>0</asrwt>
<pdfrwt beam="1">  1       21 0.17573546E+00 0.71145681E+03</pdfrwt>
<pdfrwt beam="2">  1       21 0.14958771E+00 0.71145681E+03</pdfrwt>
<totfact> 0.40480759E+01</totfact>
</mgrwt>
</event>
<event>
 4    1  0.4840996E-002  0.4148448E+03  0.7818608E-02  0.1038757E+00
         21   -1    0    0  501  502  0.00000000000E+00  0.00000000000E+00  0.21193193097E+03  0.21193193097E+03  0.00000000000E+00 0.  1.
         21   -1    0    0  502  503 -0.00000000000E+00 -0.00000000000E+00 -0.17683200193E+04  0.17683200193E+04  0.00000000000E+00 0. -1.
    9000005    1    1    2  501    0 -0.15824650087E+02  0.10883842658E+03 -0.50072945392E+02  0.41785586332E+03  0.40000000000E+03 0.  1.
   -9000005    1    1    2    0  503  0.15824650087E+02 -0.10883842658E+03 -0.15063151430E+04  0.15623960870E+04  0.40000000000E+03 0. -1.
<mgrwt>
<rscale>  2 0.41484482E+03</rscale>
<asrwt>0</asrwt>
<pdfrwt beam="1">  1       21 0.32604913E-01 0.41484482E+03</pdfrwt>
<pdfrwt beam="2">  1       21 0.27204923E+00 0.41484482E+03</pdfrwt>
<totfact> 0.36544494E+02</totfact>
</mgrwt>
</event>
<event>
 4    1  0.4840996E-002  0.4267197E+03  0.7818608E-02  0.1034901E+00
         21   -1    0    0  501  502  0.00000000000E+00  0.00000000000E+00  0.15294283160E+04  0.15294283160E+04  0.00000000000E+00 0.  1.
         21   -1    0    0  502  503 -0.00000000000E+00 -0.00000000000E+00 -0.16566452302E+03  0.16566452302E+03  0.00000000000E+00 0.  1.
    9000005    1    1    2  501    0 -0.57982281625E+02  0.13684934327E+03  0.11314288931E+04  0.12092233160E+04  0.40000000000E+03 0.  1.
   -9000005    1    1    2    0  503  0.57982281625E+02 -0.13684934327E+03  0.23233489990E+03  0.48586952307E+03  0.40000000000E+03 0.  1.
<mgrwt>
<rscale>  2 0.42671968E+03</rscale>
<asrwt>0</asrwt>
<pdfrwt beam="1">  1       21 0.23529665E+00 0.42671968E+03</pdfrwt>
<pdfrwt beam="2">  1       21 0.25486851E-01 0.42671968E+03</pdfrwt>
<totfact> 0.99036830E+02</totfact>
</mgrwt>
</event>
<event>
 4    1  0.4840996E-002  0.4353389E+03  0.7818608E-02  0.1032187E+00
         21   -1    0    0  503  502  0.00000000000E+00  0.00000000000E+00  0.56368875347E+03  0.56368875347E+03  0.00000000000E+00 0. -1.
         21   -1    0    0  501  503 -0.00000000000E+00 -0.00000000000E+00 -0.57168521959E+03  0.57168521959E+03  0.00000000000E+00 0. -1.
    9000005    1    1    2  501    0  0.73894432173E+02  0.15511140618E+03 -0.36833211536E+03  0.57025299880E+03  0.40000000000E+03 0. -1.
   -9000005    1    1    2    0  502 -0.73894432173E+02 -0.15511140618E+03  0.36033564924E+03  0.56512097426E+03  0.40000000000E+03 0. -1.
<mgrwt>
<rscale>  2 0.43533887E+03</rscale>
<asrwt>0</asrwt>
<pdfrwt beam="1">  1       21 0.86721347E-01 0.43533887E+03</pdfrwt>
<pdfrwt beam="2">  1       21 0.87951572E-01 0.43533887E+03</pdfrwt>
<totfact> 0.10867677E+03</totfact>
</mgrwt>
</event>
<event>
 4    1  0.4840996E-002  0.4753267E+03  0.7818608E-02  0.1020427E+00
         21   -1    0    0  501  502  0.00000000000E+00  0.00000000000E+00  0.31584103273E+03  0.31584103273E+03  0.00000000000E+00 0.  1.
         21   -1    0    0  502  503 -0.00000000000E+00 -0.00000000000E+00 -0.79205913764E+03  0.79205913764E+03  0.00000000000E+00 0.  1.
    9000005    1    1    2  501    0 -0.63781169404E+02  0.24873156982E+03 -0.65712575204E+02  0.47984744861E+03  0.40000000000E+03 0.  1.
   -9000005    1    1    2    0  503  0.63781169404E+02 -0.24873156982E+03 -0.41050552970E+03  0.62805272176E+03  0.40000000000E+03 0.  1.
<mgrwt>
<rscale>  2 0.47532666E+03</rscale>
<asrwt>0</asrwt>
<pdfrwt beam="1">  1       21 0.48590928E-01 0.47532666E+03</pdfrwt>
<pdfrwt beam="2">  1       21 0.12185525E+00 0.47532666E+03</pdfrwt>
<totfact> 0.17473535E+03</totfact>
</mgrwt>
</event>
<event>
 4    1  0.4840996E-002  0.4554958E+03  0.7818608E-02  0.1026096E+00
         21   -1    0    0  503  502  0.00000000000E+00  0.00000000000E+00  0.10891416622E+04  0.10891416622E+04  0.00000000000E+00 0. -1.
         21   -1    0    0  501  503 -0.00000000000E+00 -0.00000000000E+00 -0.24551844915E+03  0.24551844915E+03  0.00000000000E+00 0. -1.
    9000005    1    1    2  501    0 -0.21405226088E+03  0.40718884426E+02  0.10589589083E+03  0.46764338724E+03  0.40000000000E+03 0.  1.
   -9000005    1    1    2    0  502  0.21405226088E+03 -0.40718884426E+02  0.73772732225E+03  0.86701672414E+03  0.40000000000E+03 0.  1.
<mgrwt>
<rscale>  2 0.45549577E+03</rscale>
<asrwt>0</asrwt>
<pdfrwt beam="1">  1       21 0.16756025E+00 0.45549577E+03</pdfrwt>
<pdfrwt beam="2">  1       21 0.37772070E-01 0.45549577E+03</pdfrwt>
<totfact> 0.12657890E+03</totfact>
</mgrwt>
</event>
<event>
 4    1  0.4840996E-002  0.5184998E+03  0.7818608E-02  0.1009060E+00
         21   -1    0    0  503  502  0.00000000000E+00  0.00000000000E+00  0.28085142838E+03  0.28085142838E+03  0.00000000000E+00 0. -1.
         21   -1    0    0  501  503 -0.00000000000E+00 -0.00000000000E+00 -0.16130828874E+04  0.16130828874E+04  0.00000000000E+00 0.  1.
    9000005    1    1    2  501    0 -0.31038472838E+03  0.11181848834E+03 -0.12699345969E+04  0.13717054838E+04  0.40000000000E+03 0.  1.
   -9000005    1    1    2    0  502  0.31038472838E+03 -0.11181848834E+03 -0.62296862182E+02  0.52222883201E+03  0.40000000000E+03 0. -1.
<mgrwt>
<rscale>  2 0.51849981E+03</rscale>
<asrwt>0</asrwt>
<pdfrwt beam="1">  1       21 0.43207912E-01 0.51849981E+03</pdfrwt>
<pdfrwt beam="2">  1       21 0.24816660E+00 0.51849981E+03</pdfrwt>
<totfact> 0.27184460E+02</totfact>
</mgrwt>
</event>
<event>
 4    1  0.4840996E-002  0.5199308E+03  0.7818608E-02  0.1008704E+00
         21   -1    0    0  503  502  0.00000000000E+00  0.00000000000E+00  0.92234565190E+03  0.92234565190E+03  0.00000000000E+00 0.  1.
         21   -1    0    0  501  503 -0.00000000000E+00 -0.00000000000E+00 -0.31258956437E+03  0.31258956437E+03  0.00000000000E+00 0. -1.
    9000005    1    1    2  501    0  0.32504322064E+03 -0.68373882608E+02  0.15064905702E+03  0.54131619363E+03  0.40000000000E+03 0. -1.
   -9000005    1    1    2    0  502 -0.32504322064E+03  0.68373882608E+02  0.45910703051E+03  0.69361902264E+03  0.40000000000E+03 0. -1.
<mgrwt>
<rscale>  2 0.51993084E+03</rscale>
<asrwt>0</asrwt>
<pdfrwt beam="1">  1       21 0.14189933E+00 0.51993084E+03</pdfrwt>
<pdfrwt beam="2">  1       21 0.48090703E-01 0.51993084E+03</pdfrwt>
<totfact> 0.11801495E+03</totfact>
</mgrwt>
</event>
<event>
 4    1  0.4840996E-002  0.4049870E+03  0.7818608E-02  0.1042066E+00
         21   -1    0    0  503  502  0.00000000000E+00  0.00000000000E+00  0.72835571136E+03  0.72835571136E+03  0.00000000000E+00 0.  1.
         21   -1    0    0  501  503 -0.00000000000E+00 -0.00000000000E+00 -0.44174375728E+03  0.44174375728E+03  0.00000000000E+00 0.  1.
    9000005    1    1    2  501    0  0.29561123096E+02 -0.56041192541E+02 -0.26632790579E+03  0.48471128382E+03  0.40000000000E+03 0.  1.
   -9000005    1    1    2    0  502 -0.29561123096E+02  0.56041192541E+02  0.55293985987E+03  0.68538818482E+03  0.40000000000E+03 0.  1.
<mgrwt>
<rscale>  2 0.40498701E+03</rscale>
<asrwt>0</asrwt>
<pdfrwt beam="1">  1       21 0.11205472E+00 0.40498701E+03</pdfrwt>
<pdfrwt beam="2">  1       21 0.67960578E-01 0.40498701E+03</pdfrwt>
<totfact> 0.10706067E+03</totfact>
</mgrwt>
</event>
<event>
 4    1  0.4840996E-002  0.5322953E+03  0.7818608E-02  0.1005677E+00
         21   -1    0    0  503  502  0.00000000000E+00  0.00000000000E+00  0.77562674500E+03  0.77562674500E+03  0.00000000000E+00 0. -1.
         21   -1    0    0  501  503 -0.00000000000E+00 -0.00000000000E+00 -0.65579729346E+03  0.65579729346E+03  0.00000000000E+00 0.  1.
    9000005    1    1    2  501    0 -0.32552919937E+02  0.34968353410E+03 -0.41643157290E+03  0.67583542489E+03  0.40000000000E+03 0.  1.
   -9000005    1    1    2    0  502  0.32552919937E+02 -0.34968353410E+03  0.53626102445E+03  0.75558861357E+03  0.40000000000E+03 0. -1.
<mgrwt>
<rscale>  2 0.53229528E+03</rscale>
<asrwt>0</asrwt>
<pdfrwt beam="1">  1       21 0.11932719E+00 0.53229528E+03</pdfrwt>
<pdfrwt beam="2">  1       21 0.10089189E+00 0.53229528E+03</pdfrwt>
<totfact> 0.34469354E+02</totfact>
</mgrwt>
</event>
<event>
 4    1  0.4840996E-002  0.4093277E+03  0.7818608E-02  0.1040597E+00
         21   -1    0    0  503  502  0.00000000000E+00  0.00000000000E+00  0.19568993280E+03  0.19568993280E+03  0.00000000000E+00 0.  1.
         21   -1    0    0  501  503 -0.00000000000E+00 -0.00000000000E+00 -0.11786799329E+04  0.11786799329E+04  0.00000000000E+00 0.  1.
    9000005    1    1    2  501    0  0.80773021990E+02 -0.32013406516E+02 -0.85093717301E+03  0.94426861204E+03  0.40000000000E+03 0. -1.
   -9000005    1    1    2    0  502 -0.80773021990E+02  0.32013406516E+02 -0.13205282712E+03  0.43010125369E+03  0.40000000000E+03 0. -1.
<mgrwt>
<rscale>  2 0.40932767E+03</rscale>
<asrwt>0</asrwt>
<pdfrwt beam="1">  1       21 0.30106143E-01 0.40932767E+03</pdfrwt>
<pdfrwt beam="2">  1       21 0.18133538E+00 0.40932767E+03</pdfrwt>
<totfact> 0.16250159E+03</totfact>
</mgrwt>
</event>
<event>
 4    1  0.4840996E-002  0.4252445E+03  0.7818608E-02  0.1035373E+00
         21   -1    0    0  503  502  0.00000000000E+00  0.00000000000E+00  0.51318075124E+03  0.51318075124E+03  0.00000000000E+00 0. -1.
         21   -1    0    0  501  503 -0.00000000000E+00 -0.00000000000E+00 -0.62390581266E+03  0.62390581266E+03  0.00000000000E+00 0.  1.
    9000005    1    1    2  501    0 -0.44950205205E+02 -0.13715832091E+03 -0.43043245239E+03  0.60506613028E+03  0.40000000000E+03 0.  1.
   -9000005    1    1    2    0  502  0.44950205205E+02  0.13715832091E+03  0.31970739098E+03  0.53202043362E+03  0.40000000000E+03 0. -1.
<mgrwt>
<rscale>  2 0.42524455E+03</rscale>
<asrwt>0</asrwt>
<pdfrwt beam="1">  1       21 0.78950885E-01 0.42524455E+03</pdfrwt>
<pdfrwt beam="2">  1       21 0.95985510E-01 0.42524455E+03</pdfrwt>
<totfact> 0.11028840E+03</totfact>
</mgrwt>
</event>
<event>
 4    1  0.4840996E-002  0.4769218E+03  0.7818608E-02  0.1019985E+00
         21   -1    0    0  503  502  0.00000000000E+00  0.00000000000E+00  0.37868585529E+03  0.37868585529E+03  0.00000000000E+00 0.  1.
         21   -1    0    0  501  503 -0.00000000000E+00 -0.00000000000E+00 -0.64305355880E+03  0.64305355880E+03  0.00000000000E+00 0.  1.
    9000005    1    1    2  501    0  0.21674188450E+03 -0.14309923271E+03 -0.26338309393E+03  0.54481656461E+03  0.40000000000E+03 0.  1.
   -9000005    1    1    2    0  502 -0.21674188450E+03  0.14309923271E+03 -0.98460957051E+00  0.47692284948E+03  0.40000000000E+03 0.  1.
<mgrwt>
<rscale>  2 0.47692183E+03</rscale>
<asrwt>0</asrwt>
<pdfrwt beam="1">  1       21 0.58259362E-01 0.47692183E+03</pdfrwt>
<pdfrwt beam="2">  1       21 0.98931317E-01 0.47692183E+03</pdfrwt>
<totfact> 0.19850499E+03</totfact>
</mgrwt>
</event>
<event>
 4    1  0.4840996E-002  0.4222218E+03  0.7818608E-02  0.1036346E+00
         21   -1    0    0  501  502  0.00000000000E+00  0.00000000000E+00  0.60830056497E+03  0.60830056497E+03  0.00000000000E+00 0. -1.
         21   -1    0    0  502  503 -0.00000000000E+00 -0.00000000000E+00 -0.36042267470E+03  0.36042267470E+03  0.00000000000E+00 0. -1.
    9000005    1    1    2  501    0 -0.42040095915E+02 -0.12846752488E+03  0.33333040495E+03  0.53794092006E+03  0.40000000000E+03 0. -1.
   -9000005    1    1    2    0  503  0.42040095915E+02  0.12846752488E+03 -0.85452514680E+02  0.43078231960E+03  0.40000000000E+03 0. -1.
<mgrwt>
<rscale>  2 0.42222183E+03</rscale>
<asrwt>0</asrwt>
<pdfrwt beam="1">  1       21 0.93584702E-01 0.42222183E+03</pdfrwt>
<pdfrwt beam="2">  1       21 0.55449643E-01 0.42222183E+03</pdfrwt>
<totfact> 0.25775072E+03</totfact>
</mgrwt>
</event>
<event>
 4    1  0.4840996E-002  0.5259479E+03  0.7818608E-02  0.1007220E+00
         21   -1    0    0  503  502  0.00000000000E+00  0.00000000000E+00  0.31371031970E+03  0.31371031970E+03  0.00000000000E+00 0. -1.
         21   -1    0    0  501  503 -0.00000000000E+00 -0.00000000000E+00 -0.90077911932E+03  0.90077911932E+03  0.00000000000E+00 0. -1.
    9000005    1    1    2  501    0  0.29242621377E+03  0.17637495783E+03 -0.20532720846E+03  0.56460648135E+03  0.40000000000E+03 0. -1.
   -9000005    1    1    2    0  502 -0.29242621377E+03 -0.17637495783E+03 -0.38174159116E+03  0.64988295767E+03  0.40000000000E+03 0. -1.
<mgrwt>
<rscale>  2 0.52594792E+03</rscale>
<asrwt>0</asrwt>
<pdfrwt beam="1">  1       21 0.48263127E-01 0.52594792E+03</pdfrwt>
<pdfrwt beam="2">  1       21 0.13858140E+00 0.52594792E+03</pdfrwt>
<totfact> 0.12451530E+03</totfact>
</mgrwt>
</event>
<event>
 4    1  0.4840996E-002  0.4560518E+03  0.7818608E-02  0.1025933E+00
         21   -1    0    0  501  502  0.00000000000E+00  0.00000000000E+00  0.27921036294E+03  0.27921036294E+03  0.00000000000E+00 0. -1.
         21   -1    0    0  502  503 -0.00000000000E+00 -0.00000000000E+00 -0.10578711786E+04  0.10578711786E+04  0.00000000000E+00 0. -1.
    9000005    1    1    2  501    0  0.21007269168E+03  0.62069954931E+02 -0.25695866516E+02  0.45677510073E+03  0.40000000000E+03 0. -1.
   -9000005    1    1    2    0  503 -0.21007269168E+03 -0.62069954931E+02 -0.75296494915E+03  0.88030644082E+03  0.40000000000E+03 0. -1.
<mgrwt>
<rscale>  2 0.45605177E+03</rscale>
<asrwt>0</asrwt>
<pdfrwt beam="1">  1       21 0.42955440E-01 0.45605177E+03</pdfrwt>
<pdfrwt beam="2">  1       21 0.16274941E+00 0.45605177E+03</pdfrwt>
<totfact> 0.10536972E+03</totfact>
</mgrwt>
</event>
<event>
 4    1  0.4840996E-002  0.4095797E+03  0.7818608E-02  0.1040512E+00
         21   -1    0    0  503  502  0.00000000000E+00  0.00000000000E+00  0.34141556676E+03  0.34141556676E+03  0.00000000000E+00 0. -1.
         21   -1    0    0  501  503 -0.00000000000E+00 -0.00000000000E+00 -0.91196611829E+03  0.91196611829E+03  0.00000000000E+00 0. -1.
    9000005    1    1    2  501    0 -0.24792766362E+02 -0.84503676068E+02 -0.71087899986E+03  0.82042946374E+03  0.40000000000E+03 0. -1.
   -9000005    1    1    2    0  502  0.24792766362E+02  0.84503676068E+02  0.14032844833E+03  0.43295222132E+03  0.40000000000E+03 0. -1.
<mgrwt>
<rscale>  2 0.40957973E+03</rscale>
<asrwt>0</asrwt>
<pdfrwt beam="1">  1       21 0.52525472E-01 0.40957973E+03</pdfrwt>
<pdfrwt beam="2">  1       21 0.14030248E+00 0.40957973E+03</pdfrwt>
<totfact> 0.10542916E+03</totfact>
</mgrwt>
</event>
<event>
 4    1  0.4840996E-002  0.6421747E+03  0.7818608E-02  0.9821575E-01
         21   -1    0    0  501  502  0.00000000000E+00  0.00000000000E+00  0.26304963314E+03  0.26304963314E+03  0.00000000000E+00 0. -1.
         21   -1    0    0  502  503 -0.00000000000E+00 -0.00000000000E+00 -0.16790361146E+04  0.16790361146E+04  0.00000000000E+00 0.  1.
    9000005    1    1    2  501    0 -0.49113183329E+03  0.10572530330E+03 -0.45796658068E+03  0.78874692167E+03  0.40000000000E+03 0. -1.
   -9000005    1    1    2    0  503  0.49113183329E+03 -0.10572530330E+03 -0.95801990074E+03  0.11533388260E+04  0.40000000000E+03 0.  1.
<mgrwt>
<rscale>  2 0.64217468E+03</rscale>
<asrwt>0</asrwt>
<pdfrwt beam="1">  1       21 0.40469175E-01 0.64217468E+03</pdfrwt>
<pdfrwt beam="2">  1       21 0.25831325E+00 0.64217468E+03</pdfrwt>
<totfact> 0.25577730E+02</totfact>
</mgrwt>
</event>
<event>
 4    1  0.4840996E-002  0.4573185E+03  0.7818608E-02  0.1025562E+00
         21   -1    0    0  501  502  0.00000000000E+00  0.00000000000E+00  0.35298858660E+03  0.35298858660E+03  0.00000000000E+00 0.  1.
         21   -1    0    0  502  503 -0.00000000000E+00 -0.00000000000E+00 -0.74444360784E+03  0.74444360784E+03  0.00000000000E+00 0.  1.
    9000005    1    1    2  501    0  0.17523492252E+03  0.13576797345E+03  0.52183234265E+02  0.46028611822E+03  0.40000000000E+03 0.  1.
   -9000005    1    1    2    0  503 -0.17523492252E+03 -0.13576797345E+03 -0.44363825551E+03  0.63714607621E+03  0.40000000000E+03 0.  1.
<mgrwt>
<rscale>  2 0.45731851E+03</rscale>
<asrwt>0</asrwt>
<pdfrwt beam="1">  1       21 0.54305937E-01 0.45731851E+03</pdfrwt>
<pdfrwt beam="2">  1       21 0.11452979E+00 0.45731851E+03</pdfrwt>
<totfact> 0.16225372E+03</totfact>
</mgrwt>
</event>
<event>
 4    1  0.4840996E-002  0.4685499E+03  0.7818608E-02  0.1022330E+00
         21   -1    0    0  501  502  0.00000000000E+00  0.00000000000E+00  0.39759255191E+03  0.39759255191E+03  0.00000000000E+00 0.  1.
         21   -1    0    0  502  503 -0.00000000000E+00 -0.00000000000E+00 -0.55884833912E+03  0.55884833912E+03  0.00000000000E+00 0. -1.
    9000005    1    1    2  501    0 -0.23074545989E+03 -0.79344536027E+02 -0.28353702966E+02  0.46940702501E+03  0.40000000000E+03 0.  1.
   -9000005    1    1    2    0  503  0.23074545989E+03  0.79344536027E+02 -0.13290208425E+03  0.48703386602E+03  0.40000000000E+03 0. -1.
<mgrwt>
<rscale>  2 0.46854991E+03</rscale>
<asrwt>0</asrwt>
<pdfrwt beam="1">  1       21 0.61168085E-01 0.46854991E+03</pdfrwt>
<pdfrwt beam="2">  1       21 0.85976668E-01 0.46854991E+03</pdfrwt>
<totfact> 0.25004418E+03</totfact>
</mgrwt>
</event>
<event>
 4    1  0.4840996E-002  0.7719133E+03  0.7818608E-02  0.9601585E-01
         21   -1    0    0  501  502  0.00000000000E+00  0.00000000000E+00  0.13933023576E+04  0.13933023576E+04  0.00000000000E+00 0. -1.
         21   -1    0    0  502  503 -0.00000000000E+00 -0.00000000000E+00 -0.50499646607E+03  0.50499646607E+03  0.00000000000E+00 0. -1.
    9000005    1    1    2  501    0 -0.20258990645E+03  0.62833712339E+03  0.81560406326E+03  0.11229693668E+04  0.40000000000E+03 0. -1.
   -9000005    1    1    2    0  503  0.20258990645E+03 -0.62833712339E+03  0.72701828288E+02  0.77532945686E+03  0.40000000000E+03 0. -1.
<mgrwt>
<rscale>  2 0.77191334E+03</rscale>
<asrwt>0</asrwt>
<pdfrwt beam="1">  1       21 0.21435421E+00 0.77191334E+03</pdfrwt>
<pdfrwt beam="2">  1       21 0.77691765E-01 0.77191334E+03</pdfrwt>
<totfact> 0.11155860E+02</totfact>
</mgrwt>
</event>
<event>
 4    1  0.4840996E-002  0.4391668E+03  0.7818608E-02  0.1031003E+00
         21   -1    0    0  503  502  0.00000000000E+00  0.00000000000E+00  0.48468108399E+03  0.48468108399E+03  0.00000000000E+00 0. -1.
         21   -1    0    0  501  503 -0.00000000000E+00 -0.00000000000E+00 -0.54548832288E+03  0.54548832288E+03  0.00000000000E+00 0. -1.
    9000005    1    1    2  501    0 -0.16997761535E+02  0.18049518789E+03 -0.29830377247E+03  0.53089789736E+03  0.40000000000E+03 0. -1.
   -9000005    1    1    2    0  502  0.16997761535E+02 -0.18049518789E+03  0.23749653357E+03  0.49927150951E+03  0.40000000000E+03 0. -1.
<mgrwt>
<rscale>  2 0.43916675E+03</rscale>
<asrwt>0</asrwt>
<pdfrwt beam="1">  1       21 0.74566320E-01 0.43916675E+03</pdfrwt>
<pdfrwt beam="2">  1       21 0.83921281E-01 0.43916675E+03</pdfrwt>
<totfact> 0.17171481E+03</totfact>
</mgrwt>
</event>
<event>
 4    1  0.4840996E-002  0.4563343E+03  0.7818608E-02  0.1025850E+00
         21   -1    0    0  501  502  0.00000000000E+00  0.00000000000E+00  0.65450006107E+03  0.65450006107E+03  0.00000000000E+00 0. -1.
         21   -1    0    0  502  503 -0.00000000000E+00 -0.00000000000E+00 -0.34038551520E+03  0.34038551520E+03  0.00000000000E+00 0.  1.
    9000005    1    1    2  501    0 -0.21184245238E+03  0.57998297550E+02  0.28414528141E+03  0.53756819855E+03  0.40000000000E+03 0. -1.
   -9000005    1    1    2    0  503  0.21184245238E+03 -0.57998297550E+02  0.29969264461E+02  0.45731737772E+03  0.40000000000E+03 0. -1.
<mgrwt>
<rscale>  2 0.45633434E+03</rscale>
<asrwt>0</asrwt>
<pdfrwt beam="1">  1       21 0.10069232E+00 0.45633434E+03</pdfrwt>
<pdfrwt beam="2">  1       21 0.52367002E-01 0.45633434E+03</pdfrwt>
<totfact> 0.24127176E+03</totfact>
</mgrwt>
</event>
<event>
 4    1  0.4840996E-002  0.6290805E+03  0.7818608E-02  0.9846845E-01
         21   -1    0    0  501  502  0.00000000000E+00  0.00000000000E+00  0.55175568949E+03  0.55175568949E+03  0.00000000000E+00 0. -1.
         21   -1    0    0  502  503 -0.00000000000E+00 -0.00000000000E+00 -0.81162136182E+03  0.81162136182E+03  0.00000000000E+00 0.  1.
    9000005    1    1    2  501    0 -0.40990018758E+03 -0.26023848894E+03 -0.36239285313E+03  0.72599642899E+03  0.40000000000E+03 0.  1.
   -9000005    1    1    2    0  503  0.40990018758E+03  0.26023848894E+03  0.10252718080E+03  0.63738062232E+03  0.40000000000E+03 0. -1.
<mgrwt>
<rscale>  2 0.62908047E+03</rscale>
<asrwt>0</asrwt>
<pdfrwt beam="1">  1       21 0.84885490E-01 0.62908047E+03</pdfrwt>
<pdfrwt beam="2">  1       21 0.12486483E+00 0.62908047E+03</pdfrwt>
<totfact> 0.44849463E+02</totfact>
</mgrwt>
</event>
<event>
 4    1  0.4840996E-002  0.6333969E+03  0.7818608E-02  0.9838442E-01
         21   -1    0    0  503  502  0.00000000000E+00  0.00000000000E+00  0.15134682192E+04  0.15134682192E+04  0.00000000000E+00 0. -1.
         21   -1    0    0  501  503 -0.00000000000E+00 -0.00000000000E+00 -0.26523554635E+03  0.26523554635E+03  0.00000000000E+00 0.  1.
    9000005    1    1    2  501    0  0.29569807344E+03  0.39211513693E+03  0.60264682300E+03  0.87428532214E+03  0.40000000000E+03 0. -1.
   -9000005    1    1    2    0  502 -0.29569807344E+03 -0.39211513693E+03  0.64558584987E+03  0.90441844342E+03  0.40000000000E+03 0. -1.
<mgrwt>
<rscale>  2 0.63339690E+03</rscale>
<asrwt>0</asrwt>
<pdfrwt beam="1">  1       21 0.23284126E+00 0.63339690E+03</pdfrwt>
<pdfrwt beam="2">  1       21 0.40805470E-01 0.63339690E+03</pdfrwt>
<totfact> 0.36435088E+02</totfact>
</mgrwt>
</event>
<event>
 4    1  0.4840996E-002  0.5888734E+03  0.7818608E-02  0.9928763E-01
         21   -1    0    0  501  502  0.00000000000E+00  0.00000000000E+00  0.26410895481E+03  0.26410895481E+03  0.00000000000E+00 0.  1.
         21   -1    0    0  502  503 -0.00000000000E+00 -0.00000000000E+00 -0.13564114165E+04  0.13564114165E+04  0.00000000000E+00 0.  1.
    9000005    1    1    2  501    0 -0.16619067106E+03 -0.39893926599E+03 -0.69112552045E+03  0.90797927405E+03  0.40000000000E+03 0.  1.
   -9000005    1    1    2    0  503  0.16619067106E+03  0.39893926599E+03 -0.40117694123E+03  0.71254109725E+03  0.40000000000E+03 0.  1.
<mgrwt>
<rscale>  2 0.58887340E+03</rscale>
<asrwt>0</asrwt>
<pdfrwt beam="1">  1       21 0.40632147E-01 0.58887340E+03</pdfrwt>
<pdfrwt beam="2">  1       21 0.20867868E+00 0.58887340E+03</pdfrwt>
<totfact> 0.53566147E+02</totfact>
</mgrwt>
</event>
<event>
 4    1  0.4840996E-002  0.4053702E+03  0.7818608E-02  0.1041936E+00
         21   -1    0    0  501  502  0.00000000000E+00  0.00000000000E+00  0.27325970776E+03  0.27325970776E+03  0.00000000000E+00 0. -1.
         21   -1    0    0  502  503 -0.00000000000E+00 -0.00000000000E+00 -0.12597116321E+04  0.12597116321E+04  0.00000000000E+00 0. -1.
    9000005    1    1    2  501    0 -0.41293141692E+02 -0.51184653472E+02 -0.10473415969E+04  0.11230536109E+04  0.40000000000E+03 0. -1.
   -9000005    1    1    2    0  503  0.41293141692E+02  0.51184653472E+02  0.60889672571E+02  0.40991772897E+03  0.40000000000E+03 0. -1.
<mgrwt>
<rscale>  2 0.40537019E+03</rscale>
<asrwt>0</asrwt>
<pdfrwt beam="1">  1       21 0.42039955E-01 0.40537019E+03</pdfrwt>
<pdfrwt beam="2">  1       21 0.19380179E+00 0.40537019E+03</pdfrwt>
<totfact> 0.68010414E+02</totfact>
</mgrwt>
</event>
<event>
 4    1  0.4840996E-002  0.4954726E+03  0.7818608E-02  0.1014967E+00
         21   -1    0    0  503  502  0.00000000000E+00  0.00000000000E+00  0.11024673506E+04  0.11024673506E+04  0.00000000000E+00 0. -1.
         21   -1    0    0  501  503 -0.00000000000E+00 -0.00000000000E+00 -0.59958312482E+03  0.59958312482E+03  0.00000000000E+00 0. -1.
    9000005    1    1    2  501    0 -0.13686281023E+03 -0.25838276516E+03 -0.42329543723E+03  0.65166871134E+03  0.40000000000E+03 0. -1.
   -9000005    1    1    2    0  502  0.13686281023E+03  0.25838276516E+03  0.92617966300E+03  0.10503817641E+04  0.40000000000E+03 0. -1.
<mgrwt>
<rscale>  2 0.49547258E+03</rscale>
<asrwt>0</asrwt>
<pdfrwt beam="1">  1       21 0.16961036E+00 0.49547258E+03</pdfrwt>
<pdfrwt beam="2">  1       21 0.92243558E-01 0.49547258E+03</pdfrwt>
<totfact> 0.16887028E+02</totfact>
</mgrwt>
</event>
<event>
 4    1  0.4840996E-002  0.4250229E+03  0.7818608E-02  0.1035444E+00
         21   -1    0    0  503  502  0.00000000000E+00  0.00000000000E+00  0.20234314463E+03  0.20234314463E+03  0.00000000000E+00 0. -1.
         21   -1    0    0  501  503 -0.00000000000E+00 -0.00000000000E+00 -0.15293016524E+04  0.15293016524E+04  0.00000000000E+00 0. -1.
    9000005    1    1    2  501    0  0.45679425856E+02  0.13622724062E+03 -0.12220711502E+04  0.12938710783E+04  0.40000000000E+03 0. -1.
   -9000005    1    1    2    0  502 -0.45679425856E+02 -0.13622724062E+03 -0.10488735755E+03  0.43777371873E+03  0.40000000000E+03 0. -1.
<mgrwt>
<rscale>  2 0.42502291E+03</rscale>
<asrwt>0</asrwt>
<pdfrwt beam="1">  1       21 0.31129714E-01 0.42502291E+03</pdfrwt>
<pdfrwt beam="2">  1       21 0.23527718E+00 0.42502291E+03</pdfrwt>
<totfact> 0.66861242E+02</totfact>
</mgrwt>
</event>
<event>
 4    1  0.4840996E-002  0.5328744E+03  0.7818608E-02  0.1005537E+00
         21   -1    0    0  501  502  0.00000000000E+00  0.00000000000E+00  0.41670843447E+03  0.41670843447E+03  0.00000000000E+00 0. -1.
         21   -1    0    0  502  503 -0.00000000000E+00 -0.00000000000E+00 -0.75187922388E+03  0.75187922388E+03  0.00000000000E+00 0.  1.
    9000005    1    1    2  501    0  0.35203943476E+03  0.48289523942E+01  0.11275004662E+02  0.53299362861E+03  0.40000000000E+03 0. -1.
   -9000005    1    1    2    0  503 -0.35203943476E+03 -0.48289523942E+01 -0.34644579408E+03  0.63559402974E+03  0.40000000000E+03 0.  1.
<mgrwt>
<rscale>  2 0.53287436E+03</rscale>
<asrwt>0</asrwt>
<pdfrwt beam="1">  1       21 0.64108990E-01 0.53287436E+03</pdfrwt>
<pdfrwt beam="2">  1       21 0.11567373E+00 0.53287436E+03</pdfrwt>
<totfact> 0.10705717E+03</totfact>
</mgrwt>
</event>
<event>
 4    1  0.4840996E-002  0.5105540E+03  0.7818608E-02  0.1011060E+00
         21   -1    0    0  503  502  0.00000000000E+00  0.00000000000E+00  0.14866498842E+04  0.14866498842E+04  0.00000000000E+00 0.  1.
         21   -1    0    0  501  503 -0.00000000000E+00 -0.00000000000E+00 -0.26170191594E+03  0.26170191594E+03  0.00000000000E+00 0.  1.
    9000005    1    1    2  501    0 -0.26421676356E+03 -0.17565556205E+03  0.11028987425E+03  0.52233057635E+03  0.40000000000E+03 0.  1.
   -9000005    1    1    2    0  502  0.26421676356E+03  0.17565556205E+03  0.11146580940E+04  0.12260212238E+04  0.40000000000E+03 0.  1.
<mgrwt>
<rscale>  2 0.51055399E+03</rscale>
<asrwt>0</asrwt>
<pdfrwt beam="1">  1       21 0.22871536E+00 0.51055399E+03</pdfrwt>
<pdfrwt beam="2">  1       21 0.40261834E-01 0.51055399E+03</pdfrwt>
<totfact> 0.41826280E+02</totfact>
</mgrwt>
</event>
<event>
 4    1  0.4840996E-002  0.4106265E+03  0.7818608E-02  0.1040161E+00
         21   -1    0    0  503  502  0.00000000000E+00  0.00000000000E+00  0.53038394393E+03  0.53038394393E+03  0.00000000000E+00 0.  1.
         21   -1    0    0  501  503 -0.00000000000E+00 -0.00000000000E+00 -0.35635610151E+03  0.35635610151E+03  0.00000000000E+00 0.  1.
    9000005    1    1    2  501    0 -0.90696190536E+02  0.19706326688E+02  0.23264455432E+03  0.47195087345E+03  0.40000000000E+03 0.  1.
   -9000005    1    1    2    0  502  0.90696190536E+02 -0.19706326688E+02 -0.58616711902E+02  0.41478917199E+03  0.40000000000E+03 0.  1.
<mgrwt>
<rscale>  2 0.41062652E+03</rscale>
<asrwt>0</asrwt>
<pdfrwt beam="1">  1       21 0.81597530E-01 0.41062652E+03</pdfrwt>
<pdfrwt beam="2">  1       21 0.54824015E-01 0.41062652E+03</pdfrwt>
<totfact> 0.36609091E+03</totfact>
</mgrwt>
</event>
<event>
 4    1  0.4840996E-002  0.5308962E+03  0.7818608E-02  0.1006015E+00
         21   -1    0    0  503  502  0.00000000000E+00  0.00000000000E+00  0.12789886121E+04  0.12789886121E+04  0.00000000000E+00 0. -1.
         21   -1    0    0  501  503 -0.00000000000E+00 -0.00000000000E+00 -0.30203703554E+03  0.30203703554E+03  0.00000000000E+00 0. -1.
    9000005    1    1    2  501    0 -0.16723010241E+03 -0.30640641178E+03  0.77418779246E+02  0.53651138265E+03  0.40000000000E+03 0.  1.
   -9000005    1    1    2    0  502  0.16723010241E+03  0.30640641178E+03  0.89953279735E+03  0.10445142650E+04  0.40000000000E+03 0.  1.
<mgrwt>
<rscale>  2 0.53089622E+03</rscale>
<asrwt>0</asrwt>
<pdfrwt beam="1">  1       21 0.19676748E+00 0.53089622E+03</pdfrwt>
<pdfrwt beam="2">  1       21 0.46467237E-01 0.53089622E+03</pdfrwt>
<totfact> 0.49695141E+02</totfact>
</mgrwt>
</event>
<event>
 4    1  0.4840996E-002  0.4999654E+03  0.7818608E-02  0.1013788E+00
         21   -1    0    0  503  502  0.00000000000E+00  0.00000000000E+00  0.86863879188E+03  0.86863879188E+03  0.00000000000E+00 0. -1.
         21   -1    0    0  501  503 -0.00000000000E+00 -0.00000000000E+00 -0.34719250753E+03  0.34719250753E+03  0.00000000000E+00 0. -1.
    9000005    1    1    2  501    0  0.74653520545E+02 -0.29050352110E+03  0.92189835725E+01  0.50005043101E+03  0.40000000000E+03 0. -1.
   -9000005    1    1    2    0  502 -0.74653520545E+02  0.29050352110E+03  0.51222730078E+03  0.71578086840E+03  0.40000000000E+03 0. -1.
<mgrwt>
<rscale>  2 0.49996544E+03</rscale>
<asrwt>0</asrwt>
<pdfrwt beam="1">  1       21 0.13363674E+00 0.49996544E+03</pdfrwt>
<pdfrwt beam="2">  1       21 0.53414232E-01 0.49996544E+03</pdfrwt>
<totfact> 0.11136342E+03</totfact>
</mgrwt>
</event>
<event>
 4    1  0.4840996E-002  0.4648470E+03  0.7818608E-02  0.1023385E+00
         21   -1    0    0  503  502  0.00000000000E+00  0.00000000000E+00  0.51514248230E+03  0.51514248230E+03  0.00000000000E+00 0.  1.
         21   -1    0    0  501  503 -0.00000000000E+00 -0.00000000000E+00 -0.43464384057E+03  0.43464384057E+03  0.00000000000E+00 0.  1.
    9000005    1    1    2  501    0 -0.22861314543E+03 -0.61796115961E+02 -0.48505185278E+02  0.46737081981E+03  0.40000000000E+03 0.  1.
   -9000005    1    1    2    0  502  0.22861314543E+03  0.61796115961E+02  0.12900382701E+03  0.48241550306E+03  0.40000000000E+03 0.  1.
<mgrwt>
<rscale>  2 0.46484700E+03</rscale>
<asrwt>0</asrwt>
<pdfrwt beam="1">  1       21 0.79252689E-01 0.46484700E+03</pdfrwt>
<pdfrwt beam="2">  1       21 0.66868284E-01 0.46484700E+03</pdfrwt>
<totfact> 0.24835692E+03</totfact>
</mgrwt>
</event>
<event>
 4    1  0.4840996E-002  0.4830902E+03  0.7818608E-02  0.1018289E+00
         21   -1    0    0  503  502  0.00000000000E+00  0.00000000000E+00  0.20202458442E+03  0.20202458442E+03  0.00000000000E+00 0.  1.
         21   -1    0    0  501  503 -0.00000000000E+00 -0.00000000000E+00 -0.37364042750E+04  0.37364042750E+04  0.00000000000E+00 0.  1.
    9000005    1    1    2  501    0  0.26624193398E+03 -0.49913813625E+02 -0.34039248399E+04  0.34380343907E+04  0.40000000000E+03 0.  1.
   -9000005    1    1    2    0  502 -0.26624193398E+03  0.49913813625E+02 -0.13045485064E+03  0.50039446865E+03  0.40000000000E+03 0.  1.
<mgrwt>
<rscale>  2 0.48309022E+03</rscale>
<asrwt>0</asrwt>
<pdfrwt beam="1">  1       21 0.31080707E-01 0.48309022E+03</pdfrwt>
<pdfrwt beam="2">  1       21 0.57483140E+00 0.48309022E+03</pdfrwt>
<totfact> 0.37024249E+00</totfact>
</mgrwt>
</event>
<event>
 4    1  0.4840996E-002  0.4298131E+03  0.7818608E-02  0.1033919E+00
         21   -1    0    0  503  502  0.00000000000E+00  0.00000000000E+00  0.54022557978E+03  0.54022557978E+03  0.00000000000E+00 0.  1.
         21   -1    0    0  501  503 -0.00000000000E+00 -0.00000000000E+00 -0.45022356755E+03  0.45022356755E+03  0.00000000000E+00 0.  1.
    9000005    1    1    2  501    0  0.45846074323E+02  0.15045742073E+03 -0.19783623246E+03  0.47315797875E+03  0.40000000000E+03 0.  1.
   -9000005    1    1    2    0  502 -0.45846074323E+02 -0.15045742073E+03  0.28783824469E+03  0.51729116858E+03  0.40000000000E+03 0.  1.
<mgrwt>
<rscale>  2 0.42981310E+03</rscale>
<asrwt>0</asrwt>
<pdfrwt beam="1">  1       21 0.83111628E-01 0.42981310E+03</pdfrwt>
<pdfrwt beam="2">  1       21 0.69265164E-01 0.42981310E+03</pdfrwt>
<totfact> 0.20826740E+03</totfact>
</mgrwt>
</event>
<event>
 4    1  0.4840996E-002  0.4026466E+03  0.7818608E-02  0.1042867E+00
         21   -1    0    0  501  502  0.00000000000E+00  0.00000000000E+00  0.30915455579E+03  0.30915455579E+03  0.00000000000E+00 0.  1.
         21   -1    0    0  502  503 -0.00000000000E+00 -0.00000000000E+00 -0.85024377021E+03  0.85024377021E+03  0.00000000000E+00 0.  1.
    9000005    1    1    2  501    0  0.23793100783E+01  0.46028408872E+02  0.88317693996E+02  0.41221874122E+03  0.40000000000E+03 0.  1.
   -9000005    1    1    2    0  503 -0.23793100783E+01 -0.46028408872E+02 -0.62940690842E+03  0.74717958478E+03  0.40000000000E+03 0.  1.
<mgrwt>
<rscale>  2 0.40264659E+03</rscale>
<asrwt>0</asrwt>
<pdfrwt beam="1">  1       21 0.47562240E-01 0.40264659E+03</pdfrwt>
<pdfrwt beam="2">  1       21 0.13080673E+00 0.40264659E+03</pdfrwt>
<totfact> 0.15687868E+03</totfact>
</mgrwt>
</event>
<event>
 4    1  0.4840996E-002  0.4000421E+03  0.7818608E-02  0.1043765E+00
         21   -1    0    0  501  502  0.00000000000E+00  0.00000000000E+00  0.49239674877E+03  0.49239674877E+03  0.00000000000E+00 0.  1.
         21   -1    0    0  502  503 -0.00000000000E+00 -0.00000000000E+00 -0.32579678090E+03  0.32579678090E+03  0.00000000000E+00 0.  1.
    9000005    1    1    2  501    0  0.37380408857E+01  0.44398718880E+01  0.63191399893E+02  0.40500226966E+03  0.40000000000E+03 0. -1.
   -9000005    1    1    2    0  503 -0.37380408857E+01 -0.44398718880E+01  0.10340856798E+03  0.41319126000E+03  0.40000000000E+03 0. -1.
<mgrwt>
<rscale>  2 0.40004210E+03</rscale>
<asrwt>0</asrwt>
<pdfrwt beam="1">  1       21 0.75753346E-01 0.40004210E+03</pdfrwt>
<pdfrwt beam="2">  1       21 0.50122582E-01 0.40004210E+03</pdfrwt>
<totfact> 0.52806318E+03</totfact>
</mgrwt>
</event>
<event>
 4    1  0.4840996E-002  0.5569281E+03  0.7818608E-02  0.9999029E-01
         21   -1    0    0  503  502  0.00000000000E+00  0.00000000000E+00  0.68952105231E+03  0.68952105231E+03  0.00000000000E+00 0. -1.
         21   -1    0    0  501  503 -0.00000000000E+00 -0.00000000000E+00 -0.47639312359E+03  0.47639312359E+03  0.00000000000E+00 0. -1.
    9000005    1    1    2  501    0 -0.26384705134E+03 -0.28381981716E+03 -0.31085098524E+02  0.55779497888E+03  0.40000000000E+03 0. -1.
   -9000005    1    1    2    0  502  0.26384705134E+03  0.28381981716E+03  0.24421302725E+03  0.60811919702E+03  0.40000000000E+03 0. -1.
<mgrwt>
<rscale>  2 0.55692814E+03</rscale>
<asrwt>0</asrwt>
<pdfrwt beam="1">  1       21 0.10608016E+00 0.55692814E+03</pdfrwt>
<pdfrwt beam="2">  1       21 0.73291250E-01 0.55692814E+03</pdfrwt>
<totfact> 0.97501836E+02</totfact>
</mgrwt>
</event>
<event>
 4    1  0.4840996E-002  0.4401484E+03  0.7818608E-02  0.1030701E+00
         21   -1    0    0  503  502  0.00000000000E+00  0.00000000000E+00  0.17100639625E+04  0.17100639625E+04  0.00000000000E+00 0.  1.
         21   -1    0    0  501  503 -0.00000000000E+00 -0.00000000000E+00 -0.27169835247E+03  0.27169835247E+03  0.00000000000E+00 0. -1.
    9000005    1    1    2  501    0 -0.12085209934E+03  0.13829470791E+03 -0.37422012415E+02  0.44173641820E+03  0.40000000000E+03 0. -1.
   -9000005    1    1    2    0  502  0.12085209934E+03 -0.13829470791E+03  0.14757876225E+04  0.15400258968E+04  0.40000000000E+03 0.  1.
<mgrwt>
<rscale>  2 0.44014845E+03</rscale>
<asrwt>0</asrwt>
<pdfrwt beam="1">  1       21 0.26308676E+00 0.44014845E+03</pdfrwt>
<pdfrwt beam="2">  1       21 0.41799748E-01 0.44014845E+03</pdfrwt>
<totfact> 0.24593925E+02</totfact>
</mgrwt>
</event>
<event>
 4    1  0.4840996E-002  0.5061222E+03  0.7818608E-02  0.1012193E+00
         21   -1    0    0  501  502  0.00000000000E+00  0.00000000000E+00  0.90637227695E+03  0.90637227695E+03  0.00000000000E+00 0. -1.
         21   -1    0    0  502  503 -0.00000000000E+00 -0.00000000000E+00 -0.28745135388E+03  0.28745135388E+03  0.00000000000E+00 0.  1.
    9000005    1    1    2  501    0 -0.17934019517E+02  0.30957719443E+03  0.38683996667E+03  0.63702812197E+03  0.40000000000E+03 0. -1.
   -9000005    1    1    2    0  503  0.17934019517E+02 -0.30957719443E+03  0.23208095640E+03  0.55679550886E+03  0.40000000000E+03 0.  1.
<mgrwt>
<rscale>  2 0.50612219E+03</rscale>
<asrwt>0</asrwt>
<pdfrwt beam="1">  1       21 0.13944189E+00 0.50612219E+03</pdfrwt>
<pdfrwt beam="2">  1       21 0.44223286E-01 0.50612219E+03</pdfrwt>
<totfact> 0.14829531E+03</totfact>
</mgrwt>
</event>
<event>
 4    1  0.4840996E-002  0.5371376E+03  0.7818608E-02  0.1004516E+00
         21   -1    0    0  503  502  0.00000000000E+00  0.00000000000E+00  0.72783743972E+03  0.72783743972E+03  0.00000000000E+00 0.  1.
         21   -1    0    0  501  503 -0.00000000000E+00 -0.00000000000E+00 -0.40144747892E+03  0.40144747892E+03  0.00000000000E+00 0. -1.
    9000005    1    1    2  501    0 -0.35790689632E+03 -0.20481499308E+02  0.99899367134E+02  0.54634853509E+03  0.40000000000E+03 0.  1.
   -9000005    1    1    2    0  502  0.35790689632E+03  0.20481499308E+02  0.22649059367E+03  0.58293638355E+03  0.40000000000E+03 0.  1.
<mgrwt>
<rscale>  2 0.53713763E+03</rscale>
<asrwt>0</asrwt>
<pdfrwt beam="1">  1       21 0.11197499E+00 0.53713763E+03</pdfrwt>
<pdfrwt beam="2">  1       21 0.61761151E-01 0.53713763E+03</pdfrwt>
<totfact> 0.12598951E+03</totfact>
</mgrwt>
</event>
<event>
 4    1  0.4840996E-002  0.5168276E+03  0.7818608E-02  0.1009478E+00
         21   -1    0    0  503  502  0.00000000000E+00  0.00000000000E+00  0.19073695564E+03  0.19073695564E+03  0.00000000000E+00 0. -1.
         21   -1    0    0  501  503 -0.00000000000E+00 -0.00000000000E+00 -0.14087609958E+04  0.14087609958E+04  0.00000000000E+00 0. -1.
    9000005    1    1    2  501    0  0.52270767981E+02 -0.32307670999E+03 -0.54745355863E+03  0.75287196294E+03  0.40000000000E+03 0. -1.
   -9000005    1    1    2    0  502 -0.52270767981E+02  0.32307670999E+03 -0.67057048155E+03  0.84662598853E+03  0.40000000000E+03 0. -1.
<mgrwt>
<rscale>  2 0.51682762E+03</rscale>
<asrwt>0</asrwt>
<pdfrwt beam="1">  1       21 0.29344147E-01 0.51682762E+03</pdfrwt>
<pdfrwt beam="2">  1       21 0.21673246E+00 0.51682762E+03</pdfrwt>
<totfact> 0.94463818E+02</totfact>
</mgrwt>
</event>
<event>
 4    1  0.4840996E-002  0.4485596E+03  0.7818608E-02  0.1028152E+00
         21   -1    0    0  503  502  0.00000000000E+00  0.00000000000E+00  0.44654552502E+03  0.44654552502E+03  0.00000000000E+00 0. -1.
         21   -1    0    0  501  503 -0.00000000000E+00 -0.00000000000E+00 -0.54426640844E+03  0.54426640844E+03  0.00000000000E+00 0.  1.
    9000005    1    1    2  501    0  0.18482546175E+03 -0.83935852221E+02 -0.25439627826E+03  0.51567736521E+03  0.40000000000E+03 0.  1.
   -9000005    1    1    2    0  502 -0.18482546175E+03  0.83935852221E+02  0.15667539484E+03  0.47513456825E+03  0.40000000000E+03 0. -1.
<mgrwt>
<rscale>  2 0.44855956E+03</rscale>
<asrwt>0</asrwt>
<pdfrwt beam="1">  1       21 0.68699311E-01 0.44855956E+03</pdfrwt>
<pdfrwt beam="2">  1       21 0.83733294E-01 0.44855956E+03</pdfrwt>
<totfact> 0.20699965E+03</totfact>
</mgrwt>
</event>
<event>
 4    1  0.4840996E-002  0.1126086E+04  0.7818608E-02  0.9180133E-01
         21   -1    0    0  501  502  0.00000000000E+00  0.00000000000E+00  0.13463072649E+04  0.13463072649E+04  0.00000000000E+00 0. -1.
         21   -1    0    0  502  503 -0.00000000000E+00 -0.00000000000E+00 -0.10316242093E+04  0.10316242093E+04  0.00000000000E+00 0.  1.
    9000005    1    1    2  501    0  0.95026824027E+03 -0.45283638928E+03  0.50800673403E+03  0.12353709426E+04  0.40000000000E+03 0. -1.
   -9000005    1    1    2    0  503 -0.95026824027E+03  0.45283638928E+03 -0.19332367843E+03  0.11425605317E+04  0.40000000000E+03 0.  1.
<mgrwt>
<rscale>  2 0.11260864E+04</rscale>
<asrwt>0</asrwt>
<pdfrwt beam="1">  1       21 0.20712419E+00 0.11260864E+04</pdfrwt>
<pdfrwt beam="2">  1       21 0.15871142E+00 0.11260864E+04</pdfrwt>
<totfact> 0.18229610E+01</totfact>
</mgrwt>
</event>
<event>
 4    1  0.4840996E-002  0.4400101E+03  0.7818608E-02  0.1030744E+00
         21   -1    0    0  503  502  0.00000000000E+00  0.00000000000E+00  0.29818520085E+03  0.29818520085E+03  0.00000000000E+00 0.  1.
         21   -1    0    0  501  503 -0.00000000000E+00 -0.00000000000E+00 -0.73465267075E+03  0.73465267075E+03  0.00000000000E+00 0. -1.
    9000005    1    1    2  501    0  0.16855586143E+03 -0.72095790477E+02 -0.39426641985E+03  0.59080867567E+03  0.40000000000E+03 0. -1.
   -9000005    1    1    2    0  502 -0.16855586143E+03  0.72095790477E+02 -0.42201050057E+02  0.44202919593E+03  0.40000000000E+03 0. -1.
<mgrwt>
<rscale>  2 0.44001009E+03</rscale>
<asrwt>0</asrwt>
<pdfrwt beam="1">  1       21 0.45874647E-01 0.44001009E+03</pdfrwt>
<pdfrwt beam="2">  1       21 0.11302349E+00 0.44001009E+03</pdfrwt>
<totfact> 0.24169341E+03</totfact>
</mgrwt>
</event>
<event>
 4    1  0.4840996E-002  0.4401324E+03  0.7818608E-02  0.1030706E+00
         21   -1    0    0  501  502  0.00000000000E+00  0.00000000000E+00  0.27734077184E+03  0.27734077184E+03  0.00000000000E+00 0. -1.
         21   -1    0    0  502  503 -0.00000000000E+00 -0.00000000000E+00 -0.70883117594E+03  0.70883117594E+03  0.00000000000E+00 0. -1.
    9000005    1    1    2  501    0 -0.90290422652E+01  0.18339860583E+03 -0.15615469157E+03  0.46701269782E+03  0.40000000000E+03 0. -1.
   -9000005    1    1    2    0  503  0.90290422652E+01 -0.18339860583E+03 -0.27533571253E+03  0.51915924996E+03  0.40000000000E+03 0. -1.
<mgrwt>
<rscale>  2 0.44013245E+03</rscale>
<asrwt>0</asrwt>
<pdfrwt beam="1">  1       21 0.42667811E-01 0.44013245E+03</pdfrwt>
<pdfrwt beam="2">  1       21 0.10905095E+00 0.44013245E+03</pdfrwt>
<totfact> 0.30731333E+03</totfact>
</mgrwt>
</event>
<event>
 4    1  0.4840996E-002  0.5540210E+03  0.7818608E-02  0.1000567E+00
         21   -1    0    0  501  502  0.00000000000E+00  0.00000000000E+00  0.13973665588E+04  0.13973665588E+04  0.00000000000E+00 0.  1.
         21   -1    0    0  502  503 -0.00000000000E+00 -0.00000000000E+00 -0.25264677038E+03  0.25264677038E+03  0.00000000000E+00 0. -1.
    9000005    1    1    2  501    0  0.25858947219E+03  0.28296768352E+03  0.87048614558E+03  0.10318359146E+04  0.40000000000E+03 0. -1.
   -9000005    1    1    2    0  503 -0.25858947219E+03 -0.28296768352E+03  0.27423364290E+03  0.61817741461E+03  0.40000000000E+03 0. -1.
<mgrwt>
<rscale>  2 0.55402096E+03</rscale>
<asrwt>0</asrwt>
<pdfrwt beam="1">  1       21 0.21497947E+00 0.55402096E+03</pdfrwt>
<pdfrwt beam="2">  1       21 0.38868735E-01 0.55402096E+03</pdfrwt>
<totfact> 0.54106014E+02</totfact>
</mgrwt>
</event>
<event>
 4    1  0.4840996E-002  0.4967229E+03  0.7818608E-02  0.1014638E+00
         21   -1    0    0  503  502  0.00000000000E+00  0.00000000000E+00  0.10358440653E+04  0.10358440653E+04  0.00000000000E+00 0. -1.
         21   -1    0    0  501  503 -0.00000000000E+00 -0.00000000000E+00 -0.35334645492E+03  0.35334645492E+03  0.00000000000E+00 0. -1.
    9000005    1    1    2  501    0  0.27287198848E+03 -0.11079044957E+03 -0.55270888075E+02  0.49978847214E+03  0.40000000000E+03 0. -1.
   -9000005    1    1    2    0  502 -0.27287198848E+03  0.11079044957E+03  0.73776849844E+03  0.88940204807E+03  0.40000000000E+03 0. -1.
<mgrwt>
<rscale>  2 0.49672291E+03</rscale>
<asrwt>0</asrwt>
<pdfrwt beam="1">  1       21 0.15936062E+00 0.49672291E+03</pdfrwt>
<pdfrwt beam="2">  1       21 0.54360993E-01 0.49672291E+03</pdfrwt>
<totfact> 0.66694378E+02</totfact>
</mgrwt>
</event>
<event>
 4    1  0.4840996E-002  0.4364244E+03  0.7818608E-02  0.1031850E+00
         21   -1    0    0  501  502  0.00000000000E+00  0.00000000000E+00  0.97612416206E+03  0.97612416206E+03  0.00000000000E+00 0.  1.
         21   -1    0    0  502  503 -0.00000000000E+00 -0.00000000000E+00 -0.20045228823E+03  0.20045228823E+03  0.00000000000E+00 0.  1.
    9000005    1    1    2  501    0  0.60157792748E+02 -0.16385133325E+03  0.48374023362E+03  0.65151426159E+03  0.40000000000E+03 0.  1.
   -9000005    1    1    2    0  503 -0.60157792748E+02  0.16385133325E+03  0.29193164021E+03  0.52506218869E+03  0.40000000000E+03 0.  1.
<mgrwt>
<rscale>  2 0.43642436E+03</rscale>
<asrwt>0</asrwt>
<pdfrwt beam="1">  1       21 0.15017295E+00 0.43642436E+03</pdfrwt>
<pdfrwt beam="2">  1       21 0.30838814E-01 0.43642436E+03</pdfrwt>
<totfact> 0.26026532E+03</totfact>
</mgrwt>
</event>
<event>
 4    1  0.4840996E-002  0.5331695E+03  0.7818608E-02  0.1005466E+00
         21   -1    0    0  503  502  0.00000000000E+00  0.00000000000E+00  0.43296621327E+03  0.43296621327E+03  0.00000000000E+00 0. -1.
         21   -1    0    0  501  503 -0.00000000000E+00 -0.00000000000E+00 -0.70621437052E+03  0.70621437052E+03  0.00000000000E+00 0.  1.
    9000005    1    1    2  501    0 -0.30341809184E+03  0.17946366406E+03  0.14404249782E+02  0.53336406664E+03  0.40000000000E+03 0. -1.
   -9000005    1    1    2    0  502  0.30341809184E+03 -0.17946366406E+03 -0.28765240703E+03  0.60581651714E+03  0.40000000000E+03 0. -1.
<mgrwt>
<rscale>  2 0.53316953E+03</rscale>
<asrwt>0</asrwt>
<pdfrwt beam="1">  1       21 0.66610188E-01 0.53316953E+03</pdfrwt>
<pdfrwt beam="2">  1       21 0.10864836E+00 0.53316953E+03</pdfrwt>
<totfact> 0.11495321E+03</totfact>
</mgrwt>
</event>
<event>
 4    1  0.4840996E-002  0.5135426E+03  0.7818608E-02  0.1010303E+00
         21   -1    0    0  503  502  0.00000000000E+00  0.00000000000E+00  0.22342924528E+04  0.22342924528E+04  0.00000000000E+00 0.  1.
         21   -1    0    0  501  503 -0.00000000000E+00 -0.00000000000E+00 -0.24772774708E+03  0.24772774708E+03  0.00000000000E+00 0.  1.
    9000005    1    1    2  501    0  0.13532691184E+03  0.29225443725E+03  0.18912172399E+04  0.19597011705E+04  0.40000000000E+03 0.  1.
   -9000005    1    1    2    0  502 -0.13532691184E+03 -0.29225443725E+03  0.95347465739E+02  0.52231902931E+03  0.40000000000E+03 0.  1.
<mgrwt>
<rscale>  2 0.51354263E+03</rscale>
<asrwt>0</asrwt>
<pdfrwt beam="1">  1       21 0.34373729E+00 0.51354263E+03</pdfrwt>
<pdfrwt beam="2">  1       21 0.38111963E-01 0.51354263E+03</pdfrwt>
<totfact> 0.92545534E+01</totfact>
</mgrwt>
</event>
<event>
 4    1  0.4840996E-002  0.5255003E+03  0.7818608E-02  0.1007329E+00
         21   -1    0    0  501  502  0.00000000000E+00  0.00000000000E+00  0.17023947763E+03  0.17023947763E+03  0.00000000000E+00 0. -1.
         21   -1    0    0  502  503 -0.00000000000E+00 -0.00000000000E+00 -0.16221620017E+04  0.16221620017E+04  0.00000000000E+00 0.  1.
    9000005    1    1    2  501    0 -0.54015797149E+02  0.33650091468E+03 -0.72993887189E+03  0.89942277524E+03  0.40000000000E+03 0.  1.
   -9000005    1    1    2    0  503  0.54015797149E+02 -0.33650091468E+03 -0.72198365214E+03  0.89297870404E+03  0.40000000000E+03 0. -1.
<mgrwt>
<rscale>  2 0.52550031E+03</rscale>
<asrwt>0</asrwt>
<pdfrwt beam="1">  1       21 0.26190688E-01 0.52550031E+03</pdfrwt>
<pdfrwt beam="2">  1       21 0.24956339E+00 0.52550031E+03</pdfrwt>
<totfact> 0.73103535E+02</totfact>
</mgrwt>
</event>
<event>
 4    1  0.4840996E-002  0.5611936E+03  0.7818608E-02  0.9989358E-01
         21   -1    0    0  503  502  0.00000000000E+00  0.00000000000E+00  0.17977908541E+04  0.17977908541E+04  0.00000000000E+00 0. -1.
         21   -1    0    0  501  503 -0.00000000000E+00 -0.00000000000E+00 -0.22050129030E+03  0.22050129030E+03  0.00000000000E+00 0. -1.
    9000005    1    1    2  501    0  0.35899978212E+03  0.16142297892E+03  0.33113925137E+03  0.65160680282E+03  0.40000000000E+03 0. -1.
   -9000005    1    1    2    0  502 -0.35899978212E+03 -0.16142297892E+03  0.12461503124E+04  0.13666853416E+04  0.40000000000E+03 0. -1.
<mgrwt>
<rscale>  2 0.56119357E+03</rscale>
<asrwt>0</asrwt>
<pdfrwt beam="1">  1       21 0.27658320E+00 0.56119357E+03</pdfrwt>
<pdfrwt beam="2">  1       21 0.33923277E-01 0.56119357E+03</pdfrwt>
<totfact> 0.29335068E+02</totfact>
</mgrwt>
</event>
<event>
 4    1  0.4840996E-002  0.4437872E+03  0.7818608E-02  0.1029591E+00
         21   -1    0    0  501  502  0.00000000000E+00  0.00000000000E+00  0.64751554228E+03  0.64751554228E+03  0.00000000000E+00 0.  1.
         21   -1    0    0  502  503 -0.00000000000E+00 -0.00000000000E+00 -0.46408355764E+03  0.46408355764E+03  0.00000000000E+00 0.  1.
    9000005    1    1    2  501    0  0.13196548952E+03  0.13975750704E+03  0.41798738532E+03  0.60963965216E+03  0.40000000000E+03 0.  1.
   -9000005    1    1    2    0  503 -0.13196548952E+03 -0.13975750704E+03 -0.23455540069E+03  0.50195944775E+03  0.40000000000E+03 0.  1.
<mgrwt>
<rscale>  2 0.44378717E+03</rscale>
<asrwt>0</asrwt>
<pdfrwt beam="1">  1       21 0.99617776E-01 0.44378717E+03</pdfrwt>
<pdfrwt beam="2">  1       21 0.71397470E-01 0.44378717E+03</pdfrwt>
<totfact> 0.12585005E+03</totfact>
</mgrwt>
</event>
<event>
 4    1  0.4840996E-002  0.4233269E+03  0.7818608E-02  0.1035989E+00
         21   -1    0    0  503  502  0.00000000000E+00  0.00000000000E+00  0.11679453130E+04  0.11679453130E+04  0.00000000000E+00 0. -1.
         21   -1    0    0  501  503 -0.00000000000E+00 -0.00000000000E+00 -0.38235568288E+03  0.38235568288E+03  0.00000000000E+00 0. -1.
    9000005    1    1    2  501    0 -0.10398875941E+03 -0.91607836864E+02 -0.20698683277E+03  0.47122097449E+03  0.40000000000E+03 0. -1.
   -9000005    1    1    2    0  502  0.10398875941E+03  0.91607836864E+02  0.99257646291E+03  0.10790800214E+04  0.40000000000E+03 0. -1.
<mgrwt>
<rscale>  2 0.42332689E+03</rscale>
<asrwt>0</asrwt>
<pdfrwt beam="1">  1       21 0.17968389E+00 0.42332689E+03</pdfrwt>
<pdfrwt beam="2">  1       21 0.58823952E-01 0.42332689E+03</pdfrwt>
<totfact> 0.41303233E+02</totfact>
</mgrwt>
</event>
<event>
 4    1  0.4840996E-002  0.4025174E+03  0.7818608E-02  0.1042911E+00
         21   -1    0    0  503  502  0.00000000000E+00  0.00000000000E+00  0.99760925650E+03  0.99760925650E+03  0.00000000000E+00 0.  1.
         21   -1    0    0  501  503 -0.00000000000E+00 -0.00000000000E+00 -0.16361054168E+03  0.16361054168E+03  0.00000000000E+00 0.  1.
    9000005    1    1    2  501    0 -0.38961991357E+02 -0.22409768610E+02  0.36723293016E+03  0.54486719436E+03  0.40000000000E+03 0.  1.
   -9000005    1    1    2    0  502  0.38961991357E+02  0.22409768610E+02  0.46676578466E+03  0.61635260381E+03  0.40000000000E+03 0.  1.
<mgrwt>
<rscale>  2 0.40251737E+03</rscale>
<asrwt>0</asrwt>
<pdfrwt beam="1">  1       21 0.15347834E+00 0.40251737E+03</pdfrwt>
<pdfrwt beam="2">  1       21 0.25170853E-01 0.40251737E+03</pdfrwt>
<totfact> 0.37082374E+03</totfact>
</mgrwt>
</event>
<event>
 4    1  0.4840996E-002  0.4896257E+03  0.7818608E-02  0.1016523E+00
         21   -1    0    0  503  502  0.00000000000E+00  0.00000000000E+00  0.13871822314E+04  0.13871822314E+04  0.00000000000E+00 0.  1.
         21   -1    0    0  501  503 -0.00000000000E+00 -0.00000000000E+00 -0.17309697908E+03  0.17309697908E+03  0.00000000000E+00 0.  1.
    9000005    1    1    2  501    0 -0.20900013282E+03 -0.18987428079E+03  0.57585457593E+03  0.75587154375E+03  0.40000000000E+03 0.  1.
   -9000005    1    1    2    0  502  0.20900013282E+03  0.18987428079E+03  0.63823067637E+03  0.80440766672E+03  0.40000000000E+03 0.  1.
<mgrwt>
<rscale>  2 0.48962567E+03</rscale>
<asrwt>0</asrwt>
<pdfrwt beam="1">  1       21 0.21341264E+00 0.48962567E+03</pdfrwt>
<pdfrwt beam="2">  1       21 0.26630305E-01 0.48962567E+03</pdfrwt>
<totfact> 0.12159099E+03</totfact>
</mgrwt>
</event>
<event>
 4    1  0.4840996E-002  0.4673252E+03  0.7818608E-02  0.1022678E+00
         21   -1    0    0  503  502  0.00000000000E+00  0.00000000000E+00  0.40402798189E+03  0.40402798189E+03  0.00000000000E+00 0. -1.
         21   -1    0    0  501  503 -0.00000000000E+00 -0.00000000000E+00 -0.65357592381E+03  0.65357592381E+03  0.00000000000E+00 0. -1.
    9000005    1    1    2  501    0  0.15756635323E+03 -0.18320941495E+03 -0.34468922950E+03  0.58069226819E+03  0.40000000000E+03 0. -1.
   -9000005    1    1    2    0  502 -0.15756635323E+03  0.18320941495E+03  0.95141287587E+02  0.47691163752E+03  0.40000000000E+03 0. -1.
<mgrwt>
<rscale>  2 0.46732520E+03</rscale>
<asrwt>0</asrwt>
<pdfrwt beam="1">  1       21 0.62158152E-01 0.46732520E+03</pdfrwt>
<pdfrwt beam="2">  1       21 0.10055014E+00 0.46732520E+03</pdfrwt>
<totfact> 0.16611211E+03</totfact>
</mgrwt>
</event>
<event>
 4    1  0.4840996E-002  0.6284581E+03  0.7818608E-02  0.9848062E-01
         21   -1    0    0  501  502  0.00000000000E+00  0.00000000000E+00  0.61279113701E+03  0.61279113701E+03  0.00000000000E+00 0.  1.
         21   -1    0    0  502  503 -0.00000000000E+00 -0.00000000000E+00 -0.66647910460E+03  0.66647910460E+03  0.00000000000E+00 0. -1.
    9000005    1    1    2  501    0  0.75222060933E+02 -0.47885404815E+03 -0.14293303004E+03  0.64450710543E+03  0.40000000000E+03 0.  1.
   -9000005    1    1    2    0  503 -0.75222060933E+02  0.47885404815E+03  0.89245062447E+02  0.63476313618E+03  0.40000000000E+03 0. -1.
<mgrwt>
<rscale>  2 0.62845808E+03</rscale>
<asrwt>0</asrwt>
<pdfrwt beam="1">  1       21 0.94275560E-01 0.62845808E+03</pdfrwt>
<pdfrwt beam="2">  1       21 0.10253525E+00 0.62845808E+03</pdfrwt>
<totfact> 0.57440732E+02</totfact>
</mgrwt>
</event>
<event>
 4    1  0.4840996E-002  0.4007548E+03  0.7818608E-02  0.1043519E+00
         21   -1    0    0  501  502  0.00000000000E+00  0.00000000000E+00  0.65594309918E+03  0.65594309918E+03  0.00000000000E+00 0. -1.
         21   -1    0    0  502  503 -0.00000000000E+00 -0.00000000000E+00 -0.31263522184E+03  0.31263522184E+03  0.00000000000E+00 0. -1.
    9000005    1    1    2  501    0 -0.23930997964E+02  0.56290366553E+01  0.39716578977E+03  0.56422073985E+03  0.40000000000E+03 0.  1.
   -9000005    1    1    2    0  503  0.23930997964E+02 -0.56290366553E+01 -0.53857912431E+02  0.40435758117E+03  0.40000000000E+03 0.  1.
<mgrwt>
<rscale>  2 0.40075476E+03</rscale>
<asrwt>0</asrwt>
<pdfrwt beam="1">  1       21 0.10091432E+00 0.40075476E+03</pdfrwt>
<pdfrwt beam="2">  1       21 0.48097727E-01 0.40075476E+03</pdfrwt>
<totfact> 0.29373187E+03</totfact>
</mgrwt>
</event>
<event>
 4    1  0.4840996E-002  0.4278445E+03  0.7818608E-02  0.1034543E+00
         21   -1    0    0  501  502  0.00000000000E+00  0.00000000000E+00  0.74045510216E+03  0.74045510216E+03  0.00000000000E+00 0. -1.
         21   -1    0    0  502  503 -0.00000000000E+00 -0.00000000000E+00 -0.25179555027E+03  0.25179555027E+03  0.00000000000E+00 0. -1.
    9000005    1    1    2  501    0 -0.14375619283E+03 -0.48837585784E+02  0.31125165866E+03  0.52908274190E+03  0.40000000000E+03 0. -1.
   -9000005    1    1    2    0  503  0.14375619283E+03  0.48837585784E+02  0.17740789322E+03  0.46316791052E+03  0.40000000000E+03 0. -1.
<mgrwt>
<rscale>  2 0.42784454E+03</rscale>
<asrwt>0</asrwt>
<pdfrwt beam="1">  1       21 0.11391617E+00 0.42784454E+03</pdfrwt>
<pdfrwt beam="2">  1       21 0.38737777E-01 0.42784454E+03</pdfrwt>
<totfact> 0.33810709E+03</totfact>
</mgrwt>
</event>
<event>
 4    1  0.4840996E-002  0.4133408E+03  0.7818608E-02  0.1039256E+00
         21   -1    0    0  503  502  0.00000000000E+00  0.00000000000E+00  0.23096367363E+04  0.23096367363E+04  0.00000000000E+00 0.  1.
         21   -1    0    0  501  503 -0.00000000000E+00 -0.00000000000E+00 -0.83990467798E+02  0.83990467798E+02  0.00000000000E+00 0. -1.
    9000005    1    1    2  501    0  0.10368109352E+03 -0.10043660911E+02  0.69949823940E+03  0.81249518842E+03  0.40000000000E+03 0. -1.
   -9000005    1    1    2    0  502 -0.10368109352E+03  0.10043660911E+02  0.15261480291E+04  0.15811320157E+04  0.40000000000E+03 0.  1.
<mgrwt>
<rscale>  2 0.41334083E+03</rscale>
<asrwt>0</asrwt>
<pdfrwt beam="1">  1       21 0.35532868E+00 0.41334083E+03</pdfrwt>
<pdfrwt beam="2">  1       21 0.12921612E-01 0.41334083E+03</pdfrwt>
<totfact> 0.67339861E+02</totfact>
</mgrwt>
</event>
<event>
 4    1  0.4840996E-002  0.4489022E+03  0.7818608E-02  0.1028050E+00
         21   -1    0    0  503  502  0.00000000000E+00  0.00000000000E+00  0.13336287671E+04  0.13336287671E+04  0.00000000000E+00 0.  1.
         21   -1    0    0  501  503 -0.00000000000E+00 -0.00000000000E+00 -0.15132514709E+03  0.15132514709E+03  0.00000000000E+00 0.  1.
    9000005    1    1    2  501    0 -0.19805367282E+03 -0.47832153172E+02  0.56260173271E+03  0.71974570638E+03  0.40000000000E+03 0.  1.
   -9000005    1    1    2    0  502  0.19805367282E+03  0.47832153172E+02  0.61970188732E+03  0.76520820784E+03  0.40000000000E+03 0.  1.
<mgrwt>
<rscale>  2 0.44890219E+03</rscale>
<asrwt>0</asrwt>
<pdfrwt beam="1">  1       21 0.20517365E+00 0.44890219E+03</pdfrwt>
<pdfrwt beam="2">  1       21 0.23280793E-01 0.44890219E+03</pdfrwt>
<totfact> 0.18200417E+03</totfact>
</mgrwt>
</event>
<event>
 4    1  0.4840996E-002  0.5571632E+03  0.7818608E-02  0.9998494E-01
         21   -1    0    0  501  502  0.00000000000E+00  0.00000000000E+00  0.20056099456E+03  0.20056099456E+03  0.00000000000E+00 0.  1.
         21   -1    0    0  502  503 -0.00000000000E+00 -0.00000000000E+00 -0.16289368184E+04  0.16289368184E+04  0.00000000000E+00 0. -1.
    9000005    1    1    2  501    0 -0.19732332515E+03 -0.33390760253E+03 -0.51004902318E+03  0.75536798166E+03  0.40000000000E+03 0.  1.
   -9000005    1    1    2    0  503  0.19732332515E+03  0.33390760253E+03 -0.91832680062E+03  0.10741298313E+04  0.40000000000E+03 0. -1.
<mgrwt>
<rscale>  2 0.55716316E+03</rscale>
<asrwt>0</asrwt>
<pdfrwt beam="1">  1       21 0.30855537E-01 0.55716316E+03</pdfrwt>
<pdfrwt beam="2">  1       21 0.25060567E+00 0.55716316E+03</pdfrwt>
<totfact> 0.51350930E+02</totfact>
</mgrwt>
</event>
<event>
 4    1  0.4840996E-002  0.4620354E+03  0.7818608E-02  0.1024193E+00
         21   -1    0    0  503  502  0.00000000000E+00  0.00000000000E+00  0.35012110827E+03  0.35012110827E+03  0.00000000000E+00 0.  1.
         21   -1    0    0  501  503 -0.00000000000E+00 -0.00000000000E+00 -0.65240658709E+03  0.65240658709E+03  0.00000000000E+00 0. -1.
    9000005    1    1    2  501    0 -0.94344035507E+02 -0.21113009226E+03 -0.27935816536E+03  0.53992378855E+03  0.40000000000E+03 0. -1.
   -9000005    1    1    2    0  502  0.94344035507E+02  0.21113009226E+03 -0.22927313453E+02  0.46260390681E+03  0.40000000000E+03 0.  1.
<mgrwt>
<rscale>  2 0.46203540E+03</rscale>
<asrwt>0</asrwt>
<pdfrwt beam="1">  1       21 0.53864786E-01 0.46203540E+03</pdfrwt>
<pdfrwt beam="2">  1       21 0.10037024E+00 0.46203540E+03</pdfrwt>
<totfact> 0.22840118E+03</totfact>
</mgrwt>
</event>
<event>
 4    1  0.4840996E-002  0.4019335E+03  0.7818608E-02  0.1043112E+00
         21   -1    0    0  503  502  0.00000000000E+00  0.00000000000E+00  0.37630848625E+03  0.37630848625E+03  0.00000000000E+00 0.  1.
         21   -1    0    0  501  503 -0.00000000000E+00 -0.00000000000E+00 -0.50948039332E+03  0.50948039332E+03  0.00000000000E+00 0.  1.
    9000005    1    1    2  501    0  0.38652367041E+02  0.75201534208E+01  0.10910971110E+03  0.41647987615E+03  0.40000000000E+03 0.  1.
   -9000005    1    1    2    0  502 -0.38652367041E+02 -0.75201534208E+01 -0.24228161817E+03  0.46930900342E+03  0.40000000000E+03 0.  1.
<mgrwt>
<rscale>  2 0.40193352E+03</rscale>
<asrwt>0</asrwt>
<pdfrwt beam="1">  1       21 0.57893613E-01 0.40193352E+03</pdfrwt>
<pdfrwt beam="2">  1       21 0.78381599E-01 0.40193352E+03</pdfrwt>
<totfact> 0.35820344E+03</totfact>
</mgrwt>
</event>
<event>
 4    1  0.4840996E-002  0.5061252E+03  0.7818608E-02  0.1012192E+00
         21   -1    0    0  501  502  0.00000000000E+00  0.00000000000E+00  0.14960522261E+04  0.14960522261E+04  0.00000000000E+00 0.  1.
         21   -1    0    0  502  503 -0.00000000000E+00 -0.00000000000E+00 -0.17689317521E+03  0.17689317521E+03  0.00000000000E+00 0. -1.
    9000005    1    1    2  501    0 -0.20668756236E+03  0.23117731214E+03  0.80930243936E+03  0.95453294152E+03  0.40000000000E+03 0.  1.
   -9000005    1    1    2    0  503  0.20668756236E+03 -0.23117731214E+03  0.50985661157E+03  0.71841245983E+03  0.40000000000E+03 0. -1.
<mgrwt>
<rscale>  2 0.50612518E+03</rscale>
<asrwt>0</asrwt>
<pdfrwt beam="1">  1       21 0.23016187E+00 0.50612518E+03</pdfrwt>
<pdfrwt beam="2">  1       21 0.27214336E-01 0.50612518E+03</pdfrwt>
<totfact> 0.90379990E+02</totfact>
</mgrwt>
</event>
<event>
 4    1  0.4840996E-002  0.4412130E+03  0.7818608E-02  0.1030375E+00
         21   -1    0    0  503  502  0.00000000000E+00  0.00000000000E+00  0.50438629543E+03  0.50438629543E+03  0.00000000000E+00 0. -1.
         21   -1    0    0  501  503 -0.00000000000E+00 -0.00000000000E+00 -0.77082936643E+03  0.77082936643E+03  0.00000000000E+00 0. -1.
    9000005    1    1    2  501    0  0.18171764534E+03  0.40590459055E+02 -0.58376398453E+03  0.73174399733E+03  0.40000000000E+03 0. -1.
   -9000005    1    1    2    0  502 -0.18171764534E+03 -0.40590459055E+02  0.31732091353E+03  0.54347166454E+03  0.40000000000E+03 0. -1.
<mgrwt>
<rscale>  2 0.44121297E+03</rscale>
<asrwt>0</asrwt>
<pdfrwt beam="1">  1       21 0.77597892E-01 0.44121297E+03</pdfrwt>
<pdfrwt beam="2">  1       21 0.11858913E+00 0.44121297E+03</pdfrwt>
<totfact> 0.67703796E+02</totfact>
</mgrwt>
</event>
<event>
 4    1  0.4840996E-002  0.4007398E+03  0.7818608E-02  0.1043524E+00
         21   -1    0    0  501  502  0.00000000000E+00  0.00000000000E+00  0.52359979738E+03  0.52359979738E+03  0.00000000000E+00 0. -1.
         21   -1    0    0  502  503 -0.00000000000E+00 -0.00000000000E+00 -0.11415332175E+04  0.11415332175E+04  0.00000000000E+00 0. -1.
    9000005    1    1    2  501    0  0.70541508097E+01  0.23294529659E+02  0.40302078281E+03  0.56834685495E+03  0.40000000000E+03 0. -1.
   -9000005    1    1    2    0  503 -0.70541508097E+01 -0.23294529659E+02 -0.10209542030E+04  0.10967861600E+04  0.40000000000E+03 0. -1.
<mgrwt>
<rscale>  2 0.40073981E+03</rscale>
<asrwt>0</asrwt>
<pdfrwt beam="1">  1       21 0.80553815E-01 0.40073981E+03</pdfrwt>
<pdfrwt beam="2">  1       21 0.17562049E+00 0.40073981E+03</pdfrwt>
<totfact> 0.22086699E+02</totfact>
</mgrwt>
</event>
<event>
 4    1  0.4840996E-002  0.5111152E+03  0.7818608E-02  0.1010918E+00
         21   -1    0    0  501  502  0.00000000000E+00  0.00000000000E+00  0.10141299338E+04  0.10141299338E+04  0.00000000000E+00 0.  1.
         21   -1    0    0  502  503 -0.00000000000E+00 -0.00000000000E+00 -0.62008937883E+03  0.62008937883E+03  0.00000000000E+00 0. -1.
    9000005    1    1    2  501    0 -0.16314488562E+03 -0.27317123065E+03  0.82176340437E+03  0.96774679939E+03  0.40000000000E+03 0.  1.
   -9000005    1    1    2    0  503  0.16314488562E+03  0.27317123065E+03 -0.42772284942E+03  0.66647251322E+03  0.40000000000E+03 0. -1.
<mgrwt>
<rscale>  2 0.51111523E+03</rscale>
<asrwt>0</asrwt>
<pdfrwt beam="1">  1       21 0.15601999E+00 0.51111523E+03</pdfrwt>
<pdfrwt beam="2">  1       21 0.95398366E-01 0.51111523E+03</pdfrwt>
<totfact> 0.19566972E+02</totfact>
</mgrwt>
</event>
<event>
 4    1  0.4840996E-002  0.5547920E+03  0.7818608E-02  0.1000391E+00
         21   -1    0    0  503  502  0.00000000000E+00  0.00000000000E+00  0.87521837396E+03  0.87521837396E+03  0.00000000000E+00 0. -1.
         21   -1    0    0  501  503 -0.00000000000E+00 -0.00000000000E+00 -0.14596764595E+04  0.14596764595E+04  0.00000000000E+00 0. -1.
    9000005    1    1    2  501    0  0.68570615015E+02 -0.37827534417E+03 -0.13093645193E+04  0.14220511979E+04  0.40000000000E+03 0. -1.
   -9000005    1    1    2    0  502 -0.68570615015E+02  0.37827534417E+03  0.72490643373E+03  0.91284363552E+03  0.40000000000E+03 0. -1.
<mgrwt>
<rscale>  2 0.55479200E+03</rscale>
<asrwt>0</asrwt>
<pdfrwt beam="1">  1       21 0.13464898E+00 0.55479200E+03</pdfrwt>
<pdfrwt beam="2">  1       21 0.22456561E+00 0.55479200E+03</pdfrwt>
<totfact> 0.26896244E+01</totfact>
</mgrwt>
</event>
<event>
 4    1  0.4840996E-002  0.5243695E+03  0.7818608E-02  0.1007607E+00
         21   -1    0    0  503  502  0.00000000000E+00  0.00000000000E+00  0.99043743968E+03  0.99043743968E+03  0.00000000000E+00 0. -1.
         21   -1    0    0  501  503 -0.00000000000E+00 -0.00000000000E+00 -0.58238327459E+03  0.58238327459E+03  0.00000000000E+00 0. -1.
    9000005    1    1    2  501    0  0.32526567316E+03 -0.95737172697E+02 -0.36486179642E+03  0.63881726250E+03  0.40000000000E+03 0. -1.
   -9000005    1    1    2    0  502 -0.32526567316E+03  0.95737172697E+02  0.77291596151E+03  0.93400345178E+03  0.40000000000E+03 0. -1.
<mgrwt>
<rscale>  2 0.52436949E+03</rscale>
<asrwt>0</asrwt>
<pdfrwt beam="1">  1       21 0.15237499E+00 0.52436949E+03</pdfrwt>
<pdfrwt beam="2">  1       21 0.89597427E-01 0.52436949E+03</pdfrwt>
<totfact> 0.24124310E+02</totfact>
</mgrwt>
</event>
<event>
 4    1  0.4840996E-002  0.4818597E+03  0.7818608E-02  0.1018625E+00
         21   -1    0    0  501  502  0.00000000000E+00  0.00000000000E+00  0.13999227194E+04  0.13999227194E+04  0.00000000000E+00 0.  1.
         21   -1    0    0  502  503 -0.00000000000E+00 -0.00000000000E+00 -0.45279716028E+03  0.45279716028E+03  0.00000000000E+00 0.  1.
    9000005    1    1    2  501    0  0.17538151689E+03 -0.20354387282E+03  0.12109958549E+04  0.13033417607E+04  0.40000000000E+03 0.  1.
   -9000005    1    1    2    0  503 -0.17538151689E+03  0.20354387282E+03 -0.26387029577E+03  0.54937811898E+03  0.40000000000E+03 0.  1.
<mgrwt>
<rscale>  2 0.48185971E+03</rscale>
<asrwt>0</asrwt>
<pdfrwt beam="1">  1       21 0.21537272E+00 0.48185971E+03</pdfrwt>
<pdfrwt beam="2">  1       21 0.69661103E-01 0.48185971E+03</pdfrwt>
<totfact> 0.15845384E+02</totfact>
</mgrwt>
</event>
<event>
 4    1  0.4840996E-002  0.4104650E+03  0.7818608E-02  0.1040215E+00
         21   -1    0    0  503  502  0.00000000000E+00  0.00000000000E+00  0.21079286626E+04  0.21079286626E+04  0.00000000000E+00 0. -1.
         21   -1    0    0  501  503 -0.00000000000E+00 -0.00000000000E+00 -0.12208402248E+03  0.12208402248E+03  0.00000000000E+00 0. -1.
    9000005    1    1    2  501    0  0.16073110265E+02 -0.90681911605E+02  0.33771294586E+03  0.53153700508E+03  0.40000000000E+03 0. -1.
   -9000005    1    1    2    0  502 -0.16073110265E+02  0.90681911605E+02  0.16481316943E+04  0.16984756800E+04  0.40000000000E+03 0. -1.
<mgrwt>
<rscale>  2 0.41046505E+03</rscale>
<asrwt>0</asrwt>
<pdfrwt beam="1">  1       21 0.32429669E+00 0.41046505E+03</pdfrwt>
<pdfrwt beam="2">  1       21 0.18782159E-01 0.41046505E+03</pdfrwt>
<totfact> 0.51977051E+02</totfact>
</mgrwt>
</event>
<event>
 4    1  0.4840996E-002  0.4135850E+03  0.7818608E-02  0.1039175E+00
         21   -1    0    0  503  502  0.00000000000E+00  0.00000000000E+00  0.32259911586E+03  0.32259911586E+03  0.00000000000E+00 0. -1.
         21   -1    0    0  501  503 -0.00000000000E+00 -0.00000000000E+00 -0.54643448085E+03  0.54643448085E+03  0.00000000000E+00 0. -1.
    9000005    1    1    2  501    0  0.95510999105E+02  0.43933591454E+02 -0.18673852416E+03  0.45378826320E+03  0.40000000000E+03 0. -1.
   -9000005    1    1    2    0  502 -0.95510999105E+02 -0.43933591454E+02 -0.37096840828E+02  0.41524533352E+03  0.40000000000E+03 0. -1.
<mgrwt>
<rscale>  2 0.41358495E+03</rscale>
<asrwt>0</asrwt>
<pdfrwt beam="1">  1       21 0.49630634E-01 0.41358495E+03</pdfrwt>
<pdfrwt beam="2">  1       21 0.84066842E-01 0.41358495E+03</pdfrwt>
<totfact> 0.42209350E+03</totfact>
</mgrwt>
</event>
<event>
 4    1  0.4840996E-002  0.4396196E+03  0.7818608E-02  0.1030864E+00
         21   -1    0    0  503  502  0.00000000000E+00  0.00000000000E+00  0.67978350659E+03  0.67978350659E+03  0.00000000000E+00 0.  1.
         21   -1    0    0  501  503 -0.00000000000E+00 -0.00000000000E+00 -0.97956597988E+03  0.97956597988E+03  0.00000000000E+00 0.  1.
    9000005    1    1    2  501    0 -0.12597571568E+03  0.13189202319E+03 -0.84887190326E+03  0.95595444183E+03  0.40000000000E+03 0.  1.
   -9000005    1    1    2    0  502  0.12597571568E+03 -0.13189202319E+03  0.54908942997E+03  0.70339504464E+03  0.40000000000E+03 0.  1.
<mgrwt>
<rscale>  2 0.43961959E+03</rscale>
<asrwt>0</asrwt>
<pdfrwt beam="1">  1       21 0.10458208E+00 0.43961959E+03</pdfrwt>
<pdfrwt beam="2">  1       21 0.15070246E+00 0.43961959E+03</pdfrwt>
<totfact> 0.17820461E+02</totfact>
</mgrwt>
</event>
<event>
 4    1  0.4840996E-002  0.7689565E+03  0.7818608E-02  0.9606071E-01
         21   -1    0    0  501  502  0.00000000000E+00  0.00000000000E+00  0.19353451206E+04  0.19353451206E+04  0.00000000000E+00 0. -1.
         21   -1    0    0  502  503 -0.00000000000E+00 -0.00000000000E+00 -0.36953488884E+03  0.36953488884E+03  0.00000000000E+00 0. -1.
    9000005    1    1    2  501    0  0.65270543615E+03  0.72592306426E+02  0.30326207260E+03  0.82659658481E+03  0.40000000000E+03 0. -1.
   -9000005    1    1    2    0  503 -0.65270543615E+03 -0.72592306426E+02  0.12625481592E+04  0.14782834246E+04  0.40000000000E+03 0. -1.
<mgrwt>
<rscale>  2 0.76895645E+03</rscale>
<asrwt>0</asrwt>
<pdfrwt beam="1">  1       21 0.29774540E+00 0.76895645E+03</pdfrwt>
<pdfrwt beam="2">  1       21 0.56851523E-01 0.76895645E+03</pdfrwt>
<totfact> 0.67488938E+01</totfact>
</mgrwt>
</event>
<event>
 4    1  0.4840996E-002  0.6661337E+03  0.7818608E-02  0.9776968E-01
         21   -1    0    0  501  502  0.00000000000E+00  0.00000000000E+00  0.29995069420E+03  0.29995069420E+03  0.00000000000E+00 0.  1.
         21   -1    0    0  502  503 -0.00000000000E+00 -0.00000000000E+00 -0.15959188451E+04  0.15959188451E+04  0.00000000000E+00 0. -1.
    9000005    1    1    2  501    0  0.40124824431E+03  0.35033397919E+03 -0.90416803443E+03  0.11230556019E+04  0.40000000000E+03 0.  1.
   -9000005    1    1    2    0  503 -0.40124824431E+03 -0.35033397919E+03 -0.39180011647E+03  0.77281393737E+03  0.40000000000E+03 0. -1.
<mgrwt>
<rscale>  2 0.66613366E+03</rscale>
<asrwt>0</asrwt>
<pdfrwt beam="1">  1       21 0.46146261E-01 0.66613366E+03</pdfrwt>
<pdfrwt beam="2">  1       21 0.24552597E+00 0.66613366E+03</pdfrwt>
<totfact> 0.23122431E+02</totfact>
</mgrwt>
</event>
<event>
 4    1  0.4840996E-002  0.4159871E+03  0.7818608E-02  0.1038380E+00
         21   -1    0    0  501  502  0.00000000000E+00  0.00000000000E+00  0.19318433228E+03  0.19318433228E+03  0.00000000000E+00 0. -1.
         21   -1    0    0  502  503 -0.00000000000E+00 -0.00000000000E+00 -0.89588415205E+03  0.89588415205E+03  0.00000000000E+00 0. -1.
    9000005    1    1    2  501    0 -0.11366457431E+03 -0.11209522118E+02 -0.34474110806E+03  0.54027004399E+03  0.40000000000E+03 0. -1.
   -9000005    1    1    2    0  503  0.11366457431E+03  0.11209522118E+02 -0.35795871170E+03  0.54879844034E+03  0.40000000000E+03 0. -1.
<mgrwt>
<rscale>  2 0.41598713E+03</rscale>
<asrwt>0</asrwt>
<pdfrwt beam="1">  1       21 0.29720666E-01 0.41598713E+03</pdfrwt>
<pdfrwt beam="2">  1       21 0.13782833E+00 0.41598713E+03</pdfrwt>
<totfact> 0.35525440E+03</totfact>
</mgrwt>
</event>
<event>
 4    1  0.4840996E-002  0.4190198E+03  0.7818608E-02  0.1037386E+00
         21   -1    0    0  501  502  0.00000000000E+00  0.00000000000E+00  0.24709650692E+03  0.24709650692E+03  0.00000000000E+00 0. -1.
         21   -1    0    0  502  503 -0.00000000000E+00 -0.00000000000E+00 -0.11409106147E+04  0.11409106147E+04  0.00000000000E+00 0. -1.
    9000005    1    1    2  501    0  0.11752239851E+03  0.42024330221E+02 -0.20675354875E+02  0.41952953267E+03  0.40000000000E+03 0. -1.
   -9000005    1    1    2    0  503 -0.11752239851E+03 -0.42024330221E+02 -0.87313875292E+03  0.96847758897E+03  0.40000000000E+03 0. -1.
<mgrwt>
<rscale>  2 0.41901976E+03</rscale>
<asrwt>0</asrwt>
<pdfrwt beam="1">  1       21 0.38014848E-01 0.41901976E+03</pdfrwt>
<pdfrwt beam="2">  1       21 0.17552471E+00 0.41901976E+03</pdfrwt>
<totfact> 0.11120662E+03</totfact>
</mgrwt>
</event>
<event>
 4    1  0.4840996E-002  0.4625166E+03  0.7818608E-02  0.1024054E+00
         21   -1    0    0  501  502  0.00000000000E+00  0.00000000000E+00  0.14604521446E+04  0.14604521446E+04  0.00000000000E+00 0. -1.
         21   -1    0    0  502  503 -0.00000000000E+00 -0.00000000000E+00 -0.34879143615E+03  0.34879143615E+03  0.00000000000E+00 0. -1.
    9000005    1    1    2  501    0  0.13565576670E+03 -0.18846508863E+03  0.12447972620E+04  0.13279464598E+04  0.40000000000E+03 0. -1.
   -9000005    1    1    2    0  503 -0.13565576670E+03  0.18846508863E+03 -0.13313655360E+03  0.48129712089E+03  0.40000000000E+03 0. -1.
<mgrwt>
<rscale>  2 0.46251657E+03</rscale>
<asrwt>0</asrwt>
<pdfrwt beam="1">  1       21 0.22468494E+00 0.46251657E+03</pdfrwt>
<pdfrwt beam="2">  1       21 0.53660222E-01 0.46251657E+03</pdfrwt>
<totfact> 0.24784318E+02</totfact>
</mgrwt>
</event>
<event>
 4    1  0.4840996E-002  0.4162732E+03  0.7818608E-02  0.1038286E+00
         21   -1    0    0  503  502  0.00000000000E+00  0.00000000000E+00  0.14928589200E+03  0.14928589200E+03  0.00000000000E+00 0.  1.
         21   -1    0    0  501  503 -0.00000000000E+00 -0.00000000000E+00 -0.12324672407E+04  0.12324672407E+04  0.00000000000E+00 0.  1.
    9000005    1    1    2  501    0 -0.58020020929E+02 -0.99584531225E+02 -0.70824959345E+03  0.82152351659E+03  0.40000000000E+03 0. -1.
   -9000005    1    1    2    0  502  0.58020020929E+02  0.99584531225E+02 -0.37493175529E+03  0.56022961615E+03  0.40000000000E+03 0. -1.
<mgrwt>
<rscale>  2 0.41627323E+03</rscale>
<asrwt>0</asrwt>
<pdfrwt beam="1">  1       21 0.22967060E-01 0.41627323E+03</pdfrwt>
<pdfrwt beam="2">  1       21 0.18961034E+00 0.41627323E+03</pdfrwt>
<totfact> 0.24099903E+03</totfact>
</mgrwt>
</event>
<event>
 4    1  0.4840996E-002  0.4781560E+03  0.7818608E-02  0.1019643E+00
         21   -1    0    0  503  502  0.00000000000E+00  0.00000000000E+00  0.54017219665E+03  0.54017219665E+03  0.00000000000E+00 0. -1.
         21   -1    0    0  501  503 -0.00000000000E+00 -0.00000000000E+00 -0.56887029130E+03  0.56887029130E+03  0.00000000000E+00 0.  1.
    9000005    1    1    2  501    0  0.21888603349E+03 -0.14395154643E+03 -0.29489756954E+03  0.56178084686E+03  0.40000000000E+03 0.  1.
   -9000005    1    1    2    0  502 -0.21888603349E+03  0.14395154643E+03  0.26619947490E+03  0.54726164109E+03  0.40000000000E+03 0.  1.
<mgrwt>
<rscale>  2 0.47815598E+03</rscale>
<asrwt>0</asrwt>
<pdfrwt beam="1">  1       21 0.83103415E-01 0.47815598E+03</pdfrwt>
<pdfrwt beam="2">  1       21 0.87518506E-01 0.47815598E+03</pdfrwt>
<totfact> 0.11941567E+03</totfact>
</mgrwt>
</event>
<event>
 4    1  0.4840996E-002  0.5245983E+03  0.7818608E-02  0.1007551E+00
         21   -1    0    0  501  502  0.00000000000E+00  0.00000000000E+00  0.10661776103E+04  0.10661776103E+04  0.00000000000E+00 0.  1.
         21   -1    0    0  502  503 -0.00000000000E+00 -0.00000000000E+00 -0.26657877673E+03  0.26657877673E+03  0.00000000000E+00 0.  1.
    9000005    1    1    2  501    0  0.62615693176E+02  0.33359060781E+03  0.28110728040E+03  0.59516780974E+03  0.40000000000E+03 0.  1.
   -9000005    1    1    2    0  503 -0.62615693176E+02 -0.33359060781E+03  0.51849155318E+03  0.73758857730E+03  0.40000000000E+03 0.  1.
<mgrwt>
<rscale>  2 0.52459834E+03</rscale>
<asrwt>0</asrwt>
<pdfrwt beam="1">  1       21 0.16402732E+00 0.52459834E+03</pdfrwt>
<pdfrwt beam="2">  1       21 0.41012120E-01 0.52459834E+03</pdfrwt>
<totfact> 0.11045025E+03</totfact>
</mgrwt>
</event>
<event>
 4    1  0.4840996E-002  0.4982158E+03  0.7818608E-02  0.1014246E+00
         21   -1    0    0  501  502  0.00000000000E+00  0.00000000000E+00  0.19165256129E+04  0.19165256129E+04  0.00000000000E+00 0.  1.
         21   -1    0    0  502  503 -0.00000000000E+00 -0.00000000000E+00 -0.30580289577E+03  0.30580289577E+03  0.00000000000E+00 0. -1.
    9000005    1    1    2  501    0 -0.29700587478E+03 -0.25480235014E+01  0.16490235845E+04  0.17226426688E+04  0.40000000000E+03 0.  1.
   -9000005    1    1    2    0  503  0.29700587478E+03  0.25480235014E+01 -0.38300867437E+02  0.49968583983E+03  0.40000000000E+03 0. -1.
<mgrwt>
<rscale>  2 0.49821580E+03</rscale>
<asrwt>0</asrwt>
<pdfrwt beam="1">  1       21 0.29485009E+00 0.49821580E+03</pdfrwt>
<pdfrwt beam="2">  1       21 0.47046601E-01 0.49821580E+03</pdfrwt>
<totfact> 0.11930096E+02</totfact>
</mgrwt>
</event>
<event>
 4    1  0.4840996E-002  0.6000758E+03  0.7818608E-02  0.9905249E-01
         21   -1    0    0  503  502  0.00000000000E+00  0.00000000000E+00  0.10807017865E+04  0.10807017865E+04  0.00000000000E+00 0.  1.
         21   -1    0    0  501  503 -0.00000000000E+00 -0.00000000000E+00 -0.51213526731E+03  0.51213526731E+03  0.00000000000E+00 0. -1.
    9000005    1    1    2  501    0  0.43639294399E+03  0.98245498865E+02 -0.18647256334E+03  0.62838125091E+03  0.40000000000E+03 0. -1.
   -9000005    1    1    2    0  502 -0.43639294399E+03 -0.98245498865E+02  0.75503908253E+03  0.96445580291E+03  0.40000000000E+03 0.  1.
<mgrwt>
<rscale>  2 0.60007581E+03</rscale>
<asrwt>0</asrwt>
<pdfrwt beam="1">  1       21 0.16626181E+00 0.60007581E+03</pdfrwt>
<pdfrwt beam="2">  1       21 0.78790041E-01 0.60007581E+03</pdfrwt>
<totfact> 0.24790168E+02</totfact>
</mgrwt>
</event>
<event>
 4    1  0.4840996E-002  0.6135371E+03  0.7818608E-02  0.9877712E-01
         21   -1    0    0  503  502  0.00000000000E+00  0.00000000000E+00  0.82169483448E+03  0.82169483448E+03  0.00000000000E+00 0.  1.
         21   -1    0    0  501  503 -0.00000000000E+00 -0.00000000000E+00 -0.45923735991E+03  0.45923735991E+03  0.00000000000E+00 0. -1.
    9000005    1    1    2  501    0 -0.20177302512E+03  0.41918417955E+03  0.14951491325E+03  0.63149223221E+03  0.40000000000E+03 0. -1.
   -9000005    1    1    2    0  502  0.20177302512E+03 -0.41918417955E+03  0.21294256131E+03  0.64943996218E+03  0.40000000000E+03 0.  1.
<mgrwt>
<rscale>  2 0.61353706E+03</rscale>
<asrwt>0</asrwt>
<pdfrwt beam="1">  1       21 0.12641459E+00 0.61353706E+03</pdfrwt>
<pdfrwt beam="2">  1       21 0.70651901E-01 0.61353706E+03</pdfrwt>
<totfact> 0.66734146E+02</totfact>
</mgrwt>
</event>
<event>
 4    1  0.4840996E-002  0.4464169E+03  0.7818608E-02  0.1028796E+00
         21   -1    0    0  503  502  0.00000000000E+00  0.00000000000E+00  0.42053679673E+03  0.42053679673E+03  0.00000000000E+00 0.  1.
         21   -1    0    0  501  503 -0.00000000000E+00 -0.00000000000E+00 -0.47456631555E+03  0.47456631555E+03  0.00000000000E+00 0.  1.
    9000005    1    1    2  501    0  0.13212698938E+03  0.14775136089E+03 -0.10114081874E+02  0.44653141057E+03  0.40000000000E+03 0.  1.
   -9000005    1    1    2    0  502 -0.13212698938E+03 -0.14775136089E+03 -0.43915436947E+02  0.44857170171E+03  0.40000000000E+03 0.  1.
<mgrwt>
<rscale>  2 0.44641685E+03</rscale>
<asrwt>0</asrwt>
<pdfrwt beam="1">  1       21 0.64697969E-01 0.44641685E+03</pdfrwt>
<pdfrwt beam="2">  1       21 0.73010202E-01 0.44641685E+03</pdfrwt>
<totfact> 0.32459783E+03</totfact>
</mgrwt>
</event>
<event>
 4    1  0.4840996E-002  0.4535139E+03  0.7818608E-02  0.1026679E+00
         21   -1    0    0  501  502  0.00000000000E+00  0.00000000000E+00  0.23268533958E+04  0.23268533958E+04  0.00000000000E+00 0.  1.
         21   -1    0    0  502  503 -0.00000000000E+00 -0.00000000000E+00 -0.91728310858E+02  0.91728310858E+02  0.00000000000E+00 0.  1.
    9000005    1    1    2  501    0  0.37580785044E+02  0.21038667606E+03  0.13481959925E+04  0.14224300697E+04  0.40000000000E+03 0.  1.
   -9000005    1    1    2    0  503 -0.37580785044E+02 -0.21038667606E+03  0.88692909236E+03  0.99615163692E+03  0.40000000000E+03 0.  1.
<mgrwt>
<rscale>  2 0.45351391E+03</rscale>
<asrwt>0</asrwt>
<pdfrwt beam="1">  1       21 0.35797740E+00 0.45351391E+03</pdfrwt>
<pdfrwt beam="2">  1       21 0.14112050E-01 0.45351391E+03</pdfrwt>
<totfact> 0.53801664E+02</totfact>
</mgrwt>
</event>
<event>
 4    1  0.4840996E-002  0.4805578E+03  0.7818608E-02  0.1018982E+00
         21   -1    0    0  501  502  0.00000000000E+00  0.00000000000E+00  0.27376170437E+03  0.27376170437E+03  0.00000000000E+00 0.  1.
         21   -1    0    0  502  503 -0.00000000000E+00 -0.00000000000E+00 -0.14163672263E+04  0.14163672263E+04  0.00000000000E+00 0. -1.
    9000005    1    1    2  501    0  0.18945884221E+03  0.18719293273E+03 -0.33894697555E+02  0.48175169691E+03  0.40000000000E+03 0.  1.
   -9000005    1    1    2    0  503 -0.18945884221E+03 -0.18719293273E+03 -0.11087108244E+04  0.12083772337E+04  0.40000000000E+03 0. -1.
<mgrwt>
<rscale>  2 0.48055785E+03</rscale>
<asrwt>0</asrwt>
<pdfrwt beam="1">  1       21 0.42117186E-01 0.48055785E+03</pdfrwt>
<pdfrwt beam="2">  1       21 0.21790265E+00 0.48055785E+03</pdfrwt>
<totfact> 0.45285045E+02</totfact>
</mgrwt>
</event>
<event>
 4    1  0.4840996E-002  0.7137934E+03  0.7818608E-02  0.9693930E-01
         21   -1    0    0  503  502  0.00000000000E+00  0.00000000000E+00  0.19409583758E+04  0.19409583758E+04  0.00000000000E+00 0.  1.
         21   -1    0    0  501  503 -0.00000000000E+00 -0.00000000000E+00 -0.30185842520E+03  0.30185842520E+03  0.00000000000E+00 0.  1.
    9000005    1    1    2  501    0  0.58972441632E+03  0.41546290018E+02  0.12244825306E+04  0.14173420367E+04  0.40000000000E+03 0.  1.
   -9000005    1    1    2    0  502 -0.58972441632E+03 -0.41546290018E+02  0.41461741999E+03  0.82547476423E+03  0.40000000000E+03 0.  1.
<mgrwt>
<rscale>  2 0.71379337E+03</rscale>
<asrwt>0</asrwt>
<pdfrwt beam="1">  1       21 0.29860897E+00 0.71379337E+03</pdfrwt>
<pdfrwt beam="2">  1       21 0.46439759E-01 0.71379337E+03</pdfrwt>
<totfact> 0.10529747E+02</totfact>
</mgrwt>
</event>
<event>
 4    1  0.4840996E-002  0.4451671E+03  0.7818608E-02  0.1029173E+00
         21   -1    0    0  503  502  0.00000000000E+00  0.00000000000E+00  0.29940750534E+03  0.29940750534E+03  0.00000000000E+00 0. -1.
         21   -1    0    0  501  503 -0.00000000000E+00 -0.00000000000E+00 -0.15516289312E+04  0.15516289312E+04  0.00000000000E+00 0. -1.
    9000005    1    1    2  501    0  0.93954641150E+01  0.19515496615E+03 -0.13269577307E+04  0.13996394374E+04  0.40000000000E+03 0. -1.
   -9000005    1    1    2    0  502 -0.93954641150E+01 -0.19515496615E+03  0.74736304879E+02  0.45139699913E+03  0.40000000000E+03 0. -1.
<mgrwt>
<rscale>  2 0.44516709E+03</rscale>
<asrwt>0</asrwt>
<pdfrwt beam="1">  1       21 0.46062693E-01 0.44516709E+03</pdfrwt>
<pdfrwt beam="2">  1       21 0.23871214E+00 0.44516709E+03</pdfrwt>
<totfact> 0.28256662E+02</totfact>
</mgrwt>
</event>
<event>
 4    1  0.4840996E-002  0.4357240E+03  0.7818608E-02  0.1032067E+00
         21   -1    0    0  503  502  0.00000000000E+00  0.00000000000E+00  0.39258376193E+03  0.39258376193E+03  0.00000000000E+00 0. -1.
         21   -1    0    0  501  503 -0.00000000000E+00 -0.00000000000E+00 -0.68593402299E+03  0.68593402299E+03  0.00000000000E+00 0.  1.
    9000005    1    1    2  501    0 -0.17198596222E+03  0.16620165558E+02 -0.43955223623E+03  0.61891967934E+03  0.40000000000E+03 0.  1.
   -9000005    1    1    2    0  502  0.17198596222E+03 -0.16620165558E+02  0.14620197517E+03  0.45959810557E+03  0.40000000000E+03 0. -1.
<mgrwt>
<rscale>  2 0.43572400E+03</rscale>
<asrwt>0</asrwt>
<pdfrwt beam="1">  1       21 0.60397502E-01 0.43572400E+03</pdfrwt>
<pdfrwt beam="2">  1       21 0.10552831E+00 0.43572400E+03</pdfrwt>
<totfact> 0.15911701E+03</totfact>
</mgrwt>
</event>
<event>
 4    1  0.4840996E-002  0.4090572E+03  0.7818608E-02  0.1040688E+00
         21   -1    0    0  501  502  0.00000000000E+00  0.00000000000E+00  0.13234059235E+03  0.13234059235E+03  0.00000000000E+00 0.  1.
         21   -1    0    0  502  503 -0.00000000000E+00 -0.00000000000E+00 -0.15899598401E+04  0.15899598401E+04  0.00000000000E+00 0.  1.
    9000005    1    1    2  501    0  0.35546985129E+02  0.77872883706E+02 -0.33911918461E+03  0.53134696343E+03  0.40000000000E+03 0. -1.
   -9000005    1    1    2    0  503 -0.35546985129E+02 -0.77872883706E+02 -0.11185000631E+04  0.11909534690E+04  0.40000000000E+03 0. -1.
<mgrwt>
<rscale>  2 0.40905718E+03</rscale>
<asrwt>0</asrwt>
<pdfrwt beam="1">  1       21 0.20360091E-01 0.40905718E+03</pdfrwt>
<pdfrwt beam="2">  1       21 0.24460921E+00 0.40905718E+03</pdfrwt>
<totfact> 0.13485802E+03</totfact>
</mgrwt>
</event>
<event>
 4    1  0.4840996E-002  0.4773672E+03  0.7818608E-02  0.1019861E+00
         21   -1    0    0  503  502  0.00000000000E+00  0.00000000000E+00  0.10777001324E+04  0.10777001324E+04  0.00000000000E+00 0. -1.
         21   -1    0    0  501  503 -0.00000000000E+00 -0.00000000000E+00 -0.27813440755E+03  0.27813440755E+03  0.00000000000E+00 0. -1.
    9000005    1    1    2  501    0 -0.25570026967E+03 -0.49968201500E+02  0.67840848726E+02  0.48216369609E+03  0.40000000000E+03 0. -1.
   -9000005    1    1    2    0  502  0.25570026967E+03  0.49968201500E+02  0.73172487609E+03  0.87367084383E+03  0.40000000000E+03 0. -1.
<mgrwt>
<rscale>  2 0.47736721E+03</rscale>
<asrwt>0</asrwt>
<pdfrwt beam="1">  1       21 0.16580002E+00 0.47736721E+03</pdfrwt>
<pdfrwt beam="2">  1       21 0.42789909E-01 0.47736721E+03</pdfrwt>
<totfact> 0.99905961E+02</totfact>
</mgrwt>
</event>
<event>
 4    1  0.4840996E-002  0.4804610E+03  0.7818608E-02  0.1019009E+00
         21   -1    0    0  501  502  0.00000000000E+00  0.00000000000E+00  0.13004788790E+04  0.13004788790E+04  0.00000000000E+00 0.  1.
         21   -1    0    0  502  503 -0.00000000000E+00 -0.00000000000E+00 -0.38509871699E+03  0.38509871699E+03  0.00000000000E+00 0.  1.
    9000005    1    1    2  501    0  0.11078708712E+03 -0.24201024500E+03  0.10764737293E+04  0.11788292613E+04  0.40000000000E+03 0.  1.
   -9000005    1    1    2    0  503 -0.11078708712E+03  0.24201024500E+03 -0.16109356726E+03  0.50674833475E+03  0.40000000000E+03 0.  1.
<mgrwt>
<rscale>  2 0.48046096E+03</rscale>
<asrwt>0</asrwt>
<pdfrwt beam="1">  1       21 0.20007367E+00 0.48046096E+03</pdfrwt>
<pdfrwt beam="2">  1       21 0.59245957E-01 0.48046096E+03</pdfrwt>
<totfact> 0.28641885E+02</totfact>
</mgrwt>
</event>
<event>
 4    1  0.4840996E-002  0.4260216E+03  0.7818608E-02  0.1035124E+00
         21   -1    0    0  501  502  0.00000000000E+00  0.00000000000E+00  0.20747771048E+03  0.20747771048E+03  0.00000000000E+00 0.  1.
         21   -1    0    0  502  503 -0.00000000000E+00 -0.00000000000E+00 -0.12755809122E+04  0.12755809122E+04  0.00000000000E+00 0.  1.
    9000005    1    1    2  501    0  0.14614162243E+03 -0.11705817433E+02 -0.11838380871E+03  0.44216413936E+03  0.40000000000E+03 0.  1.
   -9000005    1    1    2    0  503 -0.14614162243E+03  0.11705817433E+02 -0.94971939303E+03  0.10408944833E+04  0.40000000000E+03 0.  1.
<mgrwt>
<rscale>  2 0.42602160E+03</rscale>
<asrwt>0</asrwt>
<pdfrwt beam="1">  1       21 0.31919648E-01 0.42602160E+03</pdfrwt>
<pdfrwt beam="2">  1       21 0.19624322E+00 0.42602160E+03</pdfrwt>
<totfact> 0.11344528E+03</totfact>
</mgrwt>
</event>
<event>
 4    1  0.4840996E-002  0.4981128E+03  0.7818608E-02  0.1014273E+00
         21   -1    0    0  503  502  0.00000000000E+00  0.00000000000E+00  0.11549745251E+04  0.11549745251E+04  0.00000000000E+00 0.  1.
         21   -1    0    0  501  503 -0.00000000000E+00 -0.00000000000E+00 -0.44048296488E+03  0.44048296488E+03  0.00000000000E+00 0. -1.
    9000005    1    1    2  501    0 -0.12812150353E+03 -0.26777086302E+03 -0.21372895175E+03  0.54202990653E+03  0.40000000000E+03 0. -1.
   -9000005    1    1    2    0  502  0.12812150353E+03  0.26777086302E+03  0.92822051196E+03  0.10534275834E+04  0.40000000000E+03 0.  1.
<mgrwt>
<rscale>  2 0.49811279E+03</rscale>
<asrwt>0</asrwt>
<pdfrwt beam="1">  1       21 0.17768839E+00 0.49811279E+03</pdfrwt>
<pdfrwt beam="2">  1       21 0.67766610E-01 0.49811279E+03</pdfrwt>
<totfact> 0.30086276E+02</totfact>
</mgrwt>
</event>
<event>
 4    1  0.4840996E-002  0.5324835E+03  0.7818608E-02  0.1005632E+00
         21   -1    0    0  503  502  0.00000000000E+00  0.00000000000E+00  0.15376872644E+03  0.15376872644E+03  0.00000000000E+00 0.  1.
         21   -1    0    0  501  503 -0.00000000000E+00 -0.00000000000E+00 -0.18532422219E+04  0.18532422219E+04  0.00000000000E+00 0.  1.
    9000005    1    1    2  501    0 -0.17798426320E+03  0.30308457750E+03 -0.77859954356E+03  0.94326873599E+03  0.40000000000E+03 0.  1.
   -9000005    1    1    2    0  502  0.17798426320E+03 -0.30308457750E+03 -0.92087395194E+03  0.10637422124E+04  0.40000000000E+03 0.  1.
<mgrwt>
<rscale>  2 0.53248348E+03</rscale>
<asrwt>0</asrwt>
<pdfrwt beam="1">  1       21 0.23656726E-01 0.53248348E+03</pdfrwt>
<pdfrwt beam="2">  1       21 0.28511420E+00 0.53248348E+03</pdfrwt>
<totfact> 0.53887648E+02</totfact>
</mgrwt>
</event>
<event>
 4    1  0.4840996E-002  0.4216571E+03  0.7818608E-02  0.1036528E+00
         21   -1    0    0  503  502  0.00000000000E+00  0.00000000000E+00  0.57182158471E+03  0.57182158471E+03  0.00000000000E+00 0. -1.
         21   -1    0    0  501  503 -0.00000000000E+00 -0.00000000000E+00 -0.43076487160E+03  0.43076487160E+03  0.00000000000E+00 0. -1.
    9000005    1    1    2  501    0 -0.13214709823E+03  0.18217388260E+02 -0.19387616130E+03  0.46409341164E+03  0.40000000000E+03 0. -1.
   -9000005    1    1    2    0  502  0.13214709823E+03 -0.18217388260E+02  0.33493287441E+03  0.53849304467E+03  0.40000000000E+03 0. -1.
<mgrwt>
<rscale>  2 0.42165712E+03</rscale>
<asrwt>0</asrwt>
<pdfrwt beam="1">  1       21 0.87972552E-01 0.42165712E+03</pdfrwt>
<pdfrwt beam="2">  1       21 0.66271519E-01 0.42165712E+03</pdfrwt>
<totfact> 0.20191166E+03</totfact>
</mgrwt>
</event>
<event>
 4    1  0.4840996E-002  0.4894087E+03  0.7818608E-02  0.1016581E+00
         21   -1    0    0  503  502  0.00000000000E+00  0.00000000000E+00  0.30099175063E+03  0.30099175063E+03  0.00000000000E+00 0. -1.
         21   -1    0    0  501  503 -0.00000000000E+00 -0.00000000000E+00 -0.89614166776E+03  0.89614166776E+03  0.00000000000E+00 0.  1.
    9000005    1    1    2  501    0 -0.27316802653E+03  0.70000595055E+02 -0.49789533667E+03  0.69815515489E+03  0.40000000000E+03 0.  1.
   -9000005    1    1    2    0  502  0.27316802653E+03 -0.70000595055E+02 -0.97254580463E+02  0.49897826350E+03  0.40000000000E+03 0. -1.
<mgrwt>
<rscale>  2 0.48940868E+03</rscale>
<asrwt>0</asrwt>
<pdfrwt beam="1">  1       21 0.46306424E-01 0.48940868E+03</pdfrwt>
<pdfrwt beam="2">  1       21 0.13786795E+00 0.48940868E+03</pdfrwt>
<totfact> 0.13960129E+03</totfact>
</mgrwt>
</event>
<event>
 4    1  0.4840996E-002  0.4258922E+03  0.7818608E-02  0.1035166E+00
         21   -1    0    0  503  502  0.00000000000E+00  0.00000000000E+00  0.22893551619E+03  0.22893551619E+03  0.00000000000E+00 0.  1.
         21   -1    0    0  501  503 -0.00000000000E+00 -0.00000000000E+00 -0.13261655846E+04  0.13261655846E+04  0.00000000000E+00 0.  1.
    9000005    1    1    2  501    0 -0.16376205523E+02  0.14531326302E+03 -0.10419573377E+04  0.11256372498E+04  0.40000000000E+03 0.  1.
   -9000005    1    1    2    0  502  0.16376205523E+02 -0.14531326302E+03 -0.55272730650E+02  0.42946385095E+03  0.40000000000E+03 0.  1.
<mgrwt>
<rscale>  2 0.42589215E+03</rscale>
<asrwt>0</asrwt>
<pdfrwt beam="1">  1       21 0.35220849E-01 0.42589215E+03</pdfrwt>
<pdfrwt beam="2">  1       21 0.20402547E+00 0.42589215E+03</pdfrwt>
<totfact> 0.82619330E+02</totfact>
</mgrwt>
</event>
<event>
 4    1  0.4840996E-002  0.4281544E+03  0.7818608E-02  0.1034445E+00
         21   -1    0    0  501  502  0.00000000000E+00  0.00000000000E+00  0.23844688011E+04  0.23844688011E+04  0.00000000000E+00 0.  1.
         21   -1    0    0  502  503 -0.00000000000E+00 -0.00000000000E+00 -0.98823860143E+02  0.98823860143E+02  0.00000000000E+00 0.  1.
    9000005    1    1    2  501    0 -0.11046980936E+03  0.10541654830E+03  0.17279232973E+04  0.17801784037E+04  0.40000000000E+03 0.  1.
   -9000005    1    1    2    0  503  0.11046980936E+03 -0.10541654830E+03  0.55772164364E+03  0.70311425759E+03  0.40000000000E+03 0.  1.
<mgrwt>
<rscale>  2 0.42815444E+03</rscale>
<asrwt>0</asrwt>
<pdfrwt beam="1">  1       21 0.36684131E+00 0.42815444E+03</pdfrwt>
<pdfrwt beam="2">  1       21 0.15203673E-01 0.42815444E+03</pdfrwt>
<totfact> 0.41967841E+02</totfact>
</mgrwt>
</event>
<event>
 4    1  0.4840996E-002  0.4109028E+03  0.7818608E-02  0.1040068E+00
         21   -1    0    0  501  502  0.00000000000E+00  0.00000000000E+00  0.72555787467E+03  0.72555787467E+03  0.00000000000E+00 0.  1.
         21   -1    0    0  502  503 -0.00000000000E+00 -0.00000000000E+00 -0.23504362717E+03  0.23504362717E+03  0.00000000000E+00 0.  1.
    9000005    1    1    2  501    0  0.92788294575E+02  0.15212949925E+02  0.29316418449E+03  0.50476364818E+03  0.40000000000E+03 0.  1.
   -9000005    1    1    2    0  503 -0.92788294575E+02 -0.15212949925E+02  0.19735006301E+03  0.45583785366E+03  0.40000000000E+03 0.  1.
<mgrwt>
<rscale>  2 0.41090279E+03</rscale>
<asrwt>0</asrwt>
<pdfrwt beam="1">  1       21 0.11162429E+00 0.41090279E+03</pdfrwt>
<pdfrwt beam="2">  1       21 0.36160558E-01 0.41090279E+03</pdfrwt>
<totfact> 0.41181362E+03</totfact>
</mgrwt>
</event>
<event>
 4    1  0.4840996E-002  0.4836788E+03  0.7818608E-02  0.1018129E+00
         21   -1    0    0  501  502  0.00000000000E+00  0.00000000000E+00  0.29279157220E+03  0.29279157220E+03  0.00000000000E+00 0. -1.
         21   -1    0    0  502  503 -0.00000000000E+00 -0.00000000000E+00 -0.14825088056E+04  0.14825088056E+04  0.00000000000E+00 0. -1.
    9000005    1    1    2  501    0  0.11531637913E+03  0.24626668327E+03 -0.11975711011E+04  0.12915578535E+04  0.40000000000E+03 0. -1.
   -9000005    1    1    2    0  503 -0.11531637913E+03 -0.24626668327E+03  0.78538677555E+01  0.48374252431E+03  0.40000000000E+03 0. -1.
<mgrwt>
<rscale>  2 0.48367876E+03</rscale>
<asrwt>0</asrwt>
<pdfrwt beam="1">  1       21 0.45044857E-01 0.48367876E+03</pdfrwt>
<pdfrwt beam="2">  1       21 0.22807828E+00 0.48367876E+03</pdfrwt>
<totfact> 0.33839094E+02</totfact>
</mgrwt>
</event>
<event>
 4    1  0.4840996E-002  0.4004042E+03  0.7818608E-02  0.1043640E+00
         21   -1    0    0  503  502  0.00000000000E+00  0.00000000000E+00  0.28975921361E+03  0.28975921361E+03  0.00000000000E+00 0. -1.
         21   -1    0    0  501  503 -0.00000000000E+00 -0.00000000000E+00 -0.10313216936E+04  0.10313216936E+04  0.00000000000E+00 0. -1.
    9000005    1    1    2  501    0  0.12399115162E+02  0.13029903505E+02 -0.82048503124E+03  0.91297272847E+03  0.40000000000E+03 0. -1.
   -9000005    1    1    2    0  502 -0.12399115162E+02 -0.13029903505E+02  0.78922551274E+02  0.40810817872E+03  0.40000000000E+03 0. -1.
<mgrwt>
<rscale>  2 0.40040419E+03</rscale>
<asrwt>0</asrwt>
<pdfrwt beam="1">  1       21 0.44578340E-01 0.40040419E+03</pdfrwt>
<pdfrwt beam="2">  1       21 0.15866488E+00 0.40040419E+03</pdfrwt>
<totfact> 0.10737624E+03</totfact>
</mgrwt>
</event>
<event>
 4    1  0.4840996E-002  0.4289999E+03  0.7818608E-02  0.1034176E+00
         21   -1    0    0  503  502  0.00000000000E+00  0.00000000000E+00  0.28216090037E+03  0.28216090037E+03  0.00000000000E+00 0. -1.
         21   -1    0    0  501  503 -0.00000000000E+00 -0.00000000000E+00 -0.67562369528E+03  0.67562369528E+03  0.00000000000E+00 0. -1.
    9000005    1    1    2  501    0  0.15475869169E+03 -0.95237941440E+01 -0.10766796135E+03  0.44230458421E+03  0.40000000000E+03 0.  1.
   -9000005    1    1    2    0  502 -0.15475869169E+03  0.95237941440E+01 -0.28579483356E+03  0.51548001145E+03  0.40000000000E+03 0.  1.
<mgrwt>
<rscale>  2 0.42899995E+03</rscale>
<asrwt>0</asrwt>
<pdfrwt beam="1">  1       21 0.43409369E-01 0.42899995E+03</pdfrwt>
<pdfrwt beam="2">  1       21 0.10394211E+00 0.42899995E+03</pdfrwt>
<totfact> 0.33508934E+03</totfact>
</mgrwt>
</event>
<event>
 4    1  0.4840996E-002  0.5406427E+03  0.7818608E-02  0.1003683E+00
         21   -1    0    0  503  502  0.00000000000E+00  0.00000000000E+00  0.11177284959E+04  0.11177284959E+04  0.00000000000E+00 0. -1.
         21   -1    0    0  501  503 -0.00000000000E+00 -0.00000000000E+00 -0.41410560301E+03  0.41410560301E+03  0.00000000000E+00 0. -1.
    9000005    1    1    2  501    0 -0.19089857235E+03  0.30960011492E+03 -0.11313251252E+03  0.55235266042E+03  0.40000000000E+03 0. -1.
   -9000005    1    1    2    0  502  0.19089857235E+03 -0.30960011492E+03  0.81675540543E+03  0.97948143851E+03  0.40000000000E+03 0. -1.
<mgrwt>
<rscale>  2 0.54064267E+03</rscale>
<asrwt>0</asrwt>
<pdfrwt beam="1">  1       21 0.17195823E+00 0.54064267E+03</pdfrwt>
<pdfrwt beam="2">  1       21 0.63708555E-01 0.54064267E+03</pdfrwt>
<totfact> 0.37307563E+02</totfact>
</mgrwt>
</event>
<event>
 4    1  0.4840996E-002  0.4165128E+03  0.7818608E-02  0.1038207E+00
         21   -1    0    0  501  502  0.00000000000E+00  0.00000000000E+00  0.29485315866E+03  0.29485315866E+03  0.00000000000E+00 0.  1.
         21   -1    0    0  502  503 -0.00000000000E+00 -0.00000000000E+00 -0.10417898974E+04  0.10417898974E+04  0.00000000000E+00 0.  1.
    9000005    1    1    2  501    0  0.30282500757E+01 -0.11607652941E+03  0.67436990232E+02  0.42193681829E+03  0.40000000000E+03 0.  1.
   -9000005    1    1    2    0  503 -0.30282500757E+01  0.11607652941E+03 -0.81437372892E+03  0.91470623773E+03  0.40000000000E+03 0.  1.
<mgrwt>
<rscale>  2 0.41651282E+03</rscale>
<asrwt>0</asrwt>
<pdfrwt beam="1">  1       21 0.45362025E-01 0.41651282E+03</pdfrwt>
<pdfrwt beam="2">  1       21 0.16027537E+00 0.41651282E+03</pdfrwt>
<totfact> 0.99895908E+02</totfact>
</mgrwt>
</event>
<event>
 4    1  0.4840996E-002  0.4284814E+03  0.7818608E-02  0.1034341E+00
         21   -1    0    0  503  502  0.00000000000E+00  0.00000000000E+00  0.69688296222E+03  0.69688296222E+03  0.00000000000E+00 0.  1.
         21   -1    0    0  501  503 -0.00000000000E+00 -0.00000000000E+00 -0.27140751632E+03  0.27140751632E+03  0.00000000000E+00 0.  1.
    9000005    1    1    2  501    0  0.78747546901E+02 -0.13189075436E+03  0.12985683884E+03  0.44772664185E+03  0.40000000000E+03 0.  1.
   -9000005    1    1    2    0  502 -0.78747546901E+02  0.13189075436E+03  0.29561860706E+03  0.52056383669E+03  0.40000000000E+03 0.  1.
<mgrwt>
<rscale>  2 0.42848144E+03</rscale>
<asrwt>0</asrwt>
<pdfrwt beam="1">  1       21 0.10721276E+00 0.42848144E+03</pdfrwt>
<pdfrwt beam="2">  1       21 0.41755003E-01 0.42848144E+03</pdfrwt>
<totfact> 0.33665139E+03</totfact>
</mgrwt>
</event>
<event>
 4    1  0.4840996E-002  0.4506874E+03  0.7818608E-02  0.1027517E+00
         21   -1    0    0  503  502  0.00000000000E+00  0.00000000000E+00  0.17528327518E+04  0.17528327518E+04  0.00000000000E+00 0. -1.
         21   -1    0    0  501  503 -0.00000000000E+00 -0.00000000000E+00 -0.18029762212E+03  0.18029762212E+03  0.00000000000E+00 0. -1.
    9000005    1    1    2  501    0  0.20639505677E+03 -0.22808909272E+02  0.20852182626E+03  0.49658888210E+03  0.40000000000E+03 0. -1.
   -9000005    1    1    2    0  502 -0.20639505677E+03  0.22808909272E+02  0.13640133034E+04  0.14365414918E+04  0.40000000000E+03 0. -1.
<mgrwt>
<rscale>  2 0.45068744E+03</rscale>
<asrwt>0</asrwt>
<pdfrwt beam="1">  1       21 0.26966657E+00 0.45068744E+03</pdfrwt>
<pdfrwt beam="2">  1       21 0.27738097E-01 0.45068744E+03</pdfrwt>
<totfact> 0.51018793E+02</totfact>
</mgrwt>
</event>
<event>
 4    1  0.4840996E-002  0.4107320E+03  0.7818608E-02  0.1040126E+00
         21   -1    0    0  503  502  0.00000000000E+00  0.00000000000E+00  0.96930834580E+03  0.96930834580E+03  0.00000000000E+00 0.  1.
         21   -1    0    0  501  503 -0.00000000000E+00 -0.00000000000E+00 -0.24392088058E+03  0.24392088058E+03  0.00000000000E+00 0.  1.
    9000005    1    1    2  501    0 -0.63278266213E+02  0.68531721266E+02  0.38010281589E+02  0.41248699046E+03  0.40000000000E+03 0.  1.
   -9000005    1    1    2    0  502  0.63278266213E+02 -0.68531721266E+02  0.68737718364E+03  0.80074223592E+03  0.40000000000E+03 0.  1.
<mgrwt>
<rscale>  2 0.41073195E+03</rscale>
<asrwt>0</asrwt>
<pdfrwt beam="1">  1       21 0.14912436E+00 0.41073195E+03</pdfrwt>
<pdfrwt beam="2">  1       21 0.37526290E-01 0.41073195E+03</pdfrwt>
<totfact> 0.18054609E+03</totfact>
</mgrwt>
</event>
<event>
 4    1  0.4840996E-002  0.4613591E+03  0.7818608E-02  0.1024388E+00
         21   -1    0    0  501  502  0.00000000000E+00  0.00000000000E+00  0.98315586614E+03  0.98315586614E+03  0.00000000000E+00 0. -1.
         21   -1    0    0  502  503 -0.00000000000E+00 -0.00000000000E+00 -0.22874784839E+03  0.22874784839E+03  0.00000000000E+00 0.  1.
    9000005    1    1    2  501    0  0.19272381537E+03  0.12533848831E+03  0.51742345754E+03  0.69323822750E+03  0.40000000000E+03 0. -1.
   -9000005    1    1    2    0  503 -0.19272381537E+03 -0.12533848831E+03  0.23698456020E+03  0.51866548703E+03  0.40000000000E+03 0.  1.
<mgrwt>
<rscale>  2 0.46135909E+03</rscale>
<asrwt>0</asrwt>
<pdfrwt beam="1">  1       21 0.15125475E+00 0.46135909E+03</pdfrwt>
<pdfrwt beam="2">  1       21 0.35191977E-01 0.46135909E+03</pdfrwt>
<totfact> 0.19386099E+03</totfact>
</mgrwt>
</event>
<event>
 4    1  0.4840996E-002  0.4055085E+03  0.7818608E-02  0.1041889E+00
         21   -1    0    0  503  502  0.00000000000E+00  0.00000000000E+00  0.21487334775E+03  0.21487334775E+03  0.00000000000E+00 0.  1.
         21   -1    0    0  501  503 -0.00000000000E+00 -0.00000000000E+00 -0.11768940628E+04  0.11768940628E+04  0.00000000000E+00 0.  1.
    9000005    1    1    2  501    0  0.39761228062E+02 -0.53443587462E+02 -0.89255390044E+03  0.98035179272E+03  0.40000000000E+03 0.  1.
   -9000005    1    1    2    0  502 -0.39761228062E+02  0.53443587462E+02 -0.69466814651E+02  0.41141561788E+03  0.40000000000E+03 0.  1.
<mgrwt>
<rscale>  2 0.40550854E+03</rscale>
<asrwt>0</asrwt>
<pdfrwt beam="1">  1       21 0.33057438E-01 0.40550854E+03</pdfrwt>
<pdfrwt beam="2">  1       21 0.18106063E+00 0.40550854E+03</pdfrwt>
<totfact> 0.13570104E+03</totfact>
</mgrwt>
</event>
<event>
 4    1  0.4840996E-002  0.4014158E+03  0.7818608E-02  0.1043291E+00
         21   -1    0    0  503  502  0.00000000000E+00  0.00000000000E+00  0.42667164078E+03  0.42667164078E+03  0.00000000000E+00 0. -1.
         21   -1    0    0  501  503 -0.00000000000E+00 -0.00000000000E+00 -0.58053457343E+03  0.58053457343E+03  0.00000000000E+00 0. -1.
    9000005    1    1    2  501    0  0.12818183553E+02  0.31149845530E+02 -0.37464163442E+03  0.54908193646E+03  0.40000000000E+03 0. -1.
   -9000005    1    1    2    0  502 -0.12818183553E+02 -0.31149845530E+02  0.22077870177E+03  0.45812427775E+03  0.40000000000E+03 0. -1.
<mgrwt>
<rscale>  2 0.40141577E+03</rscale>
<asrwt>0</asrwt>
<pdfrwt beam="1">  1       21 0.65641791E-01 0.40141577E+03</pdfrwt>
<pdfrwt beam="2">  1       21 0.89313011E-01 0.40141577E+03</pdfrwt>
<totfact> 0.20069752E+03</totfact>
</mgrwt>
</event>
<event>
 4    1  0.4840996E-002  0.4225432E+03  0.7818608E-02  0.1036242E+00
         21   -1    0    0  503  502  0.00000000000E+00  0.00000000000E+00  0.19075890787E+03  0.19075890787E+03  0.00000000000E+00 0.  1.
         21   -1    0    0  501  503 -0.00000000000E+00 -0.00000000000E+00 -0.11623111256E+04  0.11623111256E+04  0.00000000000E+00 0.  1.
    9000005    1    1    2  501    0 -0.34583851752E+02  0.13170682922E+03 -0.78432831866E+03  0.89090607985E+03  0.40000000000E+03 0.  1.
   -9000005    1    1    2    0  502  0.34583851752E+02 -0.13170682922E+03 -0.18722389912E+03  0.46216395366E+03  0.40000000000E+03 0.  1.
<mgrwt>
<rscale>  2 0.42254317E+03</rscale>
<asrwt>0</asrwt>
<pdfrwt beam="1">  1       21 0.29347524E-01 0.42254317E+03</pdfrwt>
<pdfrwt beam="2">  1       21 0.17881710E+00 0.42254317E+03</pdfrwt>
<totfact> 0.17697906E+03</totfact>
</mgrwt>
</event>
<event>
 4    1  0.4840996E-002  0.4332685E+03  0.7818608E-02  0.1032832E+00
         21   -1    0    0  503  502  0.00000000000E+00  0.00000000000E+00  0.12042186969E+04  0.12042186969E+04  0.00000000000E+00 0.  1.
         21   -1    0    0  501  503 -0.00000000000E+00 -0.00000000000E+00 -0.24556688724E+03  0.24556688724E+03  0.00000000000E+00 0. -1.
    9000005    1    1    2  501    0  0.15803036228E+03 -0.52421641613E+02  0.41262229857E+02  0.43522890015E+03  0.40000000000E+03 0. -1.
   -9000005    1    1    2    0  502 -0.15803036228E+03  0.52421641613E+02  0.91738957980E+03  0.10145566840E+04  0.40000000000E+03 0.  1.
<mgrwt>
<rscale>  2 0.43326854E+03</rscale>
<asrwt>0</asrwt>
<pdfrwt beam="1">  1       21 0.18526441E+00 0.43326854E+03</pdfrwt>
<pdfrwt beam="2">  1       21 0.37779522E-01 0.43326854E+03</pdfrwt>
<totfact> 0.95562282E+02</totfact>
</mgrwt>
</event>
<event>
 4    1  0.4840996E-002  0.4184103E+03  0.7818608E-02  0.1037585E+00
         21   -1    0    0  503  502  0.00000000000E+00  0.00000000000E+00  0.14677778735E+03  0.14677778735E+03  0.00000000000E+00 0.  1.
         21   -1    0    0  501  503 -0.00000000000E+00 -0.00000000000E+00 -0.12495965196E+04  0.12495965196E+04  0.00000000000E+00 0.  1.
    9000005    1    1    2  501    0  0.32405831172E+02 -0.11839344055E+03 -0.70034291102E+03  0.81581084675E+03  0.40000000000E+03 0.  1.
   -9000005    1    1    2    0  502 -0.32405831172E+02  0.11839344055E+03 -0.40247582124E+03  0.58056346022E+03  0.40000000000E+03 0.  1.
<mgrwt>
<rscale>  2 0.41841026E+03</rscale>
<asrwt>0</asrwt>
<pdfrwt beam="1">  1       21 0.22581198E-01 0.41841026E+03</pdfrwt>
<pdfrwt beam="2">  1       21 0.19224562E+00 0.41841026E+03</pdfrwt>
<totfact> 0.23869850E+03</totfact>
</mgrwt>
</event>
<event>
 4    1  0.4840996E-002  0.4851768E+03  0.7818608E-02  0.1017722E+00
         21   -1    0    0  501  502  0.00000000000E+00  0.00000000000E+00  0.29499560762E+03  0.29499560762E+03  0.00000000000E+00 0. -1.
         21   -1    0    0  502  503 -0.00000000000E+00 -0.00000000000E+00 -0.79842798294E+03  0.79842798294E+03  0.00000000000E+00 0. -1.
    9000005    1    1    2  501    0  0.31900738221E+02  0.27272497640E+03 -0.26486197060E+03  0.55276435605E+03  0.40000000000E+03 0. -1.
   -9000005    1    1    2    0  503 -0.31900738221E+02 -0.27272497640E+03 -0.23857040471E+03  0.54065923450E+03  0.40000000000E+03 0. -1.
<mgrwt>
<rscale>  2 0.48517684E+03</rscale>
<asrwt>0</asrwt>
<pdfrwt beam="1">  1       21 0.45383939E-01 0.48517684E+03</pdfrwt>
<pdfrwt beam="2">  1       21 0.12283508E+00 0.48517684E+03</pdfrwt>
<totfact> 0.19700960E+03</totfact>
</mgrwt>
</event>
<event>
 4    1  0.4840996E-002  0.4280313E+03  0.7818608E-02  0.1034484E+00
         21   -1    0    0  503  502  0.00000000000E+00  0.00000000000E+00  0.31798985361E+03  0.31798985361E+03  0.00000000000E+00 0.  1.
         21   -1    0    0  501  503 -0.00000000000E+00 -0.00000000000E+00 -0.10290939143E+04  0.10290939143E+04  0.00000000000E+00 0.  1.
    9000005    1    1    2  501    0  0.15088251182E+03  0.21101000228E+02 -0.80239807089E+03  0.90942479005E+03  0.40000000000E+03 0.  1.
   -9000005    1    1    2    0  502 -0.15088251182E+03 -0.21101000228E+02  0.91294010219E+02  0.43765897784E+03  0.40000000000E+03 0.  1.
<mgrwt>
<rscale>  2 0.42803129E+03</rscale>
<asrwt>0</asrwt>
<pdfrwt beam="1">  1       21 0.48921515E-01 0.42803129E+03</pdfrwt>
<pdfrwt beam="2">  1       21 0.15832214E+00 0.42803129E+03</pdfrwt>
<totfact> 0.87685385E+02</totfact>
</mgrwt>
</event>
<event>
 4    1  0.4840996E-002  0.4612412E+03  0.7818608E-02  0.1024422E+00
         21   -1    0    0  501  502  0.00000000000E+00  0.00000000000E+00  0.97546509633E+03  0.97546509633E+03  0.00000000000E+00 0. -1.
         21   -1    0    0  502  503 -0.00000000000E+00 -0.00000000000E+00 -0.37561298615E+03  0.37561298615E+03  0.00000000000E+00 0.  1.
    9000005    1    1    2  501    0  0.22908279377E+03 -0.16263807681E+02  0.73739387173E+03  0.86976615243E+03  0.40000000000E+03 0. -1.
   -9000005    1    1    2    0  503 -0.22908279377E+03  0.16263807681E+02 -0.13754176156E+03  0.48131193005E+03  0.40000000000E+03 0.  1.
<mgrwt>
<rscale>  2 0.46124119E+03</rscale>
<asrwt>0</asrwt>
<pdfrwt beam="1">  1       21 0.15007155E+00 0.46124119E+03</pdfrwt>
<pdfrwt beam="2">  1       21 0.57786614E-01 0.46124119E+03</pdfrwt>
<totfact> 0.69968129E+02</totfact>
</mgrwt>
</event>
<event>
 4    1  0.4840996E-002  0.5257027E+03  0.7818608E-02  0.1007280E+00
         21   -1    0    0  503  502  0.00000000000E+00  0.00000000000E+00  0.67371496615E+03  0.67371496615E+03  0.00000000000E+00 0.  1.
         21   -1    0    0  501  503 -0.00000000000E+00 -0.00000000000E+00 -0.94289520977E+03  0.94289520977E+03  0.00000000000E+00 0. -1.
    9000005    1    1    2  501    0  0.21472171140E+03  0.26506217165E+03 -0.74213683026E+03  0.90946712036E+03  0.40000000000E+03 0. -1.
   -9000005    1    1    2    0  502 -0.21472171140E+03 -0.26506217165E+03  0.47295658664E+03  0.70714305556E+03  0.40000000000E+03 0.  1.
<mgrwt>
<rscale>  2 0.52570274E+03</rscale>
<asrwt>0</asrwt>
<pdfrwt beam="1">  1       21 0.10364846E+00 0.52570274E+03</pdfrwt>
<pdfrwt beam="2">  1       21 0.14506080E+00 0.52570274E+03</pdfrwt>
<totfact> 0.19383050E+02</totfact>
</mgrwt>
</event>
<event>
 4    1  0.4840996E-002  0.4341036E+03  0.7818608E-02  0.1032571E+00
         21   -1    0    0  501  502  0.00000000000E+00  0.00000000000E+00  0.59774875067E+03  0.59774875067E+03  0.00000000000E+00 0. -1.
         21   -1    0    0  502  503 -0.00000000000E+00 -0.00000000000E+00 -0.34484098426E+03  0.34484098426E+03  0.00000000000E+00 0.  1.
    9000005    1    1    2  501    0  0.77638231333E+02  0.14972711116E+03 -0.11582669875E+02  0.43425805810E+03  0.40000000000E+03 0.  1.
   -9000005    1    1    2    0  503 -0.77638231333E+02 -0.14972711116E+03  0.26449043629E+03  0.50833167683E+03  0.40000000000E+03 0.  1.
<mgrwt>
<rscale>  2 0.43410356E+03</rscale>
<asrwt>0</asrwt>
<pdfrwt beam="1">  1       21 0.91961346E-01 0.43410356E+03</pdfrwt>
<pdfrwt beam="2">  1       21 0.53052459E-01 0.43410356E+03</pdfrwt>
<totfact> 0.29420000E+03</totfact>
</mgrwt>
</event>
<event>
 4    1  0.4840996E-002  0.7369060E+03  0.7818608E-02  0.9656120E-01
         21   -1    0    0  501  502  0.00000000000E+00  0.00000000000E+00  0.31109851547E+03  0.31109851547E+03  0.00000000000E+00 0.  1.
         21   -1    0    0  502  503 -0.00000000000E+00 -0.00000000000E+00 -0.21282386840E+04  0.21282386840E+04  0.00000000000E+00 0.  1.
    9000005    1    1    2  501    0 -0.15731778308E+03 -0.59856629425E+03 -0.39135854840E+03  0.83438121197E+03  0.40000000000E+03 0.  1.
   -9000005    1    1    2    0  503  0.15731778308E+03  0.59856629425E+03 -0.14257816201E+04  0.16049559875E+04  0.40000000000E+03 0.  1.
<mgrwt>
<rscale>  2 0.73690603E+03</rscale>
<asrwt>0</asrwt>
<pdfrwt beam="1">  1       21 0.47861310E-01 0.73690603E+03</pdfrwt>
<pdfrwt beam="2">  1       21 0.32742134E+00 0.73690603E+03</pdfrwt>
<totfact> 0.65082826E+01</totfact>
</mgrwt>
</event>
<event>
 4    1  0.4840996E-002  0.5003090E+03  0.7818608E-02  0.1013698E+00
         21   -1    0    0  501  502  0.00000000000E+00  0.00000000000E+00  0.89107647151E+03  0.89107647151E+03  0.00000000000E+00 0. -1.
         21   -1    0    0  502  503 -0.00000000000E+00 -0.00000000000E+00 -0.11571161329E+04  0.11571161329E+04  0.00000000000E+00 0. -1.
    9000005    1    1    2  501    0 -0.27225298140E+03 -0.12722958354E+03  0.75814157269E+03  0.90834338058E+03  0.40000000000E+03 0. -1.
   -9000005    1    1    2    0  503  0.27225298140E+03  0.12722958354E+03 -0.10241812340E+04  0.11398492238E+04  0.40000000000E+03 0. -1.
<mgrwt>
<rscale>  2 0.50030896E+03</rscale>
<asrwt>0</asrwt>
<pdfrwt beam="1">  1       21 0.13708869E+00 0.50030896E+03</pdfrwt>
<pdfrwt beam="2">  1       21 0.17801787E+00 0.50030896E+03</pdfrwt>
<totfact> 0.54232170E+01</totfact>
</mgrwt>
</event>
<event>
 4    1  0.4840996E-002  0.5639449E+03  0.7818608E-02  0.9983168E-01
         21   -1    0    0  503  502  0.00000000000E+00  0.00000000000E+00  0.42131116107E+03  0.42131116107E+03  0.00000000000E+00 0. -1.
         21   -1    0    0  501  503 -0.00000000000E+00 -0.00000000000E+00 -0.10259284187E+04  0.10259284187E+04  0.00000000000E+00 0. -1.
    9000005    1    1    2  501    0  0.38232475037E+03 -0.10891116501E+03 -0.67425971114E+03  0.87901081602E+03  0.40000000000E+03 0. -1.
   -9000005    1    1    2    0  502 -0.38232475037E+03  0.10891116501E+03  0.69642453514E+02  0.56822876374E+03  0.40000000000E+03 0. -1.
<mgrwt>
<rscale>  2 0.56394491E+03</rscale>
<asrwt>0</asrwt>
<pdfrwt beam="1">  1       21 0.64817102E-01 0.56394491E+03</pdfrwt>
<pdfrwt beam="2">  1       21 0.15783514E+00 0.56394491E+03</pdfrwt>
<totfact> 0.45368890E+02</totfact>
</mgrwt>
</event>
<event>
 4    1  0.4840996E-002  0.4875332E+03  0.7818608E-02  0.1017085E+00
         21   -1    0    0  501  502  0.00000000000E+00  0.00000000000E+00  0.85738715726E+03  0.85738715726E+03  0.00000000000E+00 0. -1.
         21   -1    0    0  502  503 -0.00000000000E+00 -0.00000000000E+00 -0.30235053762E+03  0.30235053762E+03  0.00000000000E+00 0.  1.
    9000005    1    1    2  501    0  0.89272514958E+02 -0.26404355998E+03  0.11035619996E+03  0.49986705669E+03  0.40000000000E+03 0.  1.
   -9000005    1    1    2    0  503 -0.89272514958E+02  0.26404355998E+03  0.44468041968E+03  0.65987063818E+03  0.40000000000E+03 0. -1.
<mgrwt>
<rscale>  2 0.48753316E+03</rscale>
<asrwt>0</asrwt>
<pdfrwt beam="1">  1       21 0.13190572E+00 0.48753316E+03</pdfrwt>
<pdfrwt beam="2">  1       21 0.46515468E-01 0.48753316E+03</pdfrwt>
<totfact> 0.15542314E+03</totfact>
</mgrwt>
</event>
<event>
 4    1  0.4840996E-002  0.4284929E+03  0.7818608E-02  0.1034337E+00
         21   -1    0    0  501  502  0.00000000000E+00  0.00000000000E+00  0.25443682777E+04  0.25443682777E+04  0.00000000000E+00 0. -1.
         21   -1    0    0  502  503 -0.00000000000E+00 -0.00000000000E+00 -0.97473938449E+02  0.97473938449E+02  0.00000000000E+00 0. -1.
    9000005    1    1    2  501    0 -0.71707890905E+02  0.13588286067E+03  0.18965743287E+04  0.19443765988E+04  0.40000000000E+03 0.  1.
   -9000005    1    1    2    0  503  0.71707890905E+02 -0.13588286067E+03  0.55032001051E+03  0.69746561737E+03  0.40000000000E+03 0.  1.
<mgrwt>
<rscale>  2 0.42849291E+03</rscale>
<asrwt>0</asrwt>
<pdfrwt beam="1">  1       21 0.39144122E+00 0.42849291E+03</pdfrwt>
<pdfrwt beam="2">  1       21 0.14995992E-01 0.42849291E+03</pdfrwt>
<totfact> 0.30164701E+02</totfact>
</mgrwt>
</event>
<event>
 4    1  0.4840996E-002  0.4597840E+03  0.7818608E-02  0.1024844E+00
         21   -1    0    0  501  502  0.00000000000E+00  0.00000000000E+00  0.89710602119E+03  0.89710602119E+03  0.00000000000E+00 0.  1.
         21   -1    0    0  502  503 -0.00000000000E+00 -0.00000000000E+00 -0.71680250220E+03  0.71680250220E+03  0.00000000000E+00 0.  1.
    9000005    1    1    2  501    0  0.20154932348E+03  0.10382270583E+03  0.75128869104E+03  0.88081552060E+03  0.40000000000E+03 0.  1.
   -9000005    1    1    2    0  503 -0.20154932348E+03 -0.10382270583E+03 -0.57098517205E+03  0.73309300279E+03  0.40000000000E+03 0.  1.
<mgrwt>
<rscale>  2 0.45978395E+03</rscale>
<asrwt>0</asrwt>
<pdfrwt beam="1">  1       21 0.13801631E+00 0.45978395E+03</pdfrwt>
<pdfrwt beam="2">  1       21 0.11027731E+00 0.45978395E+03</pdfrwt>
<totfact> 0.19588999E+02</totfact>
</mgrwt>
</event>
<event>
 4    1  0.4840996E-002  0.4009127E+03  0.7818608E-02  0.1043464E+00
         21   -1    0    0  503  502  0.00000000000E+00  0.00000000000E+00  0.90660941795E+03  0.90660941795E+03  0.00000000000E+00 0. -1.
         21   -1    0    0  501  503 -0.00000000000E+00 -0.00000000000E+00 -0.20715293942E+03  0.20715293942E+03  0.00000000000E+00 0. -1.
    9000005    1    1    2  501    0  0.19659509297E+02  0.18560193510E+02  0.13828307564E+03  0.42409101157E+03  0.40000000000E+03 0. -1.
   -9000005    1    1    2    0  502 -0.19659509297E+02 -0.18560193510E+02  0.56117340290E+03  0.68967134580E+03  0.40000000000E+03 0. -1.
<mgrwt>
<rscale>  2 0.40091268E+03</rscale>
<asrwt>0</asrwt>
<pdfrwt beam="1">  1       21 0.13947837E+00 0.40091268E+03</pdfrwt>
<pdfrwt beam="2">  1       21 0.31869683E-01 0.40091268E+03</pdfrwt>
<totfact> 0.30146877E+03</totfact>
</mgrwt>
</event>
<event>
 4    1  0.4840996E-002  0.4429627E+03  0.7818608E-02  0.1029842E+00
         21   -1    0    0  503  502  0.00000000000E+00  0.00000000000E+00  0.15857222254E+04  0.15857222254E+04  0.00000000000E+00 0. -1.
         21   -1    0    0  501  503 -0.00000000000E+00 -0.00000000000E+00 -0.27395608710E+03  0.27395608710E+03  0.00000000000E+00 0.  1.
    9000005    1    1    2  501    0 -0.13096470258E+03  0.13807328029E+03 -0.32653080463E+02  0.44416461781E+03  0.40000000000E+03 0.  1.
   -9000005    1    1    2    0  502  0.13096470258E+03 -0.13807328029E+03  0.13444192187E+04  0.14155136947E+04  0.40000000000E+03 0. -1.
<mgrwt>
<rscale>  2 0.44296273E+03</rscale>
<asrwt>0</asrwt>
<pdfrwt beam="1">  1       21 0.24395726E+00 0.44296273E+03</pdfrwt>
<pdfrwt beam="2">  1       21 0.42147091E-01 0.44296273E+03</pdfrwt>
<totfact> 0.31603058E+02</totfact>
</mgrwt>
</event>
<event>
 4    1  0.4840996E-002  0.4954700E+03  0.7818608E-02  0.1014968E+00
         21   -1    0    0  501  502  0.00000000000E+00  0.00000000000E+00  0.87744831737E+03  0.87744831737E+03  0.00000000000E+00 0. -1.
         21   -1    0    0  502  503 -0.00000000000E+00 -0.00000000000E+00 -0.30897474578E+03  0.30897474578E+03  0.00000000000E+00 0. -1.
    9000005    1    1    2  501    0  0.21197342998E+03  0.20138965198E+03  0.10188203443E+03  0.50583641217E+03  0.40000000000E+03 0. -1.
   -9000005    1    1    2    0  503 -0.21197342998E+03 -0.20138965198E+03  0.46659153716E+03  0.68058665098E+03  0.40000000000E+03 0. -1.
<mgrwt>
<rscale>  2 0.49547001E+03</rscale>
<asrwt>0</asrwt>
<pdfrwt beam="1">  1       21 0.13499205E+00 0.49547001E+03</pdfrwt>
<pdfrwt beam="2">  1       21 0.47534577E-01 0.49547001E+03</pdfrwt>
<totfact> 0.13933769E+03</totfact>
</mgrwt>
</event>
<event>
 4    1  0.4840996E-002  0.7935714E+03  0.7818608E-02  0.9569369E-01
         21   -1    0    0  501  502  0.00000000000E+00  0.00000000000E+00  0.14071413109E+04  0.14071413109E+04  0.00000000000E+00 0.  1.
         21   -1    0    0  502  503 -0.00000000000E+00 -0.00000000000E+00 -0.58026409758E+03  0.58026409758E+03  0.00000000000E+00 0. -1.
    9000005    1    1    2  501    0  0.64229316041E+03  0.23919678274E+03  0.88868009419E+03  0.11914310364E+04  0.40000000000E+03 0.  1.
   -9000005    1    1    2    0  503 -0.64229316041E+03 -0.23919678274E+03 -0.61802880917E+02  0.79597437200E+03  0.40000000000E+03 0. -1.
<mgrwt>
<rscale>  2 0.79357142E+03</rscale>
<asrwt>0</asrwt>
<pdfrwt beam="1">  1       21 0.21648328E+00 0.79357142E+03</pdfrwt>
<pdfrwt beam="2">  1       21 0.89271400E-01 0.79357142E+03</pdfrwt>
<totfact> 0.77273754E+01</totfact>
</mgrwt>
</event>
<event>
 4    1  0.4840996E-002  0.4690875E+03  0.7818608E-02  0.1022178E+00
         21   -1    0    0  503  502  0.00000000000E+00  0.00000000000E+00  0.29124290187E+03  0.29124290187E+03  0.00000000000E+00 0.  1.
         21   -1    0    0  501  503 -0.00000000000E+00 -0.00000000000E+00 -0.11824385580E+04  0.11824385580E+04  0.00000000000E+00 0.  1.
    9000005    1    1    2  501    0  0.23603542570E+03 -0.65805808329E+02 -0.88834021758E+03  0.10045852223E+04  0.40000000000E+03 0.  1.
   -9000005    1    1    2    0  502 -0.23603542570E+03  0.65805808329E+02 -0.28554385249E+01  0.46909623759E+03  0.40000000000E+03 0.  1.
<mgrwt>
<rscale>  2 0.46908755E+03</rscale>
<asrwt>0</asrwt>
<pdfrwt beam="1">  1       21 0.44806600E-01 0.46908755E+03</pdfrwt>
<pdfrwt beam="2">  1       21 0.18191363E+00 0.46908755E+03</pdfrwt>
<totfact> 0.69706904E+02</totfact>
</mgrwt>
</event>
<event>
 4    1  0.4840996E-002  0.5297763E+03  0.7818608E-02  0.1006286E+00
         21   -1    0    0  501  502  0.00000000000E+00  0.00000000000E+00  0.21440962964E+03  0.21440962964E+03  0.00000000000E+00 0. -1.
         21   -1    0    0  502  503 -0.00000000000E+00 -0.00000000000E+00 -0.22554399635E+04  0.22554399635E+04  0.00000000000E+00 0. -1.
    9000005    1    1    2  501    0  0.32295162085E+03  0.12792639761E+03 -0.22055077973E+03  0.57385151307E+03  0.40000000000E+03 0. -1.
   -9000005    1    1    2    0  503 -0.32295162085E+03 -0.12792639761E+03 -0.18204795541E+04  0.18959980801E+04  0.40000000000E+03 0. -1.
<mgrwt>
<rscale>  2 0.52977629E+03</rscale>
<asrwt>0</asrwt>
<pdfrwt beam="1">  1       21 0.32986098E-01 0.52977629E+03</pdfrwt>
<pdfrwt beam="2">  1       21 0.34699076E+00 0.52977629E+03</pdfrwt>
<totfact> 0.11746678E+02</totfact>
</mgrwt>
</event>
<event>
 4    1  0.4840996E-002  0.4641587E+03  0.7818608E-02  0.1023582E+00
         21   -1    0    0  501  502  0.00000000000E+00  0.00000000000E+00  0.99352301881E+03  0.99352301881E+03  0.00000000000E+00 0.  1.
         21   -1    0    0  502  503 -0.00000000000E+00 -0.00000000000E+00 -0.22040637944E+03  0.22040637944E+03  0.00000000000E+00 0.  1.
    9000005    1    1    2  501    0 -0.18812894987E+03  0.14160080839E+03  0.46368223720E+03  0.65608269891E+03  0.40000000000E+03 0.  1.
   -9000005    1    1    2    0  503  0.18812894987E+03 -0.14160080839E+03  0.30943440217E+03  0.55784669934E+03  0.40000000000E+03 0.  1.
<mgrwt>
<rscale>  2 0.46415869E+03</rscale>
<asrwt>0</asrwt>
<pdfrwt beam="1">  1       21 0.15284969E+00 0.46415869E+03</pdfrwt>
<pdfrwt beam="2">  1       21 0.33908674E-01 0.46415869E+03</pdfrwt>
<totfact> 0.20286341E+03</totfact>
</mgrwt>
</event>
<event>
 4    1  0.4840996E-002  0.5417263E+03  0.7818608E-02  0.1003427E+00
         21   -1    0    0  503  502  0.00000000000E+00  0.00000000000E+00  0.12167761884E+03  0.12167761884E+03  0.00000000000E+00 0.  1.
         21   -1    0    0  501  503 -0.00000000000E+00 -0.00000000000E+00 -0.24803350543E+04  0.24803350543E+04  0.00000000000E+00 0.  1.
    9000005    1    1    2  501    0 -0.31217962695E+03  0.18976627559E+03 -0.96313496264E+03  0.11050322688E+04  0.40000000000E+03 0.  1.
   -9000005    1    1    2    0  502  0.31217962695E+03 -0.18976627559E+03 -0.13955224728E+04  0.14969804043E+04  0.40000000000E+03 0.  1.
<mgrwt>
<rscale>  2 0.54172628E+03</rscale>
<asrwt>0</asrwt>
<pdfrwt beam="1">  1       21 0.18719633E-01 0.54172628E+03</pdfrwt>
<pdfrwt beam="2">  1       21 0.38159002E+00 0.54172628E+03</pdfrwt>
<totfact> 0.21461627E+02</totfact>
</mgrwt>
</event>
<event>
 4    1  0.4840996E-002  0.4148229E+03  0.7818608E-02  0.1038765E+00
         21   -1    0    0  501  502  0.00000000000E+00  0.00000000000E+00  0.64337542603E+03  0.64337542603E+03  0.00000000000E+00 0. -1.
         21   -1    0    0  502  503 -0.00000000000E+00 -0.00000000000E+00 -0.26796403791E+03  0.26796403791E+03  0.00000000000E+00 0. -1.
    9000005    1    1    2  501    0  0.10066524786E+03  0.44096765169E+02  0.16796828547E+03  0.44753922928E+03  0.40000000000E+03 0. -1.
   -9000005    1    1    2    0  503 -0.10066524786E+03 -0.44096765169E+02  0.20744310265E+03  0.46380023465E+03  0.40000000000E+03 0. -1.
<mgrwt>
<rscale>  2 0.41482287E+03</rscale>
<asrwt>0</asrwt>
<pdfrwt beam="1">  1       21 0.98980834E-01 0.41482287E+03</pdfrwt>
<pdfrwt beam="2">  1       21 0.41225237E-01 0.41482287E+03</pdfrwt>
<totfact> 0.42237848E+03</totfact>
</mgrwt>
</event>
<event>
 4    1  0.4840996E-002  0.5064951E+03  0.7818608E-02  0.1012097E+00
         21   -1    0    0  503  502  0.00000000000E+00  0.00000000000E+00  0.48141982754E+03  0.48141982754E+03  0.00000000000E+00 0. -1.
         21   -1    0    0  501  503 -0.00000000000E+00 -0.00000000000E+00 -0.53738638652E+03  0.53738638652E+03  0.00000000000E+00 0. -1.
    9000005    1    1    2  501    0 -0.28722127536E+03  0.11849585567E+03  0.18682600141E+02  0.50683958841E+03  0.40000000000E+03 0. -1.
   -9000005    1    1    2    0  502  0.28722127536E+03 -0.11849585567E+03 -0.74649159127E+02  0.51196662566E+03  0.40000000000E+03 0. -1.
<mgrwt>
<rscale>  2 0.50649514E+03</rscale>
<asrwt>0</asrwt>
<pdfrwt beam="1">  1       21 0.74064589E-01 0.50649514E+03</pdfrwt>
<pdfrwt beam="2">  1       21 0.82674829E-01 0.50649514E+03</pdfrwt>
<totfact> 0.17620273E+03</totfact>
</mgrwt>
</event>
<event>
 4    1  0.4840996E-002  0.4351298E+03  0.7818608E-02  0.1032252E+00
         21   -1    0    0  503  502  0.00000000000E+00  0.00000000000E+00  0.79454850691E+03  0.79454850691E+03  0.00000000000E+00 0.  1.
         21   -1    0    0  501  503 -0.00000000000E+00 -0.00000000000E+00 -0.24288092074E+03  0.24288092074E+03  0.00000000000E+00 0.  1.
    9000005    1    1    2  501    0  0.14618831586E+03  0.89257507078E+02  0.34710041014E+03  0.55661173270E+03  0.40000000000E+03 0.  1.
   -9000005    1    1    2    0  502 -0.14618831586E+03 -0.89257507078E+02  0.20456717603E+03  0.48081769495E+03  0.40000000000E+03 0.  1.
<mgrwt>
<rscale>  2 0.43512978E+03</rscale>
<asrwt>0</asrwt>
<pdfrwt beam="1">  1       21 0.12223823E+00 0.43512978E+03</pdfrwt>
<pdfrwt beam="2">  1       21 0.37366296E-01 0.43512978E+03</pdfrwt>
<totfact> 0.30382253E+03</totfact>
</mgrwt>
</event>
<event>
 4    1  0.4840996E-002  0.4614869E+03  0.7818608E-02  0.1024351E+00
         21   -1    0    0  501  502  0.00000000000E+00  0.00000000000E+00  0.21006119948E+03  0.21006119948E+03  0.00000000000E+00 0.  1.
         21   -1    0    0  502  503 -0.00000000000E+00 -0.00000000000E+00 -0.10231894182E+04  0.10231894182E+04  0.00000000000E+00 0. -1.
    9000005    1    1    2  501    0  0.21164360374E+03  0.90427540600E+02 -0.46548192293E+03  0.65547202509E+03  0.40000000000E+03 0.  1.
   -9000005    1    1    2    0  503 -0.21164360374E+03 -0.90427540600E+02 -0.34764629582E+03  0.57777859263E+03  0.40000000000E+03 0. -1.
<mgrwt>
<rscale>  2 0.46148690E+03</rscale>
<asrwt>0</asrwt>
<pdfrwt beam="1">  1       21 0.32317108E-01 0.46148690E+03</pdfrwt>
<pdfrwt beam="2">  1       21 0.15741375E+00 0.46148690E+03</pdfrwt>
<totfact> 0.20628440E+03</totfact>
</mgrwt>
</event>
<event>
 4    1  0.4840996E-002  0.4505794E+03  0.7818608E-02  0.1027549E+00
         21   -1    0    0  501  502  0.00000000000E+00  0.00000000000E+00  0.64923712860E+03  0.64923712860E+03  0.00000000000E+00 0. -1.
         21   -1    0    0  502  503 -0.00000000000E+00 -0.00000000000E+00 -0.35353614211E+03  0.35353614211E+03  0.00000000000E+00 0.  1.
    9000005    1    1    2  501    0 -0.62744996318E+02  0.19769889672E+03  0.31823671428E+03  0.55163066869E+03  0.40000000000E+03 0. -1.
   -9000005    1    1    2    0  503  0.62744996318E+02 -0.19769889672E+03 -0.22535727778E+02  0.45114260202E+03  0.40000000000E+03 0. -1.
<mgrwt>
<rscale>  2 0.45057939E+03</rscale>
<asrwt>0</asrwt>
<pdfrwt beam="1">  1       21 0.99882635E-01 0.45057939E+03</pdfrwt>
<pdfrwt beam="2">  1       21 0.54390176E-01 0.45057939E+03</pdfrwt>
<totfact> 0.22729709E+03</totfact>
</mgrwt>
</event>
<event>
 4    1  0.4840996E-002  0.5990016E+03  0.7818608E-02  0.9907480E-01
         21   -1    0    0  501  502  0.00000000000E+00  0.00000000000E+00  0.31658990963E+03  0.31658990963E+03  0.00000000000E+00 0. -1.
         21   -1    0    0  502  503 -0.00000000000E+00 -0.00000000000E+00 -0.18521735380E+04  0.18521735380E+04  0.00000000000E+00 0.  1.
    9000005    1    1    2  501    0 -0.30733691646E+03 -0.32302768501E+03 -0.92243199368E+02  0.60606243353E+03  0.40000000000E+03 0. -1.
   -9000005    1    1    2    0  503  0.30733691646E+03  0.32302768501E+03 -0.14433404290E+04  0.15627010141E+04  0.40000000000E+03 0.  1.
<mgrwt>
<rscale>  2 0.59900156E+03</rscale>
<asrwt>0</asrwt>
<pdfrwt beam="1">  1       21 0.48706140E-01 0.59900156E+03</pdfrwt>
<pdfrwt beam="2">  1       21 0.28494977E+00 0.59900156E+03</pdfrwt>
<totfact> 0.12096116E+02</totfact>
</mgrwt>
</event>
<event>
 4    1  0.4840996E-002  0.4533701E+03  0.7818608E-02  0.1026722E+00
         21   -1    0    0  503  502  0.00000000000E+00  0.00000000000E+00  0.43110751526E+03  0.43110751526E+03  0.00000000000E+00 0.  1.
         21   -1    0    0  501  503 -0.00000000000E+00 -0.00000000000E+00 -0.59926457262E+03  0.59926457262E+03  0.00000000000E+00 0.  1.
    9000005    1    1    2  501    0 -0.96162976969E+02  0.19051806465E+03 -0.31699024198E+03  0.55319731074E+03  0.40000000000E+03 0.  1.
   -9000005    1    1    2    0  502  0.96162976969E+02 -0.19051806465E+03  0.14883318461E+03  0.47717477714E+03  0.40000000000E+03 0.  1.
<mgrwt>
<rscale>  2 0.45337010E+03</rscale>
<asrwt>0</asrwt>
<pdfrwt beam="1">  1       21 0.66324234E-01 0.45337010E+03</pdfrwt>
<pdfrwt beam="2">  1       21 0.92194549E-01 0.45337010E+03</pdfrwt>
<totfact> 0.17817412E+03</totfact>
</mgrwt>
</event>
<event>
 4    1  0.4840996E-002  0.4271271E+03  0.7818608E-02  0.1034771E+00
         21   -1    0    0  503  502  0.00000000000E+00  0.00000000000E+00  0.38649353794E+03  0.38649353794E+03  0.00000000000E+00 0.  1.
         21   -1    0    0  501  503 -0.00000000000E+00 -0.00000000000E+00 -0.52098856336E+03  0.52098856336E+03  0.00000000000E+00 0.  1.
    9000005    1    1    2  501    0 -0.92064574076E+02  0.11815967482E+03  0.71842600956E+02  0.43312694890E+03  0.40000000000E+03 0. -1.
   -9000005    1    1    2    0  502  0.92064574076E+02 -0.11815967482E+03 -0.20633762637E+03  0.47435515240E+03  0.40000000000E+03 0. -1.
<mgrwt>
<rscale>  2 0.42712714E+03</rscale>
<asrwt>0</asrwt>
<pdfrwt beam="1">  1       21 0.59460545E-01 0.42712714E+03</pdfrwt>
<pdfrwt beam="2">  1       21 0.80152086E-01 0.42712714E+03</pdfrwt>
<totfact> 0.31796142E+03</totfact>
</mgrwt>
</event>
<event>
 4    1  0.4840996E-002  0.4827863E+03  0.7818608E-02  0.1018372E+00
         21   -1    0    0  501  502  0.00000000000E+00  0.00000000000E+00  0.83353034127E+03  0.83353034127E+03  0.00000000000E+00 0. -1.
         21   -1    0    0  502  503 -0.00000000000E+00 -0.00000000000E+00 -0.29837367991E+03  0.29837367991E+03  0.00000000000E+00 0. -1.
    9000005    1    1    2  501    0  0.11821218270E+03 -0.24312243225E+03  0.40941592808E+03  0.63301187933E+03  0.40000000000E+03 0. -1.
   -9000005    1    1    2    0  503 -0.11821218270E+03  0.24312243225E+03  0.12574073327E+03  0.49889214185E+03  0.40000000000E+03 0. -1.
<mgrwt>
<rscale>  2 0.48278633E+03</rscale>
<asrwt>0</asrwt>
<pdfrwt beam="1">  1       21 0.12823544E+00 0.48278633E+03</pdfrwt>
<pdfrwt beam="2">  1       21 0.45903643E-01 0.48278633E+03</pdfrwt>
<totfact> 0.17229162E+03</totfact>
</mgrwt>
</event>
<event>
 4    1  0.4840996E-002  0.4334062E+03  0.7818608E-02  0.1032789E+00
         21   -1    0    0  503  502  0.00000000000E+00  0.00000000000E+00  0.79356643775E+03  0.79356643775E+03  0.00000000000E+00 0.  1.
         21   -1    0    0  501  503 -0.00000000000E+00 -0.00000000000E+00 -0.35060226760E+03  0.35060226760E+03  0.00000000000E+00 0.  1.
    9000005    1    1    2  501    0 -0.30422693375E+02 -0.16405908233E+03 -0.10458720085E+03  0.44584684069E+03  0.40000000000E+03 0.  1.
   -9000005    1    1    2    0  502  0.30422693375E+02  0.16405908233E+03  0.54755137101E+03  0.69832186466E+03  0.40000000000E+03 0.  1.
<mgrwt>
<rscale>  2 0.43340619E+03</rscale>
<asrwt>0</asrwt>
<pdfrwt beam="1">  1       21 0.12208714E+00 0.43340619E+03</pdfrwt>
<pdfrwt beam="2">  1       21 0.53938811E-01 0.43340619E+03</pdfrwt>
<totfact> 0.14144528E+03</totfact>
</mgrwt>
</event>
<event>
 4    1  0.4840996E-002  0.4095407E+03  0.7818608E-02  0.1040525E+00
         21   -1    0    0  501  502  0.00000000000E+00  0.00000000000E+00  0.58124143183E+03  0.58124143183E+03  0.00000000000E+00 0.  1.
         21   -1    0    0  502  503 -0.00000000000E+00 -0.00000000000E+00 -0.29287089129E+03  0.29287089129E+03  0.00000000000E+00 0.  1.
    9000005    1    1    2  501    0  0.86727384750E+02  0.14212150154E+02  0.91166342244E+02  0.41956516352E+03  0.40000000000E+03 0.  1.
   -9000005    1    1    2    0  503 -0.86727384750E+02 -0.14212150154E+02  0.19720419830E+03  0.45454715961E+03  0.40000000000E+03 0.  1.
<mgrwt>
<rscale>  2 0.40954075E+03</rscale>
<asrwt>0</asrwt>
<pdfrwt beam="1">  1       21 0.89421759E-01 0.40954075E+03</pdfrwt>
<pdfrwt beam="2">  1       21 0.45057060E-01 0.40954075E+03</pdfrwt>
<totfact> 0.44832282E+03</totfact>
</mgrwt>
</event>
<event>
 4    1  0.4840996E-002  0.4764949E+03  0.7818608E-02  0.1020103E+00
         21   -1    0    0  501  502  0.00000000000E+00  0.00000000000E+00  0.19150731826E+04  0.19150731826E+04  0.00000000000E+00 0. -1.
         21   -1    0    0  502  503 -0.00000000000E+00 -0.00000000000E+00 -0.14350141401E+03  0.14350141401E+03  0.00000000000E+00 0.  1.
    9000005    1    1    2  501    0 -0.25030459104E+03  0.66294553088E+02  0.13149130144E+04  0.13985862832E+04  0.40000000000E+03 0. -1.
   -9000005    1    1    2    0  503  0.25030459104E+03 -0.66294553088E+02  0.45665875416E+03  0.65998831340E+03  0.40000000000E+03 0. -1.
<mgrwt>
<rscale>  2 0.47649486E+03</rscale>
<asrwt>0</asrwt>
<pdfrwt beam="1">  1       21 0.29462663E+00 0.47649486E+03</pdfrwt>
<pdfrwt beam="2">  1       21 0.22077142E-01 0.47649486E+03</pdfrwt>
<totfact> 0.55447227E+02</totfact>
</mgrwt>
</event>
<event>
 4    1  0.4840996E-002  0.5110603E+03  0.7818608E-02  0.1010932E+00
         21   -1    0    0  501  502  0.00000000000E+00  0.00000000000E+00  0.86821474639E+03  0.86821474639E+03  0.00000000000E+00 0.  1.
         21   -1    0    0  502  503 -0.00000000000E+00 -0.00000000000E+00 -0.44152172556E+03  0.44152172556E+03  0.00000000000E+00 0.  1.
    9000005    1    1    2  501    0 -0.70261508545E+02  0.31023533348E+03 -0.15632538295E+03  0.53443453021E+03  0.40000000000E+03 0.  1.
   -9000005    1    1    2    0  503  0.70261508545E+02 -0.31023533348E+03  0.58301840379E+03  0.77530194175E+03  0.40000000000E+03 0.  1.
<mgrwt>
<rscale>  2 0.51106031E+03</rscale>
<asrwt>0</asrwt>
<pdfrwt beam="1">  1       21 0.13357150E+00 0.51106031E+03</pdfrwt>
<pdfrwt beam="2">  1       21 0.67926419E-01 0.51106031E+03</pdfrwt>
<totfact> 0.65456369E+02</totfact>
</mgrwt>
</event>
<event>
 4    1  0.4840996E-002  0.4047195E+03  0.7818608E-02  0.1042158E+00
         21   -1    0    0  501  502  0.00000000000E+00  0.00000000000E+00  0.29378113638E+03  0.29378113638E+03  0.00000000000E+00 0.  1.
         21   -1    0    0  502  503 -0.00000000000E+00 -0.00000000000E+00 -0.63463910677E+03  0.63463910677E+03  0.00000000000E+00 0.  1.
    9000005    1    1    2  501    0 -0.18371283320E+02  0.58824878129E+02 -0.86411733920E+01  0.40481173429E+03  0.40000000000E+03 0.  1.
   -9000005    1    1    2    0  503  0.18371283320E+02 -0.58824878129E+02 -0.33221679700E+03  0.52360850886E+03  0.40000000000E+03 0.  1.
<mgrwt>
<rscale>  2 0.40471950E+03</rscale>
<asrwt>0</asrwt>
<pdfrwt beam="1">  1       21 0.45197098E-01 0.40471950E+03</pdfrwt>
<pdfrwt beam="2">  1       21 0.97636785E-01 0.40471950E+03</pdfrwt>
<totfact> 0.36195673E+03</totfact>
</mgrwt>
</event>
<event>
 4    1  0.4840996E-002  0.5875723E+03  0.7818608E-02  0.9931530E-01
         21   -1    0    0  503  502  0.00000000000E+00  0.00000000000E+00  0.24780885939E+04  0.24780885939E+04  0.00000000000E+00 0. -1.
         21   -1    0    0  501  503 -0.00000000000E+00 -0.00000000000E+00 -0.17803052829E+03  0.17803052829E+03  0.00000000000E+00 0. -1.
    9000005    1    1    2  501    0 -0.21435039555E+03  0.37322260750E+03  0.53073248287E+03  0.79178164616E+03  0.40000000000E+03 0. -1.
   -9000005    1    1    2    0  502  0.21435039555E+03 -0.37322260750E+03  0.17693255828E+04  0.18643374761E+04  0.40000000000E+03 0. -1.
<mgrwt>
<rscale>  2 0.58757230E+03</rscale>
<asrwt>0</asrwt>
<pdfrwt beam="1">  1       21 0.38124437E+00 0.58757230E+03</pdfrwt>
<pdfrwt beam="2">  1       21 0.27389314E-01 0.58757230E+03</pdfrwt>
<totfact> 0.10075838E+02</totfact>
</mgrwt>
</event>
<event>
 4    1  0.4840996E-002  0.4295731E+03  0.7818608E-02  0.1033995E+00
         21   -1    0    0  501  502  0.00000000000E+00  0.00000000000E+00  0.11893599963E+04  0.11893599963E+04  0.00000000000E+00 0. -1.
         21   -1    0    0  502  503 -0.00000000000E+00 -0.00000000000E+00 -0.23812567839E+03  0.23812567839E+03  0.00000000000E+00 0. -1.
    9000005    1    1    2  501    0  0.93887524616E+02  0.12537200463E+03  0.54303358694E+02  0.43299175695E+03  0.40000000000E+03 0. -1.
   -9000005    1    1    2    0  503 -0.93887524616E+02 -0.12537200463E+03  0.89693095926E+03  0.99449391778E+03  0.40000000000E+03 0. -1.
<mgrwt>
<rscale>  2 0.42957305E+03</rscale>
<asrwt>0</asrwt>
<pdfrwt beam="1">  1       21 0.18297846E+00 0.42957305E+03</pdfrwt>
<pdfrwt beam="2">  1       21 0.36634721E-01 0.42957305E+03</pdfrwt>
<totfact> 0.10571655E+03</totfact>
</mgrwt>
</event>
<event>
 4    1  0.4840996E-002  0.4791423E+03  0.7818608E-02  0.1019371E+00
         21   -1    0    0  501  502  0.00000000000E+00  0.00000000000E+00  0.11412935550E+03  0.11412935550E+03  0.00000000000E+00 0. -1.
         21   -1    0    0  502  503 -0.00000000000E+00 -0.00000000000E+00 -0.20164248076E+04  0.20164248076E+04  0.00000000000E+00 0.  1.
    9000005    1    1    2  501    0 -0.52465684900E+02  0.25850472243E+03 -0.10035054351E+04  0.11120254034E+04  0.40000000000E+03 0.  1.
   -9000005    1    1    2    0  503  0.52465684900E+02 -0.25850472243E+03 -0.89879001705E+03  0.10185287597E+04  0.40000000000E+03 0. -1.
<mgrwt>
<rscale>  2 0.47914230E+03</rscale>
<asrwt>0</asrwt>
<pdfrwt beam="1">  1       21 0.17558363E-01 0.47914230E+03</pdfrwt>
<pdfrwt beam="2">  1       21 0.31021920E+00 0.47914230E+03</pdfrwt>
<totfact> 0.68942405E+02</totfact>
</mgrwt>
</event>
<event>
 4    1  0.4840996E-002  0.5660113E+03  0.7818608E-02  0.9978544E-01
         21   -1    0    0  503  502  0.00000000000E+00  0.00000000000E+00  0.22223762684E+03  0.22223762684E+03  0.00000000000E+00 0. -1.
         21   -1    0    0  501  503 -0.00000000000E+00 -0.00000000000E+00 -0.14546167716E+04  0.14546167716E+04  0.00000000000E+00 0. -1.
    9000005    1    1    2  501    0  0.15996338496E+03 -0.36712459426E+03 -0.53675345107E+03  0.78004680595E+03  0.40000000000E+03 0. -1.
   -9000005    1    1    2    0  502 -0.15996338496E+03  0.36712459426E+03 -0.69562569374E+03  0.89680759254E+03  0.40000000000E+03 0. -1.
<mgrwt>
<rscale>  2 0.56601127E+03</rscale>
<asrwt>0</asrwt>
<pdfrwt beam="1">  1       21 0.34190404E-01 0.56601127E+03</pdfrwt>
<pdfrwt beam="2">  1       21 0.22378720E+00 0.56601127E+03</pdfrwt>
<totfact> 0.61385152E+02</totfact>
</mgrwt>
</event>
<event>
 4    1  0.4840996E-002  0.4515417E+03  0.7818608E-02  0.1027263E+00
         21   -1    0    0  501  502  0.00000000000E+00  0.00000000000E+00  0.25523702632E+03  0.25523702632E+03  0.00000000000E+00 0. -1.
         21   -1    0    0  502  503 -0.00000000000E+00 -0.00000000000E+00 -0.96315944116E+03  0.96315944116E+03  0.00000000000E+00 0.  1.
    9000005    1    1    2  501    0  0.72462657110E+02 -0.19656825677E+03 -0.10232518604E+03  0.46299066939E+03  0.40000000000E+03 0. -1.
   -9000005    1    1    2    0  503 -0.72462657110E+02  0.19656825677E+03 -0.60559722881E+03  0.75540579809E+03  0.40000000000E+03 0.  1.
<mgrwt>
<rscale>  2 0.45154171E+03</rscale>
<asrwt>0</asrwt>
<pdfrwt beam="1">  1       21 0.39267235E-01 0.45154171E+03</pdfrwt>
<pdfrwt beam="2">  1       21 0.14817837E+00 0.45154171E+03</pdfrwt>
<totfact> 0.16456608E+03</totfact>
</mgrwt>
</event>
<event>
 4    1  0.4840996E-002  0.6246262E+03  0.7818608E-02  0.9855592E-01
         21   -1    0    0  501  502  0.00000000000E+00  0.00000000000E+00  0.26523371342E+03  0.26523371342E+03  0.00000000000E+00 0.  1.
         21   -1    0    0  502  503 -0.00000000000E+00 -0.00000000000E+00 -0.25192369192E+04  0.25192369192E+04  0.00000000000E+00 0.  1.
    9000005    1    1    2  501    0 -0.45203250786E+03  0.16069991660E+03 -0.22893488706E+03  0.66525862179E+03  0.40000000000E+03 0.  1.
   -9000005    1    1    2    0  503  0.45203250786E+03 -0.16069991660E+03 -0.20250683187E+04  0.21192120108E+04  0.40000000000E+03 0.  1.
<mgrwt>
<rscale>  2 0.62462617E+03</rscale>
<asrwt>0</asrwt>
<pdfrwt beam="1">  1       21 0.40805187E-01 0.62462617E+03</pdfrwt>
<pdfrwt beam="2">  1       21 0.38757491E+00 0.62462617E+03</pdfrwt>
<totfact> 0.40176010E+01</totfact>
</mgrwt>
</event>
<event>
 4    1  0.4840996E-002  0.4318990E+03  0.7818608E-02  0.1033262E+00
         21   -1    0    0  501  502  0.00000000000E+00  0.00000000000E+00  0.31278339015E+03  0.31278339015E+03  0.00000000000E+00 0. -1.
         21   -1    0    0  502  503 -0.00000000000E+00 -0.00000000000E+00 -0.60557650393E+03  0.60557650393E+03  0.00000000000E+00 0.  1.
    9000005    1    1    2  501    0 -0.75024888784E+02  0.14459607505E+03 -0.89800625168E+02  0.44113593272E+03  0.40000000000E+03 0.  1.
   -9000005    1    1    2    0  503  0.75024888784E+02 -0.14459607505E+03 -0.20299248861E+03  0.47722396136E+03  0.40000000000E+03 0.  1.
<mgrwt>
<rscale>  2 0.43189901E+03</rscale>
<asrwt>0</asrwt>
<pdfrwt beam="1">  1       21 0.48120522E-01 0.43189901E+03</pdfrwt>
<pdfrwt beam="2">  1       21 0.93165616E-01 0.43189901E+03</pdfrwt>
<totfact> 0.35136044E+03</totfact>
</mgrwt>
</event>
<event>
 4    1  0.4840996E-002  0.5071325E+03  0.7818608E-02  0.1011934E+00
         21   -1    0    0  503  502  0.00000000000E+00  0.00000000000E+00  0.20070540711E+03  0.20070540711E+03  0.00000000000E+00 0. -1.
         21   -1    0    0  501  503 -0.00000000000E+00 -0.00000000000E+00 -0.13172903997E+04  0.13172903997E+04  0.00000000000E+00 0. -1.
    9000005    1    1    2  501    0  0.23515228621E+03 -0.20466247080E+03 -0.43300533642E+03  0.66684102006E+03  0.40000000000E+03 0. -1.
   -9000005    1    1    2    0  502 -0.23515228621E+03  0.20466247080E+03 -0.68357965617E+03  0.85115478674E+03  0.40000000000E+03 0. -1.
<mgrwt>
<rscale>  2 0.50713245E+03</rscale>
<asrwt>0</asrwt>
<pdfrwt beam="1">  1       21 0.30877756E-01 0.50713245E+03</pdfrwt>
<pdfrwt beam="2">  1       21 0.20266006E+00 0.50713245E+03</pdfrwt>
<totfact> 0.10597365E+03</totfact>
</mgrwt>
</event>
<event>
 4    1  0.4840996E-002  0.4150171E+03  0.7818608E-02  0.1038700E+00
         21   -1    0    0  501  502  0.00000000000E+00  0.00000000000E+00  0.12559916710E+04  0.12559916710E+04  0.00000000000E+00 0. -1.
         21   -1    0    0  502  503 -0.00000000000E+00 -0.00000000000E+00 -0.25902895962E+03  0.25902895962E+03  0.00000000000E+00 0. -1.
    9000005    1    1    2  501    0 -0.92608188055E+02 -0.60522234375E+02  0.10181268736E+04  0.10994642095E+04  0.40000000000E+03 0. -1.
   -9000005    1    1    2    0  503  0.92608188055E+02  0.60522234375E+02 -0.21164162197E+02  0.41555642109E+03  0.40000000000E+03 0. -1.
<mgrwt>
<rscale>  2 0.41501713E+03</rscale>
<asrwt>0</asrwt>
<pdfrwt beam="1">  1       21 0.19322948E+00 0.41501713E+03</pdfrwt>
<pdfrwt beam="2">  1       21 0.39850610E-01 0.41501713E+03</pdfrwt>
<totfact> 0.76240928E+02</totfact>
</mgrwt>
</event>
<event>
 4    1  0.4840996E-002  0.4407523E+03  0.7818608E-02  0.1030516E+00
         21   -1    0    0  501  502  0.00000000000E+00  0.00000000000E+00  0.37395795213E+03  0.37395795213E+03  0.00000000000E+00 0. -1.
         21   -1    0    0  502  503 -0.00000000000E+00 -0.00000000000E+00 -0.53387873863E+03  0.53387873863E+03  0.00000000000E+00 0.  1.
    9000005    1    1    2  501    0  0.12352829326E+03  0.13785267893E+03 -0.54079190039E+01  0.44078548741E+03  0.40000000000E+03 0. -1.
   -9000005    1    1    2    0  503 -0.12352829326E+03 -0.13785267893E+03 -0.15451286750E+03  0.46705120335E+03  0.40000000000E+03 0.  1.
<mgrwt>
<rscale>  2 0.44075231E+03</rscale>
<asrwt>0</asrwt>
<pdfrwt beam="1">  1       21 0.57531993E-01 0.44075231E+03</pdfrwt>
<pdfrwt beam="2">  1       21 0.82135190E-01 0.44075231E+03</pdfrwt>
<totfact> 0.32127842E+03</totfact>
</mgrwt>
</event>
<event>
 4    1  0.4840996E-002  0.7438295E+03  0.7818608E-02  0.9645081E-01
         21   -1    0    0  503  502  0.00000000000E+00  0.00000000000E+00  0.84855523316E+03  0.84855523316E+03  0.00000000000E+00 0. -1.
         21   -1    0    0  501  503 -0.00000000000E+00 -0.00000000000E+00 -0.77788289302E+03  0.77788289302E+03  0.00000000000E+00 0.  1.
    9000005    1    1    2  501    0  0.18110975259E+03  0.60040121458E+03 -0.29176665445E+03  0.79900572063E+03  0.40000000000E+03 0.  1.
   -9000005    1    1    2    0  502 -0.18110975259E+03 -0.60040121458E+03  0.36243899460E+03  0.82743240555E+03  0.40000000000E+03 0. -1.
<mgrwt>
<rscale>  2 0.74382952E+03</rscale>
<asrwt>0</asrwt>
<pdfrwt beam="1">  1       21 0.13054696E+00 0.74382952E+03</pdfrwt>
<pdfrwt beam="2">  1       21 0.11967429E+00 0.74382952E+03</pdfrwt>
<totfact> 0.16553238E+02</totfact>
</mgrwt>
</event>
<event>
 4    1  0.4840996E-002  0.4125196E+03  0.7818608E-02  0.1039529E+00
         21   -1    0    0  503  502  0.00000000000E+00  0.00000000000E+00  0.69021291962E+03  0.69021291962E+03  0.00000000000E+00 0.  1.
         21   -1    0    0  501  503 -0.00000000000E+00 -0.00000000000E+00 -0.32808276104E+03  0.32808276104E+03  0.00000000000E+00 0.  1.
    9000005    1    1    2  501    0 -0.14935393670E+02  0.99746497382E+02 -0.72749520053E+02  0.41888533323E+03  0.40000000000E+03 0.  1.
   -9000005    1    1    2    0  502  0.14935393670E+02 -0.99746497382E+02  0.43487967863E+03  0.59941034743E+03  0.40000000000E+03 0.  1.
<mgrwt>
<rscale>  2 0.41251961E+03</rscale>
<asrwt>0</asrwt>
<pdfrwt beam="1">  1       21 0.10618660E+00 0.41251961E+03</pdfrwt>
<pdfrwt beam="2">  1       21 0.50474271E-01 0.41251961E+03</pdfrwt>
<totfact> 0.23300358E+03</totfact>
</mgrwt>
</event>
<event>
 4    1  0.4840996E-002  0.5038886E+03  0.7818608E-02  0.1012769E+00
         21   -1    0    0  503  502  0.00000000000E+00  0.00000000000E+00  0.57048187441E+03  0.57048187441E+03  0.00000000000E+00 0.  1.
         21   -1    0    0  501  503 -0.00000000000E+00 -0.00000000000E+00 -0.69898436743E+03  0.69898436743E+03  0.00000000000E+00 0.  1.
    9000005    1    1    2  501    0  0.58999612147E+02 -0.30070382773E+03 -0.44681339595E+03  0.67345820735E+03  0.40000000000E+03 0.  1.
   -9000005    1    1    2    0  502 -0.58999612147E+02  0.30070382773E+03  0.31831090294E+03  0.59600803449E+03  0.40000000000E+03 0.  1.
<mgrwt>
<rscale>  2 0.50388862E+03</rscale>
<asrwt>0</asrwt>
<pdfrwt beam="1">  1       21 0.87766442E-01 0.50388862E+03</pdfrwt>
<pdfrwt beam="2">  1       21 0.10753606E+00 0.50388862E+03</pdfrwt>
<totfact> 0.63216850E+02</totfact>
</mgrwt>
</event>
<event>
 4    1  0.4840996E-002  0.5135739E+03  0.7818608E-02  0.1010295E+00
         21   -1    0    0  503  502  0.00000000000E+00  0.00000000000E+00  0.45673217168E+03  0.45673217168E+03  0.00000000000E+00 0. -1.
         21   -1    0    0  501  503 -0.00000000000E+00 -0.00000000000E+00 -0.67504126471E+03  0.67504126471E+03  0.00000000000E+00 0.  1.
    9000005    1    1    2  501    0  0.49615255545E+02 -0.31827111088E+03 -0.32427476091E+03  0.60738150628E+03  0.40000000000E+03 0.  1.
   -9000005    1    1    2    0  502 -0.49615255545E+02  0.31827111088E+03  0.10596566788E+03  0.52439193012E+03  0.40000000000E+03 0. -1.
<mgrwt>
<rscale>  2 0.51357392E+03</rscale>
<asrwt>0</asrwt>
<pdfrwt beam="1">  1       21 0.70266488E-01 0.51357392E+03</pdfrwt>
<pdfrwt beam="2">  1       21 0.10385250E+00 0.51357392E+03</pdfrwt>
<totfact> 0.11475453E+03</totfact>
</mgrwt>
</event>
<event>
 4    1  0.4840996E-002  0.5264639E+03  0.7818608E-02  0.1007093E+00
         21   -1    0    0  501  502  0.00000000000E+00  0.00000000000E+00  0.48126417917E+03  0.48126417917E+03  0.00000000000E+00 0.  1.
         21   -1    0    0  502  503 -0.00000000000E+00 -0.00000000000E+00 -0.57955055513E+03  0.57955055513E+03  0.00000000000E+00 0.  1.
    9000005    1    1    2  501    0  0.33196003859E+03  0.83467463636E+02 -0.91188556656E+02  0.53430294550E+03  0.40000000000E+03 0.  1.
   -9000005    1    1    2    0  503 -0.33196003859E+03 -0.83467463636E+02 -0.70978193043E+01  0.52651178880E+03  0.40000000000E+03 0.  1.
<mgrwt>
<rscale>  2 0.52646394E+03</rscale>
<asrwt>0</asrwt>
<pdfrwt beam="1">  1       21 0.74040643E-01 0.52646394E+03</pdfrwt>
<pdfrwt beam="2">  1       21 0.89161624E-01 0.52646394E+03</pdfrwt>
<totfact> 0.14664968E+03</totfact>
</mgrwt>
</event>
<event>
 4    1  0.4840996E-002  0.4901206E+03  0.7818608E-02  0.1016390E+00
         21   -1    0    0  501  502  0.00000000000E+00  0.00000000000E+00  0.25147904626E+03  0.25147904626E+03  0.00000000000E+00 0.  1.
         21   -1    0    0  502  503 -0.00000000000E+00 -0.00000000000E+00 -0.10937939881E+04  0.10937939881E+04  0.00000000000E+00 0.  1.
    9000005    1    1    2  501    0  0.10635429484E+03  0.26250127391E+03 -0.18174243987E+03  0.52273173740E+03  0.40000000000E+03 0.  1.
   -9000005    1    1    2    0  503 -0.10635429484E+03 -0.26250127391E+03 -0.66057250193E+03  0.82254129693E+03  0.40000000000E+03 0.  1.
<mgrwt>
<rscale>  2 0.49012055E+03</rscale>
<asrwt>0</asrwt>
<pdfrwt beam="1">  1       21 0.38689084E-01 0.49012055E+03</pdfrwt>
<pdfrwt beam="2">  1       21 0.16827600E+00 0.49012055E+03</pdfrwt>
<totfact> 0.11737629E+03</totfact>
</mgrwt>
</event>
<event>
 4    1  0.4840996E-002  0.5323288E+03  0.7818608E-02  0.1005669E+00
         21   -1    0    0  503  502  0.00000000000E+00  0.00000000000E+00  0.15092017604E+04  0.15092017604E+04  0.00000000000E+00 0. -1.
         21   -1    0    0  501  503 -0.00000000000E+00 -0.00000000000E+00 -0.19071965822E+03  0.19071965822E+03  0.00000000000E+00 0. -1.
    9000005    1    1    2  501    0  0.25576743617E+03 -0.24074259097E+03  0.76504884386E+03  0.93202666808E+03  0.40000000000E+03 0. -1.
   -9000005    1    1    2    0  502 -0.25576743617E+03  0.24074259097E+03  0.55343325832E+03  0.76789475055E+03  0.40000000000E+03 0. -1.
<mgrwt>
<rscale>  2 0.53232882E+03</rscale>
<asrwt>0</asrwt>
<pdfrwt beam="1">  1       21 0.23218488E+00 0.53232882E+03</pdfrwt>
<pdfrwt beam="2">  1       21 0.29341487E-01 0.53232882E+03</pdfrwt>
<totfact> 0.74790219E+02</totfact>
</mgrwt>
</event>
<event>
 4    1  0.4840996E-002  0.5532154E+03  0.7818608E-02  0.1000752E+00
         21   -1    0    0  503  502  0.00000000000E+00  0.00000000000E+00  0.23520161759E+03  0.23520161759E+03  0.00000000000E+00 0. -1.
         21   -1    0    0  501  503 -0.00000000000E+00 -0.00000000000E+00 -0.14900840601E+04  0.14900840601E+04  0.00000000000E+00 0.  1.
    9000005    1    1    2  501    0 -0.15674179077E+03 -0.34853880009E+03 -0.93456180474E+03  0.10860262663E+04  0.40000000000E+03 0. -1.
   -9000005    1    1    2    0  502  0.15674179077E+03  0.34853880009E+03 -0.32032063782E+03  0.63925941147E+03  0.40000000000E+03 0. -1.
<mgrwt>
<rscale>  2 0.55321540E+03</rscale>
<asrwt>0</asrwt>
<pdfrwt beam="1">  1       21 0.36184865E-01 0.55321540E+03</pdfrwt>
<pdfrwt beam="2">  1       21 0.22924370E+00 0.55321540E+03</pdfrwt>
<totfact> 0.50743301E+02</totfact>
</mgrwt>
</event>
<event>
 4    1  0.4840996E-002  0.4942866E+03  0.7818608E-02  0.1015281E+00
         21   -1    0    0  501  502  0.00000000000E+00  0.00000000000E+00  0.40565063579E+03  0.40565063579E+03  0.00000000000E+00 0.  1.
         21   -1    0    0  502  503 -0.00000000000E+00 -0.00000000000E+00 -0.12465709330E+04  0.12465709330E+04  0.00000000000E+00 0. -1.
    9000005    1    1    2  501    0  0.26124834820E+03 -0.12676163028E+03  0.17344559515E+03  0.52383450137E+03  0.40000000000E+03 0.  1.
   -9000005    1    1    2    0  503 -0.26124834820E+03  0.12676163028E+03 -0.10143658924E+04  0.11283870674E+04  0.40000000000E+03 0. -1.
<mgrwt>
<rscale>  2 0.49428657E+03</rscale>
<asrwt>0</asrwt>
<pdfrwt beam="1">  1       21 0.62407791E-01 0.49428657E+03</pdfrwt>
<pdfrwt beam="2">  1       21 0.19178014E+00 0.49428657E+03</pdfrwt>
<totfact> 0.28875164E+02</totfact>
</mgrwt>
</event>
<event>
 4    1  0.4840996E-002  0.4267856E+03  0.7818608E-02  0.1034880E+00
         21   -1    0    0  503  502  0.00000000000E+00  0.00000000000E+00  0.80575316364E+03  0.80575316364E+03  0.00000000000E+00 0. -1.
         21   -1    0    0  501  503 -0.00000000000E+00 -0.00000000000E+00 -0.22648520589E+03  0.22648520589E+03  0.00000000000E+00 0. -1.
    9000005    1    1    2  501    0 -0.13101084994E+03  0.70583959652E+02  0.26718558763E+03  0.50352167421E+03  0.40000000000E+03 0. -1.
   -9000005    1    1    2    0  502  0.13101084994E+03 -0.70583959652E+02  0.31208237012E+03  0.52871669531E+03  0.40000000000E+03 0. -1.
<mgrwt>
<rscale>  2 0.42678559E+03</rscale>
<asrwt>0</asrwt>
<pdfrwt beam="1">  1       21 0.12396202E+00 0.42678559E+03</pdfrwt>
<pdfrwt beam="2">  1       21 0.34843878E-01 0.42678559E+03</pdfrwt>
<totfact> 0.33886410E+03</totfact>
</mgrwt>
</event>
<event>
 4    1  0.4840996E-002  0.4501207E+03  0.7818608E-02  0.1027686E+00
         21   -1    0    0  501  502  0.00000000000E+00  0.00000000000E+00  0.32492110892E+04  0.32492110892E+04  0.00000000000E+00 0.  1.
         21   -1    0    0  502  503 -0.00000000000E+00 -0.00000000000E+00 -0.62531342292E+02  0.62531342292E+02  0.00000000000E+00 0. -1.
    9000005    1    1    2  501    0 -0.20628517896E+03 -0.74225387542E+01  0.16809576141E+04  0.17401802118E+04  0.40000000000E+03 0.  1.
   -9000005    1    1    2    0  503  0.20628517896E+03  0.74225387542E+01  0.15057221328E+04  0.15715622197E+04  0.40000000000E+03 0. -1.
<mgrwt>
<rscale>  2 0.45012073E+03</rscale>
<asrwt>0</asrwt>
<pdfrwt beam="1">  1       21 0.49987850E+00 0.45012073E+03</pdfrwt>
<pdfrwt beam="2">  1       21 0.96202090E-02 0.45012073E+03</pdfrwt>
<totfact> 0.12413977E+02</totfact>
</mgrwt>
</event>
<event>
 4    1  0.4840996E-002  0.4279856E+03  0.7818608E-02  0.1034498E+00
         21   -1    0    0  501  502  0.00000000000E+00  0.00000000000E+00  0.13956944075E+03  0.13956944075E+03  0.00000000000E+00 0.  1.
         21   -1    0    0  502  503 -0.00000000000E+00 -0.00000000000E+00 -0.14287868904E+04  0.14287868904E+04  0.00000000000E+00 0.  1.
    9000005    1    1    2  501    0  0.14008225032E+03 -0.59570178133E+02 -0.42080177278E+03  0.60020477752E+03  0.40000000000E+03 0.  1.
   -9000005    1    1    2    0  503 -0.14008225032E+03  0.59570178133E+02 -0.86841567685E+03  0.96815155362E+03  0.40000000000E+03 0.  1.
<mgrwt>
<rscale>  2 0.42798556E+03</rscale>
<asrwt>0</asrwt>
<pdfrwt beam="1">  1       21 0.21472222E-01 0.42798556E+03</pdfrwt>
<pdfrwt beam="2">  1       21 0.21981337E+00 0.42798556E+03</pdfrwt>
<totfact> 0.17251820E+03</totfact>
</mgrwt>
</event>
<event>
 4    1  0.4840996E-002  0.4275274E+03  0.7818608E-02  0.1034644E+00
         21   -1    0    0  503  502  0.00000000000E+00  0.00000000000E+00  0.46348205639E+03  0.46348205639E+03  0.00000000000E+00 0. -1.
         21   -1    0    0  501  503 -0.00000000000E+00 -0.00000000000E+00 -0.95836602918E+03  0.95836602918E+03  0.00000000000E+00 0. -1.
    9000005    1    1    2  501    0 -0.70644274152E+02 -0.13337549743E+03 -0.79282130009E+03  0.90074705143E+03  0.40000000000E+03 0. -1.
   -9000005    1    1    2    0  502  0.70644274152E+02  0.13337549743E+03  0.29793732730E+03  0.52110103414E+03  0.40000000000E+03 0. -1.
<mgrwt>
<rscale>  2 0.42752735E+03</rscale>
<asrwt>0</asrwt>
<pdfrwt beam="1">  1       21 0.71304933E-01 0.42752735E+03</pdfrwt>
<pdfrwt beam="2">  1       21 0.14744093E+00 0.42752735E+03</pdfrwt>
<totfact> 0.46778778E+02</totfact>
</mgrwt>
</event>
<event>
 4    1  0.4840996E-002  0.4333372E+03  0.7818608E-02  0.1032811E+00
         21   -1    0    0  503  502  0.00000000000E+00  0.00000000000E+00  0.13783731374E+04  0.13783731374E+04  0.00000000000E+00 0.  1.
         21   -1    0    0  501  503 -0.00000000000E+00 -0.00000000000E+00 -0.17472645837E+03  0.17472645837E+03  0.00000000000E+00 0.  1.
    9000005    1    1    2  501    0 -0.73164851145E+02 -0.14975987285E+03  0.23733931450E+03  0.49407597104E+03  0.40000000000E+03 0.  1.
   -9000005    1    1    2    0  502  0.73164851145E+02  0.14975987285E+03  0.96630736452E+03  0.10590236247E+04  0.40000000000E+03 0.  1.
<mgrwt>
<rscale>  2 0.43333718E+03</rscale>
<asrwt>0</asrwt>
<pdfrwt beam="1">  1       21 0.21205740E+00 0.43333718E+03</pdfrwt>
<pdfrwt beam="2">  1       21 0.26880994E-01 0.43333718E+03</pdfrwt>
<totfact> 0.12494502E+03</totfact>
</mgrwt>
</event>
<event>
 4    1  0.4840996E-002  0.4826536E+03  0.7818608E-02  0.1018408E+00
         21   -1    0    0  503  502  0.00000000000E+00  0.00000000000E+00  0.48531469321E+03  0.48531469321E+03  0.00000000000E+00 0.  1.
         21   -1    0    0  501  503 -0.00000000000E+00 -0.00000000000E+00 -0.68443193627E+03  0.68443193627E+03  0.00000000000E+00 0.  1.
    9000005    1    1    2  501    0 -0.74647147403E+02 -0.25958102665E+03 -0.41920036191E+03  0.63928354385E+03  0.40000000000E+03 0.  1.
   -9000005    1    1    2    0  502  0.74647147403E+02  0.25958102665E+03  0.22008311885E+03  0.53046308563E+03  0.40000000000E+03 0.  1.
<mgrwt>
<rscale>  2 0.48265361E+03</rscale>
<asrwt>0</asrwt>
<pdfrwt beam="1">  1       21 0.74663799E-01 0.48265361E+03</pdfrwt>
<pdfrwt beam="2">  1       21 0.10529722E+00 0.48265361E+03</pdfrwt>
<totfact> 0.97728695E+02</totfact>
</mgrwt>
</event>
<event>
 4    1  0.4840996E-002  0.6099777E+03  0.7818608E-02  0.9884919E-01
         21   -1    0    0  503  502  0.00000000000E+00  0.00000000000E+00  0.85314684347E+03  0.85314684347E+03  0.00000000000E+00 0.  1.
         21   -1    0    0  501  503 -0.00000000000E+00 -0.00000000000E+00 -0.10426471386E+04  0.10426471386E+04  0.00000000000E+00 0. -1.
    9000005    1    1    2  501    0  0.16845801409E+02 -0.46020541704E+03 -0.81771678230E+03  0.10201634883E+04  0.40000000000E+03 0. -1.
   -9000005    1    1    2    0  502 -0.16845801409E+02  0.46020541704E+03  0.62821648713E+03  0.87563049376E+03  0.40000000000E+03 0.  1.
<mgrwt>
<rscale>  2 0.60997771E+03</rscale>
<asrwt>0</asrwt>
<pdfrwt beam="1">  1       21 0.13125336E+00 0.60997771E+03</pdfrwt>
<pdfrwt beam="2">  1       21 0.16040725E+00 0.60997771E+03</pdfrwt>
<totfact> 0.77850753E+01</totfact>
</mgrwt>
</event>
<event>
 4    1  0.4840996E-002  0.4367648E+03  0.7818608E-02  0.1031744E+00
         21   -1    0    0  503  502  0.00000000000E+00  0.00000000000E+00  0.61557044499E+03  0.61557044499E+03  0.00000000000E+00 0. -1.
         21   -1    0    0  501  503 -0.00000000000E+00 -0.00000000000E+00 -0.55586728383E+03  0.55586728383E+03  0.00000000000E+00 0.  1.
    9000005    1    1    2  501    0  0.16231547162E+03  0.66461616778E+02 -0.35977173750E+03  0.56586143351E+03  0.40000000000E+03 0.  1.
   -9000005    1    1    2    0  502 -0.16231547162E+03 -0.66461616778E+02  0.41947489866E+03  0.60557629530E+03  0.40000000000E+03 0. -1.
<mgrwt>
<rscale>  2 0.43676476E+03</rscale>
<asrwt>0</asrwt>
<pdfrwt beam="1">  1       21 0.94703144E-01 0.43676476E+03</pdfrwt>
<pdfrwt beam="2">  1       21 0.85518045E-01 0.43676476E+03</pdfrwt>
<totfact> 0.94156453E+02</totfact>
</mgrwt>
</event>
<event>
 4    1  0.4840996E-002  0.4943017E+03  0.7818608E-02  0.1015277E+00
         21   -1    0    0  503  502  0.00000000000E+00  0.00000000000E+00  0.40821619581E+03  0.40821619581E+03  0.00000000000E+00 0.  1.
         21   -1    0    0  501  503 -0.00000000000E+00 -0.00000000000E+00 -0.99003269096E+03  0.99003269096E+03  0.00000000000E+00 0. -1.
    9000005    1    1    2  501    0 -0.16654761399E+03 -0.23789924118E+03 -0.73054192885E+03  0.88205763218E+03  0.40000000000E+03 0. -1.
   -9000005    1    1    2    0  502  0.16654761399E+03  0.23789924118E+03  0.14872543371E+03  0.51619125459E+03  0.40000000000E+03 0.  1.
<mgrwt>
<rscale>  2 0.49430169E+03</rscale>
<asrwt>0</asrwt>
<pdfrwt beam="1">  1       21 0.62802492E-01 0.49430169E+03</pdfrwt>
<pdfrwt beam="2">  1       21 0.15231272E+00 0.49430169E+03</pdfrwt>
<totfact> 0.55179436E+02</totfact>
</mgrwt>
</event>
<event>
 4    1  0.4840996E-002  0.6075776E+03  0.7818608E-02  0.9889809E-01
         21   -1    0    0  501  502  0.00000000000E+00  0.00000000000E+00  0.99173003934E+03  0.99173003934E+03  0.00000000000E+00 0.  1.
         21   -1    0    0  502  503 -0.00000000000E+00 -0.00000000000E+00 -0.39874759312E+03  0.39874759312E+03  0.00000000000E+00 0. -1.
    9000005    1    1    2  501    0  0.30917767672E+03 -0.33698616224E+03  0.47578351962E+03  0.77169972584E+03  0.40000000000E+03 0.  1.
   -9000005    1    1    2    0  503 -0.30917767672E+03  0.33698616224E+03  0.11719892660E+03  0.61877790662E+03  0.40000000000E+03 0. -1.
<mgrwt>
<rscale>  2 0.60757757E+03</rscale>
<asrwt>0</asrwt>
<pdfrwt beam="1">  1       21 0.15257385E+00 0.60757757E+03</pdfrwt>
<pdfrwt beam="2">  1       21 0.61345784E-01 0.60757757E+03</pdfrwt>
<totfact> 0.55478877E+02</totfact>
</mgrwt>
</event>
<event>
 4    1  0.4840996E-002  0.4250010E+03  0.7818608E-02  0.1035451E+00
         21   -1    0    0  501  502  0.00000000000E+00  0.00000000000E+00  0.43012358911E+03  0.43012358911E+03  0.00000000000E+00 0. -1.
         21   -1    0    0  502  503 -0.00000000000E+00 -0.00000000000E+00 -0.61548891927E+03  0.61548891927E+03  0.00000000000E+00 0. -1.
    9000005    1    1    2  501    0 -0.81260006527E+02  0.11841747500E+03  0.20200293527E+03  0.47056463202E+03  0.40000000000E+03 0. -1.
   -9000005    1    1    2    0  503  0.81260006527E+02 -0.11841747500E+03 -0.38736826543E+03  0.57504787636E+03  0.40000000000E+03 0. -1.
<mgrwt>
<rscale>  2 0.42500104E+03</rscale>
<asrwt>0</asrwt>
<pdfrwt beam="1">  1       21 0.66172860E-01 0.42500104E+03</pdfrwt>
<pdfrwt beam="2">  1       21 0.94690603E-01 0.42500104E+03</pdfrwt>
<totfact> 0.16990453E+03</totfact>
</mgrwt>
</event>
<event>
 4    1  0.4840996E-002  0.4577559E+03  0.7818608E-02  0.1025434E+00
         21   -1    0    0  503  502  0.00000000000E+00  0.00000000000E+00  0.14202767677E+04  0.14202767677E+04  0.00000000000E+00 0. -1.
         21   -1    0    0  501  503 -0.00000000000E+00 -0.00000000000E+00 -0.14753695754E+03  0.14753695754E+03  0.00000000000E+00 0. -1.
    9000005    1    1    2  501    0  0.53876233689E+02  0.21595795949E+03  0.63349193811E+03  0.78157054990E+03  0.40000000000E+03 0. -1.
   -9000005    1    1    2    0  502 -0.53876233689E+02 -0.21595795949E+03  0.63924787202E+03  0.78624317530E+03  0.40000000000E+03 0. -1.
<mgrwt>
<rscale>  2 0.45775593E+03</rscale>
<asrwt>0</asrwt>
<pdfrwt beam="1">  1       21 0.21850411E+00 0.45775593E+03</pdfrwt>
<pdfrwt beam="2">  1       21 0.22697994E-01 0.45775593E+03</pdfrwt>
<totfact> 0.15595011E+03</totfact>
</mgrwt>
</event>
<event>
 4    1  0.4840996E-002  0.4492466E+03  0.7818608E-02  0.1027947E+00
         21   -1    0    0  501  502  0.00000000000E+00  0.00000000000E+00  0.23677221542E+03  0.23677221542E+03  0.00000000000E+00 0.  1.
         21   -1    0    0  502  503 -0.00000000000E+00 -0.00000000000E+00 -0.90386264496E+03  0.90386264496E+03  0.00000000000E+00 0.  1.
    9000005    1    1    2  501    0 -0.17290713274E+03 -0.10920464030E+03 -0.19744807053E+03  0.49072219287E+03  0.40000000000E+03 0.  1.
   -9000005    1    1    2    0  503  0.17290713274E+03  0.10920464030E+03 -0.46964235901E+03  0.64991266751E+03  0.40000000000E+03 0.  1.
<mgrwt>
<rscale>  2 0.44924662E+03</rscale>
<asrwt>0</asrwt>
<pdfrwt beam="1">  1       21 0.36426494E-01 0.44924662E+03</pdfrwt>
<pdfrwt beam="2">  1       21 0.13905579E+00 0.44924662E+03</pdfrwt>
<totfact> 0.22770690E+03</totfact>
</mgrwt>
</event>
<event>
 4    1  0.4840996E-002  0.7105831E+03  0.7818608E-02  0.9699303E-01
         21   -1    0    0  503  502  0.00000000000E+00  0.00000000000E+00  0.39710346248E+03  0.39710346248E+03  0.00000000000E+00 0.  1.
         21   -1    0    0  501  503 -0.00000000000E+00 -0.00000000000E+00 -0.12732722519E+04  0.12732722519E+04  0.00000000000E+00 0.  1.
    9000005    1    1    2  501    0 -0.46452706254E+03  0.35936470614E+03 -0.46899172785E+03  0.85139980306E+03  0.40000000000E+03 0.  1.
   -9000005    1    1    2    0  502  0.46452706254E+03 -0.35936470614E+03 -0.40717706158E+03  0.81897591133E+03  0.40000000000E+03 0.  1.
<mgrwt>
<rscale>  2 0.71058313E+03</rscale>
<asrwt>0</asrwt>
<pdfrwt beam="1">  1       21 0.61092840E-01 0.71058313E+03</pdfrwt>
<pdfrwt beam="2">  1       21 0.19588804E+00 0.71058313E+03</pdfrwt>
<totfact> 0.26132326E+02</totfact>
</mgrwt>
</event>
<event>
 4    1  0.4840996E-002  0.4612680E+03  0.7818608E-02  0.1024414E+00
         21   -1    0    0  503  502  0.00000000000E+00  0.00000000000E+00  0.27478461474E+03  0.27478461474E+03  0.00000000000E+00 0. -1.
         21   -1    0    0  501  503 -0.00000000000E+00 -0.00000000000E+00 -0.15103965672E+04  0.15103965672E+04  0.00000000000E+00 0. -1.
    9000005    1    1    2  501    0 -0.33791183559E+02  0.22721423162E+03 -0.12409258509E+04  0.13238825925E+04  0.40000000000E+03 0. -1.
   -9000005    1    1    2    0  502  0.33791183559E+02 -0.22721423162E+03  0.53138984572E+01  0.46129858948E+03  0.40000000000E+03 0. -1.
<mgrwt>
<rscale>  2 0.46126798E+03</rscale>
<asrwt>0</asrwt>
<pdfrwt beam="1">  1       21 0.42274556E-01 0.46126798E+03</pdfrwt>
<pdfrwt beam="2">  1       21 0.23236870E+00 0.46126798E+03</pdfrwt>
<totfact> 0.36717373E+02</totfact>
</mgrwt>
</event>
<event>
 4    1  0.4840996E-002  0.4349785E+03  0.7818608E-02  0.1032299E+00
         21   -1    0    0  503  502  0.00000000000E+00  0.00000000000E+00  0.31439420195E+03  0.31439420195E+03  0.00000000000E+00 0. -1.
         21   -1    0    0  501  503 -0.00000000000E+00 -0.00000000000E+00 -0.61482175064E+03  0.61482175064E+03  0.00000000000E+00 0. -1.
    9000005    1    1    2  501    0  0.14515545595E+03 -0.90200787495E+02 -0.82630065125E+02  0.44275728805E+03  0.40000000000E+03 0. -1.
   -9000005    1    1    2    0  502 -0.14515545595E+03  0.90200787495E+02 -0.21779748357E+03  0.48645866454E+03  0.40000000000E+03 0. -1.
<mgrwt>
<rscale>  2 0.43497849E+03</rscale>
<asrwt>0</asrwt>
<pdfrwt beam="1">  1       21 0.48368339E-01 0.43497849E+03</pdfrwt>
<pdfrwt beam="2">  1       21 0.94587961E-01 0.43497849E+03</pdfrwt>
<totfact> 0.33483942E+03</totfact>
</mgrwt>
</event>
<event>
 4    1  0.4840996E-002  0.4223608E+03  0.7818608E-02  0.1036301E+00
         21   -1    0    0  503  502  0.00000000000E+00  0.00000000000E+00  0.17301718739E+03  0.17301718739E+03  0.00000000000E+00 0. -1.
         21   -1    0    0  501  503 -0.00000000000E+00 -0.00000000000E+00 -0.10583928277E+04  0.10583928277E+04  0.00000000000E+00 0. -1.
    9000005    1    1    2  501    0  0.13509112910E+03  0.11790242294E+02 -0.34371742834E+03  0.54454595171E+03  0.40000000000E+03 0. -1.
   -9000005    1    1    2    0  502 -0.13509112910E+03 -0.11790242294E+02 -0.54165821194E+03  0.68686406336E+03  0.40000000000E+03 0. -1.
<mgrwt>
<rscale>  2 0.42236077E+03</rscale>
<asrwt>0</asrwt>
<pdfrwt beam="1">  1       21 0.26618029E-01 0.42236077E+03</pdfrwt>
<pdfrwt beam="2">  1       21 0.16282966E+00 0.42236077E+03</pdfrwt>
<totfact> 0.28006633E+03</totfact>
</mgrwt>
</event>
<event>
 4    1  0.4840996E-002  0.5016251E+03  0.7818608E-02  0.1013356E+00
         21   -1    0    0  503  502  0.00000000000E+00  0.00000000000E+00  0.19017721772E+04  0.19017721772E+04  0.00000000000E+00 0. -1.
         21   -1    0    0  501  503 -0.00000000000E+00 -0.00000000000E+00 -0.13268913762E+03  0.13268913762E+03  0.00000000000E+00 0. -1.
    9000005    1    1    2  501    0 -0.27487817871E+03 -0.12676659450E+03  0.83032900540E+03  0.97008970710E+03  0.40000000000E+03 0. -1.
   -9000005    1    1    2    0  502  0.27487817871E+03  0.12676659450E+03  0.93875403418E+03  0.10643716077E+04  0.40000000000E+03 0. -1.
<mgrwt>
<rscale>  2 0.50162514E+03</rscale>
<asrwt>0</asrwt>
<pdfrwt beam="1">  1       21 0.29258032E+00 0.50162514E+03</pdfrwt>
<pdfrwt beam="2">  1       21 0.20413715E-01 0.50162514E+03</pdfrwt>
<totfact> 0.65446417E+02</totfact>
</mgrwt>
</event>
<event>
 4    1  0.4840996E-002  0.4561544E+03  0.7818608E-02  0.1025902E+00
         21   -1    0    0  501  502  0.00000000000E+00  0.00000000000E+00  0.55406293094E+03  0.55406293094E+03  0.00000000000E+00 0. -1.
         21   -1    0    0  502  503 -0.00000000000E+00 -0.00000000000E+00 -0.54068115126E+03  0.54068115126E+03  0.00000000000E+00 0. -1.
    9000005    1    1    2  501    0 -0.41269990981E+02 -0.21534545210E+03  0.30919408062E+03  0.55106973732E+03  0.40000000000E+03 0. -1.
   -9000005    1    1    2    0  503  0.41269990981E+02  0.21534545210E+03 -0.29581230094E+03  0.54367434488E+03  0.40000000000E+03 0. -1.
<mgrwt>
<rscale>  2 0.45615444E+03</rscale>
<asrwt>0</asrwt>
<pdfrwt beam="1">  1       21 0.85240450E-01 0.45615444E+03</pdfrwt>
<pdfrwt beam="2">  1       21 0.83181716E-01 0.45615444E+03</pdfrwt>
<totfact> 0.12785678E+03</totfact>
</mgrwt>
</event>
<event>
 4    1  0.4840996E-002  0.5355368E+03  0.7818608E-02  0.1004898E+00
         21   -1    0    0  501  502  0.00000000000E+00  0.00000000000E+00  0.39084722707E+03  0.39084722707E+03  0.00000000000E+00 0.  1.
         21   -1    0    0  502  503 -0.00000000000E+00 -0.00000000000E+00 -0.89200377352E+03  0.89200377352E+03  0.00000000000E+00 0.  1.
    9000005    1    1    2  501    0  0.11131823114E+03  0.33824245036E+03  0.19559497452E+02  0.53589390531E+03  0.40000000000E+03 0.  1.
   -9000005    1    1    2    0  503 -0.11131823114E+03 -0.33824245036E+03 -0.52071604390E+03  0.74695709528E+03  0.40000000000E+03 0.  1.
<mgrwt>
<rscale>  2 0.53553684E+03</rscale>
<asrwt>0</asrwt>
<pdfrwt beam="1">  1       21 0.60130343E-01 0.53553684E+03</pdfrwt>
<pdfrwt beam="2">  1       21 0.13723135E+00 0.53553684E+03</pdfrwt>
<totfact> 0.79214833E+02</totfact>
</mgrwt>
</event>
<event>
 4    1  0.4840996E-002  0.6715765E+03  0.7818608E-02  0.9767114E-01
         21   -1    0    0  501  502  0.00000000000E+00  0.00000000000E+00  0.31359460563E+03  0.31359460563E+03  0.00000000000E+00 0. -1.
         21   -1    0    0  502  503 -0.00000000000E+00 -0.00000000000E+00 -0.15270610572E+04  0.15270610572E+04  0.00000000000E+00 0. -1.
    9000005    1    1    2  501    0 -0.25539039467E+03 -0.47517439425E+03 -0.38473721008E+03  0.77397524473E+03  0.40000000000E+03 0. -1.
   -9000005    1    1    2    0  503  0.25539039467E+03  0.47517439425E+03 -0.82872924145E+03  0.10666804181E+04  0.40000000000E+03 0. -1.
<mgrwt>
<rscale>  2 0.67157647E+03</rscale>
<asrwt>0</asrwt>
<pdfrwt beam="1">  1       21 0.48245324E-01 0.67157647E+03</pdfrwt>
<pdfrwt beam="2">  1       21 0.23493247E+00 0.67157647E+03</pdfrwt>
<totfact> 0.24490264E+02</totfact>
</mgrwt>
</event>
<event>
 4    1  0.4840996E-002  0.4183777E+03  0.7818608E-02  0.1037596E+00
         21   -1    0    0  501  502  0.00000000000E+00  0.00000000000E+00  0.89969401421E+03  0.89969401421E+03  0.00000000000E+00 0. -1.
         21   -1    0    0  502  503 -0.00000000000E+00 -0.00000000000E+00 -0.19576976065E+03  0.19576976065E+03  0.00000000000E+00 0. -1.
    9000005    1    1    2  501    0  0.42645274309E+02 -0.11498376746E+03  0.39510976372E+03  0.57545774092E+03  0.40000000000E+03 0. -1.
   -9000005    1    1    2    0  503 -0.42645274309E+02  0.11498376746E+03  0.30881448985E+03  0.52000603394E+03  0.40000000000E+03 0. -1.
<mgrwt>
<rscale>  2 0.41837768E+03</rscale>
<asrwt>0</asrwt>
<pdfrwt beam="1">  1       21 0.13841446E+00 0.41837768E+03</pdfrwt>
<pdfrwt beam="2">  1       21 0.30118425E-01 0.41837768E+03</pdfrwt>
<totfact> 0.34182808E+03</totfact>
</mgrwt>
</event>
<event>
 4    1  0.4840996E-002  0.5375485E+03  0.7818608E-02  0.1004418E+00
         21   -1    0    0  503  502  0.00000000000E+00  0.00000000000E+00  0.58669018132E+03  0.58669018132E+03  0.00000000000E+00 0.  1.
         21   -1    0    0  501  503 -0.00000000000E+00 -0.00000000000E+00 -0.78623724418E+03  0.78623724418E+03  0.00000000000E+00 0.  1.
    9000005    1    1    2  501    0  0.13658723148E+03 -0.33211794383E+03 -0.51934243492E+03  0.74744562687E+03  0.40000000000E+03 0. -1.
   -9000005    1    1    2    0  502 -0.13658723148E+03  0.33211794383E+03  0.31979537206E+03  0.62548179862E+03  0.40000000000E+03 0. -1.
<mgrwt>
<rscale>  2 0.53754851E+03</rscale>
<asrwt>0</asrwt>
<pdfrwt beam="1">  1       21 0.90260029E-01 0.53754851E+03</pdfrwt>
<pdfrwt beam="2">  1       21 0.12095957E+00 0.53754851E+03</pdfrwt>
<totfact> 0.43455600E+02</totfact>
</mgrwt>
</event>
<event>
 4    1  0.4840996E-002  0.4786210E+03  0.7818608E-02  0.1019515E+00
         21   -1    0    0  503  502  0.00000000000E+00  0.00000000000E+00  0.51915991810E+03  0.51915991810E+03  0.00000000000E+00 0. -1.
         21   -1    0    0  501  503 -0.00000000000E+00 -0.00000000000E+00 -0.45879722369E+03  0.45879722369E+03  0.00000000000E+00 0.  1.
    9000005    1    1    2  501    0  0.25327687469E+03  0.70205826207E+02  0.12581575326E+03  0.49488143737E+03  0.40000000000E+03 0.  1.
   -9000005    1    1    2    0  502 -0.25327687469E+03 -0.70205826207E+02 -0.65453058852E+02  0.48307570442E+03  0.40000000000E+03 0.  1.
<mgrwt>
<rscale>  2 0.47862097E+03</rscale>
<asrwt>0</asrwt>
<pdfrwt beam="1">  1       21 0.79870757E-01 0.47862097E+03</pdfrwt>
<pdfrwt beam="2">  1       21 0.70584188E-01 0.47862097E+03</pdfrwt>
<totfact> 0.21498549E+03</totfact>
</mgrwt>
</event>
<event>
 4    1  0.4840996E-002  0.4026525E+03  0.7818608E-02  0.1042865E+00
         21   -1    0    0  503  502  0.00000000000E+00  0.00000000000E+00  0.79516919519E+03  0.79516919519E+03  0.00000000000E+00 0. -1.
         21   -1    0    0  501  503 -0.00000000000E+00 -0.00000000000E+00 -0.30416289766E+03  0.30416289766E+03  0.00000000000E+00 0. -1.
    9000005    1    1    2  501    0 -0.86708703801E+01 -0.45319721795E+02 -0.70093287242E+02  0.40870787868E+03  0.40000000000E+03 0. -1.
   -9000005    1    1    2    0  502  0.86708703801E+01  0.45319721795E+02  0.56109958477E+03  0.69062421418E+03  0.40000000000E+03 0. -1.
<mgrwt>
<rscale>  2 0.40265253E+03</rscale>
<asrwt>0</asrwt>
<pdfrwt beam="1">  1       21 0.12233372E+00 0.40265253E+03</pdfrwt>
<pdfrwt beam="2">  1       21 0.46794292E-01 0.40265253E+03</pdfrwt>
<totfact> 0.19283352E+03</totfact>
</mgrwt>
</event>
<event>
 4    1  0.4840996E-002  0.4689290E+03  0.7818608E-02  0.1022223E+00
         21   -1    0    0  503  502  0.00000000000E+00  0.00000000000E+00  0.10172483959E+04  0.10172483959E+04  0.00000000000E+00 0. -1.
         21   -1    0    0  501  503 -0.00000000000E+00 -0.00000000000E+00 -0.22284066732E+03  0.22284066732E+03  0.00000000000E+00 0.  1.
    9000005    1    1    2  501    0  0.19324510411E+03  0.15016896467E+03  0.50451494764E+03  0.68878858920E+03  0.40000000000E+03 0.  1.
   -9000005    1    1    2    0  502 -0.19324510411E+03 -0.15016896467E+03  0.28989278093E+03  0.55130047401E+03  0.40000000000E+03 0. -1.
<mgrwt>
<rscale>  2 0.46892898E+03</rscale>
<asrwt>0</asrwt>
<pdfrwt beam="1">  1       21 0.15649975E+00 0.46892898E+03</pdfrwt>
<pdfrwt beam="2">  1       21 0.34283180E-01 0.46892898E+03</pdfrwt>
<totfact> 0.18560561E+03</totfact>
</mgrwt>
</event>
<event>
 4    1  0.4840996E-002  0.6573646E+03  0.7818608E-02  0.9793057E-01
         21   -1    0    0  503  502  0.00000000000E+00  0.00000000000E+00  0.10812453660E+04  0.10812453660E+04  0.00000000000E+00 0. -1.
         21   -1    0    0  501  503 -0.00000000000E+00 -0.00000000000E+00 -0.77165462924E+03  0.77165462924E+03  0.00000000000E+00 0.  1.
    9000005    1    1    2  501    0  0.48048125130E+03  0.20314041706E+03 -0.48845502005E+03  0.81897287410E+03  0.40000000000E+03 0.  1.
   -9000005    1    1    2    0  502 -0.48048125130E+03 -0.20314041706E+03  0.79804575686E+03  0.10339271212E+04  0.40000000000E+03 0. -1.
<mgrwt>
<rscale>  2 0.65736463E+03</rscale>
<asrwt>0</asrwt>
<pdfrwt beam="1">  1       21 0.16634544E+00 0.65736463E+03</pdfrwt>
<pdfrwt beam="2">  1       21 0.11871610E+00 0.65736463E+03</pdfrwt>
<totfact> 0.89461941E+01</totfact>
</mgrwt>
</event>
<event>
 4    1  0.4840996E-002  0.4041821E+03  0.7818608E-02  0.1042341E+00
         21   -1    0    0  503  502  0.00000000000E+00  0.00000000000E+00  0.65461834331E+03  0.65461834331E+03  0.00000000000E+00 0. -1.
         21   -1    0    0  501  503 -0.00000000000E+00 -0.00000000000E+00 -0.67741907511E+03  0.67741907511E+03  0.00000000000E+00 0. -1.
    9000005    1    1    2  501    0  0.48346720180E+02  0.32027682726E+02 -0.54071111025E+03  0.67507901950E+03  0.40000000000E+03 0. -1.
   -9000005    1    1    2    0  502 -0.48346720180E+02 -0.32027682726E+02  0.51791037845E+03  0.65695839892E+03  0.40000000000E+03 0. -1.
<mgrwt>
<rscale>  2 0.40418211E+03</rscale>
<asrwt>0</asrwt>
<pdfrwt beam="1">  1       21 0.10071051E+00 0.40418211E+03</pdfrwt>
<pdfrwt beam="2">  1       21 0.10421832E+00 0.40418211E+03</pdfrwt>
<totfact> 0.51358980E+02</totfact>
</mgrwt>
</event>
<event>
 4    1  0.4840996E-002  0.7591484E+03  0.7818608E-02  0.9621106E-01
         21   -1    0    0  501  502  0.00000000000E+00  0.00000000000E+00  0.36091896590E+03  0.36091896590E+03  0.00000000000E+00 0.  1.
         21   -1    0    0  502  503 -0.00000000000E+00 -0.00000000000E+00 -0.16057674725E+04  0.16057674725E+04  0.00000000000E+00 0. -1.
    9000005    1    1    2  501    0  0.28883831938E+03  0.57695641445E+03 -0.54883570402E+03  0.93676406257E+03  0.40000000000E+03 0.  1.
   -9000005    1    1    2    0  503 -0.28883831938E+03 -0.57695641445E+03 -0.69601280262E+03  0.10299223759E+04  0.40000000000E+03 0. -1.
<mgrwt>
<rscale>  2 0.75914839E+03</rscale>
<asrwt>0</asrwt>
<pdfrwt beam="1">  1       21 0.55525995E-01 0.75914839E+03</pdfrwt>
<pdfrwt beam="2">  1       21 0.24704115E+00 0.75914839E+03</pdfrwt>
<totfact> 0.14709273E+02</totfact>
</mgrwt>
</event>
<event>
 4    1  0.4840996E-002  0.4029303E+03  0.7818608E-02  0.1042770E+00
         21   -1    0    0  501  502  0.00000000000E+00  0.00000000000E+00  0.42688257615E+03  0.42688257615E+03  0.00000000000E+00 0. -1.
         21   -1    0    0  502  503 -0.00000000000E+00 -0.00000000000E+00 -0.58525418477E+03  0.58525418477E+03  0.00000000000E+00 0. -1.
    9000005    1    1    2  501    0 -0.47903477609E+02  0.76219201082E+01  0.22027640206E+03  0.45921076875E+03  0.40000000000E+03 0. -1.
   -9000005    1    1    2    0  503  0.47903477609E+02 -0.76219201082E+01 -0.37864801067E+03  0.55292599217E+03  0.40000000000E+03 0. -1.
<mgrwt>
<rscale>  2 0.40293031E+03</rscale>
<asrwt>0</asrwt>
<pdfrwt beam="1">  1       21 0.65674243E-01 0.40293031E+03</pdfrwt>
<pdfrwt beam="2">  1       21 0.90039105E-01 0.40293031E+03</pdfrwt>
<totfact> 0.19655501E+03</totfact>
</mgrwt>
</event>
<event>
 4    1  0.4840996E-002  0.4229467E+03  0.7818608E-02  0.1036111E+00
         21   -1    0    0  501  502  0.00000000000E+00  0.00000000000E+00  0.27474946928E+03  0.27474946928E+03  0.00000000000E+00 0. -1.
         21   -1    0    0  502  503 -0.00000000000E+00 -0.00000000000E+00 -0.90730434813E+03  0.90730434813E+03  0.00000000000E+00 0.  1.
    9000005    1    1    2  501    0 -0.13698116270E+03 -0.10959539381E+02 -0.21970989374E+01  0.42295245322E+03  0.40000000000E+03 0. -1.
   -9000005    1    1    2    0  503  0.13698116270E+03  0.10959539381E+02 -0.63035777990E+03  0.75910136419E+03  0.40000000000E+03 0.  1.
<mgrwt>
<rscale>  2 0.42294675E+03</rscale>
<asrwt>0</asrwt>
<pdfrwt beam="1">  1       21 0.42269149E-01 0.42294675E+03</pdfrwt>
<pdfrwt beam="2">  1       21 0.13958528E+00 0.42294675E+03</pdfrwt>
<totfact> 0.16786218E+03</totfact>
</mgrwt>
</event>
<event>
 4    1  0.4840996E-002  0.4415418E+03  0.7818608E-02  0.1030275E+00
         21   -1    0    0  501  502  0.00000000000E+00  0.00000000000E+00  0.24392472283E+03  0.24392472283E+03  0.00000000000E+00 0.  1.
         21   -1    0    0  502  503 -0.00000000000E+00 -0.00000000000E+00 -0.12221138714E+04  0.12221138714E+04  0.00000000000E+00 0. -1.
    9000005    1    1    2  501    0  0.65470360528E+02 -0.17513652056E+03 -0.57918208493E+02  0.44532425020E+03  0.40000000000E+03 0.  1.
   -9000005    1    1    2    0  503 -0.65470360528E+02  0.17513652056E+03 -0.92027094006E+03  0.10207143440E+04  0.40000000000E+03 0. -1.
<mgrwt>
<rscale>  2 0.44154181E+03</rscale>
<asrwt>0</asrwt>
<pdfrwt beam="1">  1       21 0.37526881E-01 0.44154181E+03</pdfrwt>
<pdfrwt beam="2">  1       21 0.18801752E+00 0.44154181E+03</pdfrwt>
<totfact> 0.92379778E+02</totfact>
</mgrwt>
</event>
<event>
 4    1  0.4840996E-002  0.4576396E+03  0.7818608E-02  0.1025468E+00
         21   -1    0    0  503  502  0.00000000000E+00  0.00000000000E+00  0.98821323879E+03  0.98821323879E+03  0.00000000000E+00 0. -1.
         21   -1    0    0  501  503 -0.00000000000E+00 -0.00000000000E+00 -0.29597660362E+03  0.29597660362E+03  0.00000000000E+00 0. -1.
    9000005    1    1    2  501    0  0.11652031293E+03 -0.18935959614E+03  0.39613588825E+01  0.45765678444E+03  0.40000000000E+03 0. -1.
   -9000005    1    1    2    0  502 -0.11652031293E+03  0.18935959614E+03  0.68827527629E+03  0.82653305797E+03  0.40000000000E+03 0. -1.
<mgrwt>
<rscale>  2 0.45763964E+03</rscale>
<asrwt>0</asrwt>
<pdfrwt beam="1">  1       21 0.15203280E+00 0.45763964E+03</pdfrwt>
<pdfrwt beam="2">  1       21 0.45534863E-01 0.45763964E+03</pdfrwt>
<totfact> 0.11255623E+03</totfact>
</mgrwt>
</event>
<event>
 4    1  0.4840996E-002  0.4590229E+03  0.7818608E-02  0.1025065E+00
         21   -1    0    0  503  502  0.00000000000E+00  0.00000000000E+00  0.53400793595E+03  0.53400793595E+03  0.00000000000E+00 0.  1.
         21   -1    0    0  501  503 -0.00000000000E+00 -0.00000000000E+00 -0.16919491180E+04  0.16919491180E+04  0.00000000000E+00 0. -1.
    9000005    1    1    2  501    0  0.21653617522E+03 -0.61758814887E+02 -0.15535720134E+04  0.16199654524E+04  0.40000000000E+03 0. -1.
   -9000005    1    1    2    0  502 -0.21653617522E+03  0.61758814887E+02  0.39563083132E+03  0.60599160150E+03  0.40000000000E+03 0.  1.
<mgrwt>
<rscale>  2 0.45902295E+03</rscale>
<asrwt>0</asrwt>
<pdfrwt beam="1">  1       21 0.82155069E-01 0.45902295E+03</pdfrwt>
<pdfrwt beam="2">  1       21 0.26029986E+00 0.45902295E+03</pdfrwt>
<totfact> 0.57655467E+01</totfact>
</mgrwt>
</event>
<event>
 4    1  0.4840996E-002  0.5265110E+03  0.7818608E-02  0.1007082E+00
         21   -1    0    0  503  502  0.00000000000E+00  0.00000000000E+00  0.22662831586E+03  0.22662831586E+03  0.00000000000E+00 0. -1.
         21   -1    0    0  501  503 -0.00000000000E+00 -0.00000000000E+00 -0.12566192454E+04  0.12566192454E+04  0.00000000000E+00 0. -1.
    9000005    1    1    2  501    0  0.29161862973E+03  0.17936658303E+03 -0.39406893039E+03  0.65765045291E+03  0.40000000000E+03 0. -1.
   -9000005    1    1    2    0  502 -0.29161862973E+03 -0.17936658303E+03 -0.63592199917E+03  0.82559710836E+03  0.40000000000E+03 0. -1.
<mgrwt>
<rscale>  2 0.52651097E+03</rscale>
<asrwt>0</asrwt>
<pdfrwt beam="1">  1       21 0.34865895E-01 0.52651097E+03</pdfrwt>
<pdfrwt beam="2">  1       21 0.19332604E+00 0.52651097E+03</pdfrwt>
<totfact> 0.95199385E+02</totfact>
</mgrwt>
</event>
<event>
 4    1  0.4840996E-002  0.4753669E+03  0.7818608E-02  0.1020416E+00
         21   -1    0    0  503  502  0.00000000000E+00  0.00000000000E+00  0.12024047652E+04  0.12024047652E+04  0.00000000000E+00 0. -1.
         21   -1    0    0  501  503 -0.00000000000E+00 -0.00000000000E+00 -0.29734593157E+03  0.29734593157E+03  0.00000000000E+00 0. -1.
    9000005    1    1    2  501    0  0.20843973902E+03 -0.15008850645E+03 -0.23422174701E+01  0.47537266492E+03  0.40000000000E+03 0. -1.
   -9000005    1    1    2    0  502 -0.20843973902E+03  0.15008850645E+03  0.90740105106E+03  0.10243780318E+04  0.40000000000E+03 0. -1.
<mgrwt>
<rscale>  2 0.47536689E+03</rscale>
<asrwt>0</asrwt>
<pdfrwt beam="1">  1       21 0.18498535E+00 0.47536689E+03</pdfrwt>
<pdfrwt beam="2">  1       21 0.45745529E-01 0.47536689E+03</pdfrwt>
<totfact> 0.63341627E+02</totfact>
</mgrwt>
</event>
<event>
 4    1  0.4840996E-002  0.5235721E+03  0.7818608E-02  0.1007803E+00
         21   -1    0    0  501  502  0.00000000000E+00  0.00000000000E+00  0.11006163241E+04  0.11006163241E+04  0.00000000000E+00 0. -1.
         21   -1    0    0  502  503 -0.00000000000E+00 -0.00000000000E+00 -0.25179632037E+03  0.25179632037E+03  0.00000000000E+00 0.  1.
    9000005    1    1    2  501    0 -0.20775139804E+03 -0.26639657535E+03  0.49480477093E+03  0.72038846470E+03  0.40000000000E+03 0.  1.
   -9000005    1    1    2    0  503  0.20775139804E+03  0.26639657535E+03  0.35401523280E+03  0.63202417976E+03  0.40000000000E+03 0.  1.
<mgrwt>
<rscale>  2 0.52357213E+03</rscale>
<asrwt>0</asrwt>
<pdfrwt beam="1">  1       21 0.16932559E+00 0.52357213E+03</pdfrwt>
<pdfrwt beam="2">  1       21 0.38737896E-01 0.52357213E+03</pdfrwt>
<totfact> 0.11357332E+03</totfact>
</mgrwt>
</event>
<event>
 4    1  0.4840996E-002  0.4013588E+03  0.7818608E-02  0.1043310E+00
         21   -1    0    0  503  502  0.00000000000E+00  0.00000000000E+00  0.12304404604E+03  0.12304404604E+03  0.00000000000E+00 0.  1.
         21   -1    0    0  501  503 -0.00000000000E+00 -0.00000000000E+00 -0.14519513036E+04  0.14519513036E+04  0.00000000000E+00 0.  1.
    9000005    1    1    2  501    0 -0.32829930269E+02 -0.33289589924E+01 -0.91138028700E+03  0.99584281582E+03  0.40000000000E+03 0. -1.
   -9000005    1    1    2    0  502  0.32829930269E+02  0.33289589924E+01 -0.41752697056E+03  0.57915253382E+03  0.40000000000E+03 0. -1.
<mgrwt>
<rscale>  2 0.40135880E+03</rscale>
<asrwt>0</asrwt>
<pdfrwt beam="1">  1       21 0.18929853E-01 0.40135880E+03</pdfrwt>
<pdfrwt beam="2">  1       21 0.22337712E+00 0.40135880E+03</pdfrwt>
<totfact> 0.21081159E+03</totfact>
</mgrwt>
</event>
<event>
 4    1  0.4840996E-002  0.4074563E+03  0.7818608E-02  0.1041228E+00
         21   -1    0    0  503  502  0.00000000000E+00  0.00000000000E+00  0.20703589596E+03  0.20703589596E+03  0.00000000000E+00 0.  1.
         21   -1    0    0  501  503 -0.00000000000E+00 -0.00000000000E+00 -0.16038489264E+04  0.16038489264E+04  0.00000000000E+00 0.  1.
    9000005    1    1    2  501    0 -0.76347559390E+02 -0.13846550710E+02 -0.13386634647E+04  0.13993000209E+04  0.40000000000E+03 0.  1.
   -9000005    1    1    2    0  502  0.76347559390E+02  0.13846550710E+02 -0.58149565738E+02  0.41158480145E+03  0.40000000000E+03 0.  1.
<mgrwt>
<rscale>  2 0.40745635E+03</rscale>
<asrwt>0</asrwt>
<pdfrwt beam="1">  1       21 0.31851677E-01 0.40745635E+03</pdfrwt>
<pdfrwt beam="2">  1       21 0.24674598E+00 0.40745635E+03</pdfrwt>
<totfact> 0.54787177E+02</totfact>
</mgrwt>
</event>
<event>
 4    1  0.4840996E-002  0.4091192E+03  0.7818608E-02  0.1040667E+00
         21   -1    0    0  503  502  0.00000000000E+00  0.00000000000E+00  0.44721533681E+03  0.44721533681E+03  0.00000000000E+00 0.  1.
         21   -1    0    0  501  503 -0.00000000000E+00 -0.00000000000E+00 -0.57625261512E+03  0.57625261512E+03  0.00000000000E+00 0.  1.
    9000005    1    1    2  501    0 -0.11970183513E+02  0.85060048214E+02 -0.36748658689E+03  0.54993171271E+03  0.40000000000E+03 0.  1.
   -9000005    1    1    2    0  502  0.11970183513E+02 -0.85060048214E+02  0.23844930858E+03  0.47353623923E+03  0.40000000000E+03 0.  1.
<mgrwt>
<rscale>  2 0.40911917E+03</rscale>
<asrwt>0</asrwt>
<pdfrwt beam="1">  1       21 0.68802359E-01 0.40911917E+03</pdfrwt>
<pdfrwt beam="2">  1       21 0.88654249E-01 0.40911917E+03</pdfrwt>
<totfact> 0.18329039E+03</totfact>
</mgrwt>
</event>
<event>
 4    1  0.4840996E-002  0.4256740E+03  0.7818608E-02  0.1035235E+00
         21   -1    0    0  503  502  0.00000000000E+00  0.00000000000E+00  0.47084113989E+03  0.47084113989E+03  0.00000000000E+00 0.  1.
         21   -1    0    0  501  503 -0.00000000000E+00 -0.00000000000E+00 -0.38672869108E+03  0.38672869108E+03  0.00000000000E+00 0.  1.
    9000005    1    1    2  501    0  0.12988670177E+03  0.65786058671E+02  0.12088636018E+02  0.42584562453E+03  0.40000000000E+03 0. -1.
   -9000005    1    1    2    0  502 -0.12988670177E+03 -0.65786058671E+02  0.72023812789E+02  0.43172420643E+03  0.40000000000E+03 0. -1.
<mgrwt>
<rscale>  2 0.42567401E+03</rscale>
<asrwt>0</asrwt>
<pdfrwt beam="1">  1       21 0.72437098E-01 0.42567401E+03</pdfrwt>
<pdfrwt beam="2">  1       21 0.59496722E-01 0.42567401E+03</pdfrwt>
<totfact> 0.40038480E+03</totfact>
</mgrwt>
</event>
<event>
 4    1  0.4840996E-002  0.4279021E+03  0.7818608E-02  0.1034525E+00
         21   -1    0    0  503  502  0.00000000000E+00  0.00000000000E+00  0.11709484865E+03  0.11709484865E+03  0.00000000000E+00 0.  1.
         21   -1    0    0  501  503 -0.00000000000E+00 -0.00000000000E+00 -0.18684009681E+04  0.18684009681E+04  0.00000000000E+00 0.  1.
    9000005    1    1    2  501    0  0.11703943698E+03  0.96963711297E+02 -0.12765632419E+04  0.13463706405E+04  0.40000000000E+03 0.  1.
   -9000005    1    1    2    0  502 -0.11703943698E+03 -0.96963711297E+02 -0.47474287762E+03  0.63912517629E+03  0.40000000000E+03 0.  1.
<mgrwt>
<rscale>  2 0.42790208E+03</rscale>
<asrwt>0</asrwt>
<pdfrwt beam="1">  1       21 0.18014594E-01 0.42790208E+03</pdfrwt>
<pdfrwt beam="2">  1       21 0.28744628E+00 0.42790208E+03</pdfrwt>
<totfact> 0.92609189E+02</totfact>
</mgrwt>
</event>
<event>
 4    1  0.4840996E-002  0.4464060E+03  0.7818608E-02  0.1028799E+00
         21   -1    0    0  501  502  0.00000000000E+00  0.00000000000E+00  0.15803764216E+03  0.15803764216E+03  0.00000000000E+00 0.  1.
         21   -1    0    0  502  503 -0.00000000000E+00 -0.00000000000E+00 -0.23650214633E+04  0.23650214633E+04  0.00000000000E+00 0.  1.
    9000005    1    1    2  501    0  0.19816736704E+03 -0.28268787602E+01 -0.24155085482E+03  0.50756783987E+03  0.40000000000E+03 0.  1.
   -9000005    1    1    2    0  503 -0.19816736704E+03  0.28268787602E+01 -0.19654329663E+04  0.20154912656E+04  0.40000000000E+03 0.  1.
<mgrwt>
<rscale>  2 0.44640598E+03</rscale>
<asrwt>0</asrwt>
<pdfrwt beam="1">  1       21 0.24313482E-01 0.44640598E+03</pdfrwt>
<pdfrwt beam="2">  1       21 0.36384948E+00 0.44640598E+03</pdfrwt>
<totfact> 0.17771533E+02</totfact>
</mgrwt>
</event>
<event>
 4    1  0.4840996E-002  0.4966372E+03  0.7818608E-02  0.1014660E+00
         21   -1    0    0  503  502  0.00000000000E+00  0.00000000000E+00  0.20967372220E+04  0.20967372220E+04  0.00000000000E+00 0.  1.
         21   -1    0    0  501  503 -0.00000000000E+00 -0.00000000000E+00 -0.32290056264E+03  0.32290056264E+03  0.00000000000E+00 0.  1.
    9000005    1    1    2  501    0 -0.26783430932E+03 -0.12211982785E+03 -0.77675813111E+02  0.50267484674E+03  0.40000000000E+03 0.  1.
   -9000005    1    1    2    0  502  0.26783430932E+03  0.12211982785E+03  0.18515124724E+04  0.19169629379E+04  0.40000000000E+03 0.  1.
<mgrwt>
<rscale>  2 0.49663716E+03</rscale>
<asrwt>0</asrwt>
<pdfrwt beam="1">  1       21 0.32257495E+00 0.49663716E+03</pdfrwt>
<pdfrwt beam="2">  1       21 0.49677011E-01 0.49663716E+03</pdfrwt>
<totfact> 0.72312768E+01</totfact>
</mgrwt>
</event>
<event>
 4    1  0.4840996E-002  0.4813798E+03  0.7818608E-02  0.1018757E+00
         21   -1    0    0  501  502  0.00000000000E+00  0.00000000000E+00  0.56173401228E+03  0.56173401228E+03  0.00000000000E+00 0. -1.
         21   -1    0    0  502  503 -0.00000000000E+00 -0.00000000000E+00 -0.49071527580E+03  0.49071527580E+03  0.00000000000E+00 0. -1.
    9000005    1    1    2  501    0 -0.20438020538E+03 -0.17307590144E+03  0.24557090916E+03  0.54039948875E+03  0.40000000000E+03 0. -1.
   -9000005    1    1    2    0  503  0.20438020538E+03  0.17307590144E+03 -0.17455217268E+03  0.51204979934E+03  0.40000000000E+03 0. -1.
<mgrwt>
<rscale>  2 0.48137983E+03</rscale>
<asrwt>0</asrwt>
<pdfrwt beam="1">  1       21 0.86420618E-01 0.48137983E+03</pdfrwt>
<pdfrwt beam="2">  1       21 0.75494657E-01 0.48137983E+03</pdfrwt>
<totfact> 0.15337527E+03</totfact>
</mgrwt>
</event>
<event>
 4    1  0.4840996E-002  0.4087223E+03  0.7818608E-02  0.1040801E+00
         21   -1    0    0  503  502  0.00000000000E+00  0.00000000000E+00  0.24663390349E+03  0.24663390349E+03  0.00000000000E+00 0.  1.
         21   -1    0    0  501  503 -0.00000000000E+00 -0.00000000000E+00 -0.67737510586E+03  0.67737510586E+03  0.00000000000E+00 0.  1.
    9000005    1    1    2  501    0  0.62975575696E+02  0.55569908540E+02 -0.21184501976E+03  0.46036099994E+03  0.40000000000E+03 0.  1.
   -9000005    1    1    2    0  502 -0.62975575696E+02 -0.55569908540E+02 -0.21889618260E+03  0.46364800941E+03  0.40000000000E+03 0.  1.
<mgrwt>
<rscale>  2 0.40872232E+03</rscale>
<asrwt>0</asrwt>
<pdfrwt beam="1">  1       21 0.37943677E-01 0.40872232E+03</pdfrwt>
<pdfrwt beam="2">  1       21 0.10421156E+00 0.40872232E+03</pdfrwt>
<totfact> 0.44273787E+03</totfact>
</mgrwt>
</event>
<event>
 4    1  0.4840996E-002  0.6350785E+03  0.7818608E-02  0.9835188E-01
         21   -1    0    0  501  502  0.00000000000E+00  0.00000000000E+00  0.66607345516E+03  0.66607345516E+03  0.00000000000E+00 0. -1.
         21   -1    0    0  502  503 -0.00000000000E+00 -0.00000000000E+00 -0.62526351089E+03  0.62526351089E+03  0.00000000000E+00 0. -1.
    9000005    1    1    2  501    0 -0.39244339495E+02 -0.49171593654E+03  0.13512153577E+03  0.64929385478E+03  0.40000000000E+03 0. -1.
   -9000005    1    1    2    0  503  0.39244339495E+02  0.49171593654E+03 -0.94311591496E+02  0.64204311127E+03  0.40000000000E+03 0. -1.
<mgrwt>
<rscale>  2 0.63507848E+03</rscale>
<asrwt>0</asrwt>
<pdfrwt beam="1">  1       21 0.10247284E+00 0.63507848E+03</pdfrwt>
<pdfrwt beam="2">  1       21 0.96194386E-01 0.63507848E+03</pdfrwt>
<totfact> 0.54680101E+02</totfact>
</mgrwt>
</event>
<event>
 4    1  0.4840996E-002  0.4300631E+03  0.7818608E-02  0.1033840E+00
         21   -1    0    0  503  502  0.00000000000E+00  0.00000000000E+00  0.58741428948E+03  0.58741428948E+03  0.00000000000E+00 0. -1.
         21   -1    0    0  501  503 -0.00000000000E+00 -0.00000000000E+00 -0.40223620228E+03  0.40223620228E+03  0.00000000000E+00 0.  1.
    9000005    1    1    2  501    0  0.47862751370E+02  0.15054391019E+03 -0.13803438104E+03  0.45167222874E+03  0.40000000000E+03 0.  1.
   -9000005    1    1    2    0  502 -0.47862751370E+02 -0.15054391019E+03  0.32321246823E+03  0.53797826302E+03  0.40000000000E+03 0.  1.
<mgrwt>
<rscale>  2 0.43006315E+03</rscale>
<asrwt>0</asrwt>
<pdfrwt beam="1">  1       21 0.90371429E-01 0.43006315E+03</pdfrwt>
<pdfrwt beam="2">  1       21 0.61882493E-01 0.43006315E+03</pdfrwt>
<totfact> 0.21979897E+03</totfact>
</mgrwt>
</event>
<event>
 4    1  0.4840996E-002  0.4344360E+03  0.7818608E-02  0.1032468E+00
         21   -1    0    0  501  502  0.00000000000E+00  0.00000000000E+00  0.34192727774E+03  0.34192727774E+03  0.00000000000E+00 0.  1.
         21   -1    0    0  502  503 -0.00000000000E+00 -0.00000000000E+00 -0.63907621792E+03  0.63907621792E+03  0.00000000000E+00 0.  1.
    9000005    1    1    2  501    0 -0.13802391043E+03 -0.98407572486E+02  0.32509976189E+02  0.43565071872E+03  0.40000000000E+03 0.  1.
   -9000005    1    1    2    0  503  0.13802391043E+03  0.98407572486E+02 -0.32965891636E+03  0.54535277694E+03  0.40000000000E+03 0.  1.
<mgrwt>
<rscale>  2 0.43443601E+03</rscale>
<asrwt>0</asrwt>
<pdfrwt beam="1">  1       21 0.52604197E-01 0.43443601E+03</pdfrwt>
<pdfrwt beam="2">  1       21 0.98319417E-01 0.43443601E+03</pdfrwt>
<totfact> 0.25523694E+03</totfact>
</mgrwt>
</event>
<event>
 4    1  0.4840996E-002  0.4345948E+03  0.7818608E-02  0.1032418E+00
         21   -1    0    0  503  502  0.00000000000E+00  0.00000000000E+00  0.13812776742E+04  0.13812776742E+04  0.00000000000E+00 0. -1.
         21   -1    0    0  501  503 -0.00000000000E+00 -0.00000000000E+00 -0.41143562445E+03  0.41143562445E+03  0.00000000000E+00 0.  1.
    9000005    1    1    2  501    0 -0.16697323068E+03  0.31504838615E+02 -0.24749469071E+03  0.50012622062E+03  0.40000000000E+03 0.  1.
   -9000005    1    1    2    0  502  0.16697323068E+03 -0.31504838615E+02  0.12173367404E+04  0.12925870780E+04  0.40000000000E+03 0. -1.
<mgrwt>
<rscale>  2 0.43459477E+03</rscale>
<asrwt>0</asrwt>
<pdfrwt beam="1">  1       21 0.21250426E+00 0.43459477E+03</pdfrwt>
<pdfrwt beam="2">  1       21 0.63297789E-01 0.43459477E+03</pdfrwt>
<totfact> 0.21012834E+02</totfact>
</mgrwt>
</event>
<event>
 4    1  0.4840996E-002  0.4112975E+03  0.7818608E-02  0.1039936E+00
         21   -1    0    0  503  502  0.00000000000E+00  0.00000000000E+00  0.11992630252E+03  0.11992630252E+03  0.00000000000E+00 0.  1.
         21   -1    0    0  501  503 -0.00000000000E+00 -0.00000000000E+00 -0.17653440627E+04  0.17653440627E+04  0.00000000000E+00 0. -1.
    9000005    1    1    2  501    0 -0.53750174287E+02  0.79224601822E+02 -0.40013864584E+03  0.57382624083E+03  0.40000000000E+03 0.  1.
   -9000005    1    1    2    0  502  0.53750174287E+02 -0.79224601822E+02 -0.12452791143E+04  0.13114441244E+04  0.40000000000E+03 0. -1.
<mgrwt>
<rscale>  2 0.41129748E+03</rscale>
<asrwt>0</asrwt>
<pdfrwt beam="1">  1       21 0.18450202E-01 0.41129748E+03</pdfrwt>
<pdfrwt beam="2">  1       21 0.27159137E+00 0.41129748E+03</pdfrwt>
<totfact> 0.11127307E+03</totfact>
</mgrwt>
</event>
<event>
 4    1  0.4840996E-002  0.4070831E+03  0.7818608E-02  0.1041354E+00
         21   -1    0    0  503  502  0.00000000000E+00  0.00000000000E+00  0.12396982744E+04  0.12396982744E+04  0.00000000000E+00 0.  1.
         21   -1    0    0  501  503 -0.00000000000E+00 -0.00000000000E+00 -0.15770412578E+03  0.15770412578E+03  0.00000000000E+00 0.  1.
    9000005    1    1    2  501    0  0.47252106816E+02  0.59024565383E+02  0.26826325767E+03  0.48752624169E+03  0.40000000000E+03 0.  1.
   -9000005    1    1    2    0  502 -0.47252106816E+02 -0.59024565383E+02  0.81373089095E+03  0.90987615850E+03  0.40000000000E+03 0.  1.
<mgrwt>
<rscale>  2 0.40708311E+03</rscale>
<asrwt>0</asrwt>
<pdfrwt beam="1">  1       21 0.19072281E+00 0.40708311E+03</pdfrwt>
<pdfrwt beam="2">  1       21 0.24262174E-01 0.40708311E+03</pdfrwt>
<totfact> 0.21391962E+03</totfact>
</mgrwt>
</event>
<event>
 4    1  0.4840996E-002  0.9121599E+03  0.7818608E-02  0.9410507E-01
         21   -1    0    0  501  502  0.00000000000E+00  0.00000000000E+00  0.13189326557E+04  0.13189326557E+04  0.00000000000E+00 0.  1.
         21   -1    0    0  502  503 -0.00000000000E+00 -0.00000000000E+00 -0.19200349476E+04  0.19200349476E+04  0.00000000000E+00 0. -1.
    9000005    1    1    2  501    0  0.63009856330E+03  0.52441544452E+03  0.10264805717E+04  0.13732072393E+04  0.40000000000E+03 0.  1.
   -9000005    1    1    2    0  503 -0.63009856330E+03 -0.52441544452E+03 -0.16275828636E+04  0.18657603640E+04  0.40000000000E+03 0. -1.
<mgrwt>
<rscale>  2 0.91215994E+03</rscale>
<asrwt>0</asrwt>
<pdfrwt beam="1">  1       21 0.20291272E+00 0.91215994E+03</pdfrwt>
<pdfrwt beam="2">  1       21 0.29538999E+00 0.91215994E+03</pdfrwt>
<totfact> 0.25353403E+00</totfact>
</mgrwt>
</event>
<event>
 4    1  0.4840996E-002  0.4516583E+03  0.7818608E-02  0.1027229E+00
         21   -1    0    0  501  502  0.00000000000E+00  0.00000000000E+00  0.20818278417E+04  0.20818278417E+04  0.00000000000E+00 0. -1.
         21   -1    0    0  502  503 -0.00000000000E+00 -0.00000000000E+00 -0.99312815331E+02  0.99312815331E+02  0.00000000000E+00 0. -1.
    9000005    1    1    2  501    0  0.14290036350E+03 -0.15354057217E+03  0.86532320006E+03  0.97610422689E+03  0.40000000000E+03 0. -1.
   -9000005    1    1    2    0  503 -0.14290036350E+03  0.15354057217E+03  0.11171918263E+04  0.12050364301E+04  0.40000000000E+03 0. -1.
<mgrwt>
<rscale>  2 0.45165830E+03</rscale>
<asrwt>0</asrwt>
<pdfrwt beam="1">  1       21 0.32028117E+00 0.45165830E+03</pdfrwt>
<pdfrwt beam="2">  1       21 0.15278896E-01 0.45165830E+03</pdfrwt>
<totfact> 0.78929703E+02</totfact>
</mgrwt>
</event>
<event>
 4    1  0.4840996E-002  0.7087241E+03  0.7818608E-02  0.9702428E-01
         21   -1    0    0  501  502  0.00000000000E+00  0.00000000000E+00  0.17004970377E+04  0.17004970377E+04  0.00000000000E+00 0.  1.
         21   -1    0    0  502  503 -0.00000000000E+00 -0.00000000000E+00 -0.44566067884E+03  0.44566067884E+03  0.00000000000E+00 0. -1.
    9000005    1    1    2  501    0 -0.36270619411E+03 -0.45905777443E+03  0.12505552607E+04  0.14374207052E+04  0.40000000000E+03 0.  1.
   -9000005    1    1    2    0  503  0.36270619411E+03  0.45905777443E+03  0.42810981443E+01  0.70873701139E+03  0.40000000000E+03 0. -1.
<mgrwt>
<rscale>  2 0.70872408E+03</rscale>
<asrwt>0</asrwt>
<pdfrwt beam="1">  1       21 0.26161492E+00 0.70872408E+03</pdfrwt>
<pdfrwt beam="2">  1       21 0.68563182E-01 0.70872408E+03</pdfrwt>
<totfact> 0.75896503E+01</totfact>
</mgrwt>
</event>
<event>
 4    1  0.4840996E-002  0.4036376E+03  0.7818608E-02  0.1042527E+00
         21   -1    0    0  501  502  0.00000000000E+00  0.00000000000E+00  0.78520633857E+03  0.78520633857E+03  0.00000000000E+00 0. -1.
         21   -1    0    0  502  503 -0.00000000000E+00 -0.00000000000E+00 -0.20873739659E+03  0.20873739659E+03  0.00000000000E+00 0. -1.
    9000005    1    1    2  501    0 -0.43815448486E+02 -0.31678245689E+02  0.32663589148E+03  0.51924397963E+03  0.40000000000E+03 0. -1.
   -9000005    1    1    2    0  503  0.43815448486E+02  0.31678245689E+02  0.24983305051E+03  0.47469975553E+03  0.40000000000E+03 0. -1.
<mgrwt>
<rscale>  2 0.40363759E+03</rscale>
<asrwt>0</asrwt>
<pdfrwt beam="1">  1       21 0.12080097E+00 0.40363759E+03</pdfrwt>
<pdfrwt beam="2">  1       21 0.32113446E-01 0.40363759E+03</pdfrwt>
<totfact> 0.43026202E+03</totfact>
</mgrwt>
</event>
<event>
 4    1  0.4840996E-002  0.9289751E+03  0.7818608E-02  0.9390069E-01
         21   -1    0    0  501  502  0.00000000000E+00  0.00000000000E+00  0.15047869305E+04  0.15047869305E+04  0.00000000000E+00 0. -1.
         21   -1    0    0  502  503 -0.00000000000E+00 -0.00000000000E+00 -0.59811653709E+03  0.59811653709E+03  0.00000000000E+00 0.  1.
    9000005    1    1    2  501    0  0.36677224559E+03  0.75397134341E+03  0.66664639476E+03  0.11434212183E+04  0.40000000000E+03 0. -1.
   -9000005    1    1    2    0  503 -0.36677224559E+03 -0.75397134341E+03  0.24002399868E+03  0.95948224932E+03  0.40000000000E+03 0.  1.
<mgrwt>
<rscale>  2 0.92897506E+03</rscale>
<asrwt>0</asrwt>
<pdfrwt beam="1">  1       21 0.23150568E+00 0.92897506E+03</pdfrwt>
<pdfrwt beam="2">  1       21 0.92017930E-01 0.92897506E+03</pdfrwt>
<totfact> 0.55046521E+01</totfact>
</mgrwt>
</event>
<event>
 4    1  0.4840996E-002  0.4905569E+03  0.7818608E-02  0.1016274E+00
         21   -1    0    0  503  502  0.00000000000E+00  0.00000000000E+00  0.17111433095E+04  0.17111433095E+04  0.00000000000E+00 0. -1.
         21   -1    0    0  501  503 -0.00000000000E+00 -0.00000000000E+00 -0.14229627134E+03  0.14229627134E+03  0.00000000000E+00 0. -1.
    9000005    1    1    2  501    0 -0.20080189489E+03  0.20080993052E+03  0.68428098723E+03  0.84195397658E+03  0.40000000000E+03 0. -1.
   -9000005    1    1    2    0  502  0.20080189489E+03 -0.20080993052E+03  0.88456605094E+03  0.10114856043E+04  0.40000000000E+03 0. -1.
<mgrwt>
<rscale>  2 0.49055686E+03</rscale>
<asrwt>0</asrwt>
<pdfrwt beam="1">  1       21 0.26325280E+00 0.49055686E+03</pdfrwt>
<pdfrwt beam="2">  1       21 0.21891735E-01 0.49055686E+03</pdfrwt>
<totfact> 0.86660193E+02</totfact>
</mgrwt>
</event>
<event>
 4    1  0.4840996E-002  0.4161575E+03  0.7818608E-02  0.1038324E+00
         21   -1    0    0  501  502  0.00000000000E+00  0.00000000000E+00  0.15044323985E+03  0.15044323985E+03  0.00000000000E+00 0.  1.
         21   -1    0    0  502  503 -0.00000000000E+00 -0.00000000000E+00 -0.16323335359E+04  0.16323335359E+04  0.00000000000E+00 0.  1.
    9000005    1    1    2  501    0 -0.14876181242E+02 -0.11386740287E+03 -0.25699029486E+03  0.48911256154E+03  0.40000000000E+03 0.  1.
   -9000005    1    1    2    0  503  0.14876181242E+02  0.11386740287E+03 -0.12249000012E+04  0.12936642142E+04  0.40000000000E+03 0.  1.
<mgrwt>
<rscale>  2 0.41615753E+03</rscale>
<asrwt>0</asrwt>
<pdfrwt beam="1">  1       21 0.23145114E-01 0.41615753E+03</pdfrwt>
<pdfrwt beam="2">  1       21 0.25112823E+00 0.41615753E+03</pdfrwt>
<totfact> 0.95860624E+02</totfact>
</mgrwt>
</event>
<event>
 4    1  0.4840996E-002  0.4795976E+03  0.7818608E-02  0.1019246E+00
         21   -1    0    0  503  502  0.00000000000E+00  0.00000000000E+00  0.21060896161E+04  0.21060896161E+04  0.00000000000E+00 0.  1.
         21   -1    0    0  501  503 -0.00000000000E+00 -0.00000000000E+00 -0.11542365342E+03  0.11542365342E+03  0.00000000000E+00 0.  1.
    9000005    1    1    2  501    0 -0.18699584317E+03  0.18720692402E+03  0.12529740215E+04  0.13416250506E+04  0.40000000000E+03 0.  1.
   -9000005    1    1    2    0  502  0.18699584317E+03 -0.18720692402E+03  0.73769194120E+03  0.87988821896E+03  0.40000000000E+03 0.  1.
<mgrwt>
<rscale>  2 0.47959762E+03</rscale>
<asrwt>0</asrwt>
<pdfrwt beam="1">  1       21 0.32401376E+00 0.47959762E+03</pdfrwt>
<pdfrwt beam="2">  1       21 0.17757487E-01 0.47959762E+03</pdfrwt>
<totfact> 0.55682989E+02</totfact>
</mgrwt>
</event>
<event>
 4    1  0.4840996E-002  0.4169442E+03  0.7818608E-02  0.1038065E+00
         21   -1    0    0  501  502  0.00000000000E+00  0.00000000000E+00  0.16035999604E+03  0.16035999604E+03  0.00000000000E+00 0. -1.
         21   -1    0    0  502  503 -0.00000000000E+00 -0.00000000000E+00 -0.10937479621E+04  0.10937479621E+04  0.00000000000E+00 0. -1.
    9000005    1    1    2  501    0 -0.94317377374E+02  0.70332673873E+02 -0.52565968128E+03  0.67094005188E+03  0.40000000000E+03 0. -1.
   -9000005    1    1    2    0  503  0.94317377374E+02 -0.70332673873E+02 -0.40772828481E+03  0.58316790629E+03  0.40000000000E+03 0. -1.
<mgrwt>
<rscale>  2 0.41694418E+03</rscale>
<asrwt>0</asrwt>
<pdfrwt beam="1">  1       21 0.24670769E-01 0.41694418E+03</pdfrwt>
<pdfrwt beam="2">  1       21 0.16826892E+00 0.41694418E+03</pdfrwt>
<totfact> 0.29673561E+03</totfact>
</mgrwt>
</event>
<event>
 4    1  0.4840996E-002  0.6054121E+03  0.7818608E-02  0.9894241E-01
         21   -1    0    0  501  502  0.00000000000E+00  0.00000000000E+00  0.89786877019E+03  0.89786877019E+03  0.00000000000E+00 0. -1.
         21   -1    0    0  502  503 -0.00000000000E+00 -0.00000000000E+00 -0.56309222991E+03  0.56309222991E+03  0.00000000000E+00 0.  1.
    9000005    1    1    2  501    0 -0.10145619748E+03  0.44297900567E+03  0.55048834851E+03  0.81826718211E+03  0.40000000000E+03 0. -1.
   -9000005    1    1    2    0  503  0.10145619748E+03 -0.44297900567E+03 -0.21571180823E+03  0.64269381799E+03  0.40000000000E+03 0.  1.
<mgrwt>
<rscale>  2 0.60541206E+03</rscale>
<asrwt>0</asrwt>
<pdfrwt beam="1">  1       21 0.13813366E+00 0.60541206E+03</pdfrwt>
<pdfrwt beam="2">  1       21 0.86629574E-01 0.60541206E+03</pdfrwt>
<totfact> 0.33038538E+02</totfact>
</mgrwt>
</event>
<event>
 4    1  0.4840996E-002  0.4127192E+03  0.7818608E-02  0.1039462E+00
         21   -1    0    0  501  502  0.00000000000E+00  0.00000000000E+00  0.14331063438E+03  0.14331063438E+03  0.00000000000E+00 0. -1.
         21   -1    0    0  502  503 -0.00000000000E+00 -0.00000000000E+00 -0.11931892211E+04  0.11931892211E+04  0.00000000000E+00 0. -1.
    9000005    1    1    2  501    0 -0.97535317444E+02  0.28705800153E+02 -0.48343752151E+03  0.63564848644E+03  0.40000000000E+03 0. -1.
   -9000005    1    1    2    0  503  0.97535317444E+02 -0.28705800153E+02 -0.56644106518E+03  0.70085136900E+03  0.40000000000E+03 0. -1.
<mgrwt>
<rscale>  2 0.41271923E+03</rscale>
<asrwt>0</asrwt>
<pdfrwt beam="1">  1       21 0.22047791E-01 0.41271923E+03</pdfrwt>
<pdfrwt beam="2">  1       21 0.18356756E+00 0.41271923E+03</pdfrwt>
<totfact> 0.28732890E+03</totfact>
</mgrwt>
</event>
<event>
 4    1  0.4840996E-002  0.4463846E+03  0.7818608E-02  0.1028806E+00
         21   -1    0    0  501  502  0.00000000000E+00  0.00000000000E+00  0.20109453183E+04  0.20109453183E+04  0.00000000000E+00 0. -1.
         21   -1    0    0  502  503 -0.00000000000E+00 -0.00000000000E+00 -0.17697229331E+03  0.17697229331E+03  0.00000000000E+00 0.  1.
    9000005    1    1    2  501    0  0.14851602758E+03 -0.13115711812E+03  0.16427166227E+04  0.17022858463E+04  0.40000000000E+03 0. -1.
   -9000005    1    1    2    0  503 -0.14851602758E+03  0.13115711812E+03  0.19125640235E+03  0.48563176536E+03  0.40000000000E+03 0.  1.
<mgrwt>
<rscale>  2 0.44638459E+03</rscale>
<asrwt>0</asrwt>
<pdfrwt beam="1">  1       21 0.30937619E+00 0.44638459E+03</pdfrwt>
<pdfrwt beam="2">  1       21 0.27226508E-01 0.44638459E+03</pdfrwt>
<totfact> 0.30591109E+02</totfact>
</mgrwt>
</event>
<event>
 4    1  0.4840996E-002  0.5571045E+03  0.7818608E-02  0.9998628E-01
         21   -1    0    0  503  502  0.00000000000E+00  0.00000000000E+00  0.73861558563E+03  0.73861558563E+03  0.00000000000E+00 0. -1.
         21   -1    0    0  501  503 -0.00000000000E+00 -0.00000000000E+00 -0.44186750174E+03  0.44186750174E+03  0.00000000000E+00 0. -1.
    9000005    1    1    2  501    0 -0.37432137664E+03  0.10123674741E+03  0.17666594328E+02  0.55738449978E+03  0.40000000000E+03 0. -1.
   -9000005    1    1    2    0  502  0.37432137664E+03 -0.10123674741E+03  0.27908148956E+03  0.62309858759E+03  0.40000000000E+03 0. -1.
<mgrwt>
<rscale>  2 0.55710445E+03</rscale>
<asrwt>0</asrwt>
<pdfrwt beam="1">  1       21 0.11363317E+00 0.55710445E+03</pdfrwt>
<pdfrwt beam="2">  1       21 0.67979615E-01 0.55710445E+03</pdfrwt>
<totfact> 0.97389352E+02</totfact>
</mgrwt>
</event>
<event>
 4    1  0.4840996E-002  0.4060059E+03  0.7818608E-02  0.1041720E+00
         21   -1    0    0  501  502  0.00000000000E+00  0.00000000000E+00  0.18205147728E+03  0.18205147728E+03  0.00000000000E+00 0. -1.
         21   -1    0    0  502  503 -0.00000000000E+00 -0.00000000000E+00 -0.23811058412E+04  0.23811058412E+04  0.00000000000E+00 0. -1.
    9000005    1    1    2  501    0  0.30564277000E+02  0.62503123238E+02 -0.90630731787E+02  0.41599849157E+03  0.40000000000E+03 0. -1.
   -9000005    1    1    2    0  503 -0.30564277000E+02 -0.62503123238E+02 -0.21084236322E+04  0.21471588269E+04  0.40000000000E+03 0. -1.
<mgrwt>
<rscale>  2 0.40600593E+03</rscale>
<asrwt>0</asrwt>
<pdfrwt beam="1">  1       21 0.28007920E-01 0.40600593E+03</pdfrwt>
<pdfrwt beam="2">  1       21 0.36632396E+00 0.40600593E+03</pdfrwt>
<totfact> 0.13388906E+02</totfact>
</mgrwt>
</event>
<event>
 4    1  0.4840996E-002  0.4942899E+03  0.7818608E-02  0.1015280E+00
         21   -1    0    0  501  502  0.00000000000E+00  0.00000000000E+00  0.22625339104E+04  0.22625339104E+04  0.00000000000E+00 0.  1.
         21   -1    0    0  502  503 -0.00000000000E+00 -0.00000000000E+00 -0.13944020814E+03  0.13944020814E+03  0.00000000000E+00 0.  1.
    9000005    1    1    2  501    0 -0.20688271307E+03  0.20376964343E+03  0.16319501835E+04  0.17051639001E+04  0.40000000000E+03 0.  1.
   -9000005    1    1    2    0  503  0.20688271307E+03 -0.20376964343E+03  0.49114351868E+03  0.69681021842E+03  0.40000000000E+03 0.  1.
<mgrwt>
<rscale>  2 0.49428992E+03</rscale>
<asrwt>0</asrwt>
<pdfrwt beam="1">  1       21 0.34808211E+00 0.49428992E+03</pdfrwt>
<pdfrwt beam="2">  1       21 0.21452341E-01 0.49428992E+03</pdfrwt>
<totfact> 0.27480124E+02</totfact>
</mgrwt>
</event>
<event>
 4    1  0.4840996E-002  0.5349083E+03  0.7818608E-02  0.1005049E+00
         21   -1    0    0  501  502  0.00000000000E+00  0.00000000000E+00  0.44041960297E+03  0.44041960297E+03  0.00000000000E+00 0. -1.
         21   -1    0    0  502  503 -0.00000000000E+00 -0.00000000000E+00 -0.77758173595E+03  0.77758173595E+03  0.00000000000E+00 0.  1.
    9000005    1    1    2  501    0  0.23375881156E+03  0.26736444569E+03  0.78421673296E+02  0.54062638452E+03  0.40000000000E+03 0. -1.
   -9000005    1    1    2    0  503 -0.23375881156E+03 -0.26736444569E+03 -0.41558380628E+03  0.67737495440E+03  0.40000000000E+03 0.  1.
<mgrwt>
<rscale>  2 0.53490834E+03</rscale>
<asrwt>0</asrwt>
<pdfrwt beam="1">  1       21 0.67756863E-01 0.53490834E+03</pdfrwt>
<pdfrwt beam="2">  1       21 0.11962796E+00 0.53490834E+03</pdfrwt>
<totfact> 0.86816429E+02</totfact>
</mgrwt>
</event>
