<event>
 4    1  0.4703494E-002  0.4214920E+03  0.7818608E-02  0.1036582E+00
         21   -1    0    0  501  502  0.00000000000E+00  0.00000000000E+00  0.35750436129E+03  0.35750436129E+03  0.00000000000E+00 0. -1.
         21   -1    0    0  502  503 -0.00000000000E+00 -0.00000000000E+00 -0.55900241664E+03  0.55900241664E+03  0.00000000000E+00 0. -1.
    9000007    1    1    2  501    0  0.30304419299E+02  0.12937201498E+03  0.51951314498E+02  0.42468154559E+03  0.40000000000E+03 0. -1.
   -9000007    1    1    2    0  503 -0.30304419299E+02 -0.12937201498E+03 -0.25344936985E+03  0.49182523234E+03  0.40000000000E+03 0. -1.
<mgrwt>
<rscale>  2 0.42149196E+03</rscale>
<asrwt>0</asrwt>
<pdfrwt beam="1">  1       21 0.55000671E-01 0.42149196E+03</pdfrwt>
<pdfrwt beam="2">  1       21 0.86000372E-01 0.42149196E+03</pdfrwt>
<totfact> 0.32038641E+03</totfact>
</mgrwt>
</event>
<event>
 4    1  0.4703494E-002  0.4843360E+03  0.7818608E-02  0.1017950E+00
         21   -1    0    0  501  502  0.00000000000E+00  0.00000000000E+00  0.80265953666E+03  0.80265953666E+03  0.00000000000E+00 0. -1.
         21   -1    0    0  502  503 -0.00000000000E+00 -0.00000000000E+00 -0.46360605472E+03  0.46360605472E+03  0.00000000000E+00 0.  1.
    9000007    1    1    2  501    0  0.27165137272E+03  0.28051763833E+02 -0.21538705993E+03  0.53006882133E+03  0.40000000000E+03 0.  1.
   -9000007    1    1    2    0  503 -0.27165137272E+03 -0.28051763833E+02  0.55444054188E+03  0.73619677005E+03  0.40000000000E+03 0. -1.
<mgrwt>
<rscale>  2 0.48433601E+03</rscale>
<asrwt>0</asrwt>
<pdfrwt beam="1">  1       21 0.12348608E+00 0.48433601E+03</pdfrwt>
<pdfrwt beam="2">  1       21 0.71324009E-01 0.48433601E+03</pdfrwt>
<totfact> 0.72644725E+02</totfact>
</mgrwt>
</event>
<event>
 4    1  0.4703494E-002  0.5936062E+03  0.7818608E-02  0.9918761E-01
         21   -1    0    0  501  502  0.00000000000E+00  0.00000000000E+00  0.86350901211E+03  0.86350901211E+03  0.00000000000E+00 0.  1.
         21   -1    0    0  502  503 -0.00000000000E+00 -0.00000000000E+00 -0.60741435093E+03  0.60741435093E+03  0.00000000000E+00 0.  1.
    9000007    1    1    2  501    0 -0.10220477407E+03  0.42652368435E+03  0.54937924206E+03  0.80881754480E+03  0.40000000000E+03 0. -1.
   -9000007    1    1    2    0  503  0.10220477407E+03 -0.42652368435E+03 -0.29328458089E+03  0.66210581824E+03  0.40000000000E+03 0. -1.
<mgrwt>
<rscale>  2 0.59360616E+03</rscale>
<asrwt>0</asrwt>
<pdfrwt beam="1">  1       21 0.13284754E+00 0.59360616E+03</pdfrwt>
<pdfrwt beam="2">  1       21 0.93448361E-01 0.59360616E+03</pdfrwt>
<totfact> 0.30703829E+02</totfact>
</mgrwt>
</event>
<event>
 4    1  0.4703494E-002  0.4855502E+03  0.7818608E-02  0.1017621E+00
         21   -1    0    0  503  502  0.00000000000E+00  0.00000000000E+00  0.34111473317E+03  0.34111473317E+03  0.00000000000E+00 0.  1.
         21   -1    0    0  501  503 -0.00000000000E+00 -0.00000000000E+00 -0.74754690621E+03  0.74754690621E+03  0.00000000000E+00 0.  1.
    9000007    1    1    2  501    0 -0.71083879137E+02 -0.26590619957E+03 -0.35273587992E+03  0.60015133577E+03  0.40000000000E+03 0.  1.
   -9000007    1    1    2    0  502  0.71083879137E+02  0.26590619957E+03 -0.53696293122E+02  0.48851030361E+03  0.40000000000E+03 0.  1.
<mgrwt>
<rscale>  2 0.48555023E+03</rscale>
<asrwt>0</asrwt>
<pdfrwt beam="1">  1       21 0.52479191E-01 0.48555023E+03</pdfrwt>
<pdfrwt beam="2">  1       21 0.11500721E+00 0.48555023E+03</pdfrwt>
<totfact> 0.17101868E+03</totfact>
</mgrwt>
</event>
<event>
 4    1  0.4703494E-002  0.4107306E+03  0.7818608E-02  0.1040126E+00
         21   -1    0    0  501  502  0.00000000000E+00  0.00000000000E+00  0.19728930799E+03  0.19728930799E+03  0.00000000000E+00 0.  1.
         21   -1    0    0  502  503 -0.00000000000E+00 -0.00000000000E+00 -0.10765157636E+04  0.10765157636E+04  0.00000000000E+00 0.  1.
    9000007    1    1    2  501    0  0.84599962682E+02  0.39274122783E+02 -0.15075857879E+03  0.43752458158E+03  0.40000000000E+03 0.  1.
   -9000007    1    1    2    0  503 -0.84599962682E+02 -0.39274122783E+02 -0.72846787678E+03  0.83628048997E+03  0.40000000000E+03 0.  1.
<mgrwt>
<rscale>  2 0.41073058E+03</rscale>
<asrwt>0</asrwt>
<pdfrwt beam="1">  1       21 0.30352202E-01 0.41073058E+03</pdfrwt>
<pdfrwt beam="2">  1       21 0.16561781E+00 0.41073058E+03</pdfrwt>
<totfact> 0.20717179E+03</totfact>
</mgrwt>
</event>
<event>
 4    1  0.4703494E-002  0.4322764E+03  0.7818608E-02  0.1033143E+00
         21   -1    0    0  501  502  0.00000000000E+00  0.00000000000E+00  0.79111019793E+03  0.79111019793E+03  0.00000000000E+00 0.  1.
         21   -1    0    0  502  503 -0.00000000000E+00 -0.00000000000E+00 -0.36824168098E+03  0.36824168098E+03  0.00000000000E+00 0.  1.
    9000007    1    1    2  501    0 -0.16389806503E+03 -0.56218149862E+00  0.55854558776E+03  0.70628327559E+03  0.40000000000E+03 0. -1.
   -9000007    1    1    2    0  503  0.16389806503E+03  0.56218149862E+00 -0.13567707081E+03  0.45306860332E+03  0.40000000000E+03 0. -1.
<mgrwt>
<rscale>  2 0.43227641E+03</rscale>
<asrwt>0</asrwt>
<pdfrwt beam="1">  1       21 0.12170926E+00 0.43227641E+03</pdfrwt>
<pdfrwt beam="2">  1       21 0.56652566E-01 0.43227641E+03</pdfrwt>
<totfact> 0.12829654E+03</totfact>
</mgrwt>
</event>
<event>
 4    1  0.4703494E-002  0.5669402E+03  0.7818608E-02  0.9976473E-01
         21   -1    0    0  503  502  0.00000000000E+00  0.00000000000E+00  0.28626704742E+03  0.28626704742E+03  0.00000000000E+00 0.  1.
         21   -1    0    0  501  503 -0.00000000000E+00 -0.00000000000E+00 -0.23229413135E+04  0.23229413135E+04  0.00000000000E+00 0.  1.
    9000007    1    1    2  501    0  0.33934559295E+03  0.21509466067E+03 -0.19560621913E+04  0.20365658450E+04  0.40000000000E+03 0.  1.
   -9000007    1    1    2    0  502 -0.33934559295E+03 -0.21509466067E+03 -0.80612074759E+02  0.57264251598E+03  0.40000000000E+03 0.  1.
<mgrwt>
<rscale>  2 0.56694016E+03</rscale>
<asrwt>0</asrwt>
<pdfrwt beam="1">  1       21 0.44041085E-01 0.56694016E+03</pdfrwt>
<pdfrwt beam="2">  1       21 0.35737558E+00 0.56694016E+03</pdfrwt>
<totfact> 0.54778073E+01</totfact>
</mgrwt>
</event>
<event>
 4    1  0.4703494E-002  0.5353015E+03  0.7818608E-02  0.1004954E+00
         21   -1    0    0  503  502  0.00000000000E+00  0.00000000000E+00  0.42341695219E+03  0.42341695219E+03  0.00000000000E+00 0.  1.
         21   -1    0    0  501  503 -0.00000000000E+00 -0.00000000000E+00 -0.82983627329E+03  0.82983627329E+03  0.00000000000E+00 0. -1.
    9000007    1    1    2  501    0 -0.33687447680E+02  0.35413673088E+03 -0.47235070270E+03  0.71390675486E+03  0.40000000000E+03 0. -1.
   -9000007    1    1    2    0  502  0.33687447680E+02 -0.35413673088E+03  0.65931381598E+02  0.53934647062E+03  0.40000000000E+03 0.  1.
<mgrwt>
<rscale>  2 0.53530147E+03</rscale>
<asrwt>0</asrwt>
<pdfrwt beam="1">  1       21 0.65141070E-01 0.53530147E+03</pdfrwt>
<pdfrwt beam="2">  1       21 0.12766712E+00 0.53530147E+03</pdfrwt>
<totfact> 0.80170043E+02</totfact>
</mgrwt>
</event>
<event>
 4    1  0.4703494E-002  0.5266887E+03  0.7818608E-02  0.1007038E+00
         21   -1    0    0  503  502  0.00000000000E+00  0.00000000000E+00  0.68643872060E+03  0.68643872060E+03  0.00000000000E+00 0.  1.
         21   -1    0    0  501  503 -0.00000000000E+00 -0.00000000000E+00 -0.58817529388E+03  0.58817529388E+03  0.00000000000E+00 0.  1.
    9000007    1    1    2  501    0 -0.21688401766E+03 -0.26525899893E+03 -0.30738010681E+03  0.60982255099E+03  0.40000000000E+03 0.  1.
   -9000007    1    1    2    0  502  0.21688401766E+03  0.26525899893E+03  0.40564353354E+03  0.66479146349E+03  0.40000000000E+03 0.  1.
<mgrwt>
<rscale>  2 0.52668873E+03</rscale>
<asrwt>0</asrwt>
<pdfrwt beam="1">  1       21 0.10560596E+00 0.52668873E+03</pdfrwt>
<pdfrwt beam="2">  1       21 0.90488506E-01 0.52668873E+03</pdfrwt>
<totfact> 0.60972287E+02</totfact>
</mgrwt>
</event>
<event>
 4    1  0.4703494E-002  0.4387068E+03  0.7818608E-02  0.1031144E+00
         21   -1    0    0  503  502  0.00000000000E+00  0.00000000000E+00  0.69253079545E+03  0.69253079545E+03  0.00000000000E+00 0.  1.
         21   -1    0    0  501  503 -0.00000000000E+00 -0.00000000000E+00 -0.31537939859E+03  0.31537939859E+03  0.00000000000E+00 0.  1.
    9000007    1    1    2  501    0 -0.18006563941E+03 -0.63262095533E+01  0.14878316171E+02  0.43895901826E+03  0.40000000000E+03 0.  1.
   -9000007    1    1    2    0  502  0.18006563941E+03  0.63262095533E+01  0.36227308069E+03  0.56895117578E+03  0.40000000000E+03 0.  1.
<mgrwt>
<rscale>  2 0.43870680E+03</rscale>
<asrwt>0</asrwt>
<pdfrwt beam="1">  1       21 0.10654320E+00 0.43870680E+03</pdfrwt>
<pdfrwt beam="2">  1       21 0.48519908E-01 0.43870680E+03</pdfrwt>
<totfact> 0.24872457E+03</totfact>
</mgrwt>
</event>
<event>
 4    1  0.4703494E-002  0.4174024E+03  0.7818608E-02  0.1037915E+00
         21   -1    0    0  501  502  0.00000000000E+00  0.00000000000E+00  0.53857928339E+03  0.53857928339E+03  0.00000000000E+00 0.  1.
         21   -1    0    0  502  503 -0.00000000000E+00 -0.00000000000E+00 -0.45363213370E+03  0.45363213370E+03  0.00000000000E+00 0.  1.
    9000007    1    1    2  501    0 -0.11920215729E+03  0.39459444741E+01 -0.22325127562E+03  0.47335595153E+03  0.40000000000E+03 0.  1.
   -9000007    1    1    2    0  503  0.11920215729E+03 -0.39459444741E+01  0.30819842531E+03  0.51885546556E+03  0.40000000000E+03 0.  1.
<mgrwt>
<rscale>  2 0.41740235E+03</rscale>
<asrwt>0</asrwt>
<pdfrwt beam="1">  1       21 0.82858351E-01 0.41740235E+03</pdfrwt>
<pdfrwt beam="2">  1       21 0.69789559E-01 0.41740235E+03</pdfrwt>
<totfact> 0.20724017E+03</totfact>
</mgrwt>
</event>
<event>
 4    1  0.4703494E-002  0.5390156E+03  0.7818608E-02  0.1004069E+00
         21   -1    0    0  503  502  0.00000000000E+00  0.00000000000E+00  0.78595773230E+03  0.78595773230E+03  0.00000000000E+00 0.  1.
         21   -1    0    0  501  503 -0.00000000000E+00 -0.00000000000E+00 -0.51694750543E+03  0.51694750543E+03  0.00000000000E+00 0.  1.
    9000007    1    1    2  501    0 -0.17427607599E+03  0.31648951752E+03 -0.21322426467E+03  0.57965709898E+03  0.40000000000E+03 0.  1.
   -9000007    1    1    2    0  502  0.17427607599E+03 -0.31648951752E+03  0.48223449155E+03  0.72324813874E+03  0.40000000000E+03 0.  1.
<mgrwt>
<rscale>  2 0.53901555E+03</rscale>
<asrwt>0</asrwt>
<pdfrwt beam="1">  1       21 0.12091657E+00 0.53901555E+03</pdfrwt>
<pdfrwt beam="2">  1       21 0.79530386E-01 0.53901555E+03</pdfrwt>
<totfact> 0.58517887E+02</totfact>
</mgrwt>
</event>
<event>
 4    1  0.4703494E-002  0.4887639E+03  0.7818608E-02  0.1016754E+00
         21   -1    0    0  503  502  0.00000000000E+00  0.00000000000E+00  0.64333637035E+03  0.64333637035E+03  0.00000000000E+00 0.  1.
         21   -1    0    0  501  503 -0.00000000000E+00 -0.00000000000E+00 -0.40932233493E+03  0.40932233493E+03  0.00000000000E+00 0. -1.
    9000007    1    1    2  501    0 -0.96029072118E+02  0.26394813101E+03 -0.43344079707E+02  0.49068208425E+03  0.40000000000E+03 0. -1.
   -9000007    1    1    2    0  502  0.96029072118E+02 -0.26394813101E+03  0.27735811513E+03  0.56197662103E+03  0.40000000000E+03 0.  1.
<mgrwt>
<rscale>  2 0.48876395E+03</rscale>
<asrwt>0</asrwt>
<pdfrwt beam="1">  1       21 0.98974826E-01 0.48876395E+03</pdfrwt>
<pdfrwt beam="2">  1       21 0.62972667E-01 0.48876395E+03</pdfrwt>
<totfact> 0.16640764E+03</totfact>
</mgrwt>
</event>
<event>
 4    1  0.4703494E-002  0.4131494E+03  0.7818608E-02  0.1039319E+00
         21   -1    0    0  503  502  0.00000000000E+00  0.00000000000E+00  0.46986543454E+03  0.46986543454E+03  0.00000000000E+00 0.  1.
         21   -1    0    0  501  503 -0.00000000000E+00 -0.00000000000E+00 -0.38714140021E+03  0.38714140021E+03  0.00000000000E+00 0. -1.
    9000007    1    1    2  501    0 -0.98507507185E+01  0.10293390741E+03  0.14774521262E+03  0.43877223526E+03  0.40000000000E+03 0.  1.
   -9000007    1    1    2    0  502  0.98507507185E+01 -0.10293390741E+03 -0.65021178296E+02  0.41823459949E+03  0.40000000000E+03 0. -1.
<mgrwt>
<rscale>  2 0.41314940E+03</rscale>
<asrwt>0</asrwt>
<pdfrwt beam="1">  1       21 0.72286990E-01 0.41314940E+03</pdfrwt>
<pdfrwt beam="2">  1       21 0.59560215E-01 0.41314940E+03</pdfrwt>
<totfact> 0.40315683E+03</totfact>
</mgrwt>
</event>
<event>
 4    1  0.4703494E-002  0.4128275E+03  0.7818608E-02  0.1039426E+00
         21   -1    0    0  503  502  0.00000000000E+00  0.00000000000E+00  0.33077151379E+03  0.33077151379E+03  0.00000000000E+00 0. -1.
         21   -1    0    0  501  503 -0.00000000000E+00 -0.00000000000E+00 -0.53906606765E+03  0.53906606765E+03  0.00000000000E+00 0.  1.
    9000007    1    1    2  501    0 -0.10030457273E+03  0.19119310925E+02 -0.19558338903E+03  0.45681442340E+03  0.40000000000E+03 0.  1.
   -9000007    1    1    2    0  502  0.10030457273E+03 -0.19119310925E+02 -0.12711164829E+02  0.41302315803E+03  0.40000000000E+03 0. -1.
<mgrwt>
<rscale>  2 0.41282751E+03</rscale>
<asrwt>0</asrwt>
<pdfrwt beam="1">  1       21 0.50887925E-01 0.41282751E+03</pdfrwt>
<pdfrwt beam="2">  1       21 0.82933241E-01 0.41282751E+03</pdfrwt>
<totfact> 0.41319875E+03</totfact>
</mgrwt>
</event>
<event>
 4    1  0.4703494E-002  0.5418175E+03  0.7818608E-02  0.1003406E+00
         21   -1    0    0  503  502  0.00000000000E+00  0.00000000000E+00  0.11209655264E+04  0.11209655264E+04  0.00000000000E+00 0.  1.
         21   -1    0    0  501  503 -0.00000000000E+00 -0.00000000000E+00 -0.29732236710E+03  0.29732236710E+03  0.00000000000E+00 0. -1.
    9000007    1    1    2  501    0 -0.33564595079E+03 -0.14459604984E+03  0.65663741048E+03  0.85131598760E+03  0.40000000000E+03 0.  1.
   -9000007    1    1    2    0  502  0.33564595079E+03  0.14459604984E+03  0.16700574879E+03  0.56697190587E+03  0.40000000000E+03 0. -1.
<mgrwt>
<rscale>  2 0.54181752E+03</rscale>
<asrwt>0</asrwt>
<pdfrwt beam="1">  1       21 0.17245623E+00 0.54181752E+03</pdfrwt>
<pdfrwt beam="2">  1       21 0.45741903E-01 0.54181752E+03</pdfrwt>
<totfact> 0.75718002E+02</totfact>
</mgrwt>
</event>
<event>
 4    1  0.4703494E-002  0.5411313E+03  0.7818608E-02  0.1003568E+00
         21   -1    0    0  501  502  0.00000000000E+00  0.00000000000E+00  0.29254115480E+03  0.29254115480E+03  0.00000000000E+00 0.  1.
         21   -1    0    0  502  503 -0.00000000000E+00 -0.00000000000E+00 -0.12712763101E+04  0.12712763101E+04  0.00000000000E+00 0.  1.
    9000007    1    1    2  501    0 -0.35593281272E+03  0.78325497174E+02 -0.12881441378E+03  0.55625192483E+03  0.40000000000E+03 0.  1.
   -9000007    1    1    2    0  503  0.35593281272E+03 -0.78325497174E+02 -0.84992074151E+03  0.10075655401E+04  0.40000000000E+03 0.  1.
<mgrwt>
<rscale>  2 0.54113127E+03</rscale>
<asrwt>0</asrwt>
<pdfrwt beam="1">  1       21 0.45006333E-01 0.54113127E+03</pdfrwt>
<pdfrwt beam="2">  1       21 0.19558097E+00 0.54113127E+03</pdfrwt>
<totfact> 0.53928399E+02</totfact>
</mgrwt>
</event>
<event>
 4    1  0.4703494E-002  0.5425536E+03  0.7818608E-02  0.1003232E+00
         21   -1    0    0  501  502  0.00000000000E+00  0.00000000000E+00  0.67248570014E+03  0.67248570014E+03  0.00000000000E+00 0.  1.
         21   -1    0    0  502  503 -0.00000000000E+00 -0.00000000000E+00 -0.43834638977E+03  0.43834638977E+03  0.00000000000E+00 0.  1.
    9000007    1    1    2  501    0  0.59077269379E+02 -0.36176544366E+03  0.96171777798E+02  0.55101122568E+03  0.40000000000E+03 0.  1.
   -9000007    1    1    2    0  503 -0.59077269379E+02  0.36176544366E+03  0.13796753257E+03  0.55982086423E+03  0.40000000000E+03 0.  1.
<mgrwt>
<rscale>  2 0.54255355E+03</rscale>
<asrwt>0</asrwt>
<pdfrwt beam="1">  1       21 0.10345934E+00 0.54255355E+03</pdfrwt>
<pdfrwt beam="2">  1       21 0.67437906E-01 0.54255355E+03</pdfrwt>
<totfact> 0.12582968E+03</totfact>
</mgrwt>
</event>
<event>
 4    1  0.4703494E-002  0.5051340E+03  0.7818608E-02  0.1012447E+00
         21   -1    0    0  501  502  0.00000000000E+00  0.00000000000E+00  0.16733843824E+03  0.16733843824E+03  0.00000000000E+00 0. -1.
         21   -1    0    0  502  503 -0.00000000000E+00 -0.00000000000E+00 -0.16403389727E+04  0.16403389727E+04  0.00000000000E+00 0. -1.
    9000007    1    1    2  501    0 -0.30572021781E+03  0.41177124283E+02 -0.49664049163E+03  0.70838703056E+03  0.40000000000E+03 0. -1.
   -9000007    1    1    2    0  503  0.30572021781E+03 -0.41177124283E+02 -0.97636004283E+03  0.10992903804E+04  0.40000000000E+03 0. -1.
<mgrwt>
<rscale>  2 0.50513405E+03</rscale>
<asrwt>0</asrwt>
<pdfrwt beam="1">  1       21 0.25744374E-01 0.50513405E+03</pdfrwt>
<pdfrwt beam="2">  1       21 0.25235985E+00 0.50513405E+03</pdfrwt>
<totfact> 0.73306548E+02</totfact>
</mgrwt>
</event>
<event>
 4    1  0.4703494E-002  0.4259043E+03  0.7818608E-02  0.1035162E+00
         21   -1    0    0  501  502  0.00000000000E+00  0.00000000000E+00  0.88952253409E+03  0.88952253409E+03  0.00000000000E+00 0. -1.
         21   -1    0    0  502  503 -0.00000000000E+00 -0.00000000000E+00 -0.32205367680E+03  0.32205367680E+03  0.00000000000E+00 0. -1.
    9000007    1    1    2  501    0 -0.49046927880E+02  0.13780024532E+03  0.65062548064E+03  0.77762974789E+03  0.40000000000E+03 0. -1.
   -9000007    1    1    2    0  503  0.49046927880E+02 -0.13780024532E+03 -0.83156623347E+02  0.43394646300E+03  0.40000000000E+03 0. -1.
<mgrwt>
<rscale>  2 0.42590434E+03</rscale>
<asrwt>0</asrwt>
<pdfrwt beam="1">  1       21 0.13684962E+00 0.42590434E+03</pdfrwt>
<pdfrwt beam="2">  1       21 0.49546720E-01 0.42590434E+03</pdfrwt>
<totfact> 0.12660763E+03</totfact>
</mgrwt>
</event>
<event>
 4    1  0.4703494E-002  0.4037081E+03  0.7818608E-02  0.1042503E+00
         21   -1    0    0  503  502  0.00000000000E+00  0.00000000000E+00  0.76181778205E+03  0.76181778205E+03  0.00000000000E+00 0. -1.
         21   -1    0    0  501  503 -0.00000000000E+00 -0.00000000000E+00 -0.35305628271E+03  0.35305628271E+03  0.00000000000E+00 0. -1.
    9000007    1    1    2  501    0 -0.43693558955E+02 -0.32727107266E+02 -0.14553959236E+03  0.42914096004E+03  0.40000000000E+03 0. -1.
   -9000007    1    1    2    0  502  0.43693558955E+02  0.32727107266E+02  0.55430109170E+03  0.68573310472E+03  0.40000000000E+03 0. -1.
<mgrwt>
<rscale>  2 0.40370805E+03</rscale>
<asrwt>0</asrwt>
<pdfrwt beam="1">  1       21 0.11720274E+00 0.40370805E+03</pdfrwt>
<pdfrwt beam="2">  1       21 0.54316351E-01 0.40370805E+03</pdfrwt>
<totfact> 0.15650955E+03</totfact>
</mgrwt>
</event>
<event>
 4    1  0.4703494E-002  0.4649005E+03  0.7818608E-02  0.1023369E+00
         21   -1    0    0  503  502  0.00000000000E+00  0.00000000000E+00  0.25186471491E+03  0.25186471491E+03  0.00000000000E+00 0. -1.
         21   -1    0    0  501  503 -0.00000000000E+00 -0.00000000000E+00 -0.10785057729E+04  0.10785057729E+04  0.00000000000E+00 0. -1.
    9000007    1    1    2  501    0 -0.48711177322E+01  0.23687280413E+03 -0.71400716995E+03  0.85202035883E+03  0.40000000000E+03 0. -1.
   -9000007    1    1    2    0  502  0.48711177322E+01 -0.23687280413E+03 -0.11263388800E+03  0.47835012893E+03  0.40000000000E+03 0. -1.
<mgrwt>
<rscale>  2 0.46490048E+03</rscale>
<asrwt>0</asrwt>
<pdfrwt beam="1">  1       21 0.38748418E-01 0.46490048E+03</pdfrwt>
<pdfrwt beam="2">  1       21 0.16592397E+00 0.46490048E+03</pdfrwt>
<totfact> 0.12303001E+03</totfact>
</mgrwt>
</event>
<event>
 4    1  0.4703494E-002  0.4022771E+03  0.7818608E-02  0.1042994E+00
         21   -1    0    0  503  502  0.00000000000E+00  0.00000000000E+00  0.26698725346E+03  0.26698725346E+03  0.00000000000E+00 0.  1.
         21   -1    0    0  501  503 -0.00000000000E+00 -0.00000000000E+00 -0.12283338483E+04  0.12283338483E+04  0.00000000000E+00 0.  1.
    9000007    1    1    2  501    0 -0.17985906662E+02  0.38773414959E+02 -0.10128003833E+04  0.10897667122E+04  0.40000000000E+03 0.  1.
   -9000007    1    1    2    0  502  0.17985906662E+02 -0.38773414959E+02  0.51453788491E+02  0.40555438957E+03  0.40000000000E+03 0.  1.
<mgrwt>
<rscale>  2 0.40227711E+03</rscale>
<asrwt>0</asrwt>
<pdfrwt beam="1">  1       21 0.41074963E-01 0.40227711E+03</pdfrwt>
<pdfrwt beam="2">  1       21 0.18897443E+00 0.40227711E+03</pdfrwt>
<totfact> 0.77072530E+02</totfact>
</mgrwt>
</event>
<event>
 4    1  0.4703494E-002  0.4957260E+03  0.7818608E-02  0.1014901E+00
         21   -1    0    0  503  502  0.00000000000E+00  0.00000000000E+00  0.23218301527E+04  0.23218301527E+04  0.00000000000E+00 0. -1.
         21   -1    0    0  501  503 -0.00000000000E+00 -0.00000000000E+00 -0.19770293237E+03  0.19770293237E+03  0.00000000000E+00 0.  1.
    9000007    1    1    2  501    0  0.29271671318E+03 -0.78240411223E+01  0.20334307615E+03  0.53581031757E+03  0.40000000000E+03 0.  1.
   -9000007    1    1    2    0  502 -0.29271671318E+03  0.78240411223E+01  0.19207841442E+04  0.19837227675E+04  0.40000000000E+03 0. -1.
<mgrwt>
<rscale>  2 0.49572602E+03</rscale>
<asrwt>0</asrwt>
<pdfrwt beam="1">  1       21 0.35720462E+00 0.49572602E+03</pdfrwt>
<pdfrwt beam="2">  1       21 0.30415837E-01 0.49572602E+03</pdfrwt>
<totfact> 0.12186639E+02</totfact>
</mgrwt>
</event>
<event>
 4    1  0.4703494E-002  0.5143497E+03  0.7818608E-02  0.1010100E+00
         21   -1    0    0  501  502  0.00000000000E+00  0.00000000000E+00  0.41295804658E+03  0.41295804658E+03  0.00000000000E+00 0.  1.
         21   -1    0    0  502  503 -0.00000000000E+00 -0.00000000000E+00 -0.67979473106E+03  0.67979473106E+03  0.00000000000E+00 0.  1.
    9000007    1    1    2  501    0 -0.18240818328E+03  0.26698855618E+03 -0.22830962963E+01  0.51435478708E+03  0.40000000000E+03 0.  1.
   -9000007    1    1    2    0  503  0.18240818328E+03 -0.26698855618E+03 -0.26455358819E+03  0.57839799056E+03  0.40000000000E+03 0.  1.
<mgrwt>
<rscale>  2 0.51434972E+03</rscale>
<asrwt>0</asrwt>
<pdfrwt beam="1">  1       21 0.63532008E-01 0.51434972E+03</pdfrwt>
<pdfrwt beam="2">  1       21 0.10458380E+00 0.51434972E+03</pdfrwt>
<totfact> 0.14130231E+03</totfact>
</mgrwt>
</event>
<event>
 4    1  0.4703494E-002  0.4869744E+03  0.7818608E-02  0.1017236E+00
         21   -1    0    0  503  502  0.00000000000E+00  0.00000000000E+00  0.27026985612E+03  0.27026985612E+03  0.00000000000E+00 0. -1.
         21   -1    0    0  501  503 -0.00000000000E+00 -0.00000000000E+00 -0.10090062836E+04  0.10090062836E+04  0.00000000000E+00 0. -1.
    9000007    1    1    2  501    0  0.27662495822E+03 -0.24953546526E+02 -0.60034538032E+03  0.77301916061E+03  0.40000000000E+03 0. -1.
   -9000007    1    1    2    0  502 -0.27662495822E+03  0.24953546526E+02 -0.13839104719E+03  0.50625697915E+03  0.40000000000E+03 0. -1.
<mgrwt>
<rscale>  2 0.48697438E+03</rscale>
<asrwt>0</asrwt>
<pdfrwt beam="1">  1       21 0.41579978E-01 0.48697438E+03</pdfrwt>
<pdfrwt beam="2">  1       21 0.15523173E+00 0.48697438E+03</pdfrwt>
<totfact> 0.12699636E+03</totfact>
</mgrwt>
</event>
<event>
 4    1  0.4703494E-002  0.5858158E+03  0.7818608E-02  0.9935279E-01
         21   -1    0    0  503  502  0.00000000000E+00  0.00000000000E+00  0.44536410237E+03  0.44536410237E+03  0.00000000000E+00 0. -1.
         21   -1    0    0  501  503 -0.00000000000E+00 -0.00000000000E+00 -0.77169909869E+03  0.77169909869E+03  0.00000000000E+00 0.  1.
    9000007    1    1    2  501    0 -0.15909195329E+03 -0.39732850174E+03 -0.18653744642E+03  0.61479785850E+03  0.40000000000E+03 0.  1.
   -9000007    1    1    2    0  502  0.15909195329E+03  0.39732850174E+03 -0.13979754990E+03  0.60226534257E+03  0.40000000000E+03 0. -1.
<mgrwt>
<rscale>  2 0.58581583E+03</rscale>
<asrwt>0</asrwt>
<pdfrwt beam="1">  1       21 0.68517555E-01 0.58581583E+03</pdfrwt>
<pdfrwt beam="2">  1       21 0.11872294E+00 0.58581583E+03</pdfrwt>
<totfact> 0.84856062E+02</totfact>
</mgrwt>
</event>
<event>
 4    1  0.4703494E-002  0.4178507E+03  0.7818608E-02  0.1037768E+00
         21   -1    0    0  501  502  0.00000000000E+00  0.00000000000E+00  0.47162646876E+03  0.47162646876E+03  0.00000000000E+00 0. -1.
         21   -1    0    0  502  503 -0.00000000000E+00 -0.00000000000E+00 -0.55570264585E+03  0.55570264585E+03  0.00000000000E+00 0. -1.
    9000007    1    1    2  501    0  0.12033211125E+03  0.10925256576E+02  0.25473589665E+03  0.48937670079E+03  0.40000000000E+03 0. -1.
   -9000007    1    1    2    0  503 -0.12033211125E+03 -0.10925256576E+02 -0.33881207374E+03  0.53795241382E+03  0.40000000000E+03 0. -1.
<mgrwt>
<rscale>  2 0.41785066E+03</rscale>
<asrwt>0</asrwt>
<pdfrwt beam="1">  1       21 0.72557919E-01 0.41785066E+03</pdfrwt>
<pdfrwt beam="2">  1       21 0.85492714E-01 0.41785066E+03</pdfrwt>
<totfact> 0.17644846E+03</totfact>
</mgrwt>
</event>
<event>
 4    1  0.4703494E-002  0.4082877E+03  0.7818608E-02  0.1040947E+00
         21   -1    0    0  503  502  0.00000000000E+00  0.00000000000E+00  0.14176852062E+03  0.14176852062E+03  0.00000000000E+00 0.  1.
         21   -1    0    0  501  503 -0.00000000000E+00 -0.00000000000E+00 -0.12251199592E+04  0.12251199592E+04  0.00000000000E+00 0.  1.
    9000007    1    1    2  501    0  0.81565948984E+02 -0.67687889644E+01 -0.40462056216E+03  0.57481877132E+03  0.40000000000E+03 0.  1.
   -9000007    1    1    2    0  502 -0.81565948984E+02  0.67687889644E+01 -0.67873087646E+03  0.79206970855E+03  0.40000000000E+03 0.  1.
<mgrwt>
<rscale>  2 0.40828767E+03</rscale>
<asrwt>0</asrwt>
<pdfrwt beam="1">  1       21 0.21810541E-01 0.40828767E+03</pdfrwt>
<pdfrwt beam="2">  1       21 0.18848000E+00 0.40828767E+03</pdfrwt>
<totfact> 0.27187925E+03</totfact>
</mgrwt>
</event>
<event>
 4    1  0.4703494E-002  0.4538436E+03  0.7818608E-02  0.1026582E+00
         21   -1    0    0  501  502  0.00000000000E+00  0.00000000000E+00  0.37642820387E+03  0.37642820387E+03  0.00000000000E+00 0. -1.
         21   -1    0    0  502  503 -0.00000000000E+00 -0.00000000000E+00 -0.63829724587E+03  0.63829724587E+03  0.00000000000E+00 0. -1.
    9000007    1    1    2  501    0 -0.80506774823E+02 -0.19872763026E+03  0.60758892772E+02  0.45789262374E+03  0.40000000000E+03 0. -1.
   -9000007    1    1    2    0  503  0.80506774823E+02  0.19872763026E+03 -0.32262793477E+03  0.55683282601E+03  0.40000000000E+03 0. -1.
<mgrwt>
<rscale>  2 0.45384360E+03</rscale>
<asrwt>0</asrwt>
<pdfrwt beam="1">  1       21 0.57912031E-01 0.45384360E+03</pdfrwt>
<pdfrwt beam="2">  1       21 0.98199576E-01 0.45384360E+03</pdfrwt>
<totfact> 0.20648967E+03</totfact>
</mgrwt>
</event>
<event>
 4    1  0.4703494E-002  0.6280427E+03  0.7818608E-02  0.9848876E-01
         21   -1    0    0  501  502  0.00000000000E+00  0.00000000000E+00  0.70725090211E+03  0.70725090211E+03  0.00000000000E+00 0. -1.
         21   -1    0    0  502  503 -0.00000000000E+00 -0.00000000000E+00 -0.55906487162E+03  0.55906487162E+03  0.00000000000E+00 0. -1.
    9000007    1    1    2  501    0 -0.33940198512E+03  0.34531715487E+03  0.42870598663E+02  0.62950419632E+03  0.40000000000E+03 0. -1.
   -9000007    1    1    2    0  503  0.33940198512E+03 -0.34531715487E+03  0.10531543182E+03  0.63681157742E+03  0.40000000000E+03 0. -1.
<mgrwt>
<rscale>  2 0.62804271E+03</rscale>
<asrwt>0</asrwt>
<pdfrwt beam="1">  1       21 0.10880783E+00 0.62804271E+03</pdfrwt>
<pdfrwt beam="2">  1       21 0.86009980E-01 0.62804271E+03</pdfrwt>
<totfact> 0.61711520E+02</totfact>
</mgrwt>
</event>
<event>
 4    1  0.4703494E-002  0.4142189E+03  0.7818608E-02  0.1038964E+00
         21   -1    0    0  501  502  0.00000000000E+00  0.00000000000E+00  0.12897072123E+04  0.12897072123E+04  0.00000000000E+00 0.  1.
         21   -1    0    0  502  503 -0.00000000000E+00 -0.00000000000E+00 -0.21704896583E+03  0.21704896583E+03  0.00000000000E+00 0.  1.
    9000007    1    1    2  501    0 -0.66916545036E+02 -0.84258492704E+02  0.67615446746E+02  0.41970128214E+03  0.40000000000E+03 0.  1.
   -9000007    1    1    2    0  503  0.66916545036E+02  0.84258492704E+02  0.10050427997E+04  0.10870548960E+04  0.40000000000E+03 0.  1.
<mgrwt>
<rscale>  2 0.41421892E+03</rscale>
<asrwt>0</asrwt>
<pdfrwt beam="1">  1       21 0.19841649E+00 0.41421892E+03</pdfrwt>
<pdfrwt beam="2">  1       21 0.33392149E-01 0.41421892E+03</pdfrwt>
<totfact> 0.10079945E+03</totfact>
</mgrwt>
</event>
<event>
 4    1  0.4703494E-002  0.4018001E+03  0.7818608E-02  0.1043158E+00
         21   -1    0    0  501  502  0.00000000000E+00  0.00000000000E+00  0.95166334043E+03  0.95166334043E+03  0.00000000000E+00 0.  1.
         21   -1    0    0  502  503 -0.00000000000E+00 -0.00000000000E+00 -0.23550740371E+03  0.23550740371E+03  0.00000000000E+00 0.  1.
    9000007    1    1    2  501    0 -0.17999542018E+02 -0.33456501912E+02  0.67198804789E+03  0.78295035445E+03  0.40000000000E+03 0.  1.
   -9000007    1    1    2    0  503  0.17999542018E+02  0.33456501912E+02  0.44167888840E+02  0.40422038969E+03  0.40000000000E+03 0.  1.
<mgrwt>
<rscale>  2 0.40180010E+03</rscale>
<asrwt>0</asrwt>
<pdfrwt beam="1">  1       21 0.14640974E+00 0.40180010E+03</pdfrwt>
<pdfrwt beam="2">  1       21 0.36231909E-01 0.40180010E+03</pdfrwt>
<totfact> 0.20455410E+03</totfact>
</mgrwt>
</event>
<event>
 4    1  0.4703494E-002  0.4931041E+03  0.7818608E-02  0.1015595E+00
         21   -1    0    0  501  502  0.00000000000E+00  0.00000000000E+00  0.97832957290E+03  0.97832957290E+03  0.00000000000E+00 0. -1.
         21   -1    0    0  502  503 -0.00000000000E+00 -0.00000000000E+00 -0.28672600353E+03  0.28672600353E+03  0.00000000000E+00 0.  1.
    9000007    1    1    2  501    0 -0.26712271866E+03 -0.10861463075E+03  0.11496138587E+03  0.50632776448E+03  0.40000000000E+03 0.  1.
   -9000007    1    1    2    0  503  0.26712271866E+03  0.10861463075E+03  0.57664218350E+03  0.75872781195E+03  0.40000000000E+03 0. -1.
<mgrwt>
<rscale>  2 0.49310413E+03</rscale>
<asrwt>0</asrwt>
<pdfrwt beam="1">  1       21 0.15051224E+00 0.49310413E+03</pdfrwt>
<pdfrwt beam="2">  1       21 0.44111693E-01 0.49310413E+03</pdfrwt>
<totfact> 0.12189414E+03</totfact>
</mgrwt>
</event>
<event>
 4    1  0.4703494E-002  0.5326259E+03  0.7818608E-02  0.1005597E+00
         21   -1    0    0  501  502  0.00000000000E+00  0.00000000000E+00  0.35226634276E+03  0.35226634276E+03  0.00000000000E+00 0. -1.
         21   -1    0    0  502  503 -0.00000000000E+00 -0.00000000000E+00 -0.13830801587E+04  0.13830801587E+04  0.00000000000E+00 0. -1.
    9000007    1    1    2  501    0  0.32736496859E+03  0.12853995949E+03  0.45386501123E+02  0.53455615078E+03  0.40000000000E+03 0. -1.
   -9000007    1    1    2    0  503 -0.32736496859E+03 -0.12853995949E+03 -0.10762003171E+04  0.12007903507E+04  0.40000000000E+03 0. -1.
<mgrwt>
<rscale>  2 0.53262589E+03</rscale>
<asrwt>0</asrwt>
<pdfrwt beam="1">  1       21 0.54194823E-01 0.53262589E+03</pdfrwt>
<pdfrwt beam="2">  1       21 0.21278156E+00 0.53262589E+03</pdfrwt>
<totfact> 0.27982547E+02</totfact>
</mgrwt>
</event>
<event>
 4    1  0.4703494E-002  0.4658474E+03  0.7818608E-02  0.1023099E+00
         21   -1    0    0  501  502  0.00000000000E+00  0.00000000000E+00  0.89726863981E+03  0.89726863981E+03  0.00000000000E+00 0.  1.
         21   -1    0    0  502  503 -0.00000000000E+00 -0.00000000000E+00 -0.25912093055E+03  0.25912093055E+03  0.00000000000E+00 0.  1.
    9000007    1    1    2  501    0 -0.40346494431E+02 -0.23534220016E+03  0.46830155672E+03  0.66054533442E+03  0.40000000000E+03 0.  1.
   -9000007    1    1    2    0  503  0.40346494431E+02  0.23534220016E+03  0.16984615253E+03  0.49584423595E+03  0.40000000000E+03 0.  1.
<mgrwt>
<rscale>  2 0.46584739E+03</rscale>
<asrwt>0</asrwt>
<pdfrwt beam="1">  1       21 0.13804133E+00 0.46584739E+03</pdfrwt>
<pdfrwt beam="2">  1       21 0.39864759E-01 0.46584739E+03</pdfrwt>
<totfact> 0.19181754E+03</totfact>
</mgrwt>
</event>
<event>
 4    1  0.4703494E-002  0.4085487E+03  0.7818608E-02  0.1040859E+00
         21   -1    0    0  503  502  0.00000000000E+00  0.00000000000E+00  0.29662052686E+03  0.29662052686E+03  0.00000000000E+00 0. -1.
         21   -1    0    0  501  503 -0.00000000000E+00 -0.00000000000E+00 -0.70427933068E+03  0.70427933068E+03  0.00000000000E+00 0. -1.
    9000007    1    1    2  501    0 -0.35850655648E+02 -0.75011657802E+02 -0.42820169417E+03  0.59183503546E+03  0.40000000000E+03 0. -1.
   -9000007    1    1    2    0  502  0.35850655648E+02  0.75011657802E+02  0.20542890345E+02  0.40906482208E+03  0.40000000000E+03 0. -1.
<mgrwt>
<rscale>  2 0.40854867E+03</rscale>
<asrwt>0</asrwt>
<pdfrwt beam="1">  1       21 0.45633928E-01 0.40854867E+03</pdfrwt>
<pdfrwt beam="2">  1       21 0.10835066E+00 0.40854867E+03</pdfrwt>
<totfact> 0.27469863E+03</totfact>
</mgrwt>
</event>
<event>
 4    1  0.4703494E-002  0.4095821E+03  0.7818608E-02  0.1040511E+00
         21   -1    0    0  503  502  0.00000000000E+00  0.00000000000E+00  0.17664582487E+04  0.17664582487E+04  0.00000000000E+00 0. -1.
         21   -1    0    0  501  503 -0.00000000000E+00 -0.00000000000E+00 -0.95343523566E+02  0.95343523566E+02  0.00000000000E+00 0. -1.
    9000007    1    1    2  501    0  0.60241889738E+01 -0.87870460867E+02  0.77715746018E+03  0.87848234283E+03  0.40000000000E+03 0. -1.
   -9000007    1    1    2    0  502 -0.60241889738E+01  0.87870460867E+02  0.89395726495E+03  0.98331942943E+03  0.40000000000E+03 0. -1.
<mgrwt>
<rscale>  2 0.40958211E+03</rscale>
<asrwt>0</asrwt>
<pdfrwt beam="1">  1       21 0.27176278E+00 0.40958211E+03</pdfrwt>
<pdfrwt beam="2">  1       21 0.14668236E-01 0.40958211E+03</pdfrwt>
<totfact> 0.17047335E+03</totfact>
</mgrwt>
</event>
<event>
 4    1  0.4703494E-002  0.4963325E+03  0.7818608E-02  0.1014741E+00
         21   -1    0    0  503  502  0.00000000000E+00  0.00000000000E+00  0.35601579291E+03  0.35601579291E+03  0.00000000000E+00 0.  1.
         21   -1    0    0  501  503 -0.00000000000E+00 -0.00000000000E+00 -0.97240677555E+03  0.97240677555E+03  0.00000000000E+00 0. -1.
    9000007    1    1    2  501    0 -0.14261557126E+03 -0.25691785798E+03  0.48512929215E+02  0.49869779548E+03  0.40000000000E+03 0.  1.
   -9000007    1    1    2    0  502  0.14261557126E+03  0.25691785798E+03 -0.66490391185E+03  0.82972477299E+03  0.40000000000E+03 0. -1.
<mgrwt>
<rscale>  2 0.49633254E+03</rscale>
<asrwt>0</asrwt>
<pdfrwt beam="1">  1       21 0.54771661E-01 0.49633254E+03</pdfrwt>
<pdfrwt beam="2">  1       21 0.14960104E+00 0.49633254E+03</pdfrwt>
<totfact> 0.78111479E+02</totfact>
</mgrwt>
</event>
<event>
 4    1  0.4703494E-002  0.4416005E+03  0.7818608E-02  0.1030257E+00
         21   -1    0    0  501  502  0.00000000000E+00  0.00000000000E+00  0.88094669289E+03  0.88094669289E+03  0.00000000000E+00 0. -1.
         21   -1    0    0  502  503 -0.00000000000E+00 -0.00000000000E+00 -0.23477383225E+03  0.23477383225E+03  0.00000000000E+00 0. -1.
    9000007    1    1    2  501    0 -0.16559444047E+03  0.87117398735E+02  0.45640556087E+03  0.63507243356E+03  0.40000000000E+03 0. -1.
   -9000007    1    1    2    0  503  0.16559444047E+03 -0.87117398735E+02  0.18976729977E+03  0.48064809158E+03  0.40000000000E+03 0. -1.
<mgrwt>
<rscale>  2 0.44160045E+03</rscale>
<asrwt>0</asrwt>
<pdfrwt beam="1">  1       21 0.13553026E+00 0.44160045E+03</pdfrwt>
<pdfrwt beam="2">  1       21 0.36119052E-01 0.44160045E+03</pdfrwt>
<totfact> 0.24864824E+03</totfact>
</mgrwt>
</event>
<event>
 4    1  0.4703494E-002  0.4515478E+03  0.7818608E-02  0.1027261E+00
         21   -1    0    0  501  502  0.00000000000E+00  0.00000000000E+00  0.13769066681E+04  0.13769066681E+04  0.00000000000E+00 0.  1.
         21   -1    0    0  502  503 -0.00000000000E+00 -0.00000000000E+00 -0.23306344098E+03  0.23306344098E+03  0.00000000000E+00 0.  1.
    9000007    1    1    2  501    0 -0.28421984963E+02  0.20757559620E+03  0.10580065324E+04  0.11503361508E+04  0.40000000000E+03 0.  1.
   -9000007    1    1    2    0  503  0.28421984963E+02 -0.20757559620E+03  0.85836694687E+02  0.45963395819E+03  0.40000000000E+03 0.  1.
<mgrwt>
<rscale>  2 0.45154782E+03</rscale>
<asrwt>0</asrwt>
<pdfrwt beam="1">  1       21 0.21183179E+00 0.45154782E+03</pdfrwt>
<pdfrwt beam="2">  1       21 0.35855915E-01 0.45154782E+03</pdfrwt>
<totfact> 0.69960802E+02</totfact>
</mgrwt>
</event>
<event>
 4    1  0.4703494E-002  0.4155421E+03  0.7818608E-02  0.1038527E+00
         21   -1    0    0  501  502  0.00000000000E+00  0.00000000000E+00  0.19653538939E+03  0.19653538939E+03  0.00000000000E+00 0. -1.
         21   -1    0    0  502  503 -0.00000000000E+00 -0.00000000000E+00 -0.11032481931E+04  0.11032481931E+04  0.00000000000E+00 0. -1.
    9000007    1    1    2  501    0 -0.28074445972E+02 -0.10902799011E+03 -0.16009194851E+03  0.44531416901E+03  0.40000000000E+03 0. -1.
   -9000007    1    1    2    0  503  0.28074445972E+02  0.10902799011E+03 -0.74662085522E+03  0.85446941349E+03  0.40000000000E+03 0. -1.
<mgrwt>
<rscale>  2 0.41554215E+03</rscale>
<asrwt>0</asrwt>
<pdfrwt beam="1">  1       21 0.30236214E-01 0.41554215E+03</pdfrwt>
<pdfrwt beam="2">  1       21 0.16973049E+00 0.41554215E+03</pdfrwt>
<totfact> 0.19437287E+03</totfact>
</mgrwt>
</event>
<event>
 4    1  0.4703494E-002  0.5597629E+03  0.7818608E-02  0.9992591E-01
         21   -1    0    0  503  502  0.00000000000E+00  0.00000000000E+00  0.62209059181E+03  0.62209059181E+03  0.00000000000E+00 0.  1.
         21   -1    0    0  501  503 -0.00000000000E+00 -0.00000000000E+00 -0.64057966944E+03  0.64057966944E+03  0.00000000000E+00 0. -1.
    9000007    1    1    2  501    0 -0.39149122671E+03  0.83148990778E+01 -0.30110466234E+03  0.63560879149E+03  0.40000000000E+03 0. -1.
   -9000007    1    1    2    0  502  0.39149122671E+03 -0.83148990778E+01  0.28261558471E+03  0.62706146976E+03  0.40000000000E+03 0. -1.
<mgrwt>
<rscale>  2 0.55976291E+03</rscale>
<asrwt>0</asrwt>
<pdfrwt beam="1">  1       21 0.95706246E-01 0.55976291E+03</pdfrwt>
<pdfrwt beam="2">  1       21 0.98550718E-01 0.55976291E+03</pdfrwt>
<totfact> 0.62429263E+02</totfact>
</mgrwt>
</event>
<event>
 4    1  0.4703494E-002  0.4873478E+03  0.7818608E-02  0.1017135E+00
         21   -1    0    0  503  502  0.00000000000E+00  0.00000000000E+00  0.83265451268E+03  0.83265451268E+03  0.00000000000E+00 0. -1.
         21   -1    0    0  501  503 -0.00000000000E+00 -0.00000000000E+00 -0.29147157527E+03  0.29147157527E+03  0.00000000000E+00 0. -1.
    9000007    1    1    2  501    0  0.14953190674E+03 -0.23483619839E+03  0.18841928585E+03  0.52250326170E+03  0.40000000000E+03 0. -1.
   -9000007    1    1    2    0  502 -0.14953190674E+03  0.23483619839E+03  0.35276365156E+03  0.60162282625E+03  0.40000000000E+03 0. -1.
<mgrwt>
<rscale>  2 0.48734775E+03</rscale>
<asrwt>0</asrwt>
<pdfrwt beam="1">  1       21 0.12810069E+00 0.48734775E+03</pdfrwt>
<pdfrwt beam="2">  1       21 0.44841781E-01 0.48734775E+03</pdfrwt>
<totfact> 0.18116478E+03</totfact>
</mgrwt>
</event>
<event>
 4    1  0.4703494E-002  0.4522209E+03  0.7818608E-02  0.1027062E+00
         21   -1    0    0  503  502  0.00000000000E+00  0.00000000000E+00  0.35320576953E+03  0.35320576953E+03  0.00000000000E+00 0.  1.
         21   -1    0    0  501  503 -0.00000000000E+00 -0.00000000000E+00 -0.12409419009E+04  0.12409419009E+04  0.00000000000E+00 0.  1.
    9000007    1    1    2  501    0  0.12852363287E+03  0.16728846436E+03 -0.10260181721E+04  0.11212569036E+04  0.40000000000E+03 0.  1.
   -9000007    1    1    2    0  502 -0.12852363287E+03 -0.16728846436E+03  0.13828204073E+03  0.47289076678E+03  0.40000000000E+03 0.  1.
<mgrwt>
<rscale>  2 0.45222091E+03</rscale>
<asrwt>0</asrwt>
<pdfrwt beam="1">  1       21 0.54339348E-01 0.45222091E+03</pdfrwt>
<pdfrwt beam="2">  1       21 0.19091414E+00 0.45222091E+03</pdfrwt>
<totfact> 0.40411738E+02</totfact>
</mgrwt>
</event>
<event>
 4    1  0.4703494E-002  0.4181134E+03  0.7818608E-02  0.1037682E+00
         21   -1    0    0  501  502  0.00000000000E+00  0.00000000000E+00  0.26211787559E+03  0.26211787559E+03  0.00000000000E+00 0.  1.
         21   -1    0    0  502  503 -0.00000000000E+00 -0.00000000000E+00 -0.19900318150E+04  0.19900318150E+04  0.00000000000E+00 0.  1.
    9000007    1    1    2  501    0  0.86939074516E+02  0.85208250264E+02  0.54229769221E+02  0.42161560272E+03  0.40000000000E+03 0.  1.
   -9000007    1    1    2    0  503 -0.86939074516E+02 -0.85208250264E+02 -0.17821437086E+04  0.18305340878E+04  0.40000000000E+03 0.  1.
<mgrwt>
<rscale>  2 0.41811344E+03</rscale>
<asrwt>0</asrwt>
<pdfrwt beam="1">  1       21 0.40325826E-01 0.41811344E+03</pdfrwt>
<pdfrwt beam="2">  1       21 0.30615875E+00 0.41811344E+03</pdfrwt>
<totfact> 0.14788250E+02</totfact>
</mgrwt>
</event>
<event>
 4    1  0.4703494E-002  0.5693242E+03  0.7818608E-02  0.9971175E-01
         21   -1    0    0  501  502  0.00000000000E+00  0.00000000000E+00  0.74844446639E+03  0.74844446639E+03  0.00000000000E+00 0.  1.
         21   -1    0    0  502  503 -0.00000000000E+00 -0.00000000000E+00 -0.81758485171E+03  0.81758485171E+03  0.00000000000E+00 0.  1.
    9000007    1    1    2  501    0 -0.89472057023E+02 -0.39512633328E+03  0.50241104444E+03  0.75930687197E+03  0.40000000000E+03 0.  1.
   -9000007    1    1    2    0  503  0.89472057023E+02  0.39512633328E+03 -0.57155142976E+03  0.80672244614E+03  0.40000000000E+03 0.  1.
<mgrwt>
<rscale>  2 0.56932422E+03</rscale>
<asrwt>0</asrwt>
<pdfrwt beam="1">  1       21 0.11514530E+00 0.56932422E+03</pdfrwt>
<pdfrwt beam="2">  1       21 0.12578228E+00 0.56932422E+03</pdfrwt>
<totfact> 0.21356417E+02</totfact>
</mgrwt>
</event>
<event>
 4    1  0.4703494E-002  0.4444338E+03  0.7818608E-02  0.1029395E+00
         21   -1    0    0  501  502  0.00000000000E+00  0.00000000000E+00  0.99075563950E+03  0.99075563950E+03  0.00000000000E+00 0. -1.
         21   -1    0    0  502  503 -0.00000000000E+00 -0.00000000000E+00 -0.25444632723E+03  0.25444632723E+03  0.00000000000E+00 0. -1.
    9000007    1    1    2  501    0  0.15786648979E+03 -0.11224794963E+03  0.78476221835E+02  0.45130914924E+03  0.40000000000E+03 0. -1.
   -9000007    1    1    2    0  503 -0.15786648979E+03  0.11224794963E+03  0.65783309043E+03  0.79389281749E+03  0.40000000000E+03 0. -1.
<mgrwt>
<rscale>  2 0.44443383E+03</rscale>
<asrwt>0</asrwt>
<pdfrwt beam="1">  1       21 0.15242394E+00 0.44443383E+03</pdfrwt>
<pdfrwt beam="2">  1       21 0.39145589E-01 0.44443383E+03</pdfrwt>
<totfact> 0.15383245E+03</totfact>
</mgrwt>
</event>
<event>
 4    1  0.4703494E-002  0.4134643E+03  0.7818608E-02  0.1039215E+00
         21   -1    0    0  501  502  0.00000000000E+00  0.00000000000E+00  0.13268696601E+04  0.13268696601E+04  0.00000000000E+00 0.  1.
         21   -1    0    0  502  503 -0.00000000000E+00 -0.00000000000E+00 -0.18506346701E+03  0.18506346701E+03  0.00000000000E+00 0.  1.
    9000007    1    1    2  501    0  0.50278552234E+02 -0.91786628411E+02  0.98758482230E+03  0.10706430307E+04  0.40000000000E+03 0.  1.
   -9000007    1    1    2    0  503 -0.50278552234E+02  0.91786628411E+02  0.15422137078E+03  0.44129009639E+03  0.40000000000E+03 0.  1.
<mgrwt>
<rscale>  2 0.41346429E+03</rscale>
<asrwt>0</asrwt>
<pdfrwt beam="1">  1       21 0.20413379E+00 0.41346429E+03</pdfrwt>
<pdfrwt beam="2">  1       21 0.28471303E-01 0.41346429E+03</pdfrwt>
<totfact> 0.12691341E+03</totfact>
</mgrwt>
</event>
<event>
 4    1  0.4703494E-002  0.4586405E+03  0.7818608E-02  0.1025176E+00
         21   -1    0    0  503  502  0.00000000000E+00  0.00000000000E+00  0.41169620435E+03  0.41169620435E+03  0.00000000000E+00 0. -1.
         21   -1    0    0  501  503 -0.00000000000E+00 -0.00000000000E+00 -0.94516509018E+03  0.94516509018E+03  0.00000000000E+00 0. -1.
    9000007    1    1    2  501    0 -0.34827516444E+02  0.22167130276E+03 -0.72657811703E+03  0.85922458212E+03  0.40000000000E+03 0. -1.
   -9000007    1    1    2    0  502  0.34827516444E+02 -0.22167130276E+03  0.19310923120E+03  0.49763671242E+03  0.40000000000E+03 0. -1.
<mgrwt>
<rscale>  2 0.45864052E+03</rscale>
<asrwt>0</asrwt>
<pdfrwt beam="1">  1       21 0.63337879E-01 0.45864052E+03</pdfrwt>
<pdfrwt beam="2">  1       21 0.14541001E+00 0.45864052E+03</pdfrwt>
<totfact> 0.62371004E+02</totfact>
</mgrwt>
</event>
<event>
 4    1  0.4703494E-002  0.6501994E+03  0.7818608E-02  0.9806405E-01
         21   -1    0    0  501  502  0.00000000000E+00  0.00000000000E+00  0.13646661232E+04  0.13646661232E+04  0.00000000000E+00 0.  1.
         21   -1    0    0  502  503 -0.00000000000E+00 -0.00000000000E+00 -0.70411153215E+03  0.70411153215E+03  0.00000000000E+00 0. -1.
    9000007    1    1    2  501    0 -0.47094695772E+03  0.20240609867E+03  0.11043622066E+04  0.12815518520E+04  0.40000000000E+03 0.  1.
   -9000007    1    1    2    0  503  0.47094695772E+03 -0.20240609867E+03 -0.44380761565E+03  0.78722580336E+03  0.40000000000E+03 0. -1.
<mgrwt>
<rscale>  2 0.65019940E+03</rscale>
<asrwt>0</asrwt>
<pdfrwt beam="1">  1       21 0.20994863E+00 0.65019940E+03</pdfrwt>
<pdfrwt beam="2">  1       21 0.10832485E+00 0.65019940E+03</pdfrwt>
<totfact> 0.55960892E+01</totfact>
</mgrwt>
</event>
<event>
 4    1  0.4703494E-002  0.5196893E+03  0.7818608E-02  0.1008764E+00
         21   -1    0    0  503  502  0.00000000000E+00  0.00000000000E+00  0.93360282562E+03  0.93360282562E+03  0.00000000000E+00 0.  1.
         21   -1    0    0  501  503 -0.00000000000E+00 -0.00000000000E+00 -0.41143034957E+03  0.41143034957E+03  0.00000000000E+00 0. -1.
    9000007    1    1    2  501    0  0.34270976963E+01 -0.33176085378E+03 -0.10534614596E+03  0.53025920036E+03  0.40000000000E+03 0. -1.
   -9000007    1    1    2    0  502 -0.34270976963E+01  0.33176085378E+03  0.62751862200E+03  0.81477397483E+03  0.40000000000E+03 0.  1.
<mgrwt>
<rscale>  2 0.51968934E+03</rscale>
<asrwt>0</asrwt>
<pdfrwt beam="1">  1       21 0.14363120E+00 0.51968934E+03</pdfrwt>
<pdfrwt beam="2">  1       21 0.63296977E-01 0.51968934E+03</pdfrwt>
<totfact> 0.62961907E+02</totfact>
</mgrwt>
</event>
<event>
 4    1  0.4703494E-002  0.4069650E+03  0.7818608E-02  0.1041394E+00
         21   -1    0    0  501  502  0.00000000000E+00  0.00000000000E+00  0.16047321118E+03  0.16047321118E+03  0.00000000000E+00 0. -1.
         21   -1    0    0  502  503 -0.00000000000E+00 -0.00000000000E+00 -0.10456970101E+04  0.10456970101E+04  0.00000000000E+00 0. -1.
    9000007    1    1    2  501    0 -0.69731901667E+02 -0.27532023075E+02 -0.51144229762E+03  0.65360062286E+03  0.40000000000E+03 0.  1.
   -9000007    1    1    2    0  503  0.69731901667E+02  0.27532023075E+02 -0.37378150134E+03  0.55256959847E+03  0.40000000000E+03 0.  1.
<mgrwt>
<rscale>  2 0.40696505E+03</rscale>
<asrwt>0</asrwt>
<pdfrwt beam="1">  1       21 0.24688187E-01 0.40696505E+03</pdfrwt>
<pdfrwt beam="2">  1       21 0.16087646E+00 0.40696505E+03</pdfrwt>
<totfact> 0.33753322E+03</totfact>
</mgrwt>
</event>
<event>
 4    1  0.4703494E-002  0.4238085E+03  0.7818608E-02  0.1035834E+00
         21   -1    0    0  503  502  0.00000000000E+00  0.00000000000E+00  0.76143484195E+03  0.76143484195E+03  0.00000000000E+00 0.  1.
         21   -1    0    0  501  503 -0.00000000000E+00 -0.00000000000E+00 -0.63429358716E+03  0.63429358716E+03  0.00000000000E+00 0.  1.
    9000007    1    1    2  501    0  0.13829514485E+03 -0.22092762154E+02 -0.48950977152E+03  0.64748239640E+03  0.40000000000E+03 0.  1.
   -9000007    1    1    2    0  502 -0.13829514485E+03  0.22092762154E+02  0.61665102631E+03  0.74824603271E+03  0.40000000000E+03 0.  1.
<mgrwt>
<rscale>  2 0.42380849E+03</rscale>
<asrwt>0</asrwt>
<pdfrwt beam="1">  1       21 0.11714382E+00 0.42380849E+03</pdfrwt>
<pdfrwt beam="2">  1       21 0.97583628E-01 0.42380849E+03</pdfrwt>
<totfact> 0.41083482E+02</totfact>
</mgrwt>
</event>
<event>
 4    1  0.4703494E-002  0.4389685E+03  0.7818608E-02  0.1031064E+00
         21   -1    0    0  503  502  0.00000000000E+00  0.00000000000E+00  0.63630484609E+03  0.63630484609E+03  0.00000000000E+00 0. -1.
         21   -1    0    0  501  503 -0.00000000000E+00 -0.00000000000E+00 -0.68857605297E+03  0.68857605297E+03  0.00000000000E+00 0.  1.
    9000007    1    1    2  501    0 -0.33675162296E+02  0.17764945198E+03 -0.52195169299E+03  0.68200213648E+03  0.40000000000E+03 0.  1.
   -9000007    1    1    2    0  502  0.33675162296E+02 -0.17764945198E+03  0.46968048611E+03  0.64287876258E+03  0.40000000000E+03 0. -1.
<mgrwt>
<rscale>  2 0.43896850E+03</rscale>
<asrwt>0</asrwt>
<pdfrwt beam="1">  1       21 0.97893053E-01 0.43896850E+03</pdfrwt>
<pdfrwt beam="2">  1       21 0.10593478E+00 0.43896850E+03</pdfrwt>
<totfact> 0.51967069E+02</totfact>
</mgrwt>
</event>
<event>
 4    1  0.4703494E-002  0.5520413E+03  0.7818608E-02  0.1001023E+00
         21   -1    0    0  503  502  0.00000000000E+00  0.00000000000E+00  0.36024195790E+03  0.36024195790E+03  0.00000000000E+00 0.  1.
         21   -1    0    0  501  503 -0.00000000000E+00 -0.00000000000E+00 -0.91026365973E+03  0.91026365973E+03  0.00000000000E+00 0. -1.
    9000007    1    1    2  501    0  0.30717108995E+03  0.22448941131E+03 -0.10616611897E+03  0.56215729037E+03  0.40000000000E+03 0.  1.
   -9000007    1    1    2    0  502 -0.30717108995E+03 -0.22448941131E+03 -0.44385558286E+03  0.70834832726E+03  0.40000000000E+03 0.  1.
<mgrwt>
<rscale>  2 0.55204128E+03</rscale>
<asrwt>0</asrwt>
<pdfrwt beam="1">  1       21 0.55421840E-01 0.55204128E+03</pdfrwt>
<pdfrwt beam="2">  1       21 0.14004056E+00 0.55204128E+03</pdfrwt>
<totfact> 0.89164984E+02</totfact>
</mgrwt>
</event>
<event>
 4    1  0.4703494E-002  0.4113077E+03  0.7818608E-02  0.1039933E+00
         21   -1    0    0  503  502  0.00000000000E+00  0.00000000000E+00  0.25044521647E+03  0.25044521647E+03  0.00000000000E+00 0. -1.
         21   -1    0    0  501  503 -0.00000000000E+00 -0.00000000000E+00 -0.68024663440E+03  0.68024663440E+03  0.00000000000E+00 0. -1.
    9000007    1    1    2  501    0 -0.68488487235E+02 -0.66958123010E+02 -0.25380006187E+03  0.48330997768E+03  0.40000000000E+03 0. -1.
   -9000007    1    1    2    0  502  0.68488487235E+02  0.66958123010E+02 -0.17600135606E+03  0.44738187319E+03  0.40000000000E+03 0. -1.
<mgrwt>
<rscale>  2 0.41130775E+03</rscale>
<asrwt>0</asrwt>
<pdfrwt beam="1">  1       21 0.38530033E-01 0.41130775E+03</pdfrwt>
<pdfrwt beam="2">  1       21 0.10465333E+00 0.41130775E+03</pdfrwt>
<totfact> 0.42424469E+03</totfact>
</mgrwt>
</event>
<event>
 4    1  0.4703494E-002  0.6909107E+03  0.7818608E-02  0.9732904E-01
         21   -1    0    0  501  502  0.00000000000E+00  0.00000000000E+00  0.10201682301E+04  0.10201682301E+04  0.00000000000E+00 0. -1.
         21   -1    0    0  502  503 -0.00000000000E+00 -0.00000000000E+00 -0.56866524674E+03  0.56866524674E+03  0.00000000000E+00 0.  1.
    9000007    1    1    2  501    0  0.30259365213E+03 -0.47517850462E+03  0.56012468722E+03  0.88943644786E+03  0.40000000000E+03 0.  1.
   -9000007    1    1    2    0  503 -0.30259365213E+03  0.47517850462E+03 -0.10862170387E+03  0.69939702895E+03  0.40000000000E+03 0.  1.
<mgrwt>
<rscale>  2 0.69091065E+03</rscale>
<asrwt>0</asrwt>
<pdfrwt beam="1">  1       21 0.15694896E+00 0.69091065E+03</pdfrwt>
<pdfrwt beam="2">  1       21 0.87486961E-01 0.69091065E+03</pdfrwt>
<totfact> 0.22125912E+02</totfact>
</mgrwt>
</event>
<event>
 4    1  0.4703494E-002  0.4025670E+03  0.7818608E-02  0.1042894E+00
         21   -1    0    0  501  502  0.00000000000E+00  0.00000000000E+00  0.12993062446E+03  0.12993062446E+03  0.00000000000E+00 0. -1.
         21   -1    0    0  502  503 -0.00000000000E+00 -0.00000000000E+00 -0.19197825259E+04  0.19197825259E+04  0.00000000000E+00 0. -1.
    9000007    1    1    2  501    0 -0.29726344071E+01 -0.45291612267E+02 -0.28835264279E+03  0.49518422158E+03  0.40000000000E+03 0. -1.
   -9000007    1    1    2    0  503  0.29726344071E+01  0.45291612267E+02 -0.15014992586E+04  0.15545289288E+04  0.40000000000E+03 0. -1.
<mgrwt>
<rscale>  2 0.40256697E+03</rscale>
<asrwt>0</asrwt>
<pdfrwt beam="1">  1       21 0.19989327E-01 0.40256697E+03</pdfrwt>
<pdfrwt beam="2">  1       21 0.29535115E+00 0.40256697E+03</pdfrwt>
<totfact> 0.69238411E+02</totfact>
</mgrwt>
</event>
<event>
 4    1  0.4703494E-002  0.4002485E+03  0.7818608E-02  0.1043694E+00
         21   -1    0    0  501  502  0.00000000000E+00  0.00000000000E+00  0.23821429289E+03  0.23821429289E+03  0.00000000000E+00 0.  1.
         21   -1    0    0  502  503 -0.00000000000E+00 -0.00000000000E+00 -0.68556840022E+03  0.68556840022E+03  0.00000000000E+00 0.  1.
    9000007    1    1    2  501    0  0.32833784314E+01  0.13715444377E+02 -0.15990346631E+03  0.43100813510E+03  0.40000000000E+03 0.  1.
   -9000007    1    1    2    0  503 -0.32833784314E+01 -0.13715444377E+02 -0.28745064102E+03  0.49277455800E+03  0.40000000000E+03 0.  1.
<mgrwt>
<rscale>  2 0.40024854E+03</rscale>
<asrwt>0</asrwt>
<pdfrwt beam="1">  1       21 0.36648354E-01 0.40024854E+03</pdfrwt>
<pdfrwt beam="2">  1       21 0.10547206E+00 0.40024854E+03</pdfrwt>
<totfact> 0.46286862E+03</totfact>
</mgrwt>
</event>
<event>
 4    1  0.4703494E-002  0.4138689E+03  0.7818608E-02  0.1039080E+00
         21   -1    0    0  501  502  0.00000000000E+00  0.00000000000E+00  0.25689473680E+03  0.25689473680E+03  0.00000000000E+00 0. -1.
         21   -1    0    0  502  503 -0.00000000000E+00 -0.00000000000E+00 -0.78202592728E+03  0.78202592728E+03  0.00000000000E+00 0.  1.
    9000007    1    1    2  501    0 -0.10588159226E+02 -0.10571338243E+03 -0.63135758496E+02  0.41865684318E+03  0.40000000000E+03 0. -1.
   -9000007    1    1    2    0  503  0.10588159226E+02  0.10571338243E+03 -0.46199543199E+03  0.62026382090E+03  0.40000000000E+03 0.  1.
<mgrwt>
<rscale>  2 0.41386885E+03</rscale>
<asrwt>0</asrwt>
<pdfrwt beam="1">  1       21 0.39522268E-01 0.41386885E+03</pdfrwt>
<pdfrwt beam="2">  1       21 0.12031168E+00 0.41386885E+03</pdfrwt>
<totfact> 0.28440899E+03</totfact>
</mgrwt>
</event>
<event>
 4    1  0.4703494E-002  0.6047208E+03  0.7818608E-02  0.9895660E-01
         21   -1    0    0  503  502  0.00000000000E+00  0.00000000000E+00  0.25457583082E+03  0.25457583082E+03  0.00000000000E+00 0. -1.
         21   -1    0    0  501  503 -0.00000000000E+00 -0.00000000000E+00 -0.19596650073E+04  0.19596650073E+04  0.00000000000E+00 0. -1.
    9000007    1    1    2  501    0  0.37749129411E+03  0.25137146604E+03 -0.14246038747E+04  0.15476380362E+04  0.40000000000E+03 0. -1.
   -9000007    1    1    2    0  502 -0.37749129411E+03 -0.25137146604E+03 -0.28048530171E+03  0.66660280193E+03  0.40000000000E+03 0. -1.
<mgrwt>
<rscale>  2 0.60472084E+03</rscale>
<asrwt>0</asrwt>
<pdfrwt beam="1">  1       21 0.39165510E-01 0.60472084E+03</pdfrwt>
<pdfrwt beam="2">  1       21 0.30148694E+00 0.60472084E+03</pdfrwt>
<totfact> 0.15119211E+02</totfact>
</mgrwt>
</event>
<event>
 4    1  0.4703494E-002  0.4543442E+03  0.7818608E-02  0.1026434E+00
         21   -1    0    0  501  502  0.00000000000E+00  0.00000000000E+00  0.13387651286E+04  0.13387651286E+04  0.00000000000E+00 0.  1.
         21   -1    0    0  502  503 -0.00000000000E+00 -0.00000000000E+00 -0.15597866161E+03  0.15597866161E+03  0.00000000000E+00 0.  1.
    9000007    1    1    2  501    0  0.56739922885E+02  0.20786831984E+03  0.51143498847E+03  0.68410116553E+03  0.40000000000E+03 0.  1.
   -9000007    1    1    2    0  503 -0.56739922885E+02 -0.20786831984E+03  0.67135147853E+03  0.81064262469E+03  0.40000000000E+03 0.  1.
<mgrwt>
<rscale>  2 0.45434421E+03</rscale>
<asrwt>0</asrwt>
<pdfrwt beam="1">  1       21 0.20596386E+00 0.45434421E+03</pdfrwt>
<pdfrwt beam="2">  1       21 0.23996718E-01 0.45434421E+03</pdfrwt>
<totfact> 0.16919981E+03</totfact>
</mgrwt>
</event>
<event>
 4    1  0.4703494E-002  0.4127346E+03  0.7818608E-02  0.1039457E+00
         21   -1    0    0  503  502  0.00000000000E+00  0.00000000000E+00  0.28142719351E+03  0.28142719351E+03  0.00000000000E+00 0. -1.
         21   -1    0    0  501  503 -0.00000000000E+00 -0.00000000000E+00 -0.68769681693E+03  0.68769681693E+03  0.00000000000E+00 0. -1.
    9000007    1    1    2  501    0 -0.10005271580E+03 -0.18421176686E+02 -0.37085575163E+03  0.55487284508E+03  0.40000000000E+03 0. -1.
   -9000007    1    1    2    0  502  0.10005271580E+03  0.18421176686E+02 -0.35413871784E+02  0.41425116536E+03  0.40000000000E+03 0. -1.
<mgrwt>
<rscale>  2 0.41273464E+03</rscale>
<asrwt>0</asrwt>
<pdfrwt beam="1">  1       21 0.43296491E-01 0.41273464E+03</pdfrwt>
<pdfrwt beam="2">  1       21 0.10579951E+00 0.41273464E+03</pdfrwt>
<totfact> 0.32455636E+03</totfact>
</mgrwt>
</event>
<event>
 4    1  0.4703494E-002  0.4908348E+03  0.7818608E-02  0.1016199E+00
         21   -1    0    0  501  502  0.00000000000E+00  0.00000000000E+00  0.15084107976E+04  0.15084107976E+04  0.00000000000E+00 0. -1.
         21   -1    0    0  502  503 -0.00000000000E+00 -0.00000000000E+00 -0.16109646100E+03  0.16109646100E+03  0.00000000000E+00 0.  1.
    9000007    1    1    2  501    0  0.28087998317E+03 -0.45002360490E+02  0.59641093170E+03  0.77241489942E+03  0.40000000000E+03 0.  1.
   -9000007    1    1    2    0  503 -0.28087998317E+03  0.45002360490E+02  0.75090340490E+03  0.89709235917E+03  0.40000000000E+03 0.  1.
<mgrwt>
<rscale>  2 0.49083478E+03</rscale>
<asrwt>0</asrwt>
<pdfrwt beam="1">  1       21 0.23206319E+00 0.49083478E+03</pdfrwt>
<pdfrwt beam="2">  1       21 0.24784072E-01 0.49083478E+03</pdfrwt>
<totfact> 0.10627784E+03</totfact>
</mgrwt>
</event>
<event>
 4    1  0.4703494E-002  0.4726648E+03  0.7818608E-02  0.1021171E+00
         21   -1    0    0  503  502  0.00000000000E+00  0.00000000000E+00  0.14575046640E+03  0.14575046640E+03  0.00000000000E+00 0.  1.
         21   -1    0    0  501  503 -0.00000000000E+00 -0.00000000000E+00 -0.16539975982E+04  0.16539975982E+04  0.00000000000E+00 0. -1.
    9000007    1    1    2  501    0 -0.24046996645E+03  0.74740850224E+02 -0.51057173510E+03  0.69576971488E+03  0.40000000000E+03 0.  1.
   -9000007    1    1    2    0  502  0.24046996645E+03 -0.74740850224E+02 -0.99767539669E+03  0.11039783497E+04  0.40000000000E+03 0. -1.
<mgrwt>
<rscale>  2 0.47266479E+03</rscale>
<asrwt>0</asrwt>
<pdfrwt beam="1">  1       21 0.22423149E-01 0.47266479E+03</pdfrwt>
<pdfrwt beam="2">  1       21 0.25446117E+00 0.47266479E+03</pdfrwt>
<totfact> 0.94464147E+02</totfact>
</mgrwt>
</event>
<event>
 4    1  0.4703494E-002  0.5746215E+03  0.7818608E-02  0.9959504E-01
         21   -1    0    0  503  502  0.00000000000E+00  0.00000000000E+00  0.19442063186E+04  0.19442063186E+04  0.00000000000E+00 0.  1.
         21   -1    0    0  501  503 -0.00000000000E+00 -0.00000000000E+00 -0.22655495811E+03  0.22655495811E+03  0.00000000000E+00 0.  1.
    9000007    1    1    2  501    0  0.14141812517E+03 -0.38754456971E+03  0.31573556252E+03  0.65565145091E+03  0.40000000000E+03 0.  1.
   -9000007    1    1    2    0  502 -0.14141812517E+03  0.38754456971E+03  0.14019157979E+04  0.15151098258E+04  0.40000000000E+03 0.  1.
<mgrwt>
<rscale>  2 0.57462151E+03</rscale>
<asrwt>0</asrwt>
<pdfrwt beam="1">  1       21 0.29910865E+00 0.57462151E+03</pdfrwt>
<pdfrwt beam="2">  1       21 0.34854610E-01 0.57462151E+03</pdfrwt>
<totfact> 0.20128146E+02</totfact>
</mgrwt>
</event>
<event>
 4    1  0.4703494E-002  0.6810857E+03  0.7818608E-02  0.9750136E-01
         21   -1    0    0  503  502  0.00000000000E+00  0.00000000000E+00  0.89672572530E+03  0.89672572530E+03  0.00000000000E+00 0.  1.
         21   -1    0    0  501  503 -0.00000000000E+00 -0.00000000000E+00 -0.94236836114E+03  0.94236836114E+03  0.00000000000E+00 0. -1.
    9000007    1    1    2  501    0  0.12929444364E+03 -0.53587376658E+03 -0.64039975349E+03  0.93487410443E+03  0.40000000000E+03 0. -1.
   -9000007    1    1    2    0  502 -0.12929444364E+03  0.53587376658E+03  0.59475711766E+03  0.90421998201E+03  0.40000000000E+03 0.  1.
<mgrwt>
<rscale>  2 0.68108571E+03</rscale>
<asrwt>0</asrwt>
<pdfrwt beam="1">  1       21 0.13795780E+00 0.68108571E+03</pdfrwt>
<pdfrwt beam="2">  1       21 0.14497975E+00 0.68108571E+03</pdfrwt>
<totfact> 0.87847848E+01</totfact>
</mgrwt>
</event>
<event>
 4    1  0.4703494E-002  0.6073433E+03  0.7818608E-02  0.9890287E-01
         21   -1    0    0  503  502  0.00000000000E+00  0.00000000000E+00  0.36389664132E+03  0.36389664132E+03  0.00000000000E+00 0. -1.
         21   -1    0    0  501  503 -0.00000000000E+00 -0.00000000000E+00 -0.10145557014E+04  0.10145557014E+04  0.00000000000E+00 0. -1.
    9000007    1    1    2  501    0  0.39937593878E+03  0.22218173419E+03 -0.30480029732E+03  0.67953593336E+03  0.40000000000E+03 0. -1.
   -9000007    1    1    2    0  502 -0.39937593878E+03 -0.22218173419E+03 -0.34585876276E+03  0.69891640935E+03  0.40000000000E+03 0. -1.
<mgrwt>
<rscale>  2 0.60734328E+03</rscale>
<asrwt>0</asrwt>
<pdfrwt beam="1">  1       21 0.55984098E-01 0.60734328E+03</pdfrwt>
<pdfrwt beam="2">  1       21 0.15608550E+00 0.60734328E+03</pdfrwt>
<totfact> 0.63687467E+02</totfact>
</mgrwt>
</event>
<event>
 4    1  0.4703494E-002  0.4867254E+03  0.7818608E-02  0.1017303E+00
         21   -1    0    0  503  502  0.00000000000E+00  0.00000000000E+00  0.65298076357E+03  0.65298076357E+03  0.00000000000E+00 0.  1.
         21   -1    0    0  501  503 -0.00000000000E+00 -0.00000000000E+00 -0.39298686862E+03  0.39298686862E+03  0.00000000000E+00 0. -1.
    9000007    1    1    2  501    0  0.79594950719E+02  0.26564303270E+03  0.27494305071E+03  0.55901275310E+03  0.40000000000E+03 0.  1.
   -9000007    1    1    2    0  502 -0.79594950719E+02 -0.26564303270E+03 -0.14949155757E+02  0.48695487908E+03  0.40000000000E+03 0. -1.
<mgrwt>
<rscale>  2 0.48672536E+03</rscale>
<asrwt>0</asrwt>
<pdfrwt beam="1">  1       21 0.10045858E+00 0.48672536E+03</pdfrwt>
<pdfrwt beam="2">  1       21 0.60459518E-01 0.48672536E+03</pdfrwt>
<totfact> 0.17570977E+03</totfact>
</mgrwt>
</event>
<event>
 4    1  0.4703494E-002  0.5356481E+03  0.7818608E-02  0.1004871E+00
         21   -1    0    0  503  502  0.00000000000E+00  0.00000000000E+00  0.40566786524E+03  0.40566786524E+03  0.00000000000E+00 0. -1.
         21   -1    0    0  501  503 -0.00000000000E+00 -0.00000000000E+00 -0.71489767082E+03  0.71489767082E+03  0.00000000000E+00 0.  1.
    9000007    1    1    2  501    0  0.28490389040E+03  0.21388945504E+03 -0.21246789424E+03  0.57624780419E+03  0.40000000000E+03 0.  1.
   -9000007    1    1    2    0  502 -0.28490389040E+03 -0.21388945504E+03 -0.96761911335E+02  0.54431773187E+03  0.40000000000E+03 0. -1.
<mgrwt>
<rscale>  2 0.53564814E+03</rscale>
<asrwt>0</asrwt>
<pdfrwt beam="1">  1       21 0.62410442E-01 0.53564814E+03</pdfrwt>
<pdfrwt beam="2">  1       21 0.10998425E+00 0.53564814E+03</pdfrwt>
<totfact> 0.12881044E+03</totfact>
</mgrwt>
</event>
<event>
 4    1  0.4703494E-002  0.4256527E+03  0.7818608E-02  0.1035242E+00
         21   -1    0    0  503  502  0.00000000000E+00  0.00000000000E+00  0.23368074923E+04  0.23368074923E+04  0.00000000000E+00 0.  1.
         21   -1    0    0  501  503 -0.00000000000E+00 -0.00000000000E+00 -0.10142308839E+03  0.10142308839E+03  0.00000000000E+00 0.  1.
    9000007    1    1    2  501    0  0.14508376894E+03  0.11440373916E+02  0.17093673763E+04  0.17615666349E+04  0.40000000000E+03 0.  1.
   -9000007    1    1    2    0  502 -0.14508376894E+03 -0.11440373916E+02  0.52601702763E+03  0.67666394578E+03  0.40000000000E+03 0.  1.
<mgrwt>
<rscale>  2 0.42565265E+03</rscale>
<asrwt>0</asrwt>
<pdfrwt beam="1">  1       21 0.35950880E+00 0.42565265E+03</pdfrwt>
<pdfrwt beam="2">  1       21 0.15603554E-01 0.42565265E+03</pdfrwt>
<totfact> 0.44468286E+02</totfact>
</mgrwt>
</event>
<event>
 4    1  0.4703494E-002  0.5745402E+03  0.7818608E-02  0.9959682E-01
         21   -1    0    0  503  502  0.00000000000E+00  0.00000000000E+00  0.17923646498E+03  0.17923646498E+03  0.00000000000E+00 0. -1.
         21   -1    0    0  501  503 -0.00000000000E+00 -0.00000000000E+00 -0.23357804320E+04  0.23357804320E+04  0.00000000000E+00 0.  1.
    9000007    1    1    2  501    0 -0.34829751050E+03 -0.22087403639E+03 -0.49990721913E+03  0.76157975518E+03  0.40000000000E+03 0. -1.
   -9000007    1    1    2    0  502  0.34829751050E+03  0.22087403639E+03 -0.16566367479E+04  0.17534371418E+04  0.40000000000E+03 0.  1.
<mgrwt>
<rscale>  2 0.57454025E+03</rscale>
<asrwt>0</asrwt>
<pdfrwt beam="1">  1       21 0.27574842E-01 0.57454025E+03</pdfrwt>
<pdfrwt beam="2">  1       21 0.35935083E+00 0.57454025E+03</pdfrwt>
<totfact> 0.13749017E+02</totfact>
</mgrwt>
</event>
<event>
 4    1  0.4703494E-002  0.4215896E+03  0.7818608E-02  0.1036550E+00
         21   -1    0    0  501  502  0.00000000000E+00  0.00000000000E+00  0.25926020083E+03  0.25926020083E+03  0.00000000000E+00 0. -1.
         21   -1    0    0  502  503 -0.00000000000E+00 -0.00000000000E+00 -0.68722334709E+03  0.68722334709E+03  0.00000000000E+00 0. -1.
    9000007    1    1    2  501    0 -0.93304726310E+02 -0.95036830783E+02 -0.23728145328E+03  0.48377707596E+03  0.40000000000E+03 0. -1.
   -9000007    1    1    2    0  503  0.93304726310E+02  0.95036830783E+02 -0.19068169298E+03  0.46270647196E+03  0.40000000000E+03 0. -1.
<mgrwt>
<rscale>  2 0.42158958E+03</rscale>
<asrwt>0</asrwt>
<pdfrwt beam="1">  1       21 0.39886185E-01 0.42158958E+03</pdfrwt>
<pdfrwt beam="2">  1       21 0.10572667E+00 0.42158958E+03</pdfrwt>
<totfact> 0.38394273E+03</totfact>
</mgrwt>
</event>
<event>
 4    1  0.4703494E-002  0.5231700E+03  0.7818608E-02  0.1007902E+00
         21   -1    0    0  503  502  0.00000000000E+00  0.00000000000E+00  0.37424012406E+03  0.37424012406E+03  0.00000000000E+00 0.  1.
         21   -1    0    0  501  503 -0.00000000000E+00 -0.00000000000E+00 -0.84528581548E+03  0.84528581548E+03  0.00000000000E+00 0.  1.
    9000007    1    1    2  501    0 -0.22128639212E+03 -0.25443904366E+03 -0.45937274191E+03  0.69622568919E+03  0.40000000000E+03 0.  1.
   -9000007    1    1    2    0  502  0.22128639212E+03  0.25443904366E+03 -0.11672949517E+02  0.52330025036E+03  0.40000000000E+03 0.  1.
<mgrwt>
<rscale>  2 0.52317004E+03</rscale>
<asrwt>0</asrwt>
<pdfrwt beam="1">  1       21 0.57575404E-01 0.52317004E+03</pdfrwt>
<pdfrwt beam="2">  1       21 0.13004397E+00 0.52317004E+03</pdfrwt>
<totfact> 0.10078758E+03</totfact>
</mgrwt>
</event>
<event>
 4    1  0.4703494E-002  0.4016485E+03  0.7818608E-02  0.1043210E+00
         21   -1    0    0  503  502  0.00000000000E+00  0.00000000000E+00  0.59842578151E+03  0.59842578151E+03  0.00000000000E+00 0. -1.
         21   -1    0    0  501  503 -0.00000000000E+00 -0.00000000000E+00 -0.28673988078E+03  0.28673988078E+03  0.00000000000E+00 0. -1.
    9000007    1    1    2  501    0 -0.22757459094E+02 -0.28348038181E+02  0.47561955526E+02  0.40445475993E+03  0.40000000000E+03 0. -1.
   -9000007    1    1    2    0  502  0.22757459094E+02  0.28348038181E+02  0.26412394521E+03  0.48071090236E+03  0.40000000000E+03 0. -1.
<mgrwt>
<rscale>  2 0.40164849E+03</rscale>
<asrwt>0</asrwt>
<pdfrwt beam="1">  1       21 0.92065505E-01 0.40164849E+03</pdfrwt>
<pdfrwt beam="2">  1       21 0.44113828E-01 0.40164849E+03</pdfrwt>
<totfact> 0.43866333E+03</totfact>
</mgrwt>
</event>
<event>
 4    1  0.4703494E-002  0.4576789E+03  0.7818608E-02  0.1025457E+00
         21   -1    0    0  503  502  0.00000000000E+00  0.00000000000E+00  0.32815886651E+03  0.32815886651E+03  0.00000000000E+00 0.  1.
         21   -1    0    0  501  503 -0.00000000000E+00 -0.00000000000E+00 -0.72275217672E+03  0.72275217672E+03  0.00000000000E+00 0. -1.
    9000007    1    1    2  501    0 -0.70020393530E+02 -0.21110935228E+03 -0.37689321745E+03  0.59288996575E+03  0.40000000000E+03 0. -1.
   -9000007    1    1    2    0  502  0.70020393530E+02  0.21110935228E+03 -0.17700092760E+02  0.45802107748E+03  0.40000000000E+03 0.  1.
<mgrwt>
<rscale>  2 0.45767894E+03</rscale>
<asrwt>0</asrwt>
<pdfrwt beam="1">  1       21 0.50485980E-01 0.45767894E+03</pdfrwt>
<pdfrwt beam="2">  1       21 0.11119264E+00 0.45767894E+03</pdfrwt>
<totfact> 0.20419351E+03</totfact>
</mgrwt>
</event>
<event>
 4    1  0.4703494E-002  0.4398241E+03  0.7818608E-02  0.1030801E+00
         21   -1    0    0  501  502  0.00000000000E+00  0.00000000000E+00  0.64485325302E+03  0.64485325302E+03  0.00000000000E+00 0.  1.
         21   -1    0    0  502  503 -0.00000000000E+00 -0.00000000000E+00 -0.43117531747E+03  0.43117531747E+03  0.00000000000E+00 0. -1.
    9000007    1    1    2  501    0 -0.14253784058E+03  0.11457820842E+03  0.40360936598E+03  0.59694700112E+03  0.40000000000E+03 0.  1.
   -9000007    1    1    2    0  503  0.14253784058E+03 -0.11457820842E+03 -0.18993143043E+03  0.47908156937E+03  0.40000000000E+03 0. -1.
<mgrwt>
<rscale>  2 0.43982406E+03</rscale>
<asrwt>0</asrwt>
<pdfrwt beam="1">  1       21 0.99208192E-01 0.43982406E+03</pdfrwt>
<pdfrwt beam="2">  1       21 0.66334664E-01 0.43982406E+03</pdfrwt>
<totfact> 0.15016215E+03</totfact>
</mgrwt>
</event>
<event>
 4    1  0.4703494E-002  0.4014528E+03  0.7818608E-02  0.1043278E+00
         21   -1    0    0  501  502  0.00000000000E+00  0.00000000000E+00  0.12245164804E+04  0.12245164804E+04  0.00000000000E+00 0.  1.
         21   -1    0    0  502  503 -0.00000000000E+00 -0.00000000000E+00 -0.15213178386E+03  0.15213178386E+03  0.00000000000E+00 0.  1.
    9000007    1    1    2  501    0 -0.33043993345E+02  0.85101421458E+01  0.78897146381E+03  0.88523460095E+03  0.40000000000E+03 0.  1.
   -9000007    1    1    2    0  503  0.33043993345E+02 -0.85101421458E+01  0.28341323278E+03  0.49141366335E+03  0.40000000000E+03 0.  1.
<mgrwt>
<rscale>  2 0.40145277E+03</rscale>
<asrwt>0</asrwt>
<pdfrwt beam="1">  1       21 0.18838714E+00 0.40145277E+03</pdfrwt>
<pdfrwt beam="2">  1       21 0.23404891E-01 0.40145277E+03</pdfrwt>
<totfact> 0.23851128E+03</totfact>
</mgrwt>
</event>
<event>
 4    1  0.4703494E-002  0.5070964E+03  0.7818608E-02  0.1011943E+00
         21   -1    0    0  501  502  0.00000000000E+00  0.00000000000E+00  0.50580079951E+03  0.50580079951E+03  0.00000000000E+00 0. -1.
         21   -1    0    0  502  503 -0.00000000000E+00 -0.00000000000E+00 -0.53901572360E+03  0.53901572360E+03  0.00000000000E+00 0. -1.
    9000007    1    1    2  501    0 -0.30250593876E+03  0.75079420230E+02 -0.14112047223E+03  0.52636655480E+03  0.40000000000E+03 0. -1.
   -9000007    1    1    2    0  503  0.30250593876E+03 -0.75079420230E+02  0.10790554814E+03  0.51844996832E+03  0.40000000000E+03 0. -1.
<mgrwt>
<rscale>  2 0.50709640E+03</rscale>
<asrwt>0</asrwt>
<pdfrwt beam="1">  1       21 0.77815507E-01 0.50709640E+03</pdfrwt>
<pdfrwt beam="2">  1       21 0.82925497E-01 0.50709640E+03</pdfrwt>
<totfact> 0.15619279E+03</totfact>
</mgrwt>
</event>
<event>
 4    1  0.4703494E-002  0.5596630E+03  0.7818608E-02  0.9992818E-01
         21   -1    0    0  503  502  0.00000000000E+00  0.00000000000E+00  0.60283675508E+03  0.60283675508E+03  0.00000000000E+00 0. -1.
         21   -1    0    0  501  503 -0.00000000000E+00 -0.00000000000E+00 -0.86731390778E+03  0.86731390778E+03  0.00000000000E+00 0. -1.
    9000007    1    1    2  501    0  0.37613242877E+03 -0.10838369371E+03 -0.59768155202E+03  0.81880758830E+03  0.40000000000E+03 0. -1.
   -9000007    1    1    2    0  502 -0.37613242877E+03  0.10838369371E+03  0.33320439932E+03  0.65134307455E+03  0.40000000000E+03 0. -1.
<mgrwt>
<rscale>  2 0.55966296E+03</rscale>
<asrwt>0</asrwt>
<pdfrwt beam="1">  1       21 0.92744116E-01 0.55966296E+03</pdfrwt>
<pdfrwt beam="2">  1       21 0.13343291E+00 0.55966296E+03</pdfrwt>
<totfact> 0.31300601E+02</totfact>
</mgrwt>
</event>
<event>
 4    1  0.4703494E-002  0.4522238E+03  0.7818608E-02  0.1027061E+00
         21   -1    0    0  501  502  0.00000000000E+00  0.00000000000E+00  0.16373058405E+04  0.16373058405E+04  0.00000000000E+00 0. -1.
         21   -1    0    0  502  503 -0.00000000000E+00 -0.00000000000E+00 -0.13428635005E+03  0.13428635005E+03  0.00000000000E+00 0. -1.
    9000007    1    1    2  501    0  0.72510288462E+02 -0.19811263107E+03  0.51737315385E+03  0.68715452181E+03  0.40000000000E+03 0. -1.
   -9000007    1    1    2    0  503 -0.72510288462E+02  0.19811263107E+03  0.98564633658E+03  0.10844376687E+04  0.40000000000E+03 0. -1.
<mgrwt>
<rscale>  2 0.45222379E+03</rscale>
<asrwt>0</asrwt>
<pdfrwt beam="1">  1       21 0.25189319E+00 0.45222379E+03</pdfrwt>
<pdfrwt beam="2">  1       21 0.20659440E-01 0.45222379E+03</pdfrwt>
<totfact> 0.11576703E+03</totfact>
</mgrwt>
</event>
<event>
 4    1  0.4703494E-002  0.4529923E+03  0.7818608E-02  0.1026833E+00
         21   -1    0    0  501  502  0.00000000000E+00  0.00000000000E+00  0.11570751446E+04  0.11570751446E+04  0.00000000000E+00 0.  1.
         21   -1    0    0  502  503 -0.00000000000E+00 -0.00000000000E+00 -0.22275304711E+03  0.22275304711E+03  0.00000000000E+00 0.  1.
    9000007    1    1    2  501    0 -0.19368978036E+03 -0.87671538504E+02  0.77865339466E+03  0.90083469000E+03  0.40000000000E+03 0.  1.
   -9000007    1    1    2    0  503  0.19368978036E+03  0.87671538504E+02  0.15566870287E+03  0.47899350176E+03  0.40000000000E+03 0.  1.
<mgrwt>
<rscale>  2 0.45299231E+03</rscale>
<asrwt>0</asrwt>
<pdfrwt beam="1">  1       21 0.17801156E+00 0.45299231E+03</pdfrwt>
<pdfrwt beam="2">  1       21 0.34269700E-01 0.45299231E+03</pdfrwt>
<totfact> 0.12979398E+03</totfact>
</mgrwt>
</event>
<event>
 4    1  0.4703494E-002  0.6046759E+03  0.7818608E-02  0.9895752E-01
         21   -1    0    0  503  502  0.00000000000E+00  0.00000000000E+00  0.28154751520E+03  0.28154751520E+03  0.00000000000E+00 0.  1.
         21   -1    0    0  501  503 -0.00000000000E+00 -0.00000000000E+00 -0.13607012327E+04  0.13607012327E+04  0.00000000000E+00 0.  1.
    9000007    1    1    2  501    0 -0.29708843373E+03  0.34259506376E+03 -0.71491944823E+03  0.93634541310E+03  0.40000000000E+03 0.  1.
   -9000007    1    1    2    0  502  0.29708843373E+03 -0.34259506376E+03 -0.36423426926E+03  0.70590333479E+03  0.40000000000E+03 0.  1.
<mgrwt>
<rscale>  2 0.60467588E+03</rscale>
<asrwt>0</asrwt>
<pdfrwt beam="1">  1       21 0.43315003E-01 0.60467588E+03</pdfrwt>
<pdfrwt beam="2">  1       21 0.20933865E+00 0.60467588E+03</pdfrwt>
<totfact> 0.46139939E+02</totfact>
</mgrwt>
</event>
<event>
 4    1  0.4703494E-002  0.5201978E+03  0.7818608E-02  0.1008637E+00
         21   -1    0    0  501  502  0.00000000000E+00  0.00000000000E+00  0.32585636325E+03  0.32585636325E+03  0.00000000000E+00 0. -1.
         21   -1    0    0  502  503 -0.00000000000E+00 -0.00000000000E+00 -0.83517359895E+03  0.83517359895E+03  0.00000000000E+00 0. -1.
    9000007    1    1    2  501    0 -0.13003592343E+03 -0.30609875102E+03 -0.29833950084E+03  0.59967678338E+03  0.40000000000E+03 0. -1.
   -9000007    1    1    2    0  503  0.13003592343E+03  0.30609875102E+03 -0.21097773487E+03  0.56135317882E+03  0.40000000000E+03 0. -1.
<mgrwt>
<rscale>  2 0.52019783E+03</rscale>
<asrwt>0</asrwt>
<pdfrwt beam="1">  1       21 0.50131748E-01 0.52019783E+03</pdfrwt>
<pdfrwt beam="2">  1       21 0.12848825E+00 0.52019783E+03</pdfrwt>
<totfact> 0.14034832E+03</totfact>
</mgrwt>
</event>
<event>
 4    1  0.4703494E-002  0.4514809E+03  0.7818608E-02  0.1027281E+00
         21   -1    0    0  503  502  0.00000000000E+00  0.00000000000E+00  0.19441622675E+04  0.19441622675E+04  0.00000000000E+00 0. -1.
         21   -1    0    0  501  503 -0.00000000000E+00 -0.00000000000E+00 -0.43950018146E+03  0.43950018146E+03  0.00000000000E+00 0. -1.
    9000007    1    1    2  501    0  0.89899099731E+02 -0.18908513191E+03 -0.28767108068E+03  0.53534071945E+03  0.40000000000E+03 0. -1.
   -9000007    1    1    2    0  502 -0.89899099731E+02  0.18908513191E+03  0.17923331667E+04  0.18483217295E+04  0.40000000000E+03 0. -1.
<mgrwt>
<rscale>  2 0.45148094E+03</rscale>
<asrwt>0</asrwt>
<pdfrwt beam="1">  1       21 0.29910188E+00 0.45148094E+03</pdfrwt>
<pdfrwt beam="2">  1       21 0.67615414E-01 0.45148094E+03</pdfrwt>
<totfact> 0.52660991E+01</totfact>
</mgrwt>
</event>
<event>
 4    1  0.4703494E-002  0.6876975E+03  0.7818608E-02  0.9738505E-01
         21   -1    0    0  503  502  0.00000000000E+00  0.00000000000E+00  0.90886741641E+03  0.90886741641E+03  0.00000000000E+00 0. -1.
         21   -1    0    0  501  503 -0.00000000000E+00 -0.00000000000E+00 -0.61062908472E+03  0.61062908472E+03  0.00000000000E+00 0.  1.
    9000007    1    1    2  501    0 -0.48797572881E+03  0.27350972956E+03 -0.14301201644E+03  0.70241036504E+03  0.40000000000E+03 0.  1.
   -9000007    1    1    2    0  502  0.48797572881E+03 -0.27350972956E+03  0.44125034812E+03  0.81708613609E+03  0.40000000000E+03 0. -1.
<mgrwt>
<rscale>  2 0.68769752E+03</rscale>
<asrwt>0</asrwt>
<pdfrwt beam="1">  1       21 0.13982576E+00 0.68769752E+03</pdfrwt>
<pdfrwt beam="2">  1       21 0.93942936E-01 0.68769752E+03</pdfrwt>
<totfact> 0.25641721E+02</totfact>
</mgrwt>
</event>
<event>
 4    1  0.4703494E-002  0.5142827E+03  0.7818608E-02  0.1010117E+00
         21   -1    0    0  501  502  0.00000000000E+00  0.00000000000E+00  0.26518924854E+03  0.26518924854E+03  0.00000000000E+00 0.  1.
         21   -1    0    0  502  503 -0.00000000000E+00 -0.00000000000E+00 -0.10162232238E+04  0.10162232238E+04  0.00000000000E+00 0.  1.
    9000007    1    1    2  501    0  0.25765554379E+03 -0.19519307545E+03 -0.28820418273E+03  0.58953232897E+03  0.40000000000E+03 0.  1.
   -9000007    1    1    2    0  503 -0.25765554379E+03  0.19519307545E+03 -0.46282979256E+03  0.69188014340E+03  0.40000000000E+03 0.  1.
<mgrwt>
<rscale>  2 0.51428272E+03</rscale>
<asrwt>0</asrwt>
<pdfrwt beam="1">  1       21 0.40798346E-01 0.51428272E+03</pdfrwt>
<pdfrwt beam="2">  1       21 0.15634203E+00 0.51428272E+03</pdfrwt>
<totfact> 0.12819871E+03</totfact>
</mgrwt>
</event>
<event>
 4    1  0.4703494E-002  0.4954133E+03  0.7818608E-02  0.1014983E+00
         21   -1    0    0  501  502  0.00000000000E+00  0.00000000000E+00  0.55194016444E+03  0.55194016444E+03  0.00000000000E+00 0.  1.
         21   -1    0    0  502  503 -0.00000000000E+00 -0.00000000000E+00 -0.58276114720E+03  0.58276114720E+03  0.00000000000E+00 0. -1.
    9000007    1    1    2  501    0  0.28627551443E+03 -0.58997226977E+02  0.26076194067E+03  0.55984920528E+03  0.40000000000E+03 0.  1.
   -9000007    1    1    2    0  503 -0.28627551443E+03  0.58997226977E+02 -0.29158292343E+03  0.57485210636E+03  0.40000000000E+03 0. -1.
<mgrwt>
<rscale>  2 0.49541331E+03</rscale>
<asrwt>0</asrwt>
<pdfrwt beam="1">  1       21 0.84913871E-01 0.49541331E+03</pdfrwt>
<pdfrwt beam="2">  1       21 0.89655561E-01 0.49541331E+03</pdfrwt>
<totfact> 0.10655383E+03</totfact>
</mgrwt>
</event>
<event>
 4    1  0.4703494E-002  0.4606221E+03  0.7818608E-02  0.1024601E+00
         21   -1    0    0  503  502  0.00000000000E+00  0.00000000000E+00  0.36568569195E+03  0.36568569195E+03  0.00000000000E+00 0. -1.
         21   -1    0    0  501  503 -0.00000000000E+00 -0.00000000000E+00 -0.90589665882E+03  0.90589665882E+03  0.00000000000E+00 0. -1.
    9000007    1    1    2  501    0 -0.22422458512E+03 -0.43543926637E+02 -0.65132783416E+03  0.79774725676E+03  0.40000000000E+03 0. -1.
   -9000007    1    1    2    0  502  0.22422458512E+03  0.43543926637E+02  0.11111686729E+03  0.47383509401E+03  0.40000000000E+03 0. -1.
<mgrwt>
<rscale>  2 0.46062212E+03</rscale>
<asrwt>0</asrwt>
<pdfrwt beam="1">  1       21 0.56259338E-01 0.46062212E+03</pdfrwt>
<pdfrwt beam="2">  1       21 0.13936872E+00 0.46062212E+03</pdfrwt>
<totfact> 0.90511061E+02</totfact>
</mgrwt>
</event>
<event>
 4    1  0.4703494E-002  0.4123167E+03  0.7818608E-02  0.1039596E+00
         21   -1    0    0  501  502  0.00000000000E+00  0.00000000000E+00  0.27889556118E+03  0.27889556118E+03  0.00000000000E+00 0. -1.
         21   -1    0    0  502  503 -0.00000000000E+00 -0.00000000000E+00 -0.60965280276E+03  0.60965280276E+03  0.00000000000E+00 0. -1.
    9000007    1    1    2  501    0  0.98755164629E+02 -0.15890705614E+02 -0.16006049418E+03  0.44229453858E+03  0.40000000000E+03 0.  1.
   -9000007    1    1    2    0  503 -0.98755164629E+02  0.15890705614E+02 -0.17069674740E+03  0.44625382535E+03  0.40000000000E+03 0.  1.
<mgrwt>
<rscale>  2 0.41231674E+03</rscale>
<asrwt>0</asrwt>
<pdfrwt beam="1">  1       21 0.42907009E-01 0.41231674E+03</pdfrwt>
<pdfrwt beam="2">  1       21 0.93792739E-01 0.41231674E+03</pdfrwt>
<totfact> 0.44282826E+03</totfact>
</mgrwt>
</event>
<event>
 4    1  0.4703494E-002  0.4461584E+03  0.7818608E-02  0.1028874E+00
         21   -1    0    0  501  502  0.00000000000E+00  0.00000000000E+00  0.45489581407E+03  0.45489581407E+03  0.00000000000E+00 0. -1.
         21   -1    0    0  502  503 -0.00000000000E+00 -0.00000000000E+00 -0.53023564082E+03  0.53023564082E+03  0.00000000000E+00 0. -1.
    9000007    1    1    2  501    0 -0.17616540798E+03  0.89571332118E+02 -0.24356464785E+03  0.50831192410E+03  0.40000000000E+03 0. -1.
   -9000007    1    1    2    0  503  0.17616540798E+03 -0.89571332118E+02  0.16822482110E+03  0.47681953078E+03  0.40000000000E+03 0. -1.
<mgrwt>
<rscale>  2 0.44615835E+03</rscale>
<asrwt>0</asrwt>
<pdfrwt beam="1">  1       21 0.69983972E-01 0.44615835E+03</pdfrwt>
<pdfrwt beam="2">  1       21 0.81574714E-01 0.44615835E+03</pdfrwt>
<totfact> 0.21117945E+03</totfact>
</mgrwt>
</event>
<event>
 4    1  0.4703494E-002  0.4384977E+03  0.7818608E-02  0.1031209E+00
         21   -1    0    0  503  502  0.00000000000E+00  0.00000000000E+00  0.31300570187E+03  0.31300570187E+03  0.00000000000E+00 0. -1.
         21   -1    0    0  501  503 -0.00000000000E+00 -0.00000000000E+00 -0.97001759024E+03  0.97001759024E+03  0.00000000000E+00 0. -1.
    9000007    1    1    2  501    0  0.17390324485E+03  0.45142787508E+02 -0.71698341417E+03  0.84044358885E+03  0.40000000000E+03 0. -1.
   -9000007    1    1    2    0  502 -0.17390324485E+03 -0.45142787508E+02  0.59971525799E+02  0.44257970326E+03  0.40000000000E+03 0. -1.
<mgrwt>
<rscale>  2 0.43849767E+03</rscale>
<asrwt>0</asrwt>
<pdfrwt beam="1">  1       21 0.48154723E-01 0.43849767E+03</pdfrwt>
<pdfrwt beam="2">  1       21 0.14923348E+00 0.43849767E+03</pdfrwt>
<totfact> 0.10609138E+03</totfact>
</mgrwt>
</event>
<event>
 4    1  0.4703494E-002  0.4415557E+03  0.7818608E-02  0.1030271E+00
         21   -1    0    0  501  502  0.00000000000E+00  0.00000000000E+00  0.24789248351E+03  0.24789248351E+03  0.00000000000E+00 0.  1.
         21   -1    0    0  502  503 -0.00000000000E+00 -0.00000000000E+00 -0.84643783203E+03  0.84643783203E+03  0.00000000000E+00 0.  1.
    9000007    1    1    2  501    0  0.18603320381E+03 -0.19054029586E+02 -0.15368876441E+03  0.46753785437E+03  0.40000000000E+03 0.  1.
   -9000007    1    1    2    0  503 -0.18603320381E+03  0.19054029586E+02 -0.44485658410E+03  0.62679246117E+03  0.40000000000E+03 0.  1.
<mgrwt>
<rscale>  2 0.44155567E+03</rscale>
<asrwt>0</asrwt>
<pdfrwt beam="1">  1       21 0.38137305E-01 0.44155567E+03</pdfrwt>
<pdfrwt beam="2">  1       21 0.13022120E+00 0.44155567E+03</pdfrwt>
<totfact> 0.24700019E+03</totfact>
</mgrwt>
</event>
<event>
 4    1  0.4703494E-002  0.4001371E+03  0.7818608E-02  0.1043732E+00
         21   -1    0    0  501  502  0.00000000000E+00  0.00000000000E+00  0.21739466541E+03  0.21739466541E+03  0.00000000000E+00 0.  1.
         21   -1    0    0  502  503 -0.00000000000E+00 -0.00000000000E+00 -0.27656006274E+04  0.27656006274E+04  0.00000000000E+00 0.  1.
    9000007    1    1    2  501    0 -0.81649435180E+01 -0.65610027664E+01  0.34542080435E+01  0.40015202688E+03  0.40000000000E+03 0.  1.
   -9000007    1    1    2    0  503  0.81649435180E+01  0.65610027664E+01 -0.25516601700E+04  0.25828432660E+04  0.40000000000E+03 0.  1.
<mgrwt>
<rscale>  2 0.40013712E+03</rscale>
<asrwt>0</asrwt>
<pdfrwt beam="1">  1       21 0.33445333E-01 0.40013712E+03</pdfrwt>
<pdfrwt beam="2">  1       21 0.42547702E+00 0.40013712E+03</pdfrwt>
<totfact> 0.39711101E+01</totfact>
</mgrwt>
</event>
<event>
 4    1  0.4703494E-002  0.4006390E+03  0.7818608E-02  0.1043559E+00
         21   -1    0    0  503  502  0.00000000000E+00  0.00000000000E+00  0.38554952121E+03  0.38554952121E+03  0.00000000000E+00 0. -1.
         21   -1    0    0  501  503 -0.00000000000E+00 -0.00000000000E+00 -0.82040996901E+03  0.82040996901E+03  0.00000000000E+00 0. -1.
    9000007    1    1    2  501    0  0.13698661707E+02  0.17998719473E+02 -0.64061185600E+03  0.75557604335E+03  0.40000000000E+03 0. -1.
   -9000007    1    1    2    0  502 -0.13698661707E+02 -0.17998719473E+02  0.20575140820E+03  0.45038344687E+03  0.40000000000E+03 0. -1.
<mgrwt>
<rscale>  2 0.40063900E+03</rscale>
<asrwt>0</asrwt>
<pdfrwt beam="1">  1       21 0.59315312E-01 0.40063900E+03</pdfrwt>
<pdfrwt beam="2">  1       21 0.12621692E+00 0.40063900E+03</pdfrwt>
<totfact> 0.10727752E+03</totfact>
</mgrwt>
</event>
<event>
 4    1  0.4703494E-002  0.5009427E+03  0.7818608E-02  0.1013533E+00
         21   -1    0    0  503  502  0.00000000000E+00  0.00000000000E+00  0.41435461097E+03  0.41435461097E+03  0.00000000000E+00 0.  1.
         21   -1    0    0  501  503 -0.00000000000E+00 -0.00000000000E+00 -0.64440284317E+03  0.64440284317E+03  0.00000000000E+00 0. -1.
    9000007    1    1    2  501    0  0.11837637242E+03  0.27736377130E+03  0.14836667710E+02  0.50116240271E+03  0.40000000000E+03 0.  1.
   -9000007    1    1    2    0  502 -0.11837637242E+03 -0.27736377130E+03 -0.24488489991E+03  0.55759505143E+03  0.40000000000E+03 0.  1.
<mgrwt>
<rscale>  2 0.50094274E+03</rscale>
<asrwt>0</asrwt>
<pdfrwt beam="1">  1       21 0.63746863E-01 0.50094274E+03</pdfrwt>
<pdfrwt beam="2">  1       21 0.99138899E-01 0.50094274E+03</pdfrwt>
<totfact> 0.16062576E+03</totfact>
</mgrwt>
</event>
<event>
 4    1  0.4703494E-002  0.4699373E+03  0.7818608E-02  0.1021938E+00
         21   -1    0    0  501  502  0.00000000000E+00  0.00000000000E+00  0.44821446796E+03  0.44821446796E+03  0.00000000000E+00 0. -1.
         21   -1    0    0  502  503 -0.00000000000E+00 -0.00000000000E+00 -0.88361810398E+03  0.88361810398E+03  0.00000000000E+00 0.  1.
    9000007    1    1    2  501    0 -0.51623685716E+02 -0.24119715421E+03  0.22521587861E+03  0.52111732278E+03  0.40000000000E+03 0. -1.
   -9000007    1    1    2    0  503  0.51623685716E+02  0.24119715421E+03 -0.66061951463E+03  0.81071524917E+03  0.40000000000E+03 0.  1.
<mgrwt>
<rscale>  2 0.46993731E+03</rscale>
<asrwt>0</asrwt>
<pdfrwt beam="1">  1       21 0.68956071E-01 0.46993731E+03</pdfrwt>
<pdfrwt beam="2">  1       21 0.13594125E+00 0.46993731E+03</pdfrwt>
<totfact> 0.61446417E+02</totfact>
</mgrwt>
</event>
<event>
 4    1  0.4703494E-002  0.4465203E+03  0.7818608E-02  0.1028765E+00
         21   -1    0    0  503  502  0.00000000000E+00  0.00000000000E+00  0.10856042425E+04  0.10856042425E+04  0.00000000000E+00 0.  1.
         21   -1    0    0  501  503 -0.00000000000E+00 -0.00000000000E+00 -0.29513096767E+03  0.29513096767E+03  0.00000000000E+00 0.  1.
    9000007    1    1    2  501    0 -0.18781842420E+03 -0.64067145562E+02 -0.29047677977E+02  0.44746410717E+03  0.40000000000E+03 0.  1.
   -9000007    1    1    2    0  502  0.18781842420E+03  0.64067145562E+02  0.81952095280E+03  0.93327110300E+03  0.40000000000E+03 0.  1.
<mgrwt>
<rscale>  2 0.44652028E+03</rscale>
<asrwt>0</asrwt>
<pdfrwt beam="1">  1       21 0.16701603E+00 0.44652028E+03</pdfrwt>
<pdfrwt beam="2">  1       21 0.45404765E-01 0.44652028E+03</pdfrwt>
<totfact> 0.87611913E+02</totfact>
</mgrwt>
</event>
<event>
 4    1  0.4703494E-002  0.4124194E+03  0.7818608E-02  0.1039562E+00
         21   -1    0    0  503  502  0.00000000000E+00  0.00000000000E+00  0.16755986220E+04  0.16755986220E+04  0.00000000000E+00 0.  1.
         21   -1    0    0  501  503 -0.00000000000E+00 -0.00000000000E+00 -0.23413115271E+03  0.23413115271E+03  0.00000000000E+00 0. -1.
    9000007    1    1    2  501    0 -0.32491614739E+02  0.95047736433E+02  0.20812117252E+01  0.41242467030E+03  0.40000000000E+03 0. -1.
   -9000007    1    1    2    0  502  0.32491614739E+02 -0.95047736433E+02  0.14393862575E+04  0.14973051044E+04  0.40000000000E+03 0.  1.
<mgrwt>
<rscale>  2 0.41241942E+03</rscale>
<asrwt>0</asrwt>
<pdfrwt beam="1">  1       21 0.25778440E+00 0.41241942E+03</pdfrwt>
<pdfrwt beam="2">  1       21 0.36020178E-01 0.41241942E+03</pdfrwt>
<totfact> 0.36521423E+02</totfact>
</mgrwt>
</event>
<event>
 4    1  0.4703494E-002  0.4286459E+03  0.7818608E-02  0.1034289E+00
         21   -1    0    0  501  502  0.00000000000E+00  0.00000000000E+00  0.67495191795E+03  0.67495191795E+03  0.00000000000E+00 0.  1.
         21   -1    0    0  502  503 -0.00000000000E+00 -0.00000000000E+00 -0.30712831895E+03  0.30712831895E+03  0.00000000000E+00 0.  1.
    9000007    1    1    2  501    0 -0.10546803292E+03  0.11231133609E+03  0.34945209047E+03  0.55304078124E+03  0.40000000000E+03 0.  1.
   -9000007    1    1    2    0  503  0.10546803292E+03 -0.11231133609E+03  0.18371508521E+02  0.42903945565E+03  0.40000000000E+03 0.  1.
<mgrwt>
<rscale>  2 0.42864594E+03</rscale>
<asrwt>0</asrwt>
<pdfrwt beam="1">  1       21 0.10383876E+00 0.42864594E+03</pdfrwt>
<pdfrwt beam="2">  1       21 0.47250511E-01 0.42864594E+03</pdfrwt>
<totfact> 0.28128700E+03</totfact>
</mgrwt>
</event>
<event>
 4    1  0.4703494E-002  0.4133091E+03  0.7818608E-02  0.1039266E+00
         21   -1    0    0  501  502  0.00000000000E+00  0.00000000000E+00  0.22581879130E+03  0.22581879130E+03  0.00000000000E+00 0.  1.
         21   -1    0    0  502  503 -0.00000000000E+00 -0.00000000000E+00 -0.11247260432E+04  0.11247260432E+04  0.00000000000E+00 0.  1.
    9000007    1    1    2  501    0 -0.10543719276E+02 -0.10350470323E+03 -0.63057709677E+02  0.41809169850E+03  0.40000000000E+03 0.  1.
   -9000007    1    1    2    0  503  0.10543719276E+02  0.10350470323E+03 -0.83584954222E+03  0.93245313600E+03  0.40000000000E+03 0.  1.
<mgrwt>
<rscale>  2 0.41330908E+03</rscale>
<asrwt>0</asrwt>
<pdfrwt beam="1">  1       21 0.34741353E-01 0.41330908E+03</pdfrwt>
<pdfrwt beam="2">  1       21 0.17303477E+00 0.41330908E+03</pdfrwt>
<totfact> 0.13947611E+03</totfact>
</mgrwt>
</event>
<event>
 4    1  0.4703494E-002  0.4150796E+03  0.7818608E-02  0.1038680E+00
         21   -1    0    0  501  502  0.00000000000E+00  0.00000000000E+00  0.24294594686E+04  0.24294594686E+04  0.00000000000E+00 0.  1.
         21   -1    0    0  502  503 -0.00000000000E+00 -0.00000000000E+00 -0.74705389434E+02  0.74705389434E+02  0.00000000000E+00 0.  1.
    9000007    1    1    2  501    0  0.98616825891E+02 -0.50653805391E+02  0.14593179454E+04  0.15172013551E+04  0.40000000000E+03 0.  1.
   -9000007    1    1    2    0  503 -0.98616825891E+02  0.50653805391E+02  0.89543613382E+03  0.98696350293E+03  0.40000000000E+03 0.  1.
<mgrwt>
<rscale>  2 0.41507961E+03</rscale>
<asrwt>0</asrwt>
<pdfrwt beam="1">  1       21 0.37376293E+00 0.41507961E+03</pdfrwt>
<pdfrwt beam="2">  1       21 0.11493139E-01 0.41507961E+03</pdfrwt>
<totfact> 0.64030406E+02</totfact>
</mgrwt>
</event>
<event>
 4    1  0.4703494E-002  0.4644516E+03  0.7818608E-02  0.1023498E+00
         21   -1    0    0  503  502  0.00000000000E+00  0.00000000000E+00  0.43986793477E+03  0.43986793477E+03  0.00000000000E+00 0. -1.
         21   -1    0    0  501  503 -0.00000000000E+00 -0.00000000000E+00 -0.49059841890E+03  0.49059841890E+03  0.00000000000E+00 0. -1.
    9000007    1    1    2  501    0 -0.15300420733E+03 -0.17973589459E+03 -0.34502102297E+02  0.46573133277E+03  0.40000000000E+03 0. -1.
   -9000007    1    1    2    0  502  0.15300420733E+03  0.17973589459E+03 -0.16228381832E+02  0.46473502089E+03  0.40000000000E+03 0. -1.
<mgrwt>
<rscale>  2 0.46445159E+03</rscale>
<asrwt>0</asrwt>
<pdfrwt beam="1">  1       21 0.67671990E-01 0.46445159E+03</pdfrwt>
<pdfrwt beam="2">  1       21 0.75476680E-01 0.46445159E+03</pdfrwt>
<totfact> 0.27053094E+03</totfact>
</mgrwt>
</event>
<event>
 4    1  0.4703494E-002  0.4704137E+03  0.7818608E-02  0.1021804E+00
         21   -1    0    0  503  502  0.00000000000E+00  0.00000000000E+00  0.21180710800E+04  0.21180710800E+04  0.00000000000E+00 0. -1.
         21   -1    0    0  501  503 -0.00000000000E+00 -0.00000000000E+00 -0.13258075000E+03  0.13258075000E+03  0.00000000000E+00 0. -1.
    9000007    1    1    2  501    0 -0.19352260763E+03  0.15439567608E+03  0.47463426357E+03  0.66825646919E+03  0.40000000000E+03 0. -1.
   -9000007    1    1    2    0  502  0.19352260763E+03 -0.15439567608E+03  0.15108560664E+04  0.15823953608E+04  0.40000000000E+03 0. -1.
<mgrwt>
<rscale>  2 0.47041367E+03</rscale>
<asrwt>0</asrwt>
<pdfrwt beam="1">  1       21 0.32585706E+00 0.47041367E+03</pdfrwt>
<pdfrwt beam="2">  1       21 0.20397040E-01 0.47041367E+03</pdfrwt>
<totfact> 0.41943338E+02</totfact>
</mgrwt>
</event>
<event>
 4    1  0.4703494E-002  0.5225029E+03  0.7818608E-02  0.1008067E+00
         21   -1    0    0  503  502  0.00000000000E+00  0.00000000000E+00  0.47219436129E+03  0.47219436129E+03  0.00000000000E+00 0.  1.
         21   -1    0    0  501  503 -0.00000000000E+00 -0.00000000000E+00 -0.61143459387E+03  0.61143459387E+03  0.00000000000E+00 0. -1.
    9000007    1    1    2  501    0 -0.75133340471E+01  0.33608453110E+03  0.56753889323E+02  0.52557612787E+03  0.40000000000E+03 0.  1.
   -9000007    1    1    2    0  502  0.75133340471E+01 -0.33608453110E+03 -0.19599412191E+03  0.55805282730E+03  0.40000000000E+03 0.  1.
<mgrwt>
<rscale>  2 0.52250288E+03</rscale>
<asrwt>0</asrwt>
<pdfrwt beam="1">  1       21 0.72645287E-01 0.52250288E+03</pdfrwt>
<pdfrwt beam="2">  1       21 0.94066860E-01 0.52250288E+03</pdfrwt>
<totfact> 0.13495046E+03</totfact>
</mgrwt>
</event>
<event>
 4    1  0.4703494E-002  0.4143378E+03  0.7818608E-02  0.1038925E+00
         21   -1    0    0  503  502  0.00000000000E+00  0.00000000000E+00  0.45172629579E+03  0.45172629579E+03  0.00000000000E+00 0.  1.
         21   -1    0    0  501  503 -0.00000000000E+00 -0.00000000000E+00 -0.42488302410E+03  0.42488302410E+03  0.00000000000E+00 0.  1.
    9000007    1    1    2  501    0 -0.56008915859E+02 -0.92405697283E+02 -0.12896528002E+03  0.43394452986E+03  0.40000000000E+03 0.  1.
   -9000007    1    1    2    0  502  0.56008915859E+02  0.92405697283E+02  0.15580855171E+03  0.44266479003E+03  0.40000000000E+03 0.  1.
<mgrwt>
<rscale>  2 0.41433780E+03</rscale>
<asrwt>0</asrwt>
<pdfrwt beam="1">  1       21 0.69496354E-01 0.41433780E+03</pdfrwt>
<pdfrwt beam="2">  1       21 0.65366619E-01 0.41433780E+03</pdfrwt>
<totfact> 0.35877597E+03</totfact>
</mgrwt>
</event>
<event>
 4    1  0.4703494E-002  0.4261911E+03  0.7818608E-02  0.1035070E+00
         21   -1    0    0  503  502  0.00000000000E+00  0.00000000000E+00  0.25972980818E+03  0.25972980818E+03  0.00000000000E+00 0. -1.
         21   -1    0    0  501  503 -0.00000000000E+00 -0.00000000000E+00 -0.85817269617E+03  0.85817269617E+03  0.00000000000E+00 0.  1.
    9000007    1    1    2  501    0 -0.11177499988E+03  0.95630567660E+02 -0.53969074224E+03  0.68768085136E+03  0.40000000000E+03 0.  1.
   -9000007    1    1    2    0  502  0.11177499988E+03 -0.95630567660E+02 -0.58752145742E+02  0.43022165299E+03  0.40000000000E+03 0. -1.
<mgrwt>
<rscale>  2 0.42619110E+03</rscale>
<asrwt>0</asrwt>
<pdfrwt beam="1">  1       21 0.39958431E-01 0.42619110E+03</pdfrwt>
<pdfrwt beam="2">  1       21 0.13202657E+00 0.42619110E+03</pdfrwt>
<totfact> 0.21789471E+03</totfact>
</mgrwt>
</event>
<event>
 4    1  0.4703494E-002  0.4356834E+03  0.7818608E-02  0.1032080E+00
         21   -1    0    0  501  502  0.00000000000E+00  0.00000000000E+00  0.15871708759E+03  0.15871708759E+03  0.00000000000E+00 0. -1.
         21   -1    0    0  502  503 -0.00000000000E+00 -0.00000000000E+00 -0.11964891943E+04  0.11964891943E+04  0.00000000000E+00 0. -1.
    9000007    1    1    2  501    0  0.14295862622E+03  0.96865298269E+02 -0.53307131020E+03  0.68846574103E+03  0.40000000000E+03 0.  1.
   -9000007    1    1    2    0  503 -0.14295862622E+03 -0.96865298269E+02 -0.50470079647E+03  0.66674054082E+03  0.40000000000E+03 0.  1.
<mgrwt>
<rscale>  2 0.43568343E+03</rscale>
<asrwt>0</asrwt>
<pdfrwt beam="1">  1       21 0.24418013E-01 0.43568343E+03</pdfrwt>
<pdfrwt beam="2">  1       21 0.18407526E+00 0.43568343E+03</pdfrwt>
<totfact> 0.23177369E+03</totfact>
</mgrwt>
</event>
<event>
 4    1  0.4703494E-002  0.4885311E+03  0.7818608E-02  0.1016817E+00
         21   -1    0    0  503  502  0.00000000000E+00  0.00000000000E+00  0.84945557520E+03  0.84945557520E+03  0.00000000000E+00 0.  1.
         21   -1    0    0  501  503 -0.00000000000E+00 -0.00000000000E+00 -0.67598447003E+03  0.67598447003E+03  0.00000000000E+00 0.  1.
    9000007    1    1    2  501    0 -0.26398235264E+03  0.94741548169E+02 -0.49631880201E+03  0.69641582168E+03  0.40000000000E+03 0.  1.
   -9000007    1    1    2    0  502  0.26398235264E+03 -0.94741548169E+02  0.66978990719E+03  0.82902422355E+03  0.40000000000E+03 0.  1.
<mgrwt>
<rscale>  2 0.48853111E+03</rscale>
<asrwt>0</asrwt>
<pdfrwt beam="1">  1       21 0.13068547E+00 0.48853111E+03</pdfrwt>
<pdfrwt beam="2">  1       21 0.10399761E+00 0.48853111E+03</pdfrwt>
<totfact> 0.25771715E+02</totfact>
</mgrwt>
</event>
<event>
 4    1  0.4703494E-002  0.5409726E+03  0.7818608E-02  0.1003605E+00
         21   -1    0    0  501  502  0.00000000000E+00  0.00000000000E+00  0.54769319826E+03  0.54769319826E+03  0.00000000000E+00 0. -1.
         21   -1    0    0  502  503 -0.00000000000E+00 -0.00000000000E+00 -0.54726225614E+03  0.54726225614E+03  0.00000000000E+00 0.  1.
    9000007    1    1    2  501    0 -0.34210537280E+03 -0.12496087162E+03 -0.83930300757E+02  0.54744460991E+03  0.40000000000E+03 0.  1.
   -9000007    1    1    2    0  503  0.34210537280E+03  0.12496087162E+03  0.84361242875E+02  0.54751084449E+03  0.40000000000E+03 0. -1.
<mgrwt>
<rscale>  2 0.54097256E+03</rscale>
<asrwt>0</asrwt>
<pdfrwt beam="1">  1       21 0.84260492E-01 0.54097256E+03</pdfrwt>
<pdfrwt beam="2">  1       21 0.84194193E-01 0.54097256E+03</pdfrwt>
<totfact> 0.12388263E+03</totfact>
</mgrwt>
</event>
<event>
 4    1  0.4703494E-002  0.4406284E+03  0.7818608E-02  0.1030554E+00
         21   -1    0    0  503  502  0.00000000000E+00  0.00000000000E+00  0.36203796572E+03  0.36203796572E+03  0.00000000000E+00 0. -1.
         21   -1    0    0  501  503 -0.00000000000E+00 -0.00000000000E+00 -0.53818809245E+03  0.53818809245E+03  0.00000000000E+00 0. -1.
    9000007    1    1    2  501    0 -0.15063518389E+03 -0.10706282888E+03 -0.61267805282E+02  0.44486756672E+03  0.40000000000E+03 0.  1.
   -9000007    1    1    2    0  502  0.15063518389E+03  0.10706282888E+03 -0.11488232145E+03  0.45535849145E+03  0.40000000000E+03 0.  1.
<mgrwt>
<rscale>  2 0.44062842E+03</rscale>
<asrwt>0</asrwt>
<pdfrwt beam="1">  1       21 0.55698148E-01 0.44062842E+03</pdfrwt>
<pdfrwt beam="2">  1       21 0.82798169E-01 0.44062842E+03</pdfrwt>
<totfact> 0.33829096E+03</totfact>
</mgrwt>
</event>
<event>
 4    1  0.4703494E-002  0.4448983E+03  0.7818608E-02  0.1029254E+00
         21   -1    0    0  501  502  0.00000000000E+00  0.00000000000E+00  0.36797966629E+03  0.36797966629E+03  0.00000000000E+00 0. -1.
         21   -1    0    0  502  503 -0.00000000000E+00 -0.00000000000E+00 -0.53850873631E+03  0.53850873631E+03  0.00000000000E+00 0. -1.
    9000007    1    1    2  501    0  0.19187016042E+03 -0.33471186031E+02 -0.10056387841E+03  0.45612232175E+03  0.40000000000E+03 0. -1.
   -9000007    1    1    2    0  503 -0.19187016042E+03  0.33471186031E+02 -0.69965191612E+02  0.45036608086E+03  0.40000000000E+03 0. -1.
<mgrwt>
<rscale>  2 0.44489828E+03</rscale>
<asrwt>0</asrwt>
<pdfrwt beam="1">  1       21 0.56612256E-01 0.44489828E+03</pdfrwt>
<pdfrwt beam="2">  1       21 0.82847498E-01 0.44489828E+03</pdfrwt>
<totfact> 0.32562999E+03</totfact>
</mgrwt>
</event>
<event>
 4    1  0.4703494E-002  0.5173221E+03  0.7818608E-02  0.1009354E+00
         21   -1    0    0  503  502  0.00000000000E+00  0.00000000000E+00  0.12816361894E+03  0.12816361894E+03  0.00000000000E+00 0.  1.
         21   -1    0    0  501  503 -0.00000000000E+00 -0.00000000000E+00 -0.20890530461E+04  0.20890530461E+04  0.00000000000E+00 0. -1.
    9000007    1    1    2  501    0 -0.32692013308E+03  0.27301232059E+02 -0.95712510354E+03  0.10879846481E+04  0.40000000000E+03 0.  1.
   -9000007    1    1    2    0  502  0.32692013308E+03 -0.27301232059E+02 -0.10037643236E+04  0.11292320169E+04  0.40000000000E+03 0.  1.
<mgrwt>
<rscale>  2 0.51732208E+03</rscale>
<asrwt>0</asrwt>
<pdfrwt beam="1">  1       21 0.19717480E-01 0.51732208E+03</pdfrwt>
<pdfrwt beam="2">  1       21 0.32139277E+00 0.51732208E+03</pdfrwt>
<totfact> 0.46443391E+02</totfact>
</mgrwt>
</event>
<event>
 4    1  0.4703494E-002  0.4118624E+03  0.7818608E-02  0.1039748E+00
         21   -1    0    0  503  502  0.00000000000E+00  0.00000000000E+00  0.21986601516E+03  0.21986601516E+03  0.00000000000E+00 0.  1.
         21   -1    0    0  501  503 -0.00000000000E+00 -0.00000000000E+00 -0.92295323800E+03  0.92295323800E+03  0.00000000000E+00 0.  1.
    9000007    1    1    2  501    0  0.58710575247E+02 -0.78636363910E+02 -0.12008622838E+03  0.42901201804E+03  0.40000000000E+03 0.  1.
   -9000007    1    1    2    0  502 -0.58710575247E+02  0.78636363910E+02 -0.58300099446E+03  0.71380723513E+03  0.40000000000E+03 0.  1.
<mgrwt>
<rscale>  2 0.41186237E+03</rscale>
<asrwt>0</asrwt>
<pdfrwt beam="1">  1       21 0.33825540E-01 0.41186237E+03</pdfrwt>
<pdfrwt beam="2">  1       21 0.14199281E+00 0.41186237E+03</pdfrwt>
<totfact> 0.25396558E+03</totfact>
</mgrwt>
</event>
<event>
 4    1  0.4703494E-002  0.4228287E+03  0.7818608E-02  0.1036150E+00
         21   -1    0    0  503  502  0.00000000000E+00  0.00000000000E+00  0.11854826476E+03  0.11854826476E+03  0.00000000000E+00 0. -1.
         21   -1    0    0  501  503 -0.00000000000E+00 -0.00000000000E+00 -0.16011273204E+04  0.16011273204E+04  0.00000000000E+00 0. -1.
    9000007    1    1    2  501    0 -0.11223749570E+03 -0.78656745776E+02 -0.94853225300E+03  0.10385073780E+04  0.40000000000E+03 0. -1.
   -9000007    1    1    2    0  502  0.11223749570E+03  0.78656745776E+02 -0.53404680263E+03  0.68116820719E+03  0.40000000000E+03 0. -1.
<mgrwt>
<rscale>  2 0.42282873E+03</rscale>
<asrwt>0</asrwt>
<pdfrwt beam="1">  1       21 0.18238196E-01 0.42282873E+03</pdfrwt>
<pdfrwt beam="2">  1       21 0.24632726E+00 0.42282873E+03</pdfrwt>
<totfact> 0.16098295E+03</totfact>
</mgrwt>
</event>
<event>
 4    1  0.4703494E-002  0.4016341E+03  0.7818608E-02  0.1043215E+00
         21   -1    0    0  503  502  0.00000000000E+00  0.00000000000E+00  0.37266837408E+03  0.37266837408E+03  0.00000000000E+00 0.  1.
         21   -1    0    0  501  503 -0.00000000000E+00 -0.00000000000E+00 -0.11518548137E+04  0.11518548137E+04  0.00000000000E+00 0.  1.
    9000007    1    1    2  501    0  0.13236023577E+02  0.33686760169E+02 -0.99183471311E+03  0.10700682634E+04  0.40000000000E+03 0.  1.
   -9000007    1    1    2    0  502 -0.13236023577E+02 -0.33686760169E+02  0.21264827347E+03  0.45445492443E+03  0.40000000000E+03 0.  1.
<mgrwt>
<rscale>  2 0.40163415E+03</rscale>
<asrwt>0</asrwt>
<pdfrwt beam="1">  1       21 0.57333596E-01 0.40163415E+03</pdfrwt>
<pdfrwt beam="2">  1       21 0.17720843E+00 0.40163415E+03</pdfrwt>
<totfact> 0.45998087E+02</totfact>
</mgrwt>
</event>
<event>
 4    1  0.4703494E-002  0.4862829E+03  0.7818608E-02  0.1017423E+00
         21   -1    0    0  501  502  0.00000000000E+00  0.00000000000E+00  0.31018260587E+03  0.31018260587E+03  0.00000000000E+00 0. -1.
         21   -1    0    0  502  503 -0.00000000000E+00 -0.00000000000E+00 -0.11531448150E+04  0.11531448150E+04  0.00000000000E+00 0.  1.
    9000007    1    1    2  501    0  0.26230627905E+03  0.87558167403E+02  0.44487302875E+01  0.48630320573E+03  0.40000000000E+03 0. -1.
   -9000007    1    1    2    0  503 -0.26230627905E+03 -0.87558167403E+02 -0.84741093942E+03  0.97702421513E+03  0.40000000000E+03 0.  1.
<mgrwt>
<rscale>  2 0.48628286E+03</rscale>
<asrwt>0</asrwt>
<pdfrwt beam="1">  1       21 0.47720401E-01 0.48628286E+03</pdfrwt>
<pdfrwt beam="2">  1       21 0.17740689E+00 0.48628286E+03</pdfrwt>
<totfact> 0.65201162E+02</totfact>
</mgrwt>
</event>
<event>
 4    1  0.4703494E-002  0.4237795E+03  0.7818608E-02  0.1035843E+00
         21   -1    0    0  503  502  0.00000000000E+00  0.00000000000E+00  0.13641691680E+04  0.13641691680E+04  0.00000000000E+00 0. -1.
         21   -1    0    0  501  503 -0.00000000000E+00 -0.00000000000E+00 -0.13220495184E+03  0.13220495184E+03  0.00000000000E+00 0.  1.
    9000007    1    1    2  501    0  0.97606315917E+02  0.10031007190E+03  0.56738706681E+03  0.70817878182E+03  0.40000000000E+03 0.  1.
   -9000007    1    1    2    0  502 -0.97606315917E+02 -0.10031007190E+03  0.66457714931E+03  0.78819533798E+03  0.40000000000E+03 0. -1.
<mgrwt>
<rscale>  2 0.42377955E+03</rscale>
<asrwt>0</asrwt>
<pdfrwt beam="1">  1       21 0.20987217E+00 0.42377955E+03</pdfrwt>
<pdfrwt beam="2">  1       21 0.20339224E-01 0.42377955E+03</pdfrwt>
<totfact> 0.22218127E+03</totfact>
</mgrwt>
</event>
<event>
 4    1  0.4703494E-002  0.4027802E+03  0.7818608E-02  0.1042821E+00
         21   -1    0    0  501  502  0.00000000000E+00  0.00000000000E+00  0.26190628187E+03  0.26190628187E+03  0.00000000000E+00 0. -1.
         21   -1    0    0  502  503 -0.00000000000E+00 -0.00000000000E+00 -0.79040655270E+03  0.79040655270E+03  0.00000000000E+00 0. -1.
    9000007    1    1    2  501    0  0.46653886886E+02  0.74393267802E+01 -0.19534804107E+02  0.40325368853E+03  0.40000000000E+03 0.  1.
   -9000007    1    1    2    0  503 -0.46653886886E+02 -0.74393267802E+01 -0.50896546672E+03  0.64905914604E+03  0.40000000000E+03 0.  1.
<mgrwt>
<rscale>  2 0.40278025E+03</rscale>
<asrwt>0</asrwt>
<pdfrwt beam="1">  1       21 0.40293275E-01 0.40278025E+03</pdfrwt>
<pdfrwt beam="2">  1       21 0.12160101E+00 0.40278025E+03</pdfrwt>
<totfact> 0.26723159E+03</totfact>
</mgrwt>
</event>
<event>
 4    1  0.4703494E-002  0.4598201E+03  0.7818608E-02  0.1024833E+00
         21   -1    0    0  503  502  0.00000000000E+00  0.00000000000E+00  0.37018999462E+03  0.37018999462E+03  0.00000000000E+00 0. -1.
         21   -1    0    0  501  503 -0.00000000000E+00 -0.00000000000E+00 -0.68996550287E+03  0.68996550287E+03  0.00000000000E+00 0.  1.
    9000007    1    1    2  501    0  0.22118333109E+03 -0.50124348259E+02 -0.37985598814E+03  0.59642693431E+03  0.40000000000E+03 0.  1.
   -9000007    1    1    2    0  502 -0.22118333109E+03  0.50124348259E+02  0.60080479893E+02  0.46372856317E+03  0.40000000000E+03 0. -1.
<mgrwt>
<rscale>  2 0.45982009E+03</rscale>
<asrwt>0</asrwt>
<pdfrwt beam="1">  1       21 0.56952307E-01 0.45982009E+03</pdfrwt>
<pdfrwt beam="2">  1       21 0.10614854E+00 0.45982009E+03</pdfrwt>
<totfact> 0.17662417E+03</totfact>
</mgrwt>
</event>
<event>
 4    1  0.4703494E-002  0.4370732E+03  0.7818608E-02  0.1031649E+00
         21   -1    0    0  503  502  0.00000000000E+00  0.00000000000E+00  0.78572181048E+03  0.78572181048E+03  0.00000000000E+00 0.  1.
         21   -1    0    0  501  503 -0.00000000000E+00 -0.00000000000E+00 -0.30261336444E+03  0.30261336444E+03  0.00000000000E+00 0.  1.
    9000007    1    1    2  501    0  0.13523360662E+03 -0.11289296955E+03  0.29468673545E+00  0.43707326362E+03  0.40000000000E+03 0.  1.
   -9000007    1    1    2    0  502 -0.13523360662E+03  0.11289296955E+03  0.48281375930E+03  0.65126191129E+03  0.40000000000E+03 0.  1.
<mgrwt>
<rscale>  2 0.43707316E+03</rscale>
<asrwt>0</asrwt>
<pdfrwt beam="1">  1       21 0.12088028E+00 0.43707316E+03</pdfrwt>
<pdfrwt beam="2">  1       21 0.46555902E-01 0.43707316E+03</pdfrwt>
<totfact> 0.19810788E+03</totfact>
</mgrwt>
</event>
<event>
 4    1  0.4703494E-002  0.4314354E+03  0.7818608E-02  0.1033407E+00
         21   -1    0    0  501  502  0.00000000000E+00  0.00000000000E+00  0.43514700715E+03  0.43514700715E+03  0.00000000000E+00 0.  1.
         21   -1    0    0  502  503 -0.00000000000E+00 -0.00000000000E+00 -0.52350313416E+03  0.52350313416E+03  0.00000000000E+00 0.  1.
    9000007    1    1    2  501    0 -0.14342498299E+03  0.74604284851E+02  0.16081281217E+03  0.46043162970E+03  0.40000000000E+03 0.  1.
   -9000007    1    1    2    0  503  0.14342498299E+03 -0.74604284851E+02 -0.24916893918E+03  0.49821851162E+03  0.40000000000E+03 0.  1.
<mgrwt>
<rscale>  2 0.43143542E+03</rscale>
<asrwt>0</asrwt>
<pdfrwt beam="1">  1       21 0.66945693E-01 0.43143542E+03</pdfrwt>
<pdfrwt beam="2">  1       21 0.80538944E-01 0.43143542E+03</pdfrwt>
<totfact> 0.24161234E+03</totfact>
</mgrwt>
</event>
<event>
 4    1  0.4703494E-002  0.4944369E+03  0.7818608E-02  0.1015241E+00
         21   -1    0    0  503  502  0.00000000000E+00  0.00000000000E+00  0.52635097925E+03  0.52635097925E+03  0.00000000000E+00 0.  1.
         21   -1    0    0  501  503 -0.00000000000E+00 -0.00000000000E+00 -0.50473186699E+03  0.50473186699E+03  0.00000000000E+00 0.  1.
    9000007    1    1    2  501    0  0.13232155158E+03  0.25876412363E+03 -0.13481863917E+03  0.51248798050E+03  0.40000000000E+03 0.  1.
   -9000007    1    1    2    0  502 -0.13232155158E+03 -0.25876412363E+03  0.15643775143E+03  0.51859486573E+03  0.40000000000E+03 0.  1.
<mgrwt>
<rscale>  2 0.49443692E+03</rscale>
<asrwt>0</asrwt>
<pdfrwt beam="1">  1       21 0.80977073E-01 0.49443692E+03</pdfrwt>
<pdfrwt beam="2">  1       21 0.77651057E-01 0.49443692E+03</pdfrwt>
<totfact> 0.16660093E+03</totfact>
</mgrwt>
</event>
<event>
 4    1  0.4703494E-002  0.4676155E+03  0.7818608E-02  0.1022595E+00
         21   -1    0    0  501  502  0.00000000000E+00  0.00000000000E+00  0.18742971161E+03  0.18742971161E+03  0.00000000000E+00 0.  1.
         21   -1    0    0  502  503 -0.00000000000E+00 -0.00000000000E+00 -0.12551060059E+04  0.12551060059E+04  0.00000000000E+00 0.  1.
    9000007    1    1    2  501    0 -0.19827278148E+03 -0.13911204385E+03 -0.34235607787E+03  0.57954459766E+03  0.40000000000E+03 0.  1.
   -9000007    1    1    2    0  503  0.19827278148E+03  0.13911204385E+03 -0.72532021643E+03  0.86299111987E+03  0.40000000000E+03 0.  1.
<mgrwt>
<rscale>  2 0.46761550E+03</rscale>
<asrwt>0</asrwt>
<pdfrwt beam="1">  1       21 0.28835342E-01 0.46761550E+03</pdfrwt>
<pdfrwt beam="2">  1       21 0.19309322E+00 0.46761550E+03</pdfrwt>
<totfact> 0.14315058E+03</totfact>
</mgrwt>
</event>
<event>
 4    1  0.4703494E-002  0.4243376E+03  0.7818608E-02  0.1035664E+00
         21   -1    0    0  503  502  0.00000000000E+00  0.00000000000E+00  0.18002771849E+03  0.18002771849E+03  0.00000000000E+00 0. -1.
         21   -1    0    0  501  503 -0.00000000000E+00 -0.00000000000E+00 -0.10495077114E+04  0.10495077114E+04  0.00000000000E+00 0. -1.
    9000007    1    1    2  501    0 -0.32216688064E+02 -0.13792932058E+03 -0.30147756292E+03  0.52052966621E+03  0.40000000000E+03 0. -1.
   -9000007    1    1    2    0  502  0.32216688064E+02  0.13792932058E+03 -0.56800243004E+03  0.70900576372E+03  0.40000000000E+03 0. -1.
<mgrwt>
<rscale>  2 0.42433762E+03</rscale>
<asrwt>0</asrwt>
<pdfrwt beam="1">  1       21 0.27696572E-01 0.42433762E+03</pdfrwt>
<pdfrwt beam="2">  1       21 0.16146273E+00 0.42433762E+03</pdfrwt>
<totfact> 0.26503463E+03</totfact>
</mgrwt>
</event>
<event>
 4    1  0.4703494E-002  0.5241791E+03  0.7818608E-02  0.1007654E+00
         21   -1    0    0  503  502  0.00000000000E+00  0.00000000000E+00  0.68946611688E+03  0.68946611688E+03  0.00000000000E+00 0. -1.
         21   -1    0    0  501  503 -0.00000000000E+00 -0.00000000000E+00 -0.40210495038E+03  0.40210495038E+03  0.00000000000E+00 0. -1.
    9000007    1    1    2  501    0  0.22792860510E+01  0.33876033125E+03  0.19523834722E+03  0.55935835508E+03  0.40000000000E+03 0. -1.
   -9000007    1    1    2    0  502 -0.22792860510E+01 -0.33876033125E+03  0.92122819286E+02  0.53221271218E+03  0.40000000000E+03 0. -1.
<mgrwt>
<rscale>  2 0.52417913E+03</rscale>
<asrwt>0</asrwt>
<pdfrwt beam="1">  1       21 0.10607171E+00 0.52417913E+03</pdfrwt>
<pdfrwt beam="2">  1       21 0.61862300E-01 0.52417913E+03</pdfrwt>
<totfact> 0.14426855E+03</totfact>
</mgrwt>
</event>
<event>
 4    1  0.4703494E-002  0.4177365E+03  0.7818608E-02  0.1037806E+00
         21   -1    0    0  501  502  0.00000000000E+00  0.00000000000E+00  0.16200184364E+03  0.16200184364E+03  0.00000000000E+00 0.  1.
         21   -1    0    0  502  503 -0.00000000000E+00 -0.00000000000E+00 -0.12166971801E+04  0.12166971801E+04  0.00000000000E+00 0.  1.
    9000007    1    1    2  501    0  0.11668791623E+03 -0.29794506273E+02 -0.29390772649E+03  0.51076955086E+03  0.40000000000E+03 0.  1.
   -9000007    1    1    2    0  503 -0.11668791623E+03  0.29794506273E+02 -0.76078760999E+03  0.86792947289E+03  0.40000000000E+03 0.  1.
<mgrwt>
<rscale>  2 0.41773650E+03</rscale>
<asrwt>0</asrwt>
<pdfrwt beam="1">  1       21 0.24923361E-01 0.41773650E+03</pdfrwt>
<pdfrwt beam="2">  1       21 0.18718418E+00 0.41773650E+03</pdfrwt>
<totfact> 0.21364072E+03</totfact>
</mgrwt>
</event>
<event>
 4    1  0.4703494E-002  0.4409181E+03  0.7818608E-02  0.1030465E+00
         21   -1    0    0  501  502  0.00000000000E+00  0.00000000000E+00  0.28309861474E+04  0.28309861474E+04  0.00000000000E+00 0. -1.
         21   -1    0    0  502  503 -0.00000000000E+00 -0.00000000000E+00 -0.70027446356E+02  0.70027446356E+02  0.00000000000E+00 0.  1.
    9000007    1    1    2  501    0  0.90113400458E+02  0.16213672111E+03  0.15823014087E+04  0.16425853065E+04  0.40000000000E+03 0. -1.
   -9000007    1    1    2    0  503 -0.90113400458E+02 -0.16213672111E+03  0.11786572924E+04  0.12584282872E+04  0.40000000000E+03 0.  1.
<mgrwt>
<rscale>  2 0.44091807E+03</rscale>
<asrwt>0</asrwt>
<pdfrwt beam="1">  1       21 0.43553624E+00 0.44091807E+03</pdfrwt>
<pdfrwt beam="2">  1       21 0.10773455E-01 0.44091807E+03</pdfrwt>
<totfact> 0.28311053E+02</totfact>
</mgrwt>
</event>
<event>
 4    1  0.4703494E-002  0.4597432E+03  0.7818608E-02  0.1024856E+00
         21   -1    0    0  501  502  0.00000000000E+00  0.00000000000E+00  0.18490678603E+03  0.18490678603E+03  0.00000000000E+00 0.  1.
         21   -1    0    0  502  503 -0.00000000000E+00 -0.00000000000E+00 -0.22812666319E+04  0.22812666319E+04  0.00000000000E+00 0.  1.
    9000007    1    1    2  501    0  0.76446150844E+02  0.21335364644E+03 -0.17719272404E+03  0.49270787885E+03  0.40000000000E+03 0.  1.
   -9000007    1    1    2    0  503 -0.76446150844E+02 -0.21335364644E+03 -0.19191671218E+04  0.19734655391E+04  0.40000000000E+03 0.  1.
<mgrwt>
<rscale>  2 0.45974318E+03</rscale>
<asrwt>0</asrwt>
<pdfrwt beam="1">  1       21 0.28447198E-01 0.45974318E+03</pdfrwt>
<pdfrwt beam="2">  1       21 0.35096409E+00 0.45974318E+03</pdfrwt>
<totfact> 0.15559246E+02</totfact>
</mgrwt>
</event>
<event>
 4    1  0.4703494E-002  0.5278739E+03  0.7818608E-02  0.1006749E+00
         21   -1    0    0  503  502  0.00000000000E+00  0.00000000000E+00  0.23876714005E+03  0.23876714005E+03  0.00000000000E+00 0.  1.
         21   -1    0    0  501  503 -0.00000000000E+00 -0.00000000000E+00 -0.16195872002E+04  0.16195872002E+04  0.00000000000E+00 0.  1.
    9000007    1    1    2  501    0 -0.16684902662E+03 -0.30135072645E+03 -0.11815759143E+04  0.12941300164E+04  0.40000000000E+03 0.  1.
   -9000007    1    1    2    0  502  0.16684902662E+03  0.30135072645E+03 -0.19924414586E+03  0.56422432390E+03  0.40000000000E+03 0.  1.
<mgrwt>
<rscale>  2 0.52787390E+03</rscale>
<asrwt>0</asrwt>
<pdfrwt beam="1">  1       21 0.36733406E-01 0.52787390E+03</pdfrwt>
<pdfrwt beam="2">  1       21 0.24916726E+00 0.52787390E+03</pdfrwt>
<totfact> 0.37314270E+02</totfact>
</mgrwt>
</event>
<event>
 4    1  0.4703494E-002  0.6173695E+03  0.7818608E-02  0.9870011E-01
         21   -1    0    0  503  502  0.00000000000E+00  0.00000000000E+00  0.62775204533E+03  0.62775204533E+03  0.00000000000E+00 0.  1.
         21   -1    0    0  501  503 -0.00000000000E+00 -0.00000000000E+00 -0.96164068768E+03  0.96164068768E+03  0.00000000000E+00 0. -1.
    9000007    1    1    2  501    0  0.46757895126E+03  0.50150416000E+02 -0.64943827414E+03  0.89605536202E+03  0.40000000000E+03 0.  1.
   -9000007    1    1    2    0  502 -0.46757895126E+03 -0.50150416000E+02  0.31554963179E+03  0.69333737099E+03  0.40000000000E+03 0. -1.
<mgrwt>
<rscale>  2 0.61736953E+03</rscale>
<asrwt>0</asrwt>
<pdfrwt beam="1">  1       21 0.96577238E-01 0.61736953E+03</pdfrwt>
<pdfrwt beam="2">  1       21 0.14794472E+00 0.61736953E+03</pdfrwt>
<totfact> 0.21063307E+02</totfact>
</mgrwt>
</event>
<event>
 4    1  0.4703494E-002  0.4028047E+03  0.7818608E-02  0.1042813E+00
         21   -1    0    0  501  502  0.00000000000E+00  0.00000000000E+00  0.63086081420E+03  0.63086081420E+03  0.00000000000E+00 0. -1.
         21   -1    0    0  502  503 -0.00000000000E+00 -0.00000000000E+00 -0.27044726465E+03  0.27044726465E+03  0.00000000000E+00 0. -1.
    9000007    1    1    2  501    0  0.46848659464E+02  0.75382913773E+01  0.27998026741E+03  0.49055129484E+03  0.40000000000E+03 0. -1.
   -9000007    1    1    2    0  503 -0.46848659464E+02 -0.75382913773E+01  0.80433282136E+02  0.41075678400E+03  0.40000000000E+03 0. -1.
<mgrwt>
<rscale>  2 0.40280470E+03</rscale>
<asrwt>0</asrwt>
<pdfrwt beam="1">  1       21 0.97055509E-01 0.40280470E+03</pdfrwt>
<pdfrwt beam="2">  1       21 0.41607272E-01 0.40280470E+03</pdfrwt>
<totfact> 0.43645291E+03</totfact>
</mgrwt>
</event>
<event>
 4    1  0.4703494E-002  0.4208073E+03  0.7818608E-02  0.1036804E+00
         21   -1    0    0  503  502  0.00000000000E+00  0.00000000000E+00  0.27143822883E+03  0.27143822883E+03  0.00000000000E+00 0. -1.
         21   -1    0    0  501  503 -0.00000000000E+00 -0.00000000000E+00 -0.12205658389E+04  0.12205658389E+04  0.00000000000E+00 0. -1.
    9000007    1    1    2  501    0  0.97634179110E+02  0.86869597387E+02 -0.98355185053E+03  0.10697911023E+04  0.40000000000E+03 0. -1.
   -9000007    1    1    2    0  502 -0.97634179110E+02 -0.86869597387E+02  0.34424240423E+02  0.42221296547E+03  0.40000000000E+03 0. -1.
<mgrwt>
<rscale>  2 0.42080727E+03</rscale>
<asrwt>0</asrwt>
<pdfrwt beam="1">  1       21 0.41759728E-01 0.42080727E+03</pdfrwt>
<pdfrwt beam="2">  1       21 0.18777936E+00 0.42080727E+03</pdfrwt>
<totfact> 0.75183636E+02</totfact>
</mgrwt>
</event>
<event>
 4    1  0.4703494E-002  0.4312808E+03  0.7818608E-02  0.1033456E+00
         21   -1    0    0  503  502  0.00000000000E+00  0.00000000000E+00  0.96787747006E+03  0.96787747006E+03  0.00000000000E+00 0. -1.
         21   -1    0    0  501  503 -0.00000000000E+00 -0.00000000000E+00 -0.26831890878E+03  0.26831890878E+03  0.00000000000E+00 0. -1.
    9000007    1    1    2  501    0 -0.21112557337E+02 -0.15986678498E+03  0.67904434612E+03  0.80442796633E+03  0.40000000000E+03 0. -1.
   -9000007    1    1    2    0  502  0.21112557337E+02  0.15986678498E+03  0.20514215161E+02  0.43176841251E+03  0.40000000000E+03 0. -1.
<mgrwt>
<rscale>  2 0.43128080E+03</rscale>
<asrwt>0</asrwt>
<pdfrwt beam="1">  1       21 0.14890422E+00 0.43128080E+03</pdfrwt>
<pdfrwt beam="2">  1       21 0.41279833E-01 0.43128080E+03</pdfrwt>
<totfact> 0.14773962E+03</totfact>
</mgrwt>
</event>
<event>
 4    1  0.4703494E-002  0.5013871E+03  0.7818608E-02  0.1013418E+00
         21   -1    0    0  503  502  0.00000000000E+00  0.00000000000E+00  0.20621492322E+03  0.20621492322E+03  0.00000000000E+00 0. -1.
         21   -1    0    0  501  503 -0.00000000000E+00 -0.00000000000E+00 -0.31006576414E+04  0.31006576414E+04  0.00000000000E+00 0. -1.
    9000007    1    1    2  501    0  0.19207266003E+03  0.23344610932E+03 -0.27352442562E+04  0.27808182490E+04  0.40000000000E+03 0. -1.
   -9000007    1    1    2    0  502 -0.19207266003E+03 -0.23344610932E+03 -0.15919846192E+03  0.52605431560E+03  0.40000000000E+03 0. -1.
<mgrwt>
<rscale>  2 0.50138707E+03</rscale>
<asrwt>0</asrwt>
<pdfrwt beam="1">  1       21 0.31725374E-01 0.50138707E+03</pdfrwt>
<pdfrwt beam="2">  1       21 0.47702423E+00 0.50138707E+03</pdfrwt>
<totfact> 0.18255479E+01</totfact>
</mgrwt>
</event>
<event>
 4    1  0.4703494E-002  0.5205019E+03  0.7818608E-02  0.1008562E+00
         21   -1    0    0  501  502  0.00000000000E+00  0.00000000000E+00  0.56551604929E+03  0.56551604929E+03  0.00000000000E+00 0. -1.
         21   -1    0    0  502  503 -0.00000000000E+00 -0.00000000000E+00 -0.11150406485E+04  0.11150406485E+04  0.00000000000E+00 0.  1.
    9000007    1    1    2  501    0 -0.61207517783E+02  0.32737727830E+03  0.35983186854E+03  0.63277264179E+03  0.40000000000E+03 0. -1.
   -9000007    1    1    2    0  503  0.61207517783E+02 -0.32737727830E+03 -0.90935646779E+03  0.10477840560E+04  0.40000000000E+03 0.  1.
<mgrwt>
<rscale>  2 0.52050191E+03</rscale>
<asrwt>0</asrwt>
<pdfrwt beam="1">  1       21 0.87002470E-01 0.52050191E+03</pdfrwt>
<pdfrwt beam="2">  1       21 0.17154471E+00 0.52050191E+03</pdfrwt>
<totfact> 0.18569099E+02</totfact>
</mgrwt>
</event>
<event>
 4    1  0.4703494E-002  0.4503994E+03  0.7818608E-02  0.1027603E+00
         21   -1    0    0  501  502  0.00000000000E+00  0.00000000000E+00  0.64142544075E+03  0.64142544075E+03  0.00000000000E+00 0.  1.
         21   -1    0    0  502  503 -0.00000000000E+00 -0.00000000000E+00 -0.31823620640E+03  0.31823620640E+03  0.00000000000E+00 0.  1.
    9000007    1    1    2  501    0 -0.20126527040E+03  0.48496586717E+02  0.19937052106E+03  0.49255277145E+03  0.40000000000E+03 0.  1.
   -9000007    1    1    2    0  503  0.20126527040E+03 -0.48496586717E+02  0.12381871330E+03  0.46710887570E+03  0.40000000000E+03 0.  1.
<mgrwt>
<rscale>  2 0.45039941E+03</rscale>
<asrwt>0</asrwt>
<pdfrwt beam="1">  1       21 0.98680837E-01 0.45039941E+03</pdfrwt>
<pdfrwt beam="2">  1       21 0.48959417E-01 0.45039941E+03</pdfrwt>
<totfact> 0.29309208E+03</totfact>
</mgrwt>
</event>
<event>
 4    1  0.4703494E-002  0.4388968E+03  0.7818608E-02  0.1031086E+00
         21   -1    0    0  501  502  0.00000000000E+00  0.00000000000E+00  0.22497638489E+03  0.22497638489E+03  0.00000000000E+00 0. -1.
         21   -1    0    0  502  503 -0.00000000000E+00 -0.00000000000E+00 -0.88755834109E+03  0.88755834109E+03  0.00000000000E+00 0. -1.
    9000007    1    1    2  501    0  0.14531002675E+02 -0.18005349248E+03 -0.22677364418E+03  0.49402094681E+03  0.40000000000E+03 0.  1.
   -9000007    1    1    2    0  503 -0.14531002675E+02  0.18005349248E+03 -0.43580831201E+03  0.61851377916E+03  0.40000000000E+03 0.  1.
<mgrwt>
<rscale>  2 0.43889681E+03</rscale>
<asrwt>0</asrwt>
<pdfrwt beam="1">  1       21 0.34611751E-01 0.43889681E+03</pdfrwt>
<pdfrwt beam="2">  1       21 0.13654744E+00 0.43889681E+03</pdfrwt>
<totfact> 0.26608588E+03</totfact>
</mgrwt>
</event>
<event>
 4    1  0.4703494E-002  0.5489559E+03  0.7818608E-02  0.1001736E+00
         21   -1    0    0  501  502  0.00000000000E+00  0.00000000000E+00  0.11658611132E+04  0.11658611132E+04  0.00000000000E+00 0.  1.
         21   -1    0    0  502  503 -0.00000000000E+00 -0.00000000000E+00 -0.40464840190E+03  0.40464840190E+03  0.00000000000E+00 0. -1.
    9000007    1    1    2  501    0  0.37480322398E+03  0.29582757576E+02  0.85255785644E+03  0.10140056680E+04  0.40000000000E+03 0.  1.
   -9000007    1    1    2    0  503 -0.37480322398E+03 -0.29582757576E+02 -0.91345145140E+02  0.55650384706E+03  0.40000000000E+03 0. -1.
<mgrwt>
<rscale>  2 0.54895591E+03</rscale>
<asrwt>0</asrwt>
<pdfrwt beam="1">  1       21 0.17936325E+00 0.54895591E+03</pdfrwt>
<pdfrwt beam="2">  1       21 0.62253601E-01 0.54895591E+03</pdfrwt>
<totfact> 0.34617776E+02</totfact>
</mgrwt>
</event>
<event>
 4    1  0.4703494E-002  0.4055720E+03  0.7818608E-02  0.1041867E+00
         21   -1    0    0  501  502  0.00000000000E+00  0.00000000000E+00  0.16438018217E+03  0.16438018217E+03  0.00000000000E+00 0.  1.
         21   -1    0    0  502  503 -0.00000000000E+00 -0.00000000000E+00 -0.17490138474E+04  0.17490138474E+04  0.00000000000E+00 0.  1.
    9000007    1    1    2  501    0 -0.36089941513E+02 -0.56446283330E+02 -0.16652296375E+03  0.43842737624E+03  0.40000000000E+03 0.  1.
   -9000007    1    1    2    0  503  0.36089941513E+02  0.56446283330E+02 -0.14181107014E+04  0.14749666533E+04  0.40000000000E+03 0.  1.
<mgrwt>
<rscale>  2 0.40557202E+03</rscale>
<asrwt>0</asrwt>
<pdfrwt beam="1">  1       21 0.25289257E-01 0.40557202E+03</pdfrwt>
<pdfrwt beam="2">  1       21 0.26907907E+00 0.40557202E+03</pdfrwt>
<totfact> 0.63225072E+02</totfact>
</mgrwt>
</event>
<event>
 4    1  0.4703494E-002  0.4063146E+03  0.7818608E-02  0.1041615E+00
         21   -1    0    0  501  502  0.00000000000E+00  0.00000000000E+00  0.36696118703E+03  0.36696118703E+03  0.00000000000E+00 0.  1.
         21   -1    0    0  502  503 -0.00000000000E+00 -0.00000000000E+00 -0.47298978462E+03  0.47298978462E+03  0.00000000000E+00 0.  1.
    9000007    1    1    2  501    0  0.15009456341E+02  0.69758472607E+02  0.39800755689E+02  0.40825926619E+03  0.40000000000E+03 0.  1.
   -9000007    1    1    2    0  503 -0.15009456341E+02 -0.69758472607E+02 -0.14582935328E+03  0.43169170545E+03  0.40000000000E+03 0.  1.
<mgrwt>
<rscale>  2 0.40631457E+03</rscale>
<asrwt>0</asrwt>
<pdfrwt beam="1">  1       21 0.56455567E-01 0.40631457E+03</pdfrwt>
<pdfrwt beam="2">  1       21 0.72767659E-01 0.40631457E+03</pdfrwt>
<totfact> 0.44732101E+03</totfact>
</mgrwt>
</event>
<event>
 4    1  0.4703494E-002  0.5511754E+03  0.7818608E-02  0.1001222E+00
         21   -1    0    0  503  502  0.00000000000E+00  0.00000000000E+00  0.90636190730E+03  0.90636190730E+03  0.00000000000E+00 0.  1.
         21   -1    0    0  501  503 -0.00000000000E+00 -0.00000000000E+00 -0.37507119963E+03  0.37507119963E+03  0.00000000000E+00 0.  1.
    9000007    1    1    2  501    0  0.65788352323E+02 -0.37345179655E+03  0.56692729970E+02  0.55408340282E+03  0.40000000000E+03 0.  1.
   -9000007    1    1    2    0  502 -0.65788352323E+02  0.37345179655E+03  0.47459797770E+03  0.72734970412E+03  0.40000000000E+03 0.  1.
<mgrwt>
<rscale>  2 0.55117543E+03</rscale>
<asrwt>0</asrwt>
<pdfrwt beam="1">  1       21 0.13944029E+00 0.55117543E+03</pdfrwt>
<pdfrwt beam="2">  1       21 0.57703262E-01 0.55117543E+03</pdfrwt>
<totfact> 0.82633555E+02</totfact>
</mgrwt>
</event>
<event>
 4    1  0.4703494E-002  0.7428423E+03  0.7818608E-02  0.9646647E-01
         21   -1    0    0  503  502  0.00000000000E+00  0.00000000000E+00  0.30976988394E+03  0.30976988394E+03  0.00000000000E+00 0.  1.
         21   -1    0    0  501  503 -0.00000000000E+00 -0.00000000000E+00 -0.26953887977E+04  0.26953887977E+04  0.00000000000E+00 0. -1.
    9000007    1    1    2  501    0 -0.62214262638E+03  0.68943332632E+02 -0.20678020581E+04  0.21971845581E+04  0.40000000000E+03 0. -1.
   -9000007    1    1    2    0  502  0.62214262638E+03 -0.68943332632E+02 -0.31781685570E+03  0.80797412362E+03  0.40000000000E+03 0.  1.
<mgrwt>
<rscale>  2 0.74284227E+03</rscale>
<asrwt>0</asrwt>
<pdfrwt beam="1">  1       21 0.47656905E-01 0.74284227E+03</pdfrwt>
<pdfrwt beam="2">  1       21 0.41467520E+00 0.74284227E+03</pdfrwt>
<totfact> 0.18250467E+01</totfact>
</mgrwt>
</event>
<event>
 4    1  0.4703494E-002  0.5152404E+03  0.7818608E-02  0.1009876E+00
         21   -1    0    0  503  502  0.00000000000E+00  0.00000000000E+00  0.35747196591E+04  0.35747196591E+04  0.00000000000E+00 0.  1.
         21   -1    0    0  501  503 -0.00000000000E+00 -0.00000000000E+00 -0.92939434816E+02  0.92939434816E+02  0.00000000000E+00 0. -1.
    9000007    1    1    2  501    0  0.24050349071E+03  0.21824472204E+03  0.91884572847E+03  0.10534468000E+04  0.40000000000E+03 0. -1.
   -9000007    1    1    2    0  502 -0.24050349071E+03 -0.21824472204E+03  0.25629344958E+04  0.26142122939E+04  0.40000000000E+03 0.  1.
<mgrwt>
<rscale>  2 0.51524042E+03</rscale>
<asrwt>0</asrwt>
<pdfrwt beam="1">  1       21 0.54995676E+00 0.51524042E+03</pdfrwt>
<pdfrwt beam="2">  1       21 0.14298377E-01 0.51524042E+03</pdfrwt>
<totfact> 0.24816519E+01</totfact>
</mgrwt>
</event>
<event>
 4    1  0.4703494E-002  0.4423659E+03  0.7818608E-02  0.1030023E+00
         21   -1    0    0  501  502  0.00000000000E+00  0.00000000000E+00  0.96076019497E+03  0.96076019497E+03  0.00000000000E+00 0.  1.
         21   -1    0    0  502  503 -0.00000000000E+00 -0.00000000000E+00 -0.32356592671E+03  0.32356592671E+03  0.00000000000E+00 0. -1.
    9000007    1    1    2  501    0 -0.43636373427E+02  0.18380282023E+03  0.70948130330E+03  0.83609289528E+03  0.40000000000E+03 0.  1.
   -9000007    1    1    2    0  503  0.43636373427E+02 -0.18380282023E+03 -0.72287035041E+02  0.44823322640E+03  0.40000000000E+03 0. -1.
<mgrwt>
<rscale>  2 0.44236592E+03</rscale>
<asrwt>0</asrwt>
<pdfrwt beam="1">  1       21 0.14780926E+00 0.44236592E+03</pdfrwt>
<pdfrwt beam="2">  1       21 0.49779374E-01 0.44236592E+03</pdfrwt>
<totfact> 0.10131399E+03</totfact>
</mgrwt>
</event>
<event>
 4    1  0.4703494E-002  0.4662279E+03  0.7818608E-02  0.1022990E+00
         21   -1    0    0  501  502  0.00000000000E+00  0.00000000000E+00  0.18384586493E+04  0.18384586493E+04  0.00000000000E+00 0.  1.
         21   -1    0    0  502  503 -0.00000000000E+00 -0.00000000000E+00 -0.18975252602E+03  0.18975252602E+03  0.00000000000E+00 0.  1.
    9000007    1    1    2  501    0 -0.22176290157E+03  0.90496712320E+02  0.14469378034E+04  0.15201965157E+04  0.40000000000E+03 0.  1.
   -9000007    1    1    2    0  503  0.22176290157E+03 -0.90496712320E+02  0.20176831984E+03  0.50801465958E+03  0.40000000000E+03 0.  1.
<mgrwt>
<rscale>  2 0.46622788E+03</rscale>
<asrwt>0</asrwt>
<pdfrwt beam="1">  1       21 0.28283978E+00 0.46622788E+03</pdfrwt>
<pdfrwt beam="2">  1       21 0.29192697E-01 0.46622788E+03</pdfrwt>
<totfact> 0.38070176E+02</totfact>
</mgrwt>
</event>
<event>
 4    1  0.4703494E-002  0.4247405E+03  0.7818608E-02  0.1035534E+00
         21   -1    0    0  501  502  0.00000000000E+00  0.00000000000E+00  0.68078594324E+03  0.68078594324E+03  0.00000000000E+00 0.  1.
         21   -1    0    0  502  503 -0.00000000000E+00 -0.00000000000E+00 -0.79336777488E+03  0.79336777488E+03  0.00000000000E+00 0.  1.
    9000007    1    1    2  501    0 -0.12862775205E+03  0.62123997439E+02  0.54522336772E+03  0.69113892262E+03  0.40000000000E+03 0.  1.
   -9000007    1    1    2    0  503  0.12862775205E+03 -0.62123997439E+02 -0.65780519936E+03  0.78301479549E+03  0.40000000000E+03 0.  1.
<mgrwt>
<rscale>  2 0.42474050E+03</rscale>
<asrwt>0</asrwt>
<pdfrwt beam="1">  1       21 0.10473630E+00 0.42474050E+03</pdfrwt>
<pdfrwt beam="2">  1       21 0.12205658E+00 0.42474050E+03</pdfrwt>
<totfact> 0.31149590E+02</totfact>
</mgrwt>
</event>
<event>
 4    1  0.4703494E-002  0.4251474E+03  0.7818608E-02  0.1035404E+00
         21   -1    0    0  501  502  0.00000000000E+00  0.00000000000E+00  0.39582244889E+03  0.39582244889E+03  0.00000000000E+00 0.  1.
         21   -1    0    0  502  503 -0.00000000000E+00 -0.00000000000E+00 -0.45769288019E+03  0.45769288019E+03  0.00000000000E+00 0.  1.
    9000007    1    1    2  501    0  0.12134139526E+03  0.77630839237E+02 -0.10513986535E+02  0.42527735105E+03  0.40000000000E+03 0.  1.
   -9000007    1    1    2    0  503 -0.12134139526E+03 -0.77630839237E+02 -0.51356444768E+02  0.42823797803E+03  0.40000000000E+03 0.  1.
<mgrwt>
<rscale>  2 0.42514736E+03</rscale>
<asrwt>0</asrwt>
<pdfrwt beam="1">  1       21 0.60895762E-01 0.42514736E+03</pdfrwt>
<pdfrwt beam="2">  1       21 0.70414289E-01 0.42514736E+03</pdfrwt>
<totfact> 0.40571052E+03</totfact>
</mgrwt>
</event>
<event>
 4    1  0.4703494E-002  0.4972374E+03  0.7818608E-02  0.1014503E+00
         21   -1    0    0  503  502  0.00000000000E+00  0.00000000000E+00  0.71172092210E+03  0.71172092210E+03  0.00000000000E+00 0.  1.
         21   -1    0    0  501  503 -0.00000000000E+00 -0.00000000000E+00 -0.38127765279E+03  0.38127765279E+03  0.00000000000E+00 0. -1.
    9000007    1    1    2  501    0  0.28451913635E+03 -0.79334211386E+02  0.32814626464E+03  0.59575584516E+03  0.40000000000E+03 0.  1.
   -9000007    1    1    2    0  502 -0.28451913635E+03  0.79334211386E+02  0.22970046703E+01  0.49724272974E+03  0.40000000000E+03 0. -1.
<mgrwt>
<rscale>  2 0.49723742E+03</rscale>
<asrwt>0</asrwt>
<pdfrwt beam="1">  1       21 0.10949553E+00 0.49723742E+03</pdfrwt>
<pdfrwt beam="2">  1       21 0.58658100E-01 0.49723742E+03</pdfrwt>
<totfact> 0.15126288E+03</totfact>
</mgrwt>
</event>
<event>
 4    1  0.4703494E-002  0.4859482E+03  0.7818608E-02  0.1017513E+00
         21   -1    0    0  503  502  0.00000000000E+00  0.00000000000E+00  0.66115061260E+03  0.66115061260E+03  0.00000000000E+00 0. -1.
         21   -1    0    0  501  503 -0.00000000000E+00 -0.00000000000E+00 -0.35718223827E+03  0.35718223827E+03  0.00000000000E+00 0. -1.
    9000007    1    1    2  501    0 -0.26973928279E+03  0.58192863775E+02  0.15445602121E+03  0.50990425823E+03  0.40000000000E+03 0. -1.
   -9000007    1    1    2    0  502  0.26973928279E+03 -0.58192863775E+02  0.14951235312E+03  0.50842859264E+03  0.40000000000E+03 0. -1.
<mgrwt>
<rscale>  2 0.48594824E+03</rscale>
<asrwt>0</asrwt>
<pdfrwt beam="1">  1       21 0.10171548E+00 0.48594824E+03</pdfrwt>
<pdfrwt beam="2">  1       21 0.54951114E-01 0.48594824E+03</pdfrwt>
<totfact> 0.20996752E+03</totfact>
</mgrwt>
</event>
<event>
 4    1  0.4703494E-002  0.4844774E+03  0.7818608E-02  0.1017912E+00
         21   -1    0    0  501  502  0.00000000000E+00  0.00000000000E+00  0.64740887607E+03  0.64740887607E+03  0.00000000000E+00 0. -1.
         21   -1    0    0  502  503 -0.00000000000E+00 -0.00000000000E+00 -0.53784958592E+03  0.53784958592E+03  0.00000000000E+00 0.  1.
    9000007    1    1    2  501    0 -0.26910109569E+03  0.47988849122E+02  0.39311129994E+03  0.62390289588E+03  0.40000000000E+03 0. -1.
   -9000007    1    1    2    0  503  0.26910109569E+03 -0.47988849122E+02 -0.28355200979E+03  0.56135556611E+03  0.40000000000E+03 0.  1.
<mgrwt>
<rscale>  2 0.48447738E+03</rscale>
<asrwt>0</asrwt>
<pdfrwt beam="1">  1       21 0.99601366E-01 0.48447738E+03</pdfrwt>
<pdfrwt beam="2">  1       21 0.82746090E-01 0.48447738E+03</pdfrwt>
<totfact> 0.88309705E+02</totfact>
</mgrwt>
</event>
<event>
 4    1  0.4703494E-002  0.7531356E+03  0.7818608E-02  0.9630444E-01
         21   -1    0    0  501  502  0.00000000000E+00  0.00000000000E+00  0.47565984156E+03  0.47565984156E+03  0.00000000000E+00 0. -1.
         21   -1    0    0  502  503 -0.00000000000E+00 -0.00000000000E+00 -0.18494594760E+04  0.18494594760E+04  0.00000000000E+00 0. -1.
    9000007    1    1    2  501    0  0.38975947317E+03  0.50527294092E+03  0.59991129939E+01  0.75315946593E+03  0.40000000000E+03 0. -1.
   -9000007    1    1    2    0  503 -0.38975947317E+03 -0.50527294092E+03 -0.13797987475E+04  0.15719598517E+04  0.40000000000E+03 0. -1.
<mgrwt>
<rscale>  2 0.75313557E+03</rscale>
<asrwt>0</asrwt>
<pdfrwt beam="1">  1       21 0.73178436E-01 0.75313557E+03</pdfrwt>
<pdfrwt beam="2">  1       21 0.28453223E+00 0.75313557E+03</pdfrwt>
<totfact> 0.46436580E+01</totfact>
</mgrwt>
</event>
<event>
 4    1  0.4703494E-002  0.7326614E+03  0.7818608E-02  0.9662951E-01
         21   -1    0    0  503  502  0.00000000000E+00  0.00000000000E+00  0.53740276256E+03  0.53740276256E+03  0.00000000000E+00 0.  1.
         21   -1    0    0  501  503 -0.00000000000E+00 -0.00000000000E+00 -0.12790859016E+04  0.12790859016E+04  0.00000000000E+00 0.  1.
    9000007    1    1    2  501    0  0.26487743159E+03  0.55374427961E+03 -0.79595335560E+03  0.10818200059E+04  0.40000000000E+03 0.  1.
   -9000007    1    1    2    0  502 -0.26487743159E+03 -0.55374427961E+03  0.54270216556E+02  0.73466865822E+03  0.40000000000E+03 0.  1.
<mgrwt>
<rscale>  2 0.73266144E+03</rscale>
<asrwt>0</asrwt>
<pdfrwt beam="1">  1       21 0.82677348E-01 0.73266144E+03</pdfrwt>
<pdfrwt beam="2">  1       21 0.19678245E+00 0.73266144E+03</pdfrwt>
<totfact> 0.12820538E+02</totfact>
</mgrwt>
</event>
<event>
 4    1  0.4703494E-002  0.5136364E+03  0.7818608E-02  0.1010280E+00
         21   -1    0    0  501  502  0.00000000000E+00  0.00000000000E+00  0.29487349663E+03  0.29487349663E+03  0.00000000000E+00 0. -1.
         21   -1    0    0  502  503 -0.00000000000E+00 -0.00000000000E+00 -0.97555175627E+03  0.97555175627E+03  0.00000000000E+00 0.  1.
    9000007    1    1    2  501    0 -0.26306304410E+03 -0.18606513442E+03 -0.15746719704E+03  0.53723208910E+03  0.40000000000E+03 0.  1.
   -9000007    1    1    2    0  503  0.26306304410E+03  0.18606513442E+03 -0.52321106260E+03  0.73319316380E+03  0.40000000000E+03 0. -1.
<mgrwt>
<rscale>  2 0.51363645E+03</rscale>
<asrwt>0</asrwt>
<pdfrwt beam="1">  1       21 0.45365154E-01 0.51363645E+03</pdfrwt>
<pdfrwt beam="2">  1       21 0.15008488E+00 0.51363645E+03</pdfrwt>
<totfact> 0.11495534E+03</totfact>
</mgrwt>
</event>
<event>
 4    1  0.4703494E-002  0.4044759E+03  0.7818608E-02  0.1042241E+00
         21   -1    0    0  503  502  0.00000000000E+00  0.00000000000E+00  0.58598443983E+03  0.58598443983E+03  0.00000000000E+00 0.  1.
         21   -1    0    0  501  503 -0.00000000000E+00 -0.00000000000E+00 -0.29100714381E+03  0.29100714381E+03  0.00000000000E+00 0.  1.
    9000007    1    1    2  501    0  0.31119698634E+02 -0.51306205803E+02  0.23585301744E+03  0.46821726606E+03  0.40000000000E+03 0.  1.
   -9000007    1    1    2    0  502 -0.31119698634E+02  0.51306205803E+02  0.59124278574E+02  0.40877431758E+03  0.40000000000E+03 0.  1.
<mgrwt>
<rscale>  2 0.40447591E+03</rscale>
<asrwt>0</asrwt>
<pdfrwt beam="1">  1       21 0.90151452E-01 0.40447591E+03</pdfrwt>
<pdfrwt beam="2">  1       21 0.44770330E-01 0.40447591E+03</pdfrwt>
<totfact> 0.44656438E+03</totfact>
</mgrwt>
</event>
<event>
 4    1  0.4703494E-002  0.4522692E+03  0.7818608E-02  0.1027048E+00
         21   -1    0    0  503  502  0.00000000000E+00  0.00000000000E+00  0.10577376724E+04  0.10577376724E+04  0.00000000000E+00 0.  1.
         21   -1    0    0  501  503 -0.00000000000E+00 -0.00000000000E+00 -0.22843656855E+03  0.22843656855E+03  0.00000000000E+00 0.  1.
    9000007    1    1    2  501    0 -0.18693977357E+03  0.97984431042E+02  0.16273249114E+03  0.48065506483E+03  0.40000000000E+03 0.  1.
   -9000007    1    1    2    0  502  0.18693977357E+03 -0.97984431042E+02  0.66656861272E+03  0.80551917614E+03  0.40000000000E+03 0.  1.
<mgrwt>
<rscale>  2 0.45226920E+03</rscale>
<asrwt>0</asrwt>
<pdfrwt beam="1">  1       21 0.16272887E+00 0.45226920E+03</pdfrwt>
<pdfrwt beam="2">  1       21 0.35144088E-01 0.45226920E+03</pdfrwt>
<totfact> 0.15939216E+03</totfact>
</mgrwt>
</event>
<event>
 4    1  0.4703494E-002  0.4382315E+03  0.7818608E-02  0.1031291E+00
         21   -1    0    0  503  502  0.00000000000E+00  0.00000000000E+00  0.78072474834E+03  0.78072474834E+03  0.00000000000E+00 0. -1.
         21   -1    0    0  501  503 -0.00000000000E+00 -0.00000000000E+00 -0.25218434484E+03  0.25218434484E+03  0.00000000000E+00 0. -1.
    9000007    1    1    2  501    0 -0.78042019048E+02 -0.16110957822E+03  0.18329844334E+03  0.47502123349E+03  0.40000000000E+03 0. -1.
   -9000007    1    1    2    0  502  0.78042019048E+02  0.16110957822E+03  0.34524196016E+03  0.55788785969E+03  0.40000000000E+03 0. -1.
<mgrwt>
<rscale>  2 0.43823151E+03</rscale>
<asrwt>0</asrwt>
<pdfrwt beam="1">  1       21 0.12011150E+00 0.43823151E+03</pdfrwt>
<pdfrwt beam="2">  1       21 0.38797592E-01 0.43823151E+03</pdfrwt>
<totfact> 0.29389431E+03</totfact>
</mgrwt>
</event>
<event>
 4    1  0.4703494E-002  0.4334866E+03  0.7818608E-02  0.1032764E+00
         21   -1    0    0  503  502  0.00000000000E+00  0.00000000000E+00  0.72401791520E+03  0.72401791520E+03  0.00000000000E+00 0. -1.
         21   -1    0    0  501  503 -0.00000000000E+00 -0.00000000000E+00 -0.64271790422E+03  0.64271790422E+03  0.00000000000E+00 0. -1.
    9000007    1    1    2  501    0 -0.13052805884E+03 -0.10427388374E+03 -0.48699932045E+03  0.65198079350E+03  0.40000000000E+03 0. -1.
   -9000007    1    1    2    0  502  0.13052805884E+03  0.10427388374E+03  0.56829933143E+03  0.71475502592E+03  0.40000000000E+03 0. -1.
<mgrwt>
<rscale>  2 0.43348658E+03</rscale>
<asrwt>0</asrwt>
<pdfrwt beam="1">  1       21 0.11138737E+00 0.43348658E+03</pdfrwt>
<pdfrwt beam="2">  1       21 0.98879678E-01 0.43348658E+03</pdfrwt>
<totfact> 0.44916239E+02</totfact>
</mgrwt>
</event>
<event>
 4    1  0.4703494E-002  0.4142389E+03  0.7818608E-02  0.1038958E+00
         21   -1    0    0  501  502  0.00000000000E+00  0.00000000000E+00  0.28787256506E+03  0.28787256506E+03  0.00000000000E+00 0. -1.
         21   -1    0    0  502  503 -0.00000000000E+00 -0.00000000000E+00 -0.76603338068E+03  0.76603338068E+03  0.00000000000E+00 0. -1.
    9000007    1    1    2  501    0 -0.95400512183E+02  0.49926275946E+02  0.91289708847E+01  0.41433950918E+03  0.40000000000E+03 0. -1.
   -9000007    1    1    2    0  503  0.95400512183E+02 -0.49926275946E+02 -0.48728978650E+03  0.63956643657E+03  0.40000000000E+03 0. -1.
<mgrwt>
<rscale>  2 0.41423893E+03</rscale>
<asrwt>0</asrwt>
<pdfrwt beam="1">  1       21 0.44288087E-01 0.41423893E+03</pdfrwt>
<pdfrwt beam="2">  1       21 0.11785129E+00 0.41423893E+03</pdfrwt>
<totfact> 0.23672781E+03</totfact>
</mgrwt>
</event>
<event>
 4    1  0.4703494E-002  0.4839337E+03  0.7818608E-02  0.1018060E+00
         21   -1    0    0  503  502  0.00000000000E+00  0.00000000000E+00  0.45781247543E+03  0.45781247543E+03  0.00000000000E+00 0. -1.
         21   -1    0    0  501  503 -0.00000000000E+00 -0.00000000000E+00 -0.54291558379E+03  0.54291558379E+03  0.00000000000E+00 0.  1.
    9000007    1    1    2  501    0  0.25252639540E+03  0.10208954870E+03  0.77724342490E+02  0.49013562382E+03  0.40000000000E+03 0. -1.
   -9000007    1    1    2    0  502 -0.25252639540E+03 -0.10208954870E+03 -0.16282745085E+03  0.51059243539E+03  0.40000000000E+03 0.  1.
<mgrwt>
<rscale>  2 0.48393373E+03</rscale>
<asrwt>0</asrwt>
<pdfrwt beam="1">  1       21 0.70432689E-01 0.48393373E+03</pdfrwt>
<pdfrwt beam="2">  1       21 0.83525474E-01 0.48393373E+03</pdfrwt>
<totfact> 0.19433535E+03</totfact>
</mgrwt>
</event>
<event>
 4    1  0.4703494E-002  0.5771910E+03  0.7818608E-02  0.9953891E-01
         21   -1    0    0  501  502  0.00000000000E+00  0.00000000000E+00  0.11493875760E+04  0.11493875760E+04  0.00000000000E+00 0.  1.
         21   -1    0    0  502  503 -0.00000000000E+00 -0.00000000000E+00 -0.29114112803E+03  0.29114112803E+03  0.00000000000E+00 0.  1.
    9000007    1    1    2  501    0  0.41254181979E+03 -0.54394131806E+02  0.47709657221E+03  0.74884618839E+03  0.40000000000E+03 0.  1.
   -9000007    1    1    2    0  503 -0.41254181979E+03  0.54394131806E+02  0.38114987576E+03  0.69168251564E+03  0.40000000000E+03 0.  1.
<mgrwt>
<rscale>  2 0.57719102E+03</rscale>
<asrwt>0</asrwt>
<pdfrwt beam="1">  1       21 0.17682885E+00 0.57719102E+03</pdfrwt>
<pdfrwt beam="2">  1       21 0.44790943E-01 0.57719102E+03</pdfrwt>
<totfact> 0.72648607E+02</totfact>
</mgrwt>
</event>
<event>
 4    1  0.4703494E-002  0.5024275E+03  0.7818608E-02  0.1013147E+00
         21   -1    0    0  503  502  0.00000000000E+00  0.00000000000E+00  0.44232337506E+03  0.44232337506E+03  0.00000000000E+00 0. -1.
         21   -1    0    0  501  503 -0.00000000000E+00 -0.00000000000E+00 -0.59172301115E+03  0.59172301115E+03  0.00000000000E+00 0.  1.
    9000007    1    1    2  501    0 -0.15925126758E+03  0.25898352074E+03  0.22756589204E+02  0.50294263350E+03  0.40000000000E+03 0. -1.
   -9000007    1    1    2    0  502  0.15925126758E+03 -0.25898352074E+03 -0.17215622529E+03  0.53110375271E+03  0.40000000000E+03 0.  1.
<mgrwt>
<rscale>  2 0.50242754E+03</rscale>
<asrwt>0</asrwt>
<pdfrwt beam="1">  1       21 0.68049750E-01 0.50242754E+03</pdfrwt>
<pdfrwt beam="2">  1       21 0.91034309E-01 0.50242754E+03</pdfrwt>
<totfact> 0.17032812E+03</totfact>
</mgrwt>
</event>
<event>
 4    1  0.4703494E-002  0.4190789E+03  0.7818608E-02  0.1037367E+00
         21   -1    0    0  503  502  0.00000000000E+00  0.00000000000E+00  0.41600588553E+03  0.41600588553E+03  0.00000000000E+00 0. -1.
         21   -1    0    0  501  503 -0.00000000000E+00 -0.00000000000E+00 -0.54412137723E+03  0.54412137723E+03  0.00000000000E+00 0. -1.
    9000007    1    1    2  501    0 -0.67263111433E+02  0.10536986895E+03 -0.29132454853E+03  0.51038919269E+03  0.40000000000E+03 0. -1.
   -9000007    1    1    2    0  502  0.67263111433E+02 -0.10536986895E+03  0.16320905683E+03  0.44973807007E+03  0.40000000000E+03 0. -1.
<mgrwt>
<rscale>  2 0.41907891E+03</rscale>
<asrwt>0</asrwt>
<pdfrwt beam="1">  1       21 0.64000905E-01 0.41907891E+03</pdfrwt>
<pdfrwt beam="2">  1       21 0.83710981E-01 0.41907891E+03</pdfrwt>
<totfact> 0.24529331E+03</totfact>
</mgrwt>
</event>
<event>
 4    1  0.4703494E-002  0.4243938E+03  0.7818608E-02  0.1035646E+00
         21   -1    0    0  503  502  0.00000000000E+00  0.00000000000E+00  0.30311466831E+03  0.30311466831E+03  0.00000000000E+00 0.  1.
         21   -1    0    0  501  503 -0.00000000000E+00 -0.00000000000E+00 -0.28826704759E+04  0.28826704759E+04  0.00000000000E+00 0.  1.
    9000007    1    1    2  501    0 -0.82307474434E+02 -0.11547980799E+03 -0.27090375054E+04  0.27420784657E+04  0.40000000000E+03 0.  1.
   -9000007    1    1    2    0  502  0.82307474434E+02  0.11547980799E+03  0.12948169788E+03  0.44370667844E+03  0.40000000000E+03 0.  1.
<mgrwt>
<rscale>  2 0.42439381E+03</rscale>
<asrwt>0</asrwt>
<pdfrwt beam="1">  1       21 0.46633028E-01 0.42439381E+03</pdfrwt>
<pdfrwt beam="2">  1       21 0.44348774E+00 0.42439381E+03</pdfrwt>
<totfact> 0.14922608E+01</totfact>
</mgrwt>
</event>
<event>
 4    1  0.4703494E-002  0.4541954E+03  0.7818608E-02  0.1026478E+00
         21   -1    0    0  503  502  0.00000000000E+00  0.00000000000E+00  0.87064306474E+03  0.87064306474E+03  0.00000000000E+00 0.  1.
         21   -1    0    0  501  503 -0.00000000000E+00 -0.00000000000E+00 -0.26498215497E+03  0.26498215497E+03  0.00000000000E+00 0. -1.
    9000007    1    1    2  501    0 -0.10393311999E+03 -0.18839154182E+03  0.48753308116E+03  0.66631972182E+03  0.40000000000E+03 0.  1.
   -9000007    1    1    2    0  502  0.10393311999E+03  0.18839154182E+03  0.11812782860E+03  0.46930549789E+03  0.40000000000E+03 0. -1.
<mgrwt>
<rscale>  2 0.45419541E+03</rscale>
<asrwt>0</asrwt>
<pdfrwt beam="1">  1       21 0.13394509E+00 0.45419541E+03</pdfrwt>
<pdfrwt beam="2">  1       21 0.40766486E-01 0.45419541E+03</pdfrwt>
<totfact> 0.19915238E+03</totfact>
</mgrwt>
</event>
<event>
 4    1  0.4703494E-002  0.4524086E+03  0.7818608E-02  0.1027006E+00
         21   -1    0    0  501  502  0.00000000000E+00  0.00000000000E+00  0.32248639672E+03  0.32248639672E+03  0.00000000000E+00 0. -1.
         21   -1    0    0  502  503 -0.00000000000E+00 -0.00000000000E+00 -0.10104401330E+04  0.10104401330E+04  0.00000000000E+00 0. -1.
    9000007    1    1    2  501    0 -0.20322557753E+03 -0.58076779964E+02  0.62447809008E+02  0.45669823361E+03  0.40000000000E+03 0. -1.
   -9000007    1    1    2    0  503  0.20322557753E+03  0.58076779964E+02 -0.75040154528E+03  0.87622829610E+03  0.40000000000E+03 0. -1.
<mgrwt>
<rscale>  2 0.45240861E+03</rscale>
<asrwt>0</asrwt>
<pdfrwt beam="1">  1       21 0.49613293E-01 0.45240861E+03</pdfrwt>
<pdfrwt beam="2">  1       21 0.15545233E+00 0.45240861E+03</pdfrwt>
<totfact> 0.88555415E+02</totfact>
</mgrwt>
</event>
<event>
 4    1  0.4703494E-002  0.4190685E+03  0.7818608E-02  0.1037370E+00
         21   -1    0    0  501  502  0.00000000000E+00  0.00000000000E+00  0.67599116467E+03  0.67599116467E+03  0.00000000000E+00 0.  1.
         21   -1    0    0  502  503 -0.00000000000E+00 -0.00000000000E+00 -0.41775268729E+03  0.41775268729E+03  0.00000000000E+00 0.  1.
    9000007    1    1    2  501    0  0.48287280263E+02 -0.11526803641E+03  0.46539680615E+03  0.62626876725E+03  0.40000000000E+03 0.  1.
   -9000007    1    1    2    0  503 -0.48287280263E+02  0.11526803641E+03 -0.20715832877E+03  0.46747508472E+03  0.40000000000E+03 0.  1.
<mgrwt>
<rscale>  2 0.41906847E+03</rscale>
<asrwt>0</asrwt>
<pdfrwt beam="1">  1       21 0.10399864E+00 0.41906847E+03</pdfrwt>
<pdfrwt beam="2">  1       21 0.64269644E-01 0.41906847E+03</pdfrwt>
<totfact> 0.14481463E+03</totfact>
</mgrwt>
</event>
<event>
 4    1  0.4703494E-002  0.4191879E+03  0.7818608E-02  0.1037331E+00
         21   -1    0    0  503  502  0.00000000000E+00  0.00000000000E+00  0.80092638465E+03  0.80092638465E+03  0.00000000000E+00 0.  1.
         21   -1    0    0  501  503 -0.00000000000E+00 -0.00000000000E+00 -0.22875143305E+03  0.22875143305E+03  0.00000000000E+00 0. -1.
    9000007    1    1    2  501    0  0.10398730048E+03  0.70036918381E+02  0.39021495154E+03  0.57270082678E+03  0.40000000000E+03 0.  1.
   -9000007    1    1    2    0  502 -0.10398730048E+03 -0.70036918381E+02  0.18196000006E+03  0.45697699091E+03  0.40000000000E+03 0. -1.
<mgrwt>
<rscale>  2 0.41918794E+03</rscale>
<asrwt>0</asrwt>
<pdfrwt beam="1">  1       21 0.12321944E+00 0.41918794E+03</pdfrwt>
<pdfrwt beam="2">  1       21 0.35192528E-01 0.41918794E+03</pdfrwt>
<totfact> 0.33823976E+03</totfact>
</mgrwt>
</event>
<event>
 4    1  0.4703494E-002  0.5265894E+03  0.7818608E-02  0.1007063E+00
         21   -1    0    0  501  502  0.00000000000E+00  0.00000000000E+00  0.84352708823E+03  0.84352708823E+03  0.00000000000E+00 0.  1.
         21   -1    0    0  502  503 -0.00000000000E+00 -0.00000000000E+00 -0.33609095739E+03  0.33609095739E+03  0.00000000000E+00 0.  1.
    9000007    1    1    2  501    0 -0.33464968226E+03  0.72842240171E+02  0.16645725493E+03  0.55227205208E+03  0.40000000000E+03 0.  1.
   -9000007    1    1    2    0  503  0.33464968226E+03 -0.72842240171E+02  0.34097887590E+03  0.62734599353E+03  0.40000000000E+03 0.  1.
<mgrwt>
<rscale>  2 0.52658941E+03</rscale>
<asrwt>0</asrwt>
<pdfrwt beam="1">  1       21 0.12977340E+00 0.52658941E+03</pdfrwt>
<pdfrwt beam="2">  1       21 0.51706302E-01 0.52658941E+03</pdfrwt>
<totfact> 0.12772206E+03</totfact>
</mgrwt>
</event>
<event>
 4    1  0.4703494E-002  0.4922330E+03  0.7818608E-02  0.1015826E+00
         21   -1    0    0  503  502  0.00000000000E+00  0.00000000000E+00  0.48381044674E+03  0.48381044674E+03  0.00000000000E+00 0.  1.
         21   -1    0    0  501  503 -0.00000000000E+00 -0.00000000000E+00 -0.10237319182E+04  0.10237319182E+04  0.00000000000E+00 0. -1.
    9000007    1    1    2  501    0  0.18262330657E+03 -0.22122844490E+03 -0.80868694318E+03  0.94671424887E+03  0.40000000000E+03 0. -1.
   -9000007    1    1    2    0  502 -0.18262330657E+03  0.22122844490E+03  0.26876547176E+03  0.56082811604E+03  0.40000000000E+03 0.  1.
<mgrwt>
<rscale>  2 0.49223297E+03</rscale>
<asrwt>0</asrwt>
<pdfrwt beam="1">  1       21 0.74432378E-01 0.49223297E+03</pdfrwt>
<pdfrwt beam="2">  1       21 0.15749722E+00 0.49223297E+03</pdfrwt>
<totfact> 0.34375980E+02</totfact>
</mgrwt>
</event>
<event>
 4    1  0.4703494E-002  0.4279694E+03  0.7818608E-02  0.1034503E+00
         21   -1    0    0  503  502  0.00000000000E+00  0.00000000000E+00  0.12990973884E+04  0.12990973884E+04  0.00000000000E+00 0.  1.
         21   -1    0    0  501  503 -0.00000000000E+00 -0.00000000000E+00 -0.38188266030E+03  0.38188266030E+03  0.00000000000E+00 0.  1.
    9000007    1    1    2  501    0 -0.50234724293E+02 -0.14364646391E+03 -0.20893787135E+03  0.47624874615E+03  0.40000000000E+03 0.  1.
   -9000007    1    1    2    0  502  0.50234724293E+02  0.14364646391E+03  0.11261525994E+04  0.12047313025E+04  0.40000000000E+03 0.  1.
<mgrwt>
<rscale>  2 0.42796943E+03</rscale>
<asrwt>0</asrwt>
<pdfrwt beam="1">  1       21 0.19986114E+00 0.42796943E+03</pdfrwt>
<pdfrwt beam="2">  1       21 0.58751179E-01 0.42796943E+03</pdfrwt>
<totfact> 0.30069143E+02</totfact>
</mgrwt>
</event>
<event>
 4    1  0.4703494E-002  0.4024194E+03  0.7818608E-02  0.1042945E+00
         21   -1    0    0  501  502  0.00000000000E+00  0.00000000000E+00  0.11072749647E+03  0.11072749647E+03  0.00000000000E+00 0.  1.
         21   -1    0    0  502  503 -0.00000000000E+00 -0.00000000000E+00 -0.15766426598E+04  0.15766426598E+04  0.00000000000E+00 0.  1.
    9000007    1    1    2  501    0  0.25338761193E+02 -0.36046038833E+02 -0.50597298775E+03  0.64649055218E+03  0.40000000000E+03 0. -1.
   -9000007    1    1    2    0  503 -0.25338761193E+02  0.36046038833E+02 -0.95994217562E+03  0.10408796041E+04  0.40000000000E+03 0. -1.
<mgrwt>
<rscale>  2 0.40241940E+03</rscale>
<asrwt>0</asrwt>
<pdfrwt beam="1">  1       21 0.17035001E-01 0.40241940E+03</pdfrwt>
<pdfrwt beam="2">  1       21 0.24256038E+00 0.40241940E+03</pdfrwt>
<totfact> 0.19503408E+03</totfact>
</mgrwt>
</event>
<event>
 4    1  0.4703494E-002  0.4122240E+03  0.7818608E-02  0.1039627E+00
         21   -1    0    0  501  502  0.00000000000E+00  0.00000000000E+00  0.76586330384E+03  0.76586330384E+03  0.00000000000E+00 0.  1.
         21   -1    0    0  502  503 -0.00000000000E+00 -0.00000000000E+00 -0.33471752071E+03  0.33471752071E+03  0.00000000000E+00 0.  1.
    9000007    1    1    2  501    0 -0.58772942849E+02 -0.80463293330E+02  0.53508136414E+03  0.67545589540E+03  0.40000000000E+03 0.  1.
   -9000007    1    1    2    0  503  0.58772942849E+02  0.80463293330E+02 -0.10393558100E+03  0.42512492915E+03  0.40000000000E+03 0.  1.
<mgrwt>
<rscale>  2 0.41222397E+03</rscale>
<asrwt>0</asrwt>
<pdfrwt beam="1">  1       21 0.11782512E+00 0.41222397E+03</pdfrwt>
<pdfrwt beam="2">  1       21 0.51495003E-01 0.41222397E+03</pdfrwt>
<totfact> 0.17248562E+03</totfact>
</mgrwt>
</event>
<event>
 4    1  0.4703494E-002  0.4719248E+03  0.7818608E-02  0.1021378E+00
         21   -1    0    0  501  502  0.00000000000E+00  0.00000000000E+00  0.19296957993E+04  0.19296957993E+04  0.00000000000E+00 0.  1.
         21   -1    0    0  502  503 -0.00000000000E+00 -0.00000000000E+00 -0.13733250096E+03  0.13733250096E+03  0.00000000000E+00 0.  1.
    9000007    1    1    2  501    0 -0.23019122758E+03 -0.98615269217E+02  0.13090770112E+04  0.13915443197E+04  0.40000000000E+03 0.  1.
   -9000007    1    1    2    0  503  0.23019122758E+03  0.98615269217E+02  0.48328628710E+03  0.67548398047E+03  0.40000000000E+03 0.  1.
<mgrwt>
<rscale>  2 0.47192475E+03</rscale>
<asrwt>0</asrwt>
<pdfrwt beam="1">  1       21 0.29687626E+00 0.47192475E+03</pdfrwt>
<pdfrwt beam="2">  1       21 0.21128078E-01 0.47192475E+03</pdfrwt>
<totfact> 0.58616810E+02</totfact>
</mgrwt>
</event>
<event>
 4    1  0.4703494E-002  0.4248400E+03  0.7818608E-02  0.1035502E+00
         21   -1    0    0  501  502  0.00000000000E+00  0.00000000000E+00  0.15323086973E+03  0.15323086973E+03  0.00000000000E+00 0.  1.
         21   -1    0    0  502  503 -0.00000000000E+00 -0.00000000000E+00 -0.12053253303E+04  0.12053253303E+04  0.00000000000E+00 0. -1.
    9000007    1    1    2  501    0  0.23963872184E+02 -0.14111978819E+03 -0.42356395088E+03  0.59991289557E+03  0.40000000000E+03 0. -1.
   -9000007    1    1    2    0  503 -0.23963872184E+02  0.14111978819E+03 -0.62853050968E+03  0.75864330445E+03  0.40000000000E+03 0. -1.
<mgrwt>
<rscale>  2 0.42484004E+03</rscale>
<asrwt>0</asrwt>
<pdfrwt beam="1">  1       21 0.23573980E-01 0.42484004E+03</pdfrwt>
<pdfrwt beam="2">  1       21 0.18543467E+00 0.42484004E+03</pdfrwt>
<totfact> 0.24390460E+03</totfact>
</mgrwt>
</event>
<event>
 4    1  0.4703494E-002  0.4451575E+03  0.7818608E-02  0.1029176E+00
         21   -1    0    0  503  502  0.00000000000E+00  0.00000000000E+00  0.11151309825E+04  0.11151309825E+04  0.00000000000E+00 0. -1.
         21   -1    0    0  501  503 -0.00000000000E+00 -0.00000000000E+00 -0.21612995761E+03  0.21612995761E+03  0.00000000000E+00 0. -1.
    9000007    1    1    2  501    0 -0.16308665359E+03  0.10755429962E+03  0.73015900515E+03  0.85515925812E+03  0.40000000000E+03 0. -1.
   -9000007    1    1    2    0  502  0.16308665359E+03 -0.10755429962E+03  0.16884201972E+03  0.47610168196E+03  0.40000000000E+03 0. -1.
<mgrwt>
<rscale>  2 0.44515748E+03</rscale>
<asrwt>0</asrwt>
<pdfrwt beam="1">  1       21 0.17155861E+00 0.44515748E+03</pdfrwt>
<pdfrwt beam="2">  1       21 0.33250763E-01 0.44515748E+03</pdfrwt>
<totfact> 0.15394772E+03</totfact>
</mgrwt>
</event>
<event>
 4    1  0.4703494E-002  0.4361216E+03  0.7818608E-02  0.1031943E+00
         21   -1    0    0  503  502  0.00000000000E+00  0.00000000000E+00  0.12578060720E+03  0.12578060720E+03  0.00000000000E+00 0.  1.
         21   -1    0    0  501  503 -0.00000000000E+00 -0.00000000000E+00 -0.17117212338E+04  0.17117212338E+04  0.00000000000E+00 0.  1.
    9000007    1    1    2  501    0 -0.15044805690E+03  0.86991208964E+02 -0.47927734873E+03  0.64800375405E+03  0.40000000000E+03 0.  1.
   -9000007    1    1    2    0  502  0.15044805690E+03 -0.86991208964E+02 -0.11066632779E+04  0.11894980869E+04  0.40000000000E+03 0.  1.
<mgrwt>
<rscale>  2 0.43612164E+03</rscale>
<asrwt>0</asrwt>
<pdfrwt beam="1">  1       21 0.19350864E-01 0.43612164E+03</pdfrwt>
<pdfrwt beam="2">  1       21 0.26334171E+00 0.43612164E+03</pdfrwt>
<totfact> 0.11255802E+03</totfact>
</mgrwt>
</event>
<event>
 4    1  0.4703494E-002  0.6945982E+03  0.7818608E-02  0.9726515E-01
         21   -1    0    0  503  502  0.00000000000E+00  0.00000000000E+00  0.70565452557E+03  0.70565452557E+03  0.00000000000E+00 0. -1.
         21   -1    0    0  501  503 -0.00000000000E+00 -0.00000000000E+00 -0.79798735438E+03  0.79798735438E+03  0.00000000000E+00 0.  1.
    9000007    1    1    2  501    0 -0.24454059217E+02 -0.56733472383E+03 -0.33066932612E+03  0.76929116277E+03  0.40000000000E+03 0.  1.
   -9000007    1    1    2    0  502  0.24454059217E+02  0.56733472383E+03  0.23833649732E+03  0.73435071718E+03  0.40000000000E+03 0. -1.
<mgrwt>
<rscale>  2 0.69459822E+03</rscale>
<asrwt>0</asrwt>
<pdfrwt beam="1">  1       21 0.10856223E+00 0.69459822E+03</pdfrwt>
<pdfrwt beam="2">  1       21 0.12276729E+00 0.69459822E+03</pdfrwt>
<totfact> 0.25251428E+02</totfact>
</mgrwt>
</event>
<event>
 4    1  0.4703494E-002  0.4495935E+03  0.7818608E-02  0.1027843E+00
         21   -1    0    0  503  502  0.00000000000E+00  0.00000000000E+00  0.25626810558E+03  0.25626810558E+03  0.00000000000E+00 0.  1.
         21   -1    0    0  501  503 -0.00000000000E+00 -0.00000000000E+00 -0.13003807397E+04  0.13003807397E+04  0.00000000000E+00 0. -1.
    9000007    1    1    2  501    0 -0.18614037196E+03  0.86522238618E+02 -0.10102576486E+04  0.11057824616E+04  0.40000000000E+03 0. -1.
   -9000007    1    1    2    0  502  0.18614037196E+03 -0.86522238618E+02 -0.33854985478E+02  0.45086638363E+03  0.40000000000E+03 0.  1.
<mgrwt>
<rscale>  2 0.44959352E+03</rscale>
<asrwt>0</asrwt>
<pdfrwt beam="1">  1       21 0.39425863E-01 0.44959352E+03</pdfrwt>
<pdfrwt beam="2">  1       21 0.20005857E+00 0.44959352E+03</pdfrwt>
<totfact> 0.68947172E+02</totfact>
</mgrwt>
</event>
<event>
 4    1  0.4703494E-002  0.5569574E+03  0.7818608E-02  0.9998963E-01
         21   -1    0    0  503  502  0.00000000000E+00  0.00000000000E+00  0.33781210828E+03  0.33781210828E+03  0.00000000000E+00 0.  1.
         21   -1    0    0  501  503 -0.00000000000E+00 -0.00000000000E+00 -0.96008032246E+03  0.96008032246E+03  0.00000000000E+00 0. -1.
    9000007    1    1    2  501    0 -0.37248336238E+03  0.10704075663E+03 -0.17570428934E+03  0.58401504786E+03  0.40000000000E+03 0.  1.
   -9000007    1    1    2    0  502  0.37248336238E+03 -0.10704075663E+03 -0.44656392484E+03  0.71387738289E+03  0.40000000000E+03 0. -1.
<mgrwt>
<rscale>  2 0.55695743E+03</rscale>
<asrwt>0</asrwt>
<pdfrwt beam="1">  1       21 0.51971094E-01 0.55695743E+03</pdfrwt>
<pdfrwt beam="2">  1       21 0.14770466E+00 0.55695743E+03</pdfrwt>
<totfact> 0.88565778E+02</totfact>
</mgrwt>
</event>
<event>
 4    1  0.4703494E-002  0.6834538E+03  0.7818608E-02  0.9745954E-01
         21   -1    0    0  503  502  0.00000000000E+00  0.00000000000E+00  0.86303783356E+03  0.86303783356E+03  0.00000000000E+00 0.  1.
         21   -1    0    0  501  503 -0.00000000000E+00 -0.00000000000E+00 -0.56374652721E+03  0.56374652721E+03  0.00000000000E+00 0. -1.
    9000007    1    1    2  501    0 -0.14887533992E+03  0.53380265252E+03  0.29219228229E+03  0.74329366236E+03  0.40000000000E+03 0.  1.
   -9000007    1    1    2    0  502  0.14887533992E+03 -0.53380265252E+03  0.70990240626E+01  0.68349069841E+03  0.40000000000E+03 0. -1.
<mgrwt>
<rscale>  2 0.68345383E+03</rscale>
<asrwt>0</asrwt>
<pdfrwt beam="1">  1       21 0.13277505E+00 0.68345383E+03</pdfrwt>
<pdfrwt beam="2">  1       21 0.86730234E-01 0.68345383E+03</pdfrwt>
<totfact> 0.35687519E+02</totfact>
</mgrwt>
</event>
<event>
 4    1  0.4703494E-002  0.4281435E+03  0.7818608E-02  0.1034448E+00
         21   -1    0    0  503  502  0.00000000000E+00  0.00000000000E+00  0.19603788029E+04  0.19603788029E+04  0.00000000000E+00 0. -1.
         21   -1    0    0  501  503 -0.00000000000E+00 -0.00000000000E+00 -0.10382871022E+03  0.10382871022E+03  0.00000000000E+00 0. -1.
    9000007    1    1    2  501    0  0.19231544752E+02  0.15144962825E+03  0.12537106958E+04  0.13248008722E+04  0.40000000000E+03 0. -1.
   -9000007    1    1    2    0  502 -0.19231544752E+02 -0.15144962825E+03  0.60283939690E+03  0.73940664094E+03  0.40000000000E+03 0. -1.
<mgrwt>
<rscale>  2 0.42814348E+03</rscale>
<asrwt>0</asrwt>
<pdfrwt beam="1">  1       21 0.30159671E+00 0.42814348E+03</pdfrwt>
<pdfrwt beam="2">  1       21 0.15973649E-01 0.42814348E+03</pdfrwt>
<totfact> 0.95383950E+02</totfact>
</mgrwt>
</event>
<event>
 4    1  0.4703494E-002  0.4234210E+03  0.7818608E-02  0.1035959E+00
         21   -1    0    0  503  502  0.00000000000E+00  0.00000000000E+00  0.98771056250E+03  0.98771056250E+03  0.00000000000E+00 0. -1.
         21   -1    0    0  501  503 -0.00000000000E+00 -0.00000000000E+00 -0.48476918749E+03  0.48476918749E+03  0.00000000000E+00 0. -1.
    9000007    1    1    2  501    0  0.13521278250E+03  0.31667813111E+02 -0.33083960059E+03  0.53734550175E+03  0.40000000000E+03 0. -1.
   -9000007    1    1    2    0  502 -0.13521278250E+03 -0.31667813111E+02  0.83378097560E+03  0.93513424823E+03  0.40000000000E+03 0. -1.
<mgrwt>
<rscale>  2 0.42342100E+03</rscale>
<asrwt>0</asrwt>
<pdfrwt beam="1">  1       21 0.15195547E+00 0.42342100E+03</pdfrwt>
<pdfrwt beam="2">  1       21 0.74579876E-01 0.42342100E+03</pdfrwt>
<totfact> 0.39018278E+02</totfact>
</mgrwt>
</event>
<event>
 4    1  0.4703494E-002  0.6413468E+03  0.7818608E-02  0.9823153E-01
         21   -1    0    0  501  502  0.00000000000E+00  0.00000000000E+00  0.43560708596E+03  0.43560708596E+03  0.00000000000E+00 0.  1.
         21   -1    0    0  502  503 -0.00000000000E+00 -0.00000000000E+00 -0.99858155276E+03  0.99858155276E+03  0.00000000000E+00 0. -1.
    9000007    1    1    2  501    0 -0.50101519158E+03 -0.17592720180E+02 -0.44874115101E+03  0.78274794577E+03  0.40000000000E+03 0. -1.
   -9000007    1    1    2    0  503  0.50101519158E+03  0.17592720180E+02 -0.11423331580E+03  0.65144069295E+03  0.40000000000E+03 0.  1.
<mgrwt>
<rscale>  2 0.64134681E+03</rscale>
<asrwt>0</asrwt>
<pdfrwt beam="1">  1       21 0.67016476E-01 0.64134681E+03</pdfrwt>
<pdfrwt beam="2">  1       21 0.15362793E+00 0.64134681E+03</pdfrwt>
<totfact> 0.44197037E+02</totfact>
</mgrwt>
</event>
<event>
 4    1  0.4703494E-002  0.4886077E+03  0.7818608E-02  0.1016796E+00
         21   -1    0    0  503  502  0.00000000000E+00  0.00000000000E+00  0.16265891226E+03  0.16265891226E+03  0.00000000000E+00 0. -1.
         21   -1    0    0  501  503 -0.00000000000E+00 -0.00000000000E+00 -0.14974189552E+04  0.14974189552E+04  0.00000000000E+00 0.  1.
    9000007    1    1    2  501    0 -0.27700222404E+03  0.44802165628E+02 -0.78427870946E+03  0.92402952349E+03  0.40000000000E+03 0.  1.
   -9000007    1    1    2    0  502  0.27700222404E+03 -0.44802165628E+02 -0.55048133352E+03  0.73604834401E+03  0.40000000000E+03 0. -1.
<mgrwt>
<rscale>  2 0.48860768E+03</rscale>
<asrwt>0</asrwt>
<pdfrwt beam="1">  1       21 0.25024449E-01 0.48860768E+03</pdfrwt>
<pdfrwt beam="2">  1       21 0.23037213E+00 0.48860768E+03</pdfrwt>
<totfact> 0.10699843E+03</totfact>
</mgrwt>
</event>
<event>
 4    1  0.4703494E-002  0.4046909E+03  0.7818608E-02  0.1042167E+00
         21   -1    0    0  501  502  0.00000000000E+00  0.00000000000E+00  0.25336992159E+03  0.25336992159E+03  0.00000000000E+00 0. -1.
         21   -1    0    0  502  503 -0.00000000000E+00 -0.00000000000E+00 -0.70549228019E+03  0.70549228019E+03  0.00000000000E+00 0. -1.
    9000007    1    1    2  501    0  0.34047655302E+02 -0.51141807618E+02 -0.87290566707E+02  0.41399803182E+03  0.40000000000E+03 0. -1.
   -9000007    1    1    2    0  503 -0.34047655302E+02  0.51141807618E+02 -0.36483179190E+03  0.54486416995E+03  0.40000000000E+03 0. -1.
<mgrwt>
<rscale>  2 0.40469090E+03</rscale>
<asrwt>0</asrwt>
<pdfrwt beam="1">  1       21 0.38979988E-01 0.40469090E+03</pdfrwt>
<pdfrwt beam="2">  1       21 0.10853727E+00 0.40469090E+03</pdfrwt>
<totfact> 0.37971793E+03</totfact>
</mgrwt>
</event>
<event>
 4    1  0.4703494E-002  0.6340923E+03  0.7818608E-02  0.9837095E-01
         21   -1    0    0  501  502  0.00000000000E+00  0.00000000000E+00  0.45794795674E+03  0.45794795674E+03  0.00000000000E+00 0.  1.
         21   -1    0    0  502  503 -0.00000000000E+00 -0.00000000000E+00 -0.87809444832E+03  0.87809444832E+03  0.00000000000E+00 0. -1.
    9000007    1    1    2  501    0  0.36603214724E+03  0.32877575581E+03 -0.21741175491E+03  0.67032895029E+03  0.40000000000E+03 0.  1.
   -9000007    1    1    2    0  503 -0.36603214724E+03 -0.32877575581E+03 -0.20273473667E+03  0.66571345478E+03  0.40000000000E+03 0. -1.
<mgrwt>
<rscale>  2 0.63409229E+03</rscale>
<asrwt>0</asrwt>
<pdfrwt beam="1">  1       21 0.70453532E-01 0.63409229E+03</pdfrwt>
<pdfrwt beam="2">  1       21 0.13509145E+00 0.63409229E+03</pdfrwt>
<totfact> 0.56069929E+02</totfact>
</mgrwt>
</event>
<event>
 4    1  0.4703494E-002  0.4630056E+03  0.7818608E-02  0.1023913E+00
         21   -1    0    0  501  502  0.00000000000E+00  0.00000000000E+00  0.74846817402E+03  0.74846817402E+03  0.00000000000E+00 0. -1.
         21   -1    0    0  502  503 -0.00000000000E+00 -0.00000000000E+00 -0.51437482203E+03  0.51437482203E+03  0.00000000000E+00 0. -1.
    9000007    1    1    2  501    0 -0.22007824537E+03  0.77069836288E+02  0.53739229698E+03  0.70934101432E+03  0.40000000000E+03 0. -1.
   -9000007    1    1    2    0  503  0.22007824537E+03 -0.77069836288E+02 -0.30329894499E+03  0.55350198173E+03  0.40000000000E+03 0. -1.
<mgrwt>
<rscale>  2 0.46300561E+03</rscale>
<asrwt>0</asrwt>
<pdfrwt beam="1">  1       21 0.11514895E+00 0.46300561E+03</pdfrwt>
<pdfrwt beam="2">  1       21 0.79134587E-01 0.46300561E+03</pdfrwt>
<totfact> 0.69023639E+02</totfact>
</mgrwt>
</event>
<event>
 4    1  0.4703494E-002  0.4401371E+03  0.7818608E-02  0.1030705E+00
         21   -1    0    0  501  502  0.00000000000E+00  0.00000000000E+00  0.11049880007E+04  0.11049880007E+04  0.00000000000E+00 0. -1.
         21   -1    0    0  502  503 -0.00000000000E+00 -0.00000000000E+00 -0.19507434432E+03  0.19507434432E+03  0.00000000000E+00 0. -1.
    9000007    1    1    2  501    0 -0.25413133382E+02 -0.18186498731E+03  0.66183899660E+03  0.79482800553E+03  0.40000000000E+03 0. -1.
   -9000007    1    1    2    0  503  0.25413133382E+02  0.18186498731E+03  0.24807465974E+03  0.50523433946E+03  0.40000000000E+03 0. -1.
<mgrwt>
<rscale>  2 0.44013714E+03</rscale>
<asrwt>0</asrwt>
<pdfrwt beam="1">  1       21 0.16999815E+00 0.44013714E+03</pdfrwt>
<pdfrwt beam="2">  1       21 0.30011438E-01 0.44013714E+03</pdfrwt>
<totfact> 0.19433594E+03</totfact>
</mgrwt>
</event>
<event>
 4    1  0.4703494E-002  0.5834034E+03  0.7818608E-02  0.9940450E-01
         21   -1    0    0  501  502  0.00000000000E+00  0.00000000000E+00  0.52416408660E+03  0.52416408660E+03  0.00000000000E+00 0.  1.
         21   -1    0    0  502  503 -0.00000000000E+00 -0.00000000000E+00 -0.79777935099E+03  0.79777935099E+03  0.00000000000E+00 0.  1.
    9000007    1    1    2  501    0  0.29656456356E+02 -0.42365084938E+03  0.14830682790E+03  0.60195885473E+03  0.40000000000E+03 0.  1.
   -9000007    1    1    2    0  503 -0.29656456356E+02  0.42365084938E+03 -0.42192209229E+03  0.71998458285E+03  0.40000000000E+03 0.  1.
<mgrwt>
<rscale>  2 0.58340342E+03</rscale>
<asrwt>0</asrwt>
<pdfrwt beam="1">  1       21 0.80640629E-01 0.58340342E+03</pdfrwt>
<pdfrwt beam="2">  1       21 0.12273528E+00 0.58340342E+03</pdfrwt>
<totfact> 0.53677999E+02</totfact>
</mgrwt>
</event>
<event>
 4    1  0.4703494E-002  0.5327827E+03  0.7818608E-02  0.1005559E+00
         21   -1    0    0  503  502  0.00000000000E+00  0.00000000000E+00  0.49046791299E+03  0.49046791299E+03  0.00000000000E+00 0.  1.
         21   -1    0    0  501  503 -0.00000000000E+00 -0.00000000000E+00 -0.76486647589E+03  0.76486647589E+03  0.00000000000E+00 0.  1.
    9000007    1    1    2  501    0 -0.36197357238E+02 -0.35006738487E+03 -0.44682079250E+03  0.69534613196E+03  0.40000000000E+03 0.  1.
   -9000007    1    1    2    0  502  0.36197357238E+02  0.35006738487E+03  0.17242222960E+03  0.55998825691E+03  0.40000000000E+03 0.  1.
<mgrwt>
<rscale>  2 0.53278272E+03</rscale>
<asrwt>0</asrwt>
<pdfrwt beam="1">  1       21 0.75456603E-01 0.53278272E+03</pdfrwt>
<pdfrwt beam="2">  1       21 0.11767176E+00 0.53278272E+03</pdfrwt>
<totfact> 0.70965570E+02</totfact>
</mgrwt>
</event>
<event>
 4    1  0.4703494E-002  0.4649875E+03  0.7818608E-02  0.1023345E+00
         21   -1    0    0  503  502  0.00000000000E+00  0.00000000000E+00  0.16191606056E+04  0.16191606056E+04  0.00000000000E+00 0.  1.
         21   -1    0    0  501  503 -0.00000000000E+00 -0.00000000000E+00 -0.42401949155E+03  0.42401949155E+03  0.00000000000E+00 0.  1.
    9000007    1    1    2  501    0 -0.44339177519E+02  0.23291070409E+03 -0.24799210477E+03  0.52698523961E+03  0.40000000000E+03 0.  1.
   -9000007    1    1    2    0  502  0.44339177519E+02 -0.23291070409E+03  0.14431332188E+04  0.15161948575E+04  0.40000000000E+03 0.  1.
<mgrwt>
<rscale>  2 0.46498748E+03</rscale>
<asrwt>0</asrwt>
<pdfrwt beam="1">  1       21 0.24910163E+00 0.46498748E+03</pdfrwt>
<pdfrwt beam="2">  1       21 0.65233769E-01 0.46498748E+03</pdfrwt>
<totfact> 0.11363581E+02</totfact>
</mgrwt>
</event>
<event>
 4    1  0.4703494E-002  0.4583639E+03  0.7818608E-02  0.1025257E+00
         21   -1    0    0  501  502  0.00000000000E+00  0.00000000000E+00  0.28922383452E+03  0.28922383452E+03  0.00000000000E+00 0.  1.
         21   -1    0    0  502  503 -0.00000000000E+00 -0.00000000000E+00 -0.81477752097E+03  0.81477752097E+03  0.00000000000E+00 0.  1.
    9000007    1    1    2  501    0 -0.22294772810E+03  0.19793871297E+02 -0.44455681242E+03  0.63853601799E+03  0.40000000000E+03 0. -1.
   -9000007    1    1    2    0  503  0.22294772810E+03 -0.19793871297E+02 -0.80996874030E+02  0.46546533749E+03  0.40000000000E+03 0. -1.
<mgrwt>
<rscale>  2 0.45836392E+03</rscale>
<asrwt>0</asrwt>
<pdfrwt beam="1">  1       21 0.44495975E-01 0.45836392E+03</pdfrwt>
<pdfrwt beam="2">  1       21 0.12535039E+00 0.45836392E+03</pdfrwt>
<totfact> 0.19685452E+03</totfact>
</mgrwt>
</event>
<event>
 4    1  0.4703494E-002  0.4068181E+03  0.7818608E-02  0.1041444E+00
         21   -1    0    0  503  502  0.00000000000E+00  0.00000000000E+00  0.27378463713E+03  0.27378463713E+03  0.00000000000E+00 0. -1.
         21   -1    0    0  501  503 -0.00000000000E+00 -0.00000000000E+00 -0.64170009874E+03  0.64170009874E+03  0.00000000000E+00 0. -1.
    9000007    1    1    2  501    0  0.20081840793E+01 -0.74141381795E+02 -0.73736249527E+02  0.41344650415E+03  0.40000000000E+03 0. -1.
   -9000007    1    1    2    0  502 -0.20081840793E+01  0.74141381795E+02 -0.29417921208E+03  0.50203823173E+03  0.40000000000E+03 0. -1.
<mgrwt>
<rscale>  2 0.40681811E+03</rscale>
<asrwt>0</asrwt>
<pdfrwt beam="1">  1       21 0.42120714E-01 0.40681811E+03</pdfrwt>
<pdfrwt beam="2">  1       21 0.98723090E-01 0.40681811E+03</pdfrwt>
<totfact> 0.40779149E+03</totfact>
</mgrwt>
</event>
<event>
 4    1  0.4703494E-002  0.5407351E+03  0.7818608E-02  0.1003661E+00
         21   -1    0    0  503  502  0.00000000000E+00  0.00000000000E+00  0.18645231997E+04  0.18645231997E+04  0.00000000000E+00 0. -1.
         21   -1    0    0  501  503 -0.00000000000E+00 -0.00000000000E+00 -0.15845171019E+03  0.15845171019E+03  0.00000000000E+00 0. -1.
    9000007    1    1    2  501    0 -0.28511184341E+03 -0.22606558259E+03  0.95568171873E+03  0.10980537138E+04  0.40000000000E+03 0. -1.
   -9000007    1    1    2    0  502  0.28511184341E+03  0.22606558259E+03  0.75038977083E+03  0.92492119613E+03  0.40000000000E+03 0. -1.
<mgrwt>
<rscale>  2 0.54073507E+03</rscale>
<asrwt>0</asrwt>
<pdfrwt beam="1">  1       21 0.28684971E+00 0.54073507E+03</pdfrwt>
<pdfrwt beam="2">  1       21 0.24377188E-01 0.54073507E+03</pdfrwt>
<totfact> 0.49428763E+02</totfact>
</mgrwt>
</event>
<event>
 4    1  0.4703494E-002  0.4910192E+03  0.7818608E-02  0.1016150E+00
         21   -1    0    0  503  502  0.00000000000E+00  0.00000000000E+00  0.19573782081E+03  0.19573782081E+03  0.00000000000E+00 0. -1.
         21   -1    0    0  501  503 -0.00000000000E+00 -0.00000000000E+00 -0.30679510682E+04  0.30679510682E+04  0.00000000000E+00 0. -1.
    9000007    1    1    2  501    0 -0.17511757084E+03 -0.22457443232E+03 -0.26985583910E+04  0.27428666080E+04  0.40000000000E+03 0. -1.
   -9000007    1    1    2    0  502  0.17511757084E+03  0.22457443232E+03 -0.17365485632E+03  0.52082228101E+03  0.40000000000E+03 0. -1.
<mgrwt>
<rscale>  2 0.49101918E+03</rscale>
<asrwt>0</asrwt>
<pdfrwt beam="1">  1       21 0.30113514E-01 0.49101918E+03</pdfrwt>
<pdfrwt beam="2">  1       21 0.47199242E+00 0.49101918E+03</pdfrwt>
<totfact> 0.22120206E+01</totfact>
</mgrwt>
</event>
<event>
 4    1  0.4703494E-002  0.5712759E+03  0.7818608E-02  0.9966859E-01
         21   -1    0    0  503  502  0.00000000000E+00  0.00000000000E+00  0.97036621411E+03  0.97036621411E+03  0.00000000000E+00 0.  1.
         21   -1    0    0  501  503 -0.00000000000E+00 -0.00000000000E+00 -0.33640754414E+03  0.33640754414E+03  0.00000000000E+00 0.  1.
    9000007    1    1    2  501    0 -0.39985889347E+03 -0.80430157387E+02  0.32735831093E+03  0.65842205966E+03  0.40000000000E+03 0.  1.
   -9000007    1    1    2    0  502  0.39985889347E+03  0.80430157387E+02  0.30660035903E+03  0.64835169859E+03  0.40000000000E+03 0.  1.
<mgrwt>
<rscale>  2 0.57127589E+03</rscale>
<asrwt>0</asrwt>
<pdfrwt beam="1">  1       21 0.14928711E+00 0.57127589E+03</pdfrwt>
<pdfrwt beam="2">  1       21 0.51755007E-01 0.57127589E+03</pdfrwt>
<totfact> 0.86377998E+02</totfact>
</mgrwt>
</event>
<event>
 4    1  0.4703494E-002  0.4468414E+03  0.7818608E-02  0.1028668E+00
         21   -1    0    0  503  502  0.00000000000E+00  0.00000000000E+00  0.30747557831E+03  0.30747557831E+03  0.00000000000E+00 0.  1.
         21   -1    0    0  501  503 -0.00000000000E+00 -0.00000000000E+00 -0.10464790594E+04  0.10464790594E+04  0.00000000000E+00 0. -1.
    9000007    1    1    2  501    0 -0.13515244307E+03 -0.14629088214E+03 -0.78652527390E+03  0.90459339570E+03  0.40000000000E+03 0. -1.
   -9000007    1    1    2    0  502  0.13515244307E+03  0.14629088214E+03  0.47521792768E+02  0.44936124205E+03  0.40000000000E+03 0.  1.
<mgrwt>
<rscale>  2 0.44684136E+03</rscale>
<asrwt>0</asrwt>
<pdfrwt beam="1">  1       21 0.47303935E-01 0.44684136E+03</pdfrwt>
<pdfrwt beam="2">  1       21 0.16099678E+00 0.44684136E+03</pdfrwt>
<totfact> 0.89096434E+02</totfact>
</mgrwt>
</event>
<event>
 4    1  0.4703494E-002  0.4099884E+03  0.7818608E-02  0.1040375E+00
         21   -1    0    0  501  502  0.00000000000E+00  0.00000000000E+00  0.38735041916E+03  0.38735041916E+03  0.00000000000E+00 0.  1.
         21   -1    0    0  502  503 -0.00000000000E+00 -0.00000000000E+00 -0.56678637851E+03  0.56678637851E+03  0.00000000000E+00 0. -1.
    9000007    1    1    2  501    0  0.39084976025E+02 -0.81011219694E+02  0.14123871943E+03  0.43363444159E+03  0.40000000000E+03 0.  1.
   -9000007    1    1    2    0  503 -0.39084976025E+02  0.81011219694E+02 -0.32067467878E+03  0.52050235607E+03  0.40000000000E+03 0. -1.
<mgrwt>
<rscale>  2 0.40998836E+03</rscale>
<asrwt>0</asrwt>
<pdfrwt beam="1">  1       21 0.59592372E-01 0.40998836E+03</pdfrwt>
<pdfrwt beam="2">  1       21 0.87197904E-01 0.40998836E+03</pdfrwt>
<totfact> 0.26178745E+03</totfact>
</mgrwt>
</event>
<event>
 4    1  0.4703494E-002  0.4112726E+03  0.7818608E-02  0.1039945E+00
         21   -1    0    0  503  502  0.00000000000E+00  0.00000000000E+00  0.25844091544E+03  0.25844091544E+03  0.00000000000E+00 0.  1.
         21   -1    0    0  501  503 -0.00000000000E+00 -0.00000000000E+00 -0.13407119331E+04  0.13407119331E+04  0.00000000000E+00 0.  1.
    9000007    1    1    2  501    0  0.19886155171E+02  0.93539784113E+02 -0.11131760366E+04  0.11867207080E+04  0.40000000000E+03 0.  1.
   -9000007    1    1    2    0  502 -0.19886155171E+02 -0.93539784113E+02  0.30905018887E+02  0.41243214057E+03  0.40000000000E+03 0.  1.
<mgrwt>
<rscale>  2 0.41127260E+03</rscale>
<asrwt>0</asrwt>
<pdfrwt beam="1">  1       21 0.39760141E-01 0.41127260E+03</pdfrwt>
<pdfrwt beam="2">  1       21 0.20626337E+00 0.41127260E+03</pdfrwt>
<totfact> 0.62854199E+02</totfact>
</mgrwt>
</event>
<event>
 4    1  0.4703494E-002  0.4001150E+03  0.7818608E-02  0.1043740E+00
         21   -1    0    0  503  502  0.00000000000E+00  0.00000000000E+00  0.99379227382E+03  0.99379227382E+03  0.00000000000E+00 0.  1.
         21   -1    0    0  501  503 -0.00000000000E+00 -0.00000000000E+00 -0.16954393349E+03  0.16954393349E+03  0.00000000000E+00 0.  1.
    9000007    1    1    2  501    0  0.75003717385E+01  0.59777164073E+01  0.54199513348E+03  0.67368443161E+03  0.40000000000E+03 0.  1.
   -9000007    1    1    2    0  502 -0.75003717385E+01 -0.59777164073E+01  0.28225320684E+03  0.48965177570E+03  0.40000000000E+03 0.  1.
<mgrwt>
<rscale>  2 0.40011497E+03</rscale>
<asrwt>0</asrwt>
<pdfrwt beam="1">  1       21 0.15289112E+00 0.40011497E+03</pdfrwt>
<pdfrwt beam="2">  1       21 0.26083683E-01 0.40011497E+03</pdfrwt>
<totfact> 0.34997145E+03</totfact>
</mgrwt>
</event>
<event>
 4    1  0.4703494E-002  0.4543342E+03  0.7818608E-02  0.1026437E+00
         21   -1    0    0  503  502  0.00000000000E+00  0.00000000000E+00  0.12086382131E+04  0.12086382131E+04  0.00000000000E+00 0. -1.
         21   -1    0    0  501  503 -0.00000000000E+00 -0.00000000000E+00 -0.21129875204E+03  0.21129875204E+03  0.00000000000E+00 0.  1.
    9000007    1    1    2  501    0  0.19360627816E+03  0.94531141643E+02  0.18779755223E+03  0.49161717658E+03  0.40000000000E+03 0.  1.
   -9000007    1    1    2    0  502 -0.19360627816E+03 -0.94531141643E+02  0.80954190887E+03  0.92831978859E+03  0.40000000000E+03 0. -1.
<mgrwt>
<rscale>  2 0.45433416E+03</rscale>
<asrwt>0</asrwt>
<pdfrwt beam="1">  1       21 0.18594434E+00 0.45433416E+03</pdfrwt>
<pdfrwt beam="2">  1       21 0.32507501E-01 0.45433416E+03</pdfrwt>
<totfact> 0.12692255E+03</totfact>
</mgrwt>
</event>
<event>
 4    1  0.4703494E-002  0.4306142E+03  0.7818608E-02  0.1033666E+00
         21   -1    0    0  503  502  0.00000000000E+00  0.00000000000E+00  0.38855503519E+03  0.38855503519E+03  0.00000000000E+00 0.  1.
         21   -1    0    0  501  503 -0.00000000000E+00 -0.00000000000E+00 -0.11081720577E+04  0.11081720577E+04  0.00000000000E+00 0.  1.
    9000007    1    1    2  501    0  0.14113550142E+03  0.74224866874E+02 -0.92449207431E+03  0.10198598708E+04  0.40000000000E+03 0.  1.
   -9000007    1    1    2    0  502 -0.14113550142E+03 -0.74224866874E+02  0.20487505181E+03  0.47686722206E+03  0.40000000000E+03 0.  1.
<mgrwt>
<rscale>  2 0.43061417E+03</rscale>
<asrwt>0</asrwt>
<pdfrwt beam="1">  1       21 0.59777699E-01 0.43061417E+03</pdfrwt>
<pdfrwt beam="2">  1       21 0.17048801E+00 0.43061417E+03</pdfrwt>
<totfact> 0.46220752E+02</totfact>
</mgrwt>
</event>
<event>
 4    1  0.4703494E-002  0.5253021E+03  0.7818608E-02  0.1007378E+00
         21   -1    0    0  501  502  0.00000000000E+00  0.00000000000E+00  0.11396946585E+04  0.11396946585E+04  0.00000000000E+00 0. -1.
         21   -1    0    0  502  503 -0.00000000000E+00 -0.00000000000E+00 -0.31740329028E+03  0.31740329028E+03  0.00000000000E+00 0. -1.
    9000007    1    1    2  501    0 -0.32733407573E+03  0.93780299889E+02  0.76596207451E+03  0.92878428140E+03  0.40000000000E+03 0. -1.
   -9000007    1    1    2    0  503  0.32733407573E+03 -0.93780299889E+02  0.56329293683E+02  0.52831366735E+03  0.40000000000E+03 0. -1.
<mgrwt>
<rscale>  2 0.52530214E+03</rscale>
<asrwt>0</asrwt>
<pdfrwt beam="1">  1       21 0.17533764E+00 0.52530214E+03</pdfrwt>
<pdfrwt beam="2">  1       21 0.48831276E-01 0.52530214E+03</pdfrwt>
<totfact> 0.63239321E+02</totfact>
</mgrwt>
</event>
<event>
 4    1  0.4703494E-002  0.4422850E+03  0.7818608E-02  0.1030048E+00
         21   -1    0    0  501  502  0.00000000000E+00  0.00000000000E+00  0.11769853145E+04  0.11769853145E+04  0.00000000000E+00 0. -1.
         21   -1    0    0  502  503 -0.00000000000E+00 -0.00000000000E+00 -0.17123573396E+03  0.17123573396E+03  0.00000000000E+00 0. -1.
    9000007    1    1    2  501    0 -0.18340822489E+03 -0.44467983729E+02  0.61846683625E+03  0.76034019102E+03  0.40000000000E+03 0. -1.
   -9000007    1    1    2    0  503  0.18340822489E+03  0.44467983729E+02  0.38728274430E+03  0.58788085746E+03  0.40000000000E+03 0. -1.
<mgrwt>
<rscale>  2 0.44228495E+03</rscale>
<asrwt>0</asrwt>
<pdfrwt beam="1">  1       21 0.18107466E+00 0.44228495E+03</pdfrwt>
<pdfrwt beam="2">  1       21 0.26343960E-01 0.44228495E+03</pdfrwt>
<totfact> 0.20921945E+03</totfact>
</mgrwt>
</event>
<event>
 4    1  0.4703494E-002  0.5027502E+03  0.7818608E-02  0.1013064E+00
         21   -1    0    0  501  502  0.00000000000E+00  0.00000000000E+00  0.23164667292E+03  0.23164667292E+03  0.00000000000E+00 0.  1.
         21   -1    0    0  502  503 -0.00000000000E+00 -0.00000000000E+00 -0.12738854963E+04  0.12738854963E+04  0.00000000000E+00 0. -1.
    9000007    1    1    2  501    0  0.29537534939E+03 -0.74237377372E+02 -0.80623710396E+03  0.95014527995E+03  0.40000000000E+03 0.  1.
   -9000007    1    1    2    0  503 -0.29537534939E+03  0.74237377372E+02 -0.23600171947E+03  0.55538688931E+03  0.40000000000E+03 0.  1.
<mgrwt>
<rscale>  2 0.50275022E+03</rscale>
<asrwt>0</asrwt>
<pdfrwt beam="1">  1       21 0.35637950E-01 0.50275022E+03</pdfrwt>
<pdfrwt beam="2">  1       21 0.19598238E+00 0.50275022E+03</pdfrwt>
<totfact> 0.88165267E+02</totfact>
</mgrwt>
</event>
<event>
 4    1  0.4703494E-002  0.5296063E+03  0.7818608E-02  0.1006328E+00
         21   -1    0    0  501  502  0.00000000000E+00  0.00000000000E+00  0.67786477058E+03  0.67786477058E+03  0.00000000000E+00 0. -1.
         21   -1    0    0  502  503 -0.00000000000E+00 -0.00000000000E+00 -0.64180775190E+03  0.64180775190E+03  0.00000000000E+00 0.  1.
    9000007    1    1    2  501    0 -0.21971564527E+03  0.26871515671E+03  0.41133697119E+03  0.67058251103E+03  0.40000000000E+03 0. -1.
   -9000007    1    1    2    0  503  0.21971564527E+03 -0.26871515671E+03 -0.37527995251E+03  0.64909001146E+03  0.40000000000E+03 0.  1.
<mgrwt>
<rscale>  2 0.52960627E+03</rscale>
<asrwt>0</asrwt>
<pdfrwt beam="1">  1       21 0.10428689E+00 0.52960627E+03</pdfrwt>
<pdfrwt beam="2">  1       21 0.98739654E-01 0.52960627E+03</pdfrwt>
<totfact> 0.50937445E+02</totfact>
</mgrwt>
</event>
<event>
 4    1  0.4703494E-002  0.5382343E+03  0.7818608E-02  0.1004255E+00
         21   -1    0    0  503  502  0.00000000000E+00  0.00000000000E+00  0.41172987748E+03  0.41172987748E+03  0.00000000000E+00 0.  1.
         21   -1    0    0  501  503 -0.00000000000E+00 -0.00000000000E+00 -0.99158496901E+03  0.99158496901E+03  0.00000000000E+00 0. -1.
    9000007    1    1    2  501    0 -0.19206784648E+03 -0.30464087839E+03 -0.66805621702E+03  0.85790164444E+03  0.40000000000E+03 0. -1.
   -9000007    1    1    2    0  502  0.19206784648E+03  0.30464087839E+03  0.88201125484E+02  0.54541320205E+03  0.40000000000E+03 0.  1.
<mgrwt>
<rscale>  2 0.53823426E+03</rscale>
<asrwt>0</asrwt>
<pdfrwt beam="1">  1       21 0.63343060E-01 0.53823426E+03</pdfrwt>
<pdfrwt beam="2">  1       21 0.15255153E+00 0.53823426E+03</pdfrwt>
<totfact> 0.52985480E+02</totfact>
</mgrwt>
</event>
<event>
 4    1  0.4703494E-002  0.4064908E+03  0.7818608E-02  0.1041555E+00
         21   -1    0    0  501  502  0.00000000000E+00  0.00000000000E+00  0.45846955246E+03  0.45846955246E+03  0.00000000000E+00 0.  1.
         21   -1    0    0  502  503 -0.00000000000E+00 -0.00000000000E+00 -0.89054729887E+03  0.89054729887E+03  0.00000000000E+00 0.  1.
    9000007    1    1    2  501    0  0.28155167943E+02  0.66648658740E+02  0.30438244465E+03  0.50782224233E+03  0.40000000000E+03 0.  1.
   -9000007    1    1    2    0  503 -0.28155167943E+02 -0.66648658740E+02 -0.73646019106E+03  0.84119460900E+03  0.40000000000E+03 0.  1.
<mgrwt>
<rscale>  2 0.40649078E+03</rscale>
<asrwt>0</asrwt>
<pdfrwt beam="1">  1       21 0.70533777E-01 0.40649078E+03</pdfrwt>
<pdfrwt beam="2">  1       21 0.13700728E+00 0.40649078E+03</pdfrwt>
<totfact> 0.58913225E+02</totfact>
</mgrwt>
</event>
<event>
 4    1  0.4703494E-002  0.4603322E+03  0.7818608E-02  0.1024685E+00
         21   -1    0    0  503  502  0.00000000000E+00  0.00000000000E+00  0.61142351686E+03  0.61142351686E+03  0.00000000000E+00 0. -1.
         21   -1    0    0  501  503 -0.00000000000E+00 -0.00000000000E+00 -0.43594373584E+03  0.43594373584E+03  0.00000000000E+00 0. -1.
    9000007    1    1    2  501    0 -0.22770719663E+03  0.74262946860E+01 -0.14936481675E+03  0.48395822726E+03  0.40000000000E+03 0. -1.
   -9000007    1    1    2    0  502  0.22770719663E+03 -0.74262946860E+01  0.32484459777E+03  0.56340902544E+03  0.40000000000E+03 0. -1.
<mgrwt>
<rscale>  2 0.46033218E+03</rscale>
<asrwt>0</asrwt>
<pdfrwt beam="1">  1       21 0.94065157E-01 0.46033218E+03</pdfrwt>
<pdfrwt beam="2">  1       21 0.67068266E-01 0.46033218E+03</pdfrwt>
<totfact> 0.16521720E+03</totfact>
</mgrwt>
</event>
<event>
 4    1  0.4703494E-002  0.5610971E+03  0.7818608E-02  0.9989575E-01
         21   -1    0    0  503  502  0.00000000000E+00  0.00000000000E+00  0.10445049237E+04  0.10445049237E+04  0.00000000000E+00 0.  1.
         21   -1    0    0  501  503 -0.00000000000E+00 -0.00000000000E+00 -0.44368096686E+03  0.44368096686E+03  0.00000000000E+00 0.  1.
    9000007    1    1    2  501    0  0.26016856515E+03  0.29519875570E+03 -0.12093658175E+03  0.57398226843E+03  0.40000000000E+03 0.  1.
   -9000007    1    1    2    0  502 -0.26016856515E+03 -0.29519875570E+03  0.72176053857E+03  0.91420362212E+03  0.40000000000E+03 0.  1.
<mgrwt>
<rscale>  2 0.56109713E+03</rscale>
<asrwt>0</asrwt>
<pdfrwt beam="1">  1       21 0.16069306E+00 0.56109713E+03</pdfrwt>
<pdfrwt beam="2">  1       21 0.68258611E-01 0.56109713E+03</pdfrwt>
<totfact> 0.38457760E+02</totfact>
</mgrwt>
</event>
<event>
 4    1  0.4703494E-002  0.7384564E+03  0.7818608E-02  0.9653637E-01
         21   -1    0    0  501  502  0.00000000000E+00  0.00000000000E+00  0.13960103137E+04  0.13960103137E+04  0.00000000000E+00 0. -1.
         21   -1    0    0  502  503 -0.00000000000E+00 -0.00000000000E+00 -0.49584052996E+03  0.49584052996E+03  0.00000000000E+00 0.  1.
    9000007    1    1    2  501    0  0.86893689209E+02  0.61462776920E+03  0.88582136944E+03  0.11532550917E+04  0.40000000000E+03 0. -1.
   -9000007    1    1    2    0  503 -0.86893689209E+02 -0.61462776920E+03  0.14348414311E+02  0.73859575201E+03  0.40000000000E+03 0.  1.
<mgrwt>
<rscale>  2 0.73845637E+03</rscale>
<asrwt>0</asrwt>
<pdfrwt beam="1">  1       21 0.21477082E+00 0.73845637E+03</pdfrwt>
<pdfrwt beam="2">  1       21 0.76283159E-01 0.73845637E+03</pdfrwt>
<totfact> 0.11691014E+02</totfact>
</mgrwt>
</event>
<event>
 4    1  0.4703494E-002  0.4999955E+03  0.7818608E-02  0.1013780E+00
         21   -1    0    0  501  502  0.00000000000E+00  0.00000000000E+00  0.17244272570E+04  0.17244272570E+04  0.00000000000E+00 0.  1.
         21   -1    0    0  502  503 -0.00000000000E+00 -0.00000000000E+00 -0.16745170241E+03  0.16745170241E+03  0.00000000000E+00 0.  1.
    9000007    1    1    2  501    0 -0.29878412765E+03  0.26898819643E+02  0.11250678416E+04  0.12311673930E+04  0.40000000000E+03 0.  1.
   -9000007    1    1    2    0  503  0.29878412765E+03 -0.26898819643E+02  0.43190771303E+03  0.66071156643E+03  0.40000000000E+03 0.  1.
<mgrwt>
<rscale>  2 0.49999550E+03</rscale>
<asrwt>0</asrwt>
<pdfrwt beam="1">  1       21 0.26529649E+00 0.49999550E+03</pdfrwt>
<pdfrwt beam="2">  1       21 0.25761802E-01 0.49999550E+03</pdfrwt>
<totfact> 0.61138688E+02</totfact>
</mgrwt>
</event>
<event>
 4    1  0.4703494E-002  0.4049937E+03  0.7818608E-02  0.1042064E+00
         21   -1    0    0  501  502  0.00000000000E+00  0.00000000000E+00  0.61062142645E+03  0.61062142645E+03  0.00000000000E+00 0. -1.
         21   -1    0    0  502  503 -0.00000000000E+00 -0.00000000000E+00 -0.38114680396E+03  0.38114680396E+03  0.00000000000E+00 0. -1.
    9000007    1    1    2  501    0 -0.92880458832E+01  0.62718919698E+02  0.38418748654E+03  0.55822930369E+03  0.40000000000E+03 0. -1.
   -9000007    1    1    2    0  503  0.92880458832E+01 -0.62718919698E+02 -0.15471286405E+03  0.43353892673E+03  0.40000000000E+03 0. -1.
<mgrwt>
<rscale>  2 0.40499374E+03</rscale>
<asrwt>0</asrwt>
<pdfrwt beam="1">  1       21 0.93941758E-01 0.40499374E+03</pdfrwt>
<pdfrwt beam="2">  1       21 0.58637970E-01 0.40499374E+03</pdfrwt>
<totfact> 0.22782823E+03</totfact>
</mgrwt>
</event>
<event>
 4    1  0.4703494E-002  0.4167480E+03  0.7818608E-02  0.1038130E+00
         21   -1    0    0  501  502  0.00000000000E+00  0.00000000000E+00  0.85616795237E+03  0.85616795237E+03  0.00000000000E+00 0. -1.
         21   -1    0    0  502  503 -0.00000000000E+00 -0.00000000000E+00 -0.40706242216E+03  0.40706242216E+03  0.00000000000E+00 0. -1.
    9000007    1    1    2  501    0 -0.90940843128E+02  0.73543696800E+02  0.67191222374E+03  0.79066108334E+03  0.40000000000E+03 0. -1.
   -9000007    1    1    2    0  503  0.90940843128E+02 -0.73543696800E+02 -0.22280669353E+03  0.47256929118E+03  0.40000000000E+03 0. -1.
<mgrwt>
<rscale>  2 0.41674802E+03</rscale>
<asrwt>0</asrwt>
<pdfrwt beam="1">  1       21 0.13171815E+00 0.41674802E+03</pdfrwt>
<pdfrwt beam="2">  1       21 0.62624988E-01 0.41674802E+03</pdfrwt>
<totfact> 0.84656800E+02</totfact>
</mgrwt>
</event>
<event>
 4    1  0.4703494E-002  0.4299641E+03  0.7818608E-02  0.1033871E+00
         21   -1    0    0  503  502  0.00000000000E+00  0.00000000000E+00  0.10304618942E+04  0.10304618942E+04  0.00000000000E+00 0. -1.
         21   -1    0    0  501  503 -0.00000000000E+00 -0.00000000000E+00 -0.20703545394E+03  0.20703545394E+03  0.00000000000E+00 0. -1.
    9000007    1    1    2  501    0 -0.51074554126E+02  0.14919961829E+03  0.18566939864E+03  0.46833989983E+03  0.40000000000E+03 0. -1.
   -9000007    1    1    2    0  502  0.51074554126E+02 -0.14919961829E+03  0.63775704165E+03  0.76915744835E+03  0.40000000000E+03 0. -1.
<mgrwt>
<rscale>  2 0.42996411E+03</rscale>
<asrwt>0</asrwt>
<pdfrwt beam="1">  1       21 0.15853260E+00 0.42996411E+03</pdfrwt>
<pdfrwt beam="2">  1       21 0.31851609E-01 0.42996411E+03</pdfrwt>
<totfact> 0.21089279E+03</totfact>
</mgrwt>
</event>
<event>
 4    1  0.4703494E-002  0.5083948E+03  0.7818608E-02  0.1011611E+00
         21   -1    0    0  503  502  0.00000000000E+00  0.00000000000E+00  0.51958022712E+03  0.51958022712E+03  0.00000000000E+00 0. -1.
         21   -1    0    0  501  503 -0.00000000000E+00 -0.00000000000E+00 -0.59947505664E+03  0.59947505664E+03  0.00000000000E+00 0.  1.
    9000007    1    1    2  501    0 -0.28419379822E+03  0.13303815192E+03 -0.27077572849E+03  0.57600760408E+03  0.40000000000E+03 0. -1.
   -9000007    1    1    2    0  502  0.28419379822E+03 -0.13303815192E+03  0.19088089897E+03  0.54304767968E+03  0.40000000000E+03 0. -1.
<mgrwt>
<rscale>  2 0.50839479E+03</rscale>
<asrwt>0</asrwt>
<pdfrwt beam="1">  1       21 0.79935420E-01 0.50839479E+03</pdfrwt>
<pdfrwt beam="2">  1       21 0.92226932E-01 0.50839479E+03</pdfrwt>
<totfact> 0.11415040E+03</totfact>
</mgrwt>
</event>
<event>
 4    1  0.4703494E-002  0.4303503E+03  0.7818608E-02  0.1033749E+00
         21   -1    0    0  503  502  0.00000000000E+00  0.00000000000E+00  0.43578443189E+03  0.43578443189E+03  0.00000000000E+00 0.  1.
         21   -1    0    0  501  503 -0.00000000000E+00 -0.00000000000E+00 -0.42710526798E+03  0.42710526798E+03  0.00000000000E+00 0.  1.
    9000007    1    1    2  501    0  0.12934995231E+03 -0.92032341555E+02 -0.26066964122E+02  0.43113901316E+03  0.40000000000E+03 0.  1.
   -9000007    1    1    2    0  502 -0.12934995231E+03  0.92032341555E+02  0.34746128032E+02  0.43175068670E+03  0.40000000000E+03 0.  1.
<mgrwt>
<rscale>  2 0.43035028E+03</rscale>
<asrwt>0</asrwt>
<pdfrwt beam="1">  1       21 0.67043759E-01 0.43035028E+03</pdfrwt>
<pdfrwt beam="2">  1       21 0.65708503E-01 0.43035028E+03</pdfrwt>
<totfact> 0.38210556E+03</totfact>
</mgrwt>
</event>
<event>
 4    1  0.4703494E-002  0.5481120E+03  0.7818608E-02  0.1001932E+00
         21   -1    0    0  501  502  0.00000000000E+00  0.00000000000E+00  0.12107770393E+04  0.12107770393E+04  0.00000000000E+00 0.  1.
         21   -1    0    0  502  503 -0.00000000000E+00 -0.00000000000E+00 -0.26354499849E+03  0.26354499849E+03  0.00000000000E+00 0. -1.
    9000007    1    1    2  501    0 -0.27795014708E+03 -0.25133738885E+03  0.65191364813E+03  0.85171484190E+03  0.40000000000E+03 0.  1.
   -9000007    1    1    2    0  503  0.27795014708E+03  0.25133738885E+03  0.29531839263E+03  0.62260719585E+03  0.40000000000E+03 0. -1.
<mgrwt>
<rscale>  2 0.54811200E+03</rscale>
<asrwt>0</asrwt>
<pdfrwt beam="1">  1       21 0.18627339E+00 0.54811200E+03</pdfrwt>
<pdfrwt beam="2">  1       21 0.40545385E-01 0.54811200E+03</pdfrwt>
<totfact> 0.77502895E+02</totfact>
</mgrwt>
</event>
<event>
 4    1  0.4703494E-002  0.4513054E+03  0.7818608E-02  0.1027333E+00
         21   -1    0    0  501  502  0.00000000000E+00  0.00000000000E+00  0.41468545685E+03  0.41468545685E+03  0.00000000000E+00 0. -1.
         21   -1    0    0  502  503 -0.00000000000E+00 -0.00000000000E+00 -0.13729968707E+04  0.13729968707E+04  0.00000000000E+00 0. -1.
    9000007    1    1    2  501    0  0.58391234489E+02 -0.20066656426E+03  0.23718541684E+03  0.50983676627E+03  0.40000000000E+03 0. -1.
   -9000007    1    1    2    0  503 -0.58391234489E+02  0.20066656426E+03 -0.11954968307E+04  0.12778455613E+04  0.40000000000E+03 0. -1.
<mgrwt>
<rscale>  2 0.45130545E+03</rscale>
<asrwt>0</asrwt>
<pdfrwt beam="1">  1       21 0.63797762E-01 0.45130545E+03</pdfrwt>
<pdfrwt beam="2">  1       21 0.21123029E+00 0.45130545E+03</pdfrwt>
<totfact> 0.20854485E+02</totfact>
</mgrwt>
</event>
<event>
 4    1  0.4703494E-002  0.4476004E+03  0.7818608E-02  0.1028440E+00
         21   -1    0    0  501  502  0.00000000000E+00  0.00000000000E+00  0.16109317700E+04  0.16109317700E+04  0.00000000000E+00 0. -1.
         21   -1    0    0  502  503 -0.00000000000E+00 -0.00000000000E+00 -0.37600251327E+03  0.37600251327E+03  0.00000000000E+00 0.  1.
    9000007    1    1    2  501    0 -0.14662368818E+03 -0.13728672431E+03 -0.19526187416E+03  0.48833733229E+03  0.40000000000E+03 0.  1.
   -9000007    1    1    2    0  503  0.14662368818E+03  0.13728672431E+03  0.14301911309E+04  0.14985969510E+04  0.40000000000E+03 0. -1.
<mgrwt>
<rscale>  2 0.44760044E+03</rscale>
<asrwt>0</asrwt>
<pdfrwt beam="1">  1       21 0.24783565E+00 0.44760044E+03</pdfrwt>
<pdfrwt beam="2">  1       21 0.57846541E-01 0.44760044E+03</pdfrwt>
<totfact> 0.15228126E+02</totfact>
</mgrwt>
</event>
<event>
 4    1  0.4703494E-002  0.4372959E+03  0.7818608E-02  0.1031580E+00
         21   -1    0    0  503  502  0.00000000000E+00  0.00000000000E+00  0.73389074945E+03  0.73389074945E+03  0.00000000000E+00 0. -1.
         21   -1    0    0  501  503 -0.00000000000E+00 -0.00000000000E+00 -0.43700181123E+03  0.43700181123E+03  0.00000000000E+00 0.  1.
    9000007    1    1    2  501    0 -0.14170430047E+03  0.10558221749E+03  0.52043986684E+03  0.67976861388E+03  0.40000000000E+03 0. -1.
   -9000007    1    1    2    0  502  0.14170430047E+03 -0.10558221749E+03 -0.22355092863E+03  0.49112394679E+03  0.40000000000E+03 0.  1.
<mgrwt>
<rscale>  2 0.43729591E+03</rscale>
<asrwt>0</asrwt>
<pdfrwt beam="1">  1       21 0.11290627E+00 0.43729591E+03</pdfrwt>
<pdfrwt beam="2">  1       21 0.67231048E-01 0.43729591E+03</pdfrwt>
<totfact> 0.10610628E+03</totfact>
</mgrwt>
</event>
<event>
 4    1  0.4703494E-002  0.4899456E+03  0.7818608E-02  0.1016437E+00
         21   -1    0    0  503  502  0.00000000000E+00  0.00000000000E+00  0.39518612188E+03  0.39518612188E+03  0.00000000000E+00 0.  1.
         21   -1    0    0  501  503 -0.00000000000E+00 -0.00000000000E+00 -0.61519011618E+03  0.61519011618E+03  0.00000000000E+00 0.  1.
    9000007    1    1    2  501    0 -0.19439869286E+03 -0.20556227258E+03 -0.53251722729E+02  0.49283105185E+03  0.40000000000E+03 0.  1.
   -9000007    1    1    2    0  502  0.19439869286E+03  0.20556227258E+03 -0.16675227157E+03  0.51754518621E+03  0.40000000000E+03 0.  1.
<mgrwt>
<rscale>  2 0.48994561E+03</rscale>
<asrwt>0</asrwt>
<pdfrwt beam="1">  1       21 0.60797865E-01 0.48994561E+03</pdfrwt>
<pdfrwt beam="2">  1       21 0.94644633E-01 0.48994561E+03</pdfrwt>
<totfact> 0.20024296E+03</totfact>
</mgrwt>
</event>
<event>
 4    1  0.4703494E-002  0.4396747E+03  0.7818608E-02  0.1030847E+00
         21   -1    0    0  503  502  0.00000000000E+00  0.00000000000E+00  0.22689359365E+03  0.22689359365E+03  0.00000000000E+00 0.  1.
         21   -1    0    0  501  503 -0.00000000000E+00 -0.00000000000E+00 -0.24350519149E+04  0.24350519149E+04  0.00000000000E+00 0. -1.
    9000007    1    1    2  501    0  0.21465709928E+02  0.18125422440E+03 -0.21772338113E+04  0.22211845803E+04  0.40000000000E+03 0. -1.
   -9000007    1    1    2    0  502 -0.21465709928E+02 -0.18125422440E+03 -0.30924509923E+02  0.44076092826E+03  0.40000000000E+03 0.  1.
<mgrwt>
<rscale>  2 0.43967473E+03</rscale>
<asrwt>0</asrwt>
<pdfrwt beam="1">  1       21 0.34906704E-01 0.43967473E+03</pdfrwt>
<pdfrwt beam="2">  1       21 0.37462340E+00 0.43967473E+03</pdfrwt>
<totfact> 0.74766431E+01</totfact>
</mgrwt>
</event>
<event>
 4    1  0.4703494E-002  0.5418741E+03  0.7818608E-02  0.1003392E+00
         21   -1    0    0  503  502  0.00000000000E+00  0.00000000000E+00  0.34472587161E+03  0.34472587161E+03  0.00000000000E+00 0.  1.
         21   -1    0    0  501  503 -0.00000000000E+00 -0.00000000000E+00 -0.86733274206E+03  0.86733274206E+03  0.00000000000E+00 0.  1.
    9000007    1    1    2  501    0  0.37151607109E+02  0.36365825505E+03 -0.34247933481E+03  0.64103015775E+03  0.40000000000E+03 0.  1.
   -9000007    1    1    2    0  502 -0.37151607109E+02 -0.36365825505E+03 -0.18012753565E+03  0.57102845593E+03  0.40000000000E+03 0.  1.
<mgrwt>
<rscale>  2 0.54187413E+03</rscale>
<asrwt>0</asrwt>
<pdfrwt beam="1">  1       21 0.53034750E-01 0.54187413E+03</pdfrwt>
<pdfrwt beam="2">  1       21 0.13343581E+00 0.54187413E+03</pdfrwt>
<totfact> 0.11186646E+03</totfact>
</mgrwt>
</event>
<event>
 4    1  0.4703494E-002  0.4057067E+03  0.7818608E-02  0.1041821E+00
         21   -1    0    0  503  502  0.00000000000E+00  0.00000000000E+00  0.48901755329E+03  0.48901755329E+03  0.00000000000E+00 0. -1.
         21   -1    0    0  501  503 -0.00000000000E+00 -0.00000000000E+00 -0.62543415963E+03  0.62543415963E+03  0.00000000000E+00 0. -1.
    9000007    1    1    2  501    0 -0.44516046055E+02  0.51148971867E+02 -0.44688890641E+03  0.60357898435E+03  0.40000000000E+03 0. -1.
   -9000007    1    1    2    0  502  0.44516046055E+02 -0.51148971867E+02  0.31047230007E+03  0.51087272856E+03  0.40000000000E+03 0. -1.
<mgrwt>
<rscale>  2 0.40570666E+03</rscale>
<asrwt>0</asrwt>
<pdfrwt beam="1">  1       21 0.75233470E-01 0.40570666E+03</pdfrwt>
<pdfrwt beam="2">  1       21 0.96220640E-01 0.40570666E+03</pdfrwt>
<totfact> 0.12349411E+03</totfact>
</mgrwt>
</event>
<event>
 4    1  0.4703494E-002  0.4179856E+03  0.7818608E-02  0.1037724E+00
         21   -1    0    0  503  502  0.00000000000E+00  0.00000000000E+00  0.14765781237E+04  0.14765781237E+04  0.00000000000E+00 0.  1.
         21   -1    0    0  501  503 -0.00000000000E+00 -0.00000000000E+00 -0.12137137484E+03  0.12137137484E+03  0.00000000000E+00 0.  1.
    9000007    1    1    2  501    0  0.72652488938E+02  0.97126545858E+02  0.55096447034E+03  0.69157342173E+03  0.40000000000E+03 0.  1.
   -9000007    1    1    2    0  502 -0.72652488938E+02 -0.97126545858E+02  0.80424227856E+03  0.90637607685E+03  0.40000000000E+03 0.  1.
<mgrwt>
<rscale>  2 0.41798559E+03</rscale>
<asrwt>0</asrwt>
<pdfrwt beam="1">  1       21 0.22716585E+00 0.41798559E+03</pdfrwt>
<pdfrwt beam="2">  1       21 0.18672520E-01 0.41798559E+03</pdfrwt>
<totfact> 0.20307800E+03</totfact>
</mgrwt>
</event>
<event>
 4    1  0.4703494E-002  0.4094510E+03  0.7818608E-02  0.1040555E+00
         21   -1    0    0  503  502  0.00000000000E+00  0.00000000000E+00  0.23199876460E+04  0.23199876460E+04  0.00000000000E+00 0.  1.
         21   -1    0    0  501  503 -0.00000000000E+00 -0.00000000000E+00 -0.15044929260E+03  0.15044929260E+03  0.00000000000E+00 0.  1.
    9000007    1    1    2  501    0 -0.20051463591E+02  0.85135364497E+02  0.19431202719E+03  0.45321877211E+03  0.40000000000E+03 0.  1.
   -9000007    1    1    2    0  502  0.20051463591E+02 -0.85135364497E+02  0.19752263262E+04  0.20172181665E+04  0.40000000000E+03 0.  1.
<mgrwt>
<rscale>  2 0.40945096E+03</rscale>
<asrwt>0</asrwt>
<pdfrwt beam="1">  1       21 0.35692115E+00 0.40945096E+03</pdfrwt>
<pdfrwt beam="2">  1       21 0.23146047E-01 0.40945096E+03</pdfrwt>
<totfact> 0.22118105E+02</totfact>
</mgrwt>
</event>
<event>
 4    1  0.4703494E-002  0.5936496E+03  0.7818608E-02  0.9918669E-01
         21   -1    0    0  501  502  0.00000000000E+00  0.00000000000E+00  0.82676469139E+03  0.82676469139E+03  0.00000000000E+00 0. -1.
         21   -1    0    0  502  503 -0.00000000000E+00 -0.00000000000E+00 -0.52264966320E+03  0.52264966320E+03  0.00000000000E+00 0. -1.
    9000007    1    1    2  501    0 -0.34091771000E+03 -0.27603425274E+03  0.44180310858E+03  0.74000660837E+03  0.40000000000E+03 0. -1.
   -9000007    1    1    2    0  503  0.34091771000E+03  0.27603425274E+03 -0.13768808039E+03  0.60940774622E+03  0.40000000000E+03 0. -1.
<mgrwt>
<rscale>  2 0.59364955E+03</rscale>
<asrwt>0</asrwt>
<pdfrwt beam="1">  1       21 0.12719457E+00 0.59364955E+03</pdfrwt>
<pdfrwt beam="2">  1       21 0.80407640E-01 0.59364955E+03</pdfrwt>
<totfact> 0.49093330E+02</totfact>
</mgrwt>
</event>
<event>
 4    1  0.4703494E-002  0.4150385E+03  0.7818608E-02  0.1038693E+00
         21   -1    0    0  503  502  0.00000000000E+00  0.00000000000E+00  0.23812072790E+03  0.23812072790E+03  0.00000000000E+00 0.  1.
         21   -1    0    0  501  503 -0.00000000000E+00 -0.00000000000E+00 -0.81291428764E+03  0.81291428764E+03  0.00000000000E+00 0.  1.
    9000007    1    1    2  501    0  0.93670455611E+02  0.59015213018E+02 -0.46178083093E+03  0.62088524337E+03  0.40000000000E+03 0.  1.
   -9000007    1    1    2    0  502 -0.93670455611E+02 -0.59015213018E+02 -0.11301272881E+03  0.43014977217E+03  0.40000000000E+03 0.  1.
<mgrwt>
<rscale>  2 0.41503849E+03</rscale>
<asrwt>0</asrwt>
<pdfrwt beam="1">  1       21 0.36633958E-01 0.41503849E+03</pdfrwt>
<pdfrwt beam="2">  1       21 0.12506374E+00 0.41503849E+03</pdfrwt>
<totfact> 0.30064874E+03</totfact>
</mgrwt>
</event>
<event>
 4    1  0.4703494E-002  0.4492426E+03  0.7818608E-02  0.1027948E+00
         21   -1    0    0  503  502  0.00000000000E+00  0.00000000000E+00  0.15962775109E+04  0.15962775109E+04  0.00000000000E+00 0. -1.
         21   -1    0    0  501  503 -0.00000000000E+00 -0.00000000000E+00 -0.12665616510E+03  0.12665616510E+03  0.00000000000E+00 0. -1.
    9000007    1    1    2  501    0 -0.17099210447E+03  0.11216326583E+03  0.69848492278E+03  0.83048183926E+03  0.40000000000E+03 0. -1.
   -9000007    1    1    2    0  502  0.17099210447E+03 -0.11216326583E+03  0.77113642307E+03  0.89245183678E+03  0.40000000000E+03 0. -1.
<mgrwt>
<rscale>  2 0.44924258E+03</rscale>
<asrwt>0</asrwt>
<pdfrwt beam="1">  1       21 0.24558114E+00 0.44924258E+03</pdfrwt>
<pdfrwt beam="2">  1       21 0.19485565E-01 0.44924258E+03</pdfrwt>
<totfact> 0.14171668E+03</totfact>
</mgrwt>
</event>
<event>
 4    1  0.4703494E-002  0.4081550E+03  0.7818608E-02  0.1040992E+00
         21   -1    0    0  501  502  0.00000000000E+00  0.00000000000E+00  0.69306102318E+03  0.69306102318E+03  0.00000000000E+00 0. -1.
         21   -1    0    0  502  503 -0.00000000000E+00 -0.00000000000E+00 -0.27986018014E+03  0.27986018014E+03  0.00000000000E+00 0. -1.
    9000007    1    1    2  501    0  0.10932950400E+02 -0.80442208528E+02  0.38933739776E+03  0.56406922236E+03  0.40000000000E+03 0. -1.
   -9000007    1    1    2    0  503 -0.10932950400E+02  0.80442208528E+02  0.23863445273E+02  0.40885198096E+03  0.40000000000E+03 0. -1.
<mgrwt>
<rscale>  2 0.40815497E+03</rscale>
<asrwt>0</asrwt>
<pdfrwt beam="1">  1       21 0.10662477E+00 0.40815497E+03</pdfrwt>
<pdfrwt beam="2">  1       21 0.43055413E-01 0.40815497E+03</pdfrwt>
<totfact> 0.32270589E+03</totfact>
</mgrwt>
</event>
<event>
 4    1  0.4703494E-002  0.4026719E+03  0.7818608E-02  0.1042858E+00
         21   -1    0    0  503  502  0.00000000000E+00  0.00000000000E+00  0.60085699104E+03  0.60085699104E+03  0.00000000000E+00 0. -1.
         21   -1    0    0  501  503 -0.00000000000E+00 -0.00000000000E+00 -0.28694945979E+03  0.28694945979E+03  0.00000000000E+00 0.  1.
    9000007    1    1    2  501    0 -0.28671439345E+02 -0.36367341989E+02  0.26529790584E+03  0.48221117142E+03  0.40000000000E+03 0. -1.
   -9000007    1    1    2    0  502  0.28671439345E+02  0.36367341989E+02  0.48609625411E+02  0.40559527941E+03  0.40000000000E+03 0.  1.
<mgrwt>
<rscale>  2 0.40267187E+03</rscale>
<asrwt>0</asrwt>
<pdfrwt beam="1">  1       21 0.92439537E-01 0.40267187E+03</pdfrwt>
<pdfrwt beam="2">  1       21 0.44146071E-01 0.40267187E+03</pdfrwt>
<totfact> 0.43362850E+03</totfact>
</mgrwt>
</event>
<event>
 4    1  0.4703494E-002  0.4219765E+03  0.7818608E-02  0.1036425E+00
         21   -1    0    0  501  502  0.00000000000E+00  0.00000000000E+00  0.36474091140E+03  0.36474091140E+03  0.00000000000E+00 0.  1.
         21   -1    0    0  502  503 -0.00000000000E+00 -0.00000000000E+00 -0.12728032000E+04  0.12728032000E+04  0.00000000000E+00 0.  1.
    9000007    1    1    2  501    0 -0.21135522509E+02  0.13273082115E+03  0.18881817674E+03  0.46229480320E+03  0.40000000000E+03 0.  1.
   -9000007    1    1    2    0  503  0.21135522509E+02 -0.13273082115E+03 -0.10968804654E+04  0.11752493082E+04  0.40000000000E+03 0.  1.
<mgrwt>
<rscale>  2 0.42197652E+03</rscale>
<asrwt>0</asrwt>
<pdfrwt beam="1">  1       21 0.56113986E-01 0.42197652E+03</pdfrwt>
<pdfrwt beam="2">  1       21 0.19581588E+00 0.42197652E+03</pdfrwt>
<totfact> 0.35475080E+02</totfact>
</mgrwt>
</event>
<event>
 4    1  0.4703494E-002  0.4154062E+03  0.7818608E-02  0.1038572E+00
         21   -1    0    0  501  502  0.00000000000E+00  0.00000000000E+00  0.93613910112E+03  0.93613910112E+03  0.00000000000E+00 0.  1.
         21   -1    0    0  502  503 -0.00000000000E+00 -0.00000000000E+00 -0.19124464616E+03  0.19124464616E+03  0.00000000000E+00 0.  1.
    9000007    1    1    2  501    0 -0.91734370878E+02 -0.64398133705E+02  0.26529411205E+03  0.49289276756E+03  0.40000000000E+03 0. -1.
   -9000007    1    1    2    0  503  0.91734370878E+02  0.64398133705E+02  0.47960034290E+03  0.63449097971E+03  0.40000000000E+03 0. -1.
<mgrwt>
<rscale>  2 0.41540620E+03</rscale>
<asrwt>0</asrwt>
<pdfrwt beam="1">  1       21 0.14402140E+00 0.41540620E+03</pdfrwt>
<pdfrwt beam="2">  1       21 0.29422254E-01 0.41540620E+03</pdfrwt>
<totfact> 0.32250713E+03</totfact>
</mgrwt>
</event>
<event>
 4    1  0.4703494E-002  0.5260195E+03  0.7818608E-02  0.1007202E+00
         21   -1    0    0  501  502  0.00000000000E+00  0.00000000000E+00  0.20432639714E+03  0.20432639714E+03  0.00000000000E+00 0.  1.
         21   -1    0    0  502  503 -0.00000000000E+00 -0.00000000000E+00 -0.13911075559E+04  0.13911075559E+04  0.00000000000E+00 0.  1.
    9000007    1    1    2  501    0  0.14647978818E+03 -0.30861013639E+03 -0.46343609871E+03  0.70104890144E+03  0.40000000000E+03 0.  1.
   -9000007    1    1    2    0  503 -0.14647978818E+03  0.30861013639E+03 -0.72334506005E+03  0.89438505160E+03  0.40000000000E+03 0.  1.
<mgrwt>
<rscale>  2 0.52601953E+03</rscale>
<asrwt>0</asrwt>
<pdfrwt beam="1">  1       21 0.31434830E-01 0.52601953E+03</pdfrwt>
<pdfrwt beam="2">  1       21 0.21401655E+00 0.52601953E+03</pdfrwt>
<totfact> 0.85437342E+02</totfact>
</mgrwt>
</event>
<event>
 4    1  0.4703494E-002  0.4168314E+03  0.7818608E-02  0.1038103E+00
         21   -1    0    0  501  502  0.00000000000E+00  0.00000000000E+00  0.64090399912E+03  0.64090399912E+03  0.00000000000E+00 0.  1.
         21   -1    0    0  502  503 -0.00000000000E+00 -0.00000000000E+00 -0.85312066499E+03  0.85312066499E+03  0.00000000000E+00 0. -1.
    9000007    1    1    2  501    0 -0.97022512194E+02  0.65841298594E+02  0.51090153443E+03  0.65937001931E+03  0.40000000000E+03 0.  1.
   -9000007    1    1    2    0  503  0.97022512194E+02 -0.65841298594E+02 -0.72311820031E+03  0.83465464480E+03  0.40000000000E+03 0. -1.
<mgrwt>
<rscale>  2 0.41683143E+03</rscale>
<asrwt>0</asrwt>
<pdfrwt beam="1">  1       21 0.98600616E-01 0.41683143E+03</pdfrwt>
<pdfrwt beam="2">  1       21 0.13124933E+00 0.41683143E+03</pdfrwt>
<totfact> 0.30058550E+02</totfact>
</mgrwt>
</event>
<event>
 4    1  0.4703494E-002  0.4549482E+03  0.7818608E-02  0.1026257E+00
         21   -1    0    0  503  502  0.00000000000E+00  0.00000000000E+00  0.11703180603E+04  0.11703180603E+04  0.00000000000E+00 0. -1.
         21   -1    0    0  501  503 -0.00000000000E+00 -0.00000000000E+00 -0.18108824928E+03  0.18108824928E+03  0.00000000000E+00 0. -1.
    9000007    1    1    2  501    0 -0.13415014076E+03 -0.17023993596E+03  0.59791267478E+03  0.75131715189E+03  0.40000000000E+03 0. -1.
   -9000007    1    1    2    0  502  0.13415014076E+03  0.17023993596E+03  0.39131713622E+03  0.60008915768E+03  0.40000000000E+03 0. -1.
<mgrwt>
<rscale>  2 0.45494823E+03</rscale>
<asrwt>0</asrwt>
<pdfrwt beam="1">  1       21 0.18004893E+00 0.45494823E+03</pdfrwt>
<pdfrwt beam="2">  1       21 0.27859731E-01 0.45494823E+03</pdfrwt>
<totfact> 0.18959972E+03</totfact>
</mgrwt>
</event>
<event>
 4    1  0.4703494E-002  0.5964665E+03  0.7818608E-02  0.9912764E-01
         21   -1    0    0  501  502  0.00000000000E+00  0.00000000000E+00  0.33334783322E+03  0.33334783322E+03  0.00000000000E+00 0.  1.
         21   -1    0    0  502  503 -0.00000000000E+00 -0.00000000000E+00 -0.10673661715E+04  0.10673661715E+04  0.00000000000E+00 0.  1.
    9000007    1    1    2  501    0 -0.11338939535E+03  0.42768577633E+03 -0.37364294510E+03  0.70383331029E+03  0.40000000000E+03 0.  1.
   -9000007    1    1    2    0  503  0.11338939535E+03 -0.42768577633E+03 -0.36037539316E+03  0.69688069442E+03  0.40000000000E+03 0.  1.
<mgrwt>
<rscale>  2 0.59646649E+03</rscale>
<asrwt>0</asrwt>
<pdfrwt beam="1">  1       21 0.51284282E-01 0.59646649E+03</pdfrwt>
<pdfrwt beam="2">  1       21 0.16421018E+00 0.59646649E+03</pdfrwt>
<totfact> 0.66976974E+02</totfact>
</mgrwt>
</event>
<event>
 4    1  0.4703494E-002  0.4495993E+03  0.7818608E-02  0.1027842E+00
         21   -1    0    0  503  502  0.00000000000E+00  0.00000000000E+00  0.77226044145E+03  0.77226044145E+03  0.00000000000E+00 0.  1.
         21   -1    0    0  501  503 -0.00000000000E+00 -0.00000000000E+00 -0.32368098887E+03  0.32368098887E+03  0.00000000000E+00 0.  1.
    9000007    1    1    2  501    0 -0.16692411768E+03 -0.11948149664E+03 -0.15401045717E+02  0.44986295837E+03  0.40000000000E+03 0.  1.
   -9000007    1    1    2    0  502  0.16692411768E+03  0.11948149664E+03  0.46398049830E+03  0.64607847194E+03  0.40000000000E+03 0.  1.
<mgrwt>
<rscale>  2 0.44959925E+03</rscale>
<asrwt>0</asrwt>
<pdfrwt beam="1">  1       21 0.11880930E+00 0.44959925E+03</pdfrwt>
<pdfrwt beam="2">  1       21 0.49797075E-01 0.44959925E+03</pdfrwt>
<totfact> 0.17867465E+03</totfact>
</mgrwt>
</event>
<event>
 4    1  0.4703494E-002  0.4516082E+03  0.7818608E-02  0.1027244E+00
         21   -1    0    0  503  502  0.00000000000E+00  0.00000000000E+00  0.18972357442E+04  0.18972357442E+04  0.00000000000E+00 0. -1.
         21   -1    0    0  501  503 -0.00000000000E+00 -0.00000000000E+00 -0.17102015463E+03  0.17102015463E+03  0.00000000000E+00 0. -1.
    9000007    1    1    2  501    0 -0.20795150286E+03  0.26572611439E+02  0.23285954605E+03  0.50810776357E+03  0.40000000000E+03 0. -1.
   -9000007    1    1    2    0  502  0.20795150286E+03 -0.26572611439E+02  0.14933560436E+04  0.15601481353E+04  0.40000000000E+03 0. -1.
<mgrwt>
<rscale>  2 0.45160816E+03</rscale>
<asrwt>0</asrwt>
<pdfrwt beam="1">  1       21 0.29188241E+00 0.45160816E+03</pdfrwt>
<pdfrwt beam="2">  1       21 0.26310794E-01 0.45160816E+03</pdfrwt>
<totfact> 0.41550582E+02</totfact>
</mgrwt>
</event>
<event>
 4    1  0.4703494E-002  0.4990786E+03  0.7818608E-02  0.1014020E+00
         21   -1    0    0  503  502  0.00000000000E+00  0.00000000000E+00  0.27918663342E+03  0.27918663342E+03  0.00000000000E+00 0. -1.
         21   -1    0    0  501  503 -0.00000000000E+00 -0.00000000000E+00 -0.95039187262E+03  0.95039187262E+03  0.00000000000E+00 0.  1.
    9000007    1    1    2  501    0  0.13078046400E+02  0.29817509709E+03 -0.48778052050E+03  0.69786048749E+03  0.40000000000E+03 0.  1.
   -9000007    1    1    2    0  502 -0.13078046400E+02 -0.29817509709E+03 -0.18342471871E+03  0.53171801855E+03  0.40000000000E+03 0.  1.
<mgrwt>
<rscale>  2 0.49907857E+03</rscale>
<asrwt>0</asrwt>
<pdfrwt beam="1">  1       21 0.42951789E-01 0.49907857E+03</pdfrwt>
<pdfrwt beam="2">  1       21 0.14621414E+00 0.49907857E+03</pdfrwt>
<totfact> 0.13911216E+03</totfact>
</mgrwt>
</event>
<event>
 4    1  0.4703494E-002  0.4496230E+03  0.7818608E-02  0.1027835E+00
         21   -1    0    0  501  502  0.00000000000E+00  0.00000000000E+00  0.27422407349E+03  0.27422407349E+03  0.00000000000E+00 0. -1.
         21   -1    0    0  502  503 -0.00000000000E+00 -0.00000000000E+00 -0.74010886628E+03  0.74010886628E+03  0.00000000000E+00 0. -1.
    9000007    1    1    2  501    0 -0.27664167774E+02  0.20345893413E+03 -0.20120396576E+03  0.49258895633E+03  0.40000000000E+03 0. -1.
   -9000007    1    1    2    0  503  0.27664167774E+02 -0.20345893413E+03 -0.26468082703E+03  0.52174398344E+03  0.40000000000E+03 0. -1.
<mgrwt>
<rscale>  2 0.44962300E+03</rscale>
<asrwt>0</asrwt>
<pdfrwt beam="1">  1       21 0.42188320E-01 0.44962300E+03</pdfrwt>
<pdfrwt beam="2">  1       21 0.11386290E+00 0.44962300E+03</pdfrwt>
<totfact> 0.28160686E+03</totfact>
</mgrwt>
</event>
<event>
 4    1  0.4703494E-002  0.4710498E+03  0.7818608E-02  0.1021624E+00
         21   -1    0    0  501  502  0.00000000000E+00  0.00000000000E+00  0.34447611407E+03  0.34447611407E+03  0.00000000000E+00 0. -1.
         21   -1    0    0  502  503 -0.00000000000E+00 -0.00000000000E+00 -0.94690561181E+03  0.94690561181E+03  0.00000000000E+00 0.  1.
    9000007    1    1    2  501    0 -0.23076034954E+03  0.92938349527E+02  0.63901153714E+02  0.47536431626E+03  0.40000000000E+03 0. -1.
   -9000007    1    1    2    0  503  0.23076034954E+03 -0.92938349527E+02 -0.66633065146E+03  0.81601740962E+03  0.40000000000E+03 0.  1.
<mgrwt>
<rscale>  2 0.47104976E+03</rscale>
<asrwt>0</asrwt>
<pdfrwt beam="1">  1       21 0.52996326E-01 0.47104976E+03</pdfrwt>
<pdfrwt beam="2">  1       21 0.14567778E+00 0.47104976E+03</pdfrwt>
<totfact> 0.91054363E+02</totfact>
</mgrwt>
</event>
<event>
 4    1  0.4703494E-002  0.4002322E+03  0.7818608E-02  0.1043699E+00
         21   -1    0    0  501  502  0.00000000000E+00  0.00000000000E+00  0.90196228919E+02  0.90196228919E+02  0.00000000000E+00 0.  1.
         21   -1    0    0  502  503 -0.00000000000E+00 -0.00000000000E+00 -0.21465382509E+04  0.21465382509E+04  0.00000000000E+00 0.  1.
    9000007    1    1    2  501    0  0.46168672536E+01  0.12825328000E+02 -0.14928458680E+04  0.15455661066E+04  0.40000000000E+03 0. -1.
   -9000007    1    1    2    0  503 -0.46168672536E+01 -0.12825328000E+02 -0.56349615407E+03  0.69116837323E+03  0.40000000000E+03 0. -1.
<mgrwt>
<rscale>  2 0.40023219E+03</rscale>
<asrwt>0</asrwt>
<pdfrwt beam="1">  1       21 0.13876342E-01 0.40023219E+03</pdfrwt>
<pdfrwt beam="2">  1       21 0.33023668E+00 0.40023219E+03</pdfrwt>
<totfact> 0.84693748E+02</totfact>
</mgrwt>
</event>
<event>
 4    1  0.4703494E-002  0.7384780E+03  0.7818608E-02  0.9653602E-01
         21   -1    0    0  501  502  0.00000000000E+00  0.00000000000E+00  0.70485040481E+03  0.70485040481E+03  0.00000000000E+00 0. -1.
         21   -1    0    0  502  503 -0.00000000000E+00 -0.00000000000E+00 -0.77378854321E+03  0.77378854321E+03  0.00000000000E+00 0.  1.
    9000007    1    1    2  501    0 -0.85037103121E+02 -0.61491340826E+03 -0.41917555810E+02  0.73966674256E+03  0.40000000000E+03 0.  1.
   -9000007    1    1    2    0  503  0.85037103121E+02  0.61491340826E+03 -0.27020582583E+02  0.73897220546E+03  0.40000000000E+03 0.  1.
<mgrwt>
<rscale>  2 0.73847804E+03</rscale>
<asrwt>0</asrwt>
<pdfrwt beam="1">  1       21 0.10843852E+00 0.73847804E+03</pdfrwt>
<pdfrwt beam="2">  1       21 0.11904439E+00 0.73847804E+03</pdfrwt>
<totfact> 0.27069797E+02</totfact>
</mgrwt>
</event>
<event>
 4    1  0.4703494E-002  0.4114357E+03  0.7818608E-02  0.1039890E+00
         21   -1    0    0  503  502  0.00000000000E+00  0.00000000000E+00  0.32402599072E+03  0.32402599072E+03  0.00000000000E+00 0. -1.
         21   -1    0    0  501  503 -0.00000000000E+00 -0.00000000000E+00 -0.55249485214E+03  0.55249485214E+03  0.00000000000E+00 0. -1.
    9000007    1    1    2  501    0 -0.91031935531E+02 -0.31504559524E+02 -0.21647709731E+03  0.46491040450E+03  0.40000000000E+03 0. -1.
   -9000007    1    1    2    0  502  0.91031935531E+02  0.31504559524E+02 -0.11991764115E+02  0.41161043836E+03  0.40000000000E+03 0. -1.
<mgrwt>
<rscale>  2 0.41143572E+03</rscale>
<asrwt>0</asrwt>
<pdfrwt beam="1">  1       21 0.49850153E-01 0.41143572E+03</pdfrwt>
<pdfrwt beam="2">  1       21 0.84999207E-01 0.41143572E+03</pdfrwt>
<totfact> 0.40786251E+03</totfact>
</mgrwt>
</event>
<event>
 4    1  0.4703494E-002  0.4121465E+03  0.7818608E-02  0.1039653E+00
         21   -1    0    0  503  502  0.00000000000E+00  0.00000000000E+00  0.91485150656E+03  0.91485150656E+03  0.00000000000E+00 0.  1.
         21   -1    0    0  501  503 -0.00000000000E+00 -0.00000000000E+00 -0.70682940983E+03  0.70682940983E+03  0.00000000000E+00 0.  1.
    9000007    1    1    2  501    0 -0.49974493609E+02 -0.85833118345E+02 -0.59223291120E+03  0.72152934474E+03  0.40000000000E+03 0.  1.
   -9000007    1    1    2    0  502  0.49974493609E+02  0.85833118345E+02  0.80025500793E+03  0.90015157165E+03  0.40000000000E+03 0.  1.
<mgrwt>
<rscale>  2 0.41214654E+03</rscale>
<asrwt>0</asrwt>
<pdfrwt beam="1">  1       21 0.14074639E+00 0.41214654E+03</pdfrwt>
<pdfrwt beam="2">  1       21 0.10874299E+00 0.41214654E+03</pdfrwt>
<totfact> 0.19743236E+02</totfact>
</mgrwt>
</event>
<event>
 4    1  0.4703494E-002  0.4895885E+03  0.7818608E-02  0.1016533E+00
         21   -1    0    0  501  502  0.00000000000E+00  0.00000000000E+00  0.37274047241E+03  0.37274047241E+03  0.00000000000E+00 0.  1.
         21   -1    0    0  502  503 -0.00000000000E+00 -0.00000000000E+00 -0.71320530794E+03  0.71320530794E+03  0.00000000000E+00 0.  1.
    9000007    1    1    2  501    0 -0.20379173600E+03 -0.19536069189E+03  0.42382936356E-01  0.48958847351E+03  0.40000000000E+03 0.  1.
   -9000007    1    1    2    0  503  0.20379173600E+03  0.19536069189E+03 -0.34050721846E+03  0.59635730684E+03  0.40000000000E+03 0.  1.
<mgrwt>
<rscale>  2 0.48958847E+03</rscale>
<asrwt>0</asrwt>
<pdfrwt beam="1">  1       21 0.57344689E-01 0.48958847E+03</pdfrwt>
<pdfrwt beam="2">  1       21 0.10972389E+00 0.48958847E+03</pdfrwt>
<totfact> 0.15854259E+03</totfact>
</mgrwt>
</event>
<event>
 4    1  0.4703494E-002  0.4750754E+03  0.7818608E-02  0.1020497E+00
         21   -1    0    0  501  502  0.00000000000E+00  0.00000000000E+00  0.19709380556E+04  0.19709380556E+04  0.00000000000E+00 0.  1.
         21   -1    0    0  502  503 -0.00000000000E+00 -0.00000000000E+00 -0.11931554187E+03  0.11931554187E+03  0.00000000000E+00 0.  1.
    9000007    1    1    2  501    0  0.21450972840E+03 -0.14029319550E+03  0.11355065825E+04  0.12308825302E+04  0.40000000000E+03 0.  1.
   -9000007    1    1    2    0  503 -0.21450972840E+03  0.14029319550E+03  0.71611593130E+03  0.85937106732E+03  0.40000000000E+03 0.  1.
<mgrwt>
<rscale>  2 0.47507537E+03</rscale>
<asrwt>0</asrwt>
<pdfrwt beam="1">  1       21 0.30322122E+00 0.47507537E+03</pdfrwt>
<pdfrwt beam="2">  1       21 0.18356239E-01 0.47507537E+03</pdfrwt>
<totfact> 0.70027013E+02</totfact>
</mgrwt>
</event>
<event>
 4    1  0.4703494E-002  0.5759774E+03  0.7818608E-02  0.9956538E-01
         21   -1    0    0  503  502  0.00000000000E+00  0.00000000000E+00  0.28041697647E+03  0.28041697647E+03  0.00000000000E+00 0.  1.
         21   -1    0    0  501  503 -0.00000000000E+00 -0.00000000000E+00 -0.12902348823E+04  0.12902348823E+04  0.00000000000E+00 0. -1.
    9000007    1    1    2  501    0 -0.14211504435E+03  0.38929851421E+03 -0.73124967623E+03  0.93084698420E+03  0.40000000000E+03 0. -1.
   -9000007    1    1    2    0  502  0.14211504435E+03 -0.38929851421E+03 -0.27856822962E+03  0.63980487459E+03  0.40000000000E+03 0.  1.
<mgrwt>
<rscale>  2 0.57597745E+03</rscale>
<asrwt>0</asrwt>
<pdfrwt beam="1">  1       21 0.43141073E-01 0.57597745E+03</pdfrwt>
<pdfrwt beam="2">  1       21 0.19849767E+00 0.57597745E+03</pdfrwt>
<totfact> 0.55560916E+02</totfact>
</mgrwt>
</event>
<event>
 4    1  0.4703494E-002  0.7823261E+03  0.7818608E-02  0.9585958E-01
         21   -1    0    0  501  502  0.00000000000E+00  0.00000000000E+00  0.13219587507E+04  0.13219587507E+04  0.00000000000E+00 0.  1.
         21   -1    0    0  502  503 -0.00000000000E+00 -0.00000000000E+00 -0.47477394856E+03  0.47477394856E+03  0.00000000000E+00 0. -1.
    9000007    1    1    2  501    0  0.55896171324E+03 -0.37362548132E+03  0.28197165017E+03  0.83159016869E+03  0.40000000000E+03 0. -1.
   -9000007    1    1    2    0  503 -0.55896171324E+03  0.37362548132E+03  0.56521315197E+03  0.96514253057E+03  0.40000000000E+03 0. -1.
<mgrwt>
<rscale>  2 0.78232615E+03</rscale>
<asrwt>0</asrwt>
<pdfrwt beam="1">  1       21 0.20337827E+00 0.78232615E+03</pdfrwt>
<pdfrwt beam="2">  1       21 0.73042147E-01 0.78232615E+03</pdfrwt>
<totfact> 0.15184940E+02</totfact>
</mgrwt>
</event>
<event>
 4    1  0.4703494E-002  0.4070923E+03  0.7818608E-02  0.1041351E+00
         21   -1    0    0  503  502  0.00000000000E+00  0.00000000000E+00  0.12120772311E+04  0.12120772311E+04  0.00000000000E+00 0. -1.
         21   -1    0    0  501  503 -0.00000000000E+00 -0.00000000000E+00 -0.24907851073E+03  0.24907851073E+03  0.00000000000E+00 0. -1.
    9000007    1    1    2  501    0  0.66524907989E+02  0.36035656512E+02 -0.91679518709E+01  0.40719550988E+03  0.40000000000E+03 0. -1.
   -9000007    1    1    2    0  502 -0.66524907989E+02 -0.36035656512E+02  0.97216667225E+03  0.10539602320E+04  0.40000000000E+03 0. -1.
<mgrwt>
<rscale>  2 0.40709229E+03</rscale>
<asrwt>0</asrwt>
<pdfrwt beam="1">  1       21 0.18647342E+00 0.40709229E+03</pdfrwt>
<pdfrwt beam="2">  1       21 0.38319772E-01 0.40709229E+03</pdfrwt>
<totfact> 0.92225015E+02</totfact>
</mgrwt>
</event>
<event>
 4    1  0.4703494E-002  0.4850524E+03  0.7818608E-02  0.1017756E+00
         21   -1    0    0  503  502  0.00000000000E+00  0.00000000000E+00  0.10372132448E+04  0.10372132448E+04  0.00000000000E+00 0.  1.
         21   -1    0    0  501  503 -0.00000000000E+00 -0.00000000000E+00 -0.22732094509E+03  0.22732094509E+03  0.00000000000E+00 0. -1.
    9000007    1    1    2  501    0 -0.78677784076E+02 -0.26284153758E+03  0.37570151511E+03  0.61353687423E+03  0.40000000000E+03 0.  1.
   -9000007    1    1    2    0  502  0.78677784076E+02  0.26284153758E+03  0.43419078463E+03  0.65099731570E+03  0.40000000000E+03 0. -1.
<mgrwt>
<rscale>  2 0.48505244E+03</rscale>
<asrwt>0</asrwt>
<pdfrwt beam="1">  1       21 0.15957127E+00 0.48505244E+03</pdfrwt>
<pdfrwt beam="2">  1       21 0.34972454E-01 0.48505244E+03</pdfrwt>
<totfact> 0.16785119E+03</totfact>
</mgrwt>
</event>
<event>
 4    1  0.4703494E-002  0.4676877E+03  0.7818608E-02  0.1022575E+00
         21   -1    0    0  501  502  0.00000000000E+00  0.00000000000E+00  0.19514357827E+03  0.19514357827E+03  0.00000000000E+00 0. -1.
         21   -1    0    0  502  503 -0.00000000000E+00 -0.00000000000E+00 -0.11310680336E+04  0.11310680336E+04  0.00000000000E+00 0. -1.
    9000007    1    1    2  501    0 -0.22514787580E+03 -0.89667343693E+02 -0.53090762346E+03  0.70752717485E+03  0.40000000000E+03 0. -1.
   -9000007    1    1    2    0  503  0.22514787580E+03  0.89667343693E+02 -0.40501683183E+03  0.61868443698E+03  0.40000000000E+03 0. -1.
<mgrwt>
<rscale>  2 0.46768771E+03</rscale>
<asrwt>0</asrwt>
<pdfrwt beam="1">  1       21 0.30022088E-01 0.46768771E+03</pdfrwt>
<pdfrwt beam="2">  1       21 0.17401047E+00 0.46768771E+03</pdfrwt>
<totfact> 0.17962323E+03</totfact>
</mgrwt>
</event>
<event>
 4    1  0.4703494E-002  0.4038309E+03  0.7818608E-02  0.1042461E+00
         21   -1    0    0  501  502  0.00000000000E+00  0.00000000000E+00  0.13285590857E+03  0.13285590857E+03  0.00000000000E+00 0.  1.
         21   -1    0    0  502  503 -0.00000000000E+00 -0.00000000000E+00 -0.12285250199E+04  0.12285250199E+04  0.00000000000E+00 0.  1.
    9000007    1    1    2  501    0 -0.88254170797E+01  0.54785846116E+02 -0.52808263838E+03  0.66479368971E+03  0.40000000000E+03 0.  1.
   -9000007    1    1    2    0  503  0.88254170797E+01 -0.54785846116E+02 -0.56758647297E+03  0.69658723877E+03  0.40000000000E+03 0.  1.
<mgrwt>
<rscale>  2 0.40383088E+03</rscale>
<asrwt>0</asrwt>
<pdfrwt beam="1">  1       21 0.20439370E-01 0.40383088E+03</pdfrwt>
<pdfrwt beam="2">  1       21 0.18900385E+00 0.40383088E+03</pdfrwt>
<totfact> 0.30586191E+03</totfact>
</mgrwt>
</event>
<event>
 4    1  0.4703494E-002  0.5392086E+03  0.7818608E-02  0.1004023E+00
         21   -1    0    0  501  502  0.00000000000E+00  0.00000000000E+00  0.11379931123E+04  0.11379931123E+04  0.00000000000E+00 0. -1.
         21   -1    0    0  502  503 -0.00000000000E+00 -0.00000000000E+00 -0.39498474450E+03  0.39498474450E+03  0.00000000000E+00 0.  1.
    9000007    1    1    2  501    0 -0.78577244462E+02  0.35294696909E+03  0.82701063301E+03  0.98726517889E+03  0.40000000000E+03 0. -1.
   -9000007    1    1    2    0  503  0.78577244462E+02 -0.35294696909E+03 -0.84002265163E+02  0.54571267796E+03  0.40000000000E+03 0.  1.
<mgrwt>
<rscale>  2 0.53920863E+03</rscale>
<asrwt>0</asrwt>
<pdfrwt beam="1">  1       21 0.17507586E+00 0.53920863E+03</pdfrwt>
<pdfrwt beam="2">  1       21 0.60766884E-01 0.53920863E+03</pdfrwt>
<totfact> 0.39348685E+02</totfact>
</mgrwt>
</event>
<event>
 4    1  0.4703494E-002  0.4579317E+03  0.7818608E-02  0.1025383E+00
         21   -1    0    0  501  502  0.00000000000E+00  0.00000000000E+00  0.31096128300E+03  0.31096128300E+03  0.00000000000E+00 0. -1.
         21   -1    0    0  502  503 -0.00000000000E+00 -0.00000000000E+00 -0.11942950830E+04  0.11942950830E+04  0.00000000000E+00 0. -1.
    9000007    1    1    2  501    0  0.21734199305E+03 -0.49637777611E+02  0.54922067856E+02  0.46121349118E+03  0.40000000000E+03 0. -1.
   -9000007    1    1    2    0  503 -0.21734199305E+03  0.49637777611E+02 -0.93825586788E+03  0.10440428748E+04  0.40000000000E+03 0. -1.
<mgrwt>
<rscale>  2 0.45793171E+03</rscale>
<asrwt>0</asrwt>
<pdfrwt beam="1">  1       21 0.47840197E-01 0.45793171E+03</pdfrwt>
<pdfrwt beam="2">  1       21 0.18373771E+00 0.45793171E+03</pdfrwt>
<totfact> 0.59272014E+02</totfact>
</mgrwt>
</event>
<event>
 4    1  0.4703494E-002  0.4010043E+03  0.7818608E-02  0.1043432E+00
         21   -1    0    0  503  502  0.00000000000E+00  0.00000000000E+00  0.10322304906E+04  0.10322304906E+04  0.00000000000E+00 0.  1.
         21   -1    0    0  501  503 -0.00000000000E+00 -0.00000000000E+00 -0.22933610575E+03  0.22933610575E+03  0.00000000000E+00 0.  1.
    9000007    1    1    2  501    0  0.12650539949E+02 -0.25384568960E+02  0.44221086492E+02  0.40343514596E+03  0.40000000000E+03 0. -1.
   -9000007    1    1    2    0  502 -0.12650539949E+02  0.25384568960E+02  0.75867329831E+03  0.85813145035E+03  0.40000000000E+03 0. -1.
<mgrwt>
<rscale>  2 0.40100425E+03</rscale>
<asrwt>0</asrwt>
<pdfrwt beam="1">  1       21 0.15880469E+00 0.40100425E+03</pdfrwt>
<pdfrwt beam="2">  1       21 0.35282478E-01 0.40100425E+03</pdfrwt>
<totfact> 0.17307044E+03</totfact>
</mgrwt>
</event>
<event>
 4    1  0.4703494E-002  0.5177530E+03  0.7818608E-02  0.1009246E+00
         21   -1    0    0  501  502  0.00000000000E+00  0.00000000000E+00  0.47079320015E+03  0.47079320015E+03  0.00000000000E+00 0.  1.
         21   -1    0    0  502  503 -0.00000000000E+00 -0.00000000000E+00 -0.59831065114E+03  0.59831065114E+03  0.00000000000E+00 0. -1.
    9000007    1    1    2  501    0  0.66783153703E+02  0.32188220923E+03 -0.18126997066E+03  0.54856808921E+03  0.40000000000E+03 0. -1.
   -9000007    1    1    2    0  503 -0.66783153703E+02 -0.32188220923E+03  0.53752519672E+02  0.52053576208E+03  0.40000000000E+03 0.  1.
<mgrwt>
<rscale>  2 0.51775298E+03</rscale>
<asrwt>0</asrwt>
<pdfrwt beam="1">  1       21 0.72429723E-01 0.51775298E+03</pdfrwt>
<pdfrwt beam="2">  1       21 0.92047792E-01 0.51775298E+03</pdfrwt>
<totfact> 0.14333975E+03</totfact>
</mgrwt>
</event>
<event>
 4    1  0.4703494E-002  0.4096447E+03  0.7818608E-02  0.1040490E+00
         21   -1    0    0  501  502  0.00000000000E+00  0.00000000000E+00  0.96847306413E+03  0.96847306413E+03  0.00000000000E+00 0. -1.
         21   -1    0    0  502  503 -0.00000000000E+00 -0.00000000000E+00 -0.52953279101E+03  0.52953279101E+03  0.00000000000E+00 0. -1.
    9000007    1    1    2  501    0  0.28080051226E+02 -0.83787038161E+02  0.83382799707E+03  0.92901985218E+03  0.40000000000E+03 0. -1.
   -9000007    1    1    2    0  503 -0.28080051226E+02  0.83787038161E+02 -0.39488772395E+03  0.56898600296E+03  0.40000000000E+03 0. -1.
<mgrwt>
<rscale>  2 0.40964467E+03</rscale>
<asrwt>0</asrwt>
<pdfrwt beam="1">  1       21 0.14899586E+00 0.40964467E+03</pdfrwt>
<pdfrwt beam="2">  1       21 0.81466583E-01 0.40964467E+03</pdfrwt>
<totfact> 0.33846082E+02</totfact>
</mgrwt>
</event>
<event>
 4    1  0.4703494E-002  0.4648587E+03  0.7818608E-02  0.1023381E+00
         21   -1    0    0  501  502  0.00000000000E+00  0.00000000000E+00  0.27862943969E+03  0.27862943969E+03  0.00000000000E+00 0. -1.
         21   -1    0    0  502  503 -0.00000000000E+00 -0.00000000000E+00 -0.10378395218E+04  0.10378395218E+04  0.00000000000E+00 0. -1.
    9000007    1    1    2  501    0  0.96855107145E+02 -0.21613112358E+03 -0.48703696812E+02  0.46740306422E+03  0.40000000000E+03 0. -1.
   -9000007    1    1    2    0  503 -0.96855107145E+02  0.21613112358E+03 -0.71050638531E+03  0.84906589728E+03  0.40000000000E+03 0. -1.
<mgrwt>
<rscale>  2 0.46485866E+03</rscale>
<asrwt>0</asrwt>
<pdfrwt beam="1">  1       21 0.42866068E-01 0.46485866E+03</pdfrwt>
<pdfrwt beam="2">  1       21 0.15966762E+00 0.46485866E+03</pdfrwt>
<totfact> 0.11122376E+03</totfact>
</mgrwt>
</event>
<event>
 4    1  0.4703494E-002  0.4081929E+03  0.7818608E-02  0.1040979E+00
         21   -1    0    0  503  502  0.00000000000E+00  0.00000000000E+00  0.10625196667E+04  0.10625196667E+04  0.00000000000E+00 0.  1.
         21   -1    0    0  501  503 -0.00000000000E+00 -0.00000000000E+00 -0.47041330779E+03  0.47041330779E+03  0.00000000000E+00 0.  1.
    9000007    1    1    2  501    0  0.31660644918E+02  0.74960177003E+02 -0.32975128957E+03  0.52474502146E+03  0.40000000000E+03 0.  1.
   -9000007    1    1    2    0  502 -0.31660644918E+02 -0.74960177003E+02  0.92185764849E+03  0.10081879530E+04  0.40000000000E+03 0.  1.
<mgrwt>
<rscale>  2 0.40819288E+03</rscale>
<asrwt>0</asrwt>
<pdfrwt beam="1">  1       21 0.16346456E+00 0.40819288E+03</pdfrwt>
<pdfrwt beam="2">  1       21 0.72371278E-01 0.40819288E+03</pdfrwt>
<totfact> 0.34417859E+02</totfact>
</mgrwt>
</event>
<event>
 4    1  0.4703494E-002  0.4581486E+03  0.7818608E-02  0.1025320E+00
         21   -1    0    0  503  502  0.00000000000E+00  0.00000000000E+00  0.12614967891E+04  0.12614967891E+04  0.00000000000E+00 0. -1.
         21   -1    0    0  501  503 -0.00000000000E+00 -0.00000000000E+00 -0.22772877396E+03  0.22772877396E+03  0.00000000000E+00 0. -1.
    9000007    1    1    2  501    0  0.71554248912E+02 -0.21161321403E+03  0.13043705575E+03  0.47635489753E+03  0.40000000000E+03 0. -1.
   -9000007    1    1    2    0  502 -0.71554248912E+02  0.21161321403E+03  0.90333095938E+03  0.10128706655E+04  0.40000000000E+03 0. -1.
<mgrwt>
<rscale>  2 0.45814863E+03</rscale>
<asrwt>0</asrwt>
<pdfrwt beam="1">  1       21 0.19407642E+00 0.45814863E+03</pdfrwt>
<pdfrwt beam="2">  1       21 0.35035197E-01 0.45814863E+03</pdfrwt>
<totfact> 0.95852206E+02</totfact>
</mgrwt>
</event>
<event>
 4    1  0.4703494E-002  0.4570619E+03  0.7818608E-02  0.1025637E+00
         21   -1    0    0  503  502  0.00000000000E+00  0.00000000000E+00  0.11518712737E+03  0.11518712737E+03  0.00000000000E+00 0. -1.
         21   -1    0    0  501  503 -0.00000000000E+00 -0.00000000000E+00 -0.18195404423E+04  0.18195404423E+04  0.00000000000E+00 0. -1.
    9000007    1    1    2  501    0 -0.67219794712E+02  0.21068248712E+03 -0.79699340362E+03  0.91875137909E+03  0.40000000000E+03 0. -1.
   -9000007    1    1    2    0  502  0.67219794712E+02 -0.21068248712E+03 -0.90735991135E+03  0.10159761906E+04  0.40000000000E+03 0. -1.
<mgrwt>
<rscale>  2 0.45706193E+03</rscale>
<asrwt>0</asrwt>
<pdfrwt beam="1">  1       21 0.17721097E-01 0.45706193E+03</pdfrwt>
<pdfrwt beam="2">  1       21 0.27992930E+00 0.45706193E+03</pdfrwt>
<totfact> 0.10436386E+03</totfact>
</mgrwt>
</event>
<event>
 4    1  0.4703494E-002  0.5636098E+03  0.7818608E-02  0.9983920E-01
         21   -1    0    0  501  502  0.00000000000E+00  0.00000000000E+00  0.61346618483E+03  0.61346618483E+03  0.00000000000E+00 0.  1.
         21   -1    0    0  502  503 -0.00000000000E+00 -0.00000000000E+00 -0.51852312066E+03  0.51852312066E+03  0.00000000000E+00 0.  1.
    9000007    1    1    2  501    0 -0.22667627745E+03 -0.32599666241E+03  0.68532448843E+02  0.56776108990E+03  0.40000000000E+03 0.  1.
   -9000007    1    1    2    0  503  0.22667627745E+03  0.32599666241E+03  0.26410615320E+02  0.56422821559E+03  0.40000000000E+03 0.  1.
<mgrwt>
<rscale>  2 0.56360976E+03</rscale>
<asrwt>0</asrwt>
<pdfrwt beam="1">  1       21 0.94379412E-01 0.56360976E+03</pdfrwt>
<pdfrwt beam="2">  1       21 0.79772788E-01 0.56360976E+03</pdfrwt>
<totfact> 0.10652353E+03</totfact>
</mgrwt>
</event>
<event>
 4    1  0.4703494E-002  0.4059598E+03  0.7818608E-02  0.1041735E+00
         21   -1    0    0  503  502  0.00000000000E+00  0.00000000000E+00  0.10048201078E+03  0.10048201078E+03  0.00000000000E+00 0.  1.
         21   -1    0    0  501  503 -0.00000000000E+00 -0.00000000000E+00 -0.16499494457E+04  0.16499494457E+04  0.00000000000E+00 0.  1.
    9000007    1    1    2  501    0 -0.90591976174E+01  0.68711907344E+02 -0.84225794257E+03  0.93498761334E+03  0.40000000000E+03 0. -1.
   -9000007    1    1    2    0  502  0.90591976174E+01 -0.68711907344E+02 -0.70720949239E+03  0.81544384319E+03  0.40000000000E+03 0. -1.
<mgrwt>
<rscale>  2 0.40595984E+03</rscale>
<asrwt>0</asrwt>
<pdfrwt beam="1">  1       21 0.15458770E-01 0.40595984E+03</pdfrwt>
<pdfrwt beam="2">  1       21 0.25383839E+00 0.40595984E+03</pdfrwt>
<totfact> 0.19897165E+03</totfact>
</mgrwt>
</event>
<event>
 4    1  0.4703494E-002  0.4490973E+03  0.7818608E-02  0.1027992E+00
         21   -1    0    0  503  502  0.00000000000E+00  0.00000000000E+00  0.94311523783E+03  0.94311523783E+03  0.00000000000E+00 0.  1.
         21   -1    0    0  501  503 -0.00000000000E+00 -0.00000000000E+00 -0.21767053362E+03  0.21767053362E+03  0.00000000000E+00 0.  1.
    9000007    1    1    2  501    0 -0.49506810659E+02  0.19808455178E+03  0.28586416940E+03  0.53235959398E+03  0.40000000000E+03 0.  1.
   -9000007    1    1    2    0  502  0.49506810659E+02 -0.19808455178E+03  0.43958053481E+03  0.62842617748E+03  0.40000000000E+03 0.  1.
<mgrwt>
<rscale>  2 0.44909733E+03</rscale>
<asrwt>0</asrwt>
<pdfrwt beam="1">  1       21 0.14509465E+00 0.44909733E+03</pdfrwt>
<pdfrwt beam="2">  1       21 0.33487775E-01 0.44909733E+03</pdfrwt>
<totfact> 0.24096797E+03</totfact>
</mgrwt>
</event>
<event>
 4    1  0.4703494E-002  0.6931808E+03  0.7818608E-02  0.9728966E-01
         21   -1    0    0  503  502  0.00000000000E+00  0.00000000000E+00  0.21936738426E+04  0.21936738426E+04  0.00000000000E+00 0.  1.
         21   -1    0    0  501  503 -0.00000000000E+00 -0.00000000000E+00 -0.23154832362E+03  0.23154832362E+03  0.00000000000E+00 0.  1.
    9000007    1    1    2  501    0 -0.71180835199E+02  0.56163410816E+03  0.69921024340E+03  0.98457836012E+03  0.40000000000E+03 0.  1.
   -9000007    1    1    2    0  502  0.71180835199E+02 -0.56163410816E+03  0.12629152756E+04  0.14406438061E+04  0.40000000000E+03 0.  1.
<mgrwt>
<rscale>  2 0.69318077E+03</rscale>
<asrwt>0</asrwt>
<pdfrwt beam="1">  1       21 0.33748827E+00 0.69318077E+03</pdfrwt>
<pdfrwt beam="2">  1       21 0.35622821E-01 0.69318077E+03</pdfrwt>
<totfact> 0.10638800E+02</totfact>
</mgrwt>
</event>
<event>
 4    1  0.4703494E-002  0.5028607E+03  0.7818608E-02  0.1013035E+00
         21   -1    0    0  501  502  0.00000000000E+00  0.00000000000E+00  0.32352779619E+03  0.32352779619E+03  0.00000000000E+00 0. -1.
         21   -1    0    0  502  503 -0.00000000000E+00 -0.00000000000E+00 -0.11232434849E+04  0.11232434849E+04  0.00000000000E+00 0. -1.
    9000007    1    1    2  501    0  0.20649562526E+03  0.22411699868E+03 -0.79880960990E+03  0.94390977599E+03  0.40000000000E+03 0. -1.
   -9000007    1    1    2    0  503 -0.20649562526E+03 -0.22411699868E+03 -0.90607883875E+00  0.50286150512E+03  0.40000000000E+03 0. -1.
<mgrwt>
<rscale>  2 0.50286069E+03</rscale>
<asrwt>0</asrwt>
<pdfrwt beam="1">  1       21 0.49773508E-01 0.50286069E+03</pdfrwt>
<pdfrwt beam="2">  1       21 0.17280669E+00 0.50286069E+03</pdfrwt>
<totfact> 0.63895120E+02</totfact>
</mgrwt>
</event>
<event>
 4    1  0.4703494E-002  0.4637206E+03  0.7818608E-02  0.1023708E+00
         21   -1    0    0  503  502  0.00000000000E+00  0.00000000000E+00  0.13141040250E+04  0.13141040250E+04  0.00000000000E+00 0. -1.
         21   -1    0    0  501  503 -0.00000000000E+00 -0.00000000000E+00 -0.16391918577E+03  0.16391918577E+03  0.00000000000E+00 0. -1.
    9000007    1    1    2  501    0  0.10324879805E+03  0.21065719345E+03  0.60572458615E+03  0.76284929162E+03  0.40000000000E+03 0. -1.
   -9000007    1    1    2    0  502 -0.10324879805E+03 -0.21065719345E+03  0.54446025306E+03  0.71517391913E+03  0.40000000000E+03 0. -1.
<mgrwt>
<rscale>  2 0.46372057E+03</rscale>
<asrwt>0</asrwt>
<pdfrwt beam="1">  1       21 0.20216984E+00 0.46372057E+03</pdfrwt>
<pdfrwt beam="2">  1       21 0.25218337E-01 0.46372057E+03</pdfrwt>
<totfact> 0.16210901E+03</totfact>
</mgrwt>
</event>
<event>
 4    1  0.4703494E-002  0.4371534E+03  0.7818608E-02  0.1031624E+00
         21   -1    0    0  501  502  0.00000000000E+00  0.00000000000E+00  0.12033538362E+04  0.12033538362E+04  0.00000000000E+00 0.  1.
         21   -1    0    0  502  503 -0.00000000000E+00 -0.00000000000E+00 -0.22058887868E+03  0.22058887868E+03  0.00000000000E+00 0.  1.
    9000007    1    1    2  501    0  0.46266017298E+02  0.17018382259E+03  0.86816889643E+03  0.97201867809E+03  0.40000000000E+03 0.  1.
   -9000007    1    1    2    0  503 -0.46266017298E+02 -0.17018382259E+03  0.11459606111E+03  0.45192403681E+03  0.40000000000E+03 0.  1.
<mgrwt>
<rscale>  2 0.43715338E+03</rscale>
<asrwt>0</asrwt>
<pdfrwt beam="1">  1       21 0.18513136E+00 0.43715338E+03</pdfrwt>
<pdfrwt beam="2">  1       21 0.33936751E-01 0.43715338E+03</pdfrwt>
<totfact> 0.11882660E+03</totfact>
</mgrwt>
</event>
<event>
 4    1  0.4703494E-002  0.4634154E+03  0.7818608E-02  0.1023795E+00
         21   -1    0    0  501  502  0.00000000000E+00  0.00000000000E+00  0.33056174952E+03  0.33056174952E+03  0.00000000000E+00 0. -1.
         21   -1    0    0  502  503 -0.00000000000E+00 -0.00000000000E+00 -0.19055129235E+04  0.19055129235E+04  0.00000000000E+00 0. -1.
    9000007    1    1    2  501    0  0.11889830790E+03 -0.20153666449E+03  0.12017601538E+03  0.47874430485E+03  0.40000000000E+03 0. -1.
   -9000007    1    1    2    0  503 -0.11889830790E+03  0.20153666449E+03 -0.16951271893E+04  0.17573303681E+04  0.40000000000E+03 0. -1.
<mgrwt>
<rscale>  2 0.46341540E+03</rscale>
<asrwt>0</asrwt>
<pdfrwt beam="1">  1       21 0.50855652E-01 0.46341540E+03</pdfrwt>
<pdfrwt beam="2">  1       21 0.29315584E+00 0.46341540E+03</pdfrwt>
<totfact> 0.10570907E+02</totfact>
</mgrwt>
</event>
<event>
 4    1  0.4703494E-002  0.4086755E+03  0.7818608E-02  0.1040816E+00
         21   -1    0    0  503  502  0.00000000000E+00  0.00000000000E+00  0.69430173682E+03  0.69430173682E+03  0.00000000000E+00 0. -1.
         21   -1    0    0  501  503 -0.00000000000E+00 -0.00000000000E+00 -0.26479562435E+03  0.26479562435E+03  0.00000000000E+00 0. -1.
    9000007    1    1    2  501    0 -0.39266443102E+02  0.73984931449E+02  0.69649957369E+02  0.41456813698E+03  0.40000000000E+03 0. -1.
   -9000007    1    1    2    0  502  0.39266443102E+02 -0.73984931449E+02  0.35985615510E+03  0.54452922419E+03  0.40000000000E+03 0. -1.
<mgrwt>
<rscale>  2 0.40867545E+03</rscale>
<asrwt>0</asrwt>
<pdfrwt beam="1">  1       21 0.10681565E+00 0.40867545E+03</pdfrwt>
<pdfrwt beam="2">  1       21 0.40737789E-01 0.40867545E+03</pdfrwt>
<totfact> 0.36019342E+03</totfact>
</mgrwt>
</event>
<event>
 4    1  0.4703494E-002  0.6671498E+03  0.7818608E-02  0.9775121E-01
         21   -1    0    0  501  502  0.00000000000E+00  0.00000000000E+00  0.64612315033E+03  0.64612315033E+03  0.00000000000E+00 0. -1.
         21   -1    0    0  502  503 -0.00000000000E+00 -0.00000000000E+00 -0.82220362762E+03  0.82220362762E+03  0.00000000000E+00 0. -1.
    9000007    1    1    2  501    0 -0.52558797740E+03  0.94053892851E+02  0.20761664448E+03  0.69870847126E+03  0.40000000000E+03 0. -1.
   -9000007    1    1    2    0  503  0.52558797740E+03 -0.94053892851E+02 -0.38369712177E+03  0.76961830669E+03  0.40000000000E+03 0. -1.
<mgrwt>
<rscale>  2 0.66714980E+03</rscale>
<asrwt>0</asrwt>
<pdfrwt beam="1">  1       21 0.99403562E-01 0.66714980E+03</pdfrwt>
<pdfrwt beam="2">  1       21 0.12649286E+00 0.66714980E+03</pdfrwt>
<totfact> 0.29324640E+02</totfact>
</mgrwt>
</event>
<event>
 4    1  0.4703494E-002  0.4887605E+03  0.7818608E-02  0.1016755E+00
         21   -1    0    0  501  502  0.00000000000E+00  0.00000000000E+00  0.49398542967E+03  0.49398542967E+03  0.00000000000E+00 0.  1.
         21   -1    0    0  502  503 -0.00000000000E+00 -0.00000000000E+00 -0.50411945648E+03  0.50411945648E+03  0.00000000000E+00 0.  1.
    9000007    1    1    2  501    0  0.17552043394E+01  0.28086245610E+03  0.95640046166E+02  0.49802993727E+03  0.40000000000E+03 0.  1.
   -9000007    1    1    2    0  503 -0.17552043394E+01 -0.28086245610E+03 -0.10577407297E+03  0.50007494888E+03  0.40000000000E+03 0.  1.
<mgrwt>
<rscale>  2 0.48876047E+03</rscale>
<asrwt>0</asrwt>
<pdfrwt beam="1">  1       21 0.75997759E-01 0.48876047E+03</pdfrwt>
<pdfrwt beam="2">  1       21 0.77556839E-01 0.48876047E+03</pdfrwt>
<totfact> 0.19378206E+03</totfact>
</mgrwt>
</event>
<event>
 4    1  0.4703494E-002  0.5446542E+03  0.7818608E-02  0.1002739E+00
         21   -1    0    0  503  502  0.00000000000E+00  0.00000000000E+00  0.35818906740E+03  0.35818906740E+03  0.00000000000E+00 0. -1.
         21   -1    0    0  501  503 -0.00000000000E+00 -0.00000000000E+00 -0.82890470367E+03  0.82890470367E+03  0.00000000000E+00 0. -1.
    9000007    1    1    2  501    0  0.36866955503E+03 -0.27035746617E+02 -0.25280122431E+03  0.60046368034E+03  0.40000000000E+03 0. -1.
   -9000007    1    1    2    0  502 -0.36866955503E+03  0.27035746617E+02 -0.21791441197E+03  0.58663009073E+03  0.40000000000E+03 0. -1.
<mgrwt>
<rscale>  2 0.54465418E+03</rscale>
<asrwt>0</asrwt>
<pdfrwt beam="1">  1       21 0.55106011E-01 0.54465418E+03</pdfrwt>
<pdfrwt beam="2">  1       21 0.12752380E+00 0.54465418E+03</pdfrwt>
<totfact> 0.11580304E+03</totfact>
</mgrwt>
</event>
<event>
 4    1  0.4703494E-002  0.5157744E+03  0.7818608E-02  0.1009742E+00
         21   -1    0    0  501  502  0.00000000000E+00  0.00000000000E+00  0.66715605528E+03  0.66715605528E+03  0.00000000000E+00 0.  1.
         21   -1    0    0  502  503 -0.00000000000E+00 -0.00000000000E+00 -0.78286353132E+03  0.78286353132E+03  0.00000000000E+00 0. -1.
    9000007    1    1    2  501    0 -0.19200093437E+03  0.26298080967E+03 -0.56570327563E+03  0.76553475500E+03  0.40000000000E+03 0. -1.
   -9000007    1    1    2    0  503  0.19200093437E+03 -0.26298080967E+03  0.44999579959E+03  0.68448483161E+03  0.40000000000E+03 0.  1.
<mgrwt>
<rscale>  2 0.51577443E+03</rscale>
<asrwt>0</asrwt>
<pdfrwt beam="1">  1       21 0.10263939E+00 0.51577443E+03</pdfrwt>
<pdfrwt beam="2">  1       21 0.12044054E+00 0.51577443E+03</pdfrwt>
<totfact> 0.32484550E+02</totfact>
</mgrwt>
</event>
<event>
 4    1  0.4703494E-002  0.4326127E+03  0.7818608E-02  0.1033038E+00
         21   -1    0    0  503  502  0.00000000000E+00  0.00000000000E+00  0.95467998199E+03  0.95467998199E+03  0.00000000000E+00 0.  1.
         21   -1    0    0  501  503 -0.00000000000E+00 -0.00000000000E+00 -0.20763829683E+03  0.20763829683E+03  0.00000000000E+00 0.  1.
    9000007    1    1    2  501    0 -0.82840202877E+02  0.14244736127E+03  0.23615711798E+03  0.49287314222E+03  0.40000000000E+03 0. -1.
   -9000007    1    1    2    0  502  0.82840202877E+02 -0.14244736127E+03  0.51088456717E+03  0.66944513660E+03  0.40000000000E+03 0. -1.
<mgrwt>
<rscale>  2 0.43261270E+03</rscale>
<asrwt>0</asrwt>
<pdfrwt beam="1">  1       21 0.14687384E+00 0.43261270E+03</pdfrwt>
<pdfrwt beam="2">  1       21 0.31944354E-01 0.43261270E+03</pdfrwt>
<totfact> 0.25800426E+03</totfact>
</mgrwt>
</event>
<event>
 4    1  0.4703494E-002  0.4261556E+03  0.7818608E-02  0.1035081E+00
         21   -1    0    0  503  502  0.00000000000E+00  0.00000000000E+00  0.10058727150E+04  0.10058727150E+04  0.00000000000E+00 0.  1.
         21   -1    0    0  501  503 -0.00000000000E+00 -0.00000000000E+00 -0.60559638819E+03  0.60559638819E+03  0.00000000000E+00 0.  1.
    9000007    1    1    2  501    0  0.82108009834E+00  0.14699632957E+03 -0.47488610965E+03  0.63806379949E+03  0.40000000000E+03 0.  1.
   -9000007    1    1    2    0  502 -0.82108009834E+00 -0.14699632957E+03  0.87516243645E+03  0.97340530370E+03  0.40000000000E+03 0.  1.
<mgrwt>
<rscale>  2 0.42615560E+03</rscale>
<asrwt>0</asrwt>
<pdfrwt beam="1">  1       21 0.15474965E+00 0.42615560E+03</pdfrwt>
<pdfrwt beam="2">  1       21 0.93168675E-01 0.42615560E+03</pdfrwt>
<totfact> 0.22085352E+02</totfact>
</mgrwt>
</event>
<event>
 4    1  0.4703494E-002  0.4344218E+03  0.7818608E-02  0.1032472E+00
         21   -1    0    0  503  502  0.00000000000E+00  0.00000000000E+00  0.12030823958E+03  0.12030823958E+03  0.00000000000E+00 0.  1.
         21   -1    0    0  501  503 -0.00000000000E+00 -0.00000000000E+00 -0.15913617922E+04  0.15913617922E+04  0.00000000000E+00 0.  1.
    9000007    1    1    2  501    0  0.39027883957E+02 -0.16492147000E+03 -0.63329829233E+03  0.76797720934E+03  0.40000000000E+03 0.  1.
   -9000007    1    1    2    0  502 -0.39027883957E+02  0.16492147000E+03 -0.83775526026E+03  0.94369282242E+03  0.40000000000E+03 0.  1.
<mgrwt>
<rscale>  2 0.43442176E+03</rscale>
<asrwt>0</asrwt>
<pdfrwt beam="1">  1       21 0.18508961E-01 0.43442176E+03</pdfrwt>
<pdfrwt beam="2">  1       21 0.24482488E+00 0.43442176E+03</pdfrwt>
<totfact> 0.15902721E+03</totfact>
</mgrwt>
</event>
<event>
 4    1  0.4703494E-002  0.4219265E+03  0.7818608E-02  0.1036441E+00
         21   -1    0    0  501  502  0.00000000000E+00  0.00000000000E+00  0.11316848808E+04  0.11316848808E+04  0.00000000000E+00 0. -1.
         21   -1    0    0  502  503 -0.00000000000E+00 -0.00000000000E+00 -0.16315882777E+03  0.16315882777E+03  0.00000000000E+00 0. -1.
    9000007    1    1    2  501    0  0.24706003179E+02 -0.13195308279E+03  0.36165293279E+03  0.55571111780E+03  0.40000000000E+03 0. -1.
   -9000007    1    1    2    0  503 -0.24706003179E+02  0.13195308279E+03  0.60687312019E+03  0.73913259072E+03  0.40000000000E+03 0. -1.
<mgrwt>
<rscale>  2 0.42192654E+03</rscale>
<asrwt>0</asrwt>
<pdfrwt beam="1">  1       21 0.17410536E+00 0.42192654E+03</pdfrwt>
<pdfrwt beam="2">  1       21 0.25101359E-01 0.42192654E+03</pdfrwt>
<totfact> 0.25983645E+03</totfact>
</mgrwt>
</event>
<event>
 4    1  0.4703494E-002  0.4140918E+03  0.7818608E-02  0.1039007E+00
         21   -1    0    0  503  502  0.00000000000E+00  0.00000000000E+00  0.26338919758E+03  0.26338919758E+03  0.00000000000E+00 0. -1.
         21   -1    0    0  501  503 -0.00000000000E+00 -0.00000000000E+00 -0.69439094588E+03  0.69439094588E+03  0.00000000000E+00 0. -1.
    9000007    1    1    2  501    0 -0.87545144161E+02  0.61707632718E+02 -0.95819483921E+02  0.42503336069E+03  0.40000000000E+03 0. -1.
   -9000007    1    1    2    0  502  0.87545144161E+02 -0.61707632718E+02 -0.33518226437E+03  0.53274678277E+03  0.40000000000E+03 0. -1.
<mgrwt>
<rscale>  2 0.41409176E+03</rscale>
<asrwt>0</asrwt>
<pdfrwt beam="1">  1       21 0.40521416E-01 0.41409176E+03</pdfrwt>
<pdfrwt beam="2">  1       21 0.10682937E+00 0.41409176E+03</pdfrwt>
<totfact> 0.36329900E+03</totfact>
</mgrwt>
</event>
<event>
 4    1  0.4703494E-002  0.5381916E+03  0.7818608E-02  0.1004265E+00
         21   -1    0    0  503  502  0.00000000000E+00  0.00000000000E+00  0.77395146582E+03  0.77395146582E+03  0.00000000000E+00 0.  1.
         21   -1    0    0  501  503 -0.00000000000E+00 -0.00000000000E+00 -0.42233969901E+03  0.42233969901E+03  0.00000000000E+00 0.  1.
    9000007    1    1    2  501    0  0.36006947992E+03 -0.39095040472E+00 -0.26034797255E+02  0.53882092933E+03  0.40000000000E+03 0.  1.
   -9000007    1    1    2    0  502 -0.36006947992E+03  0.39095040472E+00  0.37764656406E+03  0.65747023550E+03  0.40000000000E+03 0.  1.
<mgrwt>
<rscale>  2 0.53819159E+03</rscale>
<asrwt>0</asrwt>
<pdfrwt beam="1">  1       21 0.11906946E+00 0.53819159E+03</pdfrwt>
<pdfrwt beam="2">  1       21 0.64975338E-01 0.53819159E+03</pdfrwt>
<totfact> 0.96397938E+02</totfact>
</mgrwt>
</event>
<event>
 4    1  0.4703494E-002  0.5124677E+03  0.7818608E-02  0.1010575E+00
         21   -1    0    0  503  502  0.00000000000E+00  0.00000000000E+00  0.78300044858E+03  0.78300044858E+03  0.00000000000E+00 0. -1.
         21   -1    0    0  501  503 -0.00000000000E+00 -0.00000000000E+00 -0.45062545096E+03  0.45062545096E+03  0.00000000000E+00 0. -1.
    9000007    1    1    2  501    0 -0.41722795277E+02 -0.31761981881E+03 -0.14570742227E+03  0.53277931064E+03  0.40000000000E+03 0. -1.
   -9000007    1    1    2    0  502  0.41722795277E+02  0.31761981881E+03  0.47808241990E+03  0.70084658889E+03  0.40000000000E+03 0. -1.
<mgrwt>
<rscale>  2 0.51246770E+03</rscale>
<asrwt>0</asrwt>
<pdfrwt beam="1">  1       21 0.12046161E+00 0.51246770E+03</pdfrwt>
<pdfrwt beam="2">  1       21 0.69326993E-01 0.51246770E+03</pdfrwt>
<totfact> 0.81656021E+02</totfact>
</mgrwt>
</event>
<event>
 4    1  0.4703494E-002  0.4010258E+03  0.7818608E-02  0.1043425E+00
         21   -1    0    0  503  502  0.00000000000E+00  0.00000000000E+00  0.73717540635E+03  0.73717540635E+03  0.00000000000E+00 0.  1.
         21   -1    0    0  501  503 -0.00000000000E+00 -0.00000000000E+00 -0.22995962980E+03  0.22995962980E+03  0.00000000000E+00 0.  1.
    9000007    1    1    2  501    0  0.22992864900E+02 -0.17117362892E+02  0.14406649502E+03  0.42611832973E+03  0.40000000000E+03 0. -1.
   -9000007    1    1    2    0  502 -0.22992864900E+02  0.17117362892E+02  0.36314928153E+03  0.54101670642E+03  0.40000000000E+03 0. -1.
<mgrwt>
<rscale>  2 0.40102578E+03</rscale>
<asrwt>0</asrwt>
<pdfrwt beam="1">  1       21 0.11341160E+00 0.40102578E+03</pdfrwt>
<pdfrwt beam="2">  1       21 0.35378405E-01 0.40102578E+03</pdfrwt>
<totfact> 0.41540091E+03</totfact>
</mgrwt>
</event>
<event>
 4    1  0.4703494E-002  0.5403881E+03  0.7818608E-02  0.1003744E+00
         21   -1    0    0  503  502  0.00000000000E+00  0.00000000000E+00  0.35506549864E+03  0.35506549864E+03  0.00000000000E+00 0. -1.
         21   -1    0    0  501  503 -0.00000000000E+00 -0.00000000000E+00 -0.14948363763E+04  0.14948363763E+04  0.00000000000E+00 0.  1.
    9000007    1    1    2  501    0  0.35292286913E+03 -0.86398828874E+02 -0.11902332311E+04  0.13071627495E+04  0.40000000000E+03 0.  1.
   -9000007    1    1    2    0  502 -0.35292286913E+03  0.86398828874E+02  0.50462353459E+02  0.54273912546E+03  0.40000000000E+03 0.  1.
<mgrwt>
<rscale>  2 0.54038811E+03</rscale>
<asrwt>0</asrwt>
<pdfrwt beam="1">  1       21 0.54625461E-01 0.54038811E+03</pdfrwt>
<pdfrwt beam="2">  1       21 0.22997483E+00 0.54038811E+03</pdfrwt>
<totfact> 0.21250823E+02</totfact>
</mgrwt>
</event>
<event>
 4    1  0.4703494E-002  0.5886709E+03  0.7818608E-02  0.9929193E-01
         21   -1    0    0  501  502  0.00000000000E+00  0.00000000000E+00  0.15711489843E+04  0.15711489843E+04  0.00000000000E+00 0.  1.
         21   -1    0    0  502  503 -0.00000000000E+00 -0.00000000000E+00 -0.22201638030E+03  0.22201638030E+03  0.00000000000E+00 0. -1.
    9000007    1    1    2  501    0  0.43189514903E+03  0.16319232310E+00  0.74716967448E+03  0.95120763709E+03  0.40000000000E+03 0.  1.
   -9000007    1    1    2    0  503 -0.43189514903E+03 -0.16319232310E+00  0.60196292951E+03  0.84195772750E+03  0.40000000000E+03 0. -1.
<mgrwt>
<rscale>  2 0.58867092E+03</rscale>
<asrwt>0</asrwt>
<pdfrwt beam="1">  1       21 0.24171522E+00 0.58867092E+03</pdfrwt>
<pdfrwt beam="2">  1       21 0.34156367E-01 0.58867092E+03</pdfrwt>
<totfact> 0.46923853E+02</totfact>
</mgrwt>
</event>
<event>
 4    1  0.4703494E-002  0.4438914E+03  0.7818608E-02  0.1029560E+00
         21   -1    0    0  501  502  0.00000000000E+00  0.00000000000E+00  0.90052239320E+03  0.90052239320E+03  0.00000000000E+00 0. -1.
         21   -1    0    0  502  503 -0.00000000000E+00 -0.00000000000E+00 -0.32203709028E+03  0.32203709028E+03  0.00000000000E+00 0. -1.
    9000007    1    1    2  501    0 -0.32026249646E+02 -0.18977322995E+03  0.63533551803E+03  0.77504243751E+03  0.40000000000E+03 0. -1.
   -9000007    1    1    2    0  503  0.32026249646E+02  0.18977322995E+03 -0.56850215105E+02  0.44751704597E+03  0.40000000000E+03 0. -1.
<mgrwt>
<rscale>  2 0.44389138E+03</rscale>
<asrwt>0</asrwt>
<pdfrwt beam="1">  1       21 0.13854191E+00 0.44389138E+03</pdfrwt>
<pdfrwt beam="2">  1       21 0.49544168E-01 0.44389138E+03</pdfrwt>
<totfact> 0.12163186E+03</totfact>
</mgrwt>
</event>
<event>
 4    1  0.4703494E-002  0.4091176E+03  0.7818608E-02  0.1040668E+00
         21   -1    0    0  503  502  0.00000000000E+00  0.00000000000E+00  0.19125774506E+03  0.19125774506E+03  0.00000000000E+00 0. -1.
         21   -1    0    0  501  503 -0.00000000000E+00 -0.00000000000E+00 -0.10110156440E+04  0.10110156440E+04  0.00000000000E+00 0. -1.
    9000007    1    1    2  501    0  0.29905502292E+02  0.80516533097E+02 -0.63025558174E+03  0.75139826289E+03  0.40000000000E+03 0. -1.
   -9000007    1    1    2    0  502 -0.29905502292E+02 -0.80516533097E+02 -0.18950231722E+03  0.45087512617E+03  0.40000000000E+03 0. -1.
<mgrwt>
<rscale>  2 0.40911765E+03</rscale>
<asrwt>0</asrwt>
<pdfrwt beam="1">  1       21 0.29424269E-01 0.40911765E+03</pdfrwt>
<pdfrwt beam="2">  1       21 0.15554087E+00 0.40911765E+03</pdfrwt>
<totfact> 0.26252396E+03</totfact>
</mgrwt>
</event>
<event>
 4    1  0.4703494E-002  0.4739252E+03  0.7818608E-02  0.1020818E+00
         21   -1    0    0  501  502  0.00000000000E+00  0.00000000000E+00  0.23201670951E+04  0.23201670951E+04  0.00000000000E+00 0. -1.
         21   -1    0    0  502  503 -0.00000000000E+00 -0.00000000000E+00 -0.96819801188E+02  0.96819801188E+02  0.00000000000E+00 0. -1.
    9000007    1    1    2  501    0 -0.53673533565E+02 -0.24844363567E+03  0.11263273500E+04  0.12219731534E+04  0.40000000000E+03 0. -1.
   -9000007    1    1    2    0  503  0.53673533565E+02  0.24844363567E+03  0.10970199439E+04  0.11950137429E+04  0.40000000000E+03 0. -1.
<mgrwt>
<rscale>  2 0.47392519E+03</rscale>
<asrwt>0</asrwt>
<pdfrwt beam="1">  1       21 0.35694874E+00 0.47392519E+03</pdfrwt>
<pdfrwt beam="2">  1       21 0.14895356E-01 0.47392519E+03</pdfrwt>
<totfact> 0.48802469E+02</totfact>
</mgrwt>
</event>
<event>
 4    1  0.4703494E-002  0.4576042E+03  0.7818608E-02  0.1025478E+00
         21   -1    0    0  503  502  0.00000000000E+00  0.00000000000E+00  0.27725372051E+04  0.27725372051E+04  0.00000000000E+00 0.  1.
         21   -1    0    0  501  503 -0.00000000000E+00 -0.00000000000E+00 -0.83105363876E+02  0.83105363876E+02  0.00000000000E+00 0.  1.
    9000007    1    1    2  501    0 -0.33281988709E+02 -0.21975885691E+03  0.91354973895E+03  0.10217508363E+04  0.40000000000E+03 0.  1.
   -9000007    1    1    2    0  502  0.33281988709E+02  0.21975885691E+03  0.17758821022E+04  0.18338917326E+04  0.40000000000E+03 0.  1.
<mgrwt>
<rscale>  2 0.45760425E+03</rscale>
<asrwt>0</asrwt>
<pdfrwt beam="1">  1       21 0.42654412E+00 0.45760425E+03</pdfrwt>
<pdfrwt beam="2">  1       21 0.12785443E-01 0.45760425E+03</pdfrwt>
<totfact> 0.23519616E+02</totfact>
</mgrwt>
</event>
<event>
 4    1  0.4703494E-002  0.4411282E+03  0.7818608E-02  0.1030401E+00
         21   -1    0    0  501  502  0.00000000000E+00  0.00000000000E+00  0.28877454472E+03  0.28877454472E+03  0.00000000000E+00 0. -1.
         21   -1    0    0  502  503 -0.00000000000E+00 -0.00000000000E+00 -0.89101275900E+03  0.89101275900E+03  0.00000000000E+00 0. -1.
    9000007    1    1    2  501    0 -0.13365148034E+03  0.12934989619E+03 -0.99047995560E+01  0.44123941222E+03  0.40000000000E+03 0. -1.
   -9000007    1    1    2    0  503  0.13365148034E+03 -0.12934989619E+03 -0.59233341473E+03  0.73854789150E+03  0.40000000000E+03 0. -1.
<mgrwt>
<rscale>  2 0.44112823E+03</rscale>
<asrwt>0</asrwt>
<pdfrwt beam="1">  1       21 0.44426854E-01 0.44112823E+03</pdfrwt>
<pdfrwt beam="2">  1       21 0.13707888E+00 0.44112823E+03</pdfrwt>
<totfact> 0.15758049E+03</totfact>
</mgrwt>
</event>
<event>
 4    1  0.4703494E-002  0.5290720E+03  0.7818608E-02  0.1006457E+00
         21   -1    0    0  503  502  0.00000000000E+00  0.00000000000E+00  0.17771926064E+04  0.17771926064E+04  0.00000000000E+00 0. -1.
         21   -1    0    0  501  503 -0.00000000000E+00 -0.00000000000E+00 -0.24125508117E+03  0.24125508117E+03  0.00000000000E+00 0. -1.
    9000007    1    1    2  501    0 -0.26106738052E+03  0.22751050750E+03  0.17334648473E+03  0.55674609290E+03  0.40000000000E+03 0. -1.
   -9000007    1    1    2    0  502  0.26106738052E+03 -0.22751050750E+03  0.13625910405E+04  0.14617015947E+04  0.40000000000E+03 0. -1.
<mgrwt>
<rscale>  2 0.52907203E+03</rscale>
<asrwt>0</asrwt>
<pdfrwt beam="1">  1       21 0.27341424E+00 0.52907203E+03</pdfrwt>
<pdfrwt beam="2">  1       21 0.37116167E-01 0.52907203E+03</pdfrwt>
<totfact> 0.25923965E+02</totfact>
</mgrwt>
</event>
<event>
 4    1  0.4703494E-002  0.4542044E+03  0.7818608E-02  0.1026476E+00
         21   -1    0    0  501  502  0.00000000000E+00  0.00000000000E+00  0.91036297467E+03  0.91036297467E+03  0.00000000000E+00 0.  1.
         21   -1    0    0  502  503 -0.00000000000E+00 -0.00000000000E+00 -0.37803456511E+03  0.37803456511E+03  0.00000000000E+00 0.  1.
    9000007    1    1    2  501    0 -0.12152160985E+03  0.17757851414E+03  0.67386876255E+03  0.81265044114E+03  0.40000000000E+03 0.  1.
   -9000007    1    1    2    0  503  0.12152160985E+03 -0.17757851414E+03 -0.14154035299E+03  0.47574709864E+03  0.40000000000E+03 0.  1.
<mgrwt>
<rscale>  2 0.45420439E+03</rscale>
<asrwt>0</asrwt>
<pdfrwt beam="1">  1       21 0.14005584E+00 0.45420439E+03</pdfrwt>
<pdfrwt beam="2">  1       21 0.58159164E-01 0.45420439E+03</pdfrwt>
<totfact> 0.83337773E+02</totfact>
</mgrwt>
</event>
<event>
 4    1  0.4703494E-002  0.4866105E+03  0.7818608E-02  0.1017334E+00
         21   -1    0    0  501  502  0.00000000000E+00  0.00000000000E+00  0.15248581081E+03  0.15248581081E+03  0.00000000000E+00 0.  1.
         21   -1    0    0  502  503 -0.00000000000E+00 -0.00000000000E+00 -0.21711382440E+04  0.21711382440E+04  0.00000000000E+00 0.  1.
    9000007    1    1    2  501    0  0.17439420098E+03 -0.21535192893E+03 -0.38933925208E+03  0.62319727521E+03  0.40000000000E+03 0.  1.
   -9000007    1    1    2    0  503 -0.17439420098E+03  0.21535192893E+03 -0.16293131811E+04  0.17004267796E+04  0.40000000000E+03 0.  1.
<mgrwt>
<rscale>  2 0.48661051E+03</rscale>
<asrwt>0</asrwt>
<pdfrwt beam="1">  1       21 0.23459355E-01 0.48661051E+03</pdfrwt>
<pdfrwt beam="2">  1       21 0.33402128E+00 0.48661051E+03</pdfrwt>
<totfact> 0.28324939E+02</totfact>
</mgrwt>
</event>
<event>
 4    1  0.4703494E-002  0.5280843E+03  0.7818608E-02  0.1006698E+00
         21   -1    0    0  503  502  0.00000000000E+00  0.00000000000E+00  0.54868260876E+03  0.54868260876E+03  0.00000000000E+00 0. -1.
         21   -1    0    0  501  503 -0.00000000000E+00 -0.00000000000E+00 -0.55513115020E+03  0.55513115020E+03  0.00000000000E+00 0. -1.
    9000007    1    1    2  501    0  0.11667807937E+03 -0.32443681203E+03 -0.16359467402E+03  0.55284377230E+03  0.40000000000E+03 0. -1.
   -9000007    1    1    2    0  502 -0.11667807937E+03  0.32443681203E+03  0.15714613259E+03  0.55096998665E+03  0.40000000000E+03 0. -1.
<mgrwt>
<rscale>  2 0.52808429E+03</rscale>
<asrwt>0</asrwt>
<pdfrwt beam="1">  1       21 0.84412709E-01 0.52808429E+03</pdfrwt>
<pdfrwt beam="2">  1       21 0.85404792E-01 0.52808429E+03</pdfrwt>
<totfact> 0.11980271E+03</totfact>
</mgrwt>
</event>
<event>
 4    1  0.4703494E-002  0.5119181E+03  0.7818608E-02  0.1010714E+00
         21   -1    0    0  503  502  0.00000000000E+00  0.00000000000E+00  0.35081193485E+03  0.35081193485E+03  0.00000000000E+00 0. -1.
         21   -1    0    0  501  503 -0.00000000000E+00 -0.00000000000E+00 -0.99771847038E+03  0.99771847038E+03  0.00000000000E+00 0. -1.
    9000007    1    1    2  501    0  0.29791620607E+03  0.11535189835E+03 -0.66144882426E+03  0.83640580666E+03  0.40000000000E+03 0. -1.
   -9000007    1    1    2    0  502 -0.29791620607E+03 -0.11535189835E+03  0.14542288729E+02  0.51212459856E+03  0.40000000000E+03 0. -1.
<mgrwt>
<rscale>  2 0.51191809E+03</rscale>
<asrwt>0</asrwt>
<pdfrwt beam="1">  1       21 0.53971067E-01 0.51191809E+03</pdfrwt>
<pdfrwt beam="2">  1       21 0.15349515E+00 0.51191809E+03</pdfrwt>
<totfact> 0.74714166E+02</totfact>
</mgrwt>
</event>
<event>
 4    1  0.4703494E-002  0.4157410E+03  0.7818608E-02  0.1038461E+00
         21   -1    0    0  501  502  0.00000000000E+00  0.00000000000E+00  0.17367015463E+03  0.17367015463E+03  0.00000000000E+00 0. -1.
         21   -1    0    0  502  503 -0.00000000000E+00 -0.00000000000E+00 -0.10183553114E+04  0.10183553114E+04  0.00000000000E+00 0. -1.
    9000007    1    1    2  501    0 -0.11324548527E+03  0.40053056393E+01 -0.33251438228E+03  0.53235927420E+03  0.40000000000E+03 0. -1.
   -9000007    1    1    2    0  503  0.11324548527E+03 -0.40053056393E+01 -0.51217077451E+03  0.65966619185E+03  0.40000000000E+03 0. -1.
<mgrwt>
<rscale>  2 0.41574100E+03</rscale>
<asrwt>0</asrwt>
<pdfrwt beam="1">  1       21 0.26718485E-01 0.41574100E+03</pdfrwt>
<pdfrwt beam="2">  1       21 0.15667005E+00 0.41574100E+03</pdfrwt>
<totfact> 0.31028669E+03</totfact>
</mgrwt>
</event>
<event>
 4    1  0.4703494E-002  0.4364106E+03  0.7818608E-02  0.1031854E+00
         21   -1    0    0  503  502  0.00000000000E+00  0.00000000000E+00  0.25602422754E+03  0.25602422754E+03  0.00000000000E+00 0.  1.
         21   -1    0    0  501  503 -0.00000000000E+00 -0.00000000000E+00 -0.74693799597E+03  0.74693799597E+03  0.00000000000E+00 0.  1.
    9000007    1    1    2  501    0  0.11151022889E+03 -0.13423746786E+03 -0.21342978940E+03  0.48580500608E+03  0.40000000000E+03 0. -1.
   -9000007    1    1    2    0  502 -0.11151022889E+03  0.13423746786E+03 -0.27748397903E+03  0.51715721743E+03  0.40000000000E+03 0. -1.
<mgrwt>
<rscale>  2 0.43641062E+03</rscale>
<asrwt>0</asrwt>
<pdfrwt beam="1">  1       21 0.39388343E-01 0.43641062E+03</pdfrwt>
<pdfrwt beam="2">  1       21 0.11491354E+00 0.43641062E+03</pdfrwt>
<totfact> 0.31870726E+03</totfact>
</mgrwt>
</event>
<event>
 4    1  0.4703494E-002  0.4680394E+03  0.7818608E-02  0.1022475E+00
         21   -1    0    0  501  502  0.00000000000E+00  0.00000000000E+00  0.56192858920E+03  0.56192858920E+03  0.00000000000E+00 0. -1.
         21   -1    0    0  502  503 -0.00000000000E+00 -0.00000000000E+00 -0.39641174841E+03  0.39641174841E+03  0.00000000000E+00 0.  1.
    9000007    1    1    2  501    0 -0.24088525679E+03 -0.32173648229E+02  0.14446603170E+03  0.48982781148E+03  0.40000000000E+03 0. -1.
   -9000007    1    1    2    0  503  0.24088525679E+03  0.32173648229E+02  0.21050809089E+02  0.46851252613E+03  0.40000000000E+03 0.  1.
<mgrwt>
<rscale>  2 0.46803937E+03</rscale>
<asrwt>0</asrwt>
<pdfrwt beam="1">  1       21 0.86450552E-01 0.46803937E+03</pdfrwt>
<pdfrwt beam="2">  1       21 0.60986423E-01 0.46803937E+03</pdfrwt>
<totfact> 0.24850141E+03</totfact>
</mgrwt>
</event>
<event>
 4    1  0.4703494E-002  0.4028239E+03  0.7818608E-02  0.1042806E+00
         21   -1    0    0  503  502  0.00000000000E+00  0.00000000000E+00  0.21543293445E+03  0.21543293445E+03  0.00000000000E+00 0.  1.
         21   -1    0    0  501  503 -0.00000000000E+00 -0.00000000000E+00 -0.10963083114E+04  0.10963083114E+04  0.00000000000E+00 0.  1.
    9000007    1    1    2  501    0 -0.29775098731E+02 -0.37155767255E+02 -0.80734686085E+03  0.90226163682E+03  0.40000000000E+03 0.  1.
   -9000007    1    1    2    0  502  0.29775098731E+02  0.37155767255E+02 -0.73528516114E+02  0.40947960905E+03  0.40000000000E+03 0.  1.
<mgrwt>
<rscale>  2 0.40282392E+03</rscale>
<asrwt>0</asrwt>
<pdfrwt beam="1">  1       21 0.33143527E-01 0.40282392E+03</pdfrwt>
<pdfrwt beam="2">  1       21 0.16866282E+00 0.40282392E+03</pdfrwt>
<totfact> 0.16571580E+03</totfact>
</mgrwt>
</event>
<event>
 4    1  0.4703494E-002  0.5738652E+03  0.7818608E-02  0.9961162E-01
         21   -1    0    0  501  502  0.00000000000E+00  0.00000000000E+00  0.11133637214E+04  0.11133637214E+04  0.00000000000E+00 0.  1.
         21   -1    0    0  502  503 -0.00000000000E+00 -0.00000000000E+00 -0.74073165073E+03  0.74073165073E+03  0.00000000000E+00 0.  1.
    9000007    1    1    2  501    0 -0.15370115121E+03  0.38170303732E+03  0.90481048609E+03  0.10714491441E+04  0.40000000000E+03 0.  1.
   -9000007    1    1    2    0  503  0.15370115121E+03 -0.38170303732E+03 -0.53217841538E+03  0.78264622811E+03  0.40000000000E+03 0.  1.
<mgrwt>
<rscale>  2 0.57386519E+03</rscale>
<asrwt>0</asrwt>
<pdfrwt beam="1">  1       21 0.17128673E+00 0.57386519E+03</pdfrwt>
<pdfrwt beam="2">  1       21 0.11395872E+00 0.57386519E+03</pdfrwt>
<totfact> 0.94315724E+01</totfact>
</mgrwt>
</event>
<event>
 4    1  0.4703494E-002  0.4224718E+03  0.7818608E-02  0.1036265E+00
         21   -1    0    0  501  502  0.00000000000E+00  0.00000000000E+00  0.20440722943E+03  0.20440722943E+03  0.00000000000E+00 0. -1.
         21   -1    0    0  502  503 -0.00000000000E+00 -0.00000000000E+00 -0.17502659267E+04  0.17502659267E+04  0.00000000000E+00 0. -1.
    9000007    1    1    2  501    0  0.92131382416E+02  0.99971022402E+02 -0.81073660602E+02  0.43018058463E+03  0.40000000000E+03 0. -1.
   -9000007    1    1    2    0  503 -0.92131382416E+02 -0.99971022402E+02 -0.14647850367E+04  0.15244925715E+04  0.40000000000E+03 0. -1.
<mgrwt>
<rscale>  2 0.42247177E+03</rscale>
<asrwt>0</asrwt>
<pdfrwt beam="1">  1       21 0.31447266E-01 0.42247177E+03</pdfrwt>
<pdfrwt beam="2">  1       21 0.26927168E+00 0.42247177E+03</pdfrwt>
<totfact> 0.40643920E+02</totfact>
</mgrwt>
</event>
<event>
 4    1  0.4703494E-002  0.4086072E+03  0.7818608E-02  0.1040839E+00
         21   -1    0    0  501  502  0.00000000000E+00  0.00000000000E+00  0.27246941586E+03  0.27246941586E+03  0.00000000000E+00 0. -1.
         21   -1    0    0  502  503 -0.00000000000E+00 -0.00000000000E+00 -0.61871895923E+03  0.61871895923E+03  0.00000000000E+00 0. -1.
    9000007    1    1    2  501    0 -0.16380407507E+02 -0.81801637936E+02 -0.21683487143E+03  0.46257668250E+03  0.40000000000E+03 0. -1.
   -9000007    1    1    2    0  503  0.16380407507E+02  0.81801637936E+02 -0.12941467193E+03  0.42861169260E+03  0.40000000000E+03 0. -1.
<mgrwt>
<rscale>  2 0.40860718E+03</rscale>
<asrwt>0</asrwt>
<pdfrwt beam="1">  1       21 0.41918372E-01 0.40860718E+03</pdfrwt>
<pdfrwt beam="2">  1       21 0.95187532E-01 0.40860718E+03</pdfrwt>
<totfact> 0.44927339E+03</totfact>
</mgrwt>
</event>
<event>
 4    1  0.4703494E-002  0.5695858E+03  0.7818608E-02  0.9970596E-01
         21   -1    0    0  501  502  0.00000000000E+00  0.00000000000E+00  0.86942784210E+03  0.86942784210E+03  0.00000000000E+00 0.  1.
         21   -1    0    0  502  503 -0.00000000000E+00 -0.00000000000E+00 -0.38002844267E+03  0.38002844267E+03  0.00000000000E+00 0. -1.
    9000007    1    1    2  501    0  0.38798122064E+03 -0.11789224533E+03  0.32874073834E+03  0.65764616787E+03  0.40000000000E+03 0.  1.
   -9000007    1    1    2    0  503 -0.38798122064E+03  0.11789224533E+03  0.16065866109E+03  0.59181011689E+03  0.40000000000E+03 0.  1.
<mgrwt>
<rscale>  2 0.56958582E+03</rscale>
<asrwt>0</asrwt>
<pdfrwt beam="1">  1       21 0.13375813E+00 0.56958582E+03</pdfrwt>
<pdfrwt beam="2">  1       21 0.58465914E-01 0.56958582E+03</pdfrwt>
<totfact> 0.89096641E+02</totfact>
</mgrwt>
</event>
<event>
 4    1  0.4703494E-002  0.4413046E+03  0.7818608E-02  0.1030347E+00
         21   -1    0    0  503  502  0.00000000000E+00  0.00000000000E+00  0.17624665372E+04  0.17624665372E+04  0.00000000000E+00 0.  1.
         21   -1    0    0  501  503 -0.00000000000E+00 -0.00000000000E+00 -0.15181045072E+03  0.15181045072E+03  0.00000000000E+00 0.  1.
    9000007    1    1    2  501    0  0.18297589496E+03 -0.35631376752E+02  0.30602731037E+03  0.53703117958E+03  0.40000000000E+03 0.  1.
   -9000007    1    1    2    0  502 -0.18297589496E+03  0.35631376752E+02  0.13046287761E+04  0.13772458083E+04  0.40000000000E+03 0.  1.
<mgrwt>
<rscale>  2 0.44130463E+03</rscale>
<asrwt>0</asrwt>
<pdfrwt beam="1">  1       21 0.27114868E+00 0.44130463E+03</pdfrwt>
<pdfrwt beam="2">  1       21 0.23355455E-01 0.44130463E+03</pdfrwt>
<totfact> 0.70238403E+02</totfact>
</mgrwt>
</event>
<event>
 4    1  0.4703494E-002  0.4151080E+03  0.7818608E-02  0.1038670E+00
         21   -1    0    0  501  502  0.00000000000E+00  0.00000000000E+00  0.15583747752E+03  0.15583747752E+03  0.00000000000E+00 0.  1.
         21   -1    0    0  502  503 -0.00000000000E+00 -0.00000000000E+00 -0.11959633243E+04  0.11959633243E+04  0.00000000000E+00 0.  1.
    9000007    1    1    2  501    0  0.10792034305E+03  0.25843306171E+02 -0.33441098590E+03  0.53305289082E+03  0.40000000000E+03 0.  1.
   -9000007    1    1    2    0  503 -0.10792034305E+03 -0.25843306171E+02 -0.70571486088E+03  0.81874791101E+03  0.40000000000E+03 0.  1.
<mgrwt>
<rscale>  2 0.41510803E+03</rscale>
<asrwt>0</asrwt>
<pdfrwt beam="1">  1       21 0.23974996E-01 0.41510803E+03</pdfrwt>
<pdfrwt beam="2">  1       21 0.18399436E+00 0.41510803E+03</pdfrwt>
<totfact> 0.24258810E+03</totfact>
</mgrwt>
</event>
<event>
 4    1  0.4703494E-002  0.4661170E+03  0.7818608E-02  0.1023022E+00
         21   -1    0    0  501  502  0.00000000000E+00  0.00000000000E+00  0.68482162026E+03  0.68482162026E+03  0.00000000000E+00 0.  1.
         21   -1    0    0  502  503 -0.00000000000E+00 -0.00000000000E+00 -0.53749031887E+03  0.53749031887E+03  0.00000000000E+00 0. -1.
    9000007    1    1    2  501    0  0.53762213380E+02  0.23318379201E+03  0.46487333575E+03  0.65831016605E+03  0.40000000000E+03 0.  1.
   -9000007    1    1    2    0  503 -0.53762213380E+02 -0.23318379201E+03 -0.31754203436E+03  0.56400177307E+03  0.40000000000E+03 0. -1.
<mgrwt>
<rscale>  2 0.46611700E+03</rscale>
<asrwt>0</asrwt>
<pdfrwt beam="1">  1       21 0.10535717E+00 0.46611700E+03</pdfrwt>
<pdfrwt beam="2">  1       21 0.82690818E-01 0.46611700E+03</pdfrwt>
<totfact> 0.77638154E+02</totfact>
</mgrwt>
</event>
<event>
 4    1  0.4703494E-002  0.4040270E+03  0.7818608E-02  0.1042394E+00
         21   -1    0    0  501  502  0.00000000000E+00  0.00000000000E+00  0.12515951520E+04  0.12515951520E+04  0.00000000000E+00 0.  1.
         21   -1    0    0  502  503 -0.00000000000E+00 -0.00000000000E+00 -0.14477590583E+03  0.14477590583E+03  0.00000000000E+00 0.  1.
    9000007    1    1    2  501    0 -0.24423463024E+02  0.51393533114E+02  0.77323632848E+03  0.87242892001E+03  0.40000000000E+03 0.  1.
   -9000007    1    1    2    0  503  0.24423463024E+02 -0.51393533114E+02  0.33358291767E+03  0.52394213779E+03  0.40000000000E+03 0.  1.
<mgrwt>
<rscale>  2 0.40402698E+03</rscale>
<asrwt>0</asrwt>
<pdfrwt beam="1">  1       21 0.19255309E+00 0.40402698E+03</pdfrwt>
<pdfrwt beam="2">  1       21 0.22273217E-01 0.40402698E+03</pdfrwt>
<totfact> 0.24550503E+03</totfact>
</mgrwt>
</event>
<event>
 4    1  0.4703494E-002  0.4678408E+03  0.7818608E-02  0.1022531E+00
         21   -1    0    0  503  502  0.00000000000E+00  0.00000000000E+00  0.11841672729E+04  0.11841672729E+04  0.00000000000E+00 0.  1.
         21   -1    0    0  501  503 -0.00000000000E+00 -0.00000000000E+00 -0.53387893475E+03  0.53387893475E+03  0.00000000000E+00 0. -1.
    9000007    1    1    2  501    0 -0.76031968846E+01  0.24252263293E+03 -0.36943822997E+03  0.59612049273E+03  0.40000000000E+03 0. -1.
   -9000007    1    1    2    0  502  0.76031968846E+01 -0.24252263293E+03  0.10197265681E+04  0.11219257149E+04  0.40000000000E+03 0.  1.
<mgrwt>
<rscale>  2 0.46784082E+03</rscale>
<asrwt>0</asrwt>
<pdfrwt beam="1">  1       21 0.18217958E+00 0.46784082E+03</pdfrwt>
<pdfrwt beam="2">  1       21 0.82135221E-01 0.46784082E+03</pdfrwt>
<totfact> 0.18293128E+02</totfact>
</mgrwt>
</event>
<event>
 4    1  0.4703494E-002  0.5345232E+03  0.7818608E-02  0.1005141E+00
         21   -1    0    0  503  502  0.00000000000E+00  0.00000000000E+00  0.12878351973E+04  0.12878351973E+04  0.00000000000E+00 0. -1.
         21   -1    0    0  501  503 -0.00000000000E+00 -0.00000000000E+00 -0.25864916085E+03  0.25864916085E+03  0.00000000000E+00 0. -1.
    9000007    1    1    2  501    0  0.26488820913E+03  0.23568891893E+03  0.22295867131E+03  0.57915938994E+03  0.40000000000E+03 0. -1.
   -9000007    1    1    2    0  502 -0.26488820913E+03 -0.23568891893E+03  0.80622736515E+03  0.96732496823E+03  0.40000000000E+03 0. -1.
<mgrwt>
<rscale>  2 0.53452318E+03</rscale>
<asrwt>0</asrwt>
<pdfrwt beam="1">  1       21 0.19812849E+00 0.53452318E+03</pdfrwt>
<pdfrwt beam="2">  1       21 0.39792179E-01 0.53452318E+03</pdfrwt>
<totfact> 0.67170583E+02</totfact>
</mgrwt>
</event>
<event>
 4    1  0.4703494E-002  0.4250070E+03  0.7818608E-02  0.1035449E+00
         21   -1    0    0  503  502  0.00000000000E+00  0.00000000000E+00  0.52176975203E+03  0.52176975203E+03  0.00000000000E+00 0.  1.
         21   -1    0    0  501  503 -0.00000000000E+00 -0.00000000000E+00 -0.46134467334E+03  0.46134467334E+03  0.00000000000E+00 0. -1.
    9000007    1    1    2  501    0 -0.98247931657E+01  0.14329837316E+03 -0.21537367312E+03  0.47646276810E+03  0.40000000000E+03 0. -1.
   -9000007    1    1    2    0  502  0.98247931657E+01 -0.14329837316E+03  0.27579875181E+03  0.50665165727E+03  0.40000000000E+03 0.  1.
<mgrwt>
<rscale>  2 0.42500700E+03</rscale>
<asrwt>0</asrwt>
<pdfrwt beam="1">  1       21 0.80272269E-01 0.42500700E+03</pdfrwt>
<pdfrwt beam="2">  1       21 0.70976104E-01 0.42500700E+03</pdfrwt>
<totfact> 0.21407803E+03</totfact>
</mgrwt>
</event>
<event>
 4    1  0.4703494E-002  0.4764190E+03  0.7818608E-02  0.1020124E+00
         21   -1    0    0  501  502  0.00000000000E+00  0.00000000000E+00  0.22967901349E+04  0.22967901349E+04  0.00000000000E+00 0.  1.
         21   -1    0    0  502  503 -0.00000000000E+00 -0.00000000000E+00 -0.18621551973E+03  0.18621551973E+03  0.00000000000E+00 0. -1.
    9000007    1    1    2  501    0 -0.11679267871E+03  0.23094279089E+03  0.19057936254E+04  0.19644399825E+04  0.40000000000E+03 0.  1.
   -9000007    1    1    2    0  503  0.11679267871E+03 -0.23094279089E+03  0.20478098976E+03  0.51856567205E+03  0.40000000000E+03 0. -1.
<mgrwt>
<rscale>  2 0.47641904E+03</rscale>
<asrwt>0</asrwt>
<pdfrwt beam="1">  1       21 0.35335231E+00 0.47641904E+03</pdfrwt>
<pdfrwt beam="2">  1       21 0.28648543E-01 0.47641904E+03</pdfrwt>
<totfact> 0.14675219E+02</totfact>
</mgrwt>
</event>
<event>
 4    1  0.4703494E-002  0.5205731E+03  0.7818608E-02  0.1008544E+00
         21   -1    0    0  503  502  0.00000000000E+00  0.00000000000E+00  0.25652580860E+03  0.25652580860E+03  0.00000000000E+00 0. -1.
         21   -1    0    0  501  503 -0.00000000000E+00 -0.00000000000E+00 -0.10660118466E+04  0.10660118466E+04  0.00000000000E+00 0. -1.
    9000007    1    1    2  501    0 -0.89077724987E+02 -0.32103199846E+03 -0.34198368509E+03  0.62285570238E+03  0.40000000000E+03 0. -1.
   -9000007    1    1    2    0  502  0.89077724987E+02  0.32103199846E+03 -0.46750235289E+03  0.69968195280E+03  0.40000000000E+03 0. -1.
<mgrwt>
<rscale>  2 0.52057313E+03</rscale>
<asrwt>0</asrwt>
<pdfrwt beam="1">  1       21 0.39465509E-01 0.52057313E+03</pdfrwt>
<pdfrwt beam="2">  1       21 0.16400182E+00 0.52057313E+03</pdfrwt>
<totfact> 0.11982118E+03</totfact>
</mgrwt>
</event>
<event>
 4    1  0.4703494E-002  0.5216165E+03  0.7818608E-02  0.1008286E+00
         21   -1    0    0  501  502  0.00000000000E+00  0.00000000000E+00  0.19401239442E+04  0.19401239442E+04  0.00000000000E+00 0.  1.
         21   -1    0    0  502  503 -0.00000000000E+00 -0.00000000000E+00 -0.15111332535E+03  0.15111332535E+03  0.00000000000E+00 0.  1.
    9000007    1    1    2  501    0 -0.23074468883E+03  0.24257102103E+03  0.11749805853E+04  0.12855594842E+04  0.40000000000E+03 0.  1.
   -9000007    1    1    2    0  503  0.23074468883E+03 -0.24257102103E+03  0.61403003358E+03  0.80567778535E+03  0.40000000000E+03 0.  1.
<mgrwt>
<rscale>  2 0.52161654E+03</rscale>
<asrwt>0</asrwt>
<pdfrwt beam="1">  1       21 0.29848059E+00 0.52161654E+03</pdfrwt>
<pdfrwt beam="2">  1       21 0.23248205E-01 0.52161654E+03</pdfrwt>
<totfact> 0.46493427E+02</totfact>
</mgrwt>
</event>
<event>
 4    1  0.4703494E-002  0.4367678E+03  0.7818608E-02  0.1031743E+00
         21   -1    0    0  503  502  0.00000000000E+00  0.00000000000E+00  0.19222205914E+03  0.19222205914E+03  0.00000000000E+00 0. -1.
         21   -1    0    0  501  503 -0.00000000000E+00 -0.00000000000E+00 -0.10586255107E+04  0.10586255107E+04  0.00000000000E+00 0. -1.
    9000007    1    1    2  501    0  0.16780476800E+03 -0.51065040223E+02 -0.58960007130E+03  0.73375358437E+03  0.40000000000E+03 0. -1.
   -9000007    1    1    2    0  502 -0.16780476800E+03  0.51065040223E+02 -0.27680338026E+03  0.51709398548E+03  0.40000000000E+03 0. -1.
<mgrwt>
<rscale>  2 0.43676776E+03</rscale>
<asrwt>0</asrwt>
<pdfrwt beam="1">  1       21 0.29572624E-01 0.43676776E+03</pdfrwt>
<pdfrwt beam="2">  1       21 0.16286546E+00 0.43676776E+03</pdfrwt>
<totfact> 0.22614508E+03</totfact>
</mgrwt>
</event>
<event>
 4    1  0.4703494E-002  0.4219253E+03  0.7818608E-02  0.1036442E+00
         21   -1    0    0  503  502  0.00000000000E+00  0.00000000000E+00  0.41680753620E+03  0.41680753620E+03  0.00000000000E+00 0. -1.
         21   -1    0    0  501  503 -0.00000000000E+00 -0.00000000000E+00 -0.47028775367E+03  0.47028775367E+03  0.00000000000E+00 0. -1.
    9000007    1    1    2  501    0 -0.45246900632E+02 -0.12638706013E+03  0.10766287968E+03  0.43544490656E+03  0.40000000000E+03 0. -1.
   -9000007    1    1    2    0  502  0.45246900632E+02  0.12638706013E+03 -0.16114309714E+03  0.45165038331E+03  0.40000000000E+03 0. -1.
<mgrwt>
<rscale>  2 0.42192531E+03</rscale>
<asrwt>0</asrwt>
<pdfrwt beam="1">  1       21 0.64124236E-01 0.42192531E+03</pdfrwt>
<pdfrwt beam="2">  1       21 0.72351963E-01 0.42192531E+03</pdfrwt>
<totfact> 0.34093239E+03</totfact>
</mgrwt>
</event>
<event>
 4    1  0.4703494E-002  0.5710607E+03  0.7818608E-02  0.9967334E-01
         21   -1    0    0  501  502  0.00000000000E+00  0.00000000000E+00  0.90461665782E+03  0.90461665782E+03  0.00000000000E+00 0. -1.
         21   -1    0    0  502  503 -0.00000000000E+00 -0.00000000000E+00 -0.52072606469E+03  0.52072606469E+03  0.00000000000E+00 0.  1.
    9000007    1    1    2  501    0  0.31843071126E+03  0.25438595527E+03  0.58727294025E+03  0.81914579805E+03  0.40000000000E+03 0. -1.
   -9000007    1    1    2    0  503 -0.31843071126E+03 -0.25438595527E+03 -0.20338234712E+03  0.60619692447E+03  0.40000000000E+03 0.  1.
<mgrwt>
<rscale>  2 0.57106071E+03</rscale>
<asrwt>0</asrwt>
<pdfrwt beam="1">  1       21 0.13917179E+00 0.57106071E+03</pdfrwt>
<pdfrwt beam="2">  1       21 0.80111703E-01 0.57106071E+03</pdfrwt>
<totfact> 0.39382727E+02</totfact>
</mgrwt>
</event>
<event>
 4    1  0.4703494E-002  0.5322775E+03  0.7818608E-02  0.1005681E+00
         21   -1    0    0  501  502  0.00000000000E+00  0.00000000000E+00  0.25462415396E+03  0.25462415396E+03  0.00000000000E+00 0.  1.
         21   -1    0    0  502  503 -0.00000000000E+00 -0.00000000000E+00 -0.18170125954E+04  0.18170125954E+04  0.00000000000E+00 0. -1.
    9000007    1    1    2  501    0  0.25165799667E+03 -0.24492354348E+03 -0.13629984648E+03  0.54945148793E+03  0.40000000000E+03 0.  1.
   -9000007    1    1    2    0  503 -0.25165799667E+03  0.24492354348E+03 -0.14260885950E+04  0.15221852614E+04  0.40000000000E+03 0. -1.
<mgrwt>
<rscale>  2 0.53227746E+03</rscale>
<asrwt>0</asrwt>
<pdfrwt beam="1">  1       21 0.39172947E-01 0.53227746E+03</pdfrwt>
<pdfrwt beam="2">  1       21 0.27954040E+00 0.53227746E+03</pdfrwt>
<totfact> 0.21266216E+02</totfact>
</mgrwt>
</event>
<event>
 4    1  0.4703494E-002  0.4434544E+03  0.7818608E-02  0.1029692E+00
         21   -1    0    0  503  502  0.00000000000E+00  0.00000000000E+00  0.46490838072E+03  0.46490838072E+03  0.00000000000E+00 0.  1.
         21   -1    0    0  501  503 -0.00000000000E+00 -0.00000000000E+00 -0.49360159622E+03  0.49360159622E+03  0.00000000000E+00 0.  1.
    9000007    1    1    2  501    0 -0.17338059202E+03  0.81184623939E+02 -0.19561213090E+03  0.48468121338E+03  0.40000000000E+03 0.  1.
   -9000007    1    1    2    0  502  0.17338059202E+03 -0.81184623939E+02  0.16691891541E+03  0.47382876356E+03  0.40000000000E+03 0.  1.
<mgrwt>
<rscale>  2 0.44345436E+03</rscale>
<asrwt>0</asrwt>
<pdfrwt beam="1">  1       21 0.71524366E-01 0.44345436E+03</pdfrwt>
<pdfrwt beam="2">  1       21 0.75938707E-01 0.44345436E+03</pdfrwt>
<totfact> 0.23732271E+03</totfact>
</mgrwt>
</event>
<event>
 4    1  0.4703494E-002  0.6897566E+03  0.7818608E-02  0.9734912E-01
         21   -1    0    0  503  502  0.00000000000E+00  0.00000000000E+00  0.29147789585E+04  0.29147789585E+04  0.00000000000E+00 0. -1.
         21   -1    0    0  501  503 -0.00000000000E+00 -0.00000000000E+00 -0.16973991074E+03  0.16973991074E+03  0.00000000000E+00 0.  1.
    9000007    1    1    2  501    0 -0.44064453638E+03 -0.34870696280E+03  0.16746726060E+04  0.18111577763E+04  0.40000000000E+03 0.  1.
   -9000007    1    1    2    0  502  0.44064453638E+03  0.34870696280E+03  0.10703664417E+04  0.12733610929E+04  0.40000000000E+03 0.  1.
<mgrwt>
<rscale>  2 0.68975659E+03</rscale>
<asrwt>0</asrwt>
<pdfrwt beam="1">  1       21 0.44842749E+00 0.68975659E+03</pdfrwt>
<pdfrwt beam="2">  1       21 0.26113835E-01 0.68975659E+03</pdfrwt>
<totfact> 0.38063448E+01</totfact>
</mgrwt>
</event>
<event>
 4    1  0.4703494E-002  0.4295158E+03  0.7818608E-02  0.1034013E+00
         21   -1    0    0  503  502  0.00000000000E+00  0.00000000000E+00  0.58809864000E+03  0.58809864000E+03  0.00000000000E+00 0.  1.
         21   -1    0    0  501  503 -0.00000000000E+00 -0.00000000000E+00 -0.45559462508E+03  0.45559462508E+03  0.00000000000E+00 0.  1.
    9000007    1    1    2  501    0 -0.14524621241E+03 -0.58200868587E+02 -0.22498307667E+03  0.48487234208E+03  0.40000000000E+03 0.  1.
   -9000007    1    1    2    0  502  0.14524621241E+03  0.58200868587E+02  0.35748709159E+03  0.55882092300E+03  0.40000000000E+03 0.  1.
<mgrwt>
<rscale>  2 0.42951578E+03</rscale>
<asrwt>0</asrwt>
<pdfrwt beam="1">  1       21 0.90476714E-01 0.42951578E+03</pdfrwt>
<pdfrwt beam="2">  1       21 0.70091480E-01 0.42951578E+03</pdfrwt>
<totfact> 0.16616648E+03</totfact>
</mgrwt>
</event>
<event>
 4    1  0.4703494E-002  0.4363005E+03  0.7818608E-02  0.1031888E+00
         21   -1    0    0  503  502  0.00000000000E+00  0.00000000000E+00  0.26504590797E+03  0.26504590797E+03  0.00000000000E+00 0.  1.
         21   -1    0    0  501  503 -0.00000000000E+00 -0.00000000000E+00 -0.96737585803E+03  0.96737585803E+03  0.00000000000E+00 0.  1.
    9000007    1    1    2  501    0  0.43496058493E+02 -0.16871944877E+03 -0.66390072328E+03  0.79443208008E+03  0.40000000000E+03 0.  1.
   -9000007    1    1    2    0  502 -0.43496058493E+02  0.16871944877E+03 -0.38429226781E+02  0.43798968592E+03  0.40000000000E+03 0.  1.
<mgrwt>
<rscale>  2 0.43630054E+03</rscale>
<asrwt>0</asrwt>
<pdfrwt beam="1">  1       21 0.40776294E-01 0.43630054E+03</pdfrwt>
<pdfrwt beam="2">  1       21 0.14882705E+00 0.43630054E+03</pdfrwt>
<totfact> 0.15142452E+03</totfact>
</mgrwt>
</event>
<event>
 4    1  0.4703494E-002  0.4783737E+03  0.7818608E-02  0.1019583E+00
         21   -1    0    0  501  502  0.00000000000E+00  0.00000000000E+00  0.51737952980E+03  0.51737952980E+03  0.00000000000E+00 0.  1.
         21   -1    0    0  502  503 -0.00000000000E+00 -0.00000000000E+00 -0.49541545376E+03  0.49541545376E+03  0.00000000000E+00 0.  1.
    9000007    1    1    2  501    0  0.16919794940E+03 -0.20053294750E+03  0.17678111484E+03  0.50999310944E+03  0.40000000000E+03 0.  1.
   -9000007    1    1    2    0  503 -0.16919794940E+03  0.20053294750E+03 -0.15481703880E+03  0.50280187412E+03  0.40000000000E+03 0.  1.
<mgrwt>
<rscale>  2 0.47837371E+03</rscale>
<asrwt>0</asrwt>
<pdfrwt beam="1">  1       21 0.79596850E-01 0.47837371E+03</pdfrwt>
<pdfrwt beam="2">  1       21 0.76217762E-01 0.47837371E+03</pdfrwt>
<totfact> 0.18198299E+03</totfact>
</mgrwt>
</event>
<event>
 4    1  0.4703494E-002  0.4174685E+03  0.7818608E-02  0.1037893E+00
         21   -1    0    0  503  502  0.00000000000E+00  0.00000000000E+00  0.38606636314E+03  0.38606636314E+03  0.00000000000E+00 0. -1.
         21   -1    0    0  501  503 -0.00000000000E+00 -0.00000000000E+00 -0.60886160738E+03  0.60886160738E+03  0.00000000000E+00 0. -1.
    9000007    1    1    2  501    0  0.40121784561E+02  0.11256194911E+03 -0.36435969900E+03  0.55411004344E+03  0.40000000000E+03 0. -1.
   -9000007    1    1    2    0  502 -0.40121784561E+02 -0.11256194911E+03  0.14156445476E+03  0.44081792708E+03  0.40000000000E+03 0. -1.
<mgrwt>
<rscale>  2 0.41746850E+03</rscale>
<asrwt>0</asrwt>
<pdfrwt beam="1">  1       21 0.59394825E-01 0.41746850E+03</pdfrwt>
<pdfrwt beam="2">  1       21 0.93671017E-01 0.41746850E+03</pdfrwt>
<totfact> 0.22194179E+03</totfact>
</mgrwt>
</event>
<event>
 4    1  0.4703494E-002  0.4063760E+03  0.7818608E-02  0.1041594E+00
         21   -1    0    0  501  502  0.00000000000E+00  0.00000000000E+00  0.60937647681E+03  0.60937647681E+03  0.00000000000E+00 0.  1.
         21   -1    0    0  502  503 -0.00000000000E+00 -0.00000000000E+00 -0.65131426920E+03  0.65131426920E+03  0.00000000000E+00 0.  1.
    9000007    1    1    2  501    0  0.30503531832E+02  0.64891856632E+02  0.46070622399E+03  0.61432210064E+03  0.40000000000E+03 0.  1.
   -9000007    1    1    2    0  503 -0.30503531832E+02 -0.64891856632E+02 -0.50264401638E+03  0.64636864537E+03  0.40000000000E+03 0.  1.
<mgrwt>
<rscale>  2 0.40637596E+03</rscale>
<asrwt>0</asrwt>
<pdfrwt beam="1">  1       21 0.93750227E-01 0.40637596E+03</pdfrwt>
<pdfrwt beam="2">  1       21 0.10020220E+00 0.40637596E+03</pdfrwt>
<totfact> 0.67075110E+02</totfact>
</mgrwt>
</event>
<event>
 4    1  0.4703494E-002  0.4699747E+03  0.7818608E-02  0.1021927E+00
         21   -1    0    0  503  502  0.00000000000E+00  0.00000000000E+00  0.14096389800E+04  0.14096389800E+04  0.00000000000E+00 0. -1.
         21   -1    0    0  501  503 -0.00000000000E+00 -0.00000000000E+00 -0.35056845909E+03  0.35056845909E+03  0.00000000000E+00 0.  1.
    9000007    1    1    2  501    0  0.74366820144E+02 -0.23525684085E+03 -0.12496875737E+03  0.48630586612E+03  0.40000000000E+03 0.  1.
   -9000007    1    1    2    0  502 -0.74366820144E+02  0.23525684085E+03  0.11840392783E+04  0.12739015730E+04  0.40000000000E+03 0. -1.
<mgrwt>
<rscale>  2 0.46997469E+03</rscale>
<asrwt>0</asrwt>
<pdfrwt beam="1">  1       21 0.21686753E+00 0.46997469E+03</pdfrwt>
<pdfrwt beam="2">  1       21 0.53933610E-01 0.46997469E+03</pdfrwt>
<totfact> 0.27399021E+02</totfact>
</mgrwt>
</event>
<event>
 4    1  0.4703494E-002  0.4003328E+03  0.7818608E-02  0.1043664E+00
         21   -1    0    0  503  502  0.00000000000E+00  0.00000000000E+00  0.25945345441E+03  0.25945345441E+03  0.00000000000E+00 0. -1.
         21   -1    0    0  501  503 -0.00000000000E+00 -0.00000000000E+00 -0.70840999767E+03  0.70840999767E+03  0.00000000000E+00 0. -1.
    9000007    1    1    2  501    0  0.11161191271E+02  0.11907859329E+02 -0.39763969624E+03  0.56425499318E+03  0.40000000000E+03 0. -1.
   -9000007    1    1    2    0  502 -0.11161191271E+02 -0.11907859329E+02 -0.51316847027E+02  0.40360845890E+03  0.40000000000E+03 0. -1.
<mgrwt>
<rscale>  2 0.40033282E+03</rscale>
<asrwt>0</asrwt>
<pdfrwt beam="1">  1       21 0.39915916E-01 0.40033282E+03</pdfrwt>
<pdfrwt beam="2">  1       21 0.10898615E+00 0.40033282E+03</pdfrwt>
<totfact> 0.35863889E+03</totfact>
</mgrwt>
</event>
<event>
 4    1  0.4703494E-002  0.5805130E+03  0.7818608E-02  0.9946681E-01
         21   -1    0    0  503  502  0.00000000000E+00  0.00000000000E+00  0.32413679624E+03  0.32413679624E+03  0.00000000000E+00 0. -1.
         21   -1    0    0  501  503 -0.00000000000E+00 -0.00000000000E+00 -0.10403643749E+04  0.10403643749E+04  0.00000000000E+00 0.  1.
    9000007    1    1    2  501    0  0.28372957558E+03  0.31063307822E+03 -0.34049108514E+03  0.67300041634E+03  0.40000000000E+03 0.  1.
   -9000007    1    1    2    0  502 -0.28372957558E+03 -0.31063307822E+03 -0.37573649356E+03  0.69150075483E+03  0.40000000000E+03 0. -1.
<mgrwt>
<rscale>  2 0.58051303E+03</rscale>
<asrwt>0</asrwt>
<pdfrwt beam="1">  1       21 0.49867199E-01 0.58051303E+03</pdfrwt>
<pdfrwt beam="2">  1       21 0.16005606E+00 0.58051303E+03</pdfrwt>
<totfact> 0.76881927E+02</totfact>
</mgrwt>
</event>
<event>
 4    1  0.4703494E-002  0.4996946E+03  0.7818608E-02  0.1013859E+00
         21   -1    0    0  503  502  0.00000000000E+00  0.00000000000E+00  0.11228509362E+04  0.11228509362E+04  0.00000000000E+00 0. -1.
         21   -1    0    0  501  503 -0.00000000000E+00 -0.00000000000E+00 -0.38500505787E+03  0.38500505787E+03  0.00000000000E+00 0. -1.
    9000007    1    1    2  501    0 -0.25777129936E+03 -0.15247499888E+03 -0.12107724140E+03  0.51415402988E+03  0.40000000000E+03 0. -1.
   -9000007    1    1    2    0  502  0.25777129936E+03  0.15247499888E+03  0.85892311976E+03  0.99370196423E+03  0.40000000000E+03 0. -1.
<mgrwt>
<rscale>  2 0.49969457E+03</rscale>
<asrwt>0</asrwt>
<pdfrwt beam="1">  1       21 0.17274630E+00 0.49969457E+03</pdfrwt>
<pdfrwt beam="2">  1       21 0.59231548E-01 0.49969457E+03</pdfrwt>
<totfact> 0.43980258E+02</totfact>
</mgrwt>
</event>
<event>
 4    1  0.4703494E-002  0.6115428E+03  0.7818608E-02  0.9881744E-01
         21   -1    0    0  501  502  0.00000000000E+00  0.00000000000E+00  0.21712409041E+04  0.21712409041E+04  0.00000000000E+00 0.  1.
         21   -1    0    0  502  503 -0.00000000000E+00 -0.00000000000E+00 -0.18837869782E+03  0.18837869782E+03  0.00000000000E+00 0.  1.
    9000007    1    1    2  501    0  0.26599585248E+03 -0.37845851906E+03  0.64615407590E+03  0.88966270799E+03  0.40000000000E+03 0.  1.
   -9000007    1    1    2    0  503 -0.26599585248E+03  0.37845851906E+03  0.13367081304E+04  0.14699568939E+04  0.40000000000E+03 0.  1.
<mgrwt>
<rscale>  2 0.61154284E+03</rscale>
<asrwt>0</asrwt>
<pdfrwt beam="1">  1       21 0.33403704E+00 0.61154284E+03</pdfrwt>
<pdfrwt beam="2">  1       21 0.28981340E-01 0.61154284E+03</pdfrwt>
<totfact> 0.17552534E+02</totfact>
</mgrwt>
</event>
<event>
 4    1  0.4703494E-002  0.4379501E+03  0.7818608E-02  0.1031378E+00
         21   -1    0    0  503  502  0.00000000000E+00  0.00000000000E+00  0.81691985911E+03  0.81691985911E+03  0.00000000000E+00 0. -1.
         21   -1    0    0  501  503 -0.00000000000E+00 -0.00000000000E+00 -0.23646549319E+03  0.23646549319E+03  0.00000000000E+00 0. -1.
    9000007    1    1    2  501    0 -0.11933502083E+03 -0.13251197367E+03  0.24582209902E+03  0.50222382931E+03  0.40000000000E+03 0. -1.
   -9000007    1    1    2    0  502  0.11933502083E+03  0.13251197367E+03  0.33463226690E+03  0.55116152298E+03  0.40000000000E+03 0. -1.
<mgrwt>
<rscale>  2 0.43795008E+03</rscale>
<asrwt>0</asrwt>
<pdfrwt beam="1">  1       21 0.12567998E+00 0.43795008E+03</pdfrwt>
<pdfrwt beam="2">  1       21 0.36379307E-01 0.43795008E+03</pdfrwt>
<totfact> 0.29846914E+03</totfact>
</mgrwt>
</event>
<event>
 4    1  0.4703494E-002  0.5563782E+03  0.7818608E-02  0.1000028E+00
         21   -1    0    0  501  502  0.00000000000E+00  0.00000000000E+00  0.18896140870E+03  0.18896140870E+03  0.00000000000E+00 0.  1.
         21   -1    0    0  502  503 -0.00000000000E+00 -0.00000000000E+00 -0.26118063219E+04  0.26118063219E+04  0.00000000000E+00 0.  1.
    9000007    1    1    2  501    0  0.22376607389E+03  0.31541304931E+03 -0.35641829893E+03  0.66075006721E+03  0.40000000000E+03 0.  1.
   -9000007    1    1    2    0  503 -0.22376607389E+03 -0.31541304931E+03 -0.20664266142E+04  0.21400176634E+04  0.40000000000E+03 0.  1.
<mgrwt>
<rscale>  2 0.55637815E+03</rscale>
<asrwt>0</asrwt>
<pdfrwt beam="1">  1       21 0.29070990E-01 0.55637815E+03</pdfrwt>
<pdfrwt beam="2">  1       21 0.40181630E+00 0.55637815E+03</pdfrwt>
<totfact> 0.67225725E+01</totfact>
</mgrwt>
</event>
<event>
 4    1  0.4703494E-002  0.8421552E+03  0.7818608E-02  0.9500927E-01
         21   -1    0    0  501  502  0.00000000000E+00  0.00000000000E+00  0.82392276060E+03  0.82392276060E+03  0.00000000000E+00 0.  1.
         21   -1    0    0  502  503 -0.00000000000E+00 -0.00000000000E+00 -0.15204487987E+04  0.15204487987E+04  0.00000000000E+00 0. -1.
    9000007    1    1    2  501    0 -0.63152705771E+03 -0.38781296479E+03  0.42383046948E+03  0.94279244118E+03  0.40000000000E+03 0.  1.
   -9000007    1    1    2    0  503  0.63152705771E+03  0.38781296479E+03 -0.11203565076E+04  0.14015791181E+04  0.40000000000E+03 0. -1.
<mgrwt>
<rscale>  2 0.84215516E+03</rscale>
<asrwt>0</asrwt>
<pdfrwt beam="1">  1       21 0.12675735E+00 0.84215516E+03</pdfrwt>
<pdfrwt beam="2">  1       21 0.23391520E+00 0.84215516E+03</pdfrwt>
<totfact> 0.24337477E+01</totfact>
</mgrwt>
</event>
<event>
 4    1  0.4703494E-002  0.5563817E+03  0.7818608E-02  0.1000028E+00
         21   -1    0    0  501  502  0.00000000000E+00  0.00000000000E+00  0.22953790951E+03  0.22953790951E+03  0.00000000000E+00 0. -1.
         21   -1    0    0  502  503 -0.00000000000E+00 -0.00000000000E+00 -0.13499264716E+04  0.13499264716E+04  0.00000000000E+00 0. -1.
    9000007    1    1    2  501    0 -0.38544120278E+03 -0.31554012444E+02 -0.58471495969E+03  0.80712586415E+03  0.40000000000E+03 0. -1.
   -9000007    1    1    2    0  503  0.38544120278E+03  0.31554012444E+02 -0.53567360245E+03  0.77233851701E+03  0.40000000000E+03 0. -1.
<mgrwt>
<rscale>  2 0.55638168E+03</rscale>
<asrwt>0</asrwt>
<pdfrwt beam="1">  1       21 0.35313525E-01 0.55638168E+03</pdfrwt>
<pdfrwt beam="2">  1       21 0.20768099E+00 0.55638168E+03</pdfrwt>
<totfact> 0.73455520E+02</totfact>
</mgrwt>
</event>
<event>
 4    1  0.4703494E-002  0.4722360E+03  0.7818608E-02  0.1021291E+00
         21   -1    0    0  503  502  0.00000000000E+00  0.00000000000E+00  0.34183057657E+03  0.34183057657E+03  0.00000000000E+00 0.  1.
         21   -1    0    0  501  503 -0.00000000000E+00 -0.00000000000E+00 -0.87764903247E+03  0.87764903247E+03  0.00000000000E+00 0.  1.
    9000007    1    1    2  501    0 -0.68901798039E+02  0.24136972749E+03 -0.57681451889E+03  0.74546749917E+03  0.40000000000E+03 0.  1.
   -9000007    1    1    2    0  502  0.68901798039E+02 -0.24136972749E+03  0.40996062999E+02  0.47401210987E+03  0.40000000000E+03 0.  1.
<mgrwt>
<rscale>  2 0.47223596E+03</rscale>
<asrwt>0</asrwt>
<pdfrwt beam="1">  1       21 0.52589320E-01 0.47223596E+03</pdfrwt>
<pdfrwt beam="2">  1       21 0.13502293E+00 0.47223596E+03</pdfrwt>
<totfact> 0.11328646E+03</totfact>
</mgrwt>
</event>
<event>
 4    1  0.4703494E-002  0.4050705E+03  0.7818608E-02  0.1042038E+00
         21   -1    0    0  503  502  0.00000000000E+00  0.00000000000E+00  0.10382793386E+04  0.10382793386E+04  0.00000000000E+00 0.  1.
         21   -1    0    0  501  503 -0.00000000000E+00 -0.00000000000E+00 -0.21307683500E+03  0.21307683500E+03  0.00000000000E+00 0.  1.
    9000007    1    1    2  501    0  0.41287661228E+02  0.48758726498E+02  0.94593019478E+02  0.41596865713E+03  0.40000000000E+03 0.  1.
   -9000007    1    1    2    0  502 -0.41287661228E+02 -0.48758726498E+02  0.73060948411E+03  0.83538751645E+03  0.40000000000E+03 0.  1.
<mgrwt>
<rscale>  2 0.40507047E+03</rscale>
<asrwt>0</asrwt>
<pdfrwt beam="1">  1       21 0.15973528E+00 0.40507047E+03</pdfrwt>
<pdfrwt beam="2">  1       21 0.32781052E-01 0.40507047E+03</pdfrwt>
<totfact> 0.19707238E+03</totfact>
</mgrwt>
</event>
<event>
 4    1  0.4703494E-002  0.4718238E+03  0.7818608E-02  0.1021407E+00
         21   -1    0    0  503  502  0.00000000000E+00  0.00000000000E+00  0.37264752467E+03  0.37264752467E+03  0.00000000000E+00 0. -1.
         21   -1    0    0  501  503 -0.00000000000E+00 -0.00000000000E+00 -0.62715758585E+03  0.62715758585E+03  0.00000000000E+00 0. -1.
    9000007    1    1    2  501    0 -0.23066137131E+03 -0.97020696483E+02 -0.18353496753E+02  0.47218061651E+03  0.40000000000E+03 0. -1.
   -9000007    1    1    2    0  502  0.23066137131E+03  0.97020696483E+02 -0.23615656442E+03  0.52762449401E+03  0.40000000000E+03 0. -1.
<mgrwt>
<rscale>  2 0.47182378E+03</rscale>
<asrwt>0</asrwt>
<pdfrwt beam="1">  1       21 0.57330388E-01 0.47182378E+03</pdfrwt>
<pdfrwt beam="2">  1       21 0.96485783E-01 0.47182378E+03</pdfrwt>
<totfact> 0.21879843E+03</totfact>
</mgrwt>
</event>
<event>
 4    1  0.4703494E-002  0.5306448E+03  0.7818608E-02  0.1006076E+00
         21   -1    0    0  501  502  0.00000000000E+00  0.00000000000E+00  0.41471369985E+03  0.41471369985E+03  0.00000000000E+00 0.  1.
         21   -1    0    0  502  503 -0.00000000000E+00 -0.00000000000E+00 -0.68417298143E+03  0.68417298143E+03  0.00000000000E+00 0.  1.
    9000007    1    1    2  501    0 -0.18553202196E+02  0.34819496119E+03 -0.86879582369E+02  0.53770997214E+03  0.40000000000E+03 0.  1.
   -9000007    1    1    2    0  503  0.18553202196E+02 -0.34819496119E+03 -0.18257969921E+03  0.56117670913E+03  0.40000000000E+03 0.  1.
<mgrwt>
<rscale>  2 0.53064485E+03</rscale>
<asrwt>0</asrwt>
<pdfrwt beam="1">  1       21 0.63802109E-01 0.53064485E+03</pdfrwt>
<pdfrwt beam="2">  1       21 0.10525738E+00 0.53064485E+03</pdfrwt>
<totfact> 0.13702288E+03</totfact>
</mgrwt>
</event>
<event>
 4    1  0.4703494E-002  0.4178692E+03  0.7818608E-02  0.1037762E+00
         21   -1    0    0  501  502  0.00000000000E+00  0.00000000000E+00  0.48907477234E+03  0.48907477234E+03  0.00000000000E+00 0. -1.
         21   -1    0    0  502  503 -0.00000000000E+00 -0.00000000000E+00 -0.38405777179E+03  0.38405777179E+03  0.00000000000E+00 0. -1.
    9000007    1    1    2  501    0 -0.12086186722E+03  0.26590522074E+01  0.16832012862E+03  0.45049564616E+03  0.40000000000E+03 0. -1.
   -9000007    1    1    2    0  503  0.12086186722E+03 -0.26590522074E+01 -0.63303128073E+02  0.42263689798E+03  0.40000000000E+03 0. -1.
<mgrwt>
<rscale>  2 0.41786919E+03</rscale>
<asrwt>0</asrwt>
<pdfrwt beam="1">  1       21 0.75242273E-01 0.41786919E+03</pdfrwt>
<pdfrwt beam="2">  1       21 0.59085811E-01 0.41786919E+03</pdfrwt>
<totfact> 0.37394581E+03</totfact>
</mgrwt>
</event>
<event>
 4    1  0.4703494E-002  0.5580332E+03  0.7818608E-02  0.9996515E-01
         21   -1    0    0  503  502  0.00000000000E+00  0.00000000000E+00  0.69513300121E+03  0.69513300121E+03  0.00000000000E+00 0.  1.
         21   -1    0    0  501  503 -0.00000000000E+00 -0.00000000000E+00 -0.59857644832E+03  0.59857644832E+03  0.00000000000E+00 0. -1.
    9000007    1    1    2  501    0 -0.27221889885E+02 -0.38814946941E+03 -0.27618379124E+03  0.62263836087E+03  0.40000000000E+03 0. -1.
   -9000007    1    1    2    0  502  0.27221889885E+02  0.38814946941E+03  0.37274034413E+03  0.67107108866E+03  0.40000000000E+03 0.  1.
<mgrwt>
<rscale>  2 0.55803319E+03</rscale>
<asrwt>0</asrwt>
<pdfrwt beam="1">  1       21 0.10694354E+00 0.55803319E+03</pdfrwt>
<pdfrwt beam="2">  1       21 0.92088684E-01 0.55803319E+03</pdfrwt>
<totfact> 0.56039018E+02</totfact>
</mgrwt>
</event>
<event>
 4    1  0.4703494E-002  0.4101622E+03  0.7818608E-02  0.1040317E+00
         21   -1    0    0  503  502  0.00000000000E+00  0.00000000000E+00  0.34514811644E+04  0.34514811644E+04  0.00000000000E+00 0. -1.
         21   -1    0    0  501  503 -0.00000000000E+00 -0.00000000000E+00 -0.76575943361E+02  0.76575943361E+02  0.00000000000E+00 0. -1.
    9000007    1    1    2  501    0 -0.90718160630E+02  0.18085093800E+01  0.62393513286E+03  0.74667804667E+03  0.40000000000E+03 0. -1.
   -9000007    1    1    2    0  502  0.90718160630E+02 -0.18085093800E+01  0.27509700882E+04  0.27813790611E+04  0.40000000000E+03 0. -1.
<mgrwt>
<rscale>  2 0.41016223E+03</rscale>
<asrwt>0</asrwt>
<pdfrwt beam="1">  1       21 0.53099698E+00 0.41016223E+03</pdfrwt>
<pdfrwt beam="2">  1       21 0.11780917E-01 0.41016223E+03</pdfrwt>
<totfact> 0.52761289E+01</totfact>
</mgrwt>
</event>
<event>
 4    1  0.4703494E-002  0.4011470E+03  0.7818608E-02  0.1043383E+00
         21   -1    0    0  501  502  0.00000000000E+00  0.00000000000E+00  0.68128295743E+03  0.68128295743E+03  0.00000000000E+00 0.  1.
         21   -1    0    0  502  503 -0.00000000000E+00 -0.00000000000E+00 -0.34879446577E+03  0.34879446577E+03  0.00000000000E+00 0. -1.
    9000007    1    1    2  501    0 -0.18579951311E+02  0.23952299361E+02  0.45887091656E+03  0.60949277707E+03  0.40000000000E+03 0.  1.
   -9000007    1    1    2    0  503  0.18579951311E+02 -0.23952299361E+02 -0.12638242490E+03  0.42058464613E+03  0.40000000000E+03 0. -1.
<mgrwt>
<rscale>  2 0.40114701E+03</rscale>
<asrwt>0</asrwt>
<pdfrwt beam="1">  1       21 0.10481276E+00 0.40114701E+03</pdfrwt>
<pdfrwt beam="2">  1       21 0.53660687E-01 0.40114701E+03</pdfrwt>
<totfact> 0.21210674E+03</totfact>
</mgrwt>
</event>
<event>
 4    1  0.4703494E-002  0.4770638E+03  0.7818608E-02  0.1019945E+00
         21   -1    0    0  501  502  0.00000000000E+00  0.00000000000E+00  0.38565310608E+03  0.38565310608E+03  0.00000000000E+00 0. -1.
         21   -1    0    0  502  503 -0.00000000000E+00 -0.00000000000E+00 -0.63772219285E+03  0.63772219285E+03  0.00000000000E+00 0.  1.
    9000007    1    1    2  501    0  0.25962923924E+03  0.13511326672E+02 -0.26580153118E+03  0.54611386339E+03  0.40000000000E+03 0.  1.
   -9000007    1    1    2    0  503 -0.25962923924E+03 -0.13511326672E+02  0.13732444407E+02  0.47726143553E+03  0.40000000000E+03 0. -1.
<mgrwt>
<rscale>  2 0.47706383E+03</rscale>
<asrwt>0</asrwt>
<pdfrwt beam="1">  1       21 0.59331247E-01 0.47706383E+03</pdfrwt>
<pdfrwt beam="2">  1       21 0.98111107E-01 0.47706383E+03</pdfrwt>
<totfact> 0.19461796E+03</totfact>
</mgrwt>
</event>
<event>
 4    1  0.4703494E-002  0.4187491E+03  0.7818608E-02  0.1037474E+00
         21   -1    0    0  503  502  0.00000000000E+00  0.00000000000E+00  0.15338992919E+04  0.15338992919E+04  0.00000000000E+00 0. -1.
         21   -1    0    0  501  503 -0.00000000000E+00 -0.00000000000E+00 -0.11704463664E+03  0.11704463664E+03  0.00000000000E+00 0. -1.
    9000007    1    1    2  501    0  0.66039170153E+02  0.10483131261E+03  0.58241319062E+03  0.71732551935E+03  0.40000000000E+03 0. -1.
   -9000007    1    1    2    0  502 -0.66039170153E+02 -0.10483131261E+03  0.83444146467E+03  0.93361840923E+03  0.40000000000E+03 0. -1.
<mgrwt>
<rscale>  2 0.41874906E+03</rscale>
<asrwt>0</asrwt>
<pdfrwt beam="1">  1       21 0.23598449E+00 0.41874906E+03</pdfrwt>
<pdfrwt beam="2">  1       21 0.18006868E-01 0.41874906E+03</pdfrwt>
<totfact> 0.19142640E+03</totfact>
</mgrwt>
</event>
<event>
 4    1  0.4703494E-002  0.4205294E+03  0.7818608E-02  0.1036894E+00
         21   -1    0    0  501  502  0.00000000000E+00  0.00000000000E+00  0.59065136652E+03  0.59065136652E+03  0.00000000000E+00 0.  1.
         21   -1    0    0  502  503 -0.00000000000E+00 -0.00000000000E+00 -0.35442939282E+03  0.35442939282E+03  0.00000000000E+00 0.  1.
    9000007    1    1    2  501    0 -0.12690012257E+03 -0.27227962913E+02  0.30429603589E+03  0.51907714314E+03  0.40000000000E+03 0.  1.
   -9000007    1    1    2    0  503  0.12690012257E+03  0.27227962913E+02 -0.68074062188E+02  0.42600361620E+03  0.40000000000E+03 0.  1.
<mgrwt>
<rscale>  2 0.42052943E+03</rscale>
<asrwt>0</asrwt>
<pdfrwt beam="1">  1       21 0.90869441E-01 0.42052943E+03</pdfrwt>
<pdfrwt beam="2">  1       21 0.54527599E-01 0.42052943E+03</pdfrwt>
<totfact> 0.28679749E+03</totfact>
</mgrwt>
</event>
<event>
 4    1  0.4703494E-002  0.4211424E+03  0.7818608E-02  0.1036695E+00
         21   -1    0    0  501  502  0.00000000000E+00  0.00000000000E+00  0.38415339350E+04  0.38415339350E+04  0.00000000000E+00 0. -1.
         21   -1    0    0  502  503 -0.00000000000E+00 -0.00000000000E+00 -0.57202622751E+02  0.57202622751E+02  0.00000000000E+00 0. -1.
    9000007    1    1    2  501    0 -0.11446860229E+03 -0.65252077329E+02  0.27482947990E+04  0.27803750101E+04  0.40000000000E+03 0. -1.
   -9000007    1    1    2    0  503  0.11446860229E+03  0.65252077329E+02  0.10360365132E+04  0.11183615476E+04  0.40000000000E+03 0. -1.
<mgrwt>
<rscale>  2 0.42114237E+03</rscale>
<asrwt>0</asrwt>
<pdfrwt beam="1">  1       21 0.59100502E+00 0.42114237E+03</pdfrwt>
<pdfrwt beam="2">  1       21 0.88004065E-02 0.42114237E+03</pdfrwt>
<totfact> 0.31080141E+01</totfact>
</mgrwt>
</event>
<event>
 4    1  0.4703494E-002  0.5506528E+03  0.7818608E-02  0.1001343E+00
         21   -1    0    0  503  502  0.00000000000E+00  0.00000000000E+00  0.95481665596E+03  0.95481665596E+03  0.00000000000E+00 0. -1.
         21   -1    0    0  501  503 -0.00000000000E+00 -0.00000000000E+00 -0.33871987151E+03  0.33871987151E+03  0.00000000000E+00 0. -1.
    9000007    1    1    2  501    0  0.34194566438E+03  0.16214707534E+03  0.46967406157E+03  0.72374873785E+03  0.40000000000E+03 0. -1.
   -9000007    1    1    2    0  502 -0.34194566438E+03 -0.16214707534E+03  0.14642272287E+03  0.56978778962E+03  0.40000000000E+03 0. -1.
<mgrwt>
<rscale>  2 0.55065280E+03</rscale>
<asrwt>0</asrwt>
<pdfrwt beam="1">  1       21 0.14689487E+00 0.55065280E+03</pdfrwt>
<pdfrwt beam="2">  1       21 0.52110750E-01 0.55065280E+03</pdfrwt>
<totfact> 0.89578464E+02</totfact>
</mgrwt>
</event>
<event>
 4    1  0.4703494E-002  0.4136274E+03  0.7818608E-02  0.1039161E+00
         21   -1    0    0  503  502  0.00000000000E+00  0.00000000000E+00  0.12405716156E+04  0.12405716156E+04  0.00000000000E+00 0.  1.
         21   -1    0    0  501  503 -0.00000000000E+00 -0.00000000000E+00 -0.42549050659E+03  0.42549050659E+03  0.00000000000E+00 0. -1.
    9000007    1    1    2  501    0  0.23945207647E+01  0.10527074734E+03 -0.27730985032E+03  0.49798435423E+03  0.40000000000E+03 0. -1.
   -9000007    1    1    2    0  502 -0.23945207647E+01 -0.10527074734E+03  0.10923909593E+04  0.11680777680E+04  0.40000000000E+03 0.  1.
<mgrwt>
<rscale>  2 0.41362745E+03</rscale>
<asrwt>0</asrwt>
<pdfrwt beam="1">  1       21 0.19085717E+00 0.41362745E+03</pdfrwt>
<pdfrwt beam="2">  1       21 0.65460078E-01 0.41362745E+03</pdfrwt>
<totfact> 0.27466690E+02</totfact>
</mgrwt>
</event>
<event>
 4    1  0.4703494E-002  0.4308046E+03  0.7818608E-02  0.1033606E+00
         21   -1    0    0  501  502  0.00000000000E+00  0.00000000000E+00  0.41119552047E+03  0.41119552047E+03  0.00000000000E+00 0.  1.
         21   -1    0    0  502  503 -0.00000000000E+00 -0.00000000000E+00 -0.45234907489E+03  0.45234907489E+03  0.00000000000E+00 0. -1.
    9000007    1    1    2  501    0 -0.15171796795E+03  0.50737296599E+02 -0.40880335144E+02  0.43273989516E+03  0.40000000000E+03 0.  1.
   -9000007    1    1    2    0  503  0.15171796795E+03 -0.50737296599E+02 -0.27321927090E+00  0.43080470020E+03  0.40000000000E+03 0. -1.
<mgrwt>
<rscale>  2 0.43080461E+03</rscale>
<asrwt>0</asrwt>
<pdfrwt beam="1">  1       21 0.63260849E-01 0.43080461E+03</pdfrwt>
<pdfrwt beam="2">  1       21 0.69592166E-01 0.43080461E+03</pdfrwt>
<totfact> 0.38227356E+03</totfact>
</mgrwt>
</event>
<event>
 4    1  0.4703494E-002  0.5444413E+03  0.7818608E-02  0.1002789E+00
         21   -1    0    0  501  502  0.00000000000E+00  0.00000000000E+00  0.27706551772E+03  0.27706551772E+03  0.00000000000E+00 0.  1.
         21   -1    0    0  502  503 -0.00000000000E+00 -0.00000000000E+00 -0.11328452817E+04  0.11328452817E+04  0.00000000000E+00 0. -1.
    9000007    1    1    2  501    0  0.29568908758E+03  0.22132388586E+03 -0.26164117230E+03  0.60404668860E+03  0.40000000000E+03 0.  1.
   -9000007    1    1    2    0  503 -0.29568908758E+03 -0.22132388586E+03 -0.59413859166E+03  0.80586411079E+03  0.40000000000E+03 0. -1.
<mgrwt>
<rscale>  2 0.54444127E+03</rscale>
<asrwt>0</asrwt>
<pdfrwt beam="1">  1       21 0.42625464E-01 0.54444127E+03</pdfrwt>
<pdfrwt beam="2">  1       21 0.17428389E+00 0.54444127E+03</pdfrwt>
<totfact> 0.85078056E+02</totfact>
</mgrwt>
</event>
<event>
 4    1  0.4703494E-002  0.5988811E+03  0.7818608E-02  0.9907730E-01
         21   -1    0    0  503  502  0.00000000000E+00  0.00000000000E+00  0.17131150581E+04  0.17131150581E+04  0.00000000000E+00 0.  1.
         21   -1    0    0  501  503 -0.00000000000E+00 -0.00000000000E+00 -0.26027476592E+03  0.26027476592E+03  0.00000000000E+00 0.  1.
    9000007    1    1    2  501    0  0.15761842898E+03  0.41691122260E+03  0.29001805804E+03  0.66540890486E+03  0.40000000000E+03 0.  1.
   -9000007    1    1    2    0  502 -0.15761842898E+03 -0.41691122260E+03  0.11628222341E+04  0.13079809192E+04  0.40000000000E+03 0.  1.
<mgrwt>
<rscale>  2 0.59888107E+03</rscale>
<asrwt>0</asrwt>
<pdfrwt beam="1">  1       21 0.26355616E+00 0.59888107E+03</pdfrwt>
<pdfrwt beam="2">  1       21 0.40042273E-01 0.59888107E+03</pdfrwt>
<totfact> 0.24687194E+02</totfact>
</mgrwt>
</event>
<event>
 4    1  0.4703494E-002  0.4670008E+03  0.7818608E-02  0.1022770E+00
         21   -1    0    0  501  502  0.00000000000E+00  0.00000000000E+00  0.17021742257E+04  0.17021742257E+04  0.00000000000E+00 0. -1.
         21   -1    0    0  502  503 -0.00000000000E+00 -0.00000000000E+00 -0.17490513552E+03  0.17490513552E+03  0.00000000000E+00 0. -1.
    9000007    1    1    2  501    0 -0.14143784811E+03  0.19515408110E+03  0.12490187286E+04  0.13334682466E+04  0.40000000000E+03 0. -1.
   -9000007    1    1    2    0  503  0.14143784811E+03 -0.19515408110E+03  0.27825036161E+03  0.54361111466E+03  0.40000000000E+03 0. -1.
<mgrwt>
<rscale>  2 0.46700084E+03</rscale>
<asrwt>0</asrwt>
<pdfrwt beam="1">  1       21 0.26187295E+00 0.46700084E+03</pdfrwt>
<pdfrwt beam="2">  1       21 0.26908484E-01 0.46700084E+03</pdfrwt>
<totfact> 0.59874118E+02</totfact>
</mgrwt>
</event>
<event>
 4    1  0.4703494E-002  0.4972891E+03  0.7818608E-02  0.1014489E+00
         21   -1    0    0  503  502  0.00000000000E+00  0.00000000000E+00  0.13118913878E+04  0.13118913878E+04  0.00000000000E+00 0.  1.
         21   -1    0    0  501  503 -0.00000000000E+00 -0.00000000000E+00 -0.30574052480E+03  0.30574052480E+03  0.00000000000E+00 0.  1.
    9000007    1    1    2  501    0 -0.25931073586E+03 -0.14161356798E+03  0.22283836296E+01  0.49729410419E+03  0.40000000000E+03 0.  1.
   -9000007    1    1    2    0  502  0.25931073586E+03  0.14161356798E+03  0.10039224793E+04  0.11203378084E+04  0.40000000000E+03 0.  1.
<mgrwt>
<rscale>  2 0.49728911E+03</rscale>
<asrwt>0</asrwt>
<pdfrwt beam="1">  1       21 0.20182944E+00 0.49728911E+03</pdfrwt>
<pdfrwt beam="2">  1       21 0.47037005E-01 0.49728911E+03</pdfrwt>
<totfact> 0.45423684E+02</totfact>
</mgrwt>
</event>
<event>
 4    1  0.4703494E-002  0.4535486E+03  0.7818608E-02  0.1026669E+00
         21   -1    0    0  503  502  0.00000000000E+00  0.00000000000E+00  0.16912110367E+04  0.16912110367E+04  0.00000000000E+00 0.  1.
         21   -1    0    0  501  503 -0.00000000000E+00 -0.00000000000E+00 -0.12264762500E+03  0.12264762500E+03  0.00000000000E+00 0.  1.
    9000007    1    1    2  501    0  0.15093193940E+03  0.15141300823E+03  0.86678819056E+03  0.97827813872E+03  0.40000000000E+03 0.  1.
   -9000007    1    1    2    0  502 -0.15093193940E+03 -0.15141300823E+03  0.70177522117E+03  0.83558052302E+03  0.40000000000E+03 0.  1.
<mgrwt>
<rscale>  2 0.45354862E+03</rscale>
<asrwt>0</asrwt>
<pdfrwt beam="1">  1       21 0.26018630E+00 0.45354862E+03</pdfrwt>
<pdfrwt beam="2">  1       21 0.18868867E-01 0.45354862E+03</pdfrwt>
<totfact> 0.12231683E+03</totfact>
</mgrwt>
</event>
<event>
 4    1  0.4703494E-002  0.5591412E+03  0.7818608E-02  0.9994000E-01
         21   -1    0    0  503  502  0.00000000000E+00  0.00000000000E+00  0.43582346096E+03  0.43582346096E+03  0.00000000000E+00 0. -1.
         21   -1    0    0  501  503 -0.00000000000E+00 -0.00000000000E+00 -0.73299566819E+03  0.73299566819E+03  0.00000000000E+00 0.  1.
    9000007    1    1    2  501    0  0.37688614974E+03 -0.10293550840E+03 -0.63210442231E+02  0.56270280678E+03  0.40000000000E+03 0. -1.
   -9000007    1    1    2    0  502 -0.37688614974E+03  0.10293550840E+03 -0.23396176500E+03  0.60611632236E+03  0.40000000000E+03 0. -1.
<mgrwt>
<rscale>  2 0.55914121E+03</rscale>
<asrwt>0</asrwt>
<pdfrwt beam="1">  1       21 0.67049764E-01 0.55914121E+03</pdfrwt>
<pdfrwt beam="2">  1       21 0.11276856E+00 0.55914121E+03</pdfrwt>
<totfact> 0.10232636E+03</totfact>
</mgrwt>
</event>
<event>
 4    1  0.4703494E-002  0.4862365E+03  0.7818608E-02  0.1017435E+00
         21   -1    0    0  503  502  0.00000000000E+00  0.00000000000E+00  0.53840101277E+03  0.53840101277E+03  0.00000000000E+00 0.  1.
         21   -1    0    0  501  503 -0.00000000000E+00 -0.00000000000E+00 -0.48138807419E+03  0.48138807419E+03  0.00000000000E+00 0.  1.
    9000007    1    1    2  501    0 -0.26099788982E+03 -0.91137658040E+02  0.17958656963E+03  0.51834091792E+03  0.40000000000E+03 0. -1.
   -9000007    1    1    2    0  502  0.26099788982E+03  0.91137658040E+02 -0.12257363105E+03  0.50144816904E+03  0.40000000000E+03 0. -1.
<mgrwt>
<rscale>  2 0.48623654E+03</rscale>
<asrwt>0</asrwt>
<pdfrwt beam="1">  1       21 0.82830925E-01 0.48623654E+03</pdfrwt>
<pdfrwt beam="2">  1       21 0.74059704E-01 0.48623654E+03</pdfrwt>
<totfact> 0.17667662E+03</totfact>
</mgrwt>
</event>
<event>
 4    1  0.4703494E-002  0.4071179E+03  0.7818608E-02  0.1041343E+00
         21   -1    0    0  501  502  0.00000000000E+00  0.00000000000E+00  0.87498955432E+03  0.87498955432E+03  0.00000000000E+00 0. -1.
         21   -1    0    0  502  503 -0.00000000000E+00 -0.00000000000E+00 -0.20234101910E+03  0.20234101910E+03  0.00000000000E+00 0. -1.
    9000007    1    1    2  501    0 -0.70228358251E+02  0.28511853356E+02  0.47241870278E+03  0.62363801906E+03  0.40000000000E+03 0.  1.
   -9000007    1    1    2    0  503  0.70228358251E+02 -0.28511853356E+02  0.20022983244E+03  0.45369255436E+03  0.40000000000E+03 0.  1.
<mgrwt>
<rscale>  2 0.40711786E+03</rscale>
<asrwt>0</asrwt>
<pdfrwt beam="1">  1       21 0.13461378E+00 0.40711786E+03</pdfrwt>
<pdfrwt beam="2">  1       21 0.31129388E-01 0.40711786E+03</pdfrwt>
<totfact> 0.34593884E+03</totfact>
</mgrwt>
</event>
<event>
 4    1  0.4703494E-002  0.5691559E+03  0.7818608E-02  0.9971548E-01
         21   -1    0    0  501  502  0.00000000000E+00  0.00000000000E+00  0.15305874362E+04  0.15305874362E+04  0.00000000000E+00 0. -1.
         21   -1    0    0  502  503 -0.00000000000E+00 -0.00000000000E+00 -0.89260242462E+03  0.89260242462E+03  0.00000000000E+00 0. -1.
    9000007    1    1    2  501    0 -0.20660395940E+03 -0.34821442820E+03  0.13772441632E+04  0.14902147393E+04  0.40000000000E+03 0. -1.
   -9000007    1    1    2    0  503  0.20660395940E+03  0.34821442820E+03 -0.73925915166E+03  0.93297512151E+03  0.40000000000E+03 0. -1.
<mgrwt>
<rscale>  2 0.56915594E+03</rscale>
<asrwt>0</asrwt>
<pdfrwt beam="1">  1       21 0.23547499E+00 0.56915594E+03</pdfrwt>
<pdfrwt beam="2">  1       21 0.13732345E+00 0.56915594E+03</pdfrwt>
<totfact> 0.21598922E+01</totfact>
</mgrwt>
</event>
<event>
 4    1  0.4703494E-002  0.4136119E+03  0.7818608E-02  0.1039166E+00
         21   -1    0    0  501  502  0.00000000000E+00  0.00000000000E+00  0.31490832526E+03  0.31490832526E+03  0.00000000000E+00 0.  1.
         21   -1    0    0  502  503 -0.00000000000E+00 -0.00000000000E+00 -0.68741766498E+03  0.68741766498E+03  0.00000000000E+00 0. -1.
    9000007    1    1    2  501    0  0.41443581315E+02  0.96732972181E+02  0.43253592117E+02  0.41586742066E+03  0.40000000000E+03 0.  1.
   -9000007    1    1    2    0  503 -0.41443581315E+02 -0.96732972181E+02 -0.41576293184E+03  0.58645856958E+03  0.40000000000E+03 0. -1.
<mgrwt>
<rscale>  2 0.41361194E+03</rscale>
<asrwt>0</asrwt>
<pdfrwt beam="1">  1       21 0.48447435E-01 0.41361194E+03</pdfrwt>
<pdfrwt beam="2">  1       21 0.10575656E+00 0.41361194E+03</pdfrwt>
<totfact> 0.25658897E+03</totfact>
</mgrwt>
</event>
<event>
 4    1  0.4703494E-002  0.5162861E+03  0.7818608E-02  0.1009613E+00
         21   -1    0    0  503  502  0.00000000000E+00  0.00000000000E+00  0.61701792157E+03  0.61701792157E+03  0.00000000000E+00 0.  1.
         21   -1    0    0  501  503 -0.00000000000E+00 -0.00000000000E+00 -0.86500573816E+03  0.86500573816E+03  0.00000000000E+00 0.  1.
    9000007    1    1    2  501    0 -0.29292913162E+03 -0.14402727732E+03 -0.64827332264E+03  0.82873978643E+03  0.40000000000E+03 0.  1.
   -9000007    1    1    2    0  502  0.29292913162E+03  0.14402727732E+03  0.40028550604E+03  0.65328387330E+03  0.40000000000E+03 0.  1.
<mgrwt>
<rscale>  2 0.51628610E+03</rscale>
<asrwt>0</asrwt>
<pdfrwt beam="1">  1       21 0.94925835E-01 0.51628610E+03</pdfrwt>
<pdfrwt beam="2">  1       21 0.13307780E+00 0.51628610E+03</pdfrwt>
<totfact> 0.30326882E+02</totfact>
</mgrwt>
</event>
<event>
 4    1  0.4703494E-002  0.4136672E+03  0.7818608E-02  0.1039147E+00
         21   -1    0    0  503  502  0.00000000000E+00  0.00000000000E+00  0.19218294305E+03  0.19218294305E+03  0.00000000000E+00 0.  1.
         21   -1    0    0  501  503 -0.00000000000E+00 -0.00000000000E+00 -0.94924630129E+03  0.94924630129E+03  0.00000000000E+00 0.  1.
    9000007    1    1    2  501    0  0.97641980406E+01  0.10500100873E+03 -0.52062466356E+03  0.66495909025E+03  0.40000000000E+03 0.  1.
   -9000007    1    1    2    0  502 -0.97641980406E+01 -0.10500100873E+03 -0.23643869468E+03  0.47647015409E+03  0.40000000000E+03 0.  1.
<mgrwt>
<rscale>  2 0.41366720E+03</rscale>
<asrwt>0</asrwt>
<pdfrwt beam="1">  1       21 0.29566606E-01 0.41366720E+03</pdfrwt>
<pdfrwt beam="2">  1       21 0.14603789E+00 0.41366720E+03</pdfrwt>
<totfact> 0.30792268E+03</totfact>
</mgrwt>
</event>
<event>
 4    1  0.4703494E-002  0.4050564E+03  0.7818608E-02  0.1042043E+00
         21   -1    0    0  501  502  0.00000000000E+00  0.00000000000E+00  0.53752370958E+03  0.53752370958E+03  0.00000000000E+00 0. -1.
         21   -1    0    0  502  503 -0.00000000000E+00 -0.00000000000E+00 -0.52623682720E+03  0.52623682720E+03  0.00000000000E+00 0. -1.
    9000007    1    1    2  501    0  0.61723574961E+02 -0.16152579478E+02  0.35032799445E+03  0.53553749563E+03  0.40000000000E+03 0. -1.
   -9000007    1    1    2    0  503 -0.61723574961E+02  0.16152579478E+02 -0.33904111207E+03  0.52822304115E+03  0.40000000000E+03 0. -1.
<mgrwt>
<rscale>  2 0.40505642E+03</rscale>
<asrwt>0</asrwt>
<pdfrwt beam="1">  1       21 0.82695955E-01 0.40505642E+03</pdfrwt>
<pdfrwt beam="2">  1       21 0.80959512E-01 0.40505642E+03</pdfrwt>
<totfact> 0.14922654E+03</totfact>
</mgrwt>
</event>
<event>
 4    1  0.4703494E-002  0.4638867E+03  0.7818608E-02  0.1023660E+00
         21   -1    0    0  503  502  0.00000000000E+00  0.00000000000E+00  0.25116715438E+03  0.25116715438E+03  0.00000000000E+00 0.  1.
         21   -1    0    0  501  503 -0.00000000000E+00 -0.00000000000E+00 -0.87036527174E+03  0.87036527174E+03  0.00000000000E+00 0.  1.
    9000007    1    1    2  501    0  0.17097747273E+03 -0.16111359299E+03 -0.37970043264E+03  0.59946918568E+03  0.40000000000E+03 0.  1.
   -9000007    1    1    2    0  502 -0.17097747273E+03  0.16111359299E+03 -0.23949768471E+03  0.52206324043E+03  0.40000000000E+03 0.  1.
<mgrwt>
<rscale>  2 0.46388672E+03</rscale>
<asrwt>0</asrwt>
<pdfrwt beam="1">  1       21 0.38641102E-01 0.46388672E+03</pdfrwt>
<pdfrwt beam="2">  1       21 0.13390235E+00 0.46388672E+03</pdfrwt>
<totfact> 0.22173030E+03</totfact>
</mgrwt>
</event>
<event>
 4    1  0.4703494E-002  0.4032272E+03  0.7818608E-02  0.1042668E+00
         21   -1    0    0  501  502  0.00000000000E+00  0.00000000000E+00  0.13466831606E+04  0.13466831606E+04  0.00000000000E+00 0. -1.
         21   -1    0    0  502  503 -0.00000000000E+00 -0.00000000000E+00 -0.13381772083E+03  0.13381772083E+03  0.00000000000E+00 0. -1.
    9000007    1    1    2  501    0  0.23687676131E+02  0.45066985780E+02  0.83788774299E+03  0.92986451113E+03  0.40000000000E+03 0. -1.
   -9000007    1    1    2    0  503 -0.23687676131E+02 -0.45066985780E+02  0.37497769676E+03  0.55063637028E+03  0.40000000000E+03 0. -1.
<mgrwt>
<rscale>  2 0.40322716E+03</rscale>
<asrwt>0</asrwt>
<pdfrwt beam="1">  1       21 0.20718202E+00 0.40322716E+03</pdfrwt>
<pdfrwt beam="2">  1       21 0.20587343E-01 0.40322716E+03</pdfrwt>
<totfact> 0.22822506E+03</totfact>
</mgrwt>
</event>
<event>
 4    1  0.4703494E-002  0.5558202E+03  0.7818608E-02  0.1000156E+00
         21   -1    0    0  503  502  0.00000000000E+00  0.00000000000E+00  0.12745663145E+04  0.12745663145E+04  0.00000000000E+00 0.  1.
         21   -1    0    0  501  503 -0.00000000000E+00 -0.00000000000E+00 -0.31267700499E+03  0.31267700499E+03  0.00000000000E+00 0. -1.
    9000007    1    1    2  501    0 -0.52623155401E+02 -0.38231782634E+03  0.10465902598E+03  0.56558786103E+03  0.40000000000E+03 0. -1.
   -9000007    1    1    2    0  502  0.52623155401E+02  0.38231782634E+03  0.85723028352E+03  0.10216554585E+04  0.40000000000E+03 0.  1.
<mgrwt>
<rscale>  2 0.55582022E+03</rscale>
<asrwt>0</asrwt>
<pdfrwt beam="1">  1       21 0.19608712E+00 0.55582022E+03</pdfrwt>
<pdfrwt beam="2">  1       21 0.48104155E-01 0.55582022E+03</pdfrwt>
<totfact> 0.46211426E+02</totfact>
</mgrwt>
</event>
<event>
 4    1  0.4703494E-002  0.4599723E+03  0.7818608E-02  0.1024789E+00
         21   -1    0    0  503  502  0.00000000000E+00  0.00000000000E+00  0.34804115370E+03  0.34804115370E+03  0.00000000000E+00 0. -1.
         21   -1    0    0  501  503 -0.00000000000E+00 -0.00000000000E+00 -0.79403549854E+03  0.79403549854E+03  0.00000000000E+00 0.  1.
    9000007    1    1    2  501    0  0.21464017952E+03 -0.74189638053E+02 -0.49947411859E+03  0.67900582045E+03  0.40000000000E+03 0.  1.
   -9000007    1    1    2    0  502 -0.21464017952E+03  0.74189638053E+02  0.53479773754E+02  0.46307083180E+03  0.40000000000E+03 0. -1.
<mgrwt>
<rscale>  2 0.45997229E+03</rscale>
<asrwt>0</asrwt>
<pdfrwt beam="1">  1       21 0.53544793E-01 0.45997229E+03</pdfrwt>
<pdfrwt beam="2">  1       21 0.12215931E+00 0.45997229E+03</pdfrwt>
<totfact> 0.14194471E+03</totfact>
</mgrwt>
</event>
<event>
 4    1  0.4703494E-002  0.5818158E+03  0.7818608E-02  0.9943868E-01
         21   -1    0    0  501  502  0.00000000000E+00  0.00000000000E+00  0.54926753134E+03  0.54926753134E+03  0.00000000000E+00 0.  1.
         21   -1    0    0  502  503 -0.00000000000E+00 -0.00000000000E+00 -0.10472393576E+04  0.10472393576E+04  0.00000000000E+00 0.  1.
    9000007    1    1    2  501    0  0.36755562995E+03 -0.20835664240E+03  0.26308431336E+03  0.63853190012E+03  0.40000000000E+03 0.  1.
   -9000007    1    1    2    0  503 -0.36755562995E+03  0.20835664240E+03 -0.76105613958E+03  0.95797498878E+03  0.40000000000E+03 0.  1.
<mgrwt>
<rscale>  2 0.58181581E+03</rscale>
<asrwt>0</asrwt>
<pdfrwt beam="1">  1       21 0.84502698E-01 0.58181581E+03</pdfrwt>
<pdfrwt beam="2">  1       21 0.16111375E+00 0.58181581E+03</pdfrwt>
<totfact> 0.23176860E+02</totfact>
</mgrwt>
</event>
<event>
 4    1  0.4703494E-002  0.4362146E+03  0.7818608E-02  0.1031915E+00
         21   -1    0    0  503  502  0.00000000000E+00  0.00000000000E+00  0.47159914440E+03  0.47159914440E+03  0.00000000000E+00 0.  1.
         21   -1    0    0  501  503 -0.00000000000E+00 -0.00000000000E+00 -0.47483943913E+03  0.47483943913E+03  0.00000000000E+00 0.  1.
    9000007    1    1    2  501    0  0.47906490340E+02 -0.16729650033E+03 -0.18506255474E+03  0.47384733829E+03  0.40000000000E+03 0.  1.
   -9000007    1    1    2    0  502 -0.47906490340E+02  0.16729650033E+03  0.18182226002E+03  0.47259124524E+03  0.40000000000E+03 0.  1.
<mgrwt>
<rscale>  2 0.43621457E+03</rscale>
<asrwt>0</asrwt>
<pdfrwt beam="1">  1       21 0.72553714E-01 0.43621457E+03</pdfrwt>
<pdfrwt beam="2">  1       21 0.73052222E-01 0.43621457E+03</pdfrwt>
<totfact> 0.25164544E+03</totfact>
</mgrwt>
</event>
<event>
 4    1  0.4703494E-002  0.7049324E+03  0.7818608E-02  0.9708834E-01
         21   -1    0    0  503  502  0.00000000000E+00  0.00000000000E+00  0.15660642100E+04  0.15660642100E+04  0.00000000000E+00 0.  1.
         21   -1    0    0  501  503 -0.00000000000E+00 -0.00000000000E+00 -0.35219914524E+03  0.35219914524E+03  0.00000000000E+00 0. -1.
    9000007    1    1    2  501    0 -0.20521419643E+03 -0.54297032417E+03  0.90880400801E+03  0.11501540611E+04  0.40000000000E+03 0.  1.
   -9000007    1    1    2    0  502  0.20521419643E+03  0.54297032417E+03  0.30506105674E+03  0.76810929410E+03  0.40000000000E+03 0.  1.
<mgrwt>
<rscale>  2 0.70493237E+03</rscale>
<asrwt>0</asrwt>
<pdfrwt beam="1">  1       21 0.24093295E+00 0.70493237E+03</pdfrwt>
<pdfrwt beam="2">  1       21 0.54184485E-01 0.70493237E+03</pdfrwt>
<totfact> 0.17266124E+02</totfact>
</mgrwt>
</event>
<event>
 4    1  0.4703494E-002  0.4053347E+03  0.7818608E-02  0.1041948E+00
         21   -1    0    0  503  502  0.00000000000E+00  0.00000000000E+00  0.22528420008E+03  0.22528420008E+03  0.00000000000E+00 0. -1.
         21   -1    0    0  501  503 -0.00000000000E+00 -0.00000000000E+00 -0.74369566353E+03  0.74369566353E+03  0.00000000000E+00 0. -1.
    9000007    1    1    2  501    0  0.38600614413E+02  0.52973525822E+02 -0.32664945849E+03  0.52057282930E+03  0.40000000000E+03 0.  1.
   -9000007    1    1    2    0  502 -0.38600614413E+02 -0.52973525822E+02 -0.19176200496E+03  0.44840703431E+03  0.40000000000E+03 0.  1.
<mgrwt>
<rscale>  2 0.40533468E+03</rscale>
<asrwt>0</asrwt>
<pdfrwt beam="1">  1       21 0.34659108E-01 0.40533468E+03</pdfrwt>
<pdfrwt beam="2">  1       21 0.11441472E+00 0.40533468E+03</pdfrwt>
<totfact> 0.42288645E+03</totfact>
</mgrwt>
</event>
<event>
 4    1  0.4703494E-002  0.5465463E+03  0.7818608E-02  0.1002296E+00
         21   -1    0    0  503  502  0.00000000000E+00  0.00000000000E+00  0.28522719189E+03  0.28522719189E+03  0.00000000000E+00 0.  1.
         21   -1    0    0  501  503 -0.00000000000E+00 -0.00000000000E+00 -0.12380344811E+04  0.12380344811E+04  0.00000000000E+00 0. -1.
    9000007    1    1    2  501    0  0.90339801305E+02  0.36131924198E+03 -0.17744235281E+03  0.57462915249E+03  0.40000000000E+03 0.  1.
   -9000007    1    1    2    0  502 -0.90339801305E+02 -0.36131924198E+03 -0.77536493635E+03  0.94863252045E+03  0.40000000000E+03 0. -1.
<mgrwt>
<rscale>  2 0.54654631E+03</rscale>
<asrwt>0</asrwt>
<pdfrwt beam="1">  1       21 0.43881106E-01 0.54654631E+03</pdfrwt>
<pdfrwt beam="2">  1       21 0.19046685E+00 0.54654631E+03</pdfrwt>
<totfact> 0.61514612E+02</totfact>
</mgrwt>
</event>
<event>
 4    1  0.4703494E-002  0.6082372E+03  0.7818608E-02  0.9888462E-01
         21   -1    0    0  503  502  0.00000000000E+00  0.00000000000E+00  0.52266322987E+03  0.52266322987E+03  0.00000000000E+00 0. -1.
         21   -1    0    0  501  503 -0.00000000000E+00 -0.00000000000E+00 -0.10752914747E+04  0.10752914747E+04  0.00000000000E+00 0.  1.
    9000007    1    1    2  501    0  0.34607460548E+03  0.30030789434E+03 -0.74338423683E+03  0.96050642243E+03  0.40000000000E+03 0. -1.
   -9000007    1    1    2    0  502 -0.34607460548E+03 -0.30030789434E+03  0.19075599196E+03  0.63744828217E+03  0.40000000000E+03 0. -1.
<mgrwt>
<rscale>  2 0.60823718E+03</rscale>
<asrwt>0</asrwt>
<pdfrwt beam="1">  1       21 0.80409728E-01 0.60823718E+03</pdfrwt>
<pdfrwt beam="2">  1       21 0.16542946E+00 0.60823718E+03</pdfrwt>
<totfact> 0.23915258E+02</totfact>
</mgrwt>
</event>
<event>
 4    1  0.4703494E-002  0.4370526E+03  0.7818608E-02  0.1031655E+00
         21   -1    0    0  501  502  0.00000000000E+00  0.00000000000E+00  0.67364590204E+03  0.67364590204E+03  0.00000000000E+00 0.  1.
         21   -1    0    0  502  503 -0.00000000000E+00 -0.00000000000E+00 -0.55581311032E+03  0.55581311032E+03  0.00000000000E+00 0.  1.
    9000007    1    1    2  501    0  0.10055808775E+03 -0.14457885657E+03  0.48915650450E+03  0.65596422210E+03  0.40000000000E+03 0.  1.
   -9000007    1    1    2    0  503 -0.10055808775E+03  0.14457885657E+03 -0.37132371278E+03  0.57349479026E+03  0.40000000000E+03 0.  1.
<mgrwt>
<rscale>  2 0.43705260E+03</rscale>
<asrwt>0</asrwt>
<pdfrwt beam="1">  1       21 0.10363783E+00 0.43705260E+03</pdfrwt>
<pdfrwt beam="2">  1       21 0.85509709E-01 0.43705260E+03</pdfrwt>
<totfact> 0.75691505E+02</totfact>
</mgrwt>
</event>
<event>
 4    1  0.4703494E-002  0.4714968E+03  0.7818608E-02  0.1021499E+00
         21   -1    0    0  503  502  0.00000000000E+00  0.00000000000E+00  0.35112367644E+03  0.35112367644E+03  0.00000000000E+00 0. -1.
         21   -1    0    0  501  503 -0.00000000000E+00 -0.00000000000E+00 -0.64867361218E+03  0.64867361218E+03  0.00000000000E+00 0. -1.
    9000007    1    1    2  501    0 -0.24339586832E+03 -0.55387089090E+02 -0.71408727111E+02  0.47687365692E+03  0.40000000000E+03 0. -1.
   -9000007    1    1    2    0  502  0.24339586832E+03  0.55387089090E+02 -0.22614120863E+03  0.52292363170E+03  0.40000000000E+03 0. -1.
<mgrwt>
<rscale>  2 0.47149685E+03</rscale>
<asrwt>0</asrwt>
<pdfrwt beam="1">  1       21 0.54019028E-01 0.47149685E+03</pdfrwt>
<pdfrwt beam="2">  1       21 0.99795939E-01 0.47149685E+03</pdfrwt>
<totfact> 0.22941356E+03</totfact>
</mgrwt>
</event>
<event>
 4    1  0.4703494E-002  0.6033500E+03  0.7818608E-02  0.9898480E-01
         21   -1    0    0  503  502  0.00000000000E+00  0.00000000000E+00  0.52210700781E+03  0.52210700781E+03  0.00000000000E+00 0. -1.
         21   -1    0    0  501  503 -0.00000000000E+00 -0.00000000000E+00 -0.70486128730E+03  0.70486128730E+03  0.00000000000E+00 0. -1.
    9000007    1    1    2  501    0  0.30251442832E+03 -0.33543443412E+03 -0.27563970561E+02  0.60397931373E+03  0.40000000000E+03 0. -1.
   -9000007    1    1    2    0  502 -0.30251442832E+03  0.33543443412E+03 -0.15519030892E+03  0.62298898138E+03  0.40000000000E+03 0. -1.
<mgrwt>
<rscale>  2 0.60335001E+03</rscale>
<asrwt>0</asrwt>
<pdfrwt beam="1">  1       21 0.80324155E-01 0.60335001E+03</pdfrwt>
<pdfrwt beam="2">  1       21 0.10844020E+00 0.60335001E+03</pdfrwt>
<totfact> 0.73622463E+02</totfact>
</mgrwt>
</event>
<event>
 4    1  0.4703494E-002  0.5620070E+03  0.7818608E-02  0.9987524E-01
         21   -1    0    0  503  502  0.00000000000E+00  0.00000000000E+00  0.10751305178E+04  0.10751305178E+04  0.00000000000E+00 0. -1.
         21   -1    0    0  501  503 -0.00000000000E+00 -0.00000000000E+00 -0.29378021491E+03  0.29378021491E+03  0.00000000000E+00 0.  1.
    9000007    1    1    2  501    0 -0.10168678470E+03  0.38145998083E+03  0.39115526997E+03  0.68472940961E+03  0.40000000000E+03 0.  1.
   -9000007    1    1    2    0  502  0.10168678470E+03 -0.38145998083E+03  0.39019503292E+03  0.68418132309E+03  0.40000000000E+03 0.  1.
<mgrwt>
<rscale>  2 0.56200705E+03</rscale>
<asrwt>0</asrwt>
<pdfrwt beam="1">  1       21 0.16540469E+00 0.56200705E+03</pdfrwt>
<pdfrwt beam="2">  1       21 0.45196957E-01 0.56200705E+03</pdfrwt>
<totfact> 0.86871208E+02</totfact>
</mgrwt>
</event>
<event>
 4    1  0.4703494E-002  0.7949777E+03  0.7818608E-02  0.9567315E-01
         21   -1    0    0  501  502  0.00000000000E+00  0.00000000000E+00  0.39166051307E+03  0.39166051307E+03  0.00000000000E+00 0. -1.
         21   -1    0    0  502  503 -0.00000000000E+00 -0.00000000000E+00 -0.17477686975E+04  0.17477686975E+04  0.00000000000E+00 0. -1.
    9000007    1    1    2  501    0  0.67736681309E+03 -0.11473357085E+03 -0.38168973101E+03  0.88185976352E+03  0.40000000000E+03 0. -1.
   -9000007    1    1    2    0  503 -0.67736681309E+03  0.11473357085E+03 -0.97441845340E+03  0.12575694470E+04  0.40000000000E+03 0. -1.
<mgrwt>
<rscale>  2 0.79497773E+03</rscale>
<asrwt>0</asrwt>
<pdfrwt beam="1">  1       21 0.60255463E-01 0.79497773E+03</pdfrwt>
<pdfrwt beam="2">  1       21 0.26888749E+00 0.79497773E+03</pdfrwt>
<totfact> 0.88652411E+01</totfact>
</mgrwt>
</event>
<event>
 4    1  0.4703494E-002  0.4986246E+03  0.7818608E-02  0.1014139E+00
         21   -1    0    0  501  502  0.00000000000E+00  0.00000000000E+00  0.14123694215E+04  0.14123694215E+04  0.00000000000E+00 0. -1.
         21   -1    0    0  502  503 -0.00000000000E+00 -0.00000000000E+00 -0.18394910956E+03  0.18394910956E+03  0.00000000000E+00 0. -1.
    9000007    1    1    2  501    0 -0.22330361299E+03 -0.19688057314E+03  0.77976485031E+03  0.92555912045E+03  0.40000000000E+03 0. -1.
   -9000007    1    1    2    0  503  0.22330361299E+03  0.19688057314E+03  0.44865546159E+03  0.67075941057E+03  0.40000000000E+03 0. -1.
<mgrwt>
<rscale>  2 0.49862457E+03</rscale>
<asrwt>0</asrwt>
<pdfrwt beam="1">  1       21 0.21728760E+00 0.49862457E+03</pdfrwt>
<pdfrwt beam="2">  1       21 0.28299864E-01 0.49862457E+03</pdfrwt>
<totfact> 0.10141624E+03</totfact>
</mgrwt>
</event>
<event>
 4    1  0.4703494E-002  0.4128929E+03  0.7818608E-02  0.1039405E+00
         21   -1    0    0  501  502  0.00000000000E+00  0.00000000000E+00  0.35052357678E+04  0.35052357678E+04  0.00000000000E+00 0.  1.
         21   -1    0    0  502  503 -0.00000000000E+00 -0.00000000000E+00 -0.11088194335E+03  0.11088194335E+03  0.00000000000E+00 0.  1.
    9000007    1    1    2  501    0 -0.33373000813E+02  0.96782198715E+02  0.30518601925E+04  0.30796641353E+04  0.40000000000E+03 0.  1.
   -9000007    1    1    2    0  503  0.33373000813E+02 -0.96782198715E+02  0.34249363186E+03  0.53645357584E+03  0.40000000000E+03 0.  1.
<mgrwt>
<rscale>  2 0.41289291E+03</rscale>
<asrwt>0</asrwt>
<pdfrwt beam="1">  1       21 0.53926696E+00 0.41289291E+03</pdfrwt>
<pdfrwt beam="2">  1       21 0.17058763E-01 0.41289291E+03</pdfrwt>
<totfact> 0.23117822E+01</totfact>
</mgrwt>
</event>
<event>
 4    1  0.4703494E-002  0.5111405E+03  0.7818608E-02  0.1010911E+00
         21   -1    0    0  503  502  0.00000000000E+00  0.00000000000E+00  0.17130309752E+04  0.17130309752E+04  0.00000000000E+00 0. -1.
         21   -1    0    0  501  503 -0.00000000000E+00 -0.00000000000E+00 -0.52650439273E+03  0.52650439273E+03  0.00000000000E+00 0. -1.
    9000007    1    1    2  501    0  0.29490695880E+02  0.31685150195E+03 -0.35048463706E+03  0.61976128973E+03  0.40000000000E+03 0. -1.
   -9000007    1    1    2    0  502 -0.29490695880E+02 -0.31685150195E+03  0.15370112195E+04  0.16197740782E+04  0.40000000000E+03 0. -1.
<mgrwt>
<rscale>  2 0.51114047E+03</rscale>
<asrwt>0</asrwt>
<pdfrwt beam="1">  1       21 0.26354322E+00 0.51114047E+03</pdfrwt>
<pdfrwt beam="2">  1       21 0.81000677E-01 0.51114047E+03</pdfrwt>
<totfact> 0.55181756E+01</totfact>
</mgrwt>
</event>
<event>
 4    1  0.4703494E-002  0.4093135E+03  0.7818608E-02  0.1040602E+00
         21   -1    0    0  503  502  0.00000000000E+00  0.00000000000E+00  0.10025586476E+04  0.10025586476E+04  0.00000000000E+00 0.  1.
         21   -1    0    0  501  503 -0.00000000000E+00 -0.00000000000E+00 -0.16758966889E+03  0.16758966889E+03  0.00000000000E+00 0.  1.
    9000007    1    1    2  501    0  0.91832793064E+01 -0.86331771675E+02  0.38618128094E+03  0.56273749579E+03  0.40000000000E+03 0.  1.
   -9000007    1    1    2    0  502 -0.91832793064E+01  0.86331771675E+02  0.44878769773E+03  0.60741082066E+03  0.40000000000E+03 0.  1.
<mgrwt>
<rscale>  2 0.40931346E+03</rscale>
<asrwt>0</asrwt>
<pdfrwt beam="1">  1       21 0.15423979E+00 0.40931346E+03</pdfrwt>
<pdfrwt beam="2">  1       21 0.25783027E-01 0.40931346E+03</pdfrwt>
<totfact> 0.34814637E+03</totfact>
</mgrwt>
</event>
<event>
 4    1  0.4703494E-002  0.4214499E+03  0.7818608E-02  0.1036595E+00
         21   -1    0    0  503  502  0.00000000000E+00  0.00000000000E+00  0.64711564895E+03  0.64711564895E+03  0.00000000000E+00 0. -1.
         21   -1    0    0  501  503 -0.00000000000E+00 -0.00000000000E+00 -0.27959718983E+03  0.27959718983E+03  0.00000000000E+00 0. -1.
    9000007    1    1    2  501    0  0.12882000112E+03  0.32022737797E+02  0.24644677451E+03  0.48821722736E+03  0.40000000000E+03 0. -1.
   -9000007    1    1    2    0  502 -0.12882000112E+03 -0.32022737797E+02  0.12107168460E+03  0.43849561142E+03  0.40000000000E+03 0. -1.
<mgrwt>
<rscale>  2 0.42144994E+03</rscale>
<asrwt>0</asrwt>
<pdfrwt beam="1">  1       21 0.99556254E-01 0.42144994E+03</pdfrwt>
<pdfrwt beam="2">  1       21 0.43014952E-01 0.42144994E+03</pdfrwt>
<totfact> 0.38046492E+03</totfact>
</mgrwt>
</event>
<event>
 4    1  0.4703494E-002  0.4698683E+03  0.7818608E-02  0.1021957E+00
         21   -1    0    0  503  502  0.00000000000E+00  0.00000000000E+00  0.92134132884E+03  0.92134132884E+03  0.00000000000E+00 0.  1.
         21   -1    0    0  501  503 -0.00000000000E+00 -0.00000000000E+00 -0.34598848688E+03  0.34598848688E+03  0.00000000000E+00 0.  1.
    9000007    1    1    2  501    0 -0.19178794233E+02 -0.24578113132E+03 -0.63661975845E+02  0.47416140483E+03  0.40000000000E+03 0.  1.
   -9000007    1    1    2    0  502  0.19178794233E+02  0.24578113132E+03  0.63901481780E+03  0.79316841089E+03  0.40000000000E+03 0.  1.
<mgrwt>
<rscale>  2 0.46986827E+03</rscale>
<asrwt>0</asrwt>
<pdfrwt beam="1">  1       21 0.14174482E+00 0.46986827E+03</pdfrwt>
<pdfrwt beam="2">  1       21 0.53228999E-01 0.46986827E+03</pdfrwt>
<totfact> 0.97129098E+02</totfact>
</mgrwt>
</event>
<event>
 4    1  0.4703494E-002  0.5186060E+03  0.7818608E-02  0.1009033E+00
         21   -1    0    0  501  502  0.00000000000E+00  0.00000000000E+00  0.11728499828E+04  0.11728499828E+04  0.00000000000E+00 0.  1.
         21   -1    0    0  502  503 -0.00000000000E+00 -0.00000000000E+00 -0.94012660839E+03  0.94012660839E+03  0.00000000000E+00 0.  1.
    9000007    1    1    2  501    0  0.30623764875E+03 -0.12316938764E+03  0.10350088690E+04  0.11576681538E+04  0.40000000000E+03 0.  1.
   -9000007    1    1    2    0  503 -0.30623764875E+03  0.12316938764E+03 -0.80228549459E+03  0.95530843731E+03  0.40000000000E+03 0.  1.
<mgrwt>
<rscale>  2 0.51860601E+03</rscale>
<asrwt>0</asrwt>
<pdfrwt beam="1">  1       21 0.18043846E+00 0.51860601E+03</pdfrwt>
<pdfrwt beam="2">  1       21 0.14463486E+00 0.51860601E+03</pdfrwt>
<totfact> 0.44727878E+01</totfact>
</mgrwt>
</event>
<event>
 4    1  0.4703494E-002  0.4646527E+03  0.7818608E-02  0.1023440E+00
         21   -1    0    0  501  502  0.00000000000E+00  0.00000000000E+00  0.35913256421E+03  0.35913256421E+03  0.00000000000E+00 0.  1.
         21   -1    0    0  502  503 -0.00000000000E+00 -0.00000000000E+00 -0.65291975405E+03  0.65291975405E+03  0.00000000000E+00 0.  1.
    9000007    1    1    2  501    0  0.87121261908E+02 -0.21979998913E+03 -0.44414924265E+01  0.46467394628E+03  0.40000000000E+03 0.  1.
   -9000007    1    1    2    0  503 -0.87121261908E+02  0.21979998913E+03 -0.28934569742E+03  0.54737837198E+03  0.40000000000E+03 0.  1.
<mgrwt>
<rscale>  2 0.46465272E+03</rscale>
<asrwt>0</asrwt>
<pdfrwt beam="1">  1       21 0.55251164E-01 0.46465272E+03</pdfrwt>
<pdfrwt beam="2">  1       21 0.10044919E+00 0.46465272E+03</pdfrwt>
<totfact> 0.21559739E+03</totfact>
</mgrwt>
</event>
<event>
 4    1  0.4703494E-002  0.4676231E+03  0.7818608E-02  0.1022593E+00
         21   -1    0    0  503  502  0.00000000000E+00  0.00000000000E+00  0.32479663016E+03  0.32479663016E+03  0.00000000000E+00 0. -1.
         21   -1    0    0  501  503 -0.00000000000E+00 -0.00000000000E+00 -0.84304996877E+03  0.84304996877E+03  0.00000000000E+00 0. -1.
    9000007    1    1    2  501    0  0.19686615336E+03 -0.14112075540E+03  0.29268526167E+01  0.46763224483E+03  0.40000000000E+03 0. -1.
   -9000007    1    1    2    0  502 -0.19686615336E+03  0.14112075540E+03 -0.52118019123E+03  0.70021435409E+03  0.40000000000E+03 0. -1.
<mgrwt>
<rscale>  2 0.46762309E+03</rscale>
<asrwt>0</asrwt>
<pdfrwt beam="1">  1       21 0.49968713E-01 0.46762309E+03</pdfrwt>
<pdfrwt beam="2">  1       21 0.12969999E+00 0.46762309E+03</pdfrwt>
<totfact> 0.14059902E+03</totfact>
</mgrwt>
</event>
<event>
 4    1  0.4703494E-002  0.4047233E+03  0.7818608E-02  0.1042156E+00
         21   -1    0    0  501  502  0.00000000000E+00  0.00000000000E+00  0.12896515047E+04  0.12896515047E+04  0.00000000000E+00 0.  1.
         21   -1    0    0  502  503 -0.00000000000E+00 -0.00000000000E+00 -0.15123986969E+03  0.15123986969E+03  0.00000000000E+00 0.  1.
    9000007    1    1    2  501    0 -0.42509713246E+02 -0.44653129516E+02  0.85756074402E+03  0.94826758217E+03  0.40000000000E+03 0. -1.
   -9000007    1    1    2    0  503  0.42509713246E+02  0.44653129516E+02  0.28085089099E+03  0.49262379223E+03  0.40000000000E+03 0. -1.
<mgrwt>
<rscale>  2 0.40472333E+03</rscale>
<asrwt>0</asrwt>
<pdfrwt beam="1">  1       21 0.19840792E+00 0.40472333E+03</pdfrwt>
<pdfrwt beam="2">  1       21 0.23267673E-01 0.40472333E+03</pdfrwt>
<totfact> 0.20610054E+03</totfact>
</mgrwt>
</event>
<event>
 4    1  0.4703494E-002  0.5221200E+03  0.7818608E-02  0.1008161E+00
         21   -1    0    0  503  502  0.00000000000E+00  0.00000000000E+00  0.91424966119E+03  0.91424966119E+03  0.00000000000E+00 0.  1.
         21   -1    0    0  501  503 -0.00000000000E+00 -0.00000000000E+00 -0.30484016517E+03  0.30484016517E+03  0.00000000000E+00 0. -1.
    9000007    1    1    2  501    0 -0.32779677272E+03  0.71822996765E+02  0.21459482395E+03  0.56449996061E+03  0.40000000000E+03 0. -1.
   -9000007    1    1    2    0  502  0.32779677272E+03 -0.71822996765E+02  0.39481467207E+03  0.65458986576E+03  0.40000000000E+03 0.  1.
<mgrwt>
<rscale>  2 0.52211997E+03</rscale>
<asrwt>0</asrwt>
<pdfrwt beam="1">  1       21 0.14065379E+00 0.52211997E+03</pdfrwt>
<pdfrwt beam="2">  1       21 0.46898487E-01 0.52211997E+03</pdfrwt>
<totfact> 0.12733850E+03</totfact>
</mgrwt>
</event>
<event>
 4    1  0.4703494E-002  0.4212908E+03  0.7818608E-02  0.1036647E+00
         21   -1    0    0  503  502  0.00000000000E+00  0.00000000000E+00  0.10992208897E+04  0.10992208897E+04  0.00000000000E+00 0.  1.
         21   -1    0    0  501  503 -0.00000000000E+00 -0.00000000000E+00 -0.16380931383E+03  0.16380931383E+03  0.00000000000E+00 0.  1.
    9000007    1    1    2  501    0  0.90694979683E+02 -0.96230723597E+02  0.39216128107E+03  0.57556615769E+03  0.40000000000E+03 0.  1.
   -9000007    1    1    2    0  502 -0.90694979683E+02  0.96230723597E+02  0.54325029476E+03  0.68746404579E+03  0.40000000000E+03 0.  1.
<mgrwt>
<rscale>  2 0.42129079E+03</rscale>
<asrwt>0</asrwt>
<pdfrwt beam="1">  1       21 0.16911090E+00 0.42129079E+03</pdfrwt>
<pdfrwt beam="2">  1       21 0.25201434E-01 0.42129079E+03</pdfrwt>
<totfact> 0.28021708E+03</totfact>
</mgrwt>
</event>
<event>
 4    1  0.4703494E-002  0.4884144E+03  0.7818608E-02  0.1016848E+00
         21   -1    0    0  503  502  0.00000000000E+00  0.00000000000E+00  0.93927085633E+03  0.93927085633E+03  0.00000000000E+00 0.  1.
         21   -1    0    0  501  503 -0.00000000000E+00 -0.00000000000E+00 -0.59930702569E+03  0.59930702569E+03  0.00000000000E+00 0. -1.
    9000007    1    1    2  501    0 -0.13461598803E+03  0.24581928893E+03 -0.41398071973E+03  0.64025668552E+03  0.40000000000E+03 0. -1.
   -9000007    1    1    2    0  502  0.13461598803E+03 -0.24581928893E+03  0.75394455037E+03  0.89832119650E+03  0.40000000000E+03 0.  1.
<mgrwt>
<rscale>  2 0.48841436E+03</rscale>
<asrwt>0</asrwt>
<pdfrwt beam="1">  1       21 0.14450321E+00 0.48841436E+03</pdfrwt>
<pdfrwt beam="2">  1       21 0.92201081E-01 0.48841436E+03</pdfrwt>
<totfact> 0.26438820E+02</totfact>
</mgrwt>
</event>
<event>
 4    1  0.4703494E-002  0.4495108E+03  0.7818608E-02  0.1027868E+00
         21   -1    0    0  503  502  0.00000000000E+00  0.00000000000E+00  0.30348959375E+03  0.30348959375E+03  0.00000000000E+00 0.  1.
         21   -1    0    0  501  503 -0.00000000000E+00 -0.00000000000E+00 -0.76811521256E+03  0.76811521256E+03  0.00000000000E+00 0. -1.
    9000007    1    1    2  501    0 -0.20483849155E+03 -0.10059144473E+02 -0.36750481907E+02  0.45101063394E+03  0.40000000000E+03 0.  1.
   -9000007    1    1    2    0  502  0.20483849155E+03  0.10059144473E+02 -0.42787513690E+03  0.62059417237E+03  0.40000000000E+03 0. -1.
<mgrwt>
<rscale>  2 0.44951084E+03</rscale>
<asrwt>0</asrwt>
<pdfrwt beam="1">  1       21 0.46690708E-01 0.44951084E+03</pdfrwt>
<pdfrwt beam="2">  1       21 0.11817157E+00 0.44951084E+03</pdfrwt>
<totfact> 0.20757864E+03</totfact>
</mgrwt>
</event>
<event>
 4    1  0.4703494E-002  0.4413217E+03  0.7818608E-02  0.1030342E+00
         21   -1    0    0  503  502  0.00000000000E+00  0.00000000000E+00  0.60832185977E+03  0.60832185977E+03  0.00000000000E+00 0. -1.
         21   -1    0    0  501  503 -0.00000000000E+00 -0.00000000000E+00 -0.41684506696E+03  0.41684506696E+03  0.00000000000E+00 0. -1.
    9000007    1    1    2  501    0  0.84901230236E+02  0.16600180868E+03 -0.15111571864E+03  0.46647698743E+03  0.40000000000E+03 0. -1.
   -9000007    1    1    2    0  502 -0.84901230236E+02 -0.16600180868E+03  0.34259251145E+03  0.55868993931E+03  0.40000000000E+03 0. -1.
<mgrwt>
<rscale>  2 0.44132167E+03</rscale>
<asrwt>0</asrwt>
<pdfrwt beam="1">  1       21 0.93587978E-01 0.44132167E+03</pdfrwt>
<pdfrwt beam="2">  1       21 0.64130010E-01 0.44132167E+03</pdfrwt>
<totfact> 0.18612260E+03</totfact>
</mgrwt>
</event>
<event>
 4    1  0.4703494E-002  0.4277200E+03  0.7818608E-02  0.1034583E+00
         21   -1    0    0  501  502  0.00000000000E+00  0.00000000000E+00  0.57366035061E+03  0.57366035061E+03  0.00000000000E+00 0.  1.
         21   -1    0    0  502  503 -0.00000000000E+00 -0.00000000000E+00 -0.37238975269E+03  0.37238975269E+03  0.00000000000E+00 0.  1.
    9000007    1    1    2  501    0  0.15145489680E+03  0.24125854679E+01  0.27989861028E+03  0.51116302524E+03  0.40000000000E+03 0. -1.
   -9000007    1    1    2    0  503 -0.15145489680E+03 -0.24125854679E+01 -0.78628012359E+02  0.43488707806E+03  0.40000000000E+03 0. -1.
<mgrwt>
<rscale>  2 0.42772001E+03</rscale>
<asrwt>0</asrwt>
<pdfrwt beam="1">  1       21 0.88255439E-01 0.42772001E+03</pdfrwt>
<pdfrwt beam="2">  1       21 0.57290731E-01 0.42772001E+03</pdfrwt>
<totfact> 0.27538167E+03</totfact>
</mgrwt>
</event>
<event>
 4    1  0.4703494E-002  0.4522170E+03  0.7818608E-02  0.1027063E+00
         21   -1    0    0  503  502  0.00000000000E+00  0.00000000000E+00  0.77416450497E+03  0.77416450497E+03  0.00000000000E+00 0.  1.
         21   -1    0    0  501  503 -0.00000000000E+00 -0.00000000000E+00 -0.37827928013E+03  0.37827928013E+03  0.00000000000E+00 0.  1.
    9000007    1    1    2  501    0  0.21024248022E+03 -0.17270861087E+02 -0.11855514660E+03  0.46749920419E+03  0.40000000000E+03 0.  1.
   -9000007    1    1    2    0  502 -0.21024248022E+03  0.17270861087E+02  0.51444037145E+03  0.68494458090E+03  0.40000000000E+03 0.  1.
<mgrwt>
<rscale>  2 0.45221696E+03</rscale>
<asrwt>0</asrwt>
<pdfrwt beam="1">  1       21 0.11910223E+00 0.45221696E+03</pdfrwt>
<pdfrwt beam="2">  1       21 0.58196813E-01 0.45221696E+03</pdfrwt>
<totfact> 0.12682737E+03</totfact>
</mgrwt>
</event>
<event>
 4    1  0.4703494E-002  0.4553413E+03  0.7818608E-02  0.1026141E+00
         21   -1    0    0  501  502  0.00000000000E+00  0.00000000000E+00  0.23644121017E+04  0.23644121017E+04  0.00000000000E+00 0.  1.
         21   -1    0    0  502  503 -0.00000000000E+00 -0.00000000000E+00 -0.88820876774E+03  0.88820876774E+03  0.00000000000E+00 0. -1.
    9000007    1    1    2  501    0 -0.21486232353E+03  0.34203033919E+02  0.22820459987E+04  0.23270302116E+04  0.40000000000E+03 0.  1.
   -9000007    1    1    2    0  503  0.21486232353E+03 -0.34203033919E+02 -0.80584266472E+03  0.92559065784E+03  0.40000000000E+03 0. -1.
<mgrwt>
<rscale>  2 0.45534126E+03</rscale>
<asrwt>0</asrwt>
<pdfrwt beam="1">  1       21 0.36375571E+00 0.45534126E+03</pdfrwt>
<pdfrwt beam="2">  1       21 0.13664750E+00 0.45534126E+03</pdfrwt>
<totfact> 0.38824511E+00</totfact>
</mgrwt>
</event>
<event>
 4    1  0.4703494E-002  0.4276726E+03  0.7818608E-02  0.1034598E+00
         21   -1    0    0  501  502  0.00000000000E+00  0.00000000000E+00  0.80385300556E+03  0.80385300556E+03  0.00000000000E+00 0. -1.
         21   -1    0    0  502  503 -0.00000000000E+00 -0.00000000000E+00 -0.48651551973E+03  0.48651551973E+03  0.00000000000E+00 0. -1.
    9000007    1    1    2  501    0 -0.86949636188E+02  0.12386923587E+03  0.62939656668E+03  0.76094931827E+03  0.40000000000E+03 0. -1.
   -9000007    1    1    2    0  503  0.86949636188E+02 -0.12386923587E+03 -0.31205908085E+03  0.52941920703E+03  0.40000000000E+03 0. -1.
<mgrwt>
<rscale>  2 0.42767257E+03</rscale>
<asrwt>0</asrwt>
<pdfrwt beam="1">  1       21 0.12366969E+00 0.42767257E+03</pdfrwt>
<pdfrwt beam="2">  1       21 0.74848541E-01 0.42767257E+03</pdfrwt>
<totfact> 0.66471235E+02</totfact>
</mgrwt>
</event>
<event>
 4    1  0.4703494E-002  0.4865434E+03  0.7818608E-02  0.1017352E+00
         21   -1    0    0  501  502  0.00000000000E+00  0.00000000000E+00  0.36280948571E+03  0.36280948571E+03  0.00000000000E+00 0.  1.
         21   -1    0    0  502  503 -0.00000000000E+00 -0.00000000000E+00 -0.68392458341E+03  0.68392458341E+03  0.00000000000E+00 0. -1.
    9000007    1    1    2  501    0  0.22883949965E+03 -0.15606706283E+03 -0.48328957849E+02  0.48893775970E+03  0.40000000000E+03 0.  1.
   -9000007    1    1    2    0  503 -0.22883949965E+03  0.15606706283E+03 -0.27278613985E+03  0.55779630941E+03  0.40000000000E+03 0. -1.
<mgrwt>
<rscale>  2 0.48654336E+03</rscale>
<asrwt>0</asrwt>
<pdfrwt beam="1">  1       21 0.55816844E-01 0.48654336E+03</pdfrwt>
<pdfrwt beam="2">  1       21 0.10521917E+00 0.48654336E+03</pdfrwt>
<totfact> 0.18672194E+03</totfact>
</mgrwt>
</event>
<event>
 4    1  0.4703494E-002  0.4413309E+03  0.7818608E-02  0.1030339E+00
         21   -1    0    0  501  502  0.00000000000E+00  0.00000000000E+00  0.82498588151E+03  0.82498588151E+03  0.00000000000E+00 0.  1.
         21   -1    0    0  502  503 -0.00000000000E+00 -0.00000000000E+00 -0.25964830036E+03  0.25964830036E+03  0.00000000000E+00 0.  1.
    9000007    1    1    2  501    0 -0.10787530455E+03  0.15210470576E+03  0.11932218587E+03  0.45717688796E+03  0.40000000000E+03 0.  1.
   -9000007    1    1    2    0  503  0.10787530455E+03 -0.15210470576E+03  0.44601539528E+03  0.62745729391E+03  0.40000000000E+03 0.  1.
<mgrwt>
<rscale>  2 0.44133085E+03</rscale>
<asrwt>0</asrwt>
<pdfrwt beam="1">  1       21 0.12692090E+00 0.44133085E+03</pdfrwt>
<pdfrwt beam="2">  1       21 0.39945893E-01 0.44133085E+03</pdfrwt>
<totfact> 0.24004005E+03</totfact>
</mgrwt>
</event>
<event>
 4    1  0.4703494E-002  0.4654552E+03  0.7818608E-02  0.1023211E+00
         21   -1    0    0  501  502  0.00000000000E+00  0.00000000000E+00  0.23474160311E+03  0.23474160311E+03  0.00000000000E+00 0. -1.
         21   -1    0    0  502  503 -0.00000000000E+00 -0.00000000000E+00 -0.92381942911E+03  0.92381942911E+03  0.00000000000E+00 0.  1.
    9000007    1    1    2  501    0  0.65172957645E+02  0.22891260878E+03 -0.32649716032E+03  0.56854981537E+03  0.40000000000E+03 0. -1.
   -9000007    1    1    2    0  503 -0.65172957645E+02 -0.22891260878E+03 -0.36258066568E+03  0.59001121684E+03  0.40000000000E+03 0. -1.
<mgrwt>
<rscale>  2 0.46545515E+03</rscale>
<asrwt>0</asrwt>
<pdfrwt beam="1">  1       21 0.36114093E-01 0.46545515E+03</pdfrwt>
<pdfrwt beam="2">  1       21 0.14212606E+00 0.46545515E+03</pdfrwt>
<totfact> 0.21727267E+03</totfact>
</mgrwt>
</event>
<event>
 4    1  0.4703494E-002  0.4390162E+03  0.7818608E-02  0.1031049E+00
         21   -1    0    0  503  502  0.00000000000E+00  0.00000000000E+00  0.26998463039E+03  0.26998463039E+03  0.00000000000E+00 0. -1.
         21   -1    0    0  501  503 -0.00000000000E+00 -0.00000000000E+00 -0.85597653874E+03  0.85597653874E+03  0.00000000000E+00 0.  1.
    9000007    1    1    2  501    0 -0.17734776967E+03  0.35818847994E+02 -0.52237946654E+03  0.68236026287E+03  0.40000000000E+03 0.  1.
   -9000007    1    1    2    0  502  0.17734776967E+03 -0.35818847994E+02 -0.63612441808E+02  0.44360090626E+03  0.40000000000E+03 0.  1.
<mgrwt>
<rscale>  2 0.43901620E+03</rscale>
<asrwt>0</asrwt>
<pdfrwt beam="1">  1       21 0.41536098E-01 0.43901620E+03</pdfrwt>
<pdfrwt beam="2">  1       21 0.13168870E+00 0.43901620E+03</pdfrwt>
<totfact> 0.20146326E+03</totfact>
</mgrwt>
</event>
<event>
 4    1  0.4703494E-002  0.4197622E+03  0.7818608E-02  0.1037144E+00
         21   -1    0    0  501  502  0.00000000000E+00  0.00000000000E+00  0.19306019182E+03  0.19306019182E+03  0.00000000000E+00 0. -1.
         21   -1    0    0  502  503 -0.00000000000E+00 -0.00000000000E+00 -0.93112881244E+03  0.93112881244E+03  0.00000000000E+00 0. -1.
    9000007    1    1    2  501    0 -0.41784486020E+02 -0.12022646251E+03 -0.28989354928E+03  0.51013587942E+03  0.40000000000E+03 0. -1.
   -9000007    1    1    2    0  503  0.41784486020E+02  0.12022646251E+03 -0.44817507133E+03  0.61405312484E+03  0.40000000000E+03 0. -1.
<mgrwt>
<rscale>  2 0.41976225E+03</rscale>
<asrwt>0</asrwt>
<pdfrwt beam="1">  1       21 0.29701568E-01 0.41976225E+03</pdfrwt>
<pdfrwt beam="2">  1       21 0.14325059E+00 0.41976225E+03</pdfrwt>
<totfact> 0.32054954E+03</totfact>
</mgrwt>
</event>
<event>
 4    1  0.4703494E-002  0.5892760E+03  0.7818608E-02  0.9927908E-01
         21   -1    0    0  501  502  0.00000000000E+00  0.00000000000E+00  0.95155172219E+03  0.95155172219E+03  0.00000000000E+00 0.  1.
         21   -1    0    0  502  503 -0.00000000000E+00 -0.00000000000E+00 -0.76784020813E+03  0.76784020813E+03  0.00000000000E+00 0.  1.
    9000007    1    1    2  501    0  0.19000928970E+03 -0.38877076030E+03 -0.53089691739E+03  0.79315683892E+03  0.40000000000E+03 0.  1.
   -9000007    1    1    2    0  503 -0.19000928970E+03  0.38877076030E+03  0.71460843145E+03  0.92623509139E+03  0.40000000000E+03 0.  1.
<mgrwt>
<rscale>  2 0.58927603E+03</rscale>
<asrwt>0</asrwt>
<pdfrwt beam="1">  1       21 0.14639257E+00 0.58927603E+03</pdfrwt>
<pdfrwt beam="2">  1       21 0.11812926E+00 0.58927603E+03</pdfrwt>
<totfact> 0.13280692E+02</totfact>
</mgrwt>
</event>
<event>
 4    1  0.4703494E-002  0.6634202E+03  0.7818608E-02  0.9781918E-01
         21   -1    0    0  501  502  0.00000000000E+00  0.00000000000E+00  0.40610197783E+03  0.40610197783E+03  0.00000000000E+00 0.  1.
         21   -1    0    0  502  503 -0.00000000000E+00 -0.00000000000E+00 -0.12955178629E+04  0.12955178629E+04  0.00000000000E+00 0.  1.
    9000007    1    1    2  501    0 -0.13319011836E+03  0.51223695723E+03 -0.10074844104E+03  0.67102649452E+03  0.40000000000E+03 0.  1.
   -9000007    1    1    2    0  503  0.13319011836E+03 -0.51223695723E+03 -0.78866744403E+03  0.10305933462E+04  0.40000000000E+03 0.  1.
<mgrwt>
<rscale>  2 0.66342016E+03</rscale>
<asrwt>0</asrwt>
<pdfrwt beam="1">  1       21 0.62477228E-01 0.66342016E+03</pdfrwt>
<pdfrwt beam="2">  1       21 0.19931044E+00 0.66342016E+03</pdfrwt>
<totfact> 0.23932471E+02</totfact>
</mgrwt>
</event>
<event>
 4    1  0.4703494E-002  0.5147062E+03  0.7818608E-02  0.1010010E+00
         21   -1    0    0  501  502  0.00000000000E+00  0.00000000000E+00  0.15875543488E+04  0.15875543488E+04  0.00000000000E+00 0. -1.
         21   -1    0    0  502  503 -0.00000000000E+00 -0.00000000000E+00 -0.43564588800E+03  0.43564588800E+03  0.00000000000E+00 0. -1.
    9000007    1    1    2  501    0 -0.31954327531E+03  0.53052746421E+02  0.13705266703E+04  0.14639897038E+04  0.40000000000E+03 0. -1.
   -9000007    1    1    2    0  503  0.31954327531E+03 -0.53052746421E+02 -0.21861820953E+03  0.55921053302E+03  0.40000000000E+03 0. -1.
<mgrwt>
<rscale>  2 0.51470623E+03</rscale>
<asrwt>0</asrwt>
<pdfrwt beam="1">  1       21 0.24423913E+00 0.51470623E+03</pdfrwt>
<pdfrwt beam="2">  1       21 0.67022445E-01 0.51470623E+03</pdfrwt>
<totfact> 0.11156524E+02</totfact>
</mgrwt>
</event>
<event>
 4    1  0.4703494E-002  0.6392654E+03  0.7818608E-02  0.9827133E-01
         21   -1    0    0  503  502  0.00000000000E+00  0.00000000000E+00  0.45457093988E+03  0.45457093988E+03  0.00000000000E+00 0.  1.
         21   -1    0    0  501  503 -0.00000000000E+00 -0.00000000000E+00 -0.11729810490E+04  0.11729810490E+04  0.00000000000E+00 0.  1.
    9000007    1    1    2  501    0 -0.37959532847E+02  0.49721160883E+03 -0.75249951907E+03  0.98737826404E+03  0.40000000000E+03 0.  1.
   -9000007    1    1    2    0  502  0.37959532847E+02 -0.49721160883E+03  0.34089409973E+02  0.64017372483E+03  0.40000000000E+03 0.  1.
<mgrwt>
<rscale>  2 0.63926545E+03</rscale>
<asrwt>0</asrwt>
<pdfrwt beam="1">  1       21 0.69933992E-01 0.63926545E+03</pdfrwt>
<pdfrwt beam="2">  1       21 0.18045862E+00 0.63926545E+03</pdfrwt>
<totfact> 0.25326190E+02</totfact>
</mgrwt>
</event>
<event>
 4    1  0.4703494E-002  0.5025937E+03  0.7818608E-02  0.1013104E+00
         21   -1    0    0  501  502  0.00000000000E+00  0.00000000000E+00  0.50261536530E+03  0.50261536530E+03  0.00000000000E+00 0. -1.
         21   -1    0    0  502  503 -0.00000000000E+00 -0.00000000000E+00 -0.11443733977E+04  0.11443733977E+04  0.00000000000E+00 0. -1.
    9000007    1    1    2  501    0 -0.30010767775E+03 -0.50356738423E+02  0.29582543948E+03  0.58319217244E+03  0.40000000000E+03 0. -1.
   -9000007    1    1    2    0  503  0.30010767775E+03  0.50356738423E+02 -0.93758347186E+03  0.10637965905E+04  0.40000000000E+03 0. -1.
<mgrwt>
<rscale>  2 0.50259369E+03</rscale>
<asrwt>0</asrwt>
<pdfrwt beam="1">  1       21 0.77325441E-01 0.50259369E+03</pdfrwt>
<pdfrwt beam="2">  1       21 0.17605745E+00 0.50259369E+03</pdfrwt>
<totfact> 0.22854732E+02</totfact>
</mgrwt>
</event>
<event>
 4    1  0.4703494E-002  0.4941093E+03  0.7818608E-02  0.1015328E+00
         21   -1    0    0  501  502  0.00000000000E+00  0.00000000000E+00  0.43656238779E+03  0.43656238779E+03  0.00000000000E+00 0.  1.
         21   -1    0    0  502  503 -0.00000000000E+00 -0.00000000000E+00 -0.55931480423E+03  0.55931480423E+03  0.00000000000E+00 0.  1.
    9000007    1    1    2  501    0  0.26601236365E+03 -0.11567806464E+03 -0.67059958866E+02  0.49863917850E+03  0.40000000000E+03 0.  1.
   -9000007    1    1    2    0  503 -0.26601236365E+03  0.11567806464E+03 -0.55692457571E+02  0.49723801352E+03  0.40000000000E+03 0.  1.
<mgrwt>
<rscale>  2 0.49410929E+03</rscale>
<asrwt>0</asrwt>
<pdfrwt beam="1">  1       21 0.67163444E-01 0.49410929E+03</pdfrwt>
<pdfrwt beam="2">  1       21 0.86048431E-01 0.49410929E+03</pdfrwt>
<totfact> 0.20097916E+03</totfact>
</mgrwt>
</event>
<event>
 4    1  0.4703494E-002  0.4192876E+03  0.7818608E-02  0.1037298E+00
         21   -1    0    0  501  502  0.00000000000E+00  0.00000000000E+00  0.62776533618E+03  0.62776533618E+03  0.00000000000E+00 0.  1.
         21   -1    0    0  502  503 -0.00000000000E+00 -0.00000000000E+00 -0.55579630688E+03  0.55579630688E+03  0.00000000000E+00 0.  1.
    9000007    1    1    2  501    0  0.79849164815E+01 -0.12545238706E+03  0.45281786010E+03  0.61712727596E+03  0.40000000000E+03 0.  1.
   -9000007    1    1    2    0  503 -0.79849164815E+01  0.12545238706E+03 -0.38084883080E+03  0.56643436710E+03  0.40000000000E+03 0.  1.
<mgrwt>
<rscale>  2 0.41928756E+03</rscale>
<asrwt>0</asrwt>
<pdfrwt beam="1">  1       21 0.96579282E-01 0.41928756E+03</pdfrwt>
<pdfrwt beam="2">  1       21 0.85507124E-01 0.41928756E+03</pdfrwt>
<totfact> 0.90546902E+02</totfact>
</mgrwt>
</event>
<event>
 4    1  0.4703494E-002  0.4800052E+03  0.7818608E-02  0.1019134E+00
         21   -1    0    0  503  502  0.00000000000E+00  0.00000000000E+00  0.43317447875E+03  0.43317447875E+03  0.00000000000E+00 0.  1.
         21   -1    0    0  501  503 -0.00000000000E+00 -0.00000000000E+00 -0.56845411154E+03  0.56845411154E+03  0.00000000000E+00 0. -1.
    9000007    1    1    2  501    0  0.15983808825E+03 -0.21179426290E+03 -0.19463981708E+03  0.51796687408E+03  0.40000000000E+03 0. -1.
   -9000007    1    1    2    0  502 -0.15983808825E+03  0.21179426290E+03  0.59360184293E+02  0.48366171621E+03  0.40000000000E+03 0.  1.
<mgrwt>
<rscale>  2 0.48000523E+03</rscale>
<asrwt>0</asrwt>
<pdfrwt beam="1">  1       21 0.66642228E-01 0.48000523E+03</pdfrwt>
<pdfrwt beam="2">  1       21 0.87454479E-01 0.48000523E+03</pdfrwt>
<totfact> 0.19782625E+03</totfact>
</mgrwt>
</event>
<event>
 4    1  0.4703494E-002  0.5811430E+03  0.7818608E-02  0.9945319E-01
         21   -1    0    0  501  502  0.00000000000E+00  0.00000000000E+00  0.14670433041E+04  0.14670433041E+04  0.00000000000E+00 0.  1.
         21   -1    0    0  502  503 -0.00000000000E+00 -0.00000000000E+00 -0.82217022954E+03  0.82217022954E+03  0.00000000000E+00 0.  1.
    9000007    1    1    2  501    0  0.46036882920E+02 -0.41905589063E+03  0.12936661193E+04  0.14182028283E+04  0.40000000000E+03 0.  1.
   -9000007    1    1    2    0  503 -0.46036882920E+02  0.41905589063E+03 -0.64879304467E+03  0.87101070537E+03  0.40000000000E+03 0.  1.
<mgrwt>
<rscale>  2 0.58114304E+03</rscale>
<asrwt>0</asrwt>
<pdfrwt beam="1">  1       21 0.22569897E+00 0.58114304E+03</pdfrwt>
<pdfrwt beam="2">  1       21 0.12648773E+00 0.58114304E+03</pdfrwt>
<totfact> 0.30726671E+01</totfact>
</mgrwt>
</event>
<event>
 4    1  0.4703494E-002  0.4414496E+03  0.7818608E-02  0.1030303E+00
         21   -1    0    0  501  502  0.00000000000E+00  0.00000000000E+00  0.26406043809E+03  0.26406043809E+03  0.00000000000E+00 0.  1.
         21   -1    0    0  502  503 -0.00000000000E+00 -0.00000000000E+00 -0.75572299853E+03  0.75572299853E+03  0.00000000000E+00 0. -1.
    9000007    1    1    2  501    0 -0.72820590636E+02 -0.17197359915E+03 -0.16775633440E+03  0.47224987555E+03  0.40000000000E+03 0.  1.
   -9000007    1    1    2    0  503  0.72820590636E+02  0.17197359915E+03 -0.32390622604E+03  0.54753356106E+03  0.40000000000E+03 0. -1.
<mgrwt>
<rscale>  2 0.44144961E+03</rscale>
<asrwt>0</asrwt>
<pdfrwt beam="1">  1       21 0.40624684E-01 0.44144961E+03</pdfrwt>
<pdfrwt beam="2">  1       21 0.11626507E+00 0.44144961E+03</pdfrwt>
<totfact> 0.28988985E+03</totfact>
</mgrwt>
</event>
<event>
 4    1  0.4703494E-002  0.5823997E+03  0.7818608E-02  0.9942609E-01
         21   -1    0    0  503  502  0.00000000000E+00  0.00000000000E+00  0.79872259395E+03  0.79872259395E+03  0.00000000000E+00 0. -1.
         21   -1    0    0  501  503 -0.00000000000E+00 -0.00000000000E+00 -0.45903591036E+03  0.45903591036E+03  0.00000000000E+00 0. -1.
    9000007    1    1    2  501    0  0.38294894768E+03 -0.18038722409E+03 -0.22405073490E+01  0.58240404104E+03  0.40000000000E+03 0. -1.
   -9000007    1    1    2    0  502 -0.38294894768E+03  0.18038722409E+03  0.34192719095E+03  0.67535446327E+03  0.40000000000E+03 0. -1.
<mgrwt>
<rscale>  2 0.58239973E+03</rscale>
<asrwt>0</asrwt>
<pdfrwt beam="1">  1       21 0.12288040E+00 0.58239973E+03</pdfrwt>
<pdfrwt beam="2">  1       21 0.70620909E-01 0.58239973E+03</pdfrwt>
<totfact> 0.72615231E+02</totfact>
</mgrwt>
</event>
<event>
 4    1  0.4703494E-002  0.4818665E+03  0.7818608E-02  0.1018623E+00
         21   -1    0    0  501  502  0.00000000000E+00  0.00000000000E+00  0.98201360181E+03  0.98201360181E+03  0.00000000000E+00 0.  1.
         21   -1    0    0  502  503 -0.00000000000E+00 -0.00000000000E+00 -0.23857304878E+03  0.23857304878E+03  0.00000000000E+00 0.  1.
    9000007    1    1    2  501    0  0.26692811987E+03  0.30735449981E+02  0.31412350613E+03  0.57521201845E+03  0.40000000000E+03 0.  1.
   -9000007    1    1    2    0  503 -0.26692811987E+03 -0.30735449981E+02  0.42931704689E+03  0.64537463214E+03  0.40000000000E+03 0.  1.
<mgrwt>
<rscale>  2 0.48186646E+03</rscale>
<asrwt>0</asrwt>
<pdfrwt beam="1">  1       21 0.15107901E+00 0.48186646E+03</pdfrwt>
<pdfrwt beam="2">  1       21 0.36703547E-01 0.48186646E+03</pdfrwt>
<totfact> 0.17714317E+03</totfact>
</mgrwt>
</event>
<event>
 4    1  0.4703494E-002  0.4102662E+03  0.7818608E-02  0.1040282E+00
         21   -1    0    0  501  502  0.00000000000E+00  0.00000000000E+00  0.18925217429E+03  0.18925217429E+03  0.00000000000E+00 0. -1.
         21   -1    0    0  502  503 -0.00000000000E+00 -0.00000000000E+00 -0.13192014180E+04  0.13192014180E+04  0.00000000000E+00 0. -1.
    9000007    1    1    2  501    0 -0.83493921788E+02 -0.36703604326E+02 -0.13446091446E+03  0.43173849384E+03  0.40000000000E+03 0. -1.
   -9000007    1    1    2    0  503  0.83493921788E+02  0.36703604326E+02 -0.99548832924E+03  0.10767150984E+04  0.40000000000E+03 0. -1.
<mgrwt>
<rscale>  2 0.41026624E+03</rscale>
<asrwt>0</asrwt>
<pdfrwt beam="1">  1       21 0.29115720E-01 0.41026624E+03</pdfrwt>
<pdfrwt beam="2">  1       21 0.20295406E+00 0.41026624E+03</pdfrwt>
<totfact> 0.12381383E+03</totfact>
</mgrwt>
</event>
<event>
 4    1  0.4703494E-002  0.4336997E+03  0.7818608E-02  0.1032698E+00
         21   -1    0    0  501  502  0.00000000000E+00  0.00000000000E+00  0.24973821566E+03  0.24973821566E+03  0.00000000000E+00 0. -1.
         21   -1    0    0  502  503 -0.00000000000E+00 -0.00000000000E+00 -0.76149462142E+03  0.76149462142E+03  0.00000000000E+00 0. -1.
    9000007    1    1    2  501    0  0.16691616464E+03 -0.15310062599E+02 -0.20301390620E+03  0.47886328962E+03  0.40000000000E+03 0. -1.
   -9000007    1    1    2    0  503 -0.16691616464E+03  0.15310062599E+02 -0.30874249956E+03  0.53236954747E+03  0.40000000000E+03 0. -1.
<mgrwt>
<rscale>  2 0.43369967E+03</rscale>
<asrwt>0</asrwt>
<pdfrwt beam="1">  1       21 0.38421264E-01 0.43369967E+03</pdfrwt>
<pdfrwt beam="2">  1       21 0.11715302E+00 0.43369967E+03</pdfrwt>
<totfact> 0.31987420E+03</totfact>
</mgrwt>
</event>
<event>
 4    1  0.4703494E-002  0.6228845E+03  0.7818608E-02  0.9859033E-01
         21   -1    0    0  503  502  0.00000000000E+00  0.00000000000E+00  0.72982035643E+03  0.72982035643E+03  0.00000000000E+00 0. -1.
         21   -1    0    0  501  503 -0.00000000000E+00 -0.00000000000E+00 -0.97137558753E+03  0.97137558753E+03  0.00000000000E+00 0.  1.
    9000007    1    1    2  501    0  0.34548586215E+03 -0.32958241564E+03 -0.69309616169E+03  0.93186229616E+03  0.40000000000E+03 0.  1.
   -9000007    1    1    2    0  502 -0.34548586215E+03  0.32958241564E+03  0.45154093059E+03  0.76933364780E+03  0.40000000000E+03 0. -1.
<mgrwt>
<rscale>  2 0.62288446E+03</rscale>
<asrwt>0</asrwt>
<pdfrwt beam="1">  1       21 0.11228006E+00 0.62288446E+03</pdfrwt>
<pdfrwt beam="2">  1       21 0.14944240E+00 0.62288446E+03</pdfrwt>
<totfact> 0.14086607E+02</totfact>
</mgrwt>
</event>
<event>
 4    1  0.4703494E-002  0.4078272E+03  0.7818608E-02  0.1041103E+00
         21   -1    0    0  501  502  0.00000000000E+00  0.00000000000E+00  0.13632715037E+04  0.13632715037E+04  0.00000000000E+00 0.  1.
         21   -1    0    0  502  503 -0.00000000000E+00 -0.00000000000E+00 -0.21131070872E+03  0.21131070872E+03  0.00000000000E+00 0.  1.
    9000007    1    1    2  501    0  0.35784455726E+02 -0.71010768215E+02  0.10878028640E+04  0.11617392682E+04  0.40000000000E+03 0.  1.
   -9000007    1    1    2    0  503 -0.35784455726E+02  0.71010768215E+02  0.64157931016E+02  0.41284294421E+03  0.40000000000E+03 0.  1.
<mgrwt>
<rscale>  2 0.40782724E+03</rscale>
<asrwt>0</asrwt>
<pdfrwt beam="1">  1       21 0.20973407E+00 0.40782724E+03</pdfrwt>
<pdfrwt beam="2">  1       21 0.32509341E-01 0.40782724E+03</pdfrwt>
<totfact> 0.89896201E+02</totfact>
</mgrwt>
</event>
<event>
 4    1  0.4703494E-002  0.4628156E+03  0.7818608E-02  0.1023968E+00
         21   -1    0    0  503  502  0.00000000000E+00  0.00000000000E+00  0.43185123236E+03  0.43185123236E+03  0.00000000000E+00 0. -1.
         21   -1    0    0  501  503 -0.00000000000E+00 -0.00000000000E+00 -0.50924747298E+03  0.50924747298E+03  0.00000000000E+00 0. -1.
    9000007    1    1    2  501    0  0.22593392985E+03  0.56143697252E+02 -0.11459179552E+03  0.47679087135E+03  0.40000000000E+03 0. -1.
   -9000007    1    1    2    0  502 -0.22593392985E+03 -0.56143697252E+02  0.37195554904E+02  0.46430783399E+03  0.40000000000E+03 0. -1.
<mgrwt>
<rscale>  2 0.46281557E+03</rscale>
<asrwt>0</asrwt>
<pdfrwt beam="1">  1       21 0.66438651E-01 0.46281557E+03</pdfrwt>
<pdfrwt beam="2">  1       21 0.78345765E-01 0.46281557E+03</pdfrwt>
<totfact> 0.25891724E+03</totfact>
</mgrwt>
</event>
<event>
 4    1  0.4703494E-002  0.4181472E+03  0.7818608E-02  0.1037671E+00
         21   -1    0    0  501  502  0.00000000000E+00  0.00000000000E+00  0.55266674886E+03  0.55266674886E+03  0.00000000000E+00 0.  1.
         21   -1    0    0  502  503 -0.00000000000E+00 -0.00000000000E+00 -0.46543359404E+03  0.46543359404E+03  0.00000000000E+00 0. -1.
    9000007    1    1    2  501    0  0.64256397356E+02 -0.10352887669E+03  0.33169961919E+03  0.53373378222E+03  0.40000000000E+03 0.  1.
   -9000007    1    1    2    0  503 -0.64256397356E+02  0.10352887669E+03 -0.24446646436E+03  0.48436656068E+03  0.40000000000E+03 0. -1.
<mgrwt>
<rscale>  2 0.41814724E+03</rscale>
<asrwt>0</asrwt>
<pdfrwt beam="1">  1       21 0.85025654E-01 0.41814724E+03</pdfrwt>
<pdfrwt beam="2">  1       21 0.71605168E-01 0.41814724E+03</pdfrwt>
<totfact> 0.18411987E+03</totfact>
</mgrwt>
</event>
<event>
 4    1  0.4703494E-002  0.4430559E+03  0.7818608E-02  0.1029813E+00
         21   -1    0    0  503  502  0.00000000000E+00  0.00000000000E+00  0.43410707960E+03  0.43410707960E+03  0.00000000000E+00 0. -1.
         21   -1    0    0  501  503 -0.00000000000E+00 -0.00000000000E+00 -0.45959616681E+03  0.45959616681E+03  0.00000000000E+00 0. -1.
    9000007    1    1    2  501    0 -0.12706465838E+03  0.14196170116E+03 -0.69472097791E+02  0.44846953562E+03  0.40000000000E+03 0. -1.
   -9000007    1    1    2    0  502  0.12706465838E+03 -0.14196170116E+03  0.43983010589E+02  0.44523371079E+03  0.40000000000E+03 0. -1.
<mgrwt>
<rscale>  2 0.44305592E+03</rscale>
<asrwt>0</asrwt>
<pdfrwt beam="1">  1       21 0.66785705E-01 0.44305592E+03</pdfrwt>
<pdfrwt beam="2">  1       21 0.70707102E-01 0.44305592E+03</pdfrwt>
<totfact> 0.32557346E+03</totfact>
</mgrwt>
</event>
<event>
 4    1  0.4703494E-002  0.5419475E+03  0.7818608E-02  0.1003375E+00
         21   -1    0    0  501  502  0.00000000000E+00  0.00000000000E+00  0.22006234066E+04  0.22006234066E+04  0.00000000000E+00 0.  1.
         21   -1    0    0  502  503 -0.00000000000E+00 -0.00000000000E+00 -0.16935006590E+03  0.16935006590E+03  0.00000000000E+00 0. -1.
    9000007    1    1    2  501    0  0.24977741793E+03  0.26705501198E+03  0.15611119924E+04  0.16525065176E+04  0.40000000000E+03 0.  1.
   -9000007    1    1    2    0  503 -0.24977741793E+03 -0.26705501198E+03  0.47016134830E+03  0.71746695489E+03  0.40000000000E+03 0. -1.
<mgrwt>
<rscale>  2 0.54194754E+03</rscale>
<asrwt>0</asrwt>
<pdfrwt beam="1">  1       21 0.33855743E+00 0.54194754E+03</pdfrwt>
<pdfrwt beam="2">  1       21 0.26053858E-01 0.54194754E+03</pdfrwt>
<totfact> 0.21025167E+02</totfact>
</mgrwt>
</event>
<event>
 4    1  0.4703494E-002  0.4392045E+03  0.7818608E-02  0.1030991E+00
         21   -1    0    0  503  502  0.00000000000E+00  0.00000000000E+00  0.96492067779E+02  0.96492067779E+02  0.00000000000E+00 0.  1.
         21   -1    0    0  501  503 -0.00000000000E+00 -0.00000000000E+00 -0.33482572701E+04  0.33482572701E+04  0.00000000000E+00 0.  1.
    9000007    1    1    2  501    0 -0.15503830204E+03  0.94147400815E+02 -0.27191942568E+04  0.27544360610E+04  0.40000000000E+03 0.  1.
   -9000007    1    1    2    0  502  0.15503830204E+03 -0.94147400815E+02 -0.53257094559E+03  0.69031327690E+03  0.40000000000E+03 0.  1.
<mgrwt>
<rscale>  2 0.43920452E+03</rscale>
<asrwt>0</asrwt>
<pdfrwt beam="1">  1       21 0.14844932E-01 0.43920452E+03</pdfrwt>
<pdfrwt beam="2">  1       21 0.51511654E+00 0.43920452E+03</pdfrwt>
<totfact> 0.44103964E+01</totfact>
</mgrwt>
</event>
<event>
 4    1  0.4703494E-002  0.4034146E+03  0.7818608E-02  0.1042604E+00
         21   -1    0    0  503  502  0.00000000000E+00  0.00000000000E+00  0.18786150727E+03  0.18786150727E+03  0.00000000000E+00 0.  1.
         21   -1    0    0  501  503 -0.00000000000E+00 -0.00000000000E+00 -0.86821007309E+03  0.86821007309E+03  0.00000000000E+00 0.  1.
    9000007    1    1    2  501    0  0.47779674148E+02 -0.21457049674E+02 -0.31536846387E+03  0.51205524140E+03  0.40000000000E+03 0. -1.
   -9000007    1    1    2    0  502 -0.47779674148E+02  0.21457049674E+02 -0.36498010195E+03  0.54401633897E+03  0.40000000000E+03 0. -1.
<mgrwt>
<rscale>  2 0.40341455E+03</rscale>
<asrwt>0</asrwt>
<pdfrwt beam="1">  1       21 0.28901770E-01 0.40341455E+03</pdfrwt>
<pdfrwt beam="2">  1       21 0.13357078E+00 0.40341455E+03</pdfrwt>
<totfact> 0.40962270E+03</totfact>
</mgrwt>
</event>
<event>
 4    1  0.4703494E-002  0.4051873E+03  0.7818608E-02  0.1041998E+00
         21   -1    0    0  503  502  0.00000000000E+00  0.00000000000E+00  0.26800032107E+03  0.26800032107E+03  0.00000000000E+00 0. -1.
         21   -1    0    0  501  503 -0.00000000000E+00 -0.00000000000E+00 -0.16494618410E+04  0.16494618410E+04  0.00000000000E+00 0. -1.
    9000007    1    1    2  501    0  0.34498595257E+02  0.54649962259E+02 -0.14508579932E+04  0.15063750157E+04  0.40000000000E+03 0. -1.
   -9000007    1    1    2    0  502 -0.34498595257E+02 -0.54649962259E+02  0.69396473241E+02  0.41108714642E+03  0.40000000000E+03 0. -1.
<mgrwt>
<rscale>  2 0.40518733E+03</rscale>
<asrwt>0</asrwt>
<pdfrwt beam="1">  1       21 0.41230819E-01 0.40518733E+03</pdfrwt>
<pdfrwt beam="2">  1       21 0.25376336E+00 0.40518733E+03</pdfrwt>
<totfact> 0.29440892E+02</totfact>
</mgrwt>
</event>
<event>
 4    1  0.4703494E-002  0.4134084E+03  0.7818608E-02  0.1039233E+00
         21   -1    0    0  503  502  0.00000000000E+00  0.00000000000E+00  0.35407954467E+03  0.35407954467E+03  0.00000000000E+00 0.  1.
         21   -1    0    0  501  503 -0.00000000000E+00 -0.00000000000E+00 -0.10916445732E+04  0.10916445732E+04  0.00000000000E+00 0. -1.
    9000007    1    1    2  501    0  0.85833922213E+02 -0.59489755802E+02 -0.90868016798E+03  0.99830162823E+03  0.40000000000E+03 0. -1.
   -9000007    1    1    2    0  502 -0.85833922213E+02  0.59489755802E+02  0.17111513948E+03  0.44742248961E+03  0.40000000000E+03 0.  1.
<mgrwt>
<rscale>  2 0.41340839E+03</rscale>
<asrwt>0</asrwt>
<pdfrwt beam="1">  1       21 0.54473776E-01 0.41340839E+03</pdfrwt>
<pdfrwt beam="2">  1       21 0.16794532E+00 0.41340839E+03</pdfrwt>
<totfact> 0.59513574E+02</totfact>
</mgrwt>
</event>
<event>
 4    1  0.4703494E-002  0.4462516E+03  0.7818608E-02  0.1028846E+00
         21   -1    0    0  503  502  0.00000000000E+00  0.00000000000E+00  0.14541450180E+04  0.14541450180E+04  0.00000000000E+00 0. -1.
         21   -1    0    0  501  503 -0.00000000000E+00 -0.00000000000E+00 -0.14900860245E+03  0.14900860245E+03  0.00000000000E+00 0. -1.
    9000007    1    1    2  501    0 -0.18559310567E+03  0.68525322325E+02  0.42451015626E+03  0.61591346263E+03  0.40000000000E+03 0. -1.
   -9000007    1    1    2    0  502  0.18559310567E+03 -0.68525322325E+02  0.88062625923E+03  0.98724015778E+03  0.40000000000E+03 0. -1.
<mgrwt>
<rscale>  2 0.44625163E+03</rscale>
<asrwt>0</asrwt>
<pdfrwt beam="1">  1       21 0.22371461E+00 0.44625163E+03</pdfrwt>
<pdfrwt beam="2">  1       21 0.22924401E-01 0.44625163E+03</pdfrwt>
<totfact> 0.14245899E+03</totfact>
</mgrwt>
</event>
<event>
 4    1  0.4703494E-002  0.4082793E+03  0.7818608E-02  0.1040950E+00
         21   -1    0    0  501  502  0.00000000000E+00  0.00000000000E+00  0.96807418270E+03  0.96807418270E+03  0.00000000000E+00 0.  1.
         21   -1    0    0  502  503 -0.00000000000E+00 -0.00000000000E+00 -0.28104220656E+03  0.28104220656E+03  0.00000000000E+00 0.  1.
    9000007    1    1    2  501    0 -0.43690529629E+02  0.69160136554E+02 -0.45177453107E+02  0.41077121264E+03  0.40000000000E+03 0.  1.
   -9000007    1    1    2    0  503  0.43690529629E+02 -0.69160136554E+02  0.73220942925E+03  0.83834517662E+03  0.40000000000E+03 0.  1.
<mgrwt>
<rscale>  2 0.40827930E+03</rscale>
<asrwt>0</asrwt>
<pdfrwt beam="1">  1       21 0.14893449E+00 0.40827930E+03</pdfrwt>
<pdfrwt beam="2">  1       21 0.43237263E-01 0.40827930E+03</pdfrwt>
<totfact> 0.13550165E+03</totfact>
</mgrwt>
</event>
<event>
 4    1  0.4703494E-002  0.4246846E+03  0.7818608E-02  0.1035552E+00
         21   -1    0    0  501  502  0.00000000000E+00  0.00000000000E+00  0.75760053293E+03  0.75760053293E+03  0.00000000000E+00 0.  1.
         21   -1    0    0  502  503 -0.00000000000E+00 -0.00000000000E+00 -0.24856271460E+03  0.24856271460E+03  0.00000000000E+00 0.  1.
    9000007    1    1    2  501    0 -0.12950635066E+03  0.59875796972E+02  0.35791393547E+03  0.55539120549E+03  0.40000000000E+03 0.  1.
   -9000007    1    1    2    0  503  0.12950635066E+03 -0.59875796972E+02  0.15112388286E+03  0.45077204205E+03  0.40000000000E+03 0.  1.
<mgrwt>
<rscale>  2 0.42468460E+03</rscale>
<asrwt>0</asrwt>
<pdfrwt beam="1">  1       21 0.11655393E+00 0.42468460E+03</pdfrwt>
<pdfrwt beam="2">  1       21 0.38240418E-01 0.42468460E+03</pdfrwt>
<totfact> 0.32826000E+03</totfact>
</mgrwt>
</event>
<event>
 4    1  0.4703494E-002  0.4408021E+03  0.7818608E-02  0.1030501E+00
         21   -1    0    0  501  502  0.00000000000E+00  0.00000000000E+00  0.13150009441E+04  0.13150009441E+04  0.00000000000E+00 0. -1.
         21   -1    0    0  502  503 -0.00000000000E+00 -0.00000000000E+00 -0.17375422989E+03  0.17375422989E+03  0.00000000000E+00 0. -1.
    9000007    1    1    2  501    0 -0.46057684430E+02 -0.17940221853E+03  0.85853009737E+03  0.96508051187E+03  0.40000000000E+03 0. -1.
   -9000007    1    1    2    0  503  0.46057684430E+02  0.17940221853E+03  0.28271661684E+03  0.52367466212E+03  0.40000000000E+03 0. -1.
<mgrwt>
<rscale>  2 0.44080207E+03</rscale>
<asrwt>0</asrwt>
<pdfrwt beam="1">  1       21 0.20230783E+00 0.44080207E+03</pdfrwt>
<pdfrwt beam="2">  1       21 0.26731421E-01 0.44080207E+03</pdfrwt>
<totfact> 0.14582260E+03</totfact>
</mgrwt>
</event>
<event>
 4    1  0.4703494E-002  0.4727698E+03  0.7818608E-02  0.1021141E+00
         21   -1    0    0  503  502  0.00000000000E+00  0.00000000000E+00  0.83549113609E+03  0.83549113609E+03  0.00000000000E+00 0. -1.
         21   -1    0    0  501  503 -0.00000000000E+00 -0.00000000000E+00 -0.28463542223E+03  0.28463542223E+03  0.00000000000E+00 0.  1.
    9000007    1    1    2  501    0 -0.17336462772E+03  0.18290967293E+03  0.13809435165E+03  0.49252542326E+03  0.40000000000E+03 0. -1.
   -9000007    1    1    2    0  502  0.17336462772E+03 -0.18290967293E+03  0.41276136222E+03  0.62760113506E+03  0.40000000000E+03 0. -1.
<mgrwt>
<rscale>  2 0.47276976E+03</rscale>
<asrwt>0</asrwt>
<pdfrwt beam="1">  1       21 0.12853710E+00 0.47276976E+03</pdfrwt>
<pdfrwt beam="2">  1       21 0.43790065E-01 0.47276976E+03</pdfrwt>
<totfact> 0.18973541E+03</totfact>
</mgrwt>
</event>
<event>
 4    1  0.4703494E-002  0.4288849E+03  0.7818608E-02  0.1034213E+00
         21   -1    0    0  501  502  0.00000000000E+00  0.00000000000E+00  0.22346781041E+03  0.22346781041E+03  0.00000000000E+00 0. -1.
         21   -1    0    0  502  503 -0.00000000000E+00 -0.00000000000E+00 -0.11269768524E+04  0.11269768524E+04  0.00000000000E+00 0.  1.
    9000007    1    1    2  501    0 -0.15394297074E+03 -0.15615255160E+02 -0.10114865467E+03  0.44065102380E+03  0.40000000000E+03 0. -1.
   -9000007    1    1    2    0  503  0.15394297074E+03  0.15615255160E+02 -0.80236038731E+03  0.90979363900E+03  0.40000000000E+03 0. -1.
<mgrwt>
<rscale>  2 0.42888492E+03</rscale>
<asrwt>0</asrwt>
<pdfrwt beam="1">  1       21 0.34379664E-01 0.42888492E+03</pdfrwt>
<pdfrwt beam="2">  1       21 0.17338105E+00 0.42888492E+03</pdfrwt>
<totfact> 0.14064533E+03</totfact>
</mgrwt>
</event>
<event>
 4    1  0.4703494E-002  0.4786594E+03  0.7818608E-02  0.1019504E+00
         21   -1    0    0  503  502  0.00000000000E+00  0.00000000000E+00  0.98898594898E+03  0.98898594898E+03  0.00000000000E+00 0. -1.
         21   -1    0    0  501  503 -0.00000000000E+00 -0.00000000000E+00 -0.28248191261E+03  0.28248191261E+03  0.00000000000E+00 0. -1.
    9000007    1    1    2  501    0  0.25620078771E+03  0.58957827665E+02  0.83615948263E+02  0.48590790883E+03  0.40000000000E+03 0. -1.
   -9000007    1    1    2    0  502 -0.25620078771E+03 -0.58957827665E+02  0.62288808811E+03  0.78555995275E+03  0.40000000000E+03 0. -1.
<mgrwt>
<rscale>  2 0.47865945E+03</rscale>
<asrwt>0</asrwt>
<pdfrwt beam="1">  1       21 0.15215168E+00 0.47865945E+03</pdfrwt>
<pdfrwt beam="2">  1       21 0.43458756E-01 0.47865945E+03</pdfrwt>
<totfact> 0.12278338E+03</totfact>
</mgrwt>
</event>
<event>
 4    1  0.4703494E-002  0.4047496E+03  0.7818608E-02  0.1042147E+00
         21   -1    0    0  501  502  0.00000000000E+00  0.00000000000E+00  0.22370070950E+03  0.22370070950E+03  0.00000000000E+00 0.  1.
         21   -1    0    0  502  503 -0.00000000000E+00 -0.00000000000E+00 -0.11061520976E+04  0.11061520976E+04  0.00000000000E+00 0.  1.
    9000007    1    1    2  501    0 -0.14379289877E+02 -0.60129091221E+02 -0.54680873885E+02  0.40842657793E+03  0.40000000000E+03 0.  1.
   -9000007    1    1    2    0  503  0.14379289877E+02  0.60129091221E+02 -0.82777051420E+03  0.92142622915E+03  0.40000000000E+03 0.  1.
<mgrwt>
<rscale>  2 0.40474964E+03</rscale>
<asrwt>0</asrwt>
<pdfrwt beam="1">  1       21 0.34415493E-01 0.40474964E+03</pdfrwt>
<pdfrwt beam="2">  1       21 0.17017725E+00 0.40474964E+03</pdfrwt>
<totfact> 0.14965518E+03</totfact>
</mgrwt>
</event>
<event>
 4    1  0.4703494E-002  0.5089621E+03  0.7818608E-02  0.1011466E+00
         21   -1    0    0  501  502  0.00000000000E+00  0.00000000000E+00  0.36857715748E+03  0.36857715748E+03  0.00000000000E+00 0.  1.
         21   -1    0    0  502  503 -0.00000000000E+00 -0.00000000000E+00 -0.74813610051E+03  0.74813610051E+03  0.00000000000E+00 0.  1.
    9000007    1    1    2  501    0 -0.15083806117E+03  0.27620693347E+03 -0.52356059160E+02  0.51164787474E+03  0.40000000000E+03 0.  1.
   -9000007    1    1    2    0  503  0.15083806117E+03 -0.27620693347E+03 -0.32720288387E+03  0.60506538325E+03  0.40000000000E+03 0.  1.
<mgrwt>
<rscale>  2 0.50896207E+03</rscale>
<asrwt>0</asrwt>
<pdfrwt beam="1">  1       21 0.56704179E-01 0.50896207E+03</pdfrwt>
<pdfrwt beam="2">  1       21 0.11509786E+00 0.50896207E+03</pdfrwt>
<totfact> 0.14319969E+03</totfact>
</mgrwt>
</event>
<event>
 4    1  0.4703494E-002  0.5638667E+03  0.7818608E-02  0.9983343E-01
         21   -1    0    0  501  502  0.00000000000E+00  0.00000000000E+00  0.60961715386E+03  0.60961715386E+03  0.00000000000E+00 0. -1.
         21   -1    0    0  502  503 -0.00000000000E+00 -0.00000000000E+00 -0.86458509422E+03  0.86458509422E+03  0.00000000000E+00 0.  1.
    9000007    1    1    2  501    0 -0.60171882089E+02 -0.39284223268E+03 -0.59177750387E+03  0.81740215883E+03  0.40000000000E+03 0.  1.
   -9000007    1    1    2    0  503  0.60171882089E+02  0.39284223268E+03  0.33680956351E+03  0.65680008925E+03  0.40000000000E+03 0. -1.
<mgrwt>
<rscale>  2 0.56386672E+03</rscale>
<asrwt>0</asrwt>
<pdfrwt beam="1">  1       21 0.93787255E-01 0.56386672E+03</pdfrwt>
<pdfrwt beam="2">  1       21 0.13301309E+00 0.56386672E+03</pdfrwt>
<totfact> 0.30675455E+02</totfact>
</mgrwt>
</event>
<event>
 4    1  0.4703494E-002  0.5640558E+03  0.7818608E-02  0.9982919E-01
         21   -1    0    0  501  502  0.00000000000E+00  0.00000000000E+00  0.94845004119E+03  0.94845004119E+03  0.00000000000E+00 0.  1.
         21   -1    0    0  502  503 -0.00000000000E+00 -0.00000000000E+00 -0.44701730066E+03  0.44701730066E+03  0.00000000000E+00 0. -1.
    9000007    1    1    2  501    0 -0.35871181829E+03 -0.17171132624E+03  0.59928888750E+03  0.82298609880E+03  0.40000000000E+03 0.  1.
   -9000007    1    1    2    0  503  0.35871181829E+03  0.17171132624E+03 -0.97856146970E+02  0.57248124305E+03  0.40000000000E+03 0. -1.
<mgrwt>
<rscale>  2 0.56405580E+03</rscale>
<asrwt>0</asrwt>
<pdfrwt beam="1">  1       21 0.14591539E+00 0.56405580E+03</pdfrwt>
<pdfrwt beam="2">  1       21 0.68771892E-01 0.56405580E+03</pdfrwt>
<totfact> 0.49290664E+02</totfact>
</mgrwt>
</event>
<event>
 4    1  0.4703494E-002  0.4210603E+03  0.7818608E-02  0.1036722E+00
         21   -1    0    0  501  502  0.00000000000E+00  0.00000000000E+00  0.14588755750E+03  0.14588755750E+03  0.00000000000E+00 0. -1.
         21   -1    0    0  502  503 -0.00000000000E+00 -0.00000000000E+00 -0.13416332585E+04  0.13416332585E+04  0.00000000000E+00 0. -1.
    9000007    1    1    2  501    0 -0.66833433755E+02 -0.11324767829E+03 -0.36960820086E+03  0.56026954821E+03  0.40000000000E+03 0. -1.
   -9000007    1    1    2    0  503  0.66833433755E+02  0.11324767829E+03 -0.82613750017E+03  0.92725126783E+03  0.40000000000E+03 0. -1.
<mgrwt>
<rscale>  2 0.42106026E+03</rscale>
<asrwt>0</asrwt>
<pdfrwt beam="1">  1       21 0.22444239E-01 0.42106026E+03</pdfrwt>
<pdfrwt beam="2">  1       21 0.20640512E+00 0.42106026E+03</pdfrwt>
<totfact> 0.19410398E+03</totfact>
</mgrwt>
</event>
<event>
 4    1  0.4703494E-002  0.4514260E+03  0.7818608E-02  0.1027298E+00
         21   -1    0    0  503  502  0.00000000000E+00  0.00000000000E+00  0.28222895737E+03  0.28222895737E+03  0.00000000000E+00 0. -1.
         21   -1    0    0  501  503 -0.00000000000E+00 -0.00000000000E+00 -0.76619536392E+03  0.76619536392E+03  0.00000000000E+00 0. -1.
    9000007    1    1    2  501    0  0.14806616235E+03  0.14785743026E+03 -0.36780190679E+03  0.58229172307E+03  0.40000000000E+03 0. -1.
   -9000007    1    1    2    0  502 -0.14806616235E+03 -0.14785743026E+03 -0.11616449975E+03  0.46613259821E+03  0.40000000000E+03 0. -1.
<mgrwt>
<rscale>  2 0.45142597E+03</rscale>
<asrwt>0</asrwt>
<pdfrwt beam="1">  1       21 0.43419839E-01 0.45142597E+03</pdfrwt>
<pdfrwt beam="2">  1       21 0.11787621E+00 0.45142597E+03</pdfrwt>
<totfact> 0.24304326E+03</totfact>
</mgrwt>
</event>
<event>
 4    1  0.4703494E-002  0.4387996E+03  0.7818608E-02  0.1031116E+00
         21   -1    0    0  503  502  0.00000000000E+00  0.00000000000E+00  0.86210383589E+03  0.86210383589E+03  0.00000000000E+00 0. -1.
         21   -1    0    0  501  503 -0.00000000000E+00 -0.00000000000E+00 -0.23347238103E+03  0.23347238103E+03  0.00000000000E+00 0. -1.
    9000007    1    1    2  501    0 -0.12388414386E+03 -0.13114027720E+03  0.42841461617E+03  0.61325699079E+03  0.40000000000E+03 0. -1.
   -9000007    1    1    2    0  502  0.12388414386E+03  0.13114027720E+03  0.20021683869E+03  0.48231922614E+03  0.40000000000E+03 0. -1.
<mgrwt>
<rscale>  2 0.43879956E+03</rscale>
<asrwt>0</asrwt>
<pdfrwt beam="1">  1       21 0.13263136E+00 0.43879956E+03</pdfrwt>
<pdfrwt beam="2">  1       21 0.35918828E-01 0.43879956E+03</pdfrwt>
<totfact> 0.26636427E+03</totfact>
</mgrwt>
</event>
<event>
 4    1  0.4703494E-002  0.4018526E+03  0.7818608E-02  0.1043140E+00
         21   -1    0    0  503  502  0.00000000000E+00  0.00000000000E+00  0.34454130284E+03  0.34454130284E+03  0.00000000000E+00 0. -1.
         21   -1    0    0  501  503 -0.00000000000E+00 -0.00000000000E+00 -0.63589867987E+03  0.63589867987E+03  0.00000000000E+00 0. -1.
    9000007    1    1    2  501    0 -0.20749068465E+02  0.32479986928E+02 -0.39705096639E+03  0.56492029819E+03  0.40000000000E+03 0. -1.
   -9000007    1    1    2    0  502  0.20749068465E+02 -0.32479986928E+02  0.10569358936E+03  0.41551968452E+03  0.40000000000E+03 0. -1.
<mgrwt>
<rscale>  2 0.40185255E+03</rscale>
<asrwt>0</asrwt>
<pdfrwt beam="1">  1       21 0.53006354E-01 0.40185255E+03</pdfrwt>
<pdfrwt beam="2">  1       21 0.97830566E-01 0.40185255E+03</pdfrwt>
<totfact> 0.25742584E+03</totfact>
</mgrwt>
</event>
<event>
 4    1  0.4703494E-002  0.5333781E+03  0.7818608E-02  0.1005416E+00
         21   -1    0    0  503  502  0.00000000000E+00  0.00000000000E+00  0.85643944995E+03  0.85643944995E+03  0.00000000000E+00 0. -1.
         21   -1    0    0  501  503 -0.00000000000E+00 -0.00000000000E+00 -0.35841228112E+03  0.35841228112E+03  0.00000000000E+00 0. -1.
    9000007    1    1    2  501    0 -0.11481319141E+03  0.33363164715E+03  0.41334440137E+03  0.67479310832E+03  0.40000000000E+03 0. -1.
   -9000007    1    1    2    0  502  0.11481319141E+03 -0.33363164715E+03  0.84682767459E+02  0.54005862275E+03  0.40000000000E+03 0. -1.
<mgrwt>
<rscale>  2 0.53337805E+03</rscale>
<asrwt>0</asrwt>
<pdfrwt beam="1">  1       21 0.13175991E+00 0.53337805E+03</pdfrwt>
<pdfrwt beam="2">  1       21 0.55140351E-01 0.53337805E+03</pdfrwt>
<totfact> 0.10661192E+03</totfact>
</mgrwt>
</event>
<event>
 4    1  0.4703494E-002  0.4147779E+03  0.7818608E-02  0.1038779E+00
         21   -1    0    0  503  502  0.00000000000E+00  0.00000000000E+00  0.24364376597E+03  0.24364376597E+03  0.00000000000E+00 0. -1.
         21   -1    0    0  501  503 -0.00000000000E+00 -0.00000000000E+00 -0.71435814455E+03  0.71435814455E+03  0.00000000000E+00 0. -1.
    9000007    1    1    2  501    0 -0.10771804640E+03  0.20917986106E+02 -0.28680902198E+03  0.50428182076E+03  0.40000000000E+03 0. -1.
   -9000007    1    1    2    0  502  0.10771804640E+03 -0.20917986106E+02 -0.18390535660E+03  0.45372008976E+03  0.40000000000E+03 0. -1.
<mgrwt>
<rscale>  2 0.41477794E+03</rscale>
<asrwt>0</asrwt>
<pdfrwt beam="1">  1       21 0.37483656E-01 0.41477794E+03</pdfrwt>
<pdfrwt beam="2">  1       21 0.10990125E+00 0.41477794E+03</pdfrwt>
<totfact> 0.39727016E+03</totfact>
</mgrwt>
</event>
<event>
 4    1  0.4703494E-002  0.5085912E+03  0.7818608E-02  0.1011561E+00
         21   -1    0    0  501  502  0.00000000000E+00  0.00000000000E+00  0.12831308982E+04  0.12831308982E+04  0.00000000000E+00 0. -1.
         21   -1    0    0  502  503 -0.00000000000E+00 -0.00000000000E+00 -0.20669129337E+03  0.20669129337E+03  0.00000000000E+00 0.  1.
    9000007    1    1    2  501    0 -0.29783744388E+03  0.99788950779E+02  0.42118115846E+03  0.66034729190E+03  0.40000000000E+03 0.  1.
   -9000007    1    1    2    0  503  0.29783744388E+03 -0.99788950779E+02  0.65525844641E+03  0.82947489972E+03  0.40000000000E+03 0.  1.
<mgrwt>
<rscale>  2 0.50859117E+03</rscale>
<asrwt>0</asrwt>
<pdfrwt beam="1">  1       21 0.19740475E+00 0.50859117E+03</pdfrwt>
<pdfrwt beam="2">  1       21 0.31798661E-01 0.50859117E+03</pdfrwt>
<totfact> 0.10829981E+03</totfact>
</mgrwt>
</event>
<event>
 4    1  0.4703494E-002  0.4476031E+03  0.7818608E-02  0.1028439E+00
         21   -1    0    0  503  502  0.00000000000E+00  0.00000000000E+00  0.14579393032E+03  0.14579393032E+03  0.00000000000E+00 0. -1.
         21   -1    0    0  501  503 -0.00000000000E+00 -0.00000000000E+00 -0.19064392300E+04  0.19064392300E+04  0.00000000000E+00 0.  1.
    9000007    1    1    2  501    0  0.17599056100E+03 -0.96829198225E+02 -0.14225016778E+04  0.14912610753E+04  0.40000000000E+03 0.  1.
   -9000007    1    1    2    0  502 -0.17599056100E+03  0.96829198225E+02 -0.33814362182E+03  0.56097208501E+03  0.40000000000E+03 0. -1.
<mgrwt>
<rscale>  2 0.44760314E+03</rscale>
<asrwt>0</asrwt>
<pdfrwt beam="1">  1       21 0.22429836E-01 0.44760314E+03</pdfrwt>
<pdfrwt beam="2">  1       21 0.29329833E+00 0.44760314E+03</pdfrwt>
<totfact> 0.55656608E+02</totfact>
</mgrwt>
</event>
<event>
 4    1  0.4703494E-002  0.5207766E+03  0.7818608E-02  0.1008494E+00
         21   -1    0    0  503  502  0.00000000000E+00  0.00000000000E+00  0.69136896339E+03  0.69136896339E+03  0.00000000000E+00 0.  1.
         21   -1    0    0  501  503 -0.00000000000E+00 -0.00000000000E+00 -0.40240130778E+03  0.40240130778E+03  0.00000000000E+00 0. -1.
    9000007    1    1    2  501    0  0.10610166605E+03 -0.31614984559E+03  0.57738801772E+02  0.52396761124E+03  0.40000000000E+03 0.  1.
   -9000007    1    1    2    0  502 -0.10610166605E+03  0.31614984559E+03  0.23122885384E+03  0.56980265992E+03  0.40000000000E+03 0.  1.
<mgrwt>
<rscale>  2 0.52077662E+03</rscale>
<asrwt>0</asrwt>
<pdfrwt beam="1">  1       21 0.10636446E+00 0.52077662E+03</pdfrwt>
<pdfrwt beam="2">  1       21 0.61907894E-01 0.52077662E+03</pdfrwt>
<totfact> 0.14321694E+03</totfact>
</mgrwt>
</event>
<event>
 4    1  0.4703494E-002  0.7291369E+03  0.7818608E-02  0.9668662E-01
         21   -1    0    0  501  502  0.00000000000E+00  0.00000000000E+00  0.13186096572E+04  0.13186096572E+04  0.00000000000E+00 0. -1.
         21   -1    0    0  502  503 -0.00000000000E+00 -0.00000000000E+00 -0.42977325831E+03  0.42977325831E+03  0.00000000000E+00 0. -1.
    9000007    1    1    2  501    0 -0.59962141585E+03  0.10997598556E+03  0.66186391386E+03  0.98473570069E+03  0.40000000000E+03 0. -1.
   -9000007    1    1    2    0  503  0.59962141585E+03 -0.10997598556E+03  0.22697248503E+03  0.76364721482E+03  0.40000000000E+03 0. -1.
<mgrwt>
<rscale>  2 0.72913686E+03</rscale>
<asrwt>0</asrwt>
<pdfrwt beam="1">  1       21 0.20286302E+00 0.72913686E+03</pdfrwt>
<pdfrwt beam="2">  1       21 0.66118964E-01 0.72913686E+03</pdfrwt>
<totfact> 0.19514072E+02</totfact>
</mgrwt>
</event>
<event>
 4    1  0.4703494E-002  0.4222563E+03  0.7818608E-02  0.1036334E+00
         21   -1    0    0  501  502  0.00000000000E+00  0.00000000000E+00  0.51488167495E+03  0.51488167495E+03  0.00000000000E+00 0. -1.
         21   -1    0    0  502  503 -0.00000000000E+00 -0.00000000000E+00 -0.35702087531E+03  0.35702087531E+03  0.00000000000E+00 0.  1.
    9000007    1    1    2  501    0 -0.13026337564E+03 -0.36494560075E+02  0.15449686915E+03  0.44963283079E+03  0.40000000000E+03 0. -1.
   -9000007    1    1    2    0  503  0.13026337564E+03  0.36494560075E+02  0.33639304859E+01  0.42226971946E+03  0.40000000000E+03 0.  1.
<mgrwt>
<rscale>  2 0.42225632E+03</rscale>
<asrwt>0</asrwt>
<pdfrwt beam="1">  1       21 0.79212565E-01 0.42225632E+03</pdfrwt>
<pdfrwt beam="2">  1       21 0.54926289E-01 0.42225632E+03</pdfrwt>
<totfact> 0.38879258E+03</totfact>
</mgrwt>
</event>
<event>
 4    1  0.4703494E-002  0.5088679E+03  0.7818608E-02  0.1011490E+00
         21   -1    0    0  501  502  0.00000000000E+00  0.00000000000E+00  0.92380712947E+03  0.92380712947E+03  0.00000000000E+00 0. -1.
         21   -1    0    0  502  503 -0.00000000000E+00 -0.00000000000E+00 -0.56377394167E+03  0.56377394167E+03  0.00000000000E+00 0.  1.
    9000007    1    1    2  501    0 -0.26168365916E+03 -0.17455151868E+03  0.70743086169E+03  0.87143846267E+03  0.40000000000E+03 0. -1.
   -9000007    1    1    2    0  503  0.26168365916E+03  0.17455151868E+03 -0.34739767389E+03  0.61614260847E+03  0.40000000000E+03 0.  1.
<mgrwt>
<rscale>  2 0.50886793E+03</rscale>
<asrwt>0</asrwt>
<pdfrwt beam="1">  1       21 0.14212417E+00 0.50886793E+03</pdfrwt>
<pdfrwt beam="2">  1       21 0.86734453E-01 0.50886793E+03</pdfrwt>
<totfact> 0.31674262E+02</totfact>
</mgrwt>
</event>
<event>
 4    1  0.4703494E-002  0.4321478E+03  0.7818608E-02  0.1033184E+00
         21   -1    0    0  501  502  0.00000000000E+00  0.00000000000E+00  0.37441932535E+03  0.37441932535E+03  0.00000000000E+00 0. -1.
         21   -1    0    0  502  503 -0.00000000000E+00 -0.00000000000E+00 -0.53201607319E+03  0.53201607319E+03  0.00000000000E+00 0. -1.
    9000007    1    1    2  501    0  0.11448747733E+03 -0.11680889676E+03  0.34485934654E+02  0.43352160329E+03  0.40000000000E+03 0. -1.
   -9000007    1    1    2    0  503 -0.11448747733E+03  0.11680889676E+03 -0.19208268250E+03  0.47291379526E+03  0.40000000000E+03 0. -1.
<mgrwt>
<rscale>  2 0.43214778E+03</rscale>
<asrwt>0</asrwt>
<pdfrwt beam="1">  1       21 0.57602974E-01 0.43214778E+03</pdfrwt>
<pdfrwt beam="2">  1       21 0.81848626E-01 0.43214778E+03</pdfrwt>
<totfact> 0.32403154E+03</totfact>
</mgrwt>
</event>
<event>
 4    1  0.4703494E-002  0.4071989E+03  0.7818608E-02  0.1041315E+00
         21   -1    0    0  503  502  0.00000000000E+00  0.00000000000E+00  0.10865985879E+03  0.10865985879E+03  0.00000000000E+00 0.  1.
         21   -1    0    0  501  503 -0.00000000000E+00 -0.00000000000E+00 -0.37380519255E+04  0.37380519255E+04  0.00000000000E+00 0.  1.
    9000007    1    1    2  501    0 -0.25695191110E+02  0.71768580612E+02 -0.32942752927E+04  0.33193464230E+04  0.40000000000E+03 0.  1.
   -9000007    1    1    2    0  502  0.25695191110E+02 -0.71768580612E+02 -0.33511677397E+03  0.52736536121E+03  0.40000000000E+03 0.  1.
<mgrwt>
<rscale>  2 0.40719893E+03</rscale>
<asrwt>0</asrwt>
<pdfrwt beam="1">  1       21 0.16716904E-01 0.40719893E+03</pdfrwt>
<pdfrwt beam="2">  1       21 0.57508481E+00 0.40719893E+03</pdfrwt>
<totfact> 0.12955388E+01</totfact>
</mgrwt>
</event>
<event>
 4    1  0.4703494E-002  0.4881688E+03  0.7818608E-02  0.1016914E+00
         21   -1    0    0  503  502  0.00000000000E+00  0.00000000000E+00  0.42470293787E+03  0.42470293787E+03  0.00000000000E+00 0. -1.
         21   -1    0    0  501  503 -0.00000000000E+00 -0.00000000000E+00 -0.11235184286E+04  0.11235184286E+04  0.00000000000E+00 0.  1.
    9000007    1    1    2  501    0 -0.17328763741E+03 -0.21972744968E+03 -0.89709863231E+03  0.10213200838E+04  0.40000000000E+03 0.  1.
   -9000007    1    1    2    0  502  0.17328763741E+03  0.21972744968E+03  0.19828314162E+03  0.52690128267E+03  0.40000000000E+03 0. -1.
<mgrwt>
<rscale>  2 0.48816878E+03</rscale>
<asrwt>0</asrwt>
<pdfrwt beam="1">  1       21 0.65338913E-01 0.48816878E+03</pdfrwt>
<pdfrwt beam="2">  1       21 0.17284899E+00 0.48816878E+03</pdfrwt>
<totfact> 0.35524330E+02</totfact>
</mgrwt>
</event>
<event>
 4    1  0.4703494E-002  0.6161125E+03  0.7818608E-02  0.9872530E-01
         21   -1    0    0  501  502  0.00000000000E+00  0.00000000000E+00  0.11974500582E+04  0.11974500582E+04  0.00000000000E+00 0.  1.
         21   -1    0    0  502  503 -0.00000000000E+00 -0.00000000000E+00 -0.37834930058E+03  0.37834930058E+03  0.00000000000E+00 0. -1.
    9000007    1    1    2  501    0  0.25376684466E+03  0.39395048618E+03  0.72681424141E+03  0.95281348569E+03  0.40000000000E+03 0.  1.
   -9000007    1    1    2    0  503 -0.25376684466E+03 -0.39395048618E+03  0.92286516239E+02  0.62298587311E+03  0.40000000000E+03 0. -1.
<mgrwt>
<rscale>  2 0.61611249E+03</rscale>
<asrwt>0</asrwt>
<pdfrwt beam="1">  1       21 0.18422308E+00 0.61611249E+03</pdfrwt>
<pdfrwt beam="2">  1       21 0.58207585E-01 0.61611249E+03</pdfrwt>
<totfact> 0.36164682E+02</totfact>
</mgrwt>
</event>
<event>
 4    1  0.4703494E-002  0.4387995E+03  0.7818608E-02  0.1031116E+00
         21   -1    0    0  501  502  0.00000000000E+00  0.00000000000E+00  0.14459894626E+03  0.14459894626E+03  0.00000000000E+00 0.  1.
         21   -1    0    0  502  503 -0.00000000000E+00 -0.00000000000E+00 -0.20089254753E+04  0.20089254753E+04  0.00000000000E+00 0.  1.
    9000007    1    1    2  501    0 -0.17609264141E+03 -0.39197073130E+02 -0.30692854123E+03  0.53549057725E+03  0.40000000000E+03 0.  1.
   -9000007    1    1    2    0  503  0.17609264141E+03  0.39197073130E+02 -0.15573979878E+04  0.16180338443E+04  0.40000000000E+03 0.  1.
<mgrwt>
<rscale>  2 0.43879953E+03</rscale>
<asrwt>0</asrwt>
<pdfrwt beam="1">  1       21 0.22245992E-01 0.43879953E+03</pdfrwt>
<pdfrwt beam="2">  1       21 0.30906546E+00 0.43879953E+03</pdfrwt>
<totfact> 0.45692685E+02</totfact>
</mgrwt>
</event>
<event>
 4    1  0.4703494E-002  0.4101958E+03  0.7818608E-02  0.1040305E+00
         21   -1    0    0  501  502  0.00000000000E+00  0.00000000000E+00  0.71962333199E+02  0.71962333199E+02  0.00000000000E+00 0. -1.
         21   -1    0    0  502  503 -0.00000000000E+00 -0.00000000000E+00 -0.26611540438E+04  0.26611540438E+04  0.00000000000E+00 0. -1.
    9000007    1    1    2  501    0  0.23033280688E+02 -0.87920564732E+02 -0.81851576467E+03  0.91554825910E+03  0.40000000000E+03 0. -1.
   -9000007    1    1    2    0  503 -0.23033280688E+02  0.87920564732E+02 -0.17706759460E+04  0.18175681179E+04  0.40000000000E+03 0. -1.
<mgrwt>
<rscale>  2 0.41019576E+03</rscale>
<asrwt>0</asrwt>
<pdfrwt beam="1">  1       21 0.11071127E-01 0.41019576E+03</pdfrwt>
<pdfrwt beam="2">  1       21 0.40940835E+00 0.41019576E+03</pdfrwt>
<totfact> 0.40836023E+02</totfact>
</mgrwt>
</event>
<event>
 4    1  0.4703494E-002  0.4126748E+03  0.7818608E-02  0.1039477E+00
         21   -1    0    0  503  502  0.00000000000E+00  0.00000000000E+00  0.16761660303E+04  0.16761660303E+04  0.00000000000E+00 0.  1.
         21   -1    0    0  501  503 -0.00000000000E+00 -0.00000000000E+00 -0.31467424803E+03  0.31467424803E+03  0.00000000000E+00 0.  1.
    9000007    1    1    2  501    0 -0.97661094851E+02 -0.27619226591E+02 -0.13836002354E+03  0.43525165966E+03  0.40000000000E+03 0.  1.
   -9000007    1    1    2    0  502  0.97661094851E+02  0.27619226591E+02  0.14998518058E+04  0.15555886187E+04  0.40000000000E+03 0.  1.
<mgrwt>
<rscale>  2 0.41267482E+03</rscale>
<asrwt>0</asrwt>
<pdfrwt beam="1">  1       21 0.25787169E+00 0.41267482E+03</pdfrwt>
<pdfrwt beam="2">  1       21 0.48411424E-01 0.41267482E+03</pdfrwt>
<totfact> 0.19781770E+02</totfact>
</mgrwt>
</event>
<event>
 4    1  0.4703494E-002  0.6422373E+03  0.7818608E-02  0.9821455E-01
         21   -1    0    0  503  502  0.00000000000E+00  0.00000000000E+00  0.40226371544E+03  0.40226371544E+03  0.00000000000E+00 0. -1.
         21   -1    0    0  501  503 -0.00000000000E+00 -0.00000000000E+00 -0.11406092135E+04  0.11406092135E+04  0.00000000000E+00 0. -1.
    9000007    1    1    2  501    0  0.37437669939E+03  0.33512808732E+03 -0.61438023941E+03  0.88878109033E+03  0.40000000000E+03 0. -1.
   -9000007    1    1    2    0  502 -0.37437669939E+03 -0.33512808732E+03 -0.12396525863E+03  0.65409183858E+03  0.40000000000E+03 0. -1.
<mgrwt>
<rscale>  2 0.64223730E+03</rscale>
<asrwt>0</asrwt>
<pdfrwt beam="1">  1       21 0.61886726E-01 0.64223730E+03</pdfrwt>
<pdfrwt beam="2">  1       21 0.17547834E+00 0.64223730E+03</pdfrwt>
<totfact> 0.36151875E+02</totfact>
</mgrwt>
</event>
<event>
 4    1  0.4703494E-002  0.4721342E+03  0.7818608E-02  0.1021320E+00
         21   -1    0    0  501  502  0.00000000000E+00  0.00000000000E+00  0.10164478713E+04  0.10164478713E+04  0.00000000000E+00 0.  1.
         21   -1    0    0  502  503 -0.00000000000E+00 -0.00000000000E+00 -0.49819078537E+03  0.49819078537E+03  0.00000000000E+00 0.  1.
    9000007    1    1    2  501    0 -0.37413820803E+01  0.25079220052E+03  0.82575315982E+03  0.95119872095E+03  0.40000000000E+03 0.  1.
   -9000007    1    1    2    0  503  0.37413820803E+01 -0.25079220052E+03 -0.30749607385E+03  0.56343993576E+03  0.40000000000E+03 0.  1.
<mgrwt>
<rscale>  2 0.47213422E+03</rscale>
<asrwt>0</asrwt>
<pdfrwt beam="1">  1       21 0.15637659E+00 0.47213422E+03</pdfrwt>
<pdfrwt beam="2">  1       21 0.76644737E-01 0.47213422E+03</pdfrwt>
<totfact> 0.33094419E+02</totfact>
</mgrwt>
</event>
<event>
 4    1  0.4703494E-002  0.4837236E+03  0.7818608E-02  0.1018117E+00
         21   -1    0    0  501  502  0.00000000000E+00  0.00000000000E+00  0.14675645459E+03  0.14675645459E+03  0.00000000000E+00 0.  1.
         21   -1    0    0  502  503 -0.00000000000E+00 -0.00000000000E+00 -0.25466698078E+04  0.25466698078E+04  0.00000000000E+00 0.  1.
    9000007    1    1    2  501    0 -0.18593700508E+03 -0.19853459842E+03 -0.37644704902E+03  0.61294448146E+03  0.40000000000E+03 0.  1.
   -9000007    1    1    2    0  503  0.18593700508E+03  0.19853459842E+03 -0.20234663042E+04  0.20804817810E+04  0.40000000000E+03 0.  1.
<mgrwt>
<rscale>  2 0.48372364E+03</rscale>
<asrwt>0</asrwt>
<pdfrwt beam="1">  1       21 0.22577918E-01 0.48372364E+03</pdfrwt>
<pdfrwt beam="2">  1       21 0.39179533E+00 0.48372364E+03</pdfrwt>
<totfact> 0.13352805E+02</totfact>
</mgrwt>
</event>
<event>
 4    1  0.4703494E-002  0.5464451E+03  0.7818608E-02  0.1002320E+00
         21   -1    0    0  503  502  0.00000000000E+00  0.00000000000E+00  0.30818193416E+03  0.30818193416E+03  0.00000000000E+00 0. -1.
         21   -1    0    0  501  503 -0.00000000000E+00 -0.00000000000E+00 -0.13568810989E+04  0.13568810989E+04  0.00000000000E+00 0.  1.
    9000007    1    1    2  501    0 -0.11691022458E+03 -0.35346035446E+03 -0.96952015734E+03  0.11129112985E+04  0.40000000000E+03 0.  1.
   -9000007    1    1    2    0  502  0.11691022458E+03  0.35346035446E+03 -0.79179007389E+02  0.55215173457E+03  0.40000000000E+03 0. -1.
<mgrwt>
<rscale>  2 0.54644508E+03</rscale>
<asrwt>0</asrwt>
<pdfrwt beam="1">  1       21 0.47412605E-01 0.54644508E+03</pdfrwt>
<pdfrwt beam="2">  1       21 0.20875094E+00 0.54644508E+03</pdfrwt>
<totfact> 0.39359463E+02</totfact>
</mgrwt>
</event>
<event>
 4    1  0.4703494E-002  0.4793062E+03  0.7818608E-02  0.1019326E+00
         21   -1    0    0  503  502  0.00000000000E+00  0.00000000000E+00  0.34983192974E+03  0.34983192974E+03  0.00000000000E+00 0.  1.
         21   -1    0    0  501  503 -0.00000000000E+00 -0.00000000000E+00 -0.67366653139E+03  0.67366653139E+03  0.00000000000E+00 0. -1.
    9000007    1    1    2  501    0 -0.25873947503E+03  0.52804292222E+02 -0.24313286370E+03  0.53744580995E+03  0.40000000000E+03 0.  1.
   -9000007    1    1    2    0  502  0.25873947503E+03 -0.52804292222E+02 -0.80701737952E+02  0.48605265118E+03  0.40000000000E+03 0.  1.
<mgrwt>
<rscale>  2 0.47930617E+03</rscale>
<asrwt>0</asrwt>
<pdfrwt beam="1">  1       21 0.53820297E-01 0.47930617E+03</pdfrwt>
<pdfrwt beam="2">  1       21 0.10364100E+00 0.47930617E+03</pdfrwt>
<totfact> 0.21021437E+03</totfact>
</mgrwt>
</event>
<event>
 4    1  0.4703494E-002  0.4216417E+03  0.7818608E-02  0.1036533E+00
         21   -1    0    0  501  502  0.00000000000E+00  0.00000000000E+00  0.34366407266E+03  0.34366407266E+03  0.00000000000E+00 0.  1.
         21   -1    0    0  502  503 -0.00000000000E+00 -0.00000000000E+00 -0.91300043376E+03  0.91300043376E+03  0.00000000000E+00 0. -1.
    9000007    1    1    2  501    0 -0.89966254389E+02 -0.98426752980E+02  0.12897913824E+03  0.44092785207E+03  0.40000000000E+03 0.  1.
   -9000007    1    1    2    0  503  0.89966254389E+02  0.98426752980E+02 -0.69831549933E+03  0.81573665434E+03  0.40000000000E+03 0. -1.
<mgrwt>
<rscale>  2 0.42164173E+03</rscale>
<asrwt>0</asrwt>
<pdfrwt beam="1">  1       21 0.52871397E-01 0.42164173E+03</pdfrwt>
<pdfrwt beam="2">  1       21 0.14046160E+00 0.42164173E+03</pdfrwt>
<totfact> 0.10307780E+03</totfact>
</mgrwt>
</event>
<event>
 4    1  0.4703494E-002  0.4786411E+03  0.7818608E-02  0.1019509E+00
         21   -1    0    0  501  502  0.00000000000E+00  0.00000000000E+00  0.80734759396E+03  0.80734759396E+03  0.00000000000E+00 0. -1.
         21   -1    0    0  502  503 -0.00000000000E+00 -0.00000000000E+00 -0.53672742386E+03  0.53672742386E+03  0.00000000000E+00 0. -1.
    9000007    1    1    2  501    0  0.22165221981E+03  0.14130663120E+03  0.59667474931E+03  0.76493007983E+03  0.40000000000E+03 0. -1.
   -9000007    1    1    2    0  503 -0.22165221981E+03 -0.14130663120E+03 -0.32605457922E+03  0.57914493799E+03  0.40000000000E+03 0. -1.
<mgrwt>
<rscale>  2 0.47864107E+03</rscale>
<asrwt>0</asrwt>
<pdfrwt beam="1">  1       21 0.12420732E+00 0.47864107E+03</pdfrwt>
<pdfrwt beam="2">  1       21 0.82573450E-01 0.47864107E+03</pdfrwt>
<totfact> 0.51255112E+02</totfact>
</mgrwt>
</event>
<event>
 4    1  0.4703494E-002  0.4017222E+03  0.7818608E-02  0.1043185E+00
         21   -1    0    0  503  502  0.00000000000E+00  0.00000000000E+00  0.31480655785E+03  0.31480655785E+03  0.00000000000E+00 0.  1.
         21   -1    0    0  501  503 -0.00000000000E+00 -0.00000000000E+00 -0.51303148521E+03  0.51303148521E+03  0.00000000000E+00 0.  1.
    9000007    1    1    2  501    0  0.37157402060E+02  0.28366065658E+00 -0.87600680928E+02  0.41116253756E+03  0.40000000000E+03 0. -1.
   -9000007    1    1    2    0  502 -0.37157402060E+02 -0.28366065658E+00 -0.11062424643E+03  0.41667550551E+03  0.40000000000E+03 0. -1.
<mgrwt>
<rscale>  2 0.40172223E+03</rscale>
<asrwt>0</asrwt>
<pdfrwt beam="1">  1       21 0.48431779E-01 0.40172223E+03</pdfrwt>
<pdfrwt beam="2">  1       21 0.78927920E-01 0.40172223E+03</pdfrwt>
<totfact> 0.51661524E+03</totfact>
</mgrwt>
</event>
<event>
 4    1  0.4703494E-002  0.4504307E+03  0.7818608E-02  0.1027594E+00
         21   -1    0    0  503  502  0.00000000000E+00  0.00000000000E+00  0.40374575456E+03  0.40374575456E+03  0.00000000000E+00 0. -1.
         21   -1    0    0  501  503 -0.00000000000E+00 -0.00000000000E+00 -0.56728529232E+03  0.56728529232E+03  0.00000000000E+00 0. -1.
    9000007    1    1    2  501    0  0.10362796472E+03 -0.17930160326E+03 -0.24582657583E+03  0.51314571555E+03  0.40000000000E+03 0. -1.
   -9000007    1    1    2    0  502 -0.10362796472E+03  0.17930160326E+03  0.82287038073E+02  0.45788533132E+03  0.40000000000E+03 0. -1.
<mgrwt>
<rscale>  2 0.45043070E+03</rscale>
<asrwt>0</asrwt>
<pdfrwt beam="1">  1       21 0.62114732E-01 0.45043070E+03</pdfrwt>
<pdfrwt beam="2">  1       21 0.87274660E-01 0.45043070E+03</pdfrwt>
<totfact> 0.23488234E+03</totfact>
</mgrwt>
</event>
<event>
 4    1  0.4703494E-002  0.4578502E+03  0.7818608E-02  0.1025407E+00
         21   -1    0    0  501  502  0.00000000000E+00  0.00000000000E+00  0.14367224212E+03  0.14367224212E+03  0.00000000000E+00 0. -1.
         21   -1    0    0  502  503 -0.00000000000E+00 -0.00000000000E+00 -0.14608476087E+04  0.14608476087E+04  0.00000000000E+00 0.  1.
    9000007    1    1    2  501    0 -0.22263220078E+03 -0.78557016391E+01 -0.68663047030E+03  0.82528068656E+03  0.40000000000E+03 0. -1.
   -9000007    1    1    2    0  503  0.22263220078E+03  0.78557016391E+01 -0.63054489627E+03  0.77923916424E+03  0.40000000000E+03 0.  1.
<mgrwt>
<rscale>  2 0.45785020E+03</rscale>
<asrwt>0</asrwt>
<pdfrwt beam="1">  1       21 0.22103422E-01 0.45785020E+03</pdfrwt>
<pdfrwt beam="2">  1       21 0.22474579E+00 0.45785020E+03</pdfrwt>
<totfact> 0.14973849E+03</totfact>
</mgrwt>
</event>
<event>
 4    1  0.4703494E-002  0.4082468E+03  0.7818608E-02  0.1040961E+00
         21   -1    0    0  501  502  0.00000000000E+00  0.00000000000E+00  0.23532251759E+04  0.23532251759E+04  0.00000000000E+00 0.  1.
         21   -1    0    0  502  503 -0.00000000000E+00 -0.00000000000E+00 -0.79151281426E+02  0.79151281426E+02  0.00000000000E+00 0.  1.
    9000007    1    1    2  501    0 -0.78718309355E+02  0.21654247708E+02  0.74256498452E+03  0.84738906938E+03  0.40000000000E+03 0.  1.
   -9000007    1    1    2    0  503  0.78718309355E+02 -0.21654247708E+02  0.15315089100E+04  0.15849873879E+04  0.40000000000E+03 0.  1.
<mgrwt>
<rscale>  2 0.40824684E+03</rscale>
<asrwt>0</asrwt>
<pdfrwt beam="1">  1       21 0.36203459E+00 0.40824684E+03</pdfrwt>
<pdfrwt beam="2">  1       21 0.12177122E-01 0.40824684E+03</pdfrwt>
<totfact> 0.68464493E+02</totfact>
</mgrwt>
</event>
<event>
 4    1  0.4703494E-002  0.5277348E+03  0.7818608E-02  0.1006783E+00
         21   -1    0    0  503  502  0.00000000000E+00  0.00000000000E+00  0.42773460353E+03  0.42773460353E+03  0.00000000000E+00 0. -1.
         21   -1    0    0  501  503 -0.00000000000E+00 -0.00000000000E+00 -0.75732874291E+03  0.75732874291E+03  0.00000000000E+00 0.  1.
    9000007    1    1    2  501    0  0.17803596214E+02 -0.34378344699E+03 -0.38669925055E+03  0.65424791695E+03  0.40000000000E+03 0.  1.
   -9000007    1    1    2    0  502 -0.17803596214E+02  0.34378344699E+03  0.57105111169E+02  0.53081542949E+03  0.40000000000E+03 0.  1.
<mgrwt>
<rscale>  2 0.52773481E+03</rscale>
<asrwt>0</asrwt>
<pdfrwt beam="1">  1       21 0.65805324E-01 0.52773481E+03</pdfrwt>
<pdfrwt beam="2">  1       21 0.11651211E+00 0.52773481E+03</pdfrwt>
<totfact> 0.99357029E+02</totfact>
</mgrwt>
</event>
<event>
 4    1  0.4703494E-002  0.5399590E+03  0.7818608E-02  0.1003845E+00
         21   -1    0    0  501  502  0.00000000000E+00  0.00000000000E+00  0.15698880719E+04  0.15698880719E+04  0.00000000000E+00 0. -1.
         21   -1    0    0  502  503 -0.00000000000E+00 -0.00000000000E+00 -0.23767689262E+03  0.23767689262E+03  0.00000000000E+00 0.  1.
    9000007    1    1    2  501    0  0.24327516150E+03 -0.26902219802E+03  0.24353203566E+03  0.59233740353E+03  0.40000000000E+03 0.  1.
   -9000007    1    1    2    0  503 -0.24327516150E+03  0.26902219802E+03  0.10886791436E+04  0.12152275610E+04  0.40000000000E+03 0. -1.
<mgrwt>
<rscale>  2 0.53995902E+03</rscale>
<asrwt>0</asrwt>
<pdfrwt beam="1">  1       21 0.24152124E+00 0.53995902E+03</pdfrwt>
<pdfrwt beam="2">  1       21 0.36565677E-01 0.53995902E+03</pdfrwt>
<totfact> 0.41797370E+02</totfact>
</mgrwt>
</event>
<event>
 4    1  0.4703494E-002  0.7293355E+03  0.7818608E-02  0.9668339E-01
         21   -1    0    0  503  502  0.00000000000E+00  0.00000000000E+00  0.71612714923E+03  0.71612714923E+03  0.00000000000E+00 0. -1.
         21   -1    0    0  501  503 -0.00000000000E+00 -0.00000000000E+00 -0.80686616915E+03  0.80686616915E+03  0.00000000000E+00 0. -1.
    9000007    1    1    2  501    0 -0.55828867243E+03 -0.24544665340E+03 -0.25996666480E+03  0.77428222776E+03  0.40000000000E+03 0. -1.
   -9000007    1    1    2    0  502  0.55828867243E+03  0.24544665340E+03  0.16922764489E+03  0.74871109062E+03  0.40000000000E+03 0. -1.
<mgrwt>
<rscale>  2 0.72933552E+03</rscale>
<asrwt>0</asrwt>
<pdfrwt beam="1">  1       21 0.11017341E+00 0.72933552E+03</pdfrwt>
<pdfrwt beam="2">  1       21 0.12413326E+00 0.72933552E+03</pdfrwt>
<totfact> 0.23398999E+02</totfact>
</mgrwt>
</event>
<event>
 4    1  0.4703494E-002  0.4118757E+03  0.7818608E-02  0.1039743E+00
         21   -1    0    0  503  502  0.00000000000E+00  0.00000000000E+00  0.17087565422E+03  0.17087565422E+03  0.00000000000E+00 0. -1.
         21   -1    0    0  501  503 -0.00000000000E+00 -0.00000000000E+00 -0.99437370031E+03  0.99437370031E+03  0.00000000000E+00 0. -1.
    9000007    1    1    2  501    0 -0.58649217476E+02  0.78751756590E+02 -0.43508929695E+03  0.59911957588E+03  0.40000000000E+03 0. -1.
   -9000007    1    1    2    0  502  0.58649217476E+02 -0.78751756590E+02 -0.38840874914E+03  0.56612977866E+03  0.40000000000E+03 0. -1.
<mgrwt>
<rscale>  2 0.41187567E+03</rscale>
<asrwt>0</asrwt>
<pdfrwt beam="1">  1       21 0.26288563E-01 0.41187567E+03</pdfrwt>
<pdfrwt beam="2">  1       21 0.15298057E+00 0.41187567E+03</pdfrwt>
<totfact> 0.34242662E+03</totfact>
</mgrwt>
</event>
<event>
 4    1  0.4703494E-002  0.4773757E+03  0.7818608E-02  0.1019859E+00
         21   -1    0    0  503  502  0.00000000000E+00  0.00000000000E+00  0.12407813945E+04  0.12407813945E+04  0.00000000000E+00 0. -1.
         21   -1    0    0  501  503 -0.00000000000E+00 -0.00000000000E+00 -0.31877777878E+03  0.31877777878E+03  0.00000000000E+00 0. -1.
    9000007    1    1    2  501    0 -0.18750711784E+03 -0.18091061538E+03 -0.46662651646E+02  0.47965088664E+03  0.40000000000E+03 0. -1.
   -9000007    1    1    2    0  502  0.18750711784E+03  0.18091061538E+03  0.96866626736E+03  0.10799082866E+04  0.40000000000E+03 0. -1.
<mgrwt>
<rscale>  2 0.47737571E+03</rscale>
<asrwt>0</asrwt>
<pdfrwt beam="1">  1       21 0.19088944E+00 0.47737571E+03</pdfrwt>
<pdfrwt beam="2">  1       21 0.49042736E-01 0.47737571E+03</pdfrwt>
<totfact> 0.49742732E+02</totfact>
</mgrwt>
</event>
<event>
 4    1  0.4703494E-002  0.4590787E+03  0.7818608E-02  0.1025049E+00
         21   -1    0    0  503  502  0.00000000000E+00  0.00000000000E+00  0.14685933826E+04  0.14685933826E+04  0.00000000000E+00 0.  1.
         21   -1    0    0  501  503 -0.00000000000E+00 -0.00000000000E+00 -0.16836823706E+03  0.16836823706E+03  0.00000000000E+00 0. -1.
    9000007    1    1    2  501    0 -0.22288855655E+03 -0.32771554537E+02  0.33559808071E+03  0.56866453661E+03  0.40000000000E+03 0. -1.
   -9000007    1    1    2    0  502  0.22288855655E+03  0.32771554537E+02  0.96462706485E+03  0.10682970831E+04  0.40000000000E+03 0.  1.
<mgrwt>
<rscale>  2 0.45907873E+03</rscale>
<asrwt>0</asrwt>
<pdfrwt beam="1">  1       21 0.22593744E+00 0.45907873E+03</pdfrwt>
<pdfrwt beam="2">  1       21 0.25902807E-01 0.45907873E+03</pdfrwt>
<totfact> 0.10815205E+03</totfact>
</mgrwt>
</event>
<event>
 4    1  0.4703494E-002  0.5117788E+03  0.7818608E-02  0.1010749E+00
         21   -1    0    0  503  502  0.00000000000E+00  0.00000000000E+00  0.17544405173E+04  0.17544405173E+04  0.00000000000E+00 0. -1.
         21   -1    0    0  501  503 -0.00000000000E+00 -0.00000000000E+00 -0.17614595692E+03  0.17614595692E+03  0.00000000000E+00 0.  1.
    9000007    1    1    2  501    0 -0.29991682553E+03  0.10939566634E+03  0.41222079562E+03  0.65714800341E+03  0.40000000000E+03 0.  1.
   -9000007    1    1    2    0  502  0.29991682553E+03 -0.10939566634E+03  0.11660737648E+04  0.12734384708E+04  0.40000000000E+03 0. -1.
<mgrwt>
<rscale>  2 0.51177877E+03</rscale>
<asrwt>0</asrwt>
<pdfrwt beam="1">  1       21 0.26991391E+00 0.51177877E+03</pdfrwt>
<pdfrwt beam="2">  1       21 0.27099379E-01 0.51177877E+03</pdfrwt>
<totfact> 0.51600957E+02</totfact>
</mgrwt>
</event>
<event>
 4    1  0.4703494E-002  0.4585761E+03  0.7818608E-02  0.1025195E+00
         21   -1    0    0  503  502  0.00000000000E+00  0.00000000000E+00  0.64060935277E+03  0.64060935277E+03  0.00000000000E+00 0.  1.
         21   -1    0    0  501  503 -0.00000000000E+00 -0.00000000000E+00 -0.43880025157E+03  0.43880025157E+03  0.00000000000E+00 0.  1.
    9000007    1    1    2  501    0 -0.99608291645E+02  0.20092350374E+03 -0.16996848645E+03  0.48906170624E+03  0.40000000000E+03 0.  1.
   -9000007    1    1    2    0  502  0.99608291645E+02 -0.20092350374E+03  0.37177758765E+03  0.59034789811E+03  0.40000000000E+03 0.  1.
<mgrwt>
<rscale>  2 0.45857613E+03</rscale>
<asrwt>0</asrwt>
<pdfrwt beam="1">  1       21 0.98555285E-01 0.45857613E+03</pdfrwt>
<pdfrwt beam="2">  1       21 0.67507731E-01 0.45857613E+03</pdfrwt>
<totfact> 0.14564230E+03</totfact>
</mgrwt>
</event>
<event>
 4    1  0.4703494E-002  0.4664545E+03  0.7818608E-02  0.1022926E+00
         21   -1    0    0  503  502  0.00000000000E+00  0.00000000000E+00  0.32751719849E+03  0.32751719849E+03  0.00000000000E+00 0.  1.
         21   -1    0    0  501  503 -0.00000000000E+00 -0.00000000000E+00 -0.67316684558E+03  0.67316684558E+03  0.00000000000E+00 0.  1.
    9000007    1    1    2  501    0 -0.79779916931E+02  0.22630724432E+03 -0.23014816271E+03  0.52014226974E+03  0.40000000000E+03 0.  1.
   -9000007    1    1    2    0  502  0.79779916931E+02 -0.22630724432E+03 -0.11550148439E+03  0.48054177432E+03  0.40000000000E+03 0.  1.
<mgrwt>
<rscale>  2 0.46645450E+03</rscale>
<asrwt>0</asrwt>
<pdfrwt beam="1">  1       21 0.50387261E-01 0.46645450E+03</pdfrwt>
<pdfrwt beam="2">  1       21 0.10356413E+00 0.46645450E+03</pdfrwt>
<totfact> 0.24365638E+03</totfact>
</mgrwt>
</event>
<event>
 4    1  0.4703494E-002  0.4423069E+03  0.7818608E-02  0.1030041E+00
         21   -1    0    0  501  502  0.00000000000E+00  0.00000000000E+00  0.16355856605E+04  0.16355856605E+04  0.00000000000E+00 0.  1.
         21   -1    0    0  502  503 -0.00000000000E+00 -0.00000000000E+00 -0.12140423984E+03  0.12140423984E+03  0.00000000000E+00 0. -1.
    9000007    1    1    2  501    0 -0.16797423954E+03 -0.86139541702E+02  0.86383461595E+03  0.97048730518E+03  0.40000000000E+03 0.  1.
   -9000007    1    1    2    0  503  0.16797423954E+03  0.86139541702E+02  0.65034680472E+03  0.78650259517E+03  0.40000000000E+03 0. -1.
<mgrwt>
<rscale>  2 0.44230687E+03</rscale>
<asrwt>0</asrwt>
<pdfrwt beam="1">  1       21 0.25162855E+00 0.44230687E+03</pdfrwt>
<pdfrwt beam="2">  1       21 0.18677576E-01 0.44230687E+03</pdfrwt>
<totfact> 0.14143064E+03</totfact>
</mgrwt>
</event>
<event>
 4    1  0.4703494E-002  0.4375328E+03  0.7818608E-02  0.1031506E+00
         21   -1    0    0  503  502  0.00000000000E+00  0.00000000000E+00  0.10387304618E+04  0.10387304618E+04  0.00000000000E+00 0.  1.
         21   -1    0    0  501  503 -0.00000000000E+00 -0.00000000000E+00 -0.18920888537E+03  0.18920888537E+03  0.00000000000E+00 0.  1.
    9000007    1    1    2  501    0 -0.60462258653E+02  0.16667109572E+03  0.32583740735E+03  0.54553180924E+03  0.40000000000E+03 0.  1.
   -9000007    1    1    2    0  502  0.60462258653E+02 -0.16667109572E+03  0.52368416907E+03  0.68240753792E+03  0.40000000000E+03 0.  1.
<mgrwt>
<rscale>  2 0.43753279E+03</rscale>
<asrwt>0</asrwt>
<pdfrwt beam="1">  1       21 0.15980468E+00 0.43753279E+03</pdfrwt>
<pdfrwt beam="2">  1       21 0.29109060E-01 0.43753279E+03</pdfrwt>
<totfact> 0.24594968E+03</totfact>
</mgrwt>
</event>
<event>
 4    1  0.4703494E-002  0.4660536E+03  0.7818608E-02  0.1023040E+00
         21   -1    0    0  501  502  0.00000000000E+00  0.00000000000E+00  0.91254458969E+03  0.91254458969E+03  0.00000000000E+00 0.  1.
         21   -1    0    0  502  503 -0.00000000000E+00 -0.00000000000E+00 -0.55181918342E+03  0.55181918342E+03  0.00000000000E+00 0. -1.
    9000007    1    1    2  501    0 -0.23907327623E+03  0.70672911901E+01  0.73249720273E+03  0.86819244987E+03  0.40000000000E+03 0.  1.
   -9000007    1    1    2    0  503  0.23907327623E+03 -0.70672911901E+01 -0.37177179646E+03  0.59617132324E+03  0.40000000000E+03 0. -1.
<mgrwt>
<rscale>  2 0.46605362E+03</rscale>
<asrwt>0</asrwt>
<pdfrwt beam="1">  1       21 0.14039148E+00 0.46605362E+03</pdfrwt>
<pdfrwt beam="2">  1       21 0.84895259E-01 0.46605362E+03</pdfrwt>
<totfact> 0.35081004E+02</totfact>
</mgrwt>
</event>
<event>
 4    1  0.4703494E-002  0.4464349E+03  0.7818608E-02  0.1028791E+00
         21   -1    0    0  501  502  0.00000000000E+00  0.00000000000E+00  0.72047789616E+03  0.72047789616E+03  0.00000000000E+00 0. -1.
         21   -1    0    0  502  503 -0.00000000000E+00 -0.00000000000E+00 -0.31810928899E+03  0.31810928899E+03  0.00000000000E+00 0. -1.
    9000007    1    1    2  501    0 -0.19813717224E+03 -0.67685404777E+01  0.38870638562E+03  0.59194324591E+03  0.40000000000E+03 0. -1.
   -9000007    1    1    2    0  503  0.19813717224E+03  0.67685404777E+01  0.13662221559E+02  0.44664393924E+03  0.40000000000E+03 0. -1.
<mgrwt>
<rscale>  2 0.44643494E+03</rscale>
<asrwt>0</asrwt>
<pdfrwt beam="1">  1       21 0.11084275E+00 0.44643494E+03</pdfrwt>
<pdfrwt beam="2">  1       21 0.48939891E-01 0.44643494E+03</pdfrwt>
<totfact> 0.22079724E+03</totfact>
</mgrwt>
</event>
<event>
 4    1  0.4703494E-002  0.5604732E+03  0.7818608E-02  0.9990985E-01
         21   -1    0    0  503  502  0.00000000000E+00  0.00000000000E+00  0.65163939615E+03  0.65163939615E+03  0.00000000000E+00 0.  1.
         21   -1    0    0  501  503 -0.00000000000E+00 -0.00000000000E+00 -0.51787959725E+03  0.51787959725E+03  0.00000000000E+00 0. -1.
    9000007    1    1    2  501    0  0.31550671589E+03  0.23363578086E+03 -0.86905483546E+02  0.56717081108E+03  0.40000000000E+03 0. -1.
   -9000007    1    1    2    0  502 -0.31550671589E+03 -0.23363578086E+03  0.22066528245E+03  0.60234818232E+03  0.40000000000E+03 0. -1.
<mgrwt>
<rscale>  2 0.56047316E+03</rscale>
<asrwt>0</asrwt>
<pdfrwt beam="1">  1       21 0.10025221E+00 0.56047316E+03</pdfrwt>
<pdfrwt beam="2">  1       21 0.79673784E-01 0.56047316E+03</pdfrwt>
<totfact> 0.92381948E+02</totfact>
</mgrwt>
</event>
<event>
 4    1  0.4703494E-002  0.4877424E+03  0.7818608E-02  0.1017029E+00
         21   -1    0    0  501  502  0.00000000000E+00  0.00000000000E+00  0.11215415200E+04  0.11215415200E+04  0.00000000000E+00 0. -1.
         21   -1    0    0  502  503 -0.00000000000E+00 -0.00000000000E+00 -0.22938199011E+03  0.22938199011E+03  0.00000000000E+00 0. -1.
    9000007    1    1    2  501    0  0.21416600435E+03  0.17895690044E+03  0.26074174514E+03  0.55306320371E+03  0.40000000000E+03 0. -1.
   -9000007    1    1    2    0  503 -0.21416600435E+03 -0.17895690044E+03  0.63141778477E+03  0.79786030642E+03  0.40000000000E+03 0. -1.
<mgrwt>
<rscale>  2 0.48774240E+03</rscale>
<asrwt>0</asrwt>
<pdfrwt beam="1">  1       21 0.17254485E+00 0.48774240E+03</pdfrwt>
<pdfrwt beam="2">  1       21 0.35289537E-01 0.48774240E+03</pdfrwt>
<totfact> 0.13195599E+03</totfact>
</mgrwt>
</event>
<event>
 4    1  0.4703494E-002  0.4011171E+03  0.7818608E-02  0.1043394E+00
         21   -1    0    0  501  502  0.00000000000E+00  0.00000000000E+00  0.59829218276E+03  0.59829218276E+03  0.00000000000E+00 0.  1.
         21   -1    0    0  502  503 -0.00000000000E+00 -0.00000000000E+00 -0.40555814830E+03  0.40555814830E+03  0.00000000000E+00 0.  1.
    9000007    1    1    2  501    0 -0.10557126546E+02  0.27989999428E+02  0.38770201134E+03  0.55785996682E+03  0.40000000000E+03 0.  1.
   -9000007    1    1    2    0  503  0.10557126546E+02 -0.27989999428E+02 -0.19496797687E+03  0.44599036424E+03  0.40000000000E+03 0.  1.
<mgrwt>
<rscale>  2 0.40111706E+03</rscale>
<asrwt>0</asrwt>
<pdfrwt beam="1">  1       21 0.92044952E-01 0.40111706E+03</pdfrwt>
<pdfrwt beam="2">  1       21 0.62393561E-01 0.40111706E+03</pdfrwt>
<totfact> 0.20910547E+03</totfact>
</mgrwt>
</event>
<event>
 4    1  0.4703494E-002  0.4168199E+03  0.7818608E-02  0.1038106E+00
         21   -1    0    0  501  502  0.00000000000E+00  0.00000000000E+00  0.90097231795E+03  0.90097231795E+03  0.00000000000E+00 0. -1.
         21   -1    0    0  502  503 -0.00000000000E+00 -0.00000000000E+00 -0.32356282799E+03  0.32356282799E+03  0.00000000000E+00 0. -1.
    9000007    1    1    2  501    0  0.98132822887E+02 -0.64100020091E+02  0.67788089402E+03  0.79577721127E+03  0.40000000000E+03 0. -1.
   -9000007    1    1    2    0  503 -0.98132822887E+02  0.64100020091E+02 -0.10047140406E+03  0.42875793466E+03  0.40000000000E+03 0. -1.
<mgrwt>
<rscale>  2 0.41681994E+03</rscale>
<asrwt>0</asrwt>
<pdfrwt beam="1">  1       21 0.13861113E+00 0.41681994E+03</pdfrwt>
<pdfrwt beam="2">  1       21 0.49778897E-01 0.41681994E+03</pdfrwt>
<totfact> 0.12167412E+03</totfact>
</mgrwt>
</event>
<event>
 4    1  0.4703494E-002  0.4272837E+03  0.7818608E-02  0.1034721E+00
         21   -1    0    0  501  502  0.00000000000E+00  0.00000000000E+00  0.88045777306E+02  0.88045777306E+02  0.00000000000E+00 0. -1.
         21   -1    0    0  502  503 -0.00000000000E+00 -0.00000000000E+00 -0.22026385108E+04  0.22026385108E+04  0.00000000000E+00 0.  1.
    9000007    1    1    2  501    0  0.47829635069E+02 -0.14242089436E+03 -0.13345196939E+04  0.14012545088E+04  0.40000000000E+03 0.  1.
   -9000007    1    1    2    0  503 -0.47829635069E+02  0.14242089436E+03 -0.78007303960E+03  0.88942977927E+03  0.40000000000E+03 0.  1.
<mgrwt>
<rscale>  2 0.42728373E+03</rscale>
<asrwt>0</asrwt>
<pdfrwt beam="1">  1       21 0.13545505E-01 0.42728373E+03</pdfrwt>
<pdfrwt beam="2">  1       21 0.33886745E+00 0.42728373E+03</pdfrwt>
<totfact> 0.77179956E+02</totfact>
</mgrwt>
</event>
<event>
 4    1  0.4703494E-002  0.8105306E+03  0.7818608E-02  0.9544898E-01
         21   -1    0    0  501  502  0.00000000000E+00  0.00000000000E+00  0.84852638357E+03  0.84852638357E+03  0.00000000000E+00 0.  1.
         21   -1    0    0  502  503 -0.00000000000E+00 -0.00000000000E+00 -0.77434822769E+03  0.77434822769E+03  0.00000000000E+00 0.  1.
    9000007    1    1    2  501    0  0.69931765938E+03  0.88964285891E+02  0.46849581410E+02  0.81188343754E+03  0.40000000000E+03 0.  1.
   -9000007    1    1    2    0  503 -0.69931765938E+03 -0.88964285891E+02  0.27328574469E+02  0.81099117373E+03  0.40000000000E+03 0.  1.
<mgrwt>
<rscale>  2 0.81053059E+03</rscale>
<asrwt>0</asrwt>
<pdfrwt beam="1">  1       21 0.13054252E+00 0.81053059E+03</pdfrwt>
<pdfrwt beam="2">  1       21 0.11913050E+00 0.81053059E+03</pdfrwt>
<totfact> 0.16436111E+02</totfact>
</mgrwt>
</event>
<event>
 4    1  0.4703494E-002  0.6129167E+03  0.7818608E-02  0.9878965E-01
         21   -1    0    0  503  502  0.00000000000E+00  0.00000000000E+00  0.44479625433E+03  0.44479625433E+03  0.00000000000E+00 0.  1.
         21   -1    0    0  501  503 -0.00000000000E+00 -0.00000000000E+00 -0.12705142431E+04  0.12705142431E+04  0.00000000000E+00 0.  1.
    9000007    1    1    2  501    0  0.41361964202E+03 -0.21115318297E+03 -0.90944363156E+03  0.10967016887E+04  0.40000000000E+03 0.  1.
   -9000007    1    1    2    0  502 -0.41361964202E+03  0.21115318297E+03  0.83725642847E+02  0.61860880871E+03  0.40000000000E+03 0.  1.
<mgrwt>
<rscale>  2 0.61291669E+03</rscale>
<asrwt>0</asrwt>
<pdfrwt beam="1">  1       21 0.68430193E-01 0.61291669E+03</pdfrwt>
<pdfrwt beam="2">  1       21 0.19546373E+00 0.61291669E+03</pdfrwt>
<totfact> 0.21107428E+02</totfact>
</mgrwt>
</event>
<event>
 4    1  0.4703494E-002  0.4985383E+03  0.7818608E-02  0.1014161E+00
         21   -1    0    0  501  502  0.00000000000E+00  0.00000000000E+00  0.90343812184E+03  0.90343812184E+03  0.00000000000E+00 0.  1.
         21   -1    0    0  502  503 -0.00000000000E+00 -0.00000000000E+00 -0.34247332594E+03  0.34247332594E+03  0.00000000000E+00 0. -1.
    9000007    1    1    2  501    0  0.26153271337E+03 -0.14191937059E+03  0.55677626339E+03  0.74735552141E+03  0.40000000000E+03 0.  1.
   -9000007    1    1    2    0  503 -0.26153271337E+03  0.14191937059E+03  0.41885325111E+01  0.49855592637E+03  0.40000000000E+03 0. -1.
<mgrwt>
<rscale>  2 0.49853833E+03</rscale>
<asrwt>0</asrwt>
<pdfrwt beam="1">  1       21 0.13899048E+00 0.49853833E+03</pdfrwt>
<pdfrwt beam="2">  1       21 0.52688204E-01 0.49853833E+03</pdfrwt>
<totfact> 0.10344589E+03</totfact>
</mgrwt>
</event>
<event>
 4    1  0.4703494E-002  0.4586324E+03  0.7818608E-02  0.1025179E+00
         21   -1    0    0  503  502  0.00000000000E+00  0.00000000000E+00  0.72420760690E+03  0.72420760690E+03  0.00000000000E+00 0. -1.
         21   -1    0    0  501  503 -0.00000000000E+00 -0.00000000000E+00 -0.32021318736E+03  0.32021318736E+03  0.00000000000E+00 0.  1.
    9000007    1    1    2  501    0 -0.10537638349E+03  0.19808956940E+03  0.36121449096E+03  0.58379754040E+03  0.40000000000E+03 0. -1.
   -9000007    1    1    2    0  502  0.10537638349E+03 -0.19808956940E+03  0.42779928591E+02  0.46062325386E+03  0.40000000000E+03 0.  1.
<mgrwt>
<rscale>  2 0.45863238E+03</rscale>
<asrwt>0</asrwt>
<pdfrwt beam="1">  1       21 0.11141655E+00 0.45863238E+03</pdfrwt>
<pdfrwt beam="2">  1       21 0.49263567E-01 0.45863238E+03</pdfrwt>
<totfact> 0.21397285E+03</totfact>
</mgrwt>
</event>
<event>
 4    1  0.4703494E-002  0.4274966E+03  0.7818608E-02  0.1034654E+00
         21   -1    0    0  501  502  0.00000000000E+00  0.00000000000E+00  0.55478671971E+03  0.55478671971E+03  0.00000000000E+00 0.  1.
         21   -1    0    0  502  503 -0.00000000000E+00 -0.00000000000E+00 -0.43494863733E+03  0.43494863733E+03  0.00000000000E+00 0.  1.
    9000007    1    1    2  501    0 -0.14993103612E+03  0.16553665136E+02  0.30368438610E+03  0.52438301439E+03  0.40000000000E+03 0.  1.
   -9000007    1    1    2    0  503  0.14993103612E+03 -0.16553665136E+02 -0.18384630372E+03  0.46535234265E+03  0.40000000000E+03 0.  1.
<mgrwt>
<rscale>  2 0.42749660E+03</rscale>
<asrwt>0</asrwt>
<pdfrwt beam="1">  1       21 0.85351803E-01 0.42749660E+03</pdfrwt>
<pdfrwt beam="2">  1       21 0.66915175E-01 0.42749660E+03</pdfrwt>
<totfact> 0.21165002E+03</totfact>
</mgrwt>
</event>
<event>
 4    1  0.4703494E-002  0.4129516E+03  0.7818608E-02  0.1039385E+00
         21   -1    0    0  501  502  0.00000000000E+00  0.00000000000E+00  0.33910067934E+03  0.33910067934E+03  0.00000000000E+00 0. -1.
         21   -1    0    0  502  503 -0.00000000000E+00 -0.00000000000E+00 -0.53289262780E+03  0.53289262780E+03  0.00000000000E+00 0. -1.
    9000007    1    1    2  501    0 -0.91800334199E+02  0.45844775205E+02 -0.20035552863E+03  0.45898952344E+03  0.40000000000E+03 0. -1.
   -9000007    1    1    2    0  503  0.91800334199E+02 -0.45844775205E+02  0.65635801734E+01  0.41300378371E+03  0.40000000000E+03 0. -1.
<mgrwt>
<rscale>  2 0.41295163E+03</rscale>
<asrwt>0</asrwt>
<pdfrwt beam="1">  1       21 0.52169335E-01 0.41295163E+03</pdfrwt>
<pdfrwt beam="2">  1       21 0.81983481E-01 0.41295163E+03</pdfrwt>
<totfact> 0.40244415E+03</totfact>
</mgrwt>
</event>
<event>
 4    1  0.4703494E-002  0.4216235E+03  0.7818608E-02  0.1036539E+00
         21   -1    0    0  501  502  0.00000000000E+00  0.00000000000E+00  0.81023013794E+03  0.81023013794E+03  0.00000000000E+00 0. -1.
         21   -1    0    0  502  503 -0.00000000000E+00 -0.00000000000E+00 -0.69315287878E+03  0.69315287878E+03  0.00000000000E+00 0. -1.
    9000007    1    1    2  501    0 -0.50104479488E+02  0.12351468132E+03  0.67997979289E+03  0.80008677911E+03  0.40000000000E+03 0. -1.
   -9000007    1    1    2    0  503  0.50104479488E+02 -0.12351468132E+03 -0.56290253373E+03  0.70329623761E+03  0.40000000000E+03 0. -1.
<mgrwt>
<rscale>  2 0.42162345E+03</rscale>
<asrwt>0</asrwt>
<pdfrwt beam="1">  1       21 0.12465079E+00 0.42162345E+03</pdfrwt>
<pdfrwt beam="2">  1       21 0.10663890E+00 0.42162345E+03</pdfrwt>
<totfact> 0.28283784E+02</totfact>
</mgrwt>
</event>
<event>
 4    1  0.4703494E-002  0.4345455E+03  0.7818608E-02  0.1032434E+00
         21   -1    0    0  501  502  0.00000000000E+00  0.00000000000E+00  0.17028964669E+04  0.17028964669E+04  0.00000000000E+00 0. -1.
         21   -1    0    0  502  503 -0.00000000000E+00 -0.00000000000E+00 -0.23461863532E+03  0.23461863532E+03  0.00000000000E+00 0. -1.
    9000007    1    1    2  501    0  0.51537940704E+02 -0.16178266854E+03  0.14376541278E+04  0.15018918677E+04  0.40000000000E+03 0. -1.
   -9000007    1    1    2    0  503 -0.51537940704E+02  0.16178266854E+03  0.30623703742E+02  0.43562323446E+03  0.40000000000E+03 0. -1.
<mgrwt>
<rscale>  2 0.43454550E+03</rscale>
<asrwt>0</asrwt>
<pdfrwt beam="1">  1       21 0.26198406E+00 0.43454550E+03</pdfrwt>
<pdfrwt beam="2">  1       21 0.36095176E-01 0.43454550E+03</pdfrwt>
<totfact> 0.33853203E+02</totfact>
</mgrwt>
</event>
<event>
 4    1  0.4703494E-002  0.5456551E+03  0.7818608E-02  0.1002505E+00
         21   -1    0    0  503  502  0.00000000000E+00  0.00000000000E+00  0.14100679743E+03  0.14100679743E+03  0.00000000000E+00 0. -1.
         21   -1    0    0  501  503 -0.00000000000E+00 -0.00000000000E+00 -0.24342299321E+04  0.24342299321E+04  0.00000000000E+00 0. -1.
    9000007    1    1    2  501    0 -0.36001367846E+03 -0.90164333191E+02 -0.16154344422E+04  0.17051005521E+04  0.40000000000E+03 0. -1.
   -9000007    1    1    2    0  502  0.36001367846E+03  0.90164333191E+02 -0.67778869241E+03  0.87013617740E+03  0.40000000000E+03 0. -1.
<mgrwt>
<rscale>  2 0.54565507E+03</rscale>
<asrwt>0</asrwt>
<pdfrwt beam="1">  1       21 0.21693355E-01 0.54565507E+03</pdfrwt>
<pdfrwt beam="2">  1       21 0.37449688E+00 0.54565507E+03</pdfrwt>
<totfact> 0.17912200E+02</totfact>
</mgrwt>
</event>
<event>
 4    1  0.4703494E-002  0.4784356E+03  0.7818608E-02  0.1019566E+00
         21   -1    0    0  501  502  0.00000000000E+00  0.00000000000E+00  0.15087771721E+04  0.15087771721E+04  0.00000000000E+00 0.  1.
         21   -1    0    0  502  503 -0.00000000000E+00 -0.00000000000E+00 -0.16238378278E+03  0.16238378278E+03  0.00000000000E+00 0.  1.
    9000007    1    1    2  501    0  0.17264204002E+03  0.19772544999E+03  0.45899563307E+03  0.66300649977E+03  0.40000000000E+03 0.  1.
   -9000007    1    1    2    0  503 -0.17264204002E+03 -0.19772544999E+03  0.88739775626E+03  0.10081544551E+04  0.40000000000E+03 0.  1.
<mgrwt>
<rscale>  2 0.47843560E+03</rscale>
<asrwt>0</asrwt>
<pdfrwt beam="1">  1       21 0.23211956E+00 0.47843560E+03</pdfrwt>
<pdfrwt beam="2">  1       21 0.24982121E-01 0.47843560E+03</pdfrwt>
<totfact> 0.10514444E+03</totfact>
</mgrwt>
</event>
<event>
 4    1  0.4703494E-002  0.5460677E+03  0.7818608E-02  0.1002408E+00
         21   -1    0    0  501  502  0.00000000000E+00  0.00000000000E+00  0.75969510269E+03  0.75969510269E+03  0.00000000000E+00 0. -1.
         21   -1    0    0  502  503 -0.00000000000E+00 -0.00000000000E+00 -0.66370233137E+03  0.66370233137E+03  0.00000000000E+00 0. -1.
    9000007    1    1    2  501    0  0.16299788769E+03  0.33409821607E+03  0.50292798188E+03  0.74237893580E+03  0.40000000000E+03 0. -1.
   -9000007    1    1    2    0  503 -0.16299788769E+03 -0.33409821607E+03 -0.40693521056E+03  0.68101849826E+03  0.40000000000E+03 0. -1.
<mgrwt>
<rscale>  2 0.54606770E+03</rscale>
<asrwt>0</asrwt>
<pdfrwt beam="1">  1       21 0.11687617E+00 0.54606770E+03</pdfrwt>
<pdfrwt beam="2">  1       21 0.10210805E+00 0.54606770E+03</pdfrwt>
<totfact> 0.35090334E+02</totfact>
</mgrwt>
</event>
<event>
 4    1  0.4703494E-002  0.6450766E+03  0.7818608E-02  0.9816062E-01
         21   -1    0    0  501  502  0.00000000000E+00  0.00000000000E+00  0.74943736108E+03  0.74943736108E+03  0.00000000000E+00 0. -1.
         21   -1    0    0  502  503 -0.00000000000E+00 -0.00000000000E+00 -0.58416683663E+03  0.58416683663E+03  0.00000000000E+00 0. -1.
    9000007    1    1    2  501    0  0.40278651270E+03 -0.30640960241E+03 -0.65724688214E+02  0.64841618881E+03  0.40000000000E+03 0. -1.
   -9000007    1    1    2    0  503 -0.40278651270E+03  0.30640960241E+03  0.23099521267E+03  0.68518800890E+03  0.40000000000E+03 0. -1.
<mgrwt>
<rscale>  2 0.64507660E+03</rscale>
<asrwt>0</asrwt>
<pdfrwt beam="1">  1       21 0.11529806E+00 0.64507660E+03</pdfrwt>
<pdfrwt beam="2">  1       21 0.89871821E-01 0.64507660E+03</pdfrwt>
<totfact> 0.47813354E+02</totfact>
</mgrwt>
</event>
<event>
 4    1  0.4703494E-002  0.4793939E+03  0.7818608E-02  0.1019302E+00
         21   -1    0    0  503  502  0.00000000000E+00  0.00000000000E+00  0.32363171375E+03  0.32363171375E+03  0.00000000000E+00 0.  1.
         21   -1    0    0  501  503 -0.00000000000E+00 -0.00000000000E+00 -0.79356576486E+03  0.79356576486E+03  0.00000000000E+00 0. -1.
    9000007    1    1    2  501    0  0.25509004204E+03 -0.68902794312E+02 -0.53832509589E+02  0.48240694823E+03  0.40000000000E+03 0.  1.
   -9000007    1    1    2    0  502 -0.25509004204E+03  0.68902794312E+02 -0.41610154151E+03  0.63479053038E+03  0.40000000000E+03 0. -1.
<mgrwt>
<rscale>  2 0.47939391E+03</rscale>
<asrwt>0</asrwt>
<pdfrwt beam="1">  1       21 0.49789494E-01 0.47939391E+03</pdfrwt>
<pdfrwt beam="2">  1       21 0.12208704E+00 0.47939391E+03</pdfrwt>
<totfact> 0.16486363E+03</totfact>
</mgrwt>
</event>
<event>
 4    1  0.4703494E-002  0.5406931E+03  0.7818608E-02  0.1003671E+00
         21   -1    0    0  501  502  0.00000000000E+00  0.00000000000E+00  0.52478527792E+03  0.52478527792E+03  0.00000000000E+00 0. -1.
         21   -1    0    0  502  503 -0.00000000000E+00 -0.00000000000E+00 -0.13478096450E+04  0.13478096450E+04  0.00000000000E+00 0. -1.
    9000007    1    1    2  501    0  0.16503027636E+03 -0.32421293647E+03  0.30564230269E+03  0.62110082715E+03  0.40000000000E+03 0. -1.
   -9000007    1    1    2    0  503 -0.16503027636E+03  0.32421293647E+03 -0.11286666697E+04  0.12514940957E+04  0.40000000000E+03 0. -1.
<mgrwt>
<rscale>  2 0.54069309E+03</rscale>
<asrwt>0</asrwt>
<pdfrwt beam="1">  1       21 0.80736197E-01 0.54069309E+03</pdfrwt>
<pdfrwt beam="2">  1       21 0.20735533E+00 0.54069309E+03</pdfrwt>
<totfact> 0.12394664E+02</totfact>
</mgrwt>
</event>
<event>
 4    1  0.4703494E-002  0.4031780E+03  0.7818608E-02  0.1042685E+00
         21   -1    0    0  501  502  0.00000000000E+00  0.00000000000E+00  0.13615289491E+04  0.13615289491E+04  0.00000000000E+00 0.  1.
         21   -1    0    0  502  503 -0.00000000000E+00 -0.00000000000E+00 -0.34857682529E+03  0.34857682529E+03  0.00000000000E+00 0.  1.
    9000007    1    1    2  501    0  0.28716788373E+02 -0.41567476813E+02  0.11998042348E+04  0.12657340601E+04  0.40000000000E+03 0.  1.
   -9000007    1    1    2    0  503 -0.28716788373E+02  0.41567476813E+02 -0.18685211101E+03  0.44437171428E+03  0.40000000000E+03 0.  1.
<mgrwt>
<rscale>  2 0.40317801E+03</rscale>
<asrwt>0</asrwt>
<pdfrwt beam="1">  1       21 0.20946599E+00 0.40317801E+03</pdfrwt>
<pdfrwt beam="2">  1       21 0.53627205E-01 0.40317801E+03</pdfrwt>
<totfact> 0.32119424E+02</totfact>
</mgrwt>
</event>
<event>
 4    1  0.4703494E-002  0.4731345E+03  0.7818608E-02  0.1021039E+00
         21   -1    0    0  503  502  0.00000000000E+00  0.00000000000E+00  0.59775177114E+03  0.59775177114E+03  0.00000000000E+00 0.  1.
         21   -1    0    0  501  503 -0.00000000000E+00 -0.00000000000E+00 -0.44270057243E+03  0.44270057243E+03  0.00000000000E+00 0. -1.
    9000007    1    1    2  501    0  0.11063783329E+03 -0.22719049747E+03  0.28171851868E+03  0.55065558751E+03  0.40000000000E+03 0.  1.
   -9000007    1    1    2    0  502 -0.11063783329E+03  0.22719049747E+03 -0.12666731997E+03  0.48979675606E+03  0.40000000000E+03 0.  1.
<mgrwt>
<rscale>  2 0.47313450E+03</rscale>
<asrwt>0</asrwt>
<pdfrwt beam="1">  1       21 0.91961812E-01 0.47313450E+03</pdfrwt>
<pdfrwt beam="2">  1       21 0.68107780E-01 0.47313450E+03</pdfrwt>
<totfact> 0.16767736E+03</totfact>
</mgrwt>
</event>
<event>
 4    1  0.4703494E-002  0.5033232E+03  0.7818608E-02  0.1012915E+00
         21   -1    0    0  501  502  0.00000000000E+00  0.00000000000E+00  0.17689928997E+03  0.17689928997E+03  0.00000000000E+00 0. -1.
         21   -1    0    0  502  503 -0.00000000000E+00 -0.00000000000E+00 -0.16541106799E+04  0.16541106799E+04  0.00000000000E+00 0. -1.
    9000007    1    1    2  501    0 -0.11742671525E+03  0.28203757249E+03 -0.40319004788E+03  0.64490033374E+03  0.40000000000E+03 0. -1.
   -9000007    1    1    2    0  503  0.11742671525E+03 -0.28203757249E+03 -0.10740213420E+04  0.11861096361E+04  0.40000000000E+03 0. -1.
<mgrwt>
<rscale>  2 0.50332318E+03</rscale>
<asrwt>0</asrwt>
<pdfrwt beam="1">  1       21 0.27215277E-01 0.50332318E+03</pdfrwt>
<pdfrwt beam="2">  1       21 0.25447855E+00 0.50332318E+03</pdfrwt>
<totfact> 0.63841205E+02</totfact>
</mgrwt>
</event>
<event>
 4    1  0.4703494E-002  0.5085092E+03  0.7818608E-02  0.1011581E+00
         21   -1    0    0  503  502  0.00000000000E+00  0.00000000000E+00  0.77844409257E+03  0.77844409257E+03  0.00000000000E+00 0. -1.
         21   -1    0    0  501  503 -0.00000000000E+00 -0.00000000000E+00 -0.35827907606E+03  0.35827907606E+03  0.00000000000E+00 0.  1.
    9000007    1    1    2  501    0 -0.27723169007E+03 -0.14739132074E+03  0.56674733092E+02  0.51165773402E+03  0.40000000000E+03 0.  1.
   -9000007    1    1    2    0  502  0.27723169007E+03  0.14739132074E+03  0.36349028341E+03  0.62506543461E+03  0.40000000000E+03 0. -1.
<mgrwt>
<rscale>  2 0.50850920E+03</rscale>
<asrwt>0</asrwt>
<pdfrwt beam="1">  1       21 0.11976063E+00 0.50850920E+03</pdfrwt>
<pdfrwt beam="2">  1       21 0.55119858E-01 0.50850920E+03</pdfrwt>
<totfact> 0.13776406E+03</totfact>
</mgrwt>
</event>
<event>
 4    1  0.4703494E-002  0.4252748E+03  0.7818608E-02  0.1035363E+00
         21   -1    0    0  501  502  0.00000000000E+00  0.00000000000E+00  0.14388454337E+03  0.14388454337E+03  0.00000000000E+00 0.  1.
         21   -1    0    0  502  503 -0.00000000000E+00 -0.00000000000E+00 -0.13052096836E+04  0.13052096836E+04  0.00000000000E+00 0. -1.
    9000007    1    1    2  501    0 -0.45519619040E+02  0.13706435335E+03 -0.44137094205E+03  0.61291678160E+03  0.40000000000E+03 0.  1.
   -9000007    1    1    2    0  503  0.45519619040E+02 -0.13706435335E+03 -0.71995419821E+03  0.83617744540E+03  0.40000000000E+03 0. -1.
<mgrwt>
<rscale>  2 0.42527482E+03</rscale>
<asrwt>0</asrwt>
<pdfrwt beam="1">  1       21 0.22136084E-01 0.42527482E+03</pdfrwt>
<pdfrwt beam="2">  1       21 0.20080149E+00 0.42527482E+03</pdfrwt>
<totfact> 0.21661523E+03</totfact>
</mgrwt>
</event>
<event>
 4    1  0.4703494E-002  0.4095510E+03  0.7818608E-02  0.1040522E+00
         21   -1    0    0  501  502  0.00000000000E+00  0.00000000000E+00  0.13258608012E+04  0.13258608012E+04  0.00000000000E+00 0.  1.
         21   -1    0    0  502  503 -0.00000000000E+00 -0.00000000000E+00 -0.12909720257E+03  0.12909720257E+03  0.00000000000E+00 0.  1.
    9000007    1    1    2  501    0  0.74356835282E+02 -0.46936848481E+02  0.70140725064E+03  0.81222172955E+03  0.40000000000E+03 0.  1.
   -9000007    1    1    2    0  503 -0.74356835282E+02  0.46936848481E+02  0.49535634794E+03  0.64273627417E+03  0.40000000000E+03 0.  1.
<mgrwt>
<rscale>  2 0.40955098E+03</rscale>
<asrwt>0</asrwt>
<pdfrwt beam="1">  1       21 0.20397858E+00 0.40955098E+03</pdfrwt>
<pdfrwt beam="2">  1       21 0.19861109E-01 0.40955098E+03</pdfrwt>
<totfact> 0.25567238E+03</totfact>
</mgrwt>
</event>
<event>
 4    1  0.4703494E-002  0.4146728E+03  0.7818608E-02  0.1038814E+00
         21   -1    0    0  501  502  0.00000000000E+00  0.00000000000E+00  0.19917819866E+04  0.19917819866E+04  0.00000000000E+00 0. -1.
         21   -1    0    0  502  503 -0.00000000000E+00 -0.00000000000E+00 -0.99893174006E+02  0.99893174006E+02  0.00000000000E+00 0. -1.
    9000007    1    1    2  501    0 -0.10402311233E+03 -0.33655964859E+02  0.13312922604E+04  0.13943789350E+04  0.40000000000E+03 0. -1.
   -9000007    1    1    2    0  503  0.10402311233E+03  0.33655964859E+02  0.56059655222E+03  0.69729622560E+03  0.40000000000E+03 0. -1.
<mgrwt>
<rscale>  2 0.41467280E+03</rscale>
<asrwt>0</asrwt>
<pdfrwt beam="1">  1       21 0.30642797E+00 0.41467280E+03</pdfrwt>
<pdfrwt beam="2">  1       21 0.15368182E-01 0.41467280E+03</pdfrwt>
<totfact> 0.96616292E+02</totfact>
</mgrwt>
</event>
<event>
 4    1  0.4703494E-002  0.5124848E+03  0.7818608E-02  0.1010571E+00
         21   -1    0    0  501  502  0.00000000000E+00  0.00000000000E+00  0.15346820793E+04  0.15346820793E+04  0.00000000000E+00 0. -1.
         21   -1    0    0  502  503 -0.00000000000E+00 -0.00000000000E+00 -0.17482488115E+03  0.17482488115E+03  0.00000000000E+00 0. -1.
    9000007    1    1    2  501    0 -0.31958826884E+03 -0.22449564708E+02  0.80407582450E+03  0.95350856109E+03  0.40000000000E+03 0.  1.
   -9000007    1    1    2    0  503  0.31958826884E+03  0.22449564708E+02  0.55578137364E+03  0.75599839935E+03  0.40000000000E+03 0.  1.
<mgrwt>
<rscale>  2 0.51248477E+03</rscale>
<asrwt>0</asrwt>
<pdfrwt beam="1">  1       21 0.23610493E+00 0.51248477E+03</pdfrwt>
<pdfrwt beam="2">  1       21 0.26896137E-01 0.51248477E+03</pdfrwt>
<totfact> 0.84624876E+02</totfact>
</mgrwt>
</event>
<event>
 4    1  0.4703494E-002  0.4993638E+03  0.7818608E-02  0.1013945E+00
         21   -1    0    0  501  502  0.00000000000E+00  0.00000000000E+00  0.14031961261E+04  0.14031961261E+04  0.00000000000E+00 0.  1.
         21   -1    0    0  502  503 -0.00000000000E+00 -0.00000000000E+00 -0.26288524588E+03  0.26288524588E+03  0.00000000000E+00 0. -1.
    9000007    1    1    2  501    0 -0.30895725599E+02 -0.29733765125E+03  0.10443272519E+04  0.11575766211E+04  0.40000000000E+03 0.  1.
   -9000007    1    1    2    0  503  0.30895725599E+02  0.29733765125E+03  0.95983628291E+02  0.50850475082E+03  0.40000000000E+03 0. -1.
<mgrwt>
<rscale>  2 0.49936382E+03</rscale>
<asrwt>0</asrwt>
<pdfrwt beam="1">  1       21 0.21587632E+00 0.49936382E+03</pdfrwt>
<pdfrwt beam="2">  1       21 0.40443885E-01 0.49936382E+03</pdfrwt>
<totfact> 0.50320961E+02</totfact>
</mgrwt>
</event>
<event>
 4    1  0.4703494E-002  0.8090061E+03  0.7818608E-02  0.9547072E-01
         21   -1    0    0  503  502  0.00000000000E+00  0.00000000000E+00  0.44229273452E+03  0.44229273452E+03  0.00000000000E+00 0. -1.
         21   -1    0    0  501  503 -0.00000000000E+00 -0.00000000000E+00 -0.14823074974E+04  0.14823074974E+04  0.00000000000E+00 0. -1.
    9000007    1    1    2  501    0 -0.39184100963E+03  0.58391049645E+03 -0.55983412156E+03  0.98382167508E+03  0.40000000000E+03 0. -1.
   -9000007    1    1    2    0  502  0.39184100963E+03 -0.58391049645E+03 -0.48018064130E+03  0.94077855682E+03  0.40000000000E+03 0. -1.
<mgrwt>
<rscale>  2 0.80900608E+03</rscale>
<asrwt>0</asrwt>
<pdfrwt beam="1">  1       21 0.68045034E-01 0.80900608E+03</pdfrwt>
<pdfrwt beam="2">  1       21 0.22804731E+00 0.80900608E+03</pdfrwt>
<totfact> 0.12169760E+02</totfact>
</mgrwt>
</event>
<event>
 4    1  0.4703494E-002  0.4996920E+03  0.7818608E-02  0.1013859E+00
         21   -1    0    0  503  502  0.00000000000E+00  0.00000000000E+00  0.24227212295E+04  0.24227212295E+04  0.00000000000E+00 0. -1.
         21   -1    0    0  501  503 -0.00000000000E+00 -0.00000000000E+00 -0.19191841392E+03  0.19191841392E+03  0.00000000000E+00 0. -1.
    9000007    1    1    2  501    0  0.29418506122E+03 -0.56099961554E+02  0.22585965010E+03  0.54836542330E+03  0.40000000000E+03 0.  1.
   -9000007    1    1    2    0  502 -0.29418506122E+03  0.56099961554E+02  0.20049431654E+04  0.20662742201E+04  0.40000000000E+03 0.  1.
<mgrwt>
<rscale>  2 0.49969196E+03</rscale>
<asrwt>0</asrwt>
<pdfrwt beam="1">  1       21 0.37272632E+00 0.49969196E+03</pdfrwt>
<pdfrwt beam="2">  1       21 0.29525912E-01 0.49969196E+03</pdfrwt>
<totfact> 0.10322623E+02</totfact>
</mgrwt>
</event>
<event>
 4    1  0.4703494E-002  0.4393323E+03  0.7818608E-02  0.1030952E+00
         21   -1    0    0  501  502  0.00000000000E+00  0.00000000000E+00  0.34066737449E+03  0.34066737449E+03  0.00000000000E+00 0.  1.
         21   -1    0    0  502  503 -0.00000000000E+00 -0.00000000000E+00 -0.59194515013E+03  0.59194515013E+03  0.00000000000E+00 0.  1.
    9000007    1    1    2  501    0  0.90817093274E+02 -0.15736947882E+03 -0.29098256992E+02  0.44029490782E+03  0.40000000000E+03 0.  1.
   -9000007    1    1    2    0  503 -0.90817093274E+02  0.15736947882E+03 -0.22217951865E+03  0.49231761679E+03  0.40000000000E+03 0.  1.
<mgrwt>
<rscale>  2 0.43933233E+03</rscale>
<asrwt>0</asrwt>
<pdfrwt beam="1">  1       21 0.52410366E-01 0.43933233E+03</pdfrwt>
<pdfrwt beam="2">  1       21 0.91068484E-01 0.43933233E+03</pdfrwt>
<totfact> 0.30846754E+03</totfact>
</mgrwt>
</event>
<event>
 4    1  0.4703494E-002  0.5165367E+03  0.7818608E-02  0.1009551E+00
         21   -1    0    0  501  502  0.00000000000E+00  0.00000000000E+00  0.31643154999E+03  0.31643154999E+03  0.00000000000E+00 0. -1.
         21   -1    0    0  502  503 -0.00000000000E+00 -0.00000000000E+00 -0.89242585239E+03  0.89242585239E+03  0.00000000000E+00 0. -1.
    9000007    1    1    2  501    0  0.14757881086E+02  0.32648482404E+03 -0.14601799497E+03  0.53677871627E+03  0.40000000000E+03 0. -1.
   -9000007    1    1    2    0  503 -0.14757881086E+02 -0.32648482404E+03 -0.42997630742E+03  0.67207868611E+03  0.40000000000E+03 0. -1.
<mgrwt>
<rscale>  2 0.51653667E+03</rscale>
<asrwt>0</asrwt>
<pdfrwt beam="1">  1       21 0.48681777E-01 0.51653667E+03</pdfrwt>
<pdfrwt beam="2">  1       21 0.13729628E+00 0.51653667E+03</pdfrwt>
<totfact> 0.12573616E+03</totfact>
</mgrwt>
</event>
<event>
 4    1  0.4703494E-002  0.4077594E+03  0.7818608E-02  0.1041125E+00
         21   -1    0    0  501  502  0.00000000000E+00  0.00000000000E+00  0.32947954749E+03  0.32947954749E+03  0.00000000000E+00 0.  1.
         21   -1    0    0  502  503 -0.00000000000E+00 -0.00000000000E+00 -0.51673102962E+03  0.51673102962E+03  0.00000000000E+00 0.  1.
    9000007    1    1    2  501    0 -0.71723605758E+02 -0.33518338121E+02 -0.28897820008E+02  0.40878214077E+03  0.40000000000E+03 0.  1.
   -9000007    1    1    2    0  503  0.71723605758E+02  0.33518338121E+02 -0.15835366212E+03  0.43742843634E+03  0.40000000000E+03 0.  1.
<mgrwt>
<rscale>  2 0.40775943E+03</rscale>
<asrwt>0</asrwt>
<pdfrwt beam="1">  1       21 0.50689161E-01 0.40775943E+03</pdfrwt>
<pdfrwt beam="2">  1       21 0.79497081E-01 0.40775943E+03</pdfrwt>
<totfact> 0.46033883E+03</totfact>
</mgrwt>
</event>
<event>
 4    1  0.4703494E-002  0.4560747E+03  0.7818608E-02  0.1025926E+00
         21   -1    0    0  503  502  0.00000000000E+00  0.00000000000E+00  0.20083400472E+03  0.20083400472E+03  0.00000000000E+00 0. -1.
         21   -1    0    0  501  503 -0.00000000000E+00 -0.00000000000E+00 -0.14344947071E+04  0.14344947071E+04  0.00000000000E+00 0.  1.
    9000007    1    1    2  501    0 -0.80217568790E+02 -0.20388545529E+03 -0.10479514841E+04  0.11428938928E+04  0.40000000000E+03 0.  1.
   -9000007    1    1    2    0  502  0.80217568790E+02  0.20388545529E+03 -0.18570921830E+03  0.49243481902E+03  0.40000000000E+03 0. -1.
<mgrwt>
<rscale>  2 0.45607471E+03</rscale>
<asrwt>0</asrwt>
<pdfrwt beam="1">  1       21 0.30897540E-01 0.45607471E+03</pdfrwt>
<pdfrwt beam="2">  1       21 0.22069149E+00 0.45607471E+03</pdfrwt>
<totfact> 0.82574525E+02</totfact>
</mgrwt>
</event>
<event>
 4    1  0.4703494E-002  0.4324842E+03  0.7818608E-02  0.1033078E+00
         21   -1    0    0  503  502  0.00000000000E+00  0.00000000000E+00  0.30879672206E+03  0.30879672206E+03  0.00000000000E+00 0. -1.
         21   -1    0    0  501  503 -0.00000000000E+00 -0.00000000000E+00 -0.11005454710E+04  0.11005454710E+04  0.00000000000E+00 0. -1.
    9000007    1    1    2  501    0  0.76909567482E+02  0.14535287591E+03 -0.86838443423E+03  0.97012064493E+03  0.40000000000E+03 0. -1.
   -9000007    1    1    2    0  502 -0.76909567482E+02 -0.14535287591E+03  0.76635685275E+02  0.43922154815E+03  0.40000000000E+03 0. -1.
<mgrwt>
<rscale>  2 0.43248415E+03</rscale>
<asrwt>0</asrwt>
<pdfrwt beam="1">  1       21 0.47507188E-01 0.43248415E+03</pdfrwt>
<pdfrwt beam="2">  1       21 0.16931469E+00 0.43248415E+03</pdfrwt>
<totfact> 0.77125176E+02</totfact>
</mgrwt>
</event>
<event>
 4    1  0.4703494E-002  0.4261801E+03  0.7818608E-02  0.1035073E+00
         21   -1    0    0  503  502  0.00000000000E+00  0.00000000000E+00  0.10832632609E+04  0.10832632609E+04  0.00000000000E+00 0.  1.
         21   -1    0    0  501  503 -0.00000000000E+00 -0.00000000000E+00 -0.16770858865E+03  0.16770858865E+03  0.00000000000E+00 0.  1.
    9000007    1    1    2  501    0  0.14517677351E+03 -0.23519798411E+02  0.46740877673E+03  0.63253493267E+03  0.40000000000E+03 0.  1.
   -9000007    1    1    2    0  502 -0.14517677351E+03  0.23519798411E+02  0.44814589550E+03  0.61843691686E+03  0.40000000000E+03 0.  1.
<mgrwt>
<rscale>  2 0.42618010E+03</rscale>
<asrwt>0</asrwt>
<pdfrwt beam="1">  1       21 0.16665588E+00 0.42618010E+03</pdfrwt>
<pdfrwt beam="2">  1       21 0.25801322E-01 0.42618010E+03</pdfrwt>
<totfact> 0.27840639E+03</totfact>
</mgrwt>
</event>
<event>
 4    1  0.4703494E-002  0.4401391E+03  0.7818608E-02  0.1030704E+00
         21   -1    0    0  501  502  0.00000000000E+00  0.00000000000E+00  0.41259713040E+03  0.41259713040E+03  0.00000000000E+00 0.  1.
         21   -1    0    0  502  503 -0.00000000000E+00 -0.00000000000E+00 -0.47065796383E+03  0.47065796383E+03  0.00000000000E+00 0.  1.
    9000007    1    1    2  501    0 -0.20429462153E+02 -0.18249674764E+03 -0.73108890288E+01  0.44019981250E+03  0.40000000000E+03 0.  1.
   -9000007    1    1    2    0  503  0.20429462153E+02  0.18249674764E+03 -0.50749944402E+02  0.44305528174E+03  0.40000000000E+03 0.  1.
<mgrwt>
<rscale>  2 0.44013910E+03</rscale>
<asrwt>0</asrwt>
<pdfrwt beam="1">  1       21 0.63476481E-01 0.44013910E+03</pdfrwt>
<pdfrwt beam="2">  1       21 0.72408918E-01 0.44013910E+03</pdfrwt>
<totfact> 0.34577508E+03</totfact>
</mgrwt>
</event>
<event>
 4    1  0.4703494E-002  0.4600842E+03  0.7818608E-02  0.1024757E+00
         21   -1    0    0  501  502  0.00000000000E+00  0.00000000000E+00  0.30253512453E+03  0.30253512453E+03  0.00000000000E+00 0.  1.
         21   -1    0    0  502  503 -0.00000000000E+00 -0.00000000000E+00 -0.98126659384E+03  0.98126659384E+03  0.00000000000E+00 0.  1.
    9000007    1    1    2  501    0  0.61647711800E+02  0.21880812782E+03  0.44939817820E+01  0.46010611063E+03  0.40000000000E+03 0. -1.
   -9000007    1    1    2    0  503 -0.61647711800E+02 -0.21880812782E+03 -0.68322545109E+03  0.82369560773E+03  0.40000000000E+03 0. -1.
<mgrwt>
<rscale>  2 0.46008416E+03</rscale>
<asrwt>0</asrwt>
<pdfrwt beam="1">  1       21 0.46543866E-01 0.46008416E+03</pdfrwt>
<pdfrwt beam="2">  1       21 0.15096409E+00 0.46008416E+03</pdfrwt>
<totfact> 0.10946140E+03</totfact>
</mgrwt>
</event>
<event>
 4    1  0.4703494E-002  0.5139976E+03  0.7818608E-02  0.1010189E+00
         21   -1    0    0  503  502  0.00000000000E+00  0.00000000000E+00  0.94503677625E+03  0.94503677625E+03  0.00000000000E+00 0.  1.
         21   -1    0    0  501  503 -0.00000000000E+00 -0.00000000000E+00 -0.33802832758E+03  0.33802832758E+03  0.00000000000E+00 0.  1.
    9000007    1    1    2  501    0 -0.14724938417E+03 -0.28724756440E+03  0.36691727758E+02  0.51530556690E+03  0.40000000000E+03 0.  1.
   -9000007    1    1    2    0  502  0.14724938417E+03  0.28724756440E+03  0.57031672091E+03  0.76775953693E+03  0.40000000000E+03 0.  1.
<mgrwt>
<rscale>  2 0.51399761E+03</rscale>
<asrwt>0</asrwt>
<pdfrwt beam="1">  1       21 0.14539027E+00 0.51399761E+03</pdfrwt>
<pdfrwt beam="2">  1       21 0.52004358E-01 0.51399761E+03</pdfrwt>
<totfact> 0.93741722E+02</totfact>
</mgrwt>
</event>
<event>
 4    1  0.4703494E-002  0.5424643E+03  0.7818608E-02  0.1003253E+00
         21   -1    0    0  503  502  0.00000000000E+00  0.00000000000E+00  0.45843385744E+03  0.45843385744E+03  0.00000000000E+00 0.  1.
         21   -1    0    0  501  503 -0.00000000000E+00 -0.00000000000E+00 -0.95569793583E+03  0.95569793583E+03  0.00000000000E+00 0.  1.
    9000007    1    1    2  501    0  0.35134660373E+03 -0.10403385387E+03 -0.65379192596E+03  0.84953596813E+03  0.40000000000E+03 0.  1.
   -9000007    1    1    2    0  502 -0.35134660373E+03  0.10403385387E+03  0.15652784757E+03  0.56459582514E+03  0.40000000000E+03 0.  1.
<mgrwt>
<rscale>  2 0.54246426E+03</rscale>
<asrwt>0</asrwt>
<pdfrwt beam="1">  1       21 0.70528286E-01 0.54246426E+03</pdfrwt>
<pdfrwt beam="2">  1       21 0.14703045E+00 0.54246426E+03</pdfrwt>
<totfact> 0.45974835E+02</totfact>
</mgrwt>
</event>
<event>
 4    1  0.4703494E-002  0.5444670E+03  0.7818608E-02  0.1002783E+00
         21   -1    0    0  503  502  0.00000000000E+00  0.00000000000E+00  0.18452369326E+03  0.18452369326E+03  0.00000000000E+00 0.  1.
         21   -1    0    0  501  503 -0.00000000000E+00 -0.00000000000E+00 -0.16794567677E+04  0.16794567677E+04  0.00000000000E+00 0.  1.
    9000007    1    1    2  501    0 -0.34220793776E+03  0.13906113462E+03 -0.94166575046E+03  0.10877401608E+04  0.40000000000E+03 0.  1.
   -9000007    1    1    2    0  502  0.34220793776E+03 -0.13906113462E+03 -0.55326732402E+03  0.77624030020E+03  0.40000000000E+03 0.  1.
<mgrwt>
<rscale>  2 0.54446696E+03</rscale>
<asrwt>0</asrwt>
<pdfrwt beam="1">  1       21 0.28388261E-01 0.54446696E+03</pdfrwt>
<pdfrwt beam="2">  1       21 0.25837796E+00 0.54446696E+03</pdfrwt>
<totfact> 0.54576965E+02</totfact>
</mgrwt>
</event>
<event>
 4    1  0.4703494E-002  0.4172270E+03  0.7818608E-02  0.1037973E+00
         21   -1    0    0  503  502  0.00000000000E+00  0.00000000000E+00  0.96488393141E+03  0.96488393141E+03  0.00000000000E+00 0.  1.
         21   -1    0    0  501  503 -0.00000000000E+00 -0.00000000000E+00 -0.31744369750E+03  0.31744369750E+03  0.00000000000E+00 0.  1.
    9000007    1    1    2  501    0  0.11845620217E+03  0.68159977040E+01 -0.97533257706E+02  0.42847528052E+03  0.40000000000E+03 0.  1.
   -9000007    1    1    2    0  502 -0.11845620217E+03 -0.68159977040E+01  0.74497349161E+03  0.85385234839E+03  0.40000000000E+03 0.  1.
<mgrwt>
<rscale>  2 0.41722695E+03</rscale>
<asrwt>0</asrwt>
<pdfrwt beam="1">  1       21 0.14844368E+00 0.41722695E+03</pdfrwt>
<pdfrwt beam="2">  1       21 0.48837492E-01 0.41722695E+03</pdfrwt>
<totfact> 0.10546409E+03</totfact>
</mgrwt>
</event>
<event>
 4    1  0.4703494E-002  0.5693310E+03  0.7818608E-02  0.9971160E-01
         21   -1    0    0  503  502  0.00000000000E+00  0.00000000000E+00  0.13420939986E+04  0.13420939986E+04  0.00000000000E+00 0.  1.
         21   -1    0    0  501  503 -0.00000000000E+00 -0.00000000000E+00 -0.24238481064E+03  0.24238481064E+03  0.00000000000E+00 0. -1.
    9000007    1    1    2  501    0 -0.17890437707E+03 -0.36349834007E+03  0.50243627906E+03  0.75932867316E+03  0.40000000000E+03 0.  1.
   -9000007    1    1    2    0  502  0.17890437707E+03  0.36349834007E+03  0.59727290891E+03  0.82515013609E+03  0.40000000000E+03 0. -1.
<mgrwt>
<rscale>  2 0.56933103E+03</rscale>
<asrwt>0</asrwt>
<pdfrwt beam="1">  1       21 0.20647600E+00 0.56933103E+03</pdfrwt>
<pdfrwt beam="2">  1       21 0.37289971E-01 0.56933103E+03</pdfrwt>
<totfact> 0.66613057E+02</totfact>
</mgrwt>
</event>
<event>
 4    1  0.4703494E-002  0.5800062E+03  0.7818608E-02  0.9947778E-01
         21   -1    0    0  501  502  0.00000000000E+00  0.00000000000E+00  0.21198785487E+04  0.21198785487E+04  0.00000000000E+00 0. -1.
         21   -1    0    0  502  503 -0.00000000000E+00 -0.00000000000E+00 -0.16283114775E+03  0.16283114775E+03  0.00000000000E+00 0.  1.
    9000007    1    1    2  501    0 -0.31169165829E+03 -0.28152351401E+03  0.11605029869E+04  0.12973720983E+04  0.40000000000E+03 0.  1.
   -9000007    1    1    2    0  503  0.31169165829E+03  0.28152351401E+03  0.79654441400E+03  0.98533759811E+03  0.40000000000E+03 0.  1.
<mgrwt>
<rscale>  2 0.58000619E+03</rscale>
<asrwt>0</asrwt>
<pdfrwt beam="1">  1       21 0.32613514E+00 0.58000619E+03</pdfrwt>
<pdfrwt beam="2">  1       21 0.25050947E-01 0.58000619E+03</pdfrwt>
<totfact> 0.26548116E+02</totfact>
</mgrwt>
</event>
<event>
 4    1  0.4703494E-002  0.4092806E+03  0.7818608E-02  0.1040613E+00
         21   -1    0    0  503  502  0.00000000000E+00  0.00000000000E+00  0.15588384744E+04  0.15588384744E+04  0.00000000000E+00 0. -1.
         21   -1    0    0  501  503 -0.00000000000E+00 -0.00000000000E+00 -0.13021360872E+03  0.13021360872E+03  0.00000000000E+00 0. -1.
    9000007    1    1    2  501    0  0.80517128552E+02 -0.32056716126E+02  0.36127308612E+03  0.54592021743E+03  0.40000000000E+03 0.  1.
   -9000007    1    1    2    0  502 -0.80517128552E+02  0.32056716126E+02  0.10673517796E+04  0.11431318657E+04  0.40000000000E+03 0.  1.
<mgrwt>
<rscale>  2 0.40928064E+03</rscale>
<asrwt>0</asrwt>
<pdfrwt beam="1">  1       21 0.23982129E+00 0.40928064E+03</pdfrwt>
<pdfrwt beam="2">  1       21 0.20032864E-01 0.40928064E+03</pdfrwt>
<totfact> 0.14883736E+03</totfact>
</mgrwt>
</event>
<event>
 4    1  0.4703494E-002  0.4117274E+03  0.7818608E-02  0.1039793E+00
         21   -1    0    0  501  502  0.00000000000E+00  0.00000000000E+00  0.90705600768E+03  0.90705600768E+03  0.00000000000E+00 0. -1.
         21   -1    0    0  502  503 -0.00000000000E+00 -0.00000000000E+00 -0.19730327852E+03  0.19730327852E+03  0.00000000000E+00 0. -1.
    9000007    1    1    2  501    0  0.82186978489E+02  0.52581027071E+02  0.22801997423E+03  0.47065122170E+03  0.40000000000E+03 0.  1.
   -9000007    1    1    2    0  503 -0.82186978489E+02 -0.52581027071E+02  0.48173275493E+03  0.63370806450E+03  0.40000000000E+03 0.  1.
<mgrwt>
<rscale>  2 0.41172741E+03</rscale>
<asrwt>0</asrwt>
<pdfrwt beam="1">  1       21 0.13954708E+00 0.41172741E+03</pdfrwt>
<pdfrwt beam="2">  1       21 0.30354351E-01 0.41172741E+03</pdfrwt>
<totfact> 0.33024992E+03</totfact>
</mgrwt>
</event>
<event>
 4    1  0.4703494E-002  0.4267196E+03  0.7818608E-02  0.1034901E+00
         21   -1    0    0  503  502  0.00000000000E+00  0.00000000000E+00  0.72001295731E+03  0.72001295731E+03  0.00000000000E+00 0.  1.
         21   -1    0    0  501  503 -0.00000000000E+00 -0.00000000000E+00 -0.29162928318E+03  0.29162928318E+03  0.00000000000E+00 0. -1.
    9000007    1    1    2  501    0 -0.14195205111E+03  0.44036250393E+02  0.29854051188E+02  0.42776259834E+03  0.40000000000E+03 0. -1.
   -9000007    1    1    2    0  502  0.14195205111E+03 -0.44036250393E+02  0.39852962295E+03  0.58387964216E+03  0.40000000000E+03 0.  1.
<mgrwt>
<rscale>  2 0.42671955E+03</rscale>
<asrwt>0</asrwt>
<pdfrwt beam="1">  1       21 0.11077122E+00 0.42671955E+03</pdfrwt>
<pdfrwt beam="2">  1       21 0.44866044E-01 0.42671955E+03</pdfrwt>
<totfact> 0.26757072E+03</totfact>
</mgrwt>
</event>
<event>
 4    1  0.4703494E-002  0.4170986E+03  0.7818608E-02  0.1038015E+00
         21   -1    0    0  503  502  0.00000000000E+00  0.00000000000E+00  0.53878551057E+03  0.53878551057E+03  0.00000000000E+00 0.  1.
         21   -1    0    0  501  503 -0.00000000000E+00 -0.00000000000E+00 -0.79053614056E+03  0.79053614056E+03  0.00000000000E+00 0.  1.
    9000007    1    1    2  501    0  0.11807167219E+03  0.55089565342E+01 -0.63708075811E+03  0.76147433360E+03  0.40000000000E+03 0.  1.
   -9000007    1    1    2    0  502 -0.11807167219E+03 -0.55089565342E+01  0.38533012812E+03  0.56784731752E+03  0.40000000000E+03 0.  1.
<mgrwt>
<rscale>  2 0.41709863E+03</rscale>
<asrwt>0</asrwt>
<pdfrwt beam="1">  1       21 0.82890080E-01 0.41709863E+03</pdfrwt>
<pdfrwt beam="2">  1       21 0.12162094E+00 0.41709863E+03</pdfrwt>
<totfact> 0.55133859E+02</totfact>
</mgrwt>
</event>
<event>
 4    1  0.4703494E-002  0.4274358E+03  0.7818608E-02  0.1034673E+00
         21   -1    0    0  503  502  0.00000000000E+00  0.00000000000E+00  0.58918124154E+03  0.58918124154E+03  0.00000000000E+00 0. -1.
         21   -1    0    0  501  503 -0.00000000000E+00 -0.00000000000E+00 -0.66937803891E+03  0.66937803891E+03  0.00000000000E+00 0.  1.
    9000007    1    1    2  501    0  0.11897197554E+03  0.92450141920E+02  0.42092941447E+03  0.59990243512E+03  0.40000000000E+03 0. -1.
   -9000007    1    1    2    0  502 -0.11897197554E+03 -0.92450141920E+02 -0.50112621184E+03  0.65865684533E+03  0.40000000000E+03 0.  1.
<mgrwt>
<rscale>  2 0.42743580E+03</rscale>
<asrwt>0</asrwt>
<pdfrwt beam="1">  1       21 0.90643268E-01 0.42743580E+03</pdfrwt>
<pdfrwt beam="2">  1       21 0.10298124E+00 0.42743580E+03</pdfrwt>
<totfact> 0.67306424E+02</totfact>
</mgrwt>
</event>
<event>
 4    1  0.4703494E-002  0.5279326E+03  0.7818608E-02  0.1006735E+00
         21   -1    0    0  501  502  0.00000000000E+00  0.00000000000E+00  0.49127406501E+03  0.49127406501E+03  0.00000000000E+00 0. -1.
         21   -1    0    0  502  503 -0.00000000000E+00 -0.00000000000E+00 -0.60524634387E+03  0.60524634387E+03  0.00000000000E+00 0.  1.
    9000007    1    1    2  501    0 -0.43334352960E+02  0.34181128057E+03  0.80245310556E+02  0.53399637409E+03  0.40000000000E+03 0. -1.
   -9000007    1    1    2    0  503  0.43334352960E+02 -0.34181128057E+03 -0.19421758942E+03  0.56252403479E+03  0.40000000000E+03 0. -1.
<mgrwt>
<rscale>  2 0.52793259E+03</rscale>
<asrwt>0</asrwt>
<pdfrwt beam="1">  1       21 0.75580625E-01 0.52793259E+03</pdfrwt>
<pdfrwt beam="2">  1       21 0.93114822E-01 0.52793259E+03</pdfrwt>
<totfact> 0.12609149E+03</totfact>
</mgrwt>
</event>
<event>
 4    1  0.4703494E-002  0.5414992E+03  0.7818608E-02  0.1003481E+00
         21   -1    0    0  501  502  0.00000000000E+00  0.00000000000E+00  0.10679574599E+04  0.10679574599E+04  0.00000000000E+00 0. -1.
         21   -1    0    0  502  503 -0.00000000000E+00 -0.00000000000E+00 -0.28302792287E+03  0.28302792287E+03  0.00000000000E+00 0.  1.
    9000007    1    1    2  501    0  0.32575972429E+03  0.16462696020E+03  0.50928595153E+03  0.74336640657E+03  0.40000000000E+03 0. -1.
   -9000007    1    1    2    0  503 -0.32575972429E+03 -0.16462696020E+03  0.27564358546E+03  0.60761897617E+03  0.40000000000E+03 0.  1.
<mgrwt>
<rscale>  2 0.54149925E+03</rscale>
<asrwt>0</asrwt>
<pdfrwt beam="1">  1       21 0.16430115E+00 0.54149925E+03</pdfrwt>
<pdfrwt beam="2">  1       21 0.43542758E-01 0.54149925E+03</pdfrwt>
<totfact> 0.96444971E+02</totfact>
</mgrwt>
</event>
<event>
 4    1  0.4703494E-002  0.4512854E+03  0.7818608E-02  0.1027339E+00
         21   -1    0    0  503  502  0.00000000000E+00  0.00000000000E+00  0.14215516171E+04  0.14215516171E+04  0.00000000000E+00 0.  1.
         21   -1    0    0  501  503 -0.00000000000E+00 -0.00000000000E+00 -0.28403701136E+03  0.28403701136E+03  0.00000000000E+00 0.  1.
    9000007    1    1    2  501    0 -0.20760043693E+03 -0.23676319593E+02 -0.31607297622E+02  0.45239090485E+03  0.40000000000E+03 0.  1.
   -9000007    1    1    2    0  502  0.20760043693E+03  0.23676319593E+02  0.11691219034E+04  0.12531977236E+04  0.40000000000E+03 0.  1.
<mgrwt>
<rscale>  2 0.45128540E+03</rscale>
<asrwt>0</asrwt>
<pdfrwt beam="1">  1       21 0.21870025E+00 0.45128540E+03</pdfrwt>
<pdfrwt beam="2">  1       21 0.43698002E-01 0.45128540E+03</pdfrwt>
<totfact> 0.42055830E+02</totfact>
</mgrwt>
</event>
<event>
 4    1  0.4703494E-002  0.4119770E+03  0.7818608E-02  0.1039710E+00
         21   -1    0    0  501  502  0.00000000000E+00  0.00000000000E+00  0.15132069278E+03  0.15132069278E+03  0.00000000000E+00 0. -1.
         21   -1    0    0  502  503 -0.00000000000E+00 -0.00000000000E+00 -0.12312519367E+04  0.12312519367E+04  0.00000000000E+00 0. -1.
    9000007    1    1    2  501    0  0.92400539044E+02 -0.34456179274E+02 -0.33369236415E+03  0.53016571164E+03  0.40000000000E+03 0. -1.
   -9000007    1    1    2    0  503 -0.92400539044E+02  0.34456179274E+02 -0.74623887974E+03  0.85240691782E+03  0.40000000000E+03 0. -1.
<mgrwt>
<rscale>  2 0.41197705E+03</rscale>
<asrwt>0</asrwt>
<pdfrwt beam="1">  1       21 0.23280106E-01 0.41197705E+03</pdfrwt>
<pdfrwt beam="2">  1       21 0.18942338E+00 0.41197705E+03</pdfrwt>
<totfact> 0.23593259E+03</totfact>
</mgrwt>
</event>
<event>
 4    1  0.4703494E-002  0.4169492E+03  0.7818608E-02  0.1038064E+00
         21   -1    0    0  501  502  0.00000000000E+00  0.00000000000E+00  0.47954251923E+03  0.47954251923E+03  0.00000000000E+00 0.  1.
         21   -1    0    0  502  503 -0.00000000000E+00 -0.00000000000E+00 -0.75767281291E+03  0.75767281291E+03  0.00000000000E+00 0. -1.
    9000007    1    1    2  501    0 -0.73240701994E+02  0.92100212346E+02  0.30767364618E+03  0.51817923742E+03  0.40000000000E+03 0.  1.
   -9000007    1    1    2    0  503  0.73240701994E+02 -0.92100212346E+02 -0.58580393986E+03  0.71903609471E+03  0.40000000000E+03 0. -1.
<mgrwt>
<rscale>  2 0.41694922E+03</rscale>
<asrwt>0</asrwt>
<pdfrwt beam="1">  1       21 0.73775772E-01 0.41694922E+03</pdfrwt>
<pdfrwt beam="2">  1       21 0.11656505E+00 0.41694922E+03</pdfrwt>
<totfact> 0.80208743E+02</totfact>
</mgrwt>
</event>
<event>
 4    1  0.4703494E-002  0.5220901E+03  0.7818608E-02  0.1008169E+00
         21   -1    0    0  501  502  0.00000000000E+00  0.00000000000E+00  0.76673890871E+03  0.76673890871E+03  0.00000000000E+00 0. -1.
         21   -1    0    0  502  503 -0.00000000000E+00 -0.00000000000E+00 -0.37125992150E+03  0.37125992150E+03  0.00000000000E+00 0. -1.
    9000007    1    1    2  501    0  0.38593497352E+02  0.33329956915E+03  0.31496093550E+03  0.60973637888E+03  0.40000000000E+03 0. -1.
   -9000007    1    1    2    0  503 -0.38593497352E+02 -0.33329956915E+03  0.80518051709E+02  0.52826245133E+03  0.40000000000E+03 0. -1.
<mgrwt>
<rscale>  2 0.52209009E+03</rscale>
<asrwt>0</asrwt>
<pdfrwt beam="1">  1       21 0.11795983E+00 0.52209009E+03</pdfrwt>
<pdfrwt beam="2">  1       21 0.57116911E-01 0.52209009E+03</pdfrwt>
<totfact> 0.13191251E+03</totfact>
</mgrwt>
</event>
<event>
 4    1  0.4703494E-002  0.4680186E+03  0.7818608E-02  0.1022481E+00
         21   -1    0    0  503  502  0.00000000000E+00  0.00000000000E+00  0.45494233066E+03  0.45494233066E+03  0.00000000000E+00 0.  1.
         21   -1    0    0  501  503 -0.00000000000E+00 -0.00000000000E+00 -0.52811109827E+03  0.52811109827E+03  0.00000000000E+00 0.  1.
    9000007    1    1    2  501    0  0.22541807235E+02  0.24193648962E+03  0.10948716997E+03  0.48065459373E+03  0.40000000000E+03 0.  1.
   -9000007    1    1    2    0  502 -0.22541807235E+02 -0.24193648962E+03 -0.18265593758E+03  0.50239883521E+03  0.40000000000E+03 0.  1.
<mgrwt>
<rscale>  2 0.46801859E+03</rscale>
<asrwt>0</asrwt>
<pdfrwt beam="1">  1       21 0.69991128E-01 0.46801859E+03</pdfrwt>
<pdfrwt beam="2">  1       21 0.81247862E-01 0.46801859E+03</pdfrwt>
<totfact> 0.21140399E+03</totfact>
</mgrwt>
</event>
<event>
 4    1  0.4703494E-002  0.4232184E+03  0.7818608E-02  0.1036024E+00
         21   -1    0    0  501  502  0.00000000000E+00  0.00000000000E+00  0.17426913448E+03  0.17426913448E+03  0.00000000000E+00 0. -1.
         21   -1    0    0  502  503 -0.00000000000E+00 -0.00000000000E+00 -0.16995228887E+04  0.16995228887E+04  0.00000000000E+00 0. -1.
    9000007    1    1    2  501    0 -0.13751490711E+03  0.14264709988E+02 -0.17361652680E+03  0.45744565798E+03  0.40000000000E+03 0. -1.
   -9000007    1    1    2    0  503  0.13751490711E+03 -0.14264709988E+02 -0.13516372274E+04  0.14163463652E+04  0.40000000000E+03 0. -1.
<mgrwt>
<rscale>  2 0.42321842E+03</rscale>
<asrwt>0</asrwt>
<pdfrwt beam="1">  1       21 0.26810638E-01 0.42321842E+03</pdfrwt>
<pdfrwt beam="2">  1       21 0.26146504E+00 0.42321842E+03</pdfrwt>
<totfact> 0.62087611E+02</totfact>
</mgrwt>
</event>
<event>
 4    1  0.4703494E-002  0.4297116E+03  0.7818608E-02  0.1033951E+00
         21   -1    0    0  501  502  0.00000000000E+00  0.00000000000E+00  0.83752520066E+03  0.83752520066E+03  0.00000000000E+00 0. -1.
         21   -1    0    0  502  503 -0.00000000000E+00 -0.00000000000E+00 -0.32944881521E+03  0.32944881521E+03  0.00000000000E+00 0. -1.
    9000007    1    1    2  501    0  0.15519911576E+03 -0.23775564505E+02  0.58962234798E+03  0.72959341845E+03  0.40000000000E+03 0. -1.
   -9000007    1    1    2    0  503 -0.15519911576E+03  0.23775564505E+02 -0.81545962533E+02  0.43738059743E+03  0.40000000000E+03 0. -1.
<mgrwt>
<rscale>  2 0.42971158E+03</rscale>
<asrwt>0</asrwt>
<pdfrwt beam="1">  1       21 0.12885003E+00 0.42971158E+03</pdfrwt>
<pdfrwt beam="2">  1       21 0.50684433E-01 0.42971158E+03</pdfrwt>
<totfact> 0.14089782E+03</totfact>
</mgrwt>
</event>
<event>
 4    1  0.4703494E-002  0.4551831E+03  0.7818608E-02  0.1026188E+00
         21   -1    0    0  501  502  0.00000000000E+00  0.00000000000E+00  0.28753334613E+03  0.28753334613E+03  0.00000000000E+00 0.  1.
         21   -1    0    0  502  503 -0.00000000000E+00 -0.00000000000E+00 -0.10991542249E+04  0.10991542249E+04  0.00000000000E+00 0. -1.
    9000007    1    1    2  501    0 -0.17175516010E+03 -0.13301076521E+03  0.10945319786E+01  0.45518446446E+03  0.40000000000E+03 0. -1.
   -9000007    1    1    2    0  503  0.17175516010E+03  0.13301076521E+03 -0.81271541077E+03  0.93150310659E+03  0.40000000000E+03 0. -1.
<mgrwt>
<rscale>  2 0.45518315E+03</rscale>
<asrwt>0</asrwt>
<pdfrwt beam="1">  1       21 0.44235900E-01 0.45518315E+03</pdfrwt>
<pdfrwt beam="2">  1       21 0.16910065E+00 0.45518315E+03</pdfrwt>
<totfact> 0.88988202E+02</totfact>
</mgrwt>
</event>
<event>
 4    1  0.4703494E-002  0.5376458E+03  0.7818608E-02  0.1004395E+00
         21   -1    0    0  503  502  0.00000000000E+00  0.00000000000E+00  0.10931759216E+04  0.10931759216E+04  0.00000000000E+00 0.  1.
         21   -1    0    0  501  503 -0.00000000000E+00 -0.00000000000E+00 -0.28759686445E+03  0.28759686445E+03  0.00000000000E+00 0.  1.
    9000007    1    1    2  501    0  0.18067510187E+03  0.31051489116E+03  0.59875569352E+03  0.80471819328E+03  0.40000000000E+03 0.  1.
   -9000007    1    1    2    0  502 -0.18067510187E+03 -0.31051489116E+03  0.20682336359E+03  0.57605459272E+03  0.40000000000E+03 0.  1.
<mgrwt>
<rscale>  2 0.53764578E+03</rscale>
<asrwt>0</asrwt>
<pdfrwt beam="1">  1       21 0.16818091E+00 0.53764578E+03</pdfrwt>
<pdfrwt beam="2">  1       21 0.44245672E-01 0.53764578E+03</pdfrwt>
<totfact> 0.87398100E+02</totfact>
</mgrwt>
</event>
<event>
 4    1  0.4703494E-002  0.4613845E+03  0.7818608E-02  0.1024380E+00
         21   -1    0    0  501  502  0.00000000000E+00  0.00000000000E+00  0.55154170477E+03  0.55154170477E+03  0.00000000000E+00 0. -1.
         21   -1    0    0  502  503 -0.00000000000E+00 -0.00000000000E+00 -0.62691004625E+03  0.62691004625E+03  0.00000000000E+00 0.  1.
    9000007    1    1    2  501    0  0.20673901129E+03 -0.10067111288E+03  0.32760631743E+03  0.56586357983E+03  0.40000000000E+03 0. -1.
   -9000007    1    1    2    0  503 -0.20673901129E+03  0.10067111288E+03 -0.40297465892E+03  0.61258817119E+03  0.40000000000E+03 0.  1.
<mgrwt>
<rscale>  2 0.46138454E+03</rscale>
<asrwt>0</asrwt>
<pdfrwt beam="1">  1       21 0.84852571E-01 0.46138454E+03</pdfrwt>
<pdfrwt beam="2">  1       21 0.96447699E-01 0.46138454E+03</pdfrwt>
<totfact> 0.90844123E+02</totfact>
</mgrwt>
</event>
<event>
 4    1  0.4703494E-002  0.4619960E+03  0.7818608E-02  0.1024204E+00
         21   -1    0    0  503  502  0.00000000000E+00  0.00000000000E+00  0.15459908462E+04  0.15459908462E+04  0.00000000000E+00 0.  1.
         21   -1    0    0  501  503 -0.00000000000E+00 -0.00000000000E+00 -0.22369252304E+03  0.22369252304E+03  0.00000000000E+00 0.  1.
    9000007    1    1    2  501    0 -0.16108570550E+03  0.16580620286E+03  0.11368223321E+03  0.47577720791E+03  0.40000000000E+03 0.  1.
   -9000007    1    1    2    0  502  0.16108570550E+03 -0.16580620286E+03  0.12086160900E+04  0.12939061614E+04  0.40000000000E+03 0.  1.
<mgrwt>
<rscale>  2 0.46199600E+03</rscale>
<asrwt>0</asrwt>
<pdfrwt beam="1">  1       21 0.23784474E+00 0.46199600E+03</pdfrwt>
<pdfrwt beam="2">  1       21 0.34414235E-01 0.46199600E+03</pdfrwt>
<totfact> 0.51691930E+02</totfact>
</mgrwt>
</event>
<event>
 4    1  0.4703494E-002  0.4076080E+03  0.7818608E-02  0.1041177E+00
         21   -1    0    0  503  502  0.00000000000E+00  0.00000000000E+00  0.28958416905E+03  0.28958416905E+03  0.00000000000E+00 0. -1.
         21   -1    0    0  501  503 -0.00000000000E+00 -0.00000000000E+00 -0.31095736018E+04  0.31095736018E+04  0.00000000000E+00 0. -1.
    9000007    1    1    2  501    0 -0.40664857744E+02 -0.67012025840E+02 -0.29447947810E+04  0.29728707582E+04  0.40000000000E+03 0. -1.
   -9000007    1    1    2    0  502  0.40664857744E+02  0.67012025840E+02  0.12480534826E+03  0.42628701272E+03  0.40000000000E+03 0. -1.
<mgrwt>
<rscale>  2 0.40760795E+03</rscale>
<asrwt>0</asrwt>
<pdfrwt beam="1">  1       21 0.44551412E-01 0.40760795E+03</pdfrwt>
<pdfrwt beam="2">  1       21 0.47839592E+00 0.40760795E+03</pdfrwt>
<totfact> 0.96151238E+00</totfact>
</mgrwt>
</event>
<event>
 4    1  0.4703494E-002  0.5324593E+03  0.7818608E-02  0.1005637E+00
         21   -1    0    0  501  502  0.00000000000E+00  0.00000000000E+00  0.78430930318E+03  0.78430930318E+03  0.00000000000E+00 0. -1.
         21   -1    0    0  502  503 -0.00000000000E+00 -0.00000000000E+00 -0.38288224620E+03  0.38288224620E+03  0.00000000000E+00 0.  1.
    9000007    1    1    2  501    0  0.19142886256E+03 -0.29473358994E+03  0.33868815307E+03  0.63104878060E+03  0.40000000000E+03 0. -1.
   -9000007    1    1    2    0  503 -0.19142886256E+03  0.29473358994E+03  0.62738903898E+02  0.53614276879E+03  0.40000000000E+03 0.  1.
<mgrwt>
<rscale>  2 0.53245929E+03</rscale>
<asrwt>0</asrwt>
<pdfrwt beam="1">  1       21 0.12066297E+00 0.53245929E+03</pdfrwt>
<pdfrwt beam="2">  1       21 0.58904961E-01 0.53245929E+03</pdfrwt>
<totfact> 0.11597489E+03</totfact>
</mgrwt>
</event>
<event>
 4    1  0.4703494E-002  0.4250695E+03  0.7818608E-02  0.1035429E+00
         21   -1    0    0  501  502  0.00000000000E+00  0.00000000000E+00  0.24749329702E+03  0.24749329702E+03  0.00000000000E+00 0. -1.
         21   -1    0    0  502  503 -0.00000000000E+00 -0.00000000000E+00 -0.78579532139E+03  0.78579532139E+03  0.00000000000E+00 0.  1.
    9000007    1    1    2  501    0 -0.12834363328E+03 -0.64899616545E+02 -0.13155163167E+03  0.44496053783E+03  0.40000000000E+03 0. -1.
   -9000007    1    1    2    0  503  0.12834363328E+03  0.64899616545E+02 -0.40675039270E+03  0.58832808057E+03  0.40000000000E+03 0. -1.
<mgrwt>
<rscale>  2 0.42506946E+03</rscale>
<asrwt>0</asrwt>
<pdfrwt beam="1">  1       21 0.38075892E-01 0.42506946E+03</pdfrwt>
<pdfrwt beam="2">  1       21 0.12089159E+00 0.42506946E+03</pdfrwt>
<totfact> 0.30191342E+03</totfact>
</mgrwt>
</event>
<event>
 4    1  0.4703494E-002  0.4711949E+03  0.7818608E-02  0.1021584E+00
         21   -1    0    0  503  502  0.00000000000E+00  0.00000000000E+00  0.13147977373E+04  0.13147977373E+04  0.00000000000E+00 0. -1.
         21   -1    0    0  501  503 -0.00000000000E+00 -0.00000000000E+00 -0.27079994057E+03  0.27079994057E+03  0.00000000000E+00 0. -1.
    9000007    1    1    2  501    0 -0.24515999164E+03  0.43831627042E+02  0.35593784172E+02  0.47253735355E+03  0.40000000000E+03 0. -1.
   -9000007    1    1    2    0  502  0.24515999164E+03 -0.43831627042E+02  0.10084040126E+04  0.11130603243E+04  0.40000000000E+03 0. -1.
<mgrwt>
<rscale>  2 0.47119490E+03</rscale>
<asrwt>0</asrwt>
<pdfrwt beam="1">  1       21 0.20227657E+00 0.47119490E+03</pdfrwt>
<pdfrwt beam="2">  1       21 0.41661530E-01 0.47119490E+03</pdfrwt>
<totfact> 0.58862956E+02</totfact>
</mgrwt>
</event>
<event>
 4    1  0.4703494E-002  0.6263076E+03  0.7818608E-02  0.9852281E-01
         21   -1    0    0  501  502  0.00000000000E+00  0.00000000000E+00  0.15804929746E+04  0.15804929746E+04  0.00000000000E+00 0.  1.
         21   -1    0    0  502  503 -0.00000000000E+00 -0.00000000000E+00 -0.41855525632E+03  0.41855525632E+03  0.00000000000E+00 0. -1.
    9000007    1    1    2  501    0  0.46966148924E+03  0.10807055160E+03  0.12186572568E+04  0.13701776046E+04  0.40000000000E+03 0.  1.
   -9000007    1    1    2    0  503 -0.46966148924E+03 -0.10807055160E+03 -0.56719538523E+02  0.62887062632E+03  0.40000000000E+03 0. -1.
<mgrwt>
<rscale>  2 0.62630756E+03</rscale>
<asrwt>0</asrwt>
<pdfrwt beam="1">  1       21 0.24315276E+00 0.62630756E+03</pdfrwt>
<pdfrwt beam="2">  1       21 0.64393117E-01 0.62630756E+03</pdfrwt>
<totfact> 0.11774258E+02</totfact>
</mgrwt>
</event>
<event>
 4    1  0.4703494E-002  0.4355689E+03  0.7818608E-02  0.1032115E+00
         21   -1    0    0  503  502  0.00000000000E+00  0.00000000000E+00  0.36627682016E+03  0.36627682016E+03  0.00000000000E+00 0. -1.
         21   -1    0    0  501  503 -0.00000000000E+00 -0.00000000000E+00 -0.85678205582E+03  0.85678205582E+03  0.00000000000E+00 0. -1.
    9000007    1    1    2  501    0  0.17214822017E+03  0.92317054356E+01 -0.62981067309E+03  0.76575565165E+03  0.40000000000E+03 0. -1.
   -9000007    1    1    2    0  502 -0.17214822017E+03 -0.92317054356E+01  0.13930543743E+03  0.45730322434E+03  0.40000000000E+03 0. -1.
<mgrwt>
<rscale>  2 0.43556886E+03</rscale>
<asrwt>0</asrwt>
<pdfrwt beam="1">  1       21 0.56350280E-01 0.43556886E+03</pdfrwt>
<pdfrwt beam="2">  1       21 0.13181262E+00 0.43556886E+03</pdfrwt>
<totfact> 0.10553664E+03</totfact>
</mgrwt>
</event>
<event>
 4    1  0.4703494E-002  0.5033967E+03  0.7818608E-02  0.1012896E+00
         21   -1    0    0  501  502  0.00000000000E+00  0.00000000000E+00  0.12611919331E+04  0.12611919331E+04  0.00000000000E+00 0. -1.
         21   -1    0    0  502  503 -0.00000000000E+00 -0.00000000000E+00 -0.21736221818E+03  0.21736221818E+03  0.00000000000E+00 0.  1.
    9000007    1    1    2  501    0  0.29022285504E+03  0.95806585699E+02  0.72519532786E+03  0.88278902973E+03  0.40000000000E+03 0. -1.
   -9000007    1    1    2    0  503 -0.29022285504E+03 -0.95806585699E+02  0.31863438710E+03  0.59576512158E+03  0.40000000000E+03 0. -1.
<mgrwt>
<rscale>  2 0.50339667E+03</rscale>
<asrwt>0</asrwt>
<pdfrwt beam="1">  1       21 0.19402952E+00 0.50339667E+03</pdfrwt>
<pdfrwt beam="2">  1       21 0.33440342E-01 0.50339667E+03</pdfrwt>
<totfact> 0.10337693E+03</totfact>
</mgrwt>
</event>
<event>
 4    1  0.4703494E-002  0.5385079E+03  0.7818608E-02  0.1004189E+00
         21   -1    0    0  503  502  0.00000000000E+00  0.00000000000E+00  0.13231174833E+04  0.13231174833E+04  0.00000000000E+00 0.  1.
         21   -1    0    0  501  503 -0.00000000000E+00 -0.00000000000E+00 -0.23731783716E+03  0.23731783716E+03  0.00000000000E+00 0. -1.
    9000007    1    1    2  501    0 -0.31961580605E+03 -0.16684268706E+03  0.32715762223E+03  0.63009749681E+03  0.40000000000E+03 0. -1.
   -9000007    1    1    2    0  502  0.31961580605E+03  0.16684268706E+03  0.75864202395E+03  0.93033782370E+03  0.40000000000E+03 0.  1.
<mgrwt>
<rscale>  2 0.53850789E+03</rscale>
<asrwt>0</asrwt>
<pdfrwt beam="1">  1       21 0.20355653E+00 0.53850789E+03</pdfrwt>
<pdfrwt beam="2">  1       21 0.36510437E-01 0.53850789E+03</pdfrwt>
<totfact> 0.73598184E+02</totfact>
</mgrwt>
</event>
<event>
 4    1  0.4703494E-002  0.4204844E+03  0.7818608E-02  0.1036909E+00
         21   -1    0    0  503  502  0.00000000000E+00  0.00000000000E+00  0.78358919454E+03  0.78358919454E+03  0.00000000000E+00 0. -1.
         21   -1    0    0  501  503 -0.00000000000E+00 -0.00000000000E+00 -0.23306998536E+03  0.23306998536E+03  0.00000000000E+00 0. -1.
    9000007    1    1    2  501    0  0.15123815129E+00 -0.12964212463E+03  0.18448395209E+03  0.45917472920E+03  0.40000000000E+03 0. -1.
   -9000007    1    1    2    0  502 -0.15123815129E+00  0.12964212463E+03  0.36603525708E+03  0.55748445071E+03  0.40000000000E+03 0. -1.
<mgrwt>
<rscale>  2 0.42048437E+03</rscale>
<asrwt>0</asrwt>
<pdfrwt beam="1">  1       21 0.12055218E+00 0.42048437E+03</pdfrwt>
<pdfrwt beam="2">  1       21 0.35856921E-01 0.42048437E+03</pdfrwt>
<totfact> 0.34420485E+03</totfact>
</mgrwt>
</event>
<event>
 4    1  0.4703494E-002  0.4079174E+03  0.7818608E-02  0.1041072E+00
         21   -1    0    0  503  502  0.00000000000E+00  0.00000000000E+00  0.14104830447E+04  0.14104830447E+04  0.00000000000E+00 0.  1.
         21   -1    0    0  501  503 -0.00000000000E+00 -0.00000000000E+00 -0.12144613288E+03  0.12144613288E+03  0.00000000000E+00 0.  1.
    9000007    1    1    2  501    0  0.53242412678E+02  0.59680955788E+02  0.51495531173E+03  0.65694409509E+03  0.40000000000E+03 0.  1.
   -9000007    1    1    2    0  502 -0.53242412678E+02 -0.59680955788E+02  0.77408160009E+03  0.87498508250E+03  0.40000000000E+03 0.  1.
<mgrwt>
<rscale>  2 0.40791736E+03</rscale>
<asrwt>0</asrwt>
<pdfrwt beam="1">  1       21 0.21699738E+00 0.40791736E+03</pdfrwt>
<pdfrwt beam="2">  1       21 0.18684021E-01 0.40791736E+03</pdfrwt>
<totfact> 0.23647386E+03</totfact>
</mgrwt>
</event>
<event>
 4    1  0.4703494E-002  0.6861766E+03  0.7818608E-02  0.9741169E-01
         21   -1    0    0  501  502  0.00000000000E+00  0.00000000000E+00  0.18697143220E+04  0.18697143220E+04  0.00000000000E+00 0.  1.
         21   -1    0    0  502  503 -0.00000000000E+00 -0.00000000000E+00 -0.84522429778E+03  0.84522429778E+03  0.00000000000E+00 0. -1.
    9000007    1    1    2  501    0  0.54979269723E+03 -0.92554171761E+02  0.16496576284E+04  0.17866752854E+04  0.40000000000E+03 0.  1.
   -9000007    1    1    2    0  503 -0.54979269723E+03  0.92554171761E+02 -0.62516760416E+03  0.92826333436E+03  0.40000000000E+03 0. -1.
<mgrwt>
<rscale>  2 0.68617657E+03</rscale>
<asrwt>0</asrwt>
<pdfrwt beam="1">  1       21 0.28764836E+00 0.68617657E+03</pdfrwt>
<pdfrwt beam="2">  1       21 0.13003451E+00 0.68617657E+03</pdfrwt>
<totfact> 0.11183975E+01</totfact>
</mgrwt>
</event>
<event>
 4    1  0.4703494E-002  0.4650238E+03  0.7818608E-02  0.1023334E+00
         21   -1    0    0  501  502  0.00000000000E+00  0.00000000000E+00  0.60700359510E+03  0.60700359510E+03  0.00000000000E+00 0. -1.
         21   -1    0    0  502  503 -0.00000000000E+00 -0.00000000000E+00 -0.39526696474E+03  0.39526696474E+03  0.00000000000E+00 0. -1.
    9000007    1    1    2  501    0  0.12966300570E+03  0.19858161510E+03  0.26330901121E+03  0.53439572256E+03  0.40000000000E+03 0. -1.
   -9000007    1    1    2    0  503 -0.12966300570E+03 -0.19858161510E+03 -0.51572380851E+02  0.46787483729E+03  0.40000000000E+03 0. -1.
<mgrwt>
<rscale>  2 0.46502382E+03</rscale>
<asrwt>0</asrwt>
<pdfrwt beam="1">  1       21 0.93385168E-01 0.46502382E+03</pdfrwt>
<pdfrwt beam="2">  1       21 0.60810303E-01 0.46502382E+03</pdfrwt>
<totfact> 0.20851714E+03</totfact>
</mgrwt>
</event>
<event>
 4    1  0.4703494E-002  0.4385603E+03  0.7818608E-02  0.1031189E+00
         21   -1    0    0  501  502  0.00000000000E+00  0.00000000000E+00  0.18313485787E+04  0.18313485787E+04  0.00000000000E+00 0.  1.
         21   -1    0    0  502  503 -0.00000000000E+00 -0.00000000000E+00 -0.12587071269E+03  0.12587071269E+03  0.00000000000E+00 0. -1.
    9000007    1    1    2  501    0 -0.65006583824E+02 -0.16765831057E+03  0.12510002673E+04  0.13256458176E+04  0.40000000000E+03 0.  1.
   -9000007    1    1    2    0  503  0.65006583824E+02  0.16765831057E+03  0.45447759877E+03  0.63157347381E+03  0.40000000000E+03 0. -1.
<mgrwt>
<rscale>  2 0.43856033E+03</rscale>
<asrwt>0</asrwt>
<pdfrwt beam="1">  1       21 0.28174592E+00 0.43856033E+03</pdfrwt>
<pdfrwt beam="2">  1       21 0.19364726E-01 0.43856033E+03</pdfrwt>
<totfact> 0.86912347E+02</totfact>
</mgrwt>
</event>
<event>
 4    1  0.4703494E-002  0.4209645E+03  0.7818608E-02  0.1036753E+00
         21   -1    0    0  503  502  0.00000000000E+00  0.00000000000E+00  0.29229004439E+03  0.29229004439E+03  0.00000000000E+00 0. -1.
         21   -1    0    0  501  503 -0.00000000000E+00 -0.00000000000E+00 -0.61917370044E+03  0.61917370044E+03  0.00000000000E+00 0. -1.
    9000007    1    1    2  501    0  0.21501057208E+02  0.12941720087E+03 -0.22919330903E+03  0.47931271655E+03  0.40000000000E+03 0. -1.
   -9000007    1    1    2    0  502 -0.21501057208E+02 -0.12941720087E+03 -0.97690347023E+02  0.43215102828E+03  0.40000000000E+03 0. -1.
<mgrwt>
<rscale>  2 0.42096450E+03</rscale>
<asrwt>0</asrwt>
<pdfrwt beam="1">  1       21 0.44967700E-01 0.42096450E+03</pdfrwt>
<pdfrwt beam="2">  1       21 0.95257491E-01 0.42096450E+03</pdfrwt>
<totfact> 0.38575992E+03</totfact>
</mgrwt>
</event>
<event>
 4    1  0.4703494E-002  0.5771638E+03  0.7818608E-02  0.9953950E-01
         21   -1    0    0  503  502  0.00000000000E+00  0.00000000000E+00  0.67739320223E+03  0.67739320223E+03  0.00000000000E+00 0. -1.
         21   -1    0    0  501  503 -0.00000000000E+00 -0.00000000000E+00 -0.73735815764E+03  0.73735815764E+03  0.00000000000E+00 0.  1.
    9000007    1    1    2  501    0  0.35444347566E+03 -0.21791703523E+03 -0.43822604086E+03  0.72467929084E+03  0.40000000000E+03 0.  1.
   -9000007    1    1    2    0  502 -0.35444347566E+03  0.21791703523E+03  0.37826108545E+03  0.69007206902E+03  0.40000000000E+03 0. -1.
<mgrwt>
<rscale>  2 0.57716377E+03</rscale>
<asrwt>0</asrwt>
<pdfrwt beam="1">  1       21 0.10421434E+00 0.57716377E+03</pdfrwt>
<pdfrwt beam="2">  1       21 0.11343972E+00 0.57716377E+03</pdfrwt>
<totfact> 0.35553848E+02</totfact>
</mgrwt>
</event>
<event>
 4    1  0.4703494E-002  0.4523523E+03  0.7818608E-02  0.1027023E+00
         21   -1    0    0  503  502  0.00000000000E+00  0.00000000000E+00  0.24301676132E+04  0.24301676132E+04  0.00000000000E+00 0. -1.
         21   -1    0    0  501  503 -0.00000000000E+00 -0.00000000000E+00 -0.94114313552E+02  0.94114313552E+02  0.00000000000E+00 0. -1.
    9000007    1    1    2  501    0 -0.10566594827E+03 -0.18291328794E+03  0.75839900273E+03  0.88305810163E+03  0.40000000000E+03 0. -1.
   -9000007    1    1    2    0  502  0.10566594827E+03  0.18291328794E+03  0.15776542969E+04  0.16412238251E+04  0.40000000000E+03 0. -1.
<mgrwt>
<rscale>  2 0.45235226E+03</rscale>
<asrwt>0</asrwt>
<pdfrwt beam="1">  1       21 0.37387189E+00 0.45235226E+03</pdfrwt>
<pdfrwt beam="2">  1       21 0.14479127E-01 0.45235226E+03</pdfrwt>
<totfact> 0.40898003E+02</totfact>
</mgrwt>
</event>
<event>
 4    1  0.4703494E-002  0.4388274E+03  0.7818608E-02  0.1031107E+00
         21   -1    0    0  503  502  0.00000000000E+00  0.00000000000E+00  0.29718025813E+03  0.29718025813E+03  0.00000000000E+00 0. -1.
         21   -1    0    0  501  503 -0.00000000000E+00 -0.00000000000E+00 -0.76030028506E+03  0.76030028506E+03  0.00000000000E+00 0. -1.
    9000007    1    1    2  501    0  0.17872616238E+03  0.25029101599E+02 -0.28342197469E+02  0.43974171647E+03  0.40000000000E+03 0. -1.
   -9000007    1    1    2    0  502 -0.17872616238E+03 -0.25029101599E+02 -0.43477782946E+03  0.61773882672E+03  0.40000000000E+03 0. -1.
<mgrwt>
<rscale>  2 0.43882741E+03</rscale>
<asrwt>0</asrwt>
<pdfrwt beam="1">  1       21 0.45720040E-01 0.43882741E+03</pdfrwt>
<pdfrwt beam="2">  1       21 0.11696927E+00 0.43882741E+03</pdfrwt>
<totfact> 0.22350810E+03</totfact>
</mgrwt>
</event>
<event>
 4    1  0.4703494E-002  0.4529351E+03  0.7818608E-02  0.1026850E+00
         21   -1    0    0  501  502  0.00000000000E+00  0.00000000000E+00  0.15221010980E+04  0.15221010980E+04  0.00000000000E+00 0. -1.
         21   -1    0    0  502  503 -0.00000000000E+00 -0.00000000000E+00 -0.24028492970E+03  0.24028492970E+03  0.00000000000E+00 0.  1.
    9000007    1    1    2  501    0  0.91210592037E+02 -0.19191362721E+03  0.12248131271E+04  0.13058780222E+04  0.40000000000E+03 0.  1.
   -9000007    1    1    2    0  503 -0.91210592037E+02  0.19191362721E+03  0.57003041166E+02  0.45650800553E+03  0.40000000000E+03 0.  1.
<mgrwt>
<rscale>  2 0.45293511E+03</rscale>
<asrwt>0</asrwt>
<pdfrwt beam="1">  1       21 0.23416939E+00 0.45293511E+03</pdfrwt>
<pdfrwt beam="2">  1       21 0.36966913E-01 0.45293511E+03</pdfrwt>
<totfact> 0.47351885E+02</totfact>
</mgrwt>
</event>
<event>
 4    1  0.4703494E-002  0.5831307E+03  0.7818608E-02  0.9941036E-01
         21   -1    0    0  501  502  0.00000000000E+00  0.00000000000E+00  0.32747363108E+03  0.32747363108E+03  0.00000000000E+00 0. -1.
         21   -1    0    0  502  503 -0.00000000000E+00 -0.00000000000E+00 -0.13006421509E+04  0.13006421509E+04  0.00000000000E+00 0.  1.
    9000007    1    1    2  501    0  0.23187154195E+03 -0.35535467851E+03 -0.12103493893E+03  0.59555924638E+03  0.40000000000E+03 0. -1.
   -9000007    1    1    2    0  503 -0.23187154195E+03  0.35535467851E+03 -0.85213358084E+03  0.10325565355E+04  0.40000000000E+03 0.  1.
<mgrwt>
<rscale>  2 0.58313065E+03</rscale>
<asrwt>0</asrwt>
<pdfrwt beam="1">  1       21 0.50380559E-01 0.58313065E+03</pdfrwt>
<pdfrwt beam="2">  1       21 0.20009879E+00 0.58313065E+03</pdfrwt>
<totfact> 0.38917742E+02</totfact>
</mgrwt>
</event>
<event>
 4    1  0.4703494E-002  0.4784703E+03  0.7818608E-02  0.1019556E+00
         21   -1    0    0  503  502  0.00000000000E+00  0.00000000000E+00  0.69091231335E+03  0.69091231335E+03  0.00000000000E+00 0. -1.
         21   -1    0    0  501  503 -0.00000000000E+00 -0.00000000000E+00 -0.36101087874E+03  0.36101087874E+03  0.00000000000E+00 0.  1.
    9000007    1    1    2  501    0  0.47326392658E+02  0.25825184052E+03  0.14190818262E+02  0.47868066589E+03  0.40000000000E+03 0.  1.
   -9000007    1    1    2    0  502 -0.47326392658E+02 -0.25825184052E+03  0.31571061635E+03  0.57324252620E+03  0.40000000000E+03 0. -1.
<mgrwt>
<rscale>  2 0.47847027E+03</rscale>
<asrwt>0</asrwt>
<pdfrwt beam="1">  1       21 0.10629420E+00 0.47847027E+03</pdfrwt>
<pdfrwt beam="2">  1       21 0.55540135E-01 0.47847027E+03</pdfrwt>
<totfact> 0.18459878E+03</totfact>
</mgrwt>
</event>
<event>
 4    1  0.4703494E-002  0.5103029E+03  0.7818608E-02  0.1011124E+00
         21   -1    0    0  503  502  0.00000000000E+00  0.00000000000E+00  0.14010856876E+04  0.14010856876E+04  0.00000000000E+00 0.  1.
         21   -1    0    0  501  503 -0.00000000000E+00 -0.00000000000E+00 -0.24668323226E+03  0.24668323226E+03  0.00000000000E+00 0. -1.
    9000007    1    1    2  501    0  0.15141922811E+02 -0.31651193430E+03  0.16810747820E+03  0.53727944927E+03  0.40000000000E+03 0. -1.
   -9000007    1    1    2    0  502 -0.15141922811E+02  0.31651193430E+03  0.98629497717E+03  0.11104894706E+04  0.40000000000E+03 0. -1.
<mgrwt>
<rscale>  2 0.51030293E+03</rscale>
<asrwt>0</asrwt>
<pdfrwt beam="1">  1       21 0.21555164E+00 0.51030293E+03</pdfrwt>
<pdfrwt beam="2">  1       21 0.37951268E-01 0.51030293E+03</pdfrwt>
<totfact> 0.57368702E+02</totfact>
</mgrwt>
</event>
<event>
 4    1  0.4703494E-002  0.4082573E+03  0.7818608E-02  0.1040957E+00
         21   -1    0    0  503  502  0.00000000000E+00  0.00000000000E+00  0.12839177422E+04  0.12839177422E+04  0.00000000000E+00 0. -1.
         21   -1    0    0  501  503 -0.00000000000E+00 -0.00000000000E+00 -0.17161761805E+03  0.17161761805E+03  0.00000000000E+00 0. -1.
    9000007    1    1    2  501    0  0.55262960365E+02 -0.60166505552E+02  0.19697631717E+03  0.45329203909E+03  0.40000000000E+03 0. -1.
   -9000007    1    1    2    0  502 -0.55262960365E+02  0.60166505552E+02  0.91532380699E+03  0.10022433212E+04  0.40000000000E+03 0. -1.
<mgrwt>
<rscale>  2 0.40825728E+03</rscale>
<asrwt>0</asrwt>
<pdfrwt beam="1">  1       21 0.19752580E+00 0.40825728E+03</pdfrwt>
<pdfrwt beam="2">  1       21 0.26402711E-01 0.40825728E+03</pdfrwt>
<totfact> 0.16319926E+03</totfact>
</mgrwt>
</event>
<event>
 4    1  0.4703494E-002  0.4007449E+03  0.7818608E-02  0.1043522E+00
         21   -1    0    0  503  502  0.00000000000E+00  0.00000000000E+00  0.95656619536E+03  0.95656619536E+03  0.00000000000E+00 0. -1.
         21   -1    0    0  501  503 -0.00000000000E+00 -0.00000000000E+00 -0.51434660081E+03  0.51434660081E+03  0.00000000000E+00 0. -1.
    9000007    1    1    2  501    0 -0.21960368048E+02 -0.10687509834E+02 -0.38249730682E+03  0.55398616441E+03  0.40000000000E+03 0. -1.
   -9000007    1    1    2    0  502  0.21960368048E+02  0.10687509834E+02  0.82471690137E+03  0.91692663176E+03  0.40000000000E+03 0. -1.
<mgrwt>
<rscale>  2 0.40074491E+03</rscale>
<asrwt>0</asrwt>
<pdfrwt beam="1">  1       21 0.14716403E+00 0.40074491E+03</pdfrwt>
<pdfrwt beam="2">  1       21 0.79130246E-01 0.40074491E+03</pdfrwt>
<totfact> 0.37605379E+02</totfact>
</mgrwt>
</event>
<event>
 4    1  0.4703494E-002  0.7687626E+03  0.7818608E-02  0.9606366E-01
         21   -1    0    0  501  502  0.00000000000E+00  0.00000000000E+00  0.11396396905E+04  0.11396396905E+04  0.00000000000E+00 0. -1.
         21   -1    0    0  502  503 -0.00000000000E+00 -0.00000000000E+00 -0.52153429292E+03  0.52153429292E+03  0.00000000000E+00 0.  1.
    9000007    1    1    2  501    0  0.58734859683E+03 -0.29328750669E+03  0.24655439779E+03  0.80733203012E+03  0.40000000000E+03 0. -1.
   -9000007    1    1    2    0  503 -0.58734859683E+03  0.29328750669E+03  0.37155099979E+03  0.85384195331E+03  0.40000000000E+03 0.  1.
<mgrwt>
<rscale>  2 0.76876260E+03</rscale>
<asrwt>0</asrwt>
<pdfrwt beam="1">  1       21 0.17532918E+00 0.76876260E+03</pdfrwt>
<pdfrwt beam="2">  1       21 0.80236045E-01 0.76876260E+03</pdfrwt>
<totfact> 0.19283295E+02</totfact>
</mgrwt>
</event>
<event>
 4    1  0.4703494E-002  0.4115781E+03  0.7818608E-02  0.1039843E+00
         21   -1    0    0  503  502  0.00000000000E+00  0.00000000000E+00  0.14938743360E+04  0.14938743360E+04  0.00000000000E+00 0. -1.
         21   -1    0    0  501  503 -0.00000000000E+00 -0.00000000000E+00 -0.11357509632E+03  0.11357509632E+03  0.00000000000E+00 0. -1.
    9000007    1    1    2  501    0  0.96507763488E+02  0.91000988491E+01  0.72223306989E+03  0.83127442367E+03  0.40000000000E+03 0. -1.
   -9000007    1    1    2    0  502 -0.96507763488E+02 -0.91000988491E+01  0.65806616978E+03  0.77617500863E+03  0.40000000000E+03 0. -1.
<mgrwt>
<rscale>  2 0.41157813E+03</rscale>
<asrwt>0</asrwt>
<pdfrwt beam="1">  1       21 0.22982681E+00 0.41157813E+03</pdfrwt>
<pdfrwt beam="2">  1       21 0.17473093E-01 0.41157813E+03</pdfrwt>
<totfact> 0.22208612E+03</totfact>
</mgrwt>
</event>
<event>
 4    1  0.4703494E-002  0.4335541E+03  0.7818608E-02  0.1032743E+00
         21   -1    0    0  501  502  0.00000000000E+00  0.00000000000E+00  0.42863932831E+03  0.42863932831E+03  0.00000000000E+00 0. -1.
         21   -1    0    0  502  503 -0.00000000000E+00 -0.00000000000E+00 -0.43889299370E+03  0.43889299370E+03  0.00000000000E+00 0. -1.
    9000007    1    1    2  501    0 -0.38960833082E+02 -0.16263840700E+03  0.74279311109E+01  0.43361777190E+03  0.40000000000E+03 0.  1.
   -9000007    1    1    2    0  503  0.38960833082E+02  0.16263840700E+03 -0.17681596502E+02  0.43391455011E+03  0.40000000000E+03 0.  1.
<mgrwt>
<rscale>  2 0.43355415E+03</rscale>
<asrwt>0</asrwt>
<pdfrwt beam="1">  1       21 0.65944512E-01 0.43355415E+03</pdfrwt>
<pdfrwt beam="2">  1       21 0.67521999E-01 0.43355415E+03</pdfrwt>
<totfact> 0.37267361E+03</totfact>
</mgrwt>
</event>
<event>
 4    1  0.4703494E-002  0.4090574E+03  0.7818608E-02  0.1040688E+00
         21   -1    0    0  501  502  0.00000000000E+00  0.00000000000E+00  0.45478469175E+03  0.45478469175E+03  0.00000000000E+00 0. -1.
         21   -1    0    0  502  503 -0.00000000000E+00 -0.00000000000E+00 -0.11987028454E+04  0.11987028454E+04  0.00000000000E+00 0. -1.
    9000007    1    1    2  501    0  0.73359974331E+02  0.44116593114E+02  0.31630779631E+03  0.51708662875E+03  0.40000000000E+03 0. -1.
   -9000007    1    1    2    0  503 -0.73359974331E+02 -0.44116593114E+02 -0.10602259500E+04  0.11364009084E+04  0.40000000000E+03 0. -1.
<mgrwt>
<rscale>  2 0.40905740E+03</rscale>
<asrwt>0</asrwt>
<pdfrwt beam="1">  1       21 0.69966876E-01 0.40905740E+03</pdfrwt>
<pdfrwt beam="2">  1       21 0.18441582E+00 0.40905740E+03</pdfrwt>
<totfact> 0.26273279E+02</totfact>
</mgrwt>
</event>
<event>
 4    1  0.4703494E-002  0.4680205E+03  0.7818608E-02  0.1022480E+00
         21   -1    0    0  501  502  0.00000000000E+00  0.00000000000E+00  0.44363534632E+03  0.44363534632E+03  0.00000000000E+00 0. -1.
         21   -1    0    0  502  503 -0.00000000000E+00 -0.00000000000E+00 -0.49773781704E+03  0.49773781704E+03  0.00000000000E+00 0. -1.
    9000007    1    1    2  501    0 -0.19581879984E+03  0.14386863224E+03  0.15100536027E+02  0.46826404080E+03  0.40000000000E+03 0. -1.
   -9000007    1    1    2    0  503  0.19581879984E+03 -0.14386863224E+03 -0.69203006742E+02  0.47310912257E+03  0.40000000000E+03 0. -1.
<mgrwt>
<rscale>  2 0.46802050E+03</rscale>
<asrwt>0</asrwt>
<pdfrwt beam="1">  1       21 0.68251592E-01 0.46802050E+03</pdfrwt>
<pdfrwt beam="2">  1       21 0.76575048E-01 0.46802050E+03</pdfrwt>
<totfact> 0.25645482E+03</totfact>
</mgrwt>
</event>
<event>
 4    1  0.4703494E-002  0.5113600E+03  0.7818608E-02  0.1010856E+00
         21   -1    0    0  501  502  0.00000000000E+00  0.00000000000E+00  0.11609403921E+04  0.11609403921E+04  0.00000000000E+00 0. -1.
         21   -1    0    0  502  503 -0.00000000000E+00 -0.00000000000E+00 -0.44214518421E+03  0.44214518421E+03  0.00000000000E+00 0. -1.
    9000007    1    1    2  501    0  0.28894042556E+02 -0.31726044841E+03  0.92080770761E+03  0.10532691452E+04  0.40000000000E+03 0. -1.
   -9000007    1    1    2    0  503 -0.28894042556E+02  0.31726044841E+03 -0.20201249976E+03  0.54981643107E+03  0.40000000000E+03 0. -1.
<mgrwt>
<rscale>  2 0.51136001E+03</rscale>
<asrwt>0</asrwt>
<pdfrwt beam="1">  1       21 0.17860621E+00 0.51136001E+03</pdfrwt>
<pdfrwt beam="2">  1       21 0.68022337E-01 0.51136001E+03</pdfrwt>
<totfact> 0.29216816E+02</totfact>
</mgrwt>
</event>
<event>
 4    1  0.4703494E-002  0.4393993E+03  0.7818608E-02  0.1030931E+00
         21   -1    0    0  501  502  0.00000000000E+00  0.00000000000E+00  0.15224618921E+03  0.15224618921E+03  0.00000000000E+00 0. -1.
         21   -1    0    0  502  503 -0.00000000000E+00 -0.00000000000E+00 -0.15594824668E+04  0.15594824668E+04  0.00000000000E+00 0. -1.
    9000007    1    1    2  501    0 -0.16623256125E+03 -0.73745837880E+02 -0.33369997780E+03  0.55174938895E+03  0.40000000000E+03 0. -1.
   -9000007    1    1    2    0  503  0.16623256125E+03  0.73745837880E+02 -0.10735362997E+04  0.11599792670E+04  0.40000000000E+03 0. -1.
<mgrwt>
<rscale>  2 0.43939926E+03</rscale>
<asrwt>0</asrwt>
<pdfrwt beam="1">  1       21 0.23422490E-01 0.43939926E+03</pdfrwt>
<pdfrwt beam="2">  1       21 0.23992038E+00 0.43939926E+03</pdfrwt>
<totfact> 0.10850224E+03</totfact>
</mgrwt>
</event>
<event>
 4    1  0.4703494E-002  0.5239360E+03  0.7818608E-02  0.1007713E+00
         21   -1    0    0  501  502  0.00000000000E+00  0.00000000000E+00  0.79612121128E+03  0.79612121128E+03  0.00000000000E+00 0. -1.
         21   -1    0    0  502  503 -0.00000000000E+00 -0.00000000000E+00 -0.34507961159E+03  0.34507961159E+03  0.00000000000E+00 0.  1.
    9000007    1    1    2  501    0 -0.33743747650E+03 -0.25395152854E+02  0.20951251321E+03  0.56427338900E+03  0.40000000000E+03 0. -1.
   -9000007    1    1    2    0  503  0.33743747650E+03  0.25395152854E+02  0.24152908648E+03  0.57692743387E+03  0.40000000000E+03 0. -1.
<mgrwt>
<rscale>  2 0.52393603E+03</rscale>
<asrwt>0</asrwt>
<pdfrwt beam="1">  1       21 0.12248019E+00 0.52393603E+03</pdfrwt>
<pdfrwt beam="2">  1       21 0.53089171E-01 0.52393603E+03</pdfrwt>
<totfact> 0.14029579E+03</totfact>
</mgrwt>
</event>
<event>
 4    1  0.4703494E-002  0.6638619E+03  0.7818608E-02  0.9781110E-01
         21   -1    0    0  503  502  0.00000000000E+00  0.00000000000E+00  0.72915567399E+03  0.72915567399E+03  0.00000000000E+00 0.  1.
         21   -1    0    0  501  503 -0.00000000000E+00 -0.00000000000E+00 -0.11284646181E+04  0.11284646181E+04  0.00000000000E+00 0.  1.
    9000007    1    1    2  501    0  0.52982093057E+03  0.15674793637E+01 -0.83260410772E+03  0.10648672573E+04  0.40000000000E+03 0.  1.
   -9000007    1    1    2    0  502 -0.52982093057E+03 -0.15674793637E+01  0.43329516357E+03  0.79275303484E+03  0.40000000000E+03 0.  1.
<mgrwt>
<rscale>  2 0.66386194E+03</rscale>
<asrwt>0</asrwt>
<pdfrwt beam="1">  1       21 0.11217780E+00 0.66386194E+03</pdfrwt>
<pdfrwt beam="2">  1       21 0.17360994E+00 0.66386194E+03</pdfrwt>
<totfact> 0.91047231E+01</totfact>
</mgrwt>
</event>
<event>
 4    1  0.4703494E-002  0.4097495E+03  0.7818608E-02  0.1040455E+00
         21   -1    0    0  503  502  0.00000000000E+00  0.00000000000E+00  0.12719097937E+04  0.12719097937E+04  0.00000000000E+00 0. -1.
         21   -1    0    0  501  503 -0.00000000000E+00 -0.00000000000E+00 -0.13815973889E+03  0.13815973889E+03  0.00000000000E+00 0. -1.
    9000007    1    1    2  501    0  0.82305669825E+02 -0.33473304912E+02  0.41803180565E+03  0.58535910001E+03  0.40000000000E+03 0.  1.
   -9000007    1    1    2    0  502 -0.82305669825E+02  0.33473304912E+02  0.71571824920E+03  0.82471043262E+03  0.40000000000E+03 0.  1.
<mgrwt>
<rscale>  2 0.40974954E+03</rscale>
<asrwt>0</asrwt>
<pdfrwt beam="1">  1       21 0.19567842E+00 0.40974954E+03</pdfrwt>
<pdfrwt beam="2">  1       21 0.21255345E-01 0.40974954E+03</pdfrwt>
<totfact> 0.25509838E+03</totfact>
</mgrwt>
</event>
<event>
 4    1  0.4703494E-002  0.4103269E+03  0.7818608E-02  0.1040261E+00
         21   -1    0    0  503  502  0.00000000000E+00  0.00000000000E+00  0.83964995228E+03  0.83964995228E+03  0.00000000000E+00 0. -1.
         21   -1    0    0  501  503 -0.00000000000E+00 -0.00000000000E+00 -0.22494013681E+03  0.22494013681E+03  0.00000000000E+00 0. -1.
    9000007    1    1    2  501    0 -0.44534520938E+02  0.79905033082E+02  0.13197622888E+03  0.43102884226E+03  0.40000000000E+03 0. -1.
   -9000007    1    1    2    0  502  0.44534520938E+02 -0.79905033082E+02  0.48273358659E+03  0.63356124683E+03  0.40000000000E+03 0. -1.
<mgrwt>
<rscale>  2 0.41032687E+03</rscale>
<asrwt>0</asrwt>
<pdfrwt beam="1">  1       21 0.12917691E+00 0.41032687E+03</pdfrwt>
<pdfrwt beam="2">  1       21 0.34606175E-01 0.41032687E+03</pdfrwt>
<totfact> 0.31099266E+03</totfact>
</mgrwt>
</event>
<event>
 4    1  0.4703494E-002  0.4029770E+03  0.7818608E-02  0.1042754E+00
         21   -1    0    0  503  502  0.00000000000E+00  0.00000000000E+00  0.12849190355E+03  0.12849190355E+03  0.00000000000E+00 0. -1.
         21   -1    0    0  501  503 -0.00000000000E+00 -0.00000000000E+00 -0.13095797010E+04  0.13095797010E+04  0.00000000000E+00 0. -1.
    9000007    1    1    2  501    0  0.48799678941E+02 -0.30150394988E+01 -0.72495379582E+03  0.82942661231E+03  0.40000000000E+03 0. -1.
   -9000007    1    1    2    0  502 -0.48799678941E+02  0.30150394988E+01 -0.45613400162E+03  0.60864499222E+03  0.40000000000E+03 0. -1.
<mgrwt>
<rscale>  2 0.40297705E+03</rscale>
<asrwt>0</asrwt>
<pdfrwt beam="1">  1       21 0.19767985E-01 0.40297705E+03</pdfrwt>
<pdfrwt beam="2">  1       21 0.20147380E+00 0.40297705E+03</pdfrwt>
<totfact> 0.26880442E+03</totfact>
</mgrwt>
</event>
<event>
 4    1  0.4703494E-002  0.4526583E+03  0.7818608E-02  0.1026932E+00
         21   -1    0    0  503  502  0.00000000000E+00  0.00000000000E+00  0.17412301261E+04  0.17412301261E+04  0.00000000000E+00 0.  1.
         21   -1    0    0  501  503 -0.00000000000E+00 -0.00000000000E+00 -0.16374849258E+03  0.16374849258E+03  0.00000000000E+00 0.  1.
    9000007    1    1    2  501    0  0.59328825268E+02 -0.20341972518E+03  0.28350238887E+03  0.53410963163E+03  0.40000000000E+03 0.  1.
   -9000007    1    1    2    0  502 -0.59328825268E+02  0.20341972518E+03  0.12939792446E+04  0.13708689871E+04  0.40000000000E+03 0.  1.
<mgrwt>
<rscale>  2 0.45265825E+03</rscale>
<asrwt>0</asrwt>
<pdfrwt beam="1">  1       21 0.26788155E+00 0.45265825E+03</pdfrwt>
<pdfrwt beam="2">  1       21 0.25192077E-01 0.45265825E+03</pdfrwt>
<totfact> 0.63088696E+02</totfact>
</mgrwt>
</event>
<event>
 4    1  0.4703494E-002  0.4827235E+03  0.7818608E-02  0.1018389E+00
         21   -1    0    0  503  502  0.00000000000E+00  0.00000000000E+00  0.55027663639E+03  0.55027663639E+03  0.00000000000E+00 0.  1.
         21   -1    0    0  501  503 -0.00000000000E+00 -0.00000000000E+00 -0.55910006592E+03  0.55910006592E+03  0.00000000000E+00 0.  1.
    9000007    1    1    2  501    0  0.18361932526E+03 -0.19825709488E+03 -0.27761949860E+03  0.55686130974E+03  0.40000000000E+03 0.  1.
   -9000007    1    1    2    0  502 -0.18361932526E+03  0.19825709488E+03  0.26879606907E+03  0.55251539257E+03  0.40000000000E+03 0.  1.
<mgrwt>
<rscale>  2 0.48272345E+03</rscale>
<asrwt>0</asrwt>
<pdfrwt beam="1">  1       21 0.84657944E-01 0.48272345E+03</pdfrwt>
<pdfrwt beam="2">  1       21 0.86015395E-01 0.48272345E+03</pdfrwt>
<totfact> 0.11890693E+03</totfact>
</mgrwt>
</event>
<event>
 4    1  0.4703494E-002  0.4154515E+03  0.7818608E-02  0.1038557E+00
         21   -1    0    0  503  502  0.00000000000E+00  0.00000000000E+00  0.46285177468E+03  0.46285177468E+03  0.00000000000E+00 0.  1.
         21   -1    0    0  501  503 -0.00000000000E+00 -0.00000000000E+00 -0.44249889497E+03  0.44249889497E+03  0.00000000000E+00 0.  1.
    9000007    1    1    2  501    0 -0.53051593286E+02  0.98921463743E+02 -0.16934447412E+03  0.44863958637E+03  0.40000000000E+03 0.  1.
   -9000007    1    1    2    0  502  0.53051593286E+02 -0.98921463743E+02  0.18969735383E+03  0.45671108328E+03  0.40000000000E+03 0.  1.
<mgrwt>
<rscale>  2 0.41545147E+03</rscale>
<asrwt>0</asrwt>
<pdfrwt beam="1">  1       21 0.71207965E-01 0.41545147E+03</pdfrwt>
<pdfrwt beam="2">  1       21 0.68076753E-01 0.41545147E+03</pdfrwt>
<totfact> 0.31013838E+03</totfact>
</mgrwt>
</event>
<event>
 4    1  0.4703494E-002  0.5011618E+03  0.7818608E-02  0.1013476E+00
         21   -1    0    0  503  502  0.00000000000E+00  0.00000000000E+00  0.14077018864E+04  0.14077018864E+04  0.00000000000E+00 0. -1.
         21   -1    0    0  501  503 -0.00000000000E+00 -0.00000000000E+00 -0.18684768660E+03  0.18684768660E+03  0.00000000000E+00 0. -1.
    9000007    1    1    2  501    0  0.29889980501E+03 -0.42685701388E+02  0.77974395708E+03  0.92691089170E+03  0.40000000000E+03 0. -1.
   -9000007    1    1    2    0  502 -0.29889980501E+03  0.42685701388E+02  0.44111024269E+03  0.66763868128E+03  0.40000000000E+03 0. -1.
<mgrwt>
<rscale>  2 0.50116181E+03</rscale>
<asrwt>0</asrwt>
<pdfrwt beam="1">  1       21 0.21656951E+00 0.50116181E+03</pdfrwt>
<pdfrwt beam="2">  1       21 0.28745799E-01 0.50116181E+03</pdfrwt>
<totfact> 0.99277407E+02</totfact>
</mgrwt>
</event>
<event>
 4    1  0.4703494E-002  0.4097261E+03  0.7818608E-02  0.1040463E+00
         21   -1    0    0  501  502  0.00000000000E+00  0.00000000000E+00  0.42849662449E+03  0.42849662449E+03  0.00000000000E+00 0. -1.
         21   -1    0    0  502  503 -0.00000000000E+00 -0.00000000000E+00 -0.39920429705E+03  0.39920429705E+03  0.00000000000E+00 0.  1.
    9000007    1    1    2  501    0  0.81510250929E+02 -0.35093040608E+02  0.71092969403E+02  0.41584811266E+03  0.40000000000E+03 0. -1.
   -9000007    1    1    2    0  503 -0.81510250929E+02  0.35093040608E+02 -0.41800641963E+02  0.41185280887E+03  0.40000000000E+03 0.  1.
<mgrwt>
<rscale>  2 0.40972606E+03</rscale>
<asrwt>0</asrwt>
<pdfrwt beam="1">  1       21 0.65922557E-01 0.40972606E+03</pdfrwt>
<pdfrwt beam="2">  1       21 0.61416046E-01 0.40972606E+03</pdfrwt>
<totfact> 0.46403904E+03</totfact>
</mgrwt>
</event>
<event>
 4    1  0.4703494E-002  0.4937635E+03  0.7818608E-02  0.1015420E+00
         21   -1    0    0  501  502  0.00000000000E+00  0.00000000000E+00  0.16489436402E+03  0.16489436402E+03  0.00000000000E+00 0.  1.
         21   -1    0    0  502  503 -0.00000000000E+00 -0.00000000000E+00 -0.14786956008E+04  0.14786956008E+04  0.00000000000E+00 0. -1.
    9000007    1    1    2  501    0  0.18440225896E+03  0.22315508987E+03 -0.64838464285E+03  0.81498774980E+03  0.40000000000E+03 0. -1.
   -9000007    1    1    2    0  503 -0.18440225896E+03 -0.22315508987E+03 -0.66541659391E+03  0.82860221500E+03  0.40000000000E+03 0. -1.
<mgrwt>
<rscale>  2 0.49376349E+03</rscale>
<asrwt>0</asrwt>
<pdfrwt beam="1">  1       21 0.25368363E-01 0.49376349E+03</pdfrwt>
<pdfrwt beam="2">  1       21 0.22749164E+00 0.49376349E+03</pdfrwt>
<totfact> 0.10840483E+03</totfact>
</mgrwt>
</event>
<event>
 4    1  0.4703494E-002  0.5925232E+03  0.7818608E-02  0.9921041E-01
         21   -1    0    0  501  502  0.00000000000E+00  0.00000000000E+00  0.46126187117E+03  0.46126187117E+03  0.00000000000E+00 0. -1.
         21   -1    0    0  502  503 -0.00000000000E+00 -0.00000000000E+00 -0.84231541204E+03  0.84231541204E+03  0.00000000000E+00 0. -1.
    9000007    1    1    2  501    0 -0.84029347110E+02  0.42897882177E+03  0.11816164038E+02  0.59264102325E+03  0.40000000000E+03 0. -1.
   -9000007    1    1    2    0  503  0.84029347110E+02 -0.42897882177E+03 -0.39286970490E+03  0.71093625997E+03  0.40000000000E+03 0. -1.
<mgrwt>
<rscale>  2 0.59252322E+03</rscale>
<asrwt>0</asrwt>
<pdfrwt beam="1">  1       21 0.70963365E-01 0.59252322E+03</pdfrwt>
<pdfrwt beam="2">  1       21 0.12958699E+00 0.59252322E+03</pdfrwt>
<totfact> 0.62350782E+02</totfact>
</mgrwt>
</event>
<event>
 4    1  0.4703494E-002  0.4505440E+03  0.7818608E-02  0.1027560E+00
         21   -1    0    0  503  502  0.00000000000E+00  0.00000000000E+00  0.20089526290E+04  0.20089526290E+04  0.00000000000E+00 0.  1.
         21   -1    0    0  501  503 -0.00000000000E+00 -0.00000000000E+00 -0.28128602437E+03  0.28128602437E+03  0.00000000000E+00 0.  1.
    9000007    1    1    2  501    0 -0.16444020439E+03  0.12629072150E+03 -0.52822525405E+02  0.45362996632E+03  0.40000000000E+03 0.  1.
   -9000007    1    1    2    0  502  0.16444020439E+03 -0.12629072150E+03  0.17804891300E+04  0.18366086870E+04  0.40000000000E+03 0.  1.
<mgrwt>
<rscale>  2 0.45054403E+03</rscale>
<asrwt>0</asrwt>
<pdfrwt beam="1">  1       21 0.30906963E+00 0.45054403E+03</pdfrwt>
<pdfrwt beam="2">  1       21 0.43274774E-01 0.45054403E+03</pdfrwt>
<totfact> 0.12013775E+02</totfact>
</mgrwt>
</event>
<event>
 4    1  0.4703494E-002  0.5553939E+03  0.7818608E-02  0.1000253E+00
         21   -1    0    0  501  502  0.00000000000E+00  0.00000000000E+00  0.10188944142E+04  0.10188944142E+04  0.00000000000E+00 0.  1.
         21   -1    0    0  502  503 -0.00000000000E+00 -0.00000000000E+00 -0.51875871489E+03  0.51875871489E+03  0.00000000000E+00 0. -1.
    9000007    1    1    2  501    0  0.32633205271E+03 -0.20486527055E+03  0.74619055695E+03  0.93019499836E+03  0.40000000000E+03 0.  1.
   -9000007    1    1    2    0  503 -0.32633205271E+03  0.20486527055E+03 -0.24605485759E+03  0.60745813077E+03  0.40000000000E+03 0. -1.
<mgrwt>
<rscale>  2 0.55539390E+03</rscale>
<asrwt>0</asrwt>
<pdfrwt beam="1">  1       21 0.15675299E+00 0.55539390E+03</pdfrwt>
<pdfrwt beam="2">  1       21 0.79809034E-01 0.55539390E+03</pdfrwt>
<totfact> 0.28901866E+02</totfact>
</mgrwt>
</event>
<event>
 4    1  0.4703494E-002  0.6062679E+03  0.7818608E-02  0.9892487E-01
         21   -1    0    0  503  502  0.00000000000E+00  0.00000000000E+00  0.12422178743E+04  0.12422178743E+04  0.00000000000E+00 0. -1.
         21   -1    0    0  501  503 -0.00000000000E+00 -0.00000000000E+00 -0.39880260759E+03  0.39880260759E+03  0.00000000000E+00 0. -1.
    9000007    1    1    2  501    0  0.25812800152E+03  0.37540739423E+03  0.48980240206E+01  0.60628769363E+03  0.40000000000E+03 0. -1.
   -9000007    1    1    2    0  502 -0.25812800152E+03 -0.37540739423E+03  0.83851724273E+03  0.10347327883E+04  0.40000000000E+03 0. -1.
<mgrwt>
<rscale>  2 0.60626791E+03</rscale>
<asrwt>0</asrwt>
<pdfrwt beam="1">  1       21 0.19111044E+00 0.60626791E+03</pdfrwt>
<pdfrwt beam="2">  1       21 0.61354248E-01 0.60626791E+03</pdfrwt>
<totfact> 0.28934281E+02</totfact>
</mgrwt>
</event>
<event>
 4    1  0.4703494E-002  0.4827125E+03  0.7818608E-02  0.1018392E+00
         21   -1    0    0  503  502  0.00000000000E+00  0.00000000000E+00  0.30260950475E+03  0.30260950475E+03  0.00000000000E+00 0.  1.
         21   -1    0    0  501  503 -0.00000000000E+00 -0.00000000000E+00 -0.88445691722E+03  0.88445691722E+03  0.00000000000E+00 0. -1.
    9000007    1    1    2  501    0 -0.13843678538E+03  0.23204872809E+03 -0.50443209037E+03  0.69818556957E+03  0.40000000000E+03 0.  1.
   -9000007    1    1    2    0  502  0.13843678538E+03 -0.23204872809E+03 -0.77415322093E+02  0.48888085241E+03  0.40000000000E+03 0.  1.
<mgrwt>
<rscale>  2 0.48271250E+03</rscale>
<asrwt>0</asrwt>
<pdfrwt beam="1">  1       21 0.46555309E-01 0.48271250E+03</pdfrwt>
<pdfrwt beam="2">  1       21 0.13607029E+00 0.48271250E+03</pdfrwt>
<totfact> 0.14327284E+03</totfact>
</mgrwt>
</event>
<event>
 4    1  0.4703494E-002  0.4229031E+03  0.7818608E-02  0.1036126E+00
         21   -1    0    0  501  502  0.00000000000E+00  0.00000000000E+00  0.32202562197E+03  0.32202562197E+03  0.00000000000E+00 0.  1.
         21   -1    0    0  502  503 -0.00000000000E+00 -0.00000000000E+00 -0.64369265746E+03  0.64369265746E+03  0.00000000000E+00 0.  1.
    9000007    1    1    2  501    0  0.80576849543E+02  0.11115027633E+03  0.18016681378E+02  0.42328667994E+03  0.40000000000E+03 0. -1.
   -9000007    1    1    2    0  503 -0.80576849543E+02 -0.11115027633E+03 -0.33968371687E+03  0.54243159948E+03  0.40000000000E+03 0. -1.
<mgrwt>
<rscale>  2 0.42290308E+03</rscale>
<asrwt>0</asrwt>
<pdfrwt beam="1">  1       21 0.49542403E-01 0.42290308E+03</pdfrwt>
<pdfrwt beam="2">  1       21 0.99029640E-01 0.42290308E+03</pdfrwt>
<totfact> 0.28629447E+03</totfact>
</mgrwt>
</event>
<event>
 4    1  0.4703494E-002  0.4445877E+03  0.7818608E-02  0.1029348E+00
         21   -1    0    0  503  502  0.00000000000E+00  0.00000000000E+00  0.36233138564E+03  0.36233138564E+03  0.00000000000E+00 0.  1.
         21   -1    0    0  501  503 -0.00000000000E+00 -0.00000000000E+00 -0.55901851327E+03  0.55901851327E+03  0.00000000000E+00 0.  1.
    9000007    1    1    2  501    0 -0.13751437154E+03  0.13692326248E+03 -0.16993507884E+03  0.47595810027E+03  0.40000000000E+03 0. -1.
   -9000007    1    1    2    0  502  0.13751437154E+03 -0.13692326248E+03 -0.26752048790E+02  0.44539179865E+03  0.40000000000E+03 0. -1.
<mgrwt>
<rscale>  2 0.44458765E+03</rscale>
<asrwt>0</asrwt>
<pdfrwt beam="1">  1       21 0.55743291E-01 0.44458765E+03</pdfrwt>
<pdfrwt beam="2">  1       21 0.86002847E-01 0.44458765E+03</pdfrwt>
<totfact> 0.30860296E+03</totfact>
</mgrwt>
</event>
<event>
 4    1  0.4703494E-002  0.4353581E+03  0.7818608E-02  0.1032181E+00
         21   -1    0    0  503  502  0.00000000000E+00  0.00000000000E+00  0.23915124426E+03  0.23915124426E+03  0.00000000000E+00 0.  1.
         21   -1    0    0  501  503 -0.00000000000E+00 -0.00000000000E+00 -0.80778112892E+03  0.80778112892E+03  0.00000000000E+00 0.  1.
    9000007    1    1    2  501    0  0.94251767011E+02  0.14371250297E+03 -0.35622094166E+03  0.56252114482E+03  0.40000000000E+03 0.  1.
   -9000007    1    1    2    0  502 -0.94251767011E+02 -0.14371250297E+03 -0.21240894300E+03  0.48441122836E+03  0.40000000000E+03 0.  1.
<mgrwt>
<rscale>  2 0.43535810E+03</rscale>
<asrwt>0</asrwt>
<pdfrwt beam="1">  1       21 0.36792499E-01 0.43535810E+03</pdfrwt>
<pdfrwt beam="2">  1       21 0.12427402E+00 0.43535810E+03</pdfrwt>
<totfact> 0.30053957E+03</totfact>
</mgrwt>
</event>
<event>
 4    1  0.4703494E-002  0.4755413E+03  0.7818608E-02  0.1020368E+00
         21   -1    0    0  503  502  0.00000000000E+00  0.00000000000E+00  0.18091366953E+03  0.18091366953E+03  0.00000000000E+00 0.  1.
         21   -1    0    0  501  503 -0.00000000000E+00 -0.00000000000E+00 -0.13540549338E+04  0.13540549338E+04  0.00000000000E+00 0. -1.
    9000007    1    1    2  501    0 -0.15675228214E+03  0.20388282476E+03 -0.37379949328E+03  0.60486820495E+03  0.40000000000E+03 0.  1.
   -9000007    1    1    2    0  502  0.15675228214E+03 -0.20388282476E+03 -0.79934177099E+03  0.93010039836E+03  0.40000000000E+03 0. -1.
<mgrwt>
<rscale>  2 0.47554125E+03</rscale>
<asrwt>0</asrwt>
<pdfrwt beam="1">  1       21 0.27832874E-01 0.47554125E+03</pdfrwt>
<pdfrwt beam="2">  1       21 0.20831613E+00 0.47554125E+03</pdfrwt>
<totfact> 0.12108218E+03</totfact>
</mgrwt>
</event>
<event>
 4    1  0.4703494E-002  0.4110685E+03  0.7818608E-02  0.1040013E+00
         21   -1    0    0  503  502  0.00000000000E+00  0.00000000000E+00  0.21074189487E+03  0.21074189487E+03  0.00000000000E+00 0. -1.
         21   -1    0    0  501  503 -0.00000000000E+00 -0.00000000000E+00 -0.97236160707E+03  0.97236160707E+03  0.00000000000E+00 0. -1.
    9000007    1    1    2  501    0 -0.89744142580E+02  0.30386488729E+02 -0.62854767198E+03  0.75103230675E+03  0.40000000000E+03 0. -1.
   -9000007    1    1    2    0  502  0.89744142580E+02 -0.30386488729E+02 -0.13307204021E+03  0.43207119519E+03  0.40000000000E+03 0. -1.
<mgrwt>
<rscale>  2 0.41106855E+03</rscale>
<asrwt>0</asrwt>
<pdfrwt beam="1">  1       21 0.32421830E-01 0.41106855E+03</pdfrwt>
<pdfrwt beam="2">  1       21 0.14959409E+00 0.41106855E+03</pdfrwt>
<totfact> 0.24046154E+03</totfact>
</mgrwt>
</event>
<event>
 4    1  0.4703494E-002  0.4180827E+03  0.7818608E-02  0.1037692E+00
         21   -1    0    0  501  502  0.00000000000E+00  0.00000000000E+00  0.11279216072E+03  0.11279216072E+03  0.00000000000E+00 0.  1.
         21   -1    0    0  502  503 -0.00000000000E+00 -0.00000000000E+00 -0.15764545623E+04  0.15764545623E+04  0.00000000000E+00 0.  1.
    9000007    1    1    2  501    0 -0.60724598232E+02 -0.10538352840E+03 -0.84187921117E+03  0.93997540983E+03  0.40000000000E+03 0. -1.
   -9000007    1    1    2    0  503  0.60724598232E+02  0.10538352840E+03 -0.62178319036E+03  0.74927131315E+03  0.40000000000E+03 0. -1.
<mgrwt>
<rscale>  2 0.41808272E+03</rscale>
<asrwt>0</asrwt>
<pdfrwt beam="1">  1       21 0.17352641E-01 0.41808272E+03</pdfrwt>
<pdfrwt beam="2">  1       21 0.24253146E+00 0.41808272E+03</pdfrwt>
<totfact> 0.18697494E+03</totfact>
</mgrwt>
</event>
<event>
 4    1  0.4703494E-002  0.5563162E+03  0.7818608E-02  0.1000042E+00
         21   -1    0    0  501  502  0.00000000000E+00  0.00000000000E+00  0.19964510236E+03  0.19964510236E+03  0.00000000000E+00 0. -1.
         21   -1    0    0  502  503 -0.00000000000E+00 -0.00000000000E+00 -0.18489144824E+04  0.18489144824E+04  0.00000000000E+00 0. -1.
    9000007    1    1    2  501    0 -0.18386548401E+03  0.34011941535E+03 -0.12363490318E+04  0.13557457953E+04  0.40000000000E+03 0. -1.
   -9000007    1    1    2    0  503  0.18386548401E+03 -0.34011941535E+03 -0.41292034820E+03  0.69281378946E+03  0.40000000000E+03 0. -1.
<mgrwt>
<rscale>  2 0.55631622E+03</rscale>
<asrwt>0</asrwt>
<pdfrwt beam="1">  1       21 0.30714631E-01 0.55631622E+03</pdfrwt>
<pdfrwt beam="2">  1       21 0.28444838E+00 0.55631622E+03</pdfrwt>
<totfact> 0.32163564E+02</totfact>
</mgrwt>
</event>
<event>
 4    1  0.4703494E-002  0.5702345E+03  0.7818608E-02  0.9969160E-01
         21   -1    0    0  503  502  0.00000000000E+00  0.00000000000E+00  0.23803477715E+04  0.23803477715E+04  0.00000000000E+00 0.  1.
         21   -1    0    0  501  503 -0.00000000000E+00 -0.00000000000E+00 -0.22081761173E+03  0.22081761173E+03  0.00000000000E+00 0.  1.
    9000007    1    1    2  501    0 -0.38004026844E+03  0.14400274321E+03  0.27659097727E+03  0.63377437973E+03  0.40000000000E+03 0.  1.
   -9000007    1    1    2    0  502  0.38004026844E+03 -0.14400274321E+03  0.18829391825E+04  0.19673910035E+04  0.40000000000E+03 0.  1.
<mgrwt>
<rscale>  2 0.57023451E+03</rscale>
<asrwt>0</asrwt>
<pdfrwt beam="1">  1       21 0.36620733E+00 0.57023451E+03</pdfrwt>
<pdfrwt beam="2">  1       21 0.33971942E-01 0.57023451E+03</pdfrwt>
<totfact> 0.82227009E+01</totfact>
</mgrwt>
</event>
<event>
 4    1  0.4703494E-002  0.5770229E+03  0.7818608E-02  0.9954257E-01
         21   -1    0    0  501  502  0.00000000000E+00  0.00000000000E+00  0.50412996240E+03  0.50412996240E+03  0.00000000000E+00 0. -1.
         21   -1    0    0  502  503 -0.00000000000E+00 -0.00000000000E+00 -0.95837815363E+03  0.95837815363E+03  0.00000000000E+00 0. -1.
    9000007    1    1    2  501    0  0.32341448855E+03  0.26145462053E+03  0.18058606736E+03  0.60462118531E+03  0.40000000000E+03 0. -1.
   -9000007    1    1    2    0  503 -0.32341448855E+03 -0.26145462053E+03 -0.63483425860E+03  0.85788693072E+03  0.40000000000E+03 0. -1.
<mgrwt>
<rscale>  2 0.57702292E+03</rscale>
<asrwt>0</asrwt>
<pdfrwt beam="1">  1       21 0.77558456E-01 0.57702292E+03</pdfrwt>
<pdfrwt beam="2">  1       21 0.14744279E+00 0.57702292E+03</pdfrwt>
<totfact> 0.36243000E+02</totfact>
</mgrwt>
</event>
<event>
 4    1  0.4703494E-002  0.4739489E+03  0.7818608E-02  0.1020812E+00
         21   -1    0    0  503  502  0.00000000000E+00  0.00000000000E+00  0.39641741118E+03  0.39641741118E+03  0.00000000000E+00 0.  1.
         21   -1    0    0  501  503 -0.00000000000E+00 -0.00000000000E+00 -0.90806023571E+03  0.90806023571E+03  0.00000000000E+00 0.  1.
    9000007    1    1    2  501    0 -0.22147741120E+02 -0.25325287548E+03 -0.65575825295E+03  0.80910223562E+03  0.40000000000E+03 0.  1.
   -9000007    1    1    2    0  502  0.22147741120E+02  0.25325287548E+03  0.14411542842E+03  0.49537541126E+03  0.40000000000E+03 0.  1.
<mgrwt>
<rscale>  2 0.47394888E+03</rscale>
<asrwt>0</asrwt>
<pdfrwt beam="1">  1       21 0.60987295E-01 0.47394888E+03</pdfrwt>
<pdfrwt beam="2">  1       21 0.13970157E+00 0.47394888E+03</pdfrwt>
<totfact> 0.74982137E+02</totfact>
</mgrwt>
</event>
<event>
 4    1  0.4703494E-002  0.5707172E+03  0.7818608E-02  0.9968093E-01
         21   -1    0    0  501  502  0.00000000000E+00  0.00000000000E+00  0.21892564514E+03  0.21892564514E+03  0.00000000000E+00 0. -1.
         21   -1    0    0  502  503 -0.00000000000E+00 -0.00000000000E+00 -0.17975587955E+04  0.17975587955E+04  0.00000000000E+00 0.  1.
    9000007    1    1    2  501    0  0.11870571539E+03  0.38939315532E+03 -0.37077987565E+03  0.68058488998E+03  0.40000000000E+03 0. -1.
   -9000007    1    1    2    0  503 -0.11870571539E+03 -0.38939315532E+03 -0.12078532747E+04  0.13358995507E+04  0.40000000000E+03 0.  1.
<mgrwt>
<rscale>  2 0.57071716E+03</rscale>
<asrwt>0</asrwt>
<pdfrwt beam="1">  1       21 0.33680867E-01 0.57071716E+03</pdfrwt>
<pdfrwt beam="2">  1       21 0.27654752E+00 0.57071716E+03</pdfrwt>
<totfact> 0.29651339E+02</totfact>
</mgrwt>
</event>
<event>
 4    1  0.4703494E-002  0.4020212E+03  0.7818608E-02  0.1043082E+00
         21   -1    0    0  501  502  0.00000000000E+00  0.00000000000E+00  0.29494742316E+03  0.29494742316E+03  0.00000000000E+00 0. -1.
         21   -1    0    0  502  503 -0.00000000000E+00 -0.00000000000E+00 -0.10869808048E+04  0.10869808048E+04  0.00000000000E+00 0. -1.
    9000007    1    1    2  501    0 -0.13052090579E+02 -0.38087860178E+02  0.90553011012E+02  0.41209330250E+03  0.40000000000E+03 0. -1.
   -9000007    1    1    2    0  503  0.13052090579E+02  0.38087860178E+02 -0.88258639264E+03  0.96983492545E+03  0.40000000000E+03 0. -1.
<mgrwt>
<rscale>  2 0.40202120E+03</rscale>
<asrwt>0</asrwt>
<pdfrwt beam="1">  1       21 0.45376527E-01 0.40202120E+03</pdfrwt>
<pdfrwt beam="2">  1       21 0.16722782E+00 0.40202120E+03</pdfrwt>
<totfact> 0.89270079E+02</totfact>
</mgrwt>
</event>
<event>
 4    1  0.4703494E-002  0.4780081E+03  0.7818608E-02  0.1019684E+00
         21   -1    0    0  503  502  0.00000000000E+00  0.00000000000E+00  0.37373379658E+03  0.37373379658E+03  0.00000000000E+00 0. -1.
         21   -1    0    0  501  503 -0.00000000000E+00 -0.00000000000E+00 -0.67318543685E+03  0.67318543685E+03  0.00000000000E+00 0. -1.
    9000007    1    1    2  501    0 -0.35900546495E+02  0.25923528515E+03 -0.30834075544E+03  0.56882844845E+03  0.40000000000E+03 0. -1.
   -9000007    1    1    2    0  502  0.35900546495E+02 -0.25923528515E+03  0.88891151690E+01  0.47809078497E+03  0.40000000000E+03 0. -1.
<mgrwt>
<rscale>  2 0.47800814E+03</rscale>
<asrwt>0</asrwt>
<pdfrwt beam="1">  1       21 0.57497508E-01 0.47800814E+03</pdfrwt>
<pdfrwt beam="2">  1       21 0.10356699E+00 0.47800814E+03</pdfrwt>
<totfact> 0.18258447E+03</totfact>
</mgrwt>
</event>
<event>
 4    1  0.4703494E-002  0.5854747E+03  0.7818608E-02  0.9936008E-01
         21   -1    0    0  501  502  0.00000000000E+00  0.00000000000E+00  0.21721520477E+04  0.21721520477E+04  0.00000000000E+00 0.  1.
         21   -1    0    0  502  503 -0.00000000000E+00 -0.00000000000E+00 -0.17366589190E+03  0.17366589190E+03  0.00000000000E+00 0. -1.
    9000007    1    1    2  501    0  0.34464022406E+03  0.25298971316E+03  0.13536842897E+04  0.14748701079E+04  0.40000000000E+03 0.  1.
   -9000007    1    1    2    0  503 -0.34464022406E+03 -0.25298971316E+03  0.64480186610E+03  0.87094783169E+03  0.40000000000E+03 0. -1.
<mgrwt>
<rscale>  2 0.58547475E+03</rscale>
<asrwt>0</asrwt>
<pdfrwt beam="1">  1       21 0.33417722E+00 0.58547475E+03</pdfrwt>
<pdfrwt beam="2">  1       21 0.26717831E-01 0.58547475E+03</pdfrwt>
<totfact> 0.20829778E+02</totfact>
</mgrwt>
</event>
<event>
 4    1  0.4703494E-002  0.4217518E+03  0.7818608E-02  0.1036498E+00
         21   -1    0    0  501  502  0.00000000000E+00  0.00000000000E+00  0.49944851310E+03  0.49944851310E+03  0.00000000000E+00 0.  1.
         21   -1    0    0  502  503 -0.00000000000E+00 -0.00000000000E+00 -0.46522383292E+03  0.46522383292E+03  0.00000000000E+00 0.  1.
    9000007    1    1    2  501    0 -0.13351327107E+03  0.69843751137E+01  0.25067055007E+03  0.49062235958E+03  0.40000000000E+03 0.  1.
   -9000007    1    1    2    0  503  0.13351327107E+03 -0.69843751137E+01 -0.21644586989E+03  0.47404998644E+03  0.40000000000E+03 0.  1.
<mgrwt>
<rscale>  2 0.42175179E+03</rscale>
<asrwt>0</asrwt>
<pdfrwt beam="1">  1       21 0.76838233E-01 0.42175179E+03</pdfrwt>
<pdfrwt beam="2">  1       21 0.71572897E-01 0.42175179E+03</pdfrwt>
<totfact> 0.23257461E+03</totfact>
</mgrwt>
</event>
<event>
 4    1  0.4703494E-002  0.5858305E+03  0.7818608E-02  0.9935247E-01
         21   -1    0    0  503  502  0.00000000000E+00  0.00000000000E+00  0.88756379892E+03  0.88756379892E+03  0.00000000000E+00 0. -1.
         21   -1    0    0  501  503 -0.00000000000E+00 -0.00000000000E+00 -0.51812060046E+03  0.51812060046E+03  0.00000000000E+00 0. -1.
    9000007    1    1    2  501    0  0.17673595569E+03  0.38982279548E+03 -0.16929032216E+03  0.60980047810E+03  0.40000000000E+03 0. -1.
   -9000007    1    1    2    0  502 -0.17673595569E+03 -0.38982279548E+03  0.53873352062E+03  0.79588392128E+03  0.40000000000E+03 0. -1.
<mgrwt>
<rscale>  2 0.58583053E+03</rscale>
<asrwt>0</asrwt>
<pdfrwt beam="1">  1       21 0.13654828E+00 0.58583053E+03</pdfrwt>
<pdfrwt beam="2">  1       21 0.79710862E-01 0.58583053E+03</pdfrwt>
<totfact> 0.41698517E+02</totfact>
</mgrwt>
</event>
<event>
 4    1  0.4703494E-002  0.4436145E+03  0.7818608E-02  0.1029644E+00
         21   -1    0    0  501  502  0.00000000000E+00  0.00000000000E+00  0.11919012926E+04  0.11919012926E+04  0.00000000000E+00 0.  1.
         21   -1    0    0  502  503 -0.00000000000E+00 -0.00000000000E+00 -0.17728350694E+03  0.17728350694E+03  0.00000000000E+00 0.  1.
    9000007    1    1    2  501    0  0.15810490232E+03  0.10861239848E+03  0.32790954388E+03  0.55165068858E+03  0.40000000000E+03 0.  1.
   -9000007    1    1    2    0  503 -0.15810490232E+03 -0.10861239848E+03  0.68670824174E+03  0.81753411092E+03  0.40000000000E+03 0.  1.
<mgrwt>
<rscale>  2 0.44361449E+03</rscale>
<asrwt>0</asrwt>
<pdfrwt beam="1">  1       21 0.18336942E+00 0.44361449E+03</pdfrwt>
<pdfrwt beam="2">  1       21 0.27274386E-01 0.44361449E+03</pdfrwt>
<totfact> 0.18826186E+03</totfact>
</mgrwt>
</event>
<event>
 4    1  0.4703494E-002  0.5149838E+03  0.7818608E-02  0.1009940E+00
         21   -1    0    0  501  502  0.00000000000E+00  0.00000000000E+00  0.18949060058E+03  0.18949060058E+03  0.00000000000E+00 0. -1.
         21   -1    0    0  502  503 -0.00000000000E+00 -0.00000000000E+00 -0.14167767734E+04  0.14167767734E+04  0.00000000000E+00 0.  1.
    9000007    1    1    2  501    0 -0.11541225636E+03 -0.30313081741E+03 -0.70211230494E+03  0.87072956200E+03  0.40000000000E+03 0.  1.
   -9000007    1    1    2    0  503  0.11541225636E+03  0.30313081741E+03 -0.52517386792E+03  0.73553781203E+03  0.40000000000E+03 0. -1.
<mgrwt>
<rscale>  2 0.51498377E+03</rscale>
<asrwt>0</asrwt>
<pdfrwt beam="1">  1       21 0.29152401E-01 0.51498377E+03</pdfrwt>
<pdfrwt beam="2">  1       21 0.21796565E+00 0.51498377E+03</pdfrwt>
<totfact> 0.94031042E+02</totfact>
</mgrwt>
</event>
<event>
 4    1  0.4703494E-002  0.4221809E+03  0.7818608E-02  0.1036359E+00
         21   -1    0    0  503  502  0.00000000000E+00  0.00000000000E+00  0.20472422333E+04  0.20472422333E+04  0.00000000000E+00 0. -1.
         21   -1    0    0  501  503 -0.00000000000E+00 -0.00000000000E+00 -0.31403265523E+03  0.31403265523E+03  0.00000000000E+00 0. -1.
    9000007    1    1    2  501    0 -0.89058559549E+02 -0.10151490898E+03 -0.13711882790E+03  0.44388993764E+03  0.40000000000E+03 0. -1.
   -9000007    1    1    2    0  502  0.89058559549E+02  0.10151490898E+03  0.18703284059E+04  0.19173849509E+04  0.40000000000E+03 0. -1.
<mgrwt>
<rscale>  2 0.42218089E+03</rscale>
<asrwt>0</asrwt>
<pdfrwt beam="1">  1       21 0.31496034E+00 0.42218089E+03</pdfrwt>
<pdfrwt beam="2">  1       21 0.48312717E-01 0.42218089E+03</pdfrwt>
<totfact> 0.89567919E+01</totfact>
</mgrwt>
</event>
<event>
 4    1  0.4703494E-002  0.8033579E+03  0.7818608E-02  0.9555169E-01
         21   -1    0    0  503  502  0.00000000000E+00  0.00000000000E+00  0.26249054961E+04  0.26249054961E+04  0.00000000000E+00 0.  1.
         21   -1    0    0  501  503 -0.00000000000E+00 -0.00000000000E+00 -0.36349777252E+03  0.36349777252E+03  0.00000000000E+00 0.  1.
    9000007    1    1    2  501    0  0.60423499077E+03 -0.34681981137E+03  0.28071272335E+03  0.85098974064E+03  0.40000000000E+03 0.  1.
   -9000007    1    1    2    0  502 -0.60423499077E+03  0.34681981137E+03  0.19806950003E+04  0.21374135280E+04  0.40000000000E+03 0.  1.
<mgrwt>
<rscale>  2 0.80335789E+03</rscale>
<asrwt>0</asrwt>
<pdfrwt beam="1">  1       21 0.40383160E+00 0.80335789E+03</pdfrwt>
<pdfrwt beam="2">  1       21 0.55922736E-01 0.80335789E+03</pdfrwt>
<totfact> 0.14833483E+01</totfact>
</mgrwt>
</event>
<event>
 4    1  0.4703494E-002  0.4483987E+03  0.7818608E-02  0.1028201E+00
         21   -1    0    0  503  502  0.00000000000E+00  0.00000000000E+00  0.57842436186E+03  0.57842436186E+03  0.00000000000E+00 0. -1.
         21   -1    0    0  501  503 -0.00000000000E+00 -0.00000000000E+00 -0.10615921458E+04  0.10615921458E+04  0.00000000000E+00 0.  1.
    9000007    1    1    2  501    0 -0.45586614938E+02  0.19744187547E+03 -0.91407338124E+03  0.10181314158E+04  0.40000000000E+03 0.  1.
   -9000007    1    1    2    0  502  0.45586614938E+02 -0.19744187547E+03  0.43090559729E+03  0.62188509182E+03  0.40000000000E+03 0. -1.
<mgrwt>
<rscale>  2 0.44839874E+03</rscale>
<asrwt>0</asrwt>
<pdfrwt beam="1">  1       21 0.88988363E-01 0.44839874E+03</pdfrwt>
<pdfrwt beam="2">  1       21 0.16332187E+00 0.44839874E+03</pdfrwt>
<totfact> 0.20955328E+02</totfact>
</mgrwt>
</event>
<event>
 4    1  0.4703494E-002  0.4373036E+03  0.7818608E-02  0.1031577E+00
         21   -1    0    0  501  502  0.00000000000E+00  0.00000000000E+00  0.29144391592E+03  0.29144391592E+03  0.00000000000E+00 0.  1.
         21   -1    0    0  502  503 -0.00000000000E+00 -0.00000000000E+00 -0.85897840676E+03  0.85897840676E+03  0.00000000000E+00 0.  1.
    9000007    1    1    2  501    0  0.18889010661E+01 -0.17672267241E+03 -0.42635550011E+01  0.43732442053E+03  0.40000000000E+03 0.  1.
   -9000007    1    1    2    0  503 -0.18889010661E+01  0.17672267241E+03 -0.56327093584E+03  0.71309790215E+03  0.40000000000E+03 0.  1.
<mgrwt>
<rscale>  2 0.43730364E+03</rscale>
<asrwt>0</asrwt>
<pdfrwt beam="1">  1       21 0.44837525E-01 0.43730364E+03</pdfrwt>
<pdfrwt beam="2">  1       21 0.13215052E+00 0.43730364E+03</pdfrwt>
<totfact> 0.17037557E+03</totfact>
</mgrwt>
</event>
<event>
 4    1  0.4703494E-002  0.4564758E+03  0.7818608E-02  0.1025808E+00
         21   -1    0    0  503  502  0.00000000000E+00  0.00000000000E+00  0.54522714654E+03  0.54522714654E+03  0.00000000000E+00 0.  1.
         21   -1    0    0  501  503 -0.00000000000E+00 -0.00000000000E+00 -0.38577664201E+03  0.38577664201E+03  0.00000000000E+00 0.  1.
    9000007    1    1    2  501    0 -0.21612203643E+02 -0.21886759912E+03  0.34723160655E+02  0.45779450759E+03  0.40000000000E+03 0.  1.
   -9000007    1    1    2    0  502  0.21612203643E+02  0.21886759912E+03  0.12472734387E+03  0.47320928097E+03  0.40000000000E+03 0.  1.
<mgrwt>
<rscale>  2 0.45647575E+03</rscale>
<asrwt>0</asrwt>
<pdfrwt beam="1">  1       21 0.83881100E-01 0.45647575E+03</pdfrwt>
<pdfrwt beam="2">  1       21 0.59350252E-01 0.45647575E+03</pdfrwt>
<totfact> 0.28425328E+03</totfact>
</mgrwt>
</event>
<event>
 4    1  0.4703494E-002  0.6017363E+03  0.7818608E-02  0.9901810E-01
         21   -1    0    0  503  502  0.00000000000E+00  0.00000000000E+00  0.43629077557E+03  0.43629077557E+03  0.00000000000E+00 0. -1.
         21   -1    0    0  501  503 -0.00000000000E+00 -0.00000000000E+00 -0.93302216907E+03  0.93302216907E+03  0.00000000000E+00 0. -1.
    9000007    1    1    2  501    0 -0.69217981301E+02  0.44417954688E+03 -0.47595920654E+03  0.76721819914E+03  0.40000000000E+03 0. -1.
   -9000007    1    1    2    0  502  0.69217981301E+02 -0.44417954688E+03 -0.20772186946E+02  0.60209474550E+03  0.40000000000E+03 0. -1.
<mgrwt>
<rscale>  2 0.60173632E+03</rscale>
<asrwt>0</asrwt>
<pdfrwt beam="1">  1       21 0.67121659E-01 0.60173632E+03</pdfrwt>
<pdfrwt beam="2">  1       21 0.14354187E+00 0.60173632E+03</pdfrwt>
<totfact> 0.53716950E+02</totfact>
</mgrwt>
</event>
<event>
 4    1  0.4703494E-002  0.4134535E+03  0.7818608E-02  0.1039218E+00
         21   -1    0    0  503  502  0.00000000000E+00  0.00000000000E+00  0.28090726083E+04  0.28090726083E+04  0.00000000000E+00 0.  1.
         21   -1    0    0  501  503 -0.00000000000E+00 -0.00000000000E+00 -0.98972478140E+02  0.98972478140E+02  0.00000000000E+00 0.  1.
    9000007    1    1    2  501    0 -0.10324818692E+03  0.16840495038E+02  0.45268825038E+03  0.61308273700E+03  0.40000000000E+03 0.  1.
   -9000007    1    1    2    0  502  0.10324818692E+03 -0.16840495038E+02  0.22574118798E+04  0.22949623494E+04  0.40000000000E+03 0.  1.
<mgrwt>
<rscale>  2 0.41345349E+03</rscale>
<asrwt>0</asrwt>
<pdfrwt beam="1">  1       21 0.43216496E+00 0.41345349E+03</pdfrwt>
<pdfrwt beam="2">  1       21 0.15226537E-01 0.41345349E+03</pdfrwt>
<totfact> 0.16135982E+02</totfact>
</mgrwt>
</event>
<event>
 4    1  0.4703494E-002  0.4858618E+03  0.7818608E-02  0.1017537E+00
         21   -1    0    0  501  502  0.00000000000E+00  0.00000000000E+00  0.33402397218E+03  0.33402397218E+03  0.00000000000E+00 0.  1.
         21   -1    0    0  502  503 -0.00000000000E+00 -0.00000000000E+00 -0.70841660732E+03  0.70841660732E+03  0.00000000000E+00 0.  1.
    9000007    1    1    2  501    0  0.10096995899E+03  0.25664515165E+03 -0.16169434531E+03  0.51206125394E+03  0.40000000000E+03 0. -1.
   -9000007    1    1    2    0  503 -0.10096995899E+03 -0.25664515165E+03 -0.21269828983E+03  0.53037932556E+03  0.40000000000E+03 0. -1.
<mgrwt>
<rscale>  2 0.48586178E+03</rscale>
<asrwt>0</asrwt>
<pdfrwt beam="1">  1       21 0.51388304E-01 0.48586178E+03</pdfrwt>
<pdfrwt beam="2">  1       21 0.10898717E+00 0.48586178E+03</pdfrwt>
<totfact> 0.20454501E+03</totfact>
</mgrwt>
</event>
<event>
 4    1  0.4703494E-002  0.5572720E+03  0.7818608E-02  0.9998246E-01
         21   -1    0    0  501  502  0.00000000000E+00  0.00000000000E+00  0.49305451286E+03  0.49305451286E+03  0.00000000000E+00 0.  1.
         21   -1    0    0  502  503 -0.00000000000E+00 -0.00000000000E+00 -0.65455041407E+03  0.65455041407E+03  0.00000000000E+00 0.  1.
    9000007    1    1    2  501    0 -0.20387092301E+03  0.33013437519E+03 -0.19220643277E+03  0.58948738046E+03  0.40000000000E+03 0.  1.
   -9000007    1    1    2    0  503  0.20387092301E+03 -0.33013437519E+03  0.30710531561E+02  0.55811754647E+03  0.40000000000E+03 0.  1.
<mgrwt>
<rscale>  2 0.55727198E+03</rscale>
<asrwt>0</asrwt>
<pdfrwt beam="1">  1       21 0.75854541E-01 0.55727198E+03</pdfrwt>
<pdfrwt beam="2">  1       21 0.10070006E+00 0.55727198E+03</pdfrwt>
<totfact> 0.10245935E+03</totfact>
</mgrwt>
</event>
<event>
 4    1  0.4703494E-002  0.4628763E+03  0.7818608E-02  0.1023950E+00
         21   -1    0    0  503  502  0.00000000000E+00  0.00000000000E+00  0.90587367099E+03  0.90587367099E+03  0.00000000000E+00 0.  1.
         21   -1    0    0  501  503 -0.00000000000E+00 -0.00000000000E+00 -0.27977123178E+03  0.27977123178E+03  0.00000000000E+00 0. -1.
    9000007    1    1    2  501    0 -0.10460942660E+03  0.20811371406E+03  0.79953609340E+02  0.46973080563E+03  0.40000000000E+03 0. -1.
   -9000007    1    1    2    0  502  0.10460942660E+03 -0.20811371406E+03  0.54614882987E+03  0.71591409714E+03  0.40000000000E+03 0.  1.
<mgrwt>
<rscale>  2 0.46287628E+03</rscale>
<asrwt>0</asrwt>
<pdfrwt beam="1">  1       21 0.13936518E+00 0.46287628E+03</pdfrwt>
<pdfrwt beam="2">  1       21 0.43041728E-01 0.46287628E+03</pdfrwt>
<totfact> 0.15972258E+03</totfact>
</mgrwt>
</event>
<event>
 4    1  0.4703494E-002  0.4136515E+03  0.7818608E-02  0.1039153E+00
         21   -1    0    0  503  502  0.00000000000E+00  0.00000000000E+00  0.62475582625E+03  0.62475582625E+03  0.00000000000E+00 0.  1.
         21   -1    0    0  501  503 -0.00000000000E+00 -0.00000000000E+00 -0.29190738806E+03  0.29190738806E+03  0.00000000000E+00 0.  1.
    9000007    1    1    2  501    0 -0.68318939514E+02 -0.80250259675E+02  0.52521482968E+02  0.41697252649E+03  0.40000000000E+03 0. -1.
   -9000007    1    1    2    0  502  0.68318939514E+02  0.80250259675E+02  0.28032695522E+03  0.49969068782E+03  0.40000000000E+03 0. -1.
<mgrwt>
<rscale>  2 0.41365152E+03</rscale>
<asrwt>0</asrwt>
<pdfrwt beam="1">  1       21 0.96116281E-01 0.41365152E+03</pdfrwt>
<pdfrwt beam="2">  1       21 0.44908829E-01 0.41365152E+03</pdfrwt>
<totfact> 0.37961558E+03</totfact>
</mgrwt>
</event>
<event>
 4    1  0.4703494E-002  0.4662401E+03  0.7818608E-02  0.1022987E+00
         21   -1    0    0  503  502  0.00000000000E+00  0.00000000000E+00  0.10451857689E+04  0.10451857689E+04  0.00000000000E+00 0.  1.
         21   -1    0    0  501  503 -0.00000000000E+00 -0.00000000000E+00 -0.22084587261E+03  0.22084587261E+03  0.00000000000E+00 0.  1.
    9000007    1    1    2  501    0 -0.18873292641E+02  0.23879623871E+03  0.25939382263E+03  0.53354006411E+03  0.40000000000E+03 0.  1.
   -9000007    1    1    2    0  502  0.18873292641E+02 -0.23879623871E+03  0.56494607361E+03  0.73249157735E+03  0.40000000000E+03 0.  1.
<mgrwt>
<rscale>  2 0.46624011E+03</rscale>
<asrwt>0</asrwt>
<pdfrwt beam="1">  1       21 0.16079781E+00 0.46624011E+03</pdfrwt>
<pdfrwt beam="2">  1       21 0.33976289E-01 0.46624011E+03</pdfrwt>
<totfact> 0.17546729E+03</totfact>
</mgrwt>
</event>
<event>
 4    1  0.4703494E-002  0.4283700E+03  0.7818608E-02  0.1034376E+00
         21   -1    0    0  501  502  0.00000000000E+00  0.00000000000E+00  0.81924457539E+02  0.81924457539E+02  0.00000000000E+00 0. -1.
         21   -1    0    0  502  503 -0.00000000000E+00 -0.00000000000E+00 -0.22404004271E+04  0.22404004271E+04  0.00000000000E+00 0. -1.
    9000007    1    1    2  501    0 -0.73969786415E+02 -0.13427345674E+03 -0.10615273925E+04  0.11447014002E+04  0.40000000000E+03 0. -1.
   -9000007    1    1    2    0  503  0.73969786415E+02  0.13427345674E+03 -0.10969485770E+04  0.11776234844E+04  0.40000000000E+03 0. -1.
<mgrwt>
<rscale>  2 0.42837004E+03</rscale>
<asrwt>0</asrwt>
<pdfrwt beam="1">  1       21 0.12603764E-01 0.42837004E+03</pdfrwt>
<pdfrwt beam="2">  1       21 0.34467695E+00 0.42837004E+03</pdfrwt>
<totfact> 0.81131411E+02</totfact>
</mgrwt>
</event>
<event>
 4    1  0.4703494E-002  0.4322233E+03  0.7818608E-02  0.1033160E+00
         21   -1    0    0  503  502  0.00000000000E+00  0.00000000000E+00  0.19910513160E+04  0.19910513160E+04  0.00000000000E+00 0.  1.
         21   -1    0    0  501  503 -0.00000000000E+00 -0.00000000000E+00 -0.10111582556E+03  0.10111582556E+03  0.00000000000E+00 0.  1.
    9000007    1    1    2  501    0  0.70556810172E+02 -0.14777934263E+03  0.12257995567E+04  0.12997698069E+04  0.40000000000E+03 0.  1.
   -9000007    1    1    2    0  502 -0.70556810172E+02  0.14777934263E+03  0.66413593371E+03  0.79239733469E+03  0.40000000000E+03 0.  1.
<mgrwt>
<rscale>  2 0.43222332E+03</rscale>
<asrwt>0</asrwt>
<pdfrwt beam="1">  1       21 0.30631556E+00 0.43222332E+03</pdfrwt>
<pdfrwt beam="2">  1       21 0.15556282E-01 0.43222332E+03</pdfrwt>
<totfact> 0.93657580E+02</totfact>
</mgrwt>
</event>
<event>
 4    1  0.4703494E-002  0.4036673E+03  0.7818608E-02  0.1042517E+00
         21   -1    0    0  503  502  0.00000000000E+00  0.00000000000E+00  0.23298956589E+03  0.23298956589E+03  0.00000000000E+00 0.  1.
         21   -1    0    0  501  503 -0.00000000000E+00 -0.00000000000E+00 -0.11470286006E+04  0.11470286006E+04  0.00000000000E+00 0.  1.
    9000007    1    1    2  501    0 -0.46972869527E+02 -0.27218360293E+02 -0.88808007265E+03  0.97551704498E+03  0.40000000000E+03 0. -1.
   -9000007    1    1    2    0  502  0.46972869527E+02  0.27218360293E+02 -0.25958962089E+02  0.40450112153E+03  0.40000000000E+03 0. -1.
<mgrwt>
<rscale>  2 0.40366730E+03</rscale>
<asrwt>0</asrwt>
<pdfrwt beam="1">  1       21 0.35844549E-01 0.40366730E+03</pdfrwt>
<pdfrwt beam="2">  1       21 0.17646594E+00 0.40366730E+03</pdfrwt>
<totfact> 0.12431988E+03</totfact>
</mgrwt>
</event>
<event>
 4    1  0.4703494E-002  0.5046887E+03  0.7818608E-02  0.1012562E+00
         21   -1    0    0  501  502  0.00000000000E+00  0.00000000000E+00  0.66357904975E+03  0.66357904975E+03  0.00000000000E+00 0. -1.
         21   -1    0    0  502  503 -0.00000000000E+00 -0.00000000000E+00 -0.63976151962E+03  0.63976151962E+03  0.00000000000E+00 0. -1.
    9000007    1    1    2  501    0  0.26927128728E+03  0.14900884895E+03  0.42407184982E+03  0.65920224288E+03  0.40000000000E+03 0. -1.
   -9000007    1    1    2    0  503 -0.26927128728E+03 -0.14900884895E+03 -0.40025431968E+03  0.64413832648E+03  0.40000000000E+03 0. -1.
<mgrwt>
<rscale>  2 0.50468868E+03</rscale>
<asrwt>0</asrwt>
<pdfrwt beam="1">  1       21 0.10208908E+00 0.50468868E+03</pdfrwt>
<pdfrwt beam="2">  1       21 0.98424849E-01 0.50468868E+03</pdfrwt>
<totfact> 0.54615367E+02</totfact>
</mgrwt>
</event>
<event>
 4    1  0.4703494E-002  0.4990325E+03  0.7818608E-02  0.1014032E+00
         21   -1    0    0  501  502  0.00000000000E+00  0.00000000000E+00  0.52645786427E+03  0.52645786427E+03  0.00000000000E+00 0.  1.
         21   -1    0    0  502  503 -0.00000000000E+00 -0.00000000000E+00 -0.48527235718E+03  0.48527235718E+03  0.00000000000E+00 0.  1.
    9000007    1    1    2  501    0 -0.28792077915E+03 -0.78326830943E+02  0.10092129285E+03  0.50913512437E+03  0.40000000000E+03 0.  1.
   -9000007    1    1    2    0  503  0.28792077915E+03  0.78326830943E+02 -0.59735785766E+02  0.50259509708E+03  0.40000000000E+03 0.  1.
<mgrwt>
<rscale>  2 0.49903253E+03</rscale>
<asrwt>0</asrwt>
<pdfrwt beam="1">  1       21 0.80993518E-01 0.49903253E+03</pdfrwt>
<pdfrwt beam="2">  1       21 0.74657285E-01 0.49903253E+03</pdfrwt>
<totfact> 0.18195066E+03</totfact>
</mgrwt>
</event>
<event>
 4    1  0.4703494E-002  0.4628014E+03  0.7818608E-02  0.1023972E+00
         21   -1    0    0  503  502  0.00000000000E+00  0.00000000000E+00  0.37512838756E+03  0.37512838756E+03  0.00000000000E+00 0. -1.
         21   -1    0    0  501  503 -0.00000000000E+00 -0.00000000000E+00 -0.92570282145E+03  0.92570282145E+03  0.00000000000E+00 0.  1.
    9000007    1    1    2  501    0 -0.22726534176E+03 -0.50354987625E+02 -0.67791981871E+03  0.82082911799E+03  0.40000000000E+03 0.  1.
   -9000007    1    1    2    0  502  0.22726534176E+03  0.50354987625E+02  0.12734538483E+03  0.48000209102E+03  0.40000000000E+03 0. -1.
<mgrwt>
<rscale>  2 0.46280143E+03</rscale>
<asrwt>0</asrwt>
<pdfrwt beam="1">  1       21 0.57712060E-01 0.46280143E+03</pdfrwt>
<pdfrwt beam="2">  1       21 0.14241582E+00 0.46280143E+03</pdfrwt>
<totfact> 0.80755156E+02</totfact>
</mgrwt>
</event>
<event>
 4    1  0.4703494E-002  0.4312408E+03  0.7818608E-02  0.1033469E+00
         21   -1    0    0  501  502  0.00000000000E+00  0.00000000000E+00  0.13473219038E+03  0.13473219038E+03  0.00000000000E+00 0. -1.
         21   -1    0    0  502  503 -0.00000000000E+00 -0.00000000000E+00 -0.19956516874E+04  0.19956516874E+04  0.00000000000E+00 0.  1.
    9000007    1    1    2  501    0  0.10644624351E+03 -0.12098698207E+03 -0.33896222243E+03  0.54851074814E+03  0.40000000000E+03 0.  1.
   -9000007    1    1    2    0  503 -0.10644624351E+03  0.12098698207E+03 -0.15219572746E+04  0.15818731296E+04  0.40000000000E+03 0.  1.
<mgrwt>
<rscale>  2 0.43124083E+03</rscale>
<asrwt>0</asrwt>
<pdfrwt beam="1">  1       21 0.20728030E-01 0.43124083E+03</pdfrwt>
<pdfrwt beam="2">  1       21 0.30702333E+00 0.43124083E+03</pdfrwt>
<totfact> 0.54056559E+02</totfact>
</mgrwt>
</event>
<event>
 4    1  0.4703494E-002  0.6923338E+03  0.7818608E-02  0.9730433E-01
         21   -1    0    0  503  502  0.00000000000E+00  0.00000000000E+00  0.50227746316E+03  0.50227746316E+03  0.00000000000E+00 0.  1.
         21   -1    0    0  501  503 -0.00000000000E+00 -0.00000000000E+00 -0.95617308524E+03  0.95617308524E+03  0.00000000000E+00 0.  1.
    9000007    1    1    2  501    0 -0.44883750292E+03 -0.34332351951E+03 -0.25917587821E+03  0.73925521907E+03  0.40000000000E+03 0.  1.
   -9000007    1    1    2    0  502  0.44883750292E+03  0.34332351951E+03 -0.19471974388E+03  0.71919532933E+03  0.40000000000E+03 0.  1.
<mgrwt>
<rscale>  2 0.69233384E+03</rscale>
<asrwt>0</asrwt>
<pdfrwt beam="1">  1       21 0.77273457E-01 0.69233384E+03</pdfrwt>
<pdfrwt beam="2">  1       21 0.14710355E+00 0.69233384E+03</pdfrwt>
<totfact> 0.35410492E+02</totfact>
</mgrwt>
</event>
<event>
 4    1  0.4703494E-002  0.4012894E+03  0.7818608E-02  0.1043334E+00
         21   -1    0    0  501  502  0.00000000000E+00  0.00000000000E+00  0.89261588814E+02  0.89261588814E+02  0.00000000000E+00 0.  1.
         21   -1    0    0  502  503 -0.00000000000E+00 -0.00000000000E+00 -0.19054203211E+04  0.19054203211E+04  0.00000000000E+00 0.  1.
    9000007    1    1    2  501    0  0.28590222718E+02  0.14689519351E+02 -0.11381091886E+04  0.12067832068E+04  0.40000000000E+03 0.  1.
   -9000007    1    1    2    0  503 -0.28590222718E+02 -0.14689519351E+02 -0.67804954363E+03  0.78789870316E+03  0.40000000000E+03 0.  1.
<mgrwt>
<rscale>  2 0.40128940E+03</rscale>
<asrwt>0</asrwt>
<pdfrwt beam="1">  1       21 0.13732552E-01 0.40128940E+03</pdfrwt>
<pdfrwt beam="2">  1       21 0.29314160E+00 0.40128940E+03</pdfrwt>
<totfact> 0.14397839E+03</totfact>
</mgrwt>
</event>
<event>
 4    1  0.4703494E-002  0.4965849E+03  0.7818608E-02  0.1014674E+00
         21   -1    0    0  501  502  0.00000000000E+00  0.00000000000E+00  0.15140390121E+04  0.15140390121E+04  0.00000000000E+00 0.  1.
         21   -1    0    0  502  503 -0.00000000000E+00 -0.00000000000E+00 -0.20377964378E+03  0.20377964378E+03  0.00000000000E+00 0.  1.
    9000007    1    1    2  501    0 -0.62392503166E+02  0.28758260003E+03  0.10399536318E+04  0.11524322681E+04  0.40000000000E+03 0.  1.
   -9000007    1    1    2    0  503  0.62392503166E+02 -0.28758260003E+03  0.27030573655E+03  0.56538638779E+03  0.40000000000E+03 0.  1.
<mgrwt>
<rscale>  2 0.49658491E+03</rscale>
<asrwt>0</asrwt>
<pdfrwt beam="1">  1       21 0.23292907E+00 0.49658491E+03</pdfrwt>
<pdfrwt beam="2">  1       21 0.31350715E-01 0.49658491E+03</pdfrwt>
<totfact> 0.65823752E+02</totfact>
</mgrwt>
</event>
<event>
 4    1  0.4703494E-002  0.5727750E+03  0.7818608E-02  0.9963557E-01
         21   -1    0    0  501  502  0.00000000000E+00  0.00000000000E+00  0.15915227085E+04  0.15915227085E+04  0.00000000000E+00 0.  1.
         21   -1    0    0  502  503 -0.00000000000E+00 -0.00000000000E+00 -0.22829220907E+03  0.22829220907E+03  0.00000000000E+00 0.  1.
    9000007    1    1    2  501    0 -0.36594422187E+03  0.18481353459E+03  0.96507584070E+03  0.11222489004E+04  0.40000000000E+03 0.  1.
   -9000007    1    1    2    0  503  0.36594422187E+03 -0.18481353459E+03  0.39815465872E+03  0.69756601720E+03  0.40000000000E+03 0.  1.
<mgrwt>
<rscale>  2 0.57277501E+03</rscale>
<asrwt>0</asrwt>
<pdfrwt beam="1">  1       21 0.24484964E+00 0.57277501E+03</pdfrwt>
<pdfrwt beam="2">  1       21 0.35121879E-01 0.57277501E+03</pdfrwt>
<totfact> 0.42658291E+02</totfact>
</mgrwt>
</event>
<event>
 4    1  0.4703494E-002  0.4698657E+03  0.7818608E-02  0.1021958E+00
         21   -1    0    0  501  502  0.00000000000E+00  0.00000000000E+00  0.11493610051E+04  0.11493610051E+04  0.00000000000E+00 0.  1.
         21   -1    0    0  502  503 -0.00000000000E+00 -0.00000000000E+00 -0.28147855253E+03  0.28147855253E+03  0.00000000000E+00 0.  1.
    9000007    1    1    2  501    0 -0.23308664372E+03  0.80277186940E+02  0.83711652766E+03  0.95996765107E+03  0.40000000000E+03 0.  1.
   -9000007    1    1    2    0  503  0.23308664372E+03 -0.80277186940E+02  0.30765924880E+02  0.47087190653E+03  0.40000000000E+03 0.  1.
<mgrwt>
<rscale>  2 0.46986574E+03</rscale>
<asrwt>0</asrwt>
<pdfrwt beam="1">  1       21 0.17682477E+00 0.46986574E+03</pdfrwt>
<pdfrwt beam="2">  1       21 0.43304393E-01 0.46986574E+03</pdfrwt>
<totfact> 0.81302563E+02</totfact>
</mgrwt>
</event>
<event>
 4    1  0.4703494E-002  0.6611230E+03  0.7818608E-02  0.9786129E-01
         21   -1    0    0  503  502  0.00000000000E+00  0.00000000000E+00  0.53055753965E+03  0.53055753965E+03  0.00000000000E+00 0.  1.
         21   -1    0    0  501  503 -0.00000000000E+00 -0.00000000000E+00 -0.83994748739E+03  0.83994748739E+03  0.00000000000E+00 0. -1.
    9000007    1    1    2  501    0  0.52520794487E+03  0.35216381050E+02 -0.24964965672E+03  0.70668842494E+03  0.40000000000E+03 0.  1.
   -9000007    1    1    2    0  502 -0.52520794487E+03 -0.35216381050E+02 -0.59740291015E+02  0.66381660209E+03  0.40000000000E+03 0.  1.
<mgrwt>
<rscale>  2 0.66112297E+03</rscale>
<asrwt>0</asrwt>
<pdfrwt beam="1">  1       21 0.81624237E-01 0.66112297E+03</pdfrwt>
<pdfrwt beam="2">  1       21 0.12922269E+00 0.66112297E+03</pdfrwt>
<totfact> 0.44519957E+02</totfact>
</mgrwt>
</event>
<event>
 4    1  0.4703494E-002  0.5286497E+03  0.7818608E-02  0.1006560E+00
         21   -1    0    0  501  502  0.00000000000E+00  0.00000000000E+00  0.36201888860E+03  0.36201888860E+03  0.00000000000E+00 0. -1.
         21   -1    0    0  502  503 -0.00000000000E+00 -0.00000000000E+00 -0.77327419025E+03  0.77327419025E+03  0.00000000000E+00 0. -1.
    9000007    1    1    2  501    0 -0.23978754928E+03  0.24894265789E+03 -0.18238462026E+03  0.55922684611E+03  0.40000000000E+03 0. -1.
   -9000007    1    1    2    0  503  0.23978754928E+03 -0.24894265789E+03 -0.22887068139E+03  0.57606623274E+03  0.40000000000E+03 0. -1.
<mgrwt>
<rscale>  2 0.52864971E+03</rscale>
<asrwt>0</asrwt>
<pdfrwt beam="1">  1       21 0.55695214E-01 0.52864971E+03</pdfrwt>
<pdfrwt beam="2">  1       21 0.11896526E+00 0.52864971E+03</pdfrwt>
<totfact> 0.13607008E+03</totfact>
</mgrwt>
</event>
<event>
 4    1  0.4703494E-002  0.6830503E+03  0.7818608E-02  0.9746666E-01
         21   -1    0    0  503  502  0.00000000000E+00  0.00000000000E+00  0.25761907415E+03  0.25761907415E+03  0.00000000000E+00 0.  1.
         21   -1    0    0  501  503 -0.00000000000E+00 -0.00000000000E+00 -0.18148526733E+04  0.18148526733E+04  0.00000000000E+00 0. -1.
    9000007    1    1    2  501    0 -0.48257449834E+03 -0.27143988222E+03 -0.82612905535E+03  0.10719360859E+04  0.40000000000E+03 0.  1.
   -9000007    1    1    2    0  502  0.48257449834E+03  0.27143988222E+03 -0.73110454380E+03  0.10005356616E+04  0.40000000000E+03 0. -1.
<mgrwt>
<rscale>  2 0.68305033E+03</rscale>
<asrwt>0</asrwt>
<pdfrwt beam="1">  1       21 0.39633702E-01 0.68305033E+03</pdfrwt>
<pdfrwt beam="2">  1       21 0.27920811E+00 0.68305033E+03</pdfrwt>
<totfact> 0.19549450E+02</totfact>
</mgrwt>
</event>
<event>
 4    1  0.4703494E-002  0.5782444E+03  0.7818608E-02  0.9951599E-01
         21   -1    0    0  501  502  0.00000000000E+00  0.00000000000E+00  0.11445467546E+04  0.11445467546E+04  0.00000000000E+00 0. -1.
         21   -1    0    0  502  503 -0.00000000000E+00 -0.00000000000E+00 -0.54982667627E+03  0.54982667627E+03  0.00000000000E+00 0.  1.
    9000007    1    1    2  501    0 -0.34078264775E+03  0.24131670390E+03  0.87734027010E+03  0.10507580664E+04  0.40000000000E+03 0. -1.
   -9000007    1    1    2    0  503  0.34078264775E+03 -0.24131670390E+03 -0.28262019175E+03  0.64361536447E+03  0.40000000000E+03 0.  1.
<mgrwt>
<rscale>  2 0.57824438E+03</rscale>
<asrwt>0</asrwt>
<pdfrwt beam="1">  1       21 0.17608412E+00 0.57824438E+03</pdfrwt>
<pdfrwt beam="2">  1       21 0.84588719E-01 0.57824438E+03</pdfrwt>
<totfact> 0.17949231E+02</totfact>
</mgrwt>
</event>
<event>
 4    1  0.4703494E-002  0.4228490E+03  0.7818608E-02  0.1036143E+00
         21   -1    0    0  501  502  0.00000000000E+00  0.00000000000E+00  0.33224575642E+03  0.33224575642E+03  0.00000000000E+00 0. -1.
         21   -1    0    0  502  503 -0.00000000000E+00 -0.00000000000E+00 -0.71144177303E+03  0.71144177303E+03  0.00000000000E+00 0. -1.
    9000007    1    1    2  501    0 -0.13696069698E+03 -0.65626113248E+01  0.67943684268E+02  0.42827286234E+03  0.40000000000E+03 0. -1.
   -9000007    1    1    2    0  503  0.13696069698E+03  0.65626113248E+01 -0.44713970088E+03  0.61541466710E+03  0.40000000000E+03 0. -1.
<mgrwt>
<rscale>  2 0.42284903E+03</rscale>
<asrwt>0</asrwt>
<pdfrwt beam="1">  1       21 0.51114732E-01 0.42284903E+03</pdfrwt>
<pdfrwt beam="2">  1       21 0.10945258E+00 0.42284903E+03</pdfrwt>
<totfact> 0.20962093E+03</totfact>
</mgrwt>
</event>
<event>
 4    1  0.4703494E-002  0.4050033E+03  0.7818608E-02  0.1042061E+00
         21   -1    0    0  503  502  0.00000000000E+00  0.00000000000E+00  0.14970624012E+04  0.14970624012E+04  0.00000000000E+00 0. -1.
         21   -1    0    0  501  503 -0.00000000000E+00 -0.00000000000E+00 -0.15813337263E+03  0.15813337263E+03  0.00000000000E+00 0. -1.
    9000007    1    1    2  501    0 -0.17295347147E+02  0.61061533648E+02  0.21081766399E+03  0.45658704249E+03  0.40000000000E+03 0. -1.
   -9000007    1    1    2    0  502  0.17295347147E+02 -0.61061533648E+02  0.11281113645E+04  0.11986087313E+04  0.40000000000E+03 0. -1.
<mgrwt>
<rscale>  2 0.40500326E+03</rscale>
<asrwt>0</asrwt>
<pdfrwt beam="1">  1       21 0.23031728E+00 0.40500326E+03</pdfrwt>
<pdfrwt beam="2">  1       21 0.24328212E-01 0.40500326E+03</pdfrwt>
<totfact> 0.11777338E+03</totfact>
</mgrwt>
</event>
<event>
 4    1  0.4703494E-002  0.4497997E+03  0.7818608E-02  0.1027782E+00
         21   -1    0    0  503  502  0.00000000000E+00  0.00000000000E+00  0.13488650098E+04  0.13488650098E+04  0.00000000000E+00 0.  1.
         21   -1    0    0  501  503 -0.00000000000E+00 -0.00000000000E+00 -0.17432602293E+03  0.17432602293E+03  0.00000000000E+00 0.  1.
    9000007    1    1    2  501    0  0.16352844118E+03 -0.12481272178E+03  0.30272846856E+03  0.54218473998E+03  0.40000000000E+03 0.  1.
   -9000007    1    1    2    0  502 -0.16352844118E+03  0.12481272178E+03  0.87181051830E+03  0.98100629275E+03  0.40000000000E+03 0.  1.
<mgrwt>
<rscale>  2 0.44979970E+03</rscale>
<asrwt>0</asrwt>
<pdfrwt beam="1">  1       21 0.20751769E+00 0.44979970E+03</pdfrwt>
<pdfrwt beam="2">  1       21 0.26819389E-01 0.44979970E+03</pdfrwt>
<totfact> 0.13333597E+03</totfact>
</mgrwt>
</event>
<event>
 4    1  0.4703494E-002  0.4344653E+03  0.7818608E-02  0.1032459E+00
         21   -1    0    0  503  502  0.00000000000E+00  0.00000000000E+00  0.25883806965E+04  0.25883806965E+04  0.00000000000E+00 0.  1.
         21   -1    0    0  501  503 -0.00000000000E+00 -0.00000000000E+00 -0.86705201252E+02  0.86705201252E+02  0.00000000000E+00 0. -1.
    9000007    1    1    2  501    0 -0.13028633846E+03  0.10856134853E+03  0.17840475465E+04  0.18361878293E+04  0.40000000000E+03 0.  1.
   -9000007    1    1    2    0  502  0.13028633846E+03 -0.10856134853E+03  0.71762794873E+03  0.83889806841E+03  0.40000000000E+03 0. -1.
<mgrwt>
<rscale>  2 0.43446530E+03</rscale>
<asrwt>0</asrwt>
<pdfrwt beam="1">  1       21 0.39821236E+00 0.43446530E+03</pdfrwt>
<pdfrwt beam="2">  1       21 0.13339264E-01 0.43446530E+03</pdfrwt>
<totfact> 0.33760229E+02</totfact>
</mgrwt>
</event>
<event>
 4    1  0.4703494E-002  0.4510725E+03  0.7818608E-02  0.1027403E+00
         21   -1    0    0  503  502  0.00000000000E+00  0.00000000000E+00  0.69937094796E+03  0.69937094796E+03  0.00000000000E+00 0. -1.
         21   -1    0    0  501  503 -0.00000000000E+00 -0.00000000000E+00 -0.29864201447E+03  0.29864201447E+03  0.00000000000E+00 0. -1.
    9000007    1    1    2  501    0 -0.20768050231E+03  0.18307858748E+02  0.12016344342E+03  0.46680362238E+03  0.40000000000E+03 0. -1.
   -9000007    1    1    2    0  502  0.20768050231E+03 -0.18307858748E+02  0.28056549007E+03  0.53120934005E+03  0.40000000000E+03 0. -1.
<mgrwt>
<rscale>  2 0.45107247E+03</rscale>
<asrwt>0</asrwt>
<pdfrwt beam="1">  1       21 0.10759553E+00 0.45107247E+03</pdfrwt>
<pdfrwt beam="2">  1       21 0.45944926E-01 0.45107247E+03</pdfrwt>
<totfact> 0.27109973E+03</totfact>
</mgrwt>
</event>
<event>
 4    1  0.4703494E-002  0.4736170E+03  0.7818608E-02  0.1020904E+00
         21   -1    0    0  501  502  0.00000000000E+00  0.00000000000E+00  0.87037066392E+03  0.87037066392E+03  0.00000000000E+00 0. -1.
         21   -1    0    0  502  503 -0.00000000000E+00 -0.00000000000E+00 -0.30805958619E+03  0.30805958619E+03  0.00000000000E+00 0.  1.
    9000007    1    1    2  501    0 -0.65654954195E+01  0.25351515421E+03  0.51933583661E+03  0.70286751976E+03  0.40000000000E+03 0. -1.
   -9000007    1    1    2    0  503  0.65654954195E+01 -0.25351515421E+03  0.42975241121E+02  0.47556273035E+03  0.40000000000E+03 0.  1.
<mgrwt>
<rscale>  2 0.47361698E+03</rscale>
<asrwt>0</asrwt>
<pdfrwt beam="1">  1       21 0.13390318E+00 0.47361698E+03</pdfrwt>
<pdfrwt beam="2">  1       21 0.47393783E-01 0.47361698E+03</pdfrwt>
<totfact> 0.14441178E+03</totfact>
</mgrwt>
</event>
<event>
 4    1  0.4703494E-002  0.4144609E+03  0.7818608E-02  0.1038884E+00
         21   -1    0    0  501  502  0.00000000000E+00  0.00000000000E+00  0.21987087795E+03  0.21987087795E+03  0.00000000000E+00 0. -1.
         21   -1    0    0  502  503 -0.00000000000E+00 -0.00000000000E+00 -0.12834649897E+04  0.12834649897E+04  0.00000000000E+00 0. -1.
    9000007    1    1    2  501    0  0.33995852936E+02  0.10306365006E+03 -0.61609047345E+02  0.41901492658E+03  0.40000000000E+03 0. -1.
   -9000007    1    1    2    0  503 -0.33995852936E+02 -0.10306365006E+03 -0.10019850644E+04  0.10843209411E+04  0.40000000000E+03 0. -1.
<mgrwt>
<rscale>  2 0.41446090E+03</rscale>
<asrwt>0</asrwt>
<pdfrwt beam="1">  1       21 0.33826289E-01 0.41446090E+03</pdfrwt>
<pdfrwt beam="2">  1       21 0.19745615E+00 0.41446090E+03</pdfrwt>
<totfact> 0.99666258E+02</totfact>
</mgrwt>
</event>
<event>
 4    1  0.4703494E-002  0.4033194E+03  0.7818608E-02  0.1042636E+00
         21   -1    0    0  501  502  0.00000000000E+00  0.00000000000E+00  0.52281294554E+03  0.52281294554E+03  0.00000000000E+00 0.  1.
         21   -1    0    0  502  503 -0.00000000000E+00 -0.00000000000E+00 -0.85279468690E+03  0.85279468690E+03  0.00000000000E+00 0.  1.
    9000007    1    1    2  501    0 -0.50014958785E+02  0.12846457938E+02  0.38316583993E+03  0.55631159297E+03  0.40000000000E+03 0.  1.
   -9000007    1    1    2    0  503  0.50014958785E+02 -0.12846457938E+02 -0.71314758129E+03  0.81929603947E+03  0.40000000000E+03 0.  1.
<mgrwt>
<rscale>  2 0.40331939E+03</rscale>
<asrwt>0</asrwt>
<pdfrwt beam="1">  1       21 0.80432762E-01 0.40331939E+03</pdfrwt>
<pdfrwt beam="2">  1       21 0.13119918E+00 0.40331939E+03</pdfrwt>
<totfact> 0.48982247E+02</totfact>
</mgrwt>
</event>
<event>
 4    1  0.4703494E-002  0.4110045E+03  0.7818608E-02  0.1040034E+00
         21   -1    0    0  503  502  0.00000000000E+00  0.00000000000E+00  0.16667141876E+04  0.16667141876E+04  0.00000000000E+00 0. -1.
         21   -1    0    0  501  503 -0.00000000000E+00 -0.00000000000E+00 -0.10192997484E+03  0.10192997484E+03  0.00000000000E+00 0.  1.
    9000007    1    1    2  501    0 -0.66946256738E+02 -0.66654999539E+02  0.71579698775E+03  0.82540294277E+03  0.40000000000E+03 0.  1.
   -9000007    1    1    2    0  502  0.66946256738E+02  0.66654999539E+02  0.84898722496E+03  0.94324121962E+03  0.40000000000E+03 0. -1.
<mgrwt>
<rscale>  2 0.41100449E+03</rscale>
<asrwt>0</asrwt>
<pdfrwt beam="1">  1       21 0.25641755E+00 0.41100449E+03</pdfrwt>
<pdfrwt beam="2">  1       21 0.15681536E-01 0.41100449E+03</pdfrwt>
<totfact> 0.18637519E+03</totfact>
</mgrwt>
</event>
<event>
 4    1  0.4703494E-002  0.4475104E+03  0.7818608E-02  0.1028467E+00
         21   -1    0    0  503  502  0.00000000000E+00  0.00000000000E+00  0.40273271111E+03  0.40273271111E+03  0.00000000000E+00 0.  1.
         21   -1    0    0  501  503 -0.00000000000E+00 -0.00000000000E+00 -0.77860056182E+03  0.77860056182E+03  0.00000000000E+00 0.  1.
    9000007    1    1    2  501    0  0.10375999168E+03  0.17175390390E+03 -0.54298933958E+03  0.70363553228E+03  0.40000000000E+03 0.  1.
   -9000007    1    1    2    0  502 -0.10375999168E+03 -0.17175390390E+03  0.16712148888E+03  0.47769774065E+03  0.40000000000E+03 0.  1.
<mgrwt>
<rscale>  2 0.44751038E+03</rscale>
<asrwt>0</asrwt>
<pdfrwt beam="1">  1       21 0.61958880E-01 0.44751038E+03</pdfrwt>
<pdfrwt beam="2">  1       21 0.11978470E+00 0.44751038E+03</pdfrwt>
<totfact> 0.10916893E+03</totfact>
</mgrwt>
</event>
<event>
 4    1  0.4703494E-002  0.4950610E+03  0.7818608E-02  0.1015076E+00
         21   -1    0    0  501  502  0.00000000000E+00  0.00000000000E+00  0.73703112393E+03  0.73703112393E+03  0.00000000000E+00 0. -1.
         21   -1    0    0  502  503 -0.00000000000E+00 -0.00000000000E+00 -0.50589571518E+03  0.50589571518E+03  0.00000000000E+00 0. -1.
    9000007    1    1    2  501    0 -0.26266801910E+03 -0.12684995079E+03  0.47937041633E+03  0.68911638664E+03  0.40000000000E+03 0. -1.
   -9000007    1    1    2    0  503  0.26266801910E+03  0.12684995079E+03 -0.24823500759E+03  0.55381045247E+03  0.40000000000E+03 0. -1.
<mgrwt>
<rscale>  2 0.49506100E+03</rscale>
<asrwt>0</asrwt>
<pdfrwt beam="1">  1       21 0.11338940E+00 0.49506100E+03</pdfrwt>
<pdfrwt beam="2">  1       21 0.77830110E-01 0.49506100E+03</pdfrwt>
<totfact> 0.73565021E+02</totfact>
</mgrwt>
</event>
<event>
 4    1  0.4703494E-002  0.4068620E+03  0.7818608E-02  0.1041429E+00
         21   -1    0    0  503  502  0.00000000000E+00  0.00000000000E+00  0.72853518892E+03  0.72853518892E+03  0.00000000000E+00 0. -1.
         21   -1    0    0  501  503 -0.00000000000E+00 -0.00000000000E+00 -0.33095299340E+03  0.33095299340E+03  0.00000000000E+00 0. -1.
    9000007    1    1    2  501    0  0.48217099215E+02  0.56672965746E+02 -0.97790665036E+02  0.41844919389E+03  0.40000000000E+03 0. -1.
   -9000007    1    1    2    0  502 -0.48217099215E+02 -0.56672965746E+02  0.49537286056E+03  0.64103898843E+03  0.40000000000E+03 0. -1.
<mgrwt>
<rscale>  2 0.40686203E+03</rscale>
<asrwt>0</asrwt>
<pdfrwt beam="1">  1       21 0.11208234E+00 0.40686203E+03</pdfrwt>
<pdfrwt beam="2">  1       21 0.50915846E-01 0.40686203E+03</pdfrwt>
<totfact> 0.20060311E+03</totfact>
</mgrwt>
</event>
<event>
 4    1  0.4703494E-002  0.6492205E+03  0.7818608E-02  0.9808243E-01
         21   -1    0    0  501  502  0.00000000000E+00  0.00000000000E+00  0.95594601212E+03  0.95594601212E+03  0.00000000000E+00 0. -1.
         21   -1    0    0  502  503 -0.00000000000E+00 -0.00000000000E+00 -0.46600726619E+03  0.46600726619E+03  0.00000000000E+00 0. -1.
    9000007    1    1    2  501    0  0.11635177081E+03  0.49794532213E+03  0.40996105053E+03  0.76782507210E+03  0.40000000000E+03 0. -1.
   -9000007    1    1    2    0  503 -0.11635177081E+03 -0.49794532213E+03  0.79977695398E+02  0.65412820621E+03  0.40000000000E+03 0. -1.
<mgrwt>
<rscale>  2 0.64922052E+03</rscale>
<asrwt>0</asrwt>
<pdfrwt beam="1">  1       21 0.14706862E+00 0.64922052E+03</pdfrwt>
<pdfrwt beam="2">  1       21 0.71693426E-01 0.64922052E+03</pdfrwt>
<totfact> 0.42659270E+02</totfact>
</mgrwt>
</event>
<event>
 4    1  0.4703494E-002  0.4147821E+03  0.7818608E-02  0.1038778E+00
         21   -1    0    0  501  502  0.00000000000E+00  0.00000000000E+00  0.21550743500E+04  0.21550743500E+04  0.00000000000E+00 0.  1.
         21   -1    0    0  502  503 -0.00000000000E+00 -0.00000000000E+00 -0.82113199679E+02  0.82113199679E+02  0.00000000000E+00 0.  1.
    9000007    1    1    2  501    0  0.10854404421E+03 -0.16196900852E+02  0.12229194008E+04  0.12913465878E+04  0.40000000000E+03 0.  1.
   -9000007    1    1    2    0  503 -0.10854404421E+03  0.16196900852E+02  0.85004174959E+03  0.94584096188E+03  0.40000000000E+03 0.  1.
<mgrwt>
<rscale>  2 0.41478205E+03</rscale>
<asrwt>0</asrwt>
<pdfrwt beam="1">  1       21 0.33154986E+00 0.41478205E+03</pdfrwt>
<pdfrwt beam="2">  1       21 0.12632802E-01 0.41478205E+03</pdfrwt>
<totfact> 0.97865501E+02</totfact>
</mgrwt>
</event>
<event>
 4    1  0.4703494E-002  0.5266170E+03  0.7818608E-02  0.1007056E+00
         21   -1    0    0  501  502  0.00000000000E+00  0.00000000000E+00  0.46926707916E+03  0.46926707916E+03  0.00000000000E+00 0.  1.
         21   -1    0    0  502  503 -0.00000000000E+00 -0.00000000000E+00 -0.68553064748E+03  0.68553064748E+03  0.00000000000E+00 0.  1.
    9000007    1    1    2  501    0  0.18065303288E+03  0.29101540697E+03  0.10630752362E+03  0.53723996032E+03  0.40000000000E+03 0.  1.
   -9000007    1    1    2    0  503 -0.18065303288E+03 -0.29101540697E+03 -0.32257109194E+03  0.61755776632E+03  0.40000000000E+03 0.  1.
<mgrwt>
<rscale>  2 0.52661702E+03</rscale>
<asrwt>0</asrwt>
<pdfrwt beam="1">  1       21 0.72194936E-01 0.52661702E+03</pdfrwt>
<pdfrwt beam="2">  1       21 0.10546625E+00 0.52661702E+03</pdfrwt>
<totfact> 0.10342238E+03</totfact>
</mgrwt>
</event>
<event>
 4    1  0.4703494E-002  0.4351216E+03  0.7818608E-02  0.1032254E+00
         21   -1    0    0  501  502  0.00000000000E+00  0.00000000000E+00  0.59557472591E+03  0.59557472591E+03  0.00000000000E+00 0. -1.
         21   -1    0    0  502  503 -0.00000000000E+00 -0.00000000000E+00 -0.34253006546E+03  0.34253006546E+03  0.00000000000E+00 0. -1.
    9000007    1    1    2  501    0  0.15297363764E+03  0.77005450268E+02  0.25231078832E+03  0.50298261112E+03  0.40000000000E+03 0.  1.
   -9000007    1    1    2    0  503 -0.15297363764E+03 -0.77005450268E+02  0.73387212568E+00  0.43512218026E+03  0.40000000000E+03 0.  1.
<mgrwt>
<rscale>  2 0.43512156E+03</rscale>
<asrwt>0</asrwt>
<pdfrwt beam="1">  1       21 0.91626881E-01 0.43512156E+03</pdfrwt>
<pdfrwt beam="2">  1       21 0.52696933E-01 0.43512156E+03</pdfrwt>
<totfact> 0.30095442E+03</totfact>
</mgrwt>
</event>
<event>
 4    1  0.4703494E-002  0.4042746E+03  0.7818608E-02  0.1042309E+00
         21   -1    0    0  501  502  0.00000000000E+00  0.00000000000E+00  0.99022231173E+03  0.99022231173E+03  0.00000000000E+00 0.  1.
         21   -1    0    0  502  503 -0.00000000000E+00 -0.00000000000E+00 -0.34650205515E+03  0.34650205515E+03  0.00000000000E+00 0.  1.
    9000007    1    1    2  501    0 -0.20301933624E+02 -0.55007480450E+02  0.80551741307E+03  0.90127481612E+03  0.40000000000E+03 0.  1.
   -9000007    1    1    2    0  503  0.20301933624E+02  0.55007480450E+02 -0.16179715649E+03  0.43544955077E+03  0.40000000000E+03 0.  1.
<mgrwt>
<rscale>  2 0.40427465E+03</rscale>
<asrwt>0</asrwt>
<pdfrwt beam="1">  1       21 0.15234189E+00 0.40427465E+03</pdfrwt>
<pdfrwt beam="2">  1       21 0.53308009E-01 0.40427465E+03</pdfrwt>
<totfact> 0.82090630E+02</totfact>
</mgrwt>
</event>
<event>
 4    1  0.4703494E-002  0.4017155E+03  0.7818608E-02  0.1043187E+00
         21   -1    0    0  503  502  0.00000000000E+00  0.00000000000E+00  0.45435541624E+03  0.45435541624E+03  0.00000000000E+00 0. -1.
         21   -1    0    0  501  503 -0.00000000000E+00 -0.00000000000E+00 -0.37210367578E+03  0.37210367578E+03  0.00000000000E+00 0. -1.
    9000007    1    1    2  501    0  0.36961594757E+02  0.30259906513E+01 -0.47015803465E+02  0.40445741665E+03  0.40000000000E+03 0. -1.
   -9000007    1    1    2    0  502 -0.36961594757E+02 -0.30259906513E+01  0.12926754392E+03  0.42200167537E+03  0.40000000000E+03 0. -1.
<mgrwt>
<rscale>  2 0.40171547E+03</rscale>
<asrwt>0</asrwt>
<pdfrwt beam="1">  1       21 0.69900834E-01 0.40171547E+03</pdfrwt>
<pdfrwt beam="2">  1       21 0.57246719E-01 0.40171547E+03</pdfrwt>
<totfact> 0.47602892E+03</totfact>
</mgrwt>
</event>
<event>
 4    1  0.4703494E-002  0.5369017E+03  0.7818608E-02  0.1004572E+00
         21   -1    0    0  501  502  0.00000000000E+00  0.00000000000E+00  0.14727458953E+04  0.14727458953E+04  0.00000000000E+00 0. -1.
         21   -1    0    0  502  503 -0.00000000000E+00 -0.00000000000E+00 -0.26130610750E+03  0.26130610750E+03  0.00000000000E+00 0. -1.
    9000007    1    1    2  501    0  0.27232572023E+02 -0.35710190783E+03  0.10400538584E+04  0.11704594884E+04  0.40000000000E+03 0. -1.
   -9000007    1    1    2    0  503 -0.27232572023E+02  0.35710190783E+03  0.17138592945E+03  0.56359251447E+03  0.40000000000E+03 0. -1.
<mgrwt>
<rscale>  2 0.53690165E+03</rscale>
<asrwt>0</asrwt>
<pdfrwt beam="1">  1       21 0.22657629E+00 0.53690165E+03</pdfrwt>
<pdfrwt beam="2">  1       21 0.40200941E-01 0.53690165E+03</pdfrwt>
<totfact> 0.42795658E+02</totfact>
</mgrwt>
</event>
<event>
 4    1  0.4703494E-002  0.5000348E+03  0.7818608E-02  0.1013770E+00
         21   -1    0    0  503  502  0.00000000000E+00  0.00000000000E+00  0.12619650868E+04  0.12619650868E+04  0.00000000000E+00 0.  1.
         21   -1    0    0  501  503 -0.00000000000E+00 -0.00000000000E+00 -0.20137045636E+03  0.20137045636E+03  0.00000000000E+00 0.  1.
    9000007    1    1    2  501    0 -0.22927130270E+03  0.19357044934E+03  0.62309315471E+03  0.79892423204E+03  0.40000000000E+03 0.  1.
   -9000007    1    1    2    0  502  0.22927130270E+03 -0.19357044934E+03  0.43750147576E+03  0.66441131115E+03  0.40000000000E+03 0.  1.
<mgrwt>
<rscale>  2 0.50003485E+03</rscale>
<asrwt>0</asrwt>
<pdfrwt beam="1">  1       21 0.19414847E+00 0.50003485E+03</pdfrwt>
<pdfrwt beam="2">  1       21 0.30980071E-01 0.50003485E+03</pdfrwt>
<totfact> 0.12045627E+03</totfact>
</mgrwt>
</event>
<event>
 4    1  0.4703494E-002  0.4382120E+03  0.7818608E-02  0.1031297E+00
         21   -1    0    0  501  502  0.00000000000E+00  0.00000000000E+00  0.42348245373E+03  0.42348245373E+03  0.00000000000E+00 0.  1.
         21   -1    0    0  502  503 -0.00000000000E+00 -0.00000000000E+00 -0.12992438710E+04  0.12992438710E+04  0.00000000000E+00 0.  1.
    9000007    1    1    2  501    0 -0.11669509372E+03 -0.13569091220E+03  0.25709915692E+03  0.50806470556E+03  0.40000000000E+03 0.  1.
   -9000007    1    1    2    0  503  0.11669509372E+03  0.13569091220E+03 -0.11328605742E+04  0.12146616192E+04  0.40000000000E+03 0.  1.
<mgrwt>
<rscale>  2 0.43821201E+03</rscale>
<asrwt>0</asrwt>
<pdfrwt beam="1">  1       21 0.65151148E-01 0.43821201E+03</pdfrwt>
<pdfrwt beam="2">  1       21 0.19988367E+00 0.43821201E+03</pdfrwt>
<totfact> 0.23806899E+02</totfact>
</mgrwt>
</event>
<event>
 4    1  0.4703494E-002  0.4726895E+03  0.7818608E-02  0.1021164E+00
         21   -1    0    0  501  502  0.00000000000E+00  0.00000000000E+00  0.15544159491E+04  0.15544159491E+04  0.00000000000E+00 0.  1.
         21   -1    0    0  502  503 -0.00000000000E+00 -0.00000000000E+00 -0.26059127395E+03  0.26059127395E+03  0.00000000000E+00 0.  1.
    9000007    1    1    2  501    0  0.24864002203E+03  0.40168170031E+02  0.12546006122E+04  0.13406931187E+04  0.40000000000E+03 0.  1.
   -9000007    1    1    2    0  503 -0.24864002203E+03 -0.40168170031E+02  0.39224062929E+02  0.47431410432E+03  0.40000000000E+03 0.  1.
<mgrwt>
<rscale>  2 0.47268948E+03</rscale>
<asrwt>0</asrwt>
<pdfrwt beam="1">  1       21 0.23914091E+00 0.47268948E+03</pdfrwt>
<pdfrwt beam="2">  1       21 0.40090966E-01 0.47268948E+03</pdfrwt>
<totfact> 0.36952484E+02</totfact>
</mgrwt>
</event>
<event>
 4    1  0.4703494E-002  0.4782869E+03  0.7818608E-02  0.1019607E+00
         21   -1    0    0  501  502  0.00000000000E+00  0.00000000000E+00  0.15651778519E+04  0.15651778519E+04  0.00000000000E+00 0.  1.
         21   -1    0    0  502  503 -0.00000000000E+00 -0.00000000000E+00 -0.26317187574E+03  0.26317187574E+03  0.00000000000E+00 0.  1.
    9000007    1    1    2  501    0 -0.26065677873E+03 -0.28572776734E+02  0.12605876557E+04  0.13482728201E+04  0.40000000000E+03 0.  1.
   -9000007    1    1    2    0  503  0.26065677873E+03  0.28572776734E+02  0.41418320510E+02  0.48007690753E+03  0.40000000000E+03 0.  1.
<mgrwt>
<rscale>  2 0.47828690E+03</rscale>
<asrwt>0</asrwt>
<pdfrwt beam="1">  1       21 0.24079659E+00 0.47828690E+03</pdfrwt>
<pdfrwt beam="2">  1       21 0.40487982E-01 0.47828690E+03</pdfrwt>
<totfact> 0.35257755E+02</totfact>
</mgrwt>
</event>
<event>
 4    1  0.4703494E-002  0.4066571E+03  0.7818608E-02  0.1041499E+00
         21   -1    0    0  503  502  0.00000000000E+00  0.00000000000E+00  0.49758142921E+03  0.49758142921E+03  0.00000000000E+00 0. -1.
         21   -1    0    0  501  503 -0.00000000000E+00 -0.00000000000E+00 -0.92263962235E+03  0.92263962235E+03  0.00000000000E+00 0. -1.
    9000007    1    1    2  501    0 -0.68433956964E+02 -0.26207109868E+02 -0.78052255994E+03  0.88010538326E+03  0.40000000000E+03 0. -1.
   -9000007    1    1    2    0  502  0.68433956964E+02  0.26207109868E+02  0.35546436680E+03  0.54011566830E+03  0.40000000000E+03 0. -1.
<mgrwt>
<rscale>  2 0.40665713E+03</rscale>
<asrwt>0</asrwt>
<pdfrwt beam="1">  1       21 0.76550990E-01 0.40665713E+03</pdfrwt>
<pdfrwt beam="2">  1       21 0.14194456E+00 0.40665713E+03</pdfrwt>
<totfact> 0.44547334E+02</totfact>
</mgrwt>
</event>
<event>
 4    1  0.4703494E-002  0.5039796E+03  0.7818608E-02  0.1012745E+00
         21   -1    0    0  503  502  0.00000000000E+00  0.00000000000E+00  0.75811335833E+03  0.75811335833E+03  0.00000000000E+00 0.  1.
         21   -1    0    0  501  503 -0.00000000000E+00 -0.00000000000E+00 -0.34735539799E+03  0.34735539799E+03  0.00000000000E+00 0. -1.
    9000007    1    1    2  501    0 -0.30658199230E+03  0.17230988080E+01  0.10128656633E+03  0.51405686027E+03  0.40000000000E+03 0. -1.
   -9000007    1    1    2    0  502  0.30658199230E+03 -0.17230988080E+01  0.30947139402E+03  0.59141189605E+03  0.40000000000E+03 0.  1.
<mgrwt>
<rscale>  2 0.50397965E+03</rscale>
<asrwt>0</asrwt>
<pdfrwt beam="1">  1       21 0.11663282E+00 0.50397965E+03</pdfrwt>
<pdfrwt beam="2">  1       21 0.53439292E-01 0.50397965E+03</pdfrwt>
<totfact> 0.15775367E+03</totfact>
</mgrwt>
</event>
<event>
 4    1  0.4703494E-002  0.5368100E+03  0.7818608E-02  0.1004594E+00
         21   -1    0    0  501  502  0.00000000000E+00  0.00000000000E+00  0.52458987019E+03  0.52458987019E+03  0.00000000000E+00 0. -1.
         21   -1    0    0  502  503 -0.00000000000E+00 -0.00000000000E+00 -0.69627785850E+03  0.69627785850E+03  0.00000000000E+00 0.  1.
    9000007    1    1    2  501    0  0.20346459060E+03 -0.29456265125E+03  0.19460337684E+03  0.57099515709E+03  0.40000000000E+03 0. -1.
   -9000007    1    1    2    0  503 -0.20346459060E+03  0.29456265125E+03 -0.36629136515E+03  0.64987257161E+03  0.40000000000E+03 0.  1.
<mgrwt>
<rscale>  2 0.53681002E+03</rscale>
<asrwt>0</asrwt>
<pdfrwt beam="1">  1       21 0.80706133E-01 0.53681002E+03</pdfrwt>
<pdfrwt beam="2">  1       21 0.10711967E+00 0.53681002E+03</pdfrwt>
<totfact> 0.76754361E+02</totfact>
</mgrwt>
</event>
<event>
 4    1  0.4703494E-002  0.4074710E+03  0.7818608E-02  0.1041223E+00
         21   -1    0    0  501  502  0.00000000000E+00  0.00000000000E+00  0.15376158578E+04  0.15376158578E+04  0.00000000000E+00 0. -1.
         21   -1    0    0  502  503 -0.00000000000E+00 -0.00000000000E+00 -0.11436751100E+03  0.11436751100E+03  0.00000000000E+00 0.  1.
    9000007    1    1    2  501    0 -0.45630463206E+02  0.62852966996E+02  0.90682014022E+03  0.99416065168E+03  0.40000000000E+03 0. -1.
   -9000007    1    1    2    0  503  0.45630463206E+02 -0.62852966996E+02  0.51642820661E+03  0.65782271716E+03  0.40000000000E+03 0.  1.
<mgrwt>
<rscale>  2 0.40747102E+03</rscale>
<asrwt>0</asrwt>
<pdfrwt beam="1">  1       21 0.23655627E+00 0.40747102E+03</pdfrwt>
<pdfrwt beam="2">  1       21 0.17595003E-01 0.40747102E+03</pdfrwt>
<totfact> 0.19941260E+03</totfact>
</mgrwt>
</event>
<event>
 4    1  0.4703494E-002  0.4226061E+03  0.7818608E-02  0.1036221E+00
         21   -1    0    0  503  502  0.00000000000E+00  0.00000000000E+00  0.80092926516E+03  0.80092926516E+03  0.00000000000E+00 0.  1.
         21   -1    0    0  501  503 -0.00000000000E+00 -0.00000000000E+00 -0.22306583994E+03  0.22306583994E+03  0.00000000000E+00 0.  1.
    9000007    1    1    2  501    0  0.21326577752E+02  0.13468875219E+03  0.29862795068E+03  0.51746935737E+03  0.40000000000E+03 0.  1.
   -9000007    1    1    2    0  502 -0.21326577752E+02 -0.13468875219E+03  0.27923547454E+03  0.50652574774E+03  0.40000000000E+03 0.  1.
<mgrwt>
<rscale>  2 0.42260606E+03</rscale>
<asrwt>0</asrwt>
<pdfrwt beam="1">  1       21 0.12321989E+00 0.42260606E+03</pdfrwt>
<pdfrwt beam="2">  1       21 0.34317822E-01 0.42260606E+03</pdfrwt>
<totfact> 0.35540608E+03</totfact>
</mgrwt>
</event>
<event>
 4    1  0.4703494E-002  0.7214023E+03  0.7818608E-02  0.9681316E-01
         21   -1    0    0  501  502  0.00000000000E+00  0.00000000000E+00  0.11231631956E+04  0.11231631956E+04  0.00000000000E+00 0. -1.
         21   -1    0    0  502  503 -0.00000000000E+00 -0.00000000000E+00 -0.46355031365E+03  0.46355031365E+03  0.00000000000E+00 0.  1.
    9000007    1    1    2  501    0  0.57373058719E+03 -0.17678919916E+03  0.34616822363E+03  0.80015851346E+03  0.40000000000E+03 0. -1.
   -9000007    1    1    2    0  503 -0.57373058719E+03  0.17678919916E+03  0.31344465837E+03  0.78655499584E+03  0.40000000000E+03 0.  1.
<mgrwt>
<rscale>  2 0.72140225E+03</rscale>
<asrwt>0</asrwt>
<pdfrwt beam="1">  1       21 0.17279434E+00 0.72140225E+03</pdfrwt>
<pdfrwt beam="2">  1       21 0.71315433E-01 0.72140225E+03</pdfrwt>
<totfact> 0.26795915E+02</totfact>
</mgrwt>
</event>
<event>
 4    1  0.4703494E-002  0.5688969E+03  0.7818608E-02  0.9972123E-01
         21   -1    0    0  501  502  0.00000000000E+00  0.00000000000E+00  0.22605484619E+04  0.22605484619E+04  0.00000000000E+00 0.  1.
         21   -1    0    0  502  503 -0.00000000000E+00 -0.00000000000E+00 -0.30240643093E+03  0.30240643093E+03  0.00000000000E+00 0. -1.
    9000007    1    1    2  501    0 -0.35002115683E+03 -0.20280261751E+03  0.19089706498E+04  0.19919369101E+04  0.40000000000E+03 0.  1.
   -9000007    1    1    2    0  503  0.35002115683E+03  0.20280261751E+03  0.49171381162E+02  0.57101798275E+03  0.40000000000E+03 0. -1.
<mgrwt>
<rscale>  2 0.56889693E+03</rscale>
<asrwt>0</asrwt>
<pdfrwt beam="1">  1       21 0.34777668E+00 0.56889693E+03</pdfrwt>
<pdfrwt beam="2">  1       21 0.46524068E-01 0.56889693E+03</pdfrwt>
<totfact> 0.55910106E+01</totfact>
</mgrwt>
</event>
<event>
 4    1  0.4703494E-002  0.5283853E+03  0.7818608E-02  0.1006624E+00
         21   -1    0    0  503  502  0.00000000000E+00  0.00000000000E+00  0.76597849092E+03  0.76597849092E+03  0.00000000000E+00 0.  1.
         21   -1    0    0  501  503 -0.00000000000E+00 -0.00000000000E+00 -0.37895137256E+03  0.37895137256E+03  0.00000000000E+00 0. -1.
    9000007    1    1    2  501    0 -0.19862400926E+03 -0.28238183404E+03  0.30534701905E+03  0.61026862880E+03  0.40000000000E+03 0. -1.
   -9000007    1    1    2    0  502  0.19862400926E+03  0.28238183404E+03  0.81680099312E+02  0.53466123469E+03  0.40000000000E+03 0.  1.
<mgrwt>
<rscale>  2 0.52838527E+03</rscale>
<asrwt>0</asrwt>
<pdfrwt beam="1">  1       21 0.11784284E+00 0.52838527E+03</pdfrwt>
<pdfrwt beam="2">  1       21 0.58300211E-01 0.52838527E+03</pdfrwt>
<totfact> 0.12617907E+03</totfact>
</mgrwt>
</event>
<event>
 4    1  0.4703494E-002  0.4288442E+03  0.7818608E-02  0.1034226E+00
         21   -1    0    0  501  502  0.00000000000E+00  0.00000000000E+00  0.37276801741E+03  0.37276801741E+03  0.00000000000E+00 0.  1.
         21   -1    0    0  502  503 -0.00000000000E+00 -0.00000000000E+00 -0.51879331881E+03  0.51879331881E+03  0.00000000000E+00 0. -1.
    9000007    1    1    2  501    0  0.75548818082E+02  0.13490624722E+03 -0.17172241950E+03  0.46194795033E+03  0.40000000000E+03 0. -1.
   -9000007    1    1    2    0  503 -0.75548818082E+02 -0.13490624722E+03  0.25697118103E+02  0.42961338589E+03  0.40000000000E+03 0.  1.
<mgrwt>
<rscale>  2 0.42884417E+03</rscale>
<asrwt>0</asrwt>
<pdfrwt beam="1">  1       21 0.57348925E-01 0.42884417E+03</pdfrwt>
<pdfrwt beam="2">  1       21 0.79814357E-01 0.42884417E+03</pdfrwt>
<totfact> 0.34718302E+03</totfact>
</mgrwt>
</event>
<event>
 4    1  0.4703494E-002  0.9499951E+03  0.7818608E-02  0.9365156E-01
         21   -1    0    0  501  502  0.00000000000E+00  0.00000000000E+00  0.18678355010E+04  0.18678355010E+04  0.00000000000E+00 0.  1.
         21   -1    0    0  502  503 -0.00000000000E+00 -0.00000000000E+00 -0.49566663681E+03  0.49566663681E+03  0.00000000000E+00 0. -1.
    9000007    1    1    2  501    0 -0.70850221402E+03  0.49042353241E+03  0.87369106314E+03  0.12906690909E+04  0.40000000000E+03 0. -1.
   -9000007    1    1    2    0  503  0.70850221402E+03 -0.49042353241E+03  0.49847780108E+03  0.10728330469E+04  0.40000000000E+03 0. -1.
<mgrwt>
<rscale>  2 0.94999507E+03</rscale>
<asrwt>0</asrwt>
<pdfrwt beam="1">  1       21 0.28735930E+00 0.94999507E+03</pdfrwt>
<pdfrwt beam="2">  1       21 0.76256407E-01 0.94999507E+03</pdfrwt>
<totfact> 0.37977708E+01</totfact>
</mgrwt>
</event>
<event>
 4    1  0.4703494E-002  0.5245812E+03  0.7818608E-02  0.1007555E+00
         21   -1    0    0  501  502  0.00000000000E+00  0.00000000000E+00  0.36766383031E+03  0.36766383031E+03  0.00000000000E+00 0. -1.
         21   -1    0    0  502  503 -0.00000000000E+00 -0.00000000000E+00 -0.75147677975E+03  0.75147677975E+03  0.00000000000E+00 0.  1.
    9000007    1    1    2  501    0 -0.20954543838E+00 -0.33938971169E+03 -0.22730077239E+03  0.57170889571E+03  0.40000000000E+03 0.  1.
   -9000007    1    1    2    0  503  0.20954543838E+00  0.33938971169E+03 -0.15651217704E+03  0.54743171435E+03  0.40000000000E+03 0. -1.
<mgrwt>
<rscale>  2 0.52458119E+03</rscale>
<asrwt>0</asrwt>
<pdfrwt beam="1">  1       21 0.56563667E-01 0.52458119E+03</pdfrwt>
<pdfrwt beam="2">  1       21 0.11561181E+00 0.52458119E+03</pdfrwt>
<totfact> 0.14161781E+03</totfact>
</mgrwt>
</event>
<event>
 4    1  0.4703494E-002  0.5524148E+03  0.7818608E-02  0.1000937E+00
         21   -1    0    0  501  502  0.00000000000E+00  0.00000000000E+00  0.39932321578E+03  0.39932321578E+03  0.00000000000E+00 0. -1.
         21   -1    0    0  502  503 -0.00000000000E+00 -0.00000000000E+00 -0.79860921289E+03  0.79860921289E+03  0.00000000000E+00 0.  1.
    9000007    1    1    2  501    0 -0.37864134344E+03  0.42342567576E+02 -0.32397492849E+03  0.64040761573E+03  0.40000000000E+03 0.  1.
   -9000007    1    1    2    0  503  0.37864134344E+03 -0.42342567576E+02 -0.75311068619E+02  0.55752481294E+03  0.40000000000E+03 0. -1.
<mgrwt>
<rscale>  2 0.55241484E+03</rscale>
<asrwt>0</asrwt>
<pdfrwt beam="1">  1       21 0.61434341E-01 0.55241484E+03</pdfrwt>
<pdfrwt beam="2">  1       21 0.12286296E+00 0.55241484E+03</pdfrwt>
<totfact> 0.10024431E+03</totfact>
</mgrwt>
</event>
<event>
 4    1  0.4703494E-002  0.5207043E+03  0.7818608E-02  0.1008512E+00
         21   -1    0    0  501  502  0.00000000000E+00  0.00000000000E+00  0.17353104911E+04  0.17353104911E+04  0.00000000000E+00 0. -1.
         21   -1    0    0  502  503 -0.00000000000E+00 -0.00000000000E+00 -0.27432627713E+03  0.27432627713E+03  0.00000000000E+00 0. -1.
    9000007    1    1    2  501    0  0.17608622448E+03 -0.28306637815E+03  0.13897344317E+04  0.14840804303E+04  0.40000000000E+03 0. -1.
   -9000007    1    1    2    0  503 -0.17608622448E+03  0.28306637815E+03  0.71249782278E+02  0.52555633795E+03  0.40000000000E+03 0. -1.
<mgrwt>
<rscale>  2 0.52070427E+03</rscale>
<asrwt>0</asrwt>
<pdfrwt beam="1">  1       21 0.26697084E+00 0.52070427E+03</pdfrwt>
<pdfrwt beam="2">  1       21 0.42204044E-01 0.52070427E+03</pdfrwt>
<totfact> 0.21858078E+02</totfact>
</mgrwt>
</event>
<event>
 4    1  0.4703494E-002  0.6264691E+03  0.7818608E-02  0.9851963E-01
         21   -1    0    0  503  502  0.00000000000E+00  0.00000000000E+00  0.28983087238E+03  0.28983087238E+03  0.00000000000E+00 0. -1.
         21   -1    0    0  501  503 -0.00000000000E+00 -0.00000000000E+00 -0.17179249967E+04  0.17179249967E+04  0.00000000000E+00 0.  1.
    9000007    1    1    2  501    0 -0.47155412078E+03  0.10049988436E+03 -0.25207277507E+03  0.67528083011E+03  0.40000000000E+03 0. -1.
   -9000007    1    1    2    0  502  0.47155412078E+03 -0.10049988436E+03 -0.11760213492E+04  0.13324750390E+04  0.40000000000E+03 0.  1.
<mgrwt>
<rscale>  2 0.62646909E+03</rscale>
<asrwt>0</asrwt>
<pdfrwt beam="1">  1       21 0.44589364E-01 0.62646909E+03</pdfrwt>
<pdfrwt beam="2">  1       21 0.26429616E+00 0.62646909E+03</pdfrwt>
<totfact> 0.19294824E+02</totfact>
</mgrwt>
</event>
<event>
 4    1  0.4703494E-002  0.6431054E+03  0.7818608E-02  0.9819803E-01
         21   -1    0    0  503  502  0.00000000000E+00  0.00000000000E+00  0.21226060288E+04  0.21226060288E+04  0.00000000000E+00 0. -1.
         21   -1    0    0  501  503 -0.00000000000E+00 -0.00000000000E+00 -0.19508792399E+03  0.19508792399E+03  0.00000000000E+00 0. -1.
    9000007    1    1    2  501    0  0.28391063885E+03 -0.41590777854E+03  0.92307939509E+03  0.11250156002E+04  0.40000000000E+03 0. -1.
   -9000007    1    1    2    0  502 -0.28391063885E+03  0.41590777854E+03  0.10044387097E+04  0.11926783525E+04  0.40000000000E+03 0. -1.
<mgrwt>
<rscale>  2 0.64310538E+03</rscale>
<asrwt>0</asrwt>
<pdfrwt beam="1">  1       21 0.32655476E+00 0.64310538E+03</pdfrwt>
<pdfrwt beam="2">  1       21 0.30013528E-01 0.64310538E+03</pdfrwt>
<totfact> 0.17948759E+02</totfact>
</mgrwt>
</event>
<event>
 4    1  0.4703494E-002  0.4137923E+03  0.7818608E-02  0.1039106E+00
         21   -1    0    0  503  502  0.00000000000E+00  0.00000000000E+00  0.43754861718E+03  0.43754861718E+03  0.00000000000E+00 0. -1.
         21   -1    0    0  501  503 -0.00000000000E+00 -0.00000000000E+00 -0.42466194678E+03  0.42466194678E+03  0.00000000000E+00 0. -1.
    9000007    1    1    2  501    0  0.84703470962E+02  0.63634902836E+02 -0.11434336851E+03  0.42929999391E+03  0.40000000000E+03 0. -1.
   -9000007    1    1    2    0  502 -0.84703470962E+02 -0.63634902836E+02  0.12723003892E+03  0.43291057004E+03  0.40000000000E+03 0. -1.
<mgrwt>
<rscale>  2 0.41379231E+03</rscale>
<asrwt>0</asrwt>
<pdfrwt beam="1">  1       21 0.67315172E-01 0.41379231E+03</pdfrwt>
<pdfrwt beam="2">  1       21 0.65332607E-01 0.41379231E+03</pdfrwt>
<totfact> 0.38584238E+03</totfact>
</mgrwt>
</event>
<event>
 4    1  0.4703494E-002  0.6515879E+03  0.7818608E-02  0.9803804E-01
         21   -1    0    0  501  502  0.00000000000E+00  0.00000000000E+00  0.10398129982E+04  0.10398129982E+04  0.00000000000E+00 0. -1.
         21   -1    0    0  502  503 -0.00000000000E+00 -0.00000000000E+00 -0.45544639413E+03  0.45544639413E+03  0.00000000000E+00 0. -1.
    9000007    1    1    2  501    0 -0.23147270387E+03  0.45933336514E+03  0.53269873710E+03  0.84162622195E+03  0.40000000000E+03 0. -1.
   -9000007    1    1    2    0  503  0.23147270387E+03 -0.45933336514E+03  0.51667866999E+02  0.65363317040E+03  0.40000000000E+03 0. -1.
<mgrwt>
<rscale>  2 0.65158787E+03</rscale>
<asrwt>0</asrwt>
<pdfrwt beam="1">  1       21 0.15997123E+00 0.65158787E+03</pdfrwt>
<pdfrwt beam="2">  1       21 0.70068676E-01 0.65158787E+03</pdfrwt>
<totfact> 0.35567340E+02</totfact>
</mgrwt>
</event>
<event>
 4    1  0.4703494E-002  0.5135832E+03  0.7818608E-02  0.1010293E+00
         21   -1    0    0  503  502  0.00000000000E+00  0.00000000000E+00  0.80313648433E+03  0.80313648433E+03  0.00000000000E+00 0.  1.
         21   -1    0    0  501  503 -0.00000000000E+00 -0.00000000000E+00 -0.76204347307E+03  0.76204347307E+03  0.00000000000E+00 0.  1.
    9000007    1    1    2  501    0 -0.29249658558E+03  0.13495705779E+03 -0.56979024120E+03  0.76709098482E+03  0.40000000000E+03 0.  1.
   -9000007    1    1    2    0  502  0.29249658558E+03 -0.13495705779E+03  0.61088325246E+03  0.79808897259E+03  0.40000000000E+03 0.  1.
<mgrwt>
<rscale>  2 0.51358316E+03</rscale>
<asrwt>0</asrwt>
<pdfrwt beam="1">  1       21 0.12355946E+00 0.51358316E+03</pdfrwt>
<pdfrwt beam="2">  1       21 0.11723746E+00 0.51358316E+03</pdfrwt>
<totfact> 0.21867590E+02</totfact>
</mgrwt>
</event>
<event>
 4    1  0.4703494E-002  0.4810398E+03  0.7818608E-02  0.1018850E+00
         21   -1    0    0  503  502  0.00000000000E+00  0.00000000000E+00  0.12544097327E+04  0.12544097327E+04  0.00000000000E+00 0.  1.
         21   -1    0    0  501  503 -0.00000000000E+00 -0.00000000000E+00 -0.19472730245E+03  0.19472730245E+03  0.00000000000E+00 0.  1.
    9000007    1    1    2  501    0 -0.26599303170E+03 -0.25435464465E+02  0.36353386882E+03  0.60295615889E+03  0.40000000000E+03 0.  1.
   -9000007    1    1    2    0  502  0.26599303170E+03  0.25435464465E+02  0.69614856146E+03  0.84618087628E+03  0.40000000000E+03 0.  1.
<mgrwt>
<rscale>  2 0.48103977E+03</rscale>
<asrwt>0</asrwt>
<pdfrwt beam="1">  1       21 0.19298611E+00 0.48103977E+03</pdfrwt>
<pdfrwt beam="2">  1       21 0.29958047E-01 0.48103977E+03</pdfrwt>
<totfact> 0.13217649E+03</totfact>
</mgrwt>
</event>
<event>
 4    1  0.4703494E-002  0.6592778E+03  0.7818608E-02  0.9789524E-01
         21   -1    0    0  503  502  0.00000000000E+00  0.00000000000E+00  0.10039347183E+04  0.10039347183E+04  0.00000000000E+00 0. -1.
         21   -1    0    0  501  503 -0.00000000000E+00 -0.00000000000E+00 -0.44369249516E+03  0.44369249516E+03  0.00000000000E+00 0.  1.
    9000007    1    1    2  501    0 -0.44994259677E+03  0.26869842606E+03  0.16746204800E+03  0.68021373264E+03  0.40000000000E+03 0. -1.
   -9000007    1    1    2    0  502  0.44994259677E+03 -0.26869842606E+03  0.39278017515E+03  0.76741348082E+03  0.40000000000E+03 0.  1.
<mgrwt>
<rscale>  2 0.65927777E+03</rscale>
<asrwt>0</asrwt>
<pdfrwt beam="1">  1       21 0.15445149E+00 0.65927777E+03</pdfrwt>
<pdfrwt beam="2">  1       21 0.68260384E-01 0.65927777E+03</pdfrwt>
<totfact> 0.41541126E+02</totfact>
</mgrwt>
</event>
<event>
 4    1  0.4703494E-002  0.4154861E+03  0.7818608E-02  0.1038546E+00
         21   -1    0    0  501  502  0.00000000000E+00  0.00000000000E+00  0.98855535180E+03  0.98855535180E+03  0.00000000000E+00 0.  1.
         21   -1    0    0  502  503 -0.00000000000E+00 -0.00000000000E+00 -0.19314529323E+03  0.19314529323E+03  0.00000000000E+00 0.  1.
    9000007    1    1    2  501    0 -0.10426886165E+03  0.41913063096E+02  0.58065526994E+03  0.71399526811E+03  0.40000000000E+03 0.  1.
   -9000007    1    1    2    0  503  0.10426886165E+03 -0.41913063096E+02  0.21475478862E+03  0.46770537693E+03  0.40000000000E+03 0.  1.
<mgrwt>
<rscale>  2 0.41548610E+03</rscale>
<asrwt>0</asrwt>
<pdfrwt beam="1">  1       21 0.15208544E+00 0.41548610E+03</pdfrwt>
<pdfrwt beam="2">  1       21 0.29714661E-01 0.41548610E+03</pdfrwt>
<totfact> 0.27302275E+03</totfact>
</mgrwt>
</event>
<event>
 4    1  0.4703494E-002  0.4042440E+03  0.7818608E-02  0.1042320E+00
         21   -1    0    0  501  502  0.00000000000E+00  0.00000000000E+00  0.99869307837E+03  0.99869307837E+03  0.00000000000E+00 0.  1.
         21   -1    0    0  502  503 -0.00000000000E+00 -0.00000000000E+00 -0.17534956343E+03  0.17534956343E+03  0.00000000000E+00 0.  1.
    9000007    1    1    2  501    0 -0.13359342343E+02  0.56875084140E+02  0.56345054059E+03  0.69346215392E+03  0.40000000000E+03 0.  1.
   -9000007    1    1    2    0  503  0.13359342343E+02 -0.56875084140E+02  0.25989297435E+03  0.48058048789E+03  0.40000000000E+03 0.  1.
<mgrwt>
<rscale>  2 0.40424404E+03</rscale>
<asrwt>0</asrwt>
<pdfrwt beam="1">  1       21 0.15364509E+00 0.40424404E+03</pdfrwt>
<pdfrwt beam="2">  1       21 0.26976857E-01 0.40424404E+03</pdfrwt>
<totfact> 0.32276434E+03</totfact>
</mgrwt>
</event>
<event>
 4    1  0.4703494E-002  0.4248376E+03  0.7818608E-02  0.1035503E+00
         21   -1    0    0  501  502  0.00000000000E+00  0.00000000000E+00  0.41123763515E+03  0.41123763515E+03  0.00000000000E+00 0. -1.
         21   -1    0    0  502  503 -0.00000000000E+00 -0.00000000000E+00 -0.45168962775E+03  0.45168962775E+03  0.00000000000E+00 0. -1.
    9000007    1    1    2  501    0 -0.87572221262E+02  0.11321685276E+03 -0.92864964157E+02  0.43486877475E+03  0.40000000000E+03 0. -1.
   -9000007    1    1    2    0  503  0.87572221262E+02 -0.11321685276E+03  0.52412971557E+02  0.42805848814E+03  0.40000000000E+03 0. -1.
<mgrwt>
<rscale>  2 0.42483756E+03</rscale>
<asrwt>0</asrwt>
<pdfrwt beam="1">  1       21 0.63267328E-01 0.42483756E+03</pdfrwt>
<pdfrwt beam="2">  1       21 0.69490712E-01 0.42483756E+03</pdfrwt>
<totfact> 0.38426159E+03</totfact>
</mgrwt>
</event>
<event>
 4    1  0.4703494E-002  0.4198348E+03  0.7818608E-02  0.1037120E+00
         21   -1    0    0  501  502  0.00000000000E+00  0.00000000000E+00  0.35867835019E+03  0.35867835019E+03  0.00000000000E+00 0. -1.
         21   -1    0    0  502  503 -0.00000000000E+00 -0.00000000000E+00 -0.64965179282E+03  0.64965179282E+03  0.00000000000E+00 0. -1.
    9000007    1    1    2  501    0 -0.10077584266E+03  0.78137429530E+02  0.10333092046E+03  0.43236386005E+03  0.40000000000E+03 0. -1.
   -9000007    1    1    2    0  503  0.10077584266E+03 -0.78137429530E+02 -0.39430436308E+03  0.57596628296E+03  0.40000000000E+03 0. -1.
<mgrwt>
<rscale>  2 0.41983476E+03</rscale>
<asrwt>0</asrwt>
<pdfrwt beam="1">  1       21 0.55181285E-01 0.41983476E+03</pdfrwt>
<pdfrwt beam="2">  1       21 0.99946429E-01 0.41983476E+03</pdfrwt>
<totfact> 0.22260230E+03</totfact>
</mgrwt>
</event>
<event>
 4    1  0.4703494E-002  0.6550581E+03  0.7818608E-02  0.9797334E-01
         21   -1    0    0  501  502  0.00000000000E+00  0.00000000000E+00  0.62897187868E+03  0.62897187868E+03  0.00000000000E+00 0. -1.
         21   -1    0    0  502  503 -0.00000000000E+00 -0.00000000000E+00 -0.72649915019E+03  0.72649915019E+03  0.00000000000E+00 0.  1.
    9000007    1    1    2  501    0 -0.47359884877E+03 -0.21167239892E+03  0.11854258195E+03  0.66569769247E+03  0.40000000000E+03 0.  1.
   -9000007    1    1    2    0  503  0.47359884877E+03  0.21167239892E+03 -0.21606985346E+03  0.68977333639E+03  0.40000000000E+03 0.  1.
<mgrwt>
<rscale>  2 0.65505807E+03</rscale>
<asrwt>0</asrwt>
<pdfrwt beam="1">  1       21 0.96764904E-01 0.65505807E+03</pdfrwt>
<pdfrwt beam="2">  1       21 0.11176910E+00 0.65505807E+03</pdfrwt>
<totfact> 0.43144309E+02</totfact>
</mgrwt>
</event>
<event>
 4    1  0.4703494E-002  0.5745797E+03  0.7818608E-02  0.9959595E-01
         21   -1    0    0  501  502  0.00000000000E+00  0.00000000000E+00  0.57603333107E+03  0.57603333107E+03  0.00000000000E+00 0. -1.
         21   -1    0    0  502  503 -0.00000000000E+00 -0.00000000000E+00 -0.57330092848E+03  0.57330092848E+03  0.00000000000E+00 0. -1.
    9000007    1    1    2  501    0  0.18182045570E+02  0.41208160700E+03  0.11296281377E+02  0.57469073733E+03  0.40000000000E+03 0. -1.
   -9000007    1    1    2    0  503 -0.18182045570E+02 -0.41208160700E+03 -0.85638787924E+01  0.57464352222E+03  0.40000000000E+03 0. -1.
<mgrwt>
<rscale>  2 0.57457971E+03</rscale>
<asrwt>0</asrwt>
<pdfrwt beam="1">  1       21 0.88620513E-01 0.57457971E+03</pdfrwt>
<pdfrwt beam="2">  1       21 0.88200143E-01 0.57457971E+03</pdfrwt>
<totfact> 0.97486487E+02</totfact>
</mgrwt>
</event>
<event>
 4    1  0.4703494E-002  0.7002276E+03  0.7818608E-02  0.9716843E-01
         21   -1    0    0  503  502  0.00000000000E+00  0.00000000000E+00  0.29501986234E+03  0.29501986234E+03  0.00000000000E+00 0.  1.
         21   -1    0    0  501  503 -0.00000000000E+00 -0.00000000000E+00 -0.18937006829E+04  0.18937006829E+04  0.00000000000E+00 0.  1.
    9000007    1    1    2  501    0  0.36950241779E+03  0.44021199329E+03 -0.11821494695E+04  0.13739708891E+04  0.40000000000E+03 0.  1.
   -9000007    1    1    2    0  502 -0.36950241779E+03 -0.44021199329E+03 -0.41653135102E+03  0.81474965613E+03  0.40000000000E+03 0.  1.
<mgrwt>
<rscale>  2 0.70022756E+03</rscale>
<asrwt>0</asrwt>
<pdfrwt beam="1">  1       21 0.45387672E-01 0.70022756E+03</pdfrwt>
<pdfrwt beam="2">  1       21 0.29133856E+00 0.70022756E+03</pdfrwt>
<totfact> 0.12314377E+02</totfact>
</mgrwt>
</event>
<event>
 4    1  0.4703494E-002  0.4174016E+03  0.7818608E-02  0.1037915E+00
         21   -1    0    0  503  502  0.00000000000E+00  0.00000000000E+00  0.77246731824E+03  0.77246731824E+03  0.00000000000E+00 0. -1.
         21   -1    0    0  501  503 -0.00000000000E+00 -0.00000000000E+00 -0.39060197074E+03  0.39060197074E+03  0.00000000000E+00 0. -1.
    9000007    1    1    2  501    0  0.11542717636E+03  0.30011339018E+02  0.56896484978E+03  0.70565226124E+03  0.40000000000E+03 0. -1.
   -9000007    1    1    2    0  502 -0.11542717636E+03 -0.30011339018E+02 -0.18709950227E+03  0.45741702774E+03  0.40000000000E+03 0. -1.
<mgrwt>
<rscale>  2 0.41740162E+03</rscale>
<asrwt>0</asrwt>
<pdfrwt beam="1">  1       21 0.11884113E+00 0.41740162E+03</pdfrwt>
<pdfrwt beam="2">  1       21 0.60092611E-01 0.41740162E+03</pdfrwt>
<totfact> 0.12066123E+03</totfact>
</mgrwt>
</event>
<event>
 4    1  0.4703494E-002  0.4242187E+03  0.7818608E-02  0.1035702E+00
         21   -1    0    0  501  502  0.00000000000E+00  0.00000000000E+00  0.11135255404E+04  0.11135255404E+04  0.00000000000E+00 0.  1.
         21   -1    0    0  502  503 -0.00000000000E+00 -0.00000000000E+00 -0.16716745540E+03  0.16716745540E+03  0.00000000000E+00 0.  1.
    9000007    1    1    2  501    0 -0.11911912370E+03 -0.75974692228E+02  0.35646753056E+03  0.55410343784E+03  0.40000000000E+03 0.  1.
   -9000007    1    1    2    0  503  0.11911912370E+03  0.75974692228E+02  0.58989055443E+03  0.72658955793E+03  0.40000000000E+03 0.  1.
<mgrwt>
<rscale>  2 0.42421872E+03</rscale>
<asrwt>0</asrwt>
<pdfrwt beam="1">  1       21 0.17131162E+00 0.42421872E+03</pdfrwt>
<pdfrwt beam="2">  1       21 0.25718071E-01 0.42421872E+03</pdfrwt>
<totfact> 0.25932886E+03</totfact>
</mgrwt>
</event>
<event>
 4    1  0.4703494E-002  0.4075329E+03  0.7818608E-02  0.1041202E+00
         21   -1    0    0  503  502  0.00000000000E+00  0.00000000000E+00  0.10694551247E+04  0.10694551247E+04  0.00000000000E+00 0.  1.
         21   -1    0    0  501  503 -0.00000000000E+00 -0.00000000000E+00 -0.18834265963E+03  0.18834265963E+03  0.00000000000E+00 0.  1.
    9000007    1    1    2  501    0 -0.26686562904E+02  0.73286502911E+02  0.17712683675E+03  0.44436133995E+03  0.40000000000E+03 0.  1.
   -9000007    1    1    2    0  502  0.26686562904E+02 -0.73286502911E+02  0.70398562827E+03  0.81343644433E+03  0.40000000000E+03 0.  1.
<mgrwt>
<rscale>  2 0.40753292E+03</rscale>
<asrwt>0</asrwt>
<pdfrwt beam="1">  1       21 0.16453155E+00 0.40753292E+03</pdfrwt>
<pdfrwt beam="2">  1       21 0.28975794E-01 0.40753292E+03</pdfrwt>
<totfact> 0.23167916E+03</totfact>
</mgrwt>
</event>
<event>
 4    1  0.4703494E-002  0.4723119E+03  0.7818608E-02  0.1021270E+00
         21   -1    0    0  503  502  0.00000000000E+00  0.00000000000E+00  0.74298677651E+03  0.74298677651E+03  0.00000000000E+00 0.  1.
         21   -1    0    0  501  503 -0.00000000000E+00 -0.00000000000E+00 -0.52703347529E+03  0.52703347529E+03  0.00000000000E+00 0.  1.
    9000007    1    1    2  501    0 -0.21525744861E+03 -0.12939379548E+03 -0.30857748403E+03  0.56417956994E+03  0.40000000000E+03 0.  1.
   -9000007    1    1    2    0  502  0.21525744861E+03  0.12939379548E+03  0.52453078525E+03  0.70584068186E+03  0.40000000000E+03 0.  1.
<mgrwt>
<rscale>  2 0.47231189E+03</rscale>
<asrwt>0</asrwt>
<pdfrwt beam="1">  1       21 0.11430566E+00 0.47231189E+03</pdfrwt>
<pdfrwt beam="2">  1       21 0.81082074E-01 0.47231189E+03</pdfrwt>
<totfact> 0.66200566E+02</totfact>
</mgrwt>
</event>
<event>
 4    1  0.4703494E-002  0.5307927E+03  0.7818608E-02  0.1006040E+00
         21   -1    0    0  503  502  0.00000000000E+00  0.00000000000E+00  0.16185957841E+04  0.16185957841E+04  0.00000000000E+00 0.  1.
         21   -1    0    0  501  503 -0.00000000000E+00 -0.00000000000E+00 -0.25744264690E+03  0.25744264690E+03  0.00000000000E+00 0.  1.
    9000007    1    1    2  501    0  0.72128142644E+02 -0.34137726432E+03  0.14675482769E+03  0.55070671414E+03  0.40000000000E+03 0.  1.
   -9000007    1    1    2    0  502 -0.72128142644E+02  0.34137726432E+03  0.12143983095E+04  0.13253317168E+04  0.40000000000E+03 0.  1.
<mgrwt>
<rscale>  2 0.53079271E+03</rscale>
<asrwt>0</asrwt>
<pdfrwt beam="1">  1       21 0.24901473E+00 0.53079271E+03</pdfrwt>
<pdfrwt beam="2">  1       21 0.39606562E-01 0.53079271E+03</pdfrwt>
<totfact> 0.31996262E+02</totfact>
</mgrwt>
</event>
<event>
 4    1  0.4703494E-002  0.4289239E+03  0.7818608E-02  0.1034200E+00
         21   -1    0    0  503  502  0.00000000000E+00  0.00000000000E+00  0.47844648824E+03  0.47844648824E+03  0.00000000000E+00 0.  1.
         21   -1    0    0  501  503 -0.00000000000E+00 -0.00000000000E+00 -0.54189515602E+03  0.54189515602E+03  0.00000000000E+00 0. -1.
    9000007    1    1    2  501    0 -0.46935113318E+02  0.14755603145E+03 -0.30665053915E+03  0.52726676402E+03  0.40000000000E+03 0. -1.
   -9000007    1    1    2    0  502  0.46935113318E+02 -0.14755603145E+03  0.24320187137E+03  0.49307488023E+03  0.40000000000E+03 0.  1.
<mgrwt>
<rscale>  2 0.42892387E+03</rscale>
<asrwt>0</asrwt>
<pdfrwt beam="1">  1       21 0.73607152E-01 0.42892387E+03</pdfrwt>
<pdfrwt beam="2">  1       21 0.83368486E-01 0.42892387E+03</pdfrwt>
<totfact> 0.18031760E+03</totfact>
</mgrwt>
</event>
<event>
 4    1  0.4703494E-002  0.4066091E+03  0.7818608E-02  0.1041515E+00
         21   -1    0    0  503  502  0.00000000000E+00  0.00000000000E+00  0.16563974361E+04  0.16563974361E+04  0.00000000000E+00 0.  1.
         21   -1    0    0  501  503 -0.00000000000E+00 -0.00000000000E+00 -0.10185423131E+03  0.10185423131E+03  0.00000000000E+00 0.  1.
    9000007    1    1    2  501    0 -0.23135428971E+02 -0.69250920182E+02  0.90170793095E+03  0.98914515151E+03  0.40000000000E+03 0.  1.
   -9000007    1    1    2    0  502  0.23135428971E+02  0.69250920182E+02  0.65283527384E+03  0.76910651590E+03  0.40000000000E+03 0.  1.
<mgrwt>
<rscale>  2 0.40660907E+03</rscale>
<asrwt>0</asrwt>
<pdfrwt beam="1">  1       21 0.25483036E+00 0.40660907E+03</pdfrwt>
<pdfrwt beam="2">  1       21 0.15669883E-01 0.40660907E+03</pdfrwt>
<totfact> 0.19127547E+03</totfact>
</mgrwt>
</event>
<event>
 4    1  0.4703494E-002  0.4303442E+03  0.7818608E-02  0.1033751E+00
         21   -1    0    0  503  502  0.00000000000E+00  0.00000000000E+00  0.60709428944E+03  0.60709428944E+03  0.00000000000E+00 0. -1.
         21   -1    0    0  501  503 -0.00000000000E+00 -0.00000000000E+00 -0.33892651177E+03  0.33892651177E+03  0.00000000000E+00 0. -1.
    9000007    1    1    2  501    0  0.13522983201E+03 -0.83120654186E+02  0.28361988444E+03  0.51539925249E+03  0.40000000000E+03 0. -1.
   -9000007    1    1    2    0  502 -0.13522983201E+03  0.83120654186E+02 -0.15452106779E+02  0.43062154872E+03  0.40000000000E+03 0. -1.
<mgrwt>
<rscale>  2 0.43034422E+03</rscale>
<asrwt>0</asrwt>
<pdfrwt beam="1">  1       21 0.93399121E-01 0.43034422E+03</pdfrwt>
<pdfrwt beam="2">  1       21 0.52142541E-01 0.43034422E+03</pdfrwt>
<totfact> 0.29464329E+03</totfact>
</mgrwt>
</event>
<event>
 4    1  0.4703494E-002  0.4413794E+03  0.7818608E-02  0.1030324E+00
         21   -1    0    0  501  502  0.00000000000E+00  0.00000000000E+00  0.79123458440E+03  0.79123458440E+03  0.00000000000E+00 0. -1.
         21   -1    0    0  502  503 -0.00000000000E+00 -0.00000000000E+00 -0.37012792515E+03  0.37012792515E+03  0.00000000000E+00 0. -1.
    9000007    1    1    2  501    0 -0.10912062917E+02  0.18627050883E+03 -0.12542855416E+03  0.45885520349E+03  0.40000000000E+03 0. -1.
   -9000007    1    1    2    0  503  0.10912062917E+02 -0.18627050883E+03  0.54653521340E+03  0.70250730606E+03  0.40000000000E+03 0. -1.
<mgrwt>
<rscale>  2 0.44137940E+03</rscale>
<asrwt>0</asrwt>
<pdfrwt beam="1">  1       21 0.12172840E+00 0.44137940E+03</pdfrwt>
<pdfrwt beam="2">  1       21 0.56942758E-01 0.44137940E+03</pdfrwt>
<totfact> 0.12635095E+03</totfact>
</mgrwt>
</event>
<event>
 4    1  0.4703494E-002  0.4151627E+03  0.7818608E-02  0.1038652E+00
         21   -1    0    0  503  502  0.00000000000E+00  0.00000000000E+00  0.12312799470E+04  0.12312799470E+04  0.00000000000E+00 0. -1.
         21   -1    0    0  501  503 -0.00000000000E+00 -0.00000000000E+00 -0.14807319782E+03  0.14807319782E+03  0.00000000000E+00 0. -1.
    9000007    1    1    2  501    0  0.74771388483E+02  0.82275842414E+02  0.38040996928E+03  0.56309130655E+03  0.40000000000E+03 0. -1.
   -9000007    1    1    2    0  502 -0.74771388483E+02 -0.82275842414E+02  0.70279677985E+03  0.81626183823E+03  0.40000000000E+03 0. -1.
<mgrwt>
<rscale>  2 0.41516271E+03</rscale>
<asrwt>0</asrwt>
<pdfrwt beam="1">  1       21 0.18942768E+00 0.41516271E+03</pdfrwt>
<pdfrwt beam="2">  1       21 0.22780493E-01 0.41516271E+03</pdfrwt>
<totfact> 0.24563714E+03</totfact>
</mgrwt>
</event>
<event>
 4    1  0.4703494E-002  0.4643969E+03  0.7818608E-02  0.1023514E+00
         21   -1    0    0  501  502  0.00000000000E+00  0.00000000000E+00  0.40871952296E+03  0.40871952296E+03  0.00000000000E+00 0.  1.
         21   -1    0    0  502  503 -0.00000000000E+00 -0.00000000000E+00 -0.72463949010E+03  0.72463949010E+03  0.00000000000E+00 0.  1.
    9000007    1    1    2  501    0  0.15954467764E+03  0.17381026345E+03  0.13749286181E+03  0.48432303155E+03  0.40000000000E+03 0. -1.
   -9000007    1    1    2    0  503 -0.15954467764E+03 -0.17381026345E+03 -0.45341282895E+03  0.64903598151E+03  0.40000000000E+03 0. -1.
<mgrwt>
<rscale>  2 0.46439693E+03</rscale>
<asrwt>0</asrwt>
<pdfrwt beam="1">  1       21 0.62879928E-01 0.46439693E+03</pdfrwt>
<pdfrwt beam="2">  1       21 0.11148300E+00 0.46439693E+03</pdfrwt>
<totfact> 0.12567244E+03</totfact>
</mgrwt>
</event>
<event>
 4    1  0.4703494E-002  0.7620023E+03  0.7818608E-02  0.9616707E-01
         21   -1    0    0  501  502  0.00000000000E+00  0.00000000000E+00  0.79657599355E+03  0.79657599355E+03  0.00000000000E+00 0.  1.
         21   -1    0    0  502  503 -0.00000000000E+00 -0.00000000000E+00 -0.73027908084E+03  0.73027908084E+03  0.00000000000E+00 0. -1.
    9000007    1    1    2  501    0  0.43558841485E+03  0.48053120215E+03  0.65970889155E+02  0.76485270583E+03  0.40000000000E+03 0.  1.
   -9000007    1    1    2    0  503 -0.43558841485E+03 -0.48053120215E+03  0.32602356222E+00  0.76200236856E+03  0.40000000000E+03 0. -1.
<mgrwt>
<rscale>  2 0.76200230E+03</rscale>
<asrwt>0</asrwt>
<pdfrwt beam="1">  1       21 0.12255015E+00 0.76200230E+03</pdfrwt>
<pdfrwt beam="2">  1       21 0.11235063E+00 0.76200230E+03</pdfrwt>
<totfact> 0.22817296E+02</totfact>
</mgrwt>
</event>
<event>
 4    1  0.4703494E-002  0.4463470E+03  0.7818608E-02  0.1028817E+00
         21   -1    0    0  501  502  0.00000000000E+00  0.00000000000E+00  0.15532890463E+04  0.15532890463E+04  0.00000000000E+00 0.  1.
         21   -1    0    0  502  503 -0.00000000000E+00 -0.00000000000E+00 -0.11675826316E+04  0.11675826316E+04  0.00000000000E+00 0.  1.
    9000007    1    1    2  501    0 -0.11350072820E+03 -0.16230610031E+03  0.14763929829E+04  0.15423883834E+04  0.40000000000E+03 0.  1.
   -9000007    1    1    2    0  503  0.11350072820E+03  0.16230610031E+03 -0.10906865681E+04  0.11784832945E+04  0.40000000000E+03 0.  1.
<mgrwt>
<rscale>  2 0.44634705E+03</rscale>
<asrwt>0</asrwt>
<pdfrwt beam="1">  1       21 0.23896755E+00 0.44634705E+03</pdfrwt>
<pdfrwt beam="2">  1       21 0.17962810E+00 0.44634705E+03</pdfrwt>
<totfact> 0.10520305E+01</totfact>
</mgrwt>
</event>
<event>
 4    1  0.4703494E-002  0.4095918E+03  0.7818608E-02  0.1040508E+00
         21   -1    0    0  501  502  0.00000000000E+00  0.00000000000E+00  0.56642457898E+03  0.56642457898E+03  0.00000000000E+00 0. -1.
         21   -1    0    0  502  503 -0.00000000000E+00 -0.00000000000E+00 -0.34867173826E+03  0.34867173826E+03  0.00000000000E+00 0. -1.
    9000007    1    1    2  501    0 -0.50337234959E+02 -0.72329970178E+02  0.28640184093E+03  0.49979143280E+03  0.40000000000E+03 0. -1.
   -9000007    1    1    2    0  503  0.50337234959E+02  0.72329970178E+02 -0.68649000214E+02  0.41530488444E+03  0.40000000000E+03 0. -1.
<mgrwt>
<rscale>  2 0.40959182E+03</rscale>
<asrwt>0</asrwt>
<pdfrwt beam="1">  1       21 0.87142243E-01 0.40959182E+03</pdfrwt>
<pdfrwt beam="2">  1       21 0.53641806E-01 0.40959182E+03</pdfrwt>
<totfact> 0.32928176E+03</totfact>
</mgrwt>
</event>
<event>
 4    1  0.4703494E-002  0.4008343E+03  0.7818608E-02  0.1043491E+00
         21   -1    0    0  501  502  0.00000000000E+00  0.00000000000E+00  0.95926742912E+03  0.95926742912E+03  0.00000000000E+00 0. -1.
         21   -1    0    0  502  503 -0.00000000000E+00 -0.00000000000E+00 -0.28606800179E+03  0.28606800179E+03  0.00000000000E+00 0. -1.
    9000007    1    1    2  501    0 -0.15927052446E+02  0.20359175248E+02  0.73748755352E+03  0.83937837631E+03  0.40000000000E+03 0. -1.
   -9000007    1    1    2    0  503  0.15927052446E+02 -0.20359175248E+02 -0.64288126194E+02  0.40595705461E+03  0.40000000000E+03 0. -1.
<mgrwt>
<rscale>  2 0.40083434E+03</rscale>
<asrwt>0</asrwt>
<pdfrwt beam="1">  1       21 0.14757960E+00 0.40083434E+03</pdfrwt>
<pdfrwt beam="2">  1       21 0.44010462E-01 0.40083434E+03</pdfrwt>
<totfact> 0.13432430E+03</totfact>
</mgrwt>
</event>
<event>
 4    1  0.4703494E-002  0.4291282E+03  0.7818608E-02  0.1034136E+00
         21   -1    0    0  501  502  0.00000000000E+00  0.00000000000E+00  0.59641176548E+03  0.59641176548E+03  0.00000000000E+00 0. -1.
         21   -1    0    0  502  503 -0.00000000000E+00 -0.00000000000E+00 -0.33599251359E+03  0.33599251359E+03  0.00000000000E+00 0. -1.
    9000007    1    1    2  501    0 -0.15300049097E+03  0.27236827326E+02  0.26292296430E+03  0.50326879513E+03  0.40000000000E+03 0. -1.
   -9000007    1    1    2    0  503  0.15300049097E+03 -0.27236827326E+02 -0.25037124096E+01  0.42913548394E+03  0.40000000000E+03 0. -1.
<mgrwt>
<rscale>  2 0.42912818E+03</rscale>
<asrwt>0</asrwt>
<pdfrwt beam="1">  1       21 0.91755656E-01 0.42912818E+03</pdfrwt>
<pdfrwt beam="2">  1       21 0.51691156E-01 0.42912818E+03</pdfrwt>
<totfact> 0.31326709E+03</totfact>
</mgrwt>
</event>
<event>
 4    1  0.4703494E-002  0.4950783E+03  0.7818608E-02  0.1015072E+00
         21   -1    0    0  501  502  0.00000000000E+00  0.00000000000E+00  0.13158801994E+04  0.13158801994E+04  0.00000000000E+00 0.  1.
         21   -1    0    0  502  503 -0.00000000000E+00 -0.00000000000E+00 -0.27590528818E+03  0.27590528818E+03  0.00000000000E+00 0. -1.
    9000007    1    1    2  501    0 -0.27755466283E+03  0.89810643495E+02  0.97364270356E+03  0.10922832310E+04  0.40000000000E+03 0.  1.
   -9000007    1    1    2    0  503  0.27755466283E+03 -0.89810643495E+02  0.66332207651E+02  0.49950225657E+03  0.40000000000E+03 0. -1.
<mgrwt>
<rscale>  2 0.49507832E+03</rscale>
<asrwt>0</asrwt>
<pdfrwt beam="1">  1       21 0.20244310E+00 0.49507832E+03</pdfrwt>
<pdfrwt beam="2">  1       21 0.42446968E-01 0.49507832E+03</pdfrwt>
<totfact> 0.55864090E+02</totfact>
</mgrwt>
</event>
<event>
 4    1  0.4703494E-002  0.5819992E+03  0.7818608E-02  0.9943472E-01
         21   -1    0    0  503  502  0.00000000000E+00  0.00000000000E+00  0.62993565459E+03  0.62993565459E+03  0.00000000000E+00 0. -1.
         21   -1    0    0  501  503 -0.00000000000E+00 -0.00000000000E+00 -0.54859064822E+03  0.54859064822E+03  0.00000000000E+00 0.  1.
    9000007    1    1    2  501    0  0.38237417140E+03  0.18031383827E+03 -0.42312616955E+02  0.58353529865E+03  0.40000000000E+03 0.  1.
   -9000007    1    1    2    0  502 -0.38237417140E+03 -0.18031383827E+03  0.12365762332E+03  0.59499100416E+03  0.40000000000E+03 0.  1.
<mgrwt>
<rscale>  2 0.58199922E+03</rscale>
<asrwt>0</asrwt>
<pdfrwt beam="1">  1       21 0.96913178E-01 0.58199922E+03</pdfrwt>
<pdfrwt beam="2">  1       21 0.84398561E-01 0.58199922E+03</pdfrwt>
<totfact> 0.87077575E+02</totfact>
</mgrwt>
</event>
<event>
 4    1  0.4703494E-002  0.5429709E+03  0.7818608E-02  0.1003134E+00
         21   -1    0    0  503  502  0.00000000000E+00  0.00000000000E+00  0.62912711095E+03  0.62912711095E+03  0.00000000000E+00 0. -1.
         21   -1    0    0  501  503 -0.00000000000E+00 -0.00000000000E+00 -0.91883301507E+03  0.91883301507E+03  0.00000000000E+00 0. -1.
    9000007    1    1    2  501    0  0.12517492461E+03  0.34517917633E+03 -0.68663381469E+03  0.87537615972E+03  0.40000000000E+03 0. -1.
   -9000007    1    1    2    0  502 -0.12517492461E+03 -0.34517917633E+03  0.39692791058E+03  0.67258396630E+03  0.40000000000E+03 0. -1.
<mgrwt>
<rscale>  2 0.54297093E+03</rscale>
<asrwt>0</asrwt>
<pdfrwt beam="1">  1       21 0.96788786E-01 0.54297093E+03</pdfrwt>
<pdfrwt beam="2">  1       21 0.14135893E+00 0.54297093E+03</pdfrwt>
<totfact> 0.24388054E+02</totfact>
</mgrwt>
</event>
<event>
 4    1  0.4703494E-002  0.5480201E+03  0.7818608E-02  0.1001953E+00
         21   -1    0    0  503  502  0.00000000000E+00  0.00000000000E+00  0.40746905868E+03  0.40746905868E+03  0.00000000000E+00 0.  1.
         21   -1    0    0  501  503 -0.00000000000E+00 -0.00000000000E+00 -0.73877193917E+03  0.73877193917E+03  0.00000000000E+00 0. -1.
    9000007    1    1    2  501    0  0.29792266991E+03 -0.22708601953E+03 -0.19330292851E+03  0.58111272545E+03  0.40000000000E+03 0. -1.
   -9000007    1    1    2    0  502 -0.29792266991E+03  0.22708601953E+03 -0.13799995198E+03  0.56512827239E+03  0.40000000000E+03 0. -1.
<mgrwt>
<rscale>  2 0.54802005E+03</rscale>
<asrwt>0</asrwt>
<pdfrwt beam="1">  1       21 0.62687548E-01 0.54802005E+03</pdfrwt>
<pdfrwt beam="2">  1       21 0.11365722E+00 0.54802005E+03</pdfrwt>
<totfact> 0.11701108E+03</totfact>
</mgrwt>
</event>
<event>
 4    1  0.4703494E-002  0.4203060E+03  0.7818608E-02  0.1036967E+00
         21   -1    0    0  503  502  0.00000000000E+00  0.00000000000E+00  0.33836959059E+03  0.33836959059E+03  0.00000000000E+00 0. -1.
         21   -1    0    0  501  503 -0.00000000000E+00 -0.00000000000E+00 -0.82472850036E+03  0.82472850036E+03  0.00000000000E+00 0. -1.
    9000007    1    1    2  501    0 -0.12589119386E+03 -0.28434859750E+02 -0.59546732970E+03  0.72886108051E+03  0.40000000000E+03 0. -1.
   -9000007    1    1    2    0  502  0.12589119386E+03  0.28434859750E+02  0.10910841993E+03  0.43423701045E+03  0.40000000000E+03 0. -1.
<mgrwt>
<rscale>  2 0.42030600E+03</rscale>
<asrwt>0</asrwt>
<pdfrwt beam="1">  1       21 0.52056861E-01 0.42030600E+03</pdfrwt>
<pdfrwt beam="2">  1       21 0.12688131E+00 0.42030600E+03</pdfrwt>
<totfact> 0.13904165E+03</totfact>
</mgrwt>
</event>
<event>
 4    1  0.4703494E-002  0.4994035E+03  0.7818608E-02  0.1013935E+00
         21   -1    0    0  503  502  0.00000000000E+00  0.00000000000E+00  0.18836117318E+03  0.18836117318E+03  0.00000000000E+00 0. -1.
         21   -1    0    0  501  503 -0.00000000000E+00 -0.00000000000E+00 -0.13243187030E+04  0.13243187030E+04  0.00000000000E+00 0.  1.
    9000007    1    1    2  501    0 -0.47962717436E+02 -0.29513291668E+03 -0.57829009064E+03  0.76408330024E+03  0.40000000000E+03 0.  1.
   -9000007    1    1    2    0  502  0.47962717436E+02  0.29513291668E+03 -0.55766743916E+03  0.74859657591E+03  0.40000000000E+03 0. -1.
<mgrwt>
<rscale>  2 0.49940350E+03</rscale>
<asrwt>0</asrwt>
<pdfrwt beam="1">  1       21 0.28978643E-01 0.49940350E+03</pdfrwt>
<pdfrwt beam="2">  1       21 0.20374133E+00 0.49940350E+03</pdfrwt>
<totfact> 0.11863982E+03</totfact>
</mgrwt>
</event>
<event>
 4    1  0.4703494E-002  0.4199141E+03  0.7818608E-02  0.1037094E+00
         21   -1    0    0  501  502  0.00000000000E+00  0.00000000000E+00  0.46184982004E+03  0.46184982004E+03  0.00000000000E+00 0.  1.
         21   -1    0    0  502  503 -0.00000000000E+00 -0.00000000000E+00 -0.38881418975E+03  0.38881418975E+03  0.00000000000E+00 0.  1.
    9000007    1    1    2  501    0  0.10231927424E+03 -0.76541548357E+02 -0.20666325322E+02  0.42042233469E+03  0.40000000000E+03 0.  1.
   -9000007    1    1    2    0  503 -0.10231927424E+03  0.76541548357E+02  0.93701955604E+02  0.43024167510E+03  0.40000000000E+03 0.  1.
<mgrwt>
<rscale>  2 0.41991409E+03</rscale>
<asrwt>0</asrwt>
<pdfrwt beam="1">  1       21 0.71053819E-01 0.41991409E+03</pdfrwt>
<pdfrwt beam="2">  1       21 0.59817568E-01 0.41991409E+03</pdfrwt>
<totfact> 0.41417398E+03</totfact>
</mgrwt>
</event>
<event>
 4    1  0.4703494E-002  0.1180126E+04  0.7818608E-02  0.9130433E-01
         21   -1    0    0  501  502  0.00000000000E+00  0.00000000000E+00  0.54790741640E+03  0.54790741640E+03  0.00000000000E+00 0.  1.
         21   -1    0    0  502  503 -0.00000000000E+00 -0.00000000000E+00 -0.29696860818E+04  0.29696860818E+04  0.00000000000E+00 0. -1.
    9000007    1    1    2  501    0  0.11068891706E+04 -0.86561074737E+02 -0.54331297289E+03  0.12991864540E+04  0.40000000000E+03 0.  1.
   -9000007    1    1    2    0  503 -0.11068891706E+04  0.86561074737E+02 -0.18784656925E+04  0.22184070442E+04  0.40000000000E+03 0. -1.
<mgrwt>
<rscale>  2 0.11801256E+04</rscale>
<asrwt>0</asrwt>
<pdfrwt beam="1">  1       21 0.84293450E-01 0.11801256E+04</pdfrwt>
<pdfrwt beam="2">  1       21 0.45687477E+00 0.11801256E+04</pdfrwt>
<totfact> 0.22386871E+00</totfact>
</mgrwt>
</event>
<event>
 4    1  0.4703494E-002  0.4443528E+03  0.7818608E-02  0.1029420E+00
         21   -1    0    0  503  502  0.00000000000E+00  0.00000000000E+00  0.31656861961E+03  0.31656861961E+03  0.00000000000E+00 0. -1.
         21   -1    0    0  501  503 -0.00000000000E+00 -0.00000000000E+00 -0.67182934550E+03  0.67182934550E+03  0.00000000000E+00 0. -1.
    9000007    1    1    2  501    0 -0.90310822466E+02 -0.17115313165E+03 -0.30988095992E+03  0.54173392773E+03  0.40000000000E+03 0. -1.
   -9000007    1    1    2    0  502  0.90310822466E+02  0.17115313165E+03 -0.45379765966E+02  0.44666403738E+03  0.40000000000E+03 0. -1.
<mgrwt>
<rscale>  2 0.44435283E+03</rscale>
<asrwt>0</asrwt>
<pdfrwt beam="1">  1       21 0.48702865E-01 0.44435283E+03</pdfrwt>
<pdfrwt beam="2">  1       21 0.10335836E+00 0.44435283E+03</pdfrwt>
<totfact> 0.26531275E+03</totfact>
</mgrwt>
</event>
<event>
 4    1  0.4703494E-002  0.4289635E+03  0.7818608E-02  0.1034188E+00
         21   -1    0    0  503  502  0.00000000000E+00  0.00000000000E+00  0.23026098376E+04  0.23026098376E+04  0.00000000000E+00 0.  1.
         21   -1    0    0  501  503 -0.00000000000E+00 -0.00000000000E+00 -0.13385093309E+03  0.13385093309E+03  0.00000000000E+00 0.  1.
    9000007    1    1    2  501    0 -0.15035799852E+02  0.15421948569E+03  0.31105157831E+03  0.52987055911E+03  0.40000000000E+03 0.  1.
   -9000007    1    1    2    0  502  0.15035799852E+02 -0.15421948569E+03  0.18577073262E+04  0.19065902116E+04  0.40000000000E+03 0.  1.
<mgrwt>
<rscale>  2 0.42896355E+03</rscale>
<asrwt>0</asrwt>
<pdfrwt beam="1">  1       21 0.35424764E+00 0.42896355E+03</pdfrwt>
<pdfrwt beam="2">  1       21 0.20592453E-01 0.42896355E+03</pdfrwt>
<totfact> 0.28362371E+02</totfact>
</mgrwt>
</event>
<event>
 4    1  0.4703494E-002  0.4171911E+03  0.7818608E-02  0.1037984E+00
         21   -1    0    0  501  502  0.00000000000E+00  0.00000000000E+00  0.53216980465E+03  0.53216980465E+03  0.00000000000E+00 0.  1.
         21   -1    0    0  502  503 -0.00000000000E+00 -0.00000000000E+00 -0.36357946560E+03  0.36357946560E+03  0.00000000000E+00 0.  1.
    9000007    1    1    2  501    0  0.51657631098E+02  0.10667643404E+03  0.22625107198E+03  0.47459237247E+03  0.40000000000E+03 0.  1.
   -9000007    1    1    2    0  503 -0.51657631098E+02 -0.10667643404E+03 -0.57660732925E+02  0.42115689778E+03  0.40000000000E+03 0.  1.
<mgrwt>
<rscale>  2 0.41719105E+03</rscale>
<asrwt>0</asrwt>
<pdfrwt beam="1">  1       21 0.81872277E-01 0.41719105E+03</pdfrwt>
<pdfrwt beam="2">  1       21 0.55935303E-01 0.41719105E+03</pdfrwt>
<totfact> 0.34701053E+03</totfact>
</mgrwt>
</event>
<event>
 4    1  0.4703494E-002  0.4532814E+03  0.7818608E-02  0.1026748E+00
         21   -1    0    0  501  502  0.00000000000E+00  0.00000000000E+00  0.22617088293E+03  0.22617088293E+03  0.00000000000E+00 0. -1.
         21   -1    0    0  502  503 -0.00000000000E+00 -0.00000000000E+00 -0.91038886091E+03  0.91038886091E+03  0.00000000000E+00 0. -1.
    9000007    1    1    2  501    0  0.21322218646E+03 -0.58220993397E+00 -0.36836125332E+03  0.58408394321E+03  0.40000000000E+03 0. -1.
   -9000007    1    1    2    0  503 -0.21322218646E+03  0.58220993397E+00 -0.31585672466E+03  0.55247580063E+03  0.40000000000E+03 0. -1.
<mgrwt>
<rscale>  2 0.45328141E+03</rscale>
<asrwt>0</asrwt>
<pdfrwt beam="1">  1       21 0.34795521E-01 0.45328141E+03</pdfrwt>
<pdfrwt beam="2">  1       21 0.14005982E+00 0.45328141E+03</pdfrwt>
<totfact> 0.24476113E+03</totfact>
</mgrwt>
</event>
<event>
 4    1  0.4703494E-002  0.5647826E+03  0.7818608E-02  0.9981291E-01
         21   -1    0    0  503  502  0.00000000000E+00  0.00000000000E+00  0.16542113857E+04  0.16542113857E+04  0.00000000000E+00 0. -1.
         21   -1    0    0  501  503 -0.00000000000E+00 -0.00000000000E+00 -0.25570884346E+03  0.25570884346E+03  0.00000000000E+00 0. -1.
    9000007    1    1    2  501    0 -0.37120163815E+03 -0.14556342851E+03  0.22569755090E+03  0.60820946422E+03  0.40000000000E+03 0. -1.
   -9000007    1    1    2    0  502  0.37120163815E+03  0.14556342851E+03  0.11728049913E+04  0.13017107649E+04  0.40000000000E+03 0. -1.
<mgrwt>
<rscale>  2 0.56478258E+03</rscale>
<asrwt>0</asrwt>
<pdfrwt beam="1">  1       21 0.25449405E+00 0.56478258E+03</pdfrwt>
<pdfrwt beam="2">  1       21 0.39339823E-01 0.56478258E+03</pdfrwt>
<totfact> 0.29556179E+02</totfact>
</mgrwt>
</event>
<event>
 4    1  0.4703494E-002  0.4203996E+03  0.7818608E-02  0.1036936E+00
         21   -1    0    0  501  502  0.00000000000E+00  0.00000000000E+00  0.14221438200E+04  0.14221438200E+04  0.00000000000E+00 0.  1.
         21   -1    0    0  502  503 -0.00000000000E+00 -0.00000000000E+00 -0.50785323520E+03  0.50785323520E+03  0.00000000000E+00 0.  1.
    9000007    1    1    2  501    0  0.11701943697E+03 -0.55156925179E+02  0.12958034014E+04  0.13622930265E+04  0.40000000000E+03 0.  1.
   -9000007    1    1    2    0  503 -0.11701943697E+03  0.55156925179E+02 -0.38151281656E+03  0.56770402872E+03  0.40000000000E+03 0.  1.
<mgrwt>
<rscale>  2 0.42039961E+03</rscale>
<asrwt>0</asrwt>
<pdfrwt beam="1">  1       21 0.21879136E+00 0.42039961E+03</pdfrwt>
<pdfrwt beam="2">  1       21 0.78131267E-01 0.42039961E+03</pdfrwt>
<totfact> 0.12015485E+02</totfact>
</mgrwt>
</event>
<event>
 4    1  0.4703494E-002  0.4455241E+03  0.7818608E-02  0.1029065E+00
         21   -1    0    0  503  502  0.00000000000E+00  0.00000000000E+00  0.87303701289E+03  0.87303701289E+03  0.00000000000E+00 0.  1.
         21   -1    0    0  501  503 -0.00000000000E+00 -0.00000000000E+00 -0.41477604954E+03  0.41477604954E+03  0.00000000000E+00 0.  1.
    9000007    1    1    2  501    0  0.10521631950E+03 -0.16559365270E+03 -0.20370413836E+03  0.48988479022E+03  0.40000000000E+03 0.  1.
   -9000007    1    1    2    0  502 -0.10521631950E+03  0.16559365270E+03  0.66196510171E+03  0.79792827221E+03  0.40000000000E+03 0.  1.
<mgrwt>
<rscale>  2 0.44552411E+03</rscale>
<asrwt>0</asrwt>
<pdfrwt beam="1">  1       21 0.13431339E+00 0.44552411E+03</pdfrwt>
<pdfrwt beam="2">  1       21 0.63811700E-01 0.44552411E+03</pdfrwt>
<totfact> 0.76198332E+02</totfact>
</mgrwt>
</event>
<event>
 4    1  0.4703494E-002  0.4652447E+03  0.7818608E-02  0.1023271E+00
         21   -1    0    0  501  502  0.00000000000E+00  0.00000000000E+00  0.64943829276E+03  0.64943829276E+03  0.00000000000E+00 0. -1.
         21   -1    0    0  502  503 -0.00000000000E+00 -0.00000000000E+00 -0.38099552181E+03  0.38099552181E+03  0.00000000000E+00 0. -1.
    9000007    1    1    2  501    0  0.60222504890E+02  0.22983872761E+03  0.31652923527E+03  0.56271071394E+03  0.40000000000E+03 0. -1.
   -9000007    1    1    2    0  503 -0.60222504890E+02 -0.22983872761E+03 -0.48086464324E+02  0.46772310062E+03  0.40000000000E+03 0. -1.
<mgrwt>
<rscale>  2 0.46524466E+03</rscale>
<asrwt>0</asrwt>
<pdfrwt beam="1">  1       21 0.99913583E-01 0.46524466E+03</pdfrwt>
<pdfrwt beam="2">  1       21 0.58614696E-01 0.46524466E+03</pdfrwt>
<totfact> 0.19206102E+03</totfact>
</mgrwt>
</event>
<event>
 4    1  0.4703494E-002  0.4069337E+03  0.7818608E-02  0.1041405E+00
         21   -1    0    0  503  502  0.00000000000E+00  0.00000000000E+00  0.30016399379E+03  0.30016399379E+03  0.00000000000E+00 0. -1.
         21   -1    0    0  501  503 -0.00000000000E+00 -0.00000000000E+00 -0.14581953658E+04  0.14581953658E+04  0.00000000000E+00 0. -1.
    9000007    1    1    2  501    0 -0.31081645507E+02  0.68036586447E+02 -0.12722130652E+04  0.13357099719E+04  0.40000000000E+03 0. -1.
   -9000007    1    1    2    0  502  0.31081645507E+02 -0.68036586447E+02  0.11418169325E+03  0.42264938762E+03  0.40000000000E+03 0. -1.
<mgrwt>
<rscale>  2 0.40693371E+03</rscale>
<asrwt>0</asrwt>
<pdfrwt beam="1">  1       21 0.46179075E-01 0.40693371E+03</pdfrwt>
<pdfrwt beam="2">  1       21 0.22433775E+00 0.40693371E+03</pdfrwt>
<totfact> 0.35340054E+02</totfact>
</mgrwt>
</event>
<event>
 4    1  0.4703494E-002  0.5069826E+03  0.7818608E-02  0.1011972E+00
         21   -1    0    0  503  502  0.00000000000E+00  0.00000000000E+00  0.16737595046E+04  0.16737595046E+04  0.00000000000E+00 0. -1.
         21   -1    0    0  501  503 -0.00000000000E+00 -0.00000000000E+00 -0.16365606289E+03  0.16365606289E+03  0.00000000000E+00 0.  1.
    9000007    1    1    2  501    0 -0.29437315052E+03  0.10186144975E+03  0.52692597835E+03  0.73121972987E+03  0.40000000000E+03 0.  1.
   -9000007    1    1    2    0  502  0.29437315052E+03 -0.10186144975E+03  0.98317746340E+03  0.11061958376E+04  0.40000000000E+03 0. -1.
<mgrwt>
<rscale>  2 0.50698255E+03</rscale>
<asrwt>0</asrwt>
<pdfrwt beam="1">  1       21 0.25750145E+00 0.50698255E+03</pdfrwt>
<pdfrwt beam="2">  1       21 0.25177857E-01 0.50698255E+03</pdfrwt>
<totfact> 0.71129820E+02</totfact>
</mgrwt>
</event>
<event>
 4    1  0.4703494E-002  0.5482569E+03  0.7818608E-02  0.1001898E+00
         21   -1    0    0  501  502  0.00000000000E+00  0.00000000000E+00  0.32327710159E+03  0.32327710159E+03  0.00000000000E+00 0.  1.
         21   -1    0    0  502  503 -0.00000000000E+00 -0.00000000000E+00 -0.93430071195E+03  0.93430071195E+03  0.00000000000E+00 0. -1.
    9000007    1    1    2  501    0  0.31846084143E+03  0.19790989225E+03 -0.34911478425E+03  0.64997443455E+03  0.40000000000E+03 0. -1.
   -9000007    1    1    2    0  503 -0.31846084143E+03 -0.19790989225E+03 -0.26190882610E+03  0.60760337900E+03  0.40000000000E+03 0.  1.
<mgrwt>
<rscale>  2 0.54825690E+03</rscale>
<asrwt>0</asrwt>
<pdfrwt beam="1">  1       21 0.49734939E-01 0.54825690E+03</pdfrwt>
<pdfrwt beam="2">  1       21 0.14373857E+00 0.54825690E+03</pdfrwt>
<totfact> 0.10508067E+03</totfact>
</mgrwt>
</event>
<event>
 4    1  0.4703494E-002  0.4602195E+03  0.7818608E-02  0.1024718E+00
         21   -1    0    0  503  502  0.00000000000E+00  0.00000000000E+00  0.29276052885E+03  0.29276052885E+03  0.00000000000E+00 0.  1.
         21   -1    0    0  501  503 -0.00000000000E+00 -0.00000000000E+00 -0.73690853853E+03  0.73690853853E+03  0.00000000000E+00 0.  1.
    9000007    1    1    2  501    0 -0.64714837557E+02 -0.21820624214E+03 -0.29161147253E+03  0.54482953776E+03  0.40000000000E+03 0.  1.
   -9000007    1    1    2    0  502  0.64714837557E+02  0.21820624214E+03 -0.15253653715E+03  0.48483952961E+03  0.40000000000E+03 0.  1.
<mgrwt>
<rscale>  2 0.46021948E+03</rscale>
<asrwt>0</asrwt>
<pdfrwt beam="1">  1       21 0.45040081E-01 0.46021948E+03</pdfrwt>
<pdfrwt beam="2">  1       21 0.11337055E+00 0.46021948E+03</pdfrwt>
<totfact> 0.24740546E+03</totfact>
</mgrwt>
</event>
<event>
 4    1  0.4703494E-002  0.4008061E+03  0.7818608E-02  0.1043501E+00
         21   -1    0    0  503  502  0.00000000000E+00  0.00000000000E+00  0.18077241433E+03  0.18077241433E+03  0.00000000000E+00 0.  1.
         21   -1    0    0  501  503 -0.00000000000E+00 -0.00000000000E+00 -0.10824787754E+04  0.10824787754E+04  0.00000000000E+00 0.  1.
    9000007    1    1    2  501    0  0.18124337130E+02 -0.17805175062E+02 -0.71812063389E+03  0.82240060838E+03  0.40000000000E+03 0.  1.
   -9000007    1    1    2    0  502 -0.18124337130E+02  0.17805175062E+02 -0.18358572720E+03  0.44085058136E+03  0.40000000000E+03 0.  1.
<mgrwt>
<rscale>  2 0.40080608E+03</rscale>
<asrwt>0</asrwt>
<pdfrwt beam="1">  1       21 0.27811141E-01 0.40080608E+03</pdfrwt>
<pdfrwt beam="2">  1       21 0.16653520E+00 0.40080608E+03</pdfrwt>
<totfact> 0.24352594E+03</totfact>
</mgrwt>
</event>
<event>
 4    1  0.4703494E-002  0.5317466E+03  0.7818608E-02  0.1005809E+00
         21   -1    0    0  503  502  0.00000000000E+00  0.00000000000E+00  0.63204479792E+03  0.63204479792E+03  0.00000000000E+00 0.  1.
         21   -1    0    0  501  503 -0.00000000000E+00 -0.00000000000E+00 -0.46037639469E+03  0.46037639469E+03  0.00000000000E+00 0.  1.
    9000007    1    1    2  501    0 -0.20440299521E+03  0.28455915535E+03  0.17766141999E+03  0.56064077402E+03  0.40000000000E+03 0.  1.
   -9000007    1    1    2    0  502  0.20440299521E+03 -0.28455915535E+03 -0.59930167702E+01  0.53178041859E+03  0.40000000000E+03 0.  1.
<mgrwt>
<rscale>  2 0.53174665E+03</rscale>
<asrwt>0</asrwt>
<pdfrwt beam="1">  1       21 0.97237661E-01 0.53174665E+03</pdfrwt>
<pdfrwt beam="2">  1       21 0.70827138E-01 0.53174665E+03</pdfrwt>
<totfact> 0.13156047E+03</totfact>
</mgrwt>
</event>
<event>
 4    1  0.4703494E-002  0.4685391E+03  0.7818608E-02  0.1022333E+00
         21   -1    0    0  501  502  0.00000000000E+00  0.00000000000E+00  0.60968597374E+03  0.60968597374E+03  0.00000000000E+00 0.  1.
         21   -1    0    0  502  503 -0.00000000000E+00 -0.00000000000E+00 -0.36621328037E+03  0.36621328037E+03  0.00000000000E+00 0.  1.
    9000007    1    1    2  501    0 -0.17380981246E+03 -0.17122804050E+03  0.18494124959E+03  0.50371833256E+03  0.40000000000E+03 0.  1.
   -9000007    1    1    2    0  503  0.17380981246E+03  0.17122804050E+03  0.58531443783E+02  0.47218092155E+03  0.40000000000E+03 0.  1.
<mgrwt>
<rscale>  2 0.46853910E+03</rscale>
<asrwt>0</asrwt>
<pdfrwt beam="1">  1       21 0.93797842E-01 0.46853910E+03</pdfrwt>
<pdfrwt beam="2">  1       21 0.56340505E-01 0.46853910E+03</pdfrwt>
<totfact> 0.24346502E+03</totfact>
</mgrwt>
</event>
<event>
 4    1  0.4703494E-002  0.5111798E+03  0.7818608E-02  0.1010901E+00
         21   -1    0    0  503  502  0.00000000000E+00  0.00000000000E+00  0.59900048266E+03  0.59900048266E+03  0.00000000000E+00 0. -1.
         21   -1    0    0  501  503 -0.00000000000E+00 -0.00000000000E+00 -0.47292296629E+03  0.47292296629E+03  0.00000000000E+00 0. -1.
    9000007    1    1    2  501    0  0.16405503918E+03 -0.27274657981E+03 -0.86241574673E+02  0.51840366692E+03  0.40000000000E+03 0. -1.
   -9000007    1    1    2    0  502 -0.16405503918E+03  0.27274657981E+03  0.21231909104E+03  0.55351978203E+03  0.40000000000E+03 0. -1.
<mgrwt>
<rscale>  2 0.51117977E+03</rscale>
<asrwt>0</asrwt>
<pdfrwt beam="1">  1       21 0.92153920E-01 0.51117977E+03</pdfrwt>
<pdfrwt beam="2">  1       21 0.72757380E-01 0.51117977E+03</pdfrwt>
<totfact> 0.14180006E+03</totfact>
</mgrwt>
</event>
<event>
 4    1  0.4703494E-002  0.7053070E+03  0.7818608E-02  0.9708199E-01
         21   -1    0    0  503  502  0.00000000000E+00  0.00000000000E+00  0.88595160699E+03  0.88595160699E+03  0.00000000000E+00 0.  1.
         21   -1    0    0  501  503 -0.00000000000E+00 -0.00000000000E+00 -0.63782737957E+03  0.63782737957E+03  0.00000000000E+00 0.  1.
    9000007    1    1    2  501    0  0.37822278675E+03  0.44091431563E+03  0.38763040452E+03  0.80480757990E+03  0.40000000000E+03 0.  1.
   -9000007    1    1    2    0  502 -0.37822278675E+03 -0.44091431563E+03 -0.13950617710E+03  0.71897140666E+03  0.40000000000E+03 0.  1.
<mgrwt>
<rscale>  2 0.70530696E+03</rscale>
<asrwt>0</asrwt>
<pdfrwt beam="1">  1       21 0.13630025E+00 0.70530696E+03</pdfrwt>
<pdfrwt beam="2">  1       21 0.98127289E-01 0.70530696E+03</pdfrwt>
<totfact> 0.24568514E+02</totfact>
</mgrwt>
</event>
<event>
 4    1  0.4703494E-002  0.4247387E+03  0.7818608E-02  0.1035535E+00
         21   -1    0    0  503  502  0.00000000000E+00  0.00000000000E+00  0.10207683060E+03  0.10207683060E+03  0.00000000000E+00 0. -1.
         21   -1    0    0  501  503 -0.00000000000E+00 -0.00000000000E+00 -0.17819524109E+04  0.17819524109E+04  0.00000000000E+00 0.  1.
    9000007    1    1    2  501    0 -0.47049215586E+02 -0.13486790550E+03 -0.92528447082E+03  0.10181131237E+04  0.40000000000E+03 0.  1.
   -9000007    1    1    2    0  502  0.47049215586E+02  0.13486790550E+03 -0.75459110947E+03  0.86591611783E+03  0.40000000000E+03 0. -1.
<mgrwt>
<rscale>  2 0.42473872E+03</rscale>
<asrwt>0</asrwt>
<pdfrwt beam="1">  1       21 0.15704128E-01 0.42473872E+03</pdfrwt>
<pdfrwt beam="2">  1       21 0.27414653E+00 0.42473872E+03</pdfrwt>
<totfact> 0.14416886E+03</totfact>
</mgrwt>
</event>
<event>
 4    1  0.4703494E-002  0.4293353E+03  0.7818608E-02  0.1034070E+00
         21   -1    0    0  503  502  0.00000000000E+00  0.00000000000E+00  0.33433579386E+03  0.33433579386E+03  0.00000000000E+00 0.  1.
         21   -1    0    0  501  503 -0.00000000000E+00 -0.00000000000E+00 -0.59177206228E+03  0.59177206228E+03  0.00000000000E+00 0. -1.
    9000007    1    1    2  501    0  0.14487129511E+03  0.57802481246E+02 -0.24977225284E+03  0.49670413455E+03  0.40000000000E+03 0. -1.
   -9000007    1    1    2    0  502 -0.14487129511E+03 -0.57802481246E+02 -0.76640155748E+01  0.42940372160E+03  0.40000000000E+03 0.  1.
<mgrwt>
<rscale>  2 0.42933532E+03</rscale>
<asrwt>0</asrwt>
<pdfrwt beam="1">  1       21 0.51436276E-01 0.42933532E+03</pdfrwt>
<pdfrwt beam="2">  1       21 0.91041855E-01 0.42933532E+03</pdfrwt>
<totfact> 0.32248928E+03</totfact>
</mgrwt>
</event>
<event>
 4    1  0.4703494E-002  0.7814405E+03  0.7818608E-02  0.9587277E-01
         21   -1    0    0  501  502  0.00000000000E+00  0.00000000000E+00  0.35832143043E+03  0.35832143043E+03  0.00000000000E+00 0. -1.
         21   -1    0    0  502  503 -0.00000000000E+00 -0.00000000000E+00 -0.23464828240E+04  0.23464828240E+04  0.00000000000E+00 0.  1.
    9000007    1    1    2  501    0  0.26476325012E+03  0.61688710359E+03 -0.28652229023E+03  0.83231262154E+03  0.40000000000E+03 0.  1.
   -9000007    1    1    2    0  503 -0.26476325012E+03 -0.61688710359E+03 -0.17016391033E+04  0.18724916329E+04  0.40000000000E+03 0.  1.
<mgrwt>
<rscale>  2 0.78144051E+03</rscale>
<asrwt>0</asrwt>
<pdfrwt beam="1">  1       21 0.55126376E-01 0.78144051E+03</pdfrwt>
<pdfrwt beam="2">  1       21 0.36099734E+00 0.78144051E+03</pdfrwt>
<totfact> 0.29098701E+01</totfact>
</mgrwt>
</event>
<event>
 4    1  0.4703494E-002  0.4067903E+03  0.7818608E-02  0.1041453E+00
         21   -1    0    0  503  502  0.00000000000E+00  0.00000000000E+00  0.73213220275E+02  0.73213220275E+02  0.00000000000E+00 0. -1.
         21   -1    0    0  501  503 -0.00000000000E+00 -0.00000000000E+00 -0.24204463281E+04  0.24204463281E+04  0.00000000000E+00 0. -1.
    9000007    1    1    2  501    0  0.58075921010E+02 -0.45886081033E+02 -0.85282737747E+03  0.94487717762E+03  0.40000000000E+03 0. -1.
   -9000007    1    1    2    0  502 -0.58075921010E+02  0.45886081033E+02 -0.14944057304E+04  0.15487823708E+04  0.40000000000E+03 0. -1.
<mgrwt>
<rscale>  2 0.40679030E+03</rscale>
<asrwt>0</asrwt>
<pdfrwt beam="1">  1       21 0.11263573E-01 0.40679030E+03</pdfrwt>
<pdfrwt beam="2">  1       21 0.37237632E+00 0.40679030E+03</pdfrwt>
<totfact> 0.68123971E+02</totfact>
</mgrwt>
</event>
<event>
 4    1  0.4703494E-002  0.4062338E+03  0.7818608E-02  0.1041642E+00
         21   -1    0    0  503  502  0.00000000000E+00  0.00000000000E+00  0.91842854478E+03  0.91842854478E+03  0.00000000000E+00 0.  1.
         21   -1    0    0  501  503 -0.00000000000E+00 -0.00000000000E+00 -0.26368484912E+03  0.26368484912E+03  0.00000000000E+00 0.  1.
    9000007    1    1    2  501    0 -0.43348205938E+02  0.56096494804E+02 -0.62321864479E+01  0.40628158195E+03  0.40000000000E+03 0.  1.
   -9000007    1    1    2    0  502  0.43348205938E+02 -0.56096494804E+02  0.66097588211E+03  0.77583181194E+03  0.40000000000E+03 0.  1.
<mgrwt>
<rscale>  2 0.40623378E+03</rscale>
<asrwt>0</asrwt>
<pdfrwt beam="1">  1       21 0.14129670E+00 0.40623378E+03</pdfrwt>
<pdfrwt beam="2">  1       21 0.40566900E-01 0.40623378E+03</pdfrwt>
<totfact> 0.17820827E+03</totfact>
</mgrwt>
</event>
<event>
 4    1  0.4703494E-002  0.5586985E+03  0.7818608E-02  0.9995004E-01
         21   -1    0    0  501  502  0.00000000000E+00  0.00000000000E+00  0.10740620600E+03  0.10740620600E+03  0.00000000000E+00 0.  1.
         21   -1    0    0  502  503 -0.00000000000E+00 -0.00000000000E+00 -0.31261325043E+04  0.31261325043E+04  0.00000000000E+00 0.  1.
    9000007    1    1    2  501    0  0.36897514752E+03 -0.12649651805E+03 -0.10805302941E+04  0.12164249854E+04  0.40000000000E+03 0.  1.
   -9000007    1    1    2    0  503 -0.36897514752E+03  0.12649651805E+03 -0.19381960043E+04  0.20171137250E+04  0.40000000000E+03 0.  1.
<mgrwt>
<rscale>  2 0.55869851E+03</rscale>
<asrwt>0</asrwt>
<pdfrwt beam="1">  1       21 0.16524035E-01 0.55869851E+03</pdfrwt>
<pdfrwt beam="2">  1       21 0.48094337E+00 0.55869851E+03</pdfrwt>
<totfact> 0.58503570E+01</totfact>
</mgrwt>
</event>
<event>
 4    1  0.4703494E-002  0.4100617E+03  0.7818608E-02  0.1040350E+00
         21   -1    0    0  503  502  0.00000000000E+00  0.00000000000E+00  0.35880555962E+03  0.35880555962E+03  0.00000000000E+00 0.  1.
         21   -1    0    0  501  503 -0.00000000000E+00 -0.00000000000E+00 -0.68132982743E+03  0.68132982743E+03  0.00000000000E+00 0.  1.
    9000007    1    1    2  501    0 -0.22636702123E+02 -0.87396502345E+02 -0.45183478103E+03  0.61016820489E+03  0.40000000000E+03 0.  1.
   -9000007    1    1    2    0  502  0.22636702123E+02  0.87396502345E+02  0.12931051323E+03  0.42996718216E+03  0.40000000000E+03 0.  1.
<mgrwt>
<rscale>  2 0.41006166E+03</rscale>
<asrwt>0</asrwt>
<pdfrwt beam="1">  1       21 0.55200856E-01 0.41006166E+03</pdfrwt>
<pdfrwt beam="2">  1       21 0.10481997E+00 0.41006166E+03</pdfrwt>
<totfact> 0.19879290E+03</totfact>
</mgrwt>
</event>
<event>
 4    1  0.4703494E-002  0.7230234E+03  0.7818608E-02  0.9678650E-01
         21   -1    0    0  501  502  0.00000000000E+00  0.00000000000E+00  0.57212260508E+03  0.57212260508E+03  0.00000000000E+00 0. -1.
         21   -1    0    0  502  503 -0.00000000000E+00 -0.00000000000E+00 -0.13218581397E+04  0.13218581397E+04  0.00000000000E+00 0.  1.
    9000007    1    1    2  501    0 -0.34620353677E+03  0.49285486120E+03  0.15133605511E+03  0.73869168444E+03  0.40000000000E+03 0. -1.
   -9000007    1    1    2    0  503  0.34620353677E+03 -0.49285486120E+03 -0.90107158969E+03  0.11552890603E+04  0.40000000000E+03 0.  1.
<mgrwt>
<rscale>  2 0.72302338E+03</rscale>
<asrwt>0</asrwt>
<pdfrwt beam="1">  1       21 0.88018863E-01 0.72302338E+03</pdfrwt>
<pdfrwt beam="2">  1       21 0.20336279E+00 0.72302338E+03</pdfrwt>
<totfact> 0.10002856E+02</totfact>
</mgrwt>
</event>
<event>
 4    1  0.4703494E-002  0.5715936E+03  0.7818608E-02  0.9966158E-01
         21   -1    0    0  503  502  0.00000000000E+00  0.00000000000E+00  0.13381345182E+04  0.13381345182E+04  0.00000000000E+00 0.  1.
         21   -1    0    0  501  503 -0.00000000000E+00 -0.00000000000E+00 -0.24915903666E+03  0.24915903666E+03  0.00000000000E+00 0.  1.
    9000007    1    1    2  501    0  0.31532808106E+03  0.25939816027E+03  0.65690241285E+03  0.87076976537E+03  0.40000000000E+03 0.  1.
   -9000007    1    1    2    0  502 -0.31532808106E+03 -0.25939816027E+03  0.43207306872E+03  0.71652378954E+03  0.40000000000E+03 0.  1.
<mgrwt>
<rscale>  2 0.57159357E+03</rscale>
<asrwt>0</asrwt>
<pdfrwt beam="1">  1       21 0.20586684E+00 0.57159357E+03</pdfrwt>
<pdfrwt beam="2">  1       21 0.38332161E-01 0.57159357E+03</pdfrwt>
<totfact> 0.63481240E+02</totfact>
</mgrwt>
</event>
<event>
 4    1  0.4703494E-002  0.4789751E+03  0.7818608E-02  0.1019417E+00
         21   -1    0    0  501  502  0.00000000000E+00  0.00000000000E+00  0.50960139456E+03  0.50960139456E+03  0.00000000000E+00 0.  1.
         21   -1    0    0  502  503 -0.00000000000E+00 -0.00000000000E+00 -0.48873240031E+03  0.48873240031E+03  0.00000000000E+00 0.  1.
    9000007    1    1    2  501    0  0.11014246688E+03  0.23934439463E+03 -0.12974466344E+03  0.49623661689E+03  0.40000000000E+03 0. -1.
   -9000007    1    1    2    0  503 -0.11014246688E+03 -0.23934439463E+03  0.15061365770E+03  0.50209717798E+03  0.40000000000E+03 0. -1.
<mgrwt>
<rscale>  2 0.47897505E+03</rscale>
<asrwt>0</asrwt>
<pdfrwt beam="1">  1       21 0.78400215E-01 0.47897505E+03</pdfrwt>
<pdfrwt beam="2">  1       21 0.75189600E-01 0.47897505E+03</pdfrwt>
<totfact> 0.19436536E+03</totfact>
</mgrwt>
</event>
<event>
 4    1  0.4703494E-002  0.4351008E+03  0.7818608E-02  0.1032261E+00
         21   -1    0    0  501  502  0.00000000000E+00  0.00000000000E+00  0.40524844870E+03  0.40524844870E+03  0.00000000000E+00 0.  1.
         21   -1    0    0  502  503 -0.00000000000E+00 -0.00000000000E+00 -0.49268925049E+03  0.49268925049E+03  0.00000000000E+00 0.  1.
    9000007    1    1    2  501    0 -0.14315847626E+03 -0.93906000790E+02  0.58494782597E+02  0.43901517730E+03  0.40000000000E+03 0.  1.
   -9000007    1    1    2    0  503  0.14315847626E+03  0.93906000790E+02 -0.14593558439E+03  0.45892252189E+03  0.40000000000E+03 0.  1.
<mgrwt>
<rscale>  2 0.43510078E+03</rscale>
<asrwt>0</asrwt>
<pdfrwt beam="1">  1       21 0.62345915E-01 0.43510078E+03</pdfrwt>
<pdfrwt beam="2">  1       21 0.75798346E-01 0.43510078E+03</pdfrwt>
<totfact> 0.32480602E+03</totfact>
</mgrwt>
</event>
<event>
 4    1  0.4703494E-002  0.6274039E+03  0.7818608E-02  0.9850128E-01
         21   -1    0    0  501  502  0.00000000000E+00  0.00000000000E+00  0.76528861575E+03  0.76528861575E+03  0.00000000000E+00 0. -1.
         21   -1    0    0  502  503 -0.00000000000E+00 -0.00000000000E+00 -0.64902624560E+03  0.64902624560E+03  0.00000000000E+00 0. -1.
    9000007    1    1    2  501    0  0.25664469151E+03  0.40959626580E+03  0.38024598274E+03  0.73363656263E+03  0.40000000000E+03 0. -1.
   -9000007    1    1    2    0  503 -0.25664469151E+03 -0.40959626580E+03 -0.26398361258E+03  0.68067829872E+03  0.40000000000E+03 0. -1.
<mgrwt>
<rscale>  2 0.62740386E+03</rscale>
<asrwt>0</asrwt>
<pdfrwt beam="1">  1       21 0.11773671E+00 0.62740386E+03</pdfrwt>
<pdfrwt beam="2">  1       21 0.99850192E-01 0.62740386E+03</pdfrwt>
<totfact> 0.35356157E+02</totfact>
</mgrwt>
</event>
<event>
 4    1  0.4703494E-002  0.1233557E+04  0.7818608E-02  0.9083981E-01
         21   -1    0    0  503  502  0.00000000000E+00  0.00000000000E+00  0.82901120032E+03  0.82901120032E+03  0.00000000000E+00 0.  1.
         21   -1    0    0  501  503 -0.00000000000E+00 -0.00000000000E+00 -0.21550065333E+04  0.21550065333E+04  0.00000000000E+00 0. -1.
    9000007    1    1    2  501    0 -0.77001881695E+03 -0.87677502663E+03 -0.12374791310E+04  0.17472887642E+04  0.40000000000E+03 0. -1.
   -9000007    1    1    2    0  502  0.77001881695E+03  0.87677502663E+03 -0.88516201958E+02  0.12367289694E+04  0.40000000000E+03 0.  1.
<mgrwt>
<rscale>  2 0.12335572E+04</rscale>
<asrwt>0</asrwt>
<pdfrwt beam="1">  1       21 0.12754019E+00 0.12335572E+04</pdfrwt>
<pdfrwt beam="2">  1       21 0.33153946E+00 0.12335572E+04</pdfrwt>
<totfact> 0.51950699E+00</totfact>
</mgrwt>
</event>
<event>
 4    1  0.4703494E-002  0.4653949E+03  0.7818608E-02  0.1023228E+00
         21   -1    0    0  501  502  0.00000000000E+00  0.00000000000E+00  0.15925448084E+04  0.15925448084E+04  0.00000000000E+00 0.  1.
         21   -1    0    0  502  503 -0.00000000000E+00 -0.00000000000E+00 -0.16474149267E+03  0.16474149267E+03  0.00000000000E+00 0. -1.
    9000007    1    1    2  501    0 -0.16573866237E+03  0.17065481192E+03  0.34692713254E+03  0.58047463711E+03  0.40000000000E+03 0. -1.
   -9000007    1    1    2    0  503  0.16573866237E+03 -0.17065481192E+03  0.10808761831E+04  0.11768116639E+04  0.40000000000E+03 0.  1.
<mgrwt>
<rscale>  2 0.46539485E+03</rscale>
<asrwt>0</asrwt>
<pdfrwt beam="1">  1       21 0.24500688E+00 0.46539485E+03</pdfrwt>
<pdfrwt beam="2">  1       21 0.25344846E-01 0.46539485E+03</pdfrwt>
<totfact> 0.85490742E+02</totfact>
</mgrwt>
</event>
<event>
 4    1  0.4703494E-002  0.4827417E+03  0.7818608E-02  0.1018384E+00
         21   -1    0    0  503  502  0.00000000000E+00  0.00000000000E+00  0.67503968959E+03  0.67503968959E+03  0.00000000000E+00 0. -1.
         21   -1    0    0  501  503 -0.00000000000E+00 -0.00000000000E+00 -0.41546881044E+03  0.41546881044E+03  0.00000000000E+00 0. -1.
    9000007    1    1    2  501    0 -0.26901169521E+03 -0.25927056808E+02  0.35398708122E+03  0.59862037896E+03  0.40000000000E+03 0. -1.
   -9000007    1    1    2    0  502  0.26901169521E+03  0.25927056808E+02 -0.94416202077E+02  0.49188812107E+03  0.40000000000E+03 0. -1.
<mgrwt>
<rscale>  2 0.48274165E+03</rscale>
<asrwt>0</asrwt>
<pdfrwt beam="1">  1       21 0.10385226E+00 0.48274165E+03</pdfrwt>
<pdfrwt beam="2">  1       21 0.63918279E-01 0.48274165E+03</pdfrwt>
<totfact> 0.14343947E+03</totfact>
</mgrwt>
</event>
<event>
 4    1  0.4703494E-002  0.4412550E+03  0.7818608E-02  0.1030362E+00
         21   -1    0    0  503  502  0.00000000000E+00  0.00000000000E+00  0.78587549278E+03  0.78587549278E+03  0.00000000000E+00 0. -1.
         21   -1    0    0  501  503 -0.00000000000E+00 -0.00000000000E+00 -0.25016226493E+03  0.25016226493E+03  0.00000000000E+00 0.  1.
    9000007    1    1    2  501    0  0.18591814243E+03 -0.11849758682E+02  0.31865349572E+03  0.54428487284E+03  0.40000000000E+03 0. -1.
   -9000007    1    1    2    0  502 -0.18591814243E+03  0.11849758682E+02  0.21705973213E+03  0.49175288487E+03  0.40000000000E+03 0. -1.
<mgrwt>
<rscale>  2 0.44125500E+03</rscale>
<asrwt>0</asrwt>
<pdfrwt beam="1">  1       21 0.12090392E+00 0.44125500E+03</pdfrwt>
<pdfrwt beam="2">  1       21 0.38486503E-01 0.44125500E+03</pdfrwt>
<totfact> 0.29348455E+03</totfact>
</mgrwt>
</event>
<event>
 4    1  0.4703494E-002  0.4106949E+03  0.7818608E-02  0.1040138E+00
         21   -1    0    0  501  502  0.00000000000E+00  0.00000000000E+00  0.44426412258E+03  0.44426412258E+03  0.00000000000E+00 0. -1.
         21   -1    0    0  502  503 -0.00000000000E+00 -0.00000000000E+00 -0.80233457245E+03  0.80233457245E+03  0.00000000000E+00 0. -1.
    9000007    1    1    2  501    0 -0.48275772049E+02 -0.79622459195E+02  0.27336296552E+03  0.49335342007E+03  0.40000000000E+03 0. -1.
   -9000007    1    1    2    0  503  0.48275772049E+02  0.79622459195E+02 -0.63143341539E+03  0.75324527496E+03  0.40000000000E+03 0. -1.
<mgrwt>
<rscale>  2 0.41069488E+03</rscale>
<asrwt>0</asrwt>
<pdfrwt beam="1">  1       21 0.68348327E-01 0.41069488E+03</pdfrwt>
<pdfrwt beam="2">  1       21 0.12343609E+00 0.41069488E+03</pdfrwt>
<totfact> 0.82644801E+02</totfact>
</mgrwt>
</event>
<event>
 4    1  0.4703494E-002  0.4066489E+03  0.7818608E-02  0.1041501E+00
         21   -1    0    0  503  502  0.00000000000E+00  0.00000000000E+00  0.10694908225E+03  0.10694908225E+03  0.00000000000E+00 0.  1.
         21   -1    0    0  501  503 -0.00000000000E+00 -0.00000000000E+00 -0.15809332991E+04  0.15809332991E+04  0.00000000000E+00 0. -1.
    9000007    1    1    2  501    0  0.56501806964E+01 -0.73016390211E+02 -0.86210657165E+03  0.95320042943E+03  0.40000000000E+03 0.  1.
   -9000007    1    1    2    0  502 -0.56501806964E+01  0.73016390211E+02 -0.61187764517E+03  0.73468195189E+03  0.40000000000E+03 0. -1.
<mgrwt>
<rscale>  2 0.40664889E+03</rscale>
<asrwt>0</asrwt>
<pdfrwt beam="1">  1       21 0.16453706E-01 0.40664889E+03</pdfrwt>
<pdfrwt beam="2">  1       21 0.24322049E+00 0.40664889E+03</pdfrwt>
<totfact> 0.20570423E+03</totfact>
</mgrwt>
</event>
<event>
 4    1  0.4703494E-002  0.4170674E+03  0.7818608E-02  0.1038025E+00
         21   -1    0    0  503  502  0.00000000000E+00  0.00000000000E+00  0.27548497617E+03  0.27548497617E+03  0.00000000000E+00 0.  1.
         21   -1    0    0  501  503 -0.00000000000E+00 -0.00000000000E+00 -0.63954965241E+03  0.63954965241E+03  0.00000000000E+00 0.  1.
    9000007    1    1    2  501    0 -0.44691565999E+02  0.10930650990E+03 -0.23363229093E+03  0.47804737898E+03  0.40000000000E+03 0.  1.
   -9000007    1    1    2    0  502  0.44691565999E+02 -0.10930650990E+03 -0.13043238530E+03  0.43698724960E+03  0.40000000000E+03 0.  1.
<mgrwt>
<rscale>  2 0.41706744E+03</rscale>
<asrwt>0</asrwt>
<pdfrwt beam="1">  1       21 0.42382305E-01 0.41706744E+03</pdfrwt>
<pdfrwt beam="2">  1       21 0.98392253E-01 0.41706744E+03</pdfrwt>
<totfact> 0.40430649E+03</totfact>
</mgrwt>
</event>
<event>
 4    1  0.4703494E-002  0.4145467E+03  0.7818608E-02  0.1038856E+00
         21   -1    0    0  501  502  0.00000000000E+00  0.00000000000E+00  0.15820783063E+04  0.15820783063E+04  0.00000000000E+00 0. -1.
         21   -1    0    0  502  503 -0.00000000000E+00 -0.00000000000E+00 -0.14431889621E+03  0.14431889621E+03  0.00000000000E+00 0. -1.
    9000007    1    1    2  501    0 -0.45886785437E+02 -0.98708582885E+02  0.28957806905E+03  0.50567226490E+03  0.40000000000E+03 0. -1.
   -9000007    1    1    2    0  503  0.45886785437E+02  0.98708582885E+02  0.11481813411E+04  0.12207249377E+04  0.40000000000E+03 0. -1.
<mgrwt>
<rscale>  2 0.41454672E+03</rscale>
<asrwt>0</asrwt>
<pdfrwt beam="1">  1       21 0.24339665E+00 0.41454672E+03</pdfrwt>
<pdfrwt beam="2">  1       21 0.22202908E-01 0.41454672E+03</pdfrwt>
<totfact> 0.11592300E+03</totfact>
</mgrwt>
</event>
<event>
 4    1  0.4703494E-002  0.4417060E+03  0.7818608E-02  0.1030225E+00
         21   -1    0    0  501  502  0.00000000000E+00  0.00000000000E+00  0.65557693582E+03  0.65557693582E+03  0.00000000000E+00 0.  1.
         21   -1    0    0  502  503 -0.00000000000E+00 -0.00000000000E+00 -0.31250808924E+03  0.31250808924E+03  0.00000000000E+00 0. -1.
    9000007    1    1    2  501    0  0.16826665794E+03 -0.82404461884E+02  0.27723189186E+03  0.52149945865E+03  0.40000000000E+03 0. -1.
   -9000007    1    1    2    0  503 -0.16826665794E+03  0.82404461884E+02  0.65836954719E+02  0.44658556640E+03  0.40000000000E+03 0. -1.
<mgrwt>
<rscale>  2 0.44170597E+03</rscale>
<asrwt>0</asrwt>
<pdfrwt beam="1">  1       21 0.10085799E+00 0.44170597E+03</pdfrwt>
<pdfrwt beam="2">  1       21 0.48078168E-01 0.44170597E+03</pdfrwt>
<totfact> 0.28977772E+03</totfact>
</mgrwt>
</event>
<event>
 4    1  0.4703494E-002  0.5370318E+03  0.7818608E-02  0.1004541E+00
         21   -1    0    0  501  502  0.00000000000E+00  0.00000000000E+00  0.94115292334E+03  0.94115292334E+03  0.00000000000E+00 0.  1.
         21   -1    0    0  502  503 -0.00000000000E+00 -0.00000000000E+00 -0.32432783380E+03  0.32432783380E+03  0.00000000000E+00 0. -1.
    9000007    1    1    2  501    0  0.46616306311E+02  0.35528867357E+03  0.15979808448E+03  0.56030219470E+03  0.40000000000E+03 0.  1.
   -9000007    1    1    2    0  503 -0.46616306311E+02 -0.35528867357E+03  0.45702700505E+03  0.70517856244E+03  0.40000000000E+03 0. -1.
<mgrwt>
<rscale>  2 0.53703177E+03</rscale>
<asrwt>0</asrwt>
<pdfrwt beam="1">  1       21 0.14479276E+00 0.53703177E+03</pdfrwt>
<pdfrwt beam="2">  1       21 0.49896590E-01 0.53703177E+03</pdfrwt>
<totfact> 0.10271432E+03</totfact>
</mgrwt>
</event>
<event>
 4    1  0.4703494E-002  0.4446524E+03  0.7818608E-02  0.1029329E+00
         21   -1    0    0  501  502  0.00000000000E+00  0.00000000000E+00  0.76563849603E+02  0.76563849603E+02  0.00000000000E+00 0.  1.
         21   -1    0    0  502  503 -0.00000000000E+00 -0.00000000000E+00 -0.26580286448E+04  0.26580286448E+04  0.00000000000E+00 0.  1.
    9000007    1    1    2  501    0  0.18055886863E+03  0.71514163982E+02 -0.10600431506E+04  0.11495247983E+04  0.40000000000E+03 0.  1.
   -9000007    1    1    2    0  503 -0.18055886863E+03 -0.71514163982E+02 -0.15214216446E+04  0.15850676961E+04  0.40000000000E+03 0.  1.
<mgrwt>
<rscale>  2 0.44465243E+03</rscale>
<asrwt>0</asrwt>
<pdfrwt beam="1">  1       21 0.11779053E-01 0.44465243E+03</pdfrwt>
<pdfrwt beam="2">  1       21 0.40892751E+00 0.44465243E+03</pdfrwt>
<totfact> 0.35914732E+02</totfact>
</mgrwt>
</event>
<event>
 4    1  0.4703494E-002  0.4537724E+03  0.7818608E-02  0.1026603E+00
         21   -1    0    0  503  502  0.00000000000E+00  0.00000000000E+00  0.16803029039E+04  0.16803029039E+04  0.00000000000E+00 0.  1.
         21   -1    0    0  501  503 -0.00000000000E+00 -0.00000000000E+00 -0.17412698800E+03  0.17412698800E+03  0.00000000000E+00 0. -1.
    9000007    1    1    2  501    0  0.36792797738E+02 -0.21108225507E+03  0.24842124234E+03  0.51732247391E+03  0.40000000000E+03 0. -1.
   -9000007    1    1    2    0  502 -0.36792797738E+02  0.21108225507E+03  0.12577546736E+04  0.13371074180E+04  0.40000000000E+03 0.  1.
<mgrwt>
<rscale>  2 0.45377244E+03</rscale>
<asrwt>0</asrwt>
<pdfrwt beam="1">  1       21 0.25850813E+00 0.45377244E+03</pdfrwt>
<pdfrwt beam="2">  1       21 0.26788769E-01 0.45377244E+03</pdfrwt>
<totfact> 0.63756227E+02</totfact>
</mgrwt>
</event>
<event>
 4    1  0.4703494E-002  0.7852381E+03  0.7818608E-02  0.9581634E-01
         21   -1    0    0  501  502  0.00000000000E+00  0.00000000000E+00  0.55448172874E+03  0.55448172874E+03  0.00000000000E+00 0.  1.
         21   -1    0    0  502  503 -0.00000000000E+00 -0.00000000000E+00 -0.11202117615E+04  0.11202117615E+04  0.00000000000E+00 0.  1.
    9000007    1    1    2  501    0 -0.54019857198E+03  0.40593635253E+03 -0.21129183231E+03  0.81316852981E+03  0.40000000000E+03 0.  1.
   -9000007    1    1    2    0  503  0.54019857198E+03 -0.40593635253E+03 -0.35443820040E+03  0.86152496039E+03  0.40000000000E+03 0.  1.
<mgrwt>
<rscale>  2 0.78523807E+03</rscale>
<asrwt>0</asrwt>
<pdfrwt beam="1">  1       21 0.85304883E-01 0.78523807E+03</pdfrwt>
<pdfrwt beam="2">  1       21 0.17234027E+00 0.78523807E+03</pdfrwt>
<totfact> 0.17472027E+02</totfact>
</mgrwt>
</event>
<event>
 4    1  0.4703494E-002  0.5212389E+03  0.7818608E-02  0.1008379E+00
         21   -1    0    0  501  502  0.00000000000E+00  0.00000000000E+00  0.81936183888E+03  0.81936183888E+03  0.00000000000E+00 0.  1.
         21   -1    0    0  502  503 -0.00000000000E+00 -0.00000000000E+00 -0.38142109426E+03  0.38142109426E+03  0.00000000000E+00 0. -1.
    9000007    1    1    2  501    0  0.24250738754E+02 -0.33331946598E+03  0.43598760191E+03  0.67954039891E+03  0.40000000000E+03 0.  1.
   -9000007    1    1    2    0  503 -0.24250738754E+02  0.33331946598E+03  0.19531427149E+01  0.52124253424E+03  0.40000000000E+03 0. -1.
<mgrwt>
<rscale>  2 0.52123887E+03</rscale>
<asrwt>0</asrwt>
<pdfrwt beam="1">  1       21 0.12605567E+00 0.52123887E+03</pdfrwt>
<pdfrwt beam="2">  1       21 0.58680169E-01 0.52123887E+03</pdfrwt>
<totfact> 0.10490168E+03</totfact>
</mgrwt>
</event>
<event>
 4    1  0.4703494E-002  0.5997333E+03  0.7818608E-02  0.9905959E-01
         21   -1    0    0  501  502  0.00000000000E+00  0.00000000000E+00  0.12854146647E+04  0.12854146647E+04  0.00000000000E+00 0.  1.
         21   -1    0    0  502  503 -0.00000000000E+00 -0.00000000000E+00 -0.33196238619E+03  0.33196238619E+03  0.00000000000E+00 0.  1.
    9000007    1    1    2  501    0 -0.51523321932E+02 -0.44387544637E+03  0.79724044044E+03  0.99763339182E+03  0.40000000000E+03 0.  1.
   -9000007    1    1    2    0  503  0.51523321932E+02  0.44387544637E+03  0.15621183805E+03  0.61974365905E+03  0.40000000000E+03 0.  1.
<mgrwt>
<rscale>  2 0.59973333E+03</rscale>
<asrwt>0</asrwt>
<pdfrwt beam="1">  1       21 0.19775610E+00 0.59973333E+03</pdfrwt>
<pdfrwt beam="2">  1       21 0.51071137E-01 0.59973333E+03</pdfrwt>
<totfact> 0.38958152E+02</totfact>
</mgrwt>
</event>
<event>
 4    1  0.4703494E-002  0.4420550E+03  0.7818608E-02  0.1030118E+00
         21   -1    0    0  501  502  0.00000000000E+00  0.00000000000E+00  0.72646273669E+03  0.72646273669E+03  0.00000000000E+00 0.  1.
         21   -1    0    0  502  503 -0.00000000000E+00 -0.00000000000E+00 -0.62180003854E+03  0.62180003854E+03  0.00000000000E+00 0. -1.
    9000007    1    1    2  501    0  0.18547404913E+03 -0.31812337965E+02  0.56012635591E+03  0.71355040630E+03  0.40000000000E+03 0.  1.
   -9000007    1    1    2    0  503 -0.18547404913E+03  0.31812337965E+02 -0.45546365776E+03  0.63471236894E+03  0.40000000000E+03 0. -1.
<mgrwt>
<rscale>  2 0.44205503E+03</rscale>
<asrwt>0</asrwt>
<pdfrwt beam="1">  1       21 0.11176350E+00 0.44205503E+03</pdfrwt>
<pdfrwt beam="2">  1       21 0.95661545E-01 0.44205503E+03</pdfrwt>
<totfact> 0.48041874E+02</totfact>
</mgrwt>
</event>
<event>
 4    1  0.4703494E-002  0.4240130E+03  0.7818608E-02  0.1035768E+00
         21   -1    0    0  501  502  0.00000000000E+00  0.00000000000E+00  0.69820840009E+03  0.69820840009E+03  0.00000000000E+00 0. -1.
         21   -1    0    0  502  503 -0.00000000000E+00 -0.00000000000E+00 -0.26665391759E+03  0.26665391759E+03  0.00000000000E+00 0. -1.
    9000007    1    1    2  501    0 -0.85722134914E+02 -0.11152907997E+03  0.30517377428E+03  0.52241559376E+03  0.40000000000E+03 0. -1.
   -9000007    1    1    2    0  503  0.85722134914E+02  0.11152907997E+03  0.12638070821E+03  0.44244672391E+03  0.40000000000E+03 0. -1.
<mgrwt>
<rscale>  2 0.42401300E+03</rscale>
<asrwt>0</asrwt>
<pdfrwt beam="1">  1       21 0.10741668E+00 0.42401300E+03</pdfrwt>
<pdfrwt beam="2">  1       21 0.41023680E-01 0.42401300E+03</pdfrwt>
<totfact> 0.34812603E+03</totfact>
</mgrwt>
</event>
<event>
 4    1  0.4703494E-002  0.5986382E+03  0.7818608E-02  0.9908235E-01
         21   -1    0    0  503  502  0.00000000000E+00  0.00000000000E+00  0.82784324485E+03  0.82784324485E+03  0.00000000000E+00 0.  1.
         21   -1    0    0  501  503 -0.00000000000E+00 -0.00000000000E+00 -0.61125967202E+03  0.61125967202E+03  0.00000000000E+00 0.  1.
    9000007    1    1    2  501    0  0.34864026958E+03 -0.27715988963E+03 -0.28040030020E+03  0.66105368189E+03  0.40000000000E+03 0.  1.
   -9000007    1    1    2    0  502 -0.34864026958E+03  0.27715988963E+03  0.49698387303E+03  0.77804923497E+03  0.40000000000E+03 0.  1.
<mgrwt>
<rscale>  2 0.59863816E+03</rscale>
<asrwt>0</asrwt>
<pdfrwt beam="1">  1       21 0.12736050E+00 0.59863816E+03</pdfrwt>
<pdfrwt beam="2">  1       21 0.94039949E-01 0.59863816E+03</pdfrwt>
<totfact> 0.33710235E+02</totfact>
</mgrwt>
</event>
<event>
 4    1  0.4703494E-002  0.4610161E+03  0.7818608E-02  0.1024487E+00
         21   -1    0    0  501  502  0.00000000000E+00  0.00000000000E+00  0.10371301866E+03  0.10371301866E+03  0.00000000000E+00 0. -1.
         21   -1    0    0  502  503 -0.00000000000E+00 -0.00000000000E+00 -0.23262723690E+04  0.23262723690E+04  0.00000000000E+00 0. -1.
    9000007    1    1    2  501    0 -0.22091948267E+03 -0.61077089088E+02 -0.69201694892E+03  0.83151866259E+03  0.40000000000E+03 0. -1.
   -9000007    1    1    2    0  503  0.22091948267E+03  0.61077089088E+02 -0.15305424014E+04  0.15984667251E+04  0.40000000000E+03 0. -1.
<mgrwt>
<rscale>  2 0.46101608E+03</rscale>
<asrwt>0</asrwt>
<pdfrwt beam="1">  1       21 0.15955849E-01 0.46101608E+03</pdfrwt>
<pdfrwt beam="2">  1       21 0.35788806E+00 0.46101608E+03</pdfrwt>
<totfact> 0.42697730E+02</totfact>
</mgrwt>
</event>
<event>
 4    1  0.4703494E-002  0.4818960E+03  0.7818608E-02  0.1018615E+00
         21   -1    0    0  503  502  0.00000000000E+00  0.00000000000E+00  0.11324009757E+04  0.11324009757E+04  0.00000000000E+00 0.  1.
         21   -1    0    0  501  503 -0.00000000000E+00 -0.00000000000E+00 -0.32385390211E+03  0.32385390211E+03  0.00000000000E+00 0.  1.
    9000007    1    1    2  501    0  0.19784664964E+03 -0.18188035365E+03 -0.36695325966E+02  0.48329112010E+03  0.40000000000E+03 0.  1.
   -9000007    1    1    2    0  502 -0.19784664964E+03  0.18188035365E+03  0.84524239951E+03  0.97296375767E+03  0.40000000000E+03 0.  1.
<mgrwt>
<rscale>  2 0.48189601E+03</rscale>
<asrwt>0</asrwt>
<pdfrwt beam="1">  1       21 0.17421553E+00 0.48189601E+03</pdfrwt>
<pdfrwt beam="2">  1       21 0.49823678E-01 0.48189601E+03</pdfrwt>
<totfact> 0.62835953E+02</totfact>
</mgrwt>
</event>
<event>
 4    1  0.4703494E-002  0.4984427E+03  0.7818608E-02  0.1014186E+00
         21   -1    0    0  501  502  0.00000000000E+00  0.00000000000E+00  0.21480496011E+03  0.21480496011E+03  0.00000000000E+00 0.  1.
         21   -1    0    0  502  503 -0.00000000000E+00 -0.00000000000E+00 -0.17055525699E+04  0.17055525699E+04  0.00000000000E+00 0.  1.
    9000007    1    1    2  501    0  0.15189836594E+03  0.25567949680E+03 -0.20064063726E+03  0.53730976538E+03  0.40000000000E+03 0.  1.
   -9000007    1    1    2    0  503 -0.15189836594E+03 -0.25567949680E+03 -0.12901069726E+04  0.13830477647E+04  0.40000000000E+03 0.  1.
<mgrwt>
<rscale>  2 0.49844269E+03</rscale>
<asrwt>0</asrwt>
<pdfrwt beam="1">  1       21 0.33046918E-01 0.49844269E+03</pdfrwt>
<pdfrwt beam="2">  1       21 0.26239269E+00 0.49844269E+03</pdfrwt>
<totfact> 0.38875211E+02</totfact>
</mgrwt>
</event>
<event>
 4    1  0.4703494E-002  0.5587510E+03  0.7818608E-02  0.9994885E-01
         21   -1    0    0  503  502  0.00000000000E+00  0.00000000000E+00  0.31339885697E+04  0.31339885697E+04  0.00000000000E+00 0.  1.
         21   -1    0    0  501  503 -0.00000000000E+00 -0.00000000000E+00 -0.13064972919E+03  0.13064972919E+03  0.00000000000E+00 0.  1.
    9000007    1    1    2  501    0  0.25459680368E+03  0.29560640653E+03  0.70614858403E+03  0.90047126703E+03  0.40000000000E+03 0.  1.
   -9000007    1    1    2    0  502 -0.25459680368E+03 -0.29560640653E+03  0.22971902564E+04  0.23641670318E+04  0.40000000000E+03 0.  1.
<mgrwt>
<rscale>  2 0.55875100E+03</rscale>
<asrwt>0</asrwt>
<pdfrwt beam="1">  1       21 0.48215203E+00 0.55875100E+03</pdfrwt>
<pdfrwt beam="2">  1       21 0.20099961E-01 0.55875100E+03</pdfrwt>
<totfact> 0.39579590E+01</totfact>
</mgrwt>
</event>
<event>
 4    1  0.4703494E-002  0.4167197E+03  0.7818608E-02  0.1038139E+00
         21   -1    0    0  501  502  0.00000000000E+00  0.00000000000E+00  0.16648950083E+03  0.16648950083E+03  0.00000000000E+00 0. -1.
         21   -1    0    0  502  503 -0.00000000000E+00 -0.00000000000E+00 -0.12516202070E+04  0.12516202070E+04  0.00000000000E+00 0. -1.
    9000007    1    1    2  501    0  0.97471449642E+02  0.64456604753E+02 -0.25311152655E+03  0.48756618244E+03  0.40000000000E+03 0. -1.
   -9000007    1    1    2    0  503 -0.97471449642E+02 -0.64456604753E+02 -0.83201917963E+03  0.93054352540E+03  0.40000000000E+03 0. -1.
<mgrwt>
<rscale>  2 0.41671973E+03</rscale>
<asrwt>0</asrwt>
<pdfrwt beam="1">  1       21 0.25613769E-01 0.41671973E+03</pdfrwt>
<pdfrwt beam="2">  1       21 0.19255696E+00 0.41671973E+03</pdfrwt>
<totfact> 0.18627780E+03</totfact>
</mgrwt>
</event>
<event>
 4    1  0.4703494E-002  0.4187286E+03  0.7818608E-02  0.1037481E+00
         21   -1    0    0  501  502  0.00000000000E+00  0.00000000000E+00  0.12759008063E+03  0.12759008063E+03  0.00000000000E+00 0. -1.
         21   -1    0    0  502  503 -0.00000000000E+00 -0.00000000000E+00 -0.13845159709E+04  0.13845159709E+04  0.00000000000E+00 0.  1.
    9000007    1    1    2  501    0 -0.12105078113E+03  0.26083989265E+02 -0.69374007190E+03  0.81031410790E+03  0.40000000000E+03 0. -1.
   -9000007    1    1    2    0  503  0.12105078113E+03 -0.26083989265E+02 -0.56318581835E+03  0.70179194360E+03  0.40000000000E+03 0. -1.
<mgrwt>
<rscale>  2 0.41872863E+03</rscale>
<asrwt>0</asrwt>
<pdfrwt beam="1">  1       21 0.19629242E-01 0.41872863E+03</pdfrwt>
<pdfrwt beam="2">  1       21 0.21300247E+00 0.41872863E+03</pdfrwt>
<totfact> 0.22736967E+03</totfact>
</mgrwt>
</event>
<event>
 4    1  0.4703494E-002  0.6331856E+03  0.7818608E-02  0.9838852E-01
         21   -1    0    0  503  502  0.00000000000E+00  0.00000000000E+00  0.10500101901E+04  0.10500101901E+04  0.00000000000E+00 0. -1.
         21   -1    0    0  501  503 -0.00000000000E+00 -0.00000000000E+00 -0.63238078485E+03  0.63238078485E+03  0.00000000000E+00 0. -1.
    9000007    1    1    2  501    0 -0.32536018358E+03 -0.36751157190E+03 -0.32067391641E+03  0.70975753973E+03  0.40000000000E+03 0. -1.
   -9000007    1    1    2    0  502  0.32536018358E+03  0.36751157190E+03  0.73830332164E+03  0.97263343521E+03  0.40000000000E+03 0. -1.
<mgrwt>
<rscale>  2 0.63318560E+03</rscale>
<asrwt>0</asrwt>
<pdfrwt beam="1">  1       21 0.16154003E+00 0.63318560E+03</pdfrwt>
<pdfrwt beam="2">  1       21 0.97289352E-01 0.63318560E+03</pdfrwt>
<totfact> 0.16115082E+02</totfact>
</mgrwt>
</event>
<event>
 4    1  0.4703494E-002  0.4470255E+03  0.7818608E-02  0.1028613E+00
         21   -1    0    0  501  502  0.00000000000E+00  0.00000000000E+00  0.22699547594E+03  0.22699547594E+03  0.00000000000E+00 0.  1.
         21   -1    0    0  502  503 -0.00000000000E+00 -0.00000000000E+00 -0.11596811587E+04  0.11596811587E+04  0.00000000000E+00 0.  1.
    9000007    1    1    2  501    0  0.17043637053E+03  0.10384238927E+03 -0.12605364764E+03  0.46445809315E+03  0.40000000000E+03 0.  1.
   -9000007    1    1    2    0  503 -0.17043637053E+03 -0.10384238927E+03 -0.80663203516E+03  0.92221854154E+03  0.40000000000E+03 0.  1.
<mgrwt>
<rscale>  2 0.44702550E+03</rscale>
<asrwt>0</asrwt>
<pdfrwt beam="1">  1       21 0.34922381E-01 0.44702550E+03</pdfrwt>
<pdfrwt beam="2">  1       21 0.17841248E+00 0.44702550E+03</pdfrwt>
<totfact> 0.12444507E+03</totfact>
</mgrwt>
</event>
<event>
 4    1  0.4703494E-002  0.4388194E+03  0.7818608E-02  0.1031110E+00
         21   -1    0    0  503  502  0.00000000000E+00  0.00000000000E+00  0.13554556952E+03  0.13554556952E+03  0.00000000000E+00 0. -1.
         21   -1    0    0  501  503 -0.00000000000E+00 -0.00000000000E+00 -0.16451131898E+04  0.16451131898E+04  0.00000000000E+00 0.  1.
    9000007    1    1    2  501    0  0.13774761864E+03  0.11656795306E+03 -0.10836563830E+04  0.11691337180E+04  0.40000000000E+03 0.  1.
   -9000007    1    1    2    0  502 -0.13774761864E+03 -0.11656795306E+03 -0.42591123722E+03  0.61152504128E+03  0.40000000000E+03 0. -1.
<mgrwt>
<rscale>  2 0.43881943E+03</rscale>
<asrwt>0</asrwt>
<pdfrwt beam="1">  1       21 0.20853164E-01 0.43881943E+03</pdfrwt>
<pdfrwt beam="2">  1       21 0.25309434E+00 0.43881943E+03</pdfrwt>
<totfact> 0.11256023E+03</totfact>
</mgrwt>
</event>
<event>
 4    1  0.4703494E-002  0.4040593E+03  0.7818608E-02  0.1042383E+00
         21   -1    0    0  501  502  0.00000000000E+00  0.00000000000E+00  0.15973330111E+03  0.15973330111E+03  0.00000000000E+00 0.  1.
         21   -1    0    0  502  503 -0.00000000000E+00 -0.00000000000E+00 -0.18149577142E+04  0.18149577142E+04  0.00000000000E+00 0. -1.
    9000007    1    1    2  501    0  0.53360577768E+02  0.20410768988E+02 -0.17503395679E+03  0.44034172728E+03  0.40000000000E+03 0.  1.
   -9000007    1    1    2    0  503 -0.53360577768E+02 -0.20410768988E+02 -0.14801904563E+04  0.15343492880E+04  0.40000000000E+03 0. -1.
<mgrwt>
<rscale>  2 0.40405934E+03</rscale>
<asrwt>0</asrwt>
<pdfrwt beam="1">  1       21 0.24574353E-01 0.40405934E+03</pdfrwt>
<pdfrwt beam="2">  1       21 0.27922428E+00 0.40405934E+03</pdfrwt>
<totfact> 0.58140184E+02</totfact>
</mgrwt>
</event>
<event>
 4    1  0.4703494E-002  0.4682914E+03  0.7818608E-02  0.1022404E+00
         21   -1    0    0  503  502  0.00000000000E+00  0.00000000000E+00  0.79889549697E+03  0.79889549697E+03  0.00000000000E+00 0. -1.
         21   -1    0    0  501  503 -0.00000000000E+00 -0.00000000000E+00 -0.30110745168E+03  0.30110745168E+03  0.00000000000E+00 0. -1.
    9000007    1    1    2  501    0  0.76642958821E+02 -0.23113356939E+03  0.85399137772E+02  0.47601458251E+03  0.40000000000E+03 0. -1.
   -9000007    1    1    2    0  502 -0.76642958821E+02  0.23113356939E+03  0.41238890752E+03  0.62398836614E+03  0.40000000000E+03 0. -1.
<mgrwt>
<rscale>  2 0.46829144E+03</rscale>
<asrwt>0</asrwt>
<pdfrwt beam="1">  1       21 0.12290700E+00 0.46829144E+03</pdfrwt>
<pdfrwt beam="2">  1       21 0.46324224E-01 0.46829144E+03</pdfrwt>
<totfact> 0.18957924E+03</totfact>
</mgrwt>
</event>
<event>
 4    1  0.4703494E-002  0.5614518E+03  0.7818608E-02  0.9988775E-01
         21   -1    0    0  503  502  0.00000000000E+00  0.00000000000E+00  0.64510223369E+03  0.64510223369E+03  0.00000000000E+00 0.  1.
         21   -1    0    0  501  503 -0.00000000000E+00 -0.00000000000E+00 -0.48889284483E+03  0.48889284483E+03  0.00000000000E+00 0. -1.
    9000007    1    1    2  501    0  0.14914591272E+03  0.36466915211E+03  0.90786340999E+02  0.56874445360E+03  0.40000000000E+03 0. -1.
   -9000007    1    1    2    0  502 -0.14914591272E+03 -0.36466915211E+03  0.65423047857E+02  0.56525062492E+03  0.40000000000E+03 0. -1.
<mgrwt>
<rscale>  2 0.56145177E+03</rscale>
<asrwt>0</asrwt>
<pdfrwt beam="1">  1       21 0.99246497E-01 0.56145177E+03</pdfrwt>
<pdfrwt beam="2">  1       21 0.75214284E-01 0.56145177E+03</pdfrwt>
<totfact> 0.10810564E+03</totfact>
</mgrwt>
</event>
<event>
 4    1  0.4703494E-002  0.5944211E+03  0.7818608E-02  0.9917049E-01
         21   -1    0    0  503  502  0.00000000000E+00  0.00000000000E+00  0.56227539912E+03  0.56227539912E+03  0.00000000000E+00 0.  1.
         21   -1    0    0  501  503 -0.00000000000E+00 -0.00000000000E+00 -0.77870172809E+03  0.77870172809E+03  0.00000000000E+00 0. -1.
    9000007    1    1    2  501    0  0.42478177793E+03  0.11356432933E+03  0.18635189272E+03  0.62294738436E+03  0.40000000000E+03 0.  1.
   -9000007    1    1    2    0  502 -0.42478177793E+03 -0.11356432933E+03 -0.40277822169E+03  0.71802974286E+03  0.40000000000E+03 0. -1.
<mgrwt>
<rscale>  2 0.59442108E+03</rscale>
<asrwt>0</asrwt>
<pdfrwt beam="1">  1       21 0.86503907E-01 0.59442108E+03</pdfrwt>
<pdfrwt beam="2">  1       21 0.11980027E+00 0.59442108E+03</pdfrwt>
<totfact> 0.48271634E+02</totfact>
</mgrwt>
</event>
<event>
 4    1  0.4703494E-002  0.4051533E+03  0.7818608E-02  0.1042010E+00
         21   -1    0    0  503  502  0.00000000000E+00  0.00000000000E+00  0.14039252649E+03  0.14039252649E+03  0.00000000000E+00 0.  1.
         21   -1    0    0  501  503 -0.00000000000E+00 -0.00000000000E+00 -0.14634891057E+04  0.14634891057E+04  0.00000000000E+00 0.  1.
    9000007    1    1    2  501    0  0.56404016481E+02  0.31108862229E+02 -0.10211509786E+04  0.10985893206E+04  0.40000000000E+03 0.  1.
   -9000007    1    1    2    0  502 -0.56404016481E+02 -0.31108862229E+02 -0.30194560066E+03  0.50529231158E+03  0.40000000000E+03 0.  1.
<mgrwt>
<rscale>  2 0.40515327E+03</rscale>
<asrwt>0</asrwt>
<pdfrwt beam="1">  1       21 0.21598851E-01 0.40515327E+03</pdfrwt>
<pdfrwt beam="2">  1       21 0.22515216E+00 0.40515327E+03</pdfrwt>
<totfact> 0.15956001E+03</totfact>
</mgrwt>
</event>
<event>
 4    1  0.4703494E-002  0.4229224E+03  0.7818608E-02  0.1036119E+00
         21   -1    0    0  503  502  0.00000000000E+00  0.00000000000E+00  0.42615212925E+03  0.42615212925E+03  0.00000000000E+00 0.  1.
         21   -1    0    0  501  503 -0.00000000000E+00 -0.00000000000E+00 -0.15227771211E+04  0.15227771211E+04  0.00000000000E+00 0. -1.
    9000007    1    1    2  501    0 -0.35501282777E+02 -0.13267644644E+03 -0.13776808461E+04  0.14411342388E+04  0.40000000000E+03 0. -1.
   -9000007    1    1    2    0  502  0.35501282777E+02  0.13267644644E+03  0.28105585427E+03  0.50779501153E+03  0.40000000000E+03 0.  1.
<mgrwt>
<rscale>  2 0.42292243E+03</rscale>
<asrwt>0</asrwt>
<pdfrwt beam="1">  1       21 0.65561866E-01 0.42292243E+03</pdfrwt>
<pdfrwt beam="2">  1       21 0.23427340E+00 0.42292243E+03</pdfrwt>
<totfact> 0.14236779E+02</totfact>
</mgrwt>
</event>
<event>
 4    1  0.4703494E-002  0.4471695E+03  0.7818608E-02  0.1028570E+00
         21   -1    0    0  501  502  0.00000000000E+00  0.00000000000E+00  0.25500967669E+03  0.25500967669E+03  0.00000000000E+00 0.  1.
         21   -1    0    0  502  503 -0.00000000000E+00 -0.00000000000E+00 -0.78418030544E+03  0.78418030544E+03  0.00000000000E+00 0.  1.
    9000007    1    1    2  501    0  0.15811817420E+03  0.12230772098E+03 -0.26877961648E+03  0.52173079060E+03  0.40000000000E+03 0.  1.
   -9000007    1    1    2    0  503 -0.15811817420E+03 -0.12230772098E+03 -0.26039101227E+03  0.51745919153E+03  0.40000000000E+03 0.  1.
<mgrwt>
<rscale>  2 0.44716947E+03</rscale>
<asrwt>0</asrwt>
<pdfrwt beam="1">  1       21 0.39232259E-01 0.44716947E+03</pdfrwt>
<pdfrwt beam="2">  1       21 0.12064312E+00 0.44716947E+03</pdfrwt>
<totfact> 0.28309750E+03</totfact>
</mgrwt>
</event>
<event>
 4    1  0.4703494E-002  0.4207111E+03  0.7818608E-02  0.1036835E+00
         21   -1    0    0  503  502  0.00000000000E+00  0.00000000000E+00  0.41945240747E+03  0.41945240747E+03  0.00000000000E+00 0.  1.
         21   -1    0    0  501  503 -0.00000000000E+00 -0.00000000000E+00 -0.81733836613E+03  0.81733836613E+03  0.00000000000E+00 0.  1.
    9000007    1    1    2  501    0  0.11608481755E+03  0.59347349491E+02 -0.62903793125E+03  0.75676053789E+03  0.40000000000E+03 0.  1.
   -9000007    1    1    2    0  502 -0.11608481755E+03 -0.59347349491E+02  0.23115197259E+03  0.48003023571E+03  0.40000000000E+03 0.  1.
<mgrwt>
<rscale>  2 0.42071106E+03</rscale>
<asrwt>0</asrwt>
<pdfrwt beam="1">  1       21 0.64531139E-01 0.42071106E+03</pdfrwt>
<pdfrwt beam="2">  1       21 0.12574436E+00 0.42071106E+03</pdfrwt>
<totfact> 0.89158430E+02</totfact>
</mgrwt>
</event>
<event>
 4    1  0.4703494E-002  0.5049090E+03  0.7818608E-02  0.1012505E+00
         21   -1    0    0  503  502  0.00000000000E+00  0.00000000000E+00  0.14017872634E+04  0.14017872634E+04  0.00000000000E+00 0. -1.
         21   -1    0    0  501  503 -0.00000000000E+00 -0.00000000000E+00 -0.23008658074E+03  0.23008658074E+03  0.00000000000E+00 0. -1.
    9000007    1    1    2  501    0 -0.13939023843E+03 -0.27477887187E+03  0.21230681476E+03  0.54772917632E+03  0.40000000000E+03 0. -1.
   -9000007    1    1    2    0  502  0.13939023843E+03  0.27477887187E+03  0.95939386790E+03  0.10841446678E+04  0.40000000000E+03 0. -1.
<mgrwt>
<rscale>  2 0.50490897E+03</rscale>
<asrwt>0</asrwt>
<pdfrwt beam="1">  1       21 0.21565957E+00 0.50490897E+03</pdfrwt>
<pdfrwt beam="2">  1       21 0.35397936E-01 0.50490897E+03</pdfrwt>
<totfact> 0.66175812E+02</totfact>
</mgrwt>
</event>
<event>
 4    1  0.4703494E-002  0.4529359E+03  0.7818608E-02  0.1026850E+00
         21   -1    0    0  503  502  0.00000000000E+00  0.00000000000E+00  0.10074534773E+04  0.10074534773E+04  0.00000000000E+00 0. -1.
         21   -1    0    0  501  503 -0.00000000000E+00 -0.00000000000E+00 -0.22198641915E+03  0.22198641915E+03  0.00000000000E+00 0.  1.
    9000007    1    1    2  501    0  0.20411507441E+03  0.59058880415E+02  0.21597884189E+03  0.50179455468E+03  0.40000000000E+03 0.  1.
   -9000007    1    1    2    0  502 -0.20411507441E+03 -0.59058880415E+02  0.56948821624E+03  0.72764534177E+03  0.40000000000E+03 0. -1.
<mgrwt>
<rscale>  2 0.45293588E+03</rscale>
<asrwt>0</asrwt>
<pdfrwt beam="1">  1       21 0.15499284E+00 0.45293588E+03</pdfrwt>
<pdfrwt beam="2">  1       21 0.34151757E-01 0.45293588E+03</pdfrwt>
<totfact> 0.19332996E+03</totfact>
</mgrwt>
</event>
<event>
 4    1  0.4703494E-002  0.4497662E+03  0.7818608E-02  0.1027792E+00
         21   -1    0    0  503  502  0.00000000000E+00  0.00000000000E+00  0.12176638100E+04  0.12176638100E+04  0.00000000000E+00 0. -1.
         21   -1    0    0  501  503 -0.00000000000E+00 -0.00000000000E+00 -0.51244049495E+03  0.51244049495E+03  0.00000000000E+00 0. -1.
    9000007    1    1    2  501    0 -0.15100287179E+03  0.13959865154E+03 -0.35852624774E+03  0.57517886011E+03  0.40000000000E+03 0. -1.
   -9000007    1    1    2    0  502  0.15100287179E+03 -0.13959865154E+03  0.10637495628E+04  0.11549254448E+04  0.40000000000E+03 0. -1.
<mgrwt>
<rscale>  2 0.44976622E+03</rscale>
<asrwt>0</asrwt>
<pdfrwt beam="1">  1       21 0.18733289E+00 0.44976622E+03</pdfrwt>
<pdfrwt beam="2">  1       21 0.78837000E-01 0.44976622E+03</pdfrwt>
<totfact> 0.18697166E+02</totfact>
</mgrwt>
</event>
<event>
 4    1  0.4703494E-002  0.4058361E+03  0.7818608E-02  0.1041777E+00
         21   -1    0    0  503  502  0.00000000000E+00  0.00000000000E+00  0.10537109169E+04  0.10537109169E+04  0.00000000000E+00 0.  1.
         21   -1    0    0  501  503 -0.00000000000E+00 -0.00000000000E+00 -0.15631410402E+03  0.15631410402E+03  0.00000000000E+00 0.  1.
    9000007    1    1    2  501    0 -0.68540767525E+02  0.22629102808E+01  0.45262003980E+03  0.60792093072E+03  0.40000000000E+03 0. -1.
   -9000007    1    1    2    0  502  0.68540767525E+02 -0.22629102808E+01  0.44477677312E+03  0.60210409024E+03  0.40000000000E+03 0. -1.
<mgrwt>
<rscale>  2 0.40583612E+03</rscale>
<asrwt>0</asrwt>
<pdfrwt beam="1">  1       21 0.16210937E+00 0.40583612E+03</pdfrwt>
<pdfrwt beam="2">  1       21 0.24048324E-01 0.40583612E+03</pdfrwt>
<totfact> 0.34783738E+03</totfact>
</mgrwt>
</event>
<event>
 4    1  0.4703494E-002  0.4788030E+03  0.7818608E-02  0.1019465E+00
         21   -1    0    0  501  502  0.00000000000E+00  0.00000000000E+00  0.11017883038E+03  0.11017883038E+03  0.00000000000E+00 0.  1.
         21   -1    0    0  502  503 -0.00000000000E+00 -0.00000000000E+00 -0.22383164367E+04  0.22383164367E+04  0.00000000000E+00 0.  1.
    9000007    1    1    2  501    0 -0.26118287903E+03 -0.32184608449E+02 -0.13756412357E+04  0.14565854437E+04  0.40000000000E+03 0. -1.
   -9000007    1    1    2    0  503  0.26118287903E+03  0.32184608449E+02 -0.75249637060E+03  0.89190982341E+03  0.40000000000E+03 0. -1.
<mgrwt>
<rscale>  2 0.47880303E+03</rscale>
<asrwt>0</asrwt>
<pdfrwt beam="1">  1       21 0.16950588E-01 0.47880303E+03</pdfrwt>
<pdfrwt beam="2">  1       21 0.34435641E+00 0.47880303E+03</pdfrwt>
<totfact> 0.45702615E+02</totfact>
</mgrwt>
</event>
<event>
 4    1  0.4703494E-002  0.4554072E+03  0.7818608E-02  0.1026122E+00
         21   -1    0    0  503  502  0.00000000000E+00  0.00000000000E+00  0.10148937096E+04  0.10148937096E+04  0.00000000000E+00 0.  1.
         21   -1    0    0  501  503 -0.00000000000E+00 -0.00000000000E+00 -0.20476876569E+03  0.20476876569E+03  0.00000000000E+00 0. -1.
    9000007    1    1    2  501    0 -0.20756196637E+03 -0.65678856533E+02  0.43257058270E+03  0.62810269152E+03  0.40000000000E+03 0.  1.
   -9000007    1    1    2    0  502  0.20756196637E+03  0.65678856533E+02  0.37755436117E+03  0.59155978372E+03  0.40000000000E+03 0. -1.
<mgrwt>
<rscale>  2 0.45540716E+03</rscale>
<asrwt>0</asrwt>
<pdfrwt beam="1">  1       21 0.15613749E+00 0.45540716E+03</pdfrwt>
<pdfrwt beam="2">  1       21 0.31502888E-01 0.45540716E+03</pdfrwt>
<totfact> 0.22257369E+03</totfact>
</mgrwt>
</event>
<event>
 4    1  0.4703494E-002  0.5250775E+03  0.7818608E-02  0.1007433E+00
         21   -1    0    0  501  502  0.00000000000E+00  0.00000000000E+00  0.98169493983E+03  0.98169493983E+03  0.00000000000E+00 0. -1.
         21   -1    0    0  502  503 -0.00000000000E+00 -0.00000000000E+00 -0.28398597373E+03  0.28398597373E+03  0.00000000000E+00 0.  1.
    9000007    1    1    2  501    0  0.34014306931E+03 -0.30135290563E+01  0.41538452101E+03  0.66951526439E+03  0.40000000000E+03 0. -1.
   -9000007    1    1    2    0  503 -0.34014306931E+03  0.30135290563E+01  0.28232444509E+03  0.59616564917E+03  0.40000000000E+03 0.  1.
<mgrwt>
<rscale>  2 0.52507751E+03</rscale>
<asrwt>0</asrwt>
<pdfrwt beam="1">  1       21 0.15102999E+00 0.52507751E+03</pdfrwt>
<pdfrwt beam="2">  1       21 0.43690150E-01 0.52507751E+03</pdfrwt>
<totfact> 0.12178244E+03</totfact>
</mgrwt>
</event>
<event>
 4    1  0.4703494E-002  0.5132788E+03  0.7818608E-02  0.1010370E+00
         21   -1    0    0  501  502  0.00000000000E+00  0.00000000000E+00  0.27559065969E+03  0.27559065969E+03  0.00000000000E+00 0. -1.
         21   -1    0    0  502  503 -0.00000000000E+00 -0.00000000000E+00 -0.10134876033E+04  0.10134876033E+04  0.00000000000E+00 0. -1.
    9000007    1    1    2  501    0 -0.13293625899E+03  0.29288740164E+03 -0.52250157438E+03  0.73243632776E+03  0.40000000000E+03 0. -1.
   -9000007    1    1    2    0  503  0.13293625899E+03 -0.29288740164E+03 -0.21539536928E+03  0.55664193527E+03  0.40000000000E+03 0. -1.
<mgrwt>
<rscale>  2 0.51327875E+03</rscale>
<asrwt>0</asrwt>
<pdfrwt beam="1">  1       21 0.42398564E-01 0.51327875E+03</pdfrwt>
<pdfrwt beam="2">  1       21 0.15592117E+00 0.51327875E+03</pdfrwt>
<totfact> 0.11928211E+03</totfact>
</mgrwt>
</event>
<event>
 4    1  0.4703494E-002  0.4258325E+03  0.7818608E-02  0.1035185E+00
         21   -1    0    0  503  502  0.00000000000E+00  0.00000000000E+00  0.42115969793E+03  0.42115969793E+03  0.00000000000E+00 0.  1.
         21   -1    0    0  501  503 -0.00000000000E+00 -0.00000000000E+00 -0.43220010669E+03  0.43220010669E+03  0.00000000000E+00 0.  1.
    9000007    1    1    2  501    0 -0.10764616434E+02  0.14566194783E+03  0.20787631138E+02  0.42633954264E+03  0.40000000000E+03 0.  1.
   -9000007    1    1    2    0  502  0.10764616434E+02 -0.14566194783E+03 -0.31828039893E+02  0.42702026197E+03  0.40000000000E+03 0.  1.
<mgrwt>
<rscale>  2 0.42583246E+03</rscale>
<asrwt>0</asrwt>
<pdfrwt beam="1">  1       21 0.64793800E-01 0.42583246E+03</pdfrwt>
<pdfrwt beam="2">  1       21 0.66492324E-01 0.42583246E+03</pdfrwt>
<totfact> 0.40216587E+03</totfact>
</mgrwt>
</event>
<event>
 4    1  0.4703494E-002  0.4478439E+03  0.7818608E-02  0.1028367E+00
         21   -1    0    0  503  502  0.00000000000E+00  0.00000000000E+00  0.96957098396E+03  0.96957098396E+03  0.00000000000E+00 0.  1.
         21   -1    0    0  501  503 -0.00000000000E+00 -0.00000000000E+00 -0.27006787005E+03  0.27006787005E+03  0.00000000000E+00 0. -1.
    9000007    1    1    2  501    0 -0.91324855030E+02 -0.17951024116E+03  0.49891305156E+02  0.45061435636E+03  0.40000000000E+03 0. -1.
   -9000007    1    1    2    0  502  0.91324855030E+02  0.17951024116E+03  0.64961180874E+03  0.78902449765E+03  0.40000000000E+03 0.  1.
<mgrwt>
<rscale>  2 0.44784390E+03</rscale>
<asrwt>0</asrwt>
<pdfrwt beam="1">  1       21 0.14916476E+00 0.44784390E+03</pdfrwt>
<pdfrwt beam="2">  1       21 0.41548904E-01 0.44784390E+03</pdfrwt>
<totfact> 0.14407224E+03</totfact>
</mgrwt>
</event>
<event>
 4    1  0.4703494E-002  0.4762683E+03  0.7818608E-02  0.1020166E+00
         21   -1    0    0  503  502  0.00000000000E+00  0.00000000000E+00  0.33473145249E+03  0.33473145249E+03  0.00000000000E+00 0. -1.
         21   -1    0    0  501  503 -0.00000000000E+00 -0.00000000000E+00 -0.69026915780E+03  0.69026915780E+03  0.00000000000E+00 0. -1.
    9000007    1    1    2  501    0 -0.16852668234E+03  0.19603637814E+03 -0.24705752970E+03  0.53653418083E+03  0.40000000000E+03 0. -1.
   -9000007    1    1    2    0  502  0.16852668234E+03 -0.19603637814E+03 -0.10848017561E+03  0.48846642947E+03  0.40000000000E+03 0. -1.
<mgrwt>
<rscale>  2 0.47626831E+03</rscale>
<asrwt>0</asrwt>
<pdfrwt beam="1">  1       21 0.51497147E-01 0.47626831E+03</pdfrwt>
<pdfrwt beam="2">  1       21 0.10619525E+00 0.47626831E+03</pdfrwt>
<totfact> 0.21787641E+03</totfact>
</mgrwt>
</event>
<event>
 4    1  0.4703494E-002  0.4472187E+03  0.7818608E-02  0.1028555E+00
         21   -1    0    0  503  502  0.00000000000E+00  0.00000000000E+00  0.11877412814E+04  0.11877412814E+04  0.00000000000E+00 0. -1.
         21   -1    0    0  501  503 -0.00000000000E+00 -0.00000000000E+00 -0.16846863336E+03  0.16846863336E+03  0.00000000000E+00 0. -1.
    9000007    1    1    2  501    0  0.10714120437E+03 -0.16889449745E+03  0.52422082971E+03  0.68906608337E+03  0.40000000000E+03 0. -1.
   -9000007    1    1    2    0  502 -0.10714120437E+03  0.16889449745E+03  0.49505181835E+03  0.66714383141E+03  0.40000000000E+03 0. -1.
<mgrwt>
<rscale>  2 0.44721873E+03</rscale>
<asrwt>0</asrwt>
<pdfrwt beam="1">  1       21 0.18272942E+00 0.44721873E+03</pdfrwt>
<pdfrwt beam="2">  1       21 0.25918252E-01 0.44721873E+03</pdfrwt>
<totfact> 0.20986717E+03</totfact>
</mgrwt>
</event>
<event>
 4    1  0.4703494E-002  0.4716730E+03  0.7818608E-02  0.1021449E+00
         21   -1    0    0  503  502  0.00000000000E+00  0.00000000000E+00  0.31969659734E+03  0.31969659734E+03  0.00000000000E+00 0. -1.
         21   -1    0    0  501  503 -0.00000000000E+00 -0.00000000000E+00 -0.94145305100E+03  0.94145305100E+03  0.00000000000E+00 0. -1.
    9000007    1    1    2  501    0 -0.14845835437E+03 -0.20108594311E+03 -0.63292125094E+03  0.78934450615E+03  0.40000000000E+03 0. -1.
   -9000007    1    1    2    0  502  0.14845835437E+03  0.20108594311E+03  0.11164797279E+02  0.47180514219E+03  0.40000000000E+03 0. -1.
<mgrwt>
<rscale>  2 0.47167302E+03</rscale>
<asrwt>0</asrwt>
<pdfrwt beam="1">  1       21 0.49184092E-01 0.47167302E+03</pdfrwt>
<pdfrwt beam="2">  1       21 0.14483893E+00 0.47167302E+03</pdfrwt>
<totfact> 0.10844357E+03</totfact>
</mgrwt>
</event>
<event>
 4    1  0.4703494E-002  0.4112816E+03  0.7818608E-02  0.1039942E+00
         21   -1    0    0  503  502  0.00000000000E+00  0.00000000000E+00  0.75019076388E+03  0.75019076388E+03  0.00000000000E+00 0. -1.
         21   -1    0    0  501  503 -0.00000000000E+00 -0.00000000000E+00 -0.72151539745E+03  0.72151539745E+03  0.00000000000E+00 0. -1.
    9000007    1    1    2  501    0 -0.93435363109E+02  0.20552167753E+02 -0.59579587234E+03  0.72396497165E+03  0.40000000000E+03 0. -1.
   -9000007    1    1    2    0  502  0.93435363109E+02 -0.20552167753E+02  0.62447123878E+03  0.74774118968E+03  0.40000000000E+03 0. -1.
<mgrwt>
<rscale>  2 0.41128161E+03</rscale>
<asrwt>0</asrwt>
<pdfrwt beam="1">  1       21 0.11541396E+00 0.41128161E+03</pdfrwt>
<pdfrwt beam="2">  1       21 0.11100237E+00 0.41128161E+03</pdfrwt>
<totfact> 0.31300953E+02</totfact>
</mgrwt>
</event>
<event>
 4    1  0.4703494E-002  0.4205897E+03  0.7818608E-02  0.1036875E+00
         21   -1    0    0  501  502  0.00000000000E+00  0.00000000000E+00  0.10382241391E+04  0.10382241391E+04  0.00000000000E+00 0.  1.
         21   -1    0    0  502  503 -0.00000000000E+00 -0.00000000000E+00 -0.18226922149E+03  0.18226922149E+03  0.00000000000E+00 0.  1.
    9000007    1    1    2  501    0 -0.52448107759E+02 -0.11893232202E+03  0.58381475669E+03  0.71953830430E+03  0.40000000000E+03 0.  1.
   -9000007    1    1    2    0  503  0.52448107759E+02  0.11893232202E+03  0.27214016092E+03  0.50095505628E+03  0.40000000000E+03 0.  1.
<mgrwt>
<rscale>  2 0.42058971E+03</rscale>
<asrwt>0</asrwt>
<pdfrwt beam="1">  1       21 0.15972679E+00 0.42058971E+03</pdfrwt>
<pdfrwt beam="2">  1       21 0.28041419E-01 0.42058971E+03</pdfrwt>
<totfact> 0.26697328E+03</totfact>
</mgrwt>
</event>
<event>
 4    1  0.4703494E-002  0.4125362E+03  0.7818608E-02  0.1039523E+00
         21   -1    0    0  501  502  0.00000000000E+00  0.00000000000E+00  0.11518510638E+04  0.11518510638E+04  0.00000000000E+00 0.  1.
         21   -1    0    0  502  503 -0.00000000000E+00 -0.00000000000E+00 -0.20520037399E+03  0.20520037399E+03  0.00000000000E+00 0.  1.
    9000007    1    1    2  501    0  0.10077232406E+03  0.55754421987E+01  0.83234908810E+03  0.92897317039E+03  0.40000000000E+03 0.  1.
   -9000007    1    1    2    0  503 -0.10077232406E+03 -0.55754421987E+01  0.11430160168E+03  0.42807826737E+03  0.40000000000E+03 0.  1.
<mgrwt>
<rscale>  2 0.41253624E+03</rscale>
<asrwt>0</asrwt>
<pdfrwt beam="1">  1       21 0.17720785E+00 0.41253624E+03</pdfrwt>
<pdfrwt beam="2">  1       21 0.31569289E-01 0.41253624E+03</pdfrwt>
<totfact> 0.15786606E+03</totfact>
</mgrwt>
</event>
<event>
 4    1  0.4703494E-002  0.4108872E+03  0.7818608E-02  0.1040074E+00
         21   -1    0    0  503  502  0.00000000000E+00  0.00000000000E+00  0.30671547024E+04  0.30671547024E+04  0.00000000000E+00 0.  1.
         21   -1    0    0  501  503 -0.00000000000E+00 -0.00000000000E+00 -0.55314453161E+02  0.55314453161E+02  0.00000000000E+00 0.  1.
    9000007    1    1    2  501    0  0.33402594024E+02  0.87821052732E+02  0.16151006944E+04  0.16665468862E+04  0.40000000000E+03 0.  1.
   -9000007    1    1    2    0  502 -0.33402594024E+02 -0.87821052732E+02  0.13967395547E+04  0.14559222693E+04  0.40000000000E+03 0.  1.
<mgrwt>
<rscale>  2 0.41088718E+03</rscale>
<asrwt>0</asrwt>
<pdfrwt beam="1">  1       21 0.47186982E+00 0.41088718E+03</pdfrwt>
<pdfrwt beam="2">  1       21 0.85099182E-02 0.41088718E+03</pdfrwt>
<totfact> 0.24997681E+02</totfact>
</mgrwt>
</event>
<event>
 4    1  0.4703494E-002  0.4961621E+03  0.7818608E-02  0.1014786E+00
         21   -1    0    0  501  502  0.00000000000E+00  0.00000000000E+00  0.32113234530E+03  0.32113234530E+03  0.00000000000E+00 0.  1.
         21   -1    0    0  502  503 -0.00000000000E+00 -0.00000000000E+00 -0.85282041148E+03  0.85282041148E+03  0.00000000000E+00 0.  1.
    9000007    1    1    2  501    0  0.17620846026E+03 -0.23479230512E+03 -0.45249147134E+03  0.67150977628E+03  0.40000000000E+03 0.  1.
   -9000007    1    1    2    0  503 -0.17620846026E+03  0.23479230512E+03 -0.79196594843E+02  0.50244298049E+03  0.40000000000E+03 0.  1.
<mgrwt>
<rscale>  2 0.49616212E+03</rscale>
<asrwt>0</asrwt>
<pdfrwt beam="1">  1       21 0.49404976E-01 0.49616212E+03</pdfrwt>
<pdfrwt beam="2">  1       21 0.13120314E+00 0.49616212E+03</pdfrwt>
<totfact> 0.13827564E+03</totfact>
</mgrwt>
</event>
<event>
 4    1  0.4703494E-002  0.4364290E+03  0.7818608E-02  0.1031848E+00
         21   -1    0    0  501  502  0.00000000000E+00  0.00000000000E+00  0.26693672635E+03  0.26693672635E+03  0.00000000000E+00 0.  1.
         21   -1    0    0  502  503 -0.00000000000E+00 -0.00000000000E+00 -0.10628785232E+04  0.10628785232E+04  0.00000000000E+00 0.  1.
    9000007    1    1    2  501    0 -0.46069699462E+02 -0.16836814027E+03 -0.16780253265E+02  0.43675144506E+03  0.40000000000E+03 0.  1.
   -9000007    1    1    2    0  503  0.46069699462E+02  0.16836814027E+03 -0.77916154356E+03  0.89306380445E+03  0.40000000000E+03 0.  1.
<mgrwt>
<rscale>  2 0.43642897E+03</rscale>
<asrwt>0</asrwt>
<pdfrwt beam="1">  1       21 0.41067189E-01 0.43642897E+03</pdfrwt>
<pdfrwt beam="2">  1       21 0.16351977E+00 0.43642897E+03</pdfrwt>
<totfact> 0.11512520E+03</totfact>
</mgrwt>
</event>
<event>
 4    1  0.4703494E-002  0.4050281E+03  0.7818608E-02  0.1042052E+00
         21   -1    0    0  503  502  0.00000000000E+00  0.00000000000E+00  0.18516007482E+03  0.18516007482E+03  0.00000000000E+00 0. -1.
         21   -1    0    0  501  503 -0.00000000000E+00 -0.00000000000E+00 -0.11610834541E+04  0.11610834541E+04  0.00000000000E+00 0. -1.
    9000007    1    1    2  501    0  0.54540244649E+01 -0.63387905847E+02 -0.81561263783E+03  0.91064358998E+03  0.40000000000E+03 0. -1.
   -9000007    1    1    2    0  502 -0.54540244649E+01  0.63387905847E+02 -0.16031074149E+03  0.43559993897E+03  0.40000000000E+03 0. -1.
<mgrwt>
<rscale>  2 0.40502811E+03</rscale>
<asrwt>0</asrwt>
<pdfrwt beam="1">  1       21 0.28486165E-01 0.40502811E+03</pdfrwt>
<pdfrwt beam="2">  1       21 0.17862823E+00 0.40502811E+03</pdfrwt>
<totfact> 0.18978553E+03</totfact>
</mgrwt>
</event>
<event>
 4    1  0.4703494E-002  0.4388303E+03  0.7818608E-02  0.1031106E+00
         21   -1    0    0  503  502  0.00000000000E+00  0.00000000000E+00  0.74214913884E+03  0.74214913884E+03  0.00000000000E+00 0. -1.
         21   -1    0    0  501  503 -0.00000000000E+00 -0.00000000000E+00 -0.10063959803E+04  0.10063959803E+04  0.00000000000E+00 0. -1.
    9000007    1    1    2  501    0 -0.18045815730E+03  0.26283409036E+01 -0.88530309502E+03  0.98809595929E+03  0.40000000000E+03 0. -1.
   -9000007    1    1    2    0  502  0.18045815730E+03 -0.26283409036E+01  0.62105625353E+03  0.76044915988E+03  0.40000000000E+03 0. -1.
<mgrwt>
<rscale>  2 0.43883033E+03</rscale>
<asrwt>0</asrwt>
<pdfrwt beam="1">  1       21 0.11417679E+00 0.43883033E+03</pdfrwt>
<pdfrwt beam="2">  1       21 0.15483015E+00 0.43883033E+03</pdfrwt>
<totfact> 0.13325205E+02</totfact>
</mgrwt>
</event>
<event>
 4    1  0.4703494E-002  0.4328161E+03  0.7818608E-02  0.1032974E+00
         21   -1    0    0  503  502  0.00000000000E+00  0.00000000000E+00  0.11298675673E+03  0.11298675673E+03  0.00000000000E+00 0. -1.
         21   -1    0    0  501  503 -0.00000000000E+00 -0.00000000000E+00 -0.18497543315E+04  0.18497543315E+04  0.00000000000E+00 0. -1.
    9000007    1    1    2  501    0 -0.31994108216E+02 -0.16219163169E+03 -0.11843725056E+04  0.12609789770E+04  0.40000000000E+03 0. -1.
   -9000007    1    1    2    0  502  0.31994108216E+02  0.16219163169E+03 -0.55239506918E+03  0.70176211126E+03  0.40000000000E+03 0. -1.
<mgrwt>
<rscale>  2 0.43281607E+03</rscale>
<asrwt>0</asrwt>
<pdfrwt beam="1">  1       21 0.17382578E-01 0.43281607E+03</pdfrwt>
<pdfrwt beam="2">  1       21 0.28457759E+00 0.43281607E+03</pdfrwt>
<totfact> 0.10277099E+03</totfact>
</mgrwt>
</event>
<event>
 4    1  0.4703494E-002  0.6009116E+03  0.7818608E-02  0.9903517E-01
         21   -1    0    0  501  502  0.00000000000E+00  0.00000000000E+00  0.48899101330E+03  0.48899101330E+03  0.00000000000E+00 0.  1.
         21   -1    0    0  502  503 -0.00000000000E+00 -0.00000000000E+00 -0.78025508507E+03  0.78025508507E+03  0.00000000000E+00 0.  1.
    9000007    1    1    2  501    0 -0.64143920756E+02  0.44382464124E+03 -0.29253112189E+03  0.66833315945E+03  0.40000000000E+03 0.  1.
   -9000007    1    1    2    0  503  0.64143920756E+02 -0.44382464124E+03  0.12670501212E+01  0.60091293892E+03  0.40000000000E+03 0.  1.
<mgrwt>
<rscale>  2 0.60091160E+03</rscale>
<asrwt>0</asrwt>
<pdfrwt beam="1">  1       21 0.75229387E-01 0.60091160E+03</pdfrwt>
<pdfrwt beam="2">  1       21 0.12003924E+00 0.60091160E+03</pdfrwt>
<totfact> 0.66356574E+02</totfact>
</mgrwt>
</event>
<event>
 4    1  0.4703494E-002  0.4165854E+03  0.7818608E-02  0.1038183E+00
         21   -1    0    0  503  502  0.00000000000E+00  0.00000000000E+00  0.43475681239E+03  0.43475681239E+03  0.00000000000E+00 0.  1.
         21   -1    0    0  501  503 -0.00000000000E+00 -0.00000000000E+00 -0.13417723513E+04  0.13417723513E+04  0.00000000000E+00 0.  1.
    9000007    1    1    2  501    0 -0.81398365367E+02 -0.83172600808E+02 -0.11980106659E+04  0.12683741289E+04  0.40000000000E+03 0.  1.
   -9000007    1    1    2    0  502  0.81398365367E+02  0.83172600808E+02  0.29099512698E+03  0.50815503474E+03  0.40000000000E+03 0.  1.
<mgrwt>
<rscale>  2 0.41658538E+03</rscale>
<asrwt>0</asrwt>
<pdfrwt beam="1">  1       21 0.66885664E-01 0.41658538E+03</pdfrwt>
<pdfrwt beam="2">  1       21 0.20642651E+00 0.41658538E+03</pdfrwt>
<totfact> 0.20575890E+02</totfact>
</mgrwt>
</event>
<event>
 4    1  0.4703494E-002  0.6063295E+03  0.7818608E-02  0.9892361E-01
         21   -1    0    0  501  502  0.00000000000E+00  0.00000000000E+00  0.41726655188E+03  0.41726655188E+03  0.00000000000E+00 0. -1.
         21   -1    0    0  502  503 -0.00000000000E+00 -0.00000000000E+00 -0.90011026591E+03  0.90011026591E+03  0.00000000000E+00 0.  1.
    9000007    1    1    2  501    0 -0.44832197919E+03  0.81503820006E+02 -0.14558757693E+03  0.62356331856E+03  0.40000000000E+03 0.  1.
   -9000007    1    1    2    0  503  0.44832197919E+03 -0.81503820006E+02 -0.33725613710E+03  0.69381349923E+03  0.40000000000E+03 0.  1.
<mgrwt>
<rscale>  2 0.60632951E+03</rscale>
<asrwt>0</asrwt>
<pdfrwt beam="1">  1       21 0.64194855E-01 0.60632951E+03</pdfrwt>
<pdfrwt beam="2">  1       21 0.13847850E+00 0.60632951E+03</pdfrwt>
<totfact> 0.65291240E+02</totfact>
</mgrwt>
</event>
<event>
 4    1  0.4703494E-002  0.4047621E+03  0.7818608E-02  0.1042143E+00
         21   -1    0    0  503  502  0.00000000000E+00  0.00000000000E+00  0.11916641059E+04  0.11916641059E+04  0.00000000000E+00 0.  1.
         21   -1    0    0  501  503 -0.00000000000E+00 -0.00000000000E+00 -0.20263628332E+03  0.20263628332E+03  0.00000000000E+00 0.  1.
    9000007    1    1    2  501    0 -0.47712680599E+02  0.39444199954E+02  0.99202556766E+02  0.41674151709E+03  0.40000000000E+03 0.  1.
   -9000007    1    1    2    0  502  0.47712680599E+02 -0.39444199954E+02  0.88982526586E+03  0.97755887218E+03  0.40000000000E+03 0.  1.
<mgrwt>
<rscale>  2 0.40476208E+03</rscale>
<asrwt>0</asrwt>
<pdfrwt beam="1">  1       21 0.18333293E+00 0.40476208E+03</pdfrwt>
<pdfrwt beam="2">  1       21 0.31174814E-01 0.40476208E+03</pdfrwt>
<totfact> 0.14715862E+03</totfact>
</mgrwt>
</event>
<event>
 4    1  0.4703494E-002  0.4056377E+03  0.7818608E-02  0.1041845E+00
         21   -1    0    0  501  502  0.00000000000E+00  0.00000000000E+00  0.34942845524E+03  0.34942845524E+03  0.00000000000E+00 0. -1.
         21   -1    0    0  502  503 -0.00000000000E+00 -0.00000000000E+00 -0.55790409790E+03  0.55790409790E+03  0.00000000000E+00 0. -1.
    9000007    1    1    2  501    0  0.40173302936E+01  0.67274236277E+02  0.74927690232E+02  0.41249984312E+03  0.40000000000E+03 0. -1.
   -9000007    1    1    2    0  503 -0.40173302936E+01 -0.67274236277E+02 -0.28340333290E+03  0.49483271002E+03  0.40000000000E+03 0. -1.
<mgrwt>
<rscale>  2 0.40563772E+03</rscale>
<asrwt>0</asrwt>
<pdfrwt beam="1">  1       21 0.53758225E-01 0.40563772E+03</pdfrwt>
<pdfrwt beam="2">  1       21 0.85831399E-01 0.40563772E+03</pdfrwt>
<totfact> 0.34012941E+03</totfact>
</mgrwt>
</event>
<event>
 4    1  0.4703494E-002  0.4105518E+03  0.7818608E-02  0.1040186E+00
         21   -1    0    0  501  502  0.00000000000E+00  0.00000000000E+00  0.10501607456E+03  0.10501607456E+03  0.00000000000E+00 0. -1.
         21   -1    0    0  502  503 -0.00000000000E+00 -0.00000000000E+00 -0.17498028866E+04  0.17498028866E+04  0.00000000000E+00 0. -1.
    9000007    1    1    2  501    0 -0.89650734533E+02  0.22705559200E+02 -0.55562336310E+03  0.69084739143E+03  0.40000000000E+03 0. -1.
   -9000007    1    1    2    0  503  0.89650734533E+02 -0.22705559200E+02 -0.10891634489E+04  0.11639715697E+04  0.40000000000E+03 0. -1.
<mgrwt>
<rscale>  2 0.41055182E+03</rscale>
<asrwt>0</asrwt>
<pdfrwt beam="1">  1       21 0.16156320E-01 0.41055182E+03</pdfrwt>
<pdfrwt beam="2">  1       21 0.26920042E+00 0.41055182E+03</pdfrwt>
<totfact> 0.14757351E+03</totfact>
</mgrwt>
</event>
<event>
 4    1  0.4703494E-002  0.4913207E+03  0.7818608E-02  0.1016069E+00
         21   -1    0    0  501  502  0.00000000000E+00  0.00000000000E+00  0.13584293392E+04  0.13584293392E+04  0.00000000000E+00 0.  1.
         21   -1    0    0  502  503 -0.00000000000E+00 -0.00000000000E+00 -0.61482498338E+03  0.61482498338E+03  0.00000000000E+00 0. -1.
    9000007    1    1    2  501    0  0.27536827385E+03 -0.74621455206E+02  0.12037172157E+04  0.13001273719E+04  0.40000000000E+03 0.  1.
   -9000007    1    1    2    0  503 -0.27536827385E+03  0.74621455206E+02 -0.46011285992E+03  0.67312695064E+03  0.40000000000E+03 0. -1.
<mgrwt>
<rscale>  2 0.49132072E+03</rscale>
<asrwt>0</asrwt>
<pdfrwt beam="1">  1       21 0.20898913E+00 0.49132072E+03</pdfrwt>
<pdfrwt beam="2">  1       21 0.94588459E-01 0.49132072E+03</pdfrwt>
<totfact> 0.85238302E+01</totfact>
</mgrwt>
</event>
<event>
 4    1  0.4703494E-002  0.4275029E+03  0.7818608E-02  0.1034652E+00
         21   -1    0    0  503  502  0.00000000000E+00  0.00000000000E+00  0.14435726850E+03  0.14435726850E+03  0.00000000000E+00 0. -1.
         21   -1    0    0  501  503 -0.00000000000E+00 -0.00000000000E+00 -0.15247621401E+04  0.15247621401E+04  0.00000000000E+00 0. -1.
    9000007    1    1    2  501    0 -0.54839008143E+02 -0.14053986155E+03 -0.10339917579E+04  0.11188823553E+04  0.40000000000E+03 0. -1.
   -9000007    1    1    2    0  502  0.54839008143E+02  0.14053986155E+03 -0.34641311363E+03  0.55023705327E+03  0.40000000000E+03 0. -1.
<mgrwt>
<rscale>  2 0.42750295E+03</rscale>
<asrwt>0</asrwt>
<pdfrwt beam="1">  1       21 0.22208812E-01 0.42750295E+03</pdfrwt>
<pdfrwt beam="2">  1       21 0.23457878E+00 0.42750295E+03</pdfrwt>
<totfact> 0.13053777E+03</totfact>
</mgrwt>
</event>
<event>
 4    1  0.4703494E-002  0.4917693E+03  0.7818608E-02  0.1015950E+00
         21   -1    0    0  501  502  0.00000000000E+00  0.00000000000E+00  0.81430110379E+02  0.81430110379E+02  0.00000000000E+00 0.  1.
         21   -1    0    0  502  503 -0.00000000000E+00 -0.00000000000E+00 -0.29801886732E+04  0.29801886732E+04  0.00000000000E+00 0.  1.
    9000007    1    1    2  501    0  0.27173576428E+03 -0.89424162202E+02 -0.13593116669E+04  0.14455328478E+04  0.40000000000E+03 0.  1.
   -9000007    1    1    2    0  503 -0.27173576428E+03  0.89424162202E+02 -0.15394468960E+04  0.16160859358E+04  0.40000000000E+03 0.  1.
<mgrwt>
<rscale>  2 0.49176926E+03</rscale>
<asrwt>0</asrwt>
<pdfrwt beam="1">  1       21 0.12527709E-01 0.49176926E+03</pdfrwt>
<pdfrwt beam="2">  1       21 0.45849059E+00 0.49176926E+03</pdfrwt>
<totfact> 0.14557192E+02</totfact>
</mgrwt>
</event>
<event>
 4    1  0.4703494E-002  0.4343836E+03  0.7818608E-02  0.1032484E+00
         21   -1    0    0  501  502  0.00000000000E+00  0.00000000000E+00  0.41038710850E+03  0.41038710850E+03  0.00000000000E+00 0.  1.
         21   -1    0    0  502  503 -0.00000000000E+00 -0.00000000000E+00 -0.63939168013E+03  0.63939168013E+03  0.00000000000E+00 0.  1.
    9000007    1    1    2  501    0  0.11884344639E+03  0.12068688041E+03  0.16369171227E+03  0.46420261149E+03  0.40000000000E+03 0.  1.
   -9000007    1    1    2    0  503 -0.11884344639E+03 -0.12068688041E+03 -0.39269628389E+03  0.58557617714E+03  0.40000000000E+03 0.  1.
<mgrwt>
<rscale>  2 0.43438357E+03</rscale>
<asrwt>0</asrwt>
<pdfrwt beam="1">  1       21 0.63136479E-01 0.43438357E+03</pdfrwt>
<pdfrwt beam="2">  1       21 0.98367950E-01 0.43438357E+03</pdfrwt>
<totfact> 0.17141635E+03</totfact>
</mgrwt>
</event>
<event>
 4    1  0.4703494E-002  0.4740010E+03  0.7818608E-02  0.1020797E+00
         21   -1    0    0  503  502  0.00000000000E+00  0.00000000000E+00  0.66262998992E+03  0.66262998992E+03  0.00000000000E+00 0.  1.
         21   -1    0    0  501  503 -0.00000000000E+00 -0.00000000000E+00 -0.34501110003E+03  0.34501110003E+03  0.00000000000E+00 0.  1.
    9000007    1    1    2  501    0 -0.23557438255E+03  0.95821024669E+02  0.92687214684E+02  0.48297813434E+03  0.40000000000E+03 0.  1.
   -9000007    1    1    2    0  502  0.23557438255E+03 -0.95821024669E+02  0.22493167521E+03  0.52466295561E+03  0.40000000000E+03 0.  1.
<mgrwt>
<rscale>  2 0.47400101E+03</rscale>
<asrwt>0</asrwt>
<pdfrwt beam="1">  1       21 0.10194308E+00 0.47400101E+03</pdfrwt>
<pdfrwt beam="2">  1       21 0.53078631E-01 0.47400101E+03</pdfrwt>
<totfact> 0.22597323E+03</totfact>
</mgrwt>
</event>
<event>
 4    1  0.4703494E-002  0.4021766E+03  0.7818608E-02  0.1043029E+00
         21   -1    0    0  501  502  0.00000000000E+00  0.00000000000E+00  0.11034561779E+04  0.11034561779E+04  0.00000000000E+00 0.  1.
         21   -1    0    0  502  503 -0.00000000000E+00 -0.00000000000E+00 -0.37639907416E+03  0.37639907416E+03  0.00000000000E+00 0.  1.
    9000007    1    1    2  501    0  0.33120261482E+02 -0.25476712847E+02  0.94170021013E+03  0.10239850098E+04  0.40000000000E+03 0.  1.
   -9000007    1    1    2    0  503 -0.33120261482E+02  0.25476712847E+02 -0.21464310639E+03  0.45587024222E+03  0.40000000000E+03 0.  1.
<mgrwt>
<rscale>  2 0.40217660E+03</rscale>
<asrwt>0</asrwt>
<pdfrwt beam="1">  1       21 0.16976249E+00 0.40217660E+03</pdfrwt>
<pdfrwt beam="2">  1       21 0.57907550E-01 0.40217660E+03</pdfrwt>
<totfact> 0.50882307E+02</totfact>
</mgrwt>
</event>
<event>
 4    1  0.4703494E-002  0.4088346E+03  0.7818608E-02  0.1040763E+00
         21   -1    0    0  503  502  0.00000000000E+00  0.00000000000E+00  0.31946847201E+03  0.31946847201E+03  0.00000000000E+00 0.  1.
         21   -1    0    0  501  503 -0.00000000000E+00 -0.00000000000E+00 -0.64301279648E+03  0.64301279648E+03  0.00000000000E+00 0.  1.
    9000007    1    1    2  501    0  0.32109854585E+02  0.78196213481E+02  0.45960744949E+02  0.41140986940E+03  0.40000000000E+03 0.  1.
   -9000007    1    1    2    0  502 -0.32109854585E+02 -0.78196213481E+02 -0.36950506942E+03  0.55107139909E+03  0.40000000000E+03 0.  1.
<mgrwt>
<rscale>  2 0.40883455E+03</rscale>
<asrwt>0</asrwt>
<pdfrwt beam="1">  1       21 0.49148996E-01 0.40883455E+03</pdfrwt>
<pdfrwt beam="2">  1       21 0.98925045E-01 0.40883455E+03</pdfrwt>
<totfact> 0.29351279E+03</totfact>
</mgrwt>
</event>
<event>
 4    1  0.4703494E-002  0.4861743E+03  0.7818608E-02  0.1017452E+00
         21   -1    0    0  501  502  0.00000000000E+00  0.00000000000E+00  0.18601088083E+04  0.18601088083E+04  0.00000000000E+00 0.  1.
         21   -1    0    0  502  503 -0.00000000000E+00 -0.00000000000E+00 -0.35674876830E+03  0.35674876830E+03  0.00000000000E+00 0.  1.
    9000007    1    1    2  501    0  0.48645078827E+02 -0.27202784600E+03  0.16410577194E+04  0.17115595026E+04  0.40000000000E+03 0.  1.
   -9000007    1    1    2    0  503 -0.48645078827E+02  0.27202784600E+03 -0.13769767935E+03  0.50529807400E+03  0.40000000000E+03 0.  1.
<mgrwt>
<rscale>  2 0.48617434E+03</rscale>
<asrwt>0</asrwt>
<pdfrwt beam="1">  1       21 0.28617058E+00 0.48617434E+03</pdfrwt>
<pdfrwt beam="2">  1       21 0.54884427E-01 0.48617434E+03</pdfrwt>
<totfact> 0.97523655E+01</totfact>
</mgrwt>
</event>
<event>
 4    1  0.4703494E-002  0.4081462E+03  0.7818608E-02  0.1040995E+00
         21   -1    0    0  501  502  0.00000000000E+00  0.00000000000E+00  0.11705286796E+04  0.11705286796E+04  0.00000000000E+00 0. -1.
         21   -1    0    0  502  503 -0.00000000000E+00 -0.00000000000E+00 -0.48304448169E+03  0.48304448169E+03  0.00000000000E+00 0. -1.
    9000007    1    1    2  501    0  0.56037896464E+02  0.58677374543E+02  0.10381345485E+04  0.11154849264E+04  0.40000000000E+03 0. -1.
   -9000007    1    1    2    0  503 -0.56037896464E+02 -0.58677374543E+02 -0.35065035064E+03  0.53808823489E+03  0.40000000000E+03 0. -1.
<mgrwt>
<rscale>  2 0.40814615E+03</rscale>
<asrwt>0</asrwt>
<pdfrwt beam="1">  1       21 0.18008133E+00 0.40814615E+03</pdfrwt>
<pdfrwt beam="2">  1       21 0.74314536E-01 0.40814615E+03</pdfrwt>
<totfact> 0.24593732E+02</totfact>
</mgrwt>
</event>
<event>
 4    1  0.4703494E-002  0.4619460E+03  0.7818608E-02  0.1024218E+00
         21   -1    0    0  501  502  0.00000000000E+00  0.00000000000E+00  0.49352768659E+03  0.49352768659E+03  0.00000000000E+00 0.  1.
         21   -1    0    0  502  503 -0.00000000000E+00 -0.00000000000E+00 -0.11270138332E+04  0.11270138332E+04  0.00000000000E+00 0.  1.
    9000007    1    1    2  501    0 -0.13858882879E+02  0.23065573822E+03  0.31938101200E+03  0.56160339122E+03  0.40000000000E+03 0.  1.
   -9000007    1    1    2    0  503  0.13858882879E+02 -0.23065573822E+03 -0.95286715863E+03  0.10589381286E+04  0.40000000000E+03 0.  1.
<mgrwt>
<rscale>  2 0.46194603E+03</rscale>
<asrwt>0</asrwt>
<pdfrwt beam="1">  1       21 0.75927337E-01 0.46194603E+03</pdfrwt>
<pdfrwt beam="2">  1       21 0.17338674E+00 0.46194603E+03</pdfrwt>
<totfact> 0.25400209E+02</totfact>
</mgrwt>
</event>
<event>
 4    1  0.4703494E-002  0.4295351E+03  0.7818608E-02  0.1034007E+00
         21   -1    0    0  503  502  0.00000000000E+00  0.00000000000E+00  0.62061762246E+03  0.62061762246E+03  0.00000000000E+00 0. -1.
         21   -1    0    0  501  503 -0.00000000000E+00 -0.00000000000E+00 -0.36745333704E+03  0.36745333704E+03  0.00000000000E+00 0. -1.
    9000007    1    1    2  501    0  0.15307097477E+03 -0.32705787393E+02 -0.89305221934E+02  0.43872065658E+03  0.40000000000E+03 0. -1.
   -9000007    1    1    2    0  502 -0.15307097477E+03  0.32705787393E+02  0.34246950735E+03  0.54935030292E+03  0.40000000000E+03 0. -1.
<mgrwt>
<rscale>  2 0.42953509E+03</rscale>
<asrwt>0</asrwt>
<pdfrwt beam="1">  1       21 0.95479634E-01 0.42953509E+03</pdfrwt>
<pdfrwt beam="2">  1       21 0.56531283E-01 0.42953509E+03</pdfrwt>
<totfact> 0.23497382E+03</totfact>
</mgrwt>
</event>
<event>
 4    1  0.4703494E-002  0.5782452E+03  0.7818608E-02  0.9951597E-01
         21   -1    0    0  501  502  0.00000000000E+00  0.00000000000E+00  0.37123620255E+03  0.37123620255E+03  0.00000000000E+00 0. -1.
         21   -1    0    0  502  503 -0.00000000000E+00 -0.00000000000E+00 -0.93409940415E+03  0.93409940415E+03  0.00000000000E+00 0.  1.
    9000007    1    1    2  501    0  0.41495789570E+03 -0.46663599940E+02 -0.15799305009E+03  0.59944086501E+03  0.40000000000E+03 0. -1.
   -9000007    1    1    2    0  503 -0.41495789570E+03  0.46663599940E+02 -0.40487015151E+03  0.70589474169E+03  0.40000000000E+03 0.  1.
<mgrwt>
<rscale>  2 0.57824523E+03</rscale>
<asrwt>0</asrwt>
<pdfrwt beam="1">  1       21 0.57113262E-01 0.57824523E+03</pdfrwt>
<pdfrwt beam="2">  1       21 0.14370760E+00 0.57824523E+03</pdfrwt>
<totfact> 0.77207838E+02</totfact>
</mgrwt>
</event>
<event>
 4    1  0.4703494E-002  0.4597502E+03  0.7818608E-02  0.1024854E+00
         21   -1    0    0  501  502  0.00000000000E+00  0.00000000000E+00  0.42878411282E+03  0.42878411282E+03  0.00000000000E+00 0. -1.
         21   -1    0    0  502  503 -0.00000000000E+00 -0.00000000000E+00 -0.50638391315E+03  0.50638391315E+03  0.00000000000E+00 0. -1.
    9000007    1    1    2  501    0 -0.18560579125E+03 -0.13007985406E+03  0.37351452866E+02  0.46126500974E+03  0.40000000000E+03 0. -1.
   -9000007    1    1    2    0  503  0.18560579125E+03  0.13007985406E+03 -0.11495125319E+03  0.47390301623E+03  0.40000000000E+03 0. -1.
<mgrwt>
<rscale>  2 0.45975023E+03</rscale>
<asrwt>0</asrwt>
<pdfrwt beam="1">  1       21 0.65966787E-01 0.45975023E+03</pdfrwt>
<pdfrwt beam="2">  1       21 0.77905217E-01 0.45975023E+03</pdfrwt>
<totfact> 0.26678998E+03</totfact>
</mgrwt>
</event>
<event>
 4    1  0.4703494E-002  0.5131586E+03  0.7818608E-02  0.1010400E+00
         21   -1    0    0  501  502  0.00000000000E+00  0.00000000000E+00  0.87064637425E+03  0.87064637425E+03  0.00000000000E+00 0. -1.
         21   -1    0    0  502  503 -0.00000000000E+00 -0.00000000000E+00 -0.30882476688E+03  0.30882476688E+03  0.00000000000E+00 0. -1.
    9000007    1    1    2  501    0  0.22478780633E+03 -0.22978721463E+03  0.36560398287E+03  0.63007776835E+03  0.40000000000E+03 0. -1.
   -9000007    1    1    2    0  503 -0.22478780633E+03  0.22978721463E+03  0.19621762450E+03  0.54939337277E+03  0.40000000000E+03 0. -1.
<mgrwt>
<rscale>  2 0.51315857E+03</rscale>
<asrwt>0</asrwt>
<pdfrwt beam="1">  1       21 0.13394559E+00 0.51315857E+03</pdfrwt>
<pdfrwt beam="2">  1       21 0.47511503E-01 0.51315857E+03</pdfrwt>
<totfact> 0.14146917E+03</totfact>
</mgrwt>
</event>
<event>
 4    1  0.4703494E-002  0.4817791E+03  0.7818608E-02  0.1018647E+00
         21   -1    0    0  501  502  0.00000000000E+00  0.00000000000E+00  0.66749875579E+03  0.66749875579E+03  0.00000000000E+00 0.  1.
         21   -1    0    0  502  503 -0.00000000000E+00 -0.00000000000E+00 -0.10019743854E+04  0.10019743854E+04  0.00000000000E+00 0.  1.
    9000007    1    1    2  501    0  0.25578503436E+03  0.81762376266E+02  0.50727510738E+03  0.69959924567E+03  0.40000000000E+03 0.  1.
   -9000007    1    1    2    0  503 -0.25578503436E+03 -0.81762376266E+02 -0.84175073699E+03  0.96987389552E+03  0.40000000000E+03 0.  1.
<mgrwt>
<rscale>  2 0.48177907E+03</rscale>
<asrwt>0</asrwt>
<pdfrwt beam="1">  1       21 0.10269212E+00 0.48177907E+03</pdfrwt>
<pdfrwt beam="2">  1       21 0.15414991E+00 0.48177907E+03</pdfrwt>
<totfact> 0.17146523E+02</totfact>
</mgrwt>
</event>
<event>
 4    1  0.4703494E-002  0.6533270E+03  0.7818608E-02  0.9800556E-01
         21   -1    0    0  503  502  0.00000000000E+00  0.00000000000E+00  0.64529325335E+03  0.64529325335E+03  0.00000000000E+00 0.  1.
         21   -1    0    0  501  503 -0.00000000000E+00 -0.00000000000E+00 -0.67437531361E+03  0.67437531361E+03  0.00000000000E+00 0. -1.
    9000007    1    1    2  501    0 -0.16789413178E+02  0.51628893537E+03 -0.10585225682E+03  0.66184654525E+03  0.40000000000E+03 0.  1.
   -9000007    1    1    2    0  502  0.16789413178E+02 -0.51628893537E+03  0.76770196556E+02  0.65782202172E+03  0.40000000000E+03 0. -1.
<mgrwt>
<rscale>  2 0.65332698E+03</rscale>
<asrwt>0</asrwt>
<pdfrwt beam="1">  1       21 0.99275885E-01 0.65332698E+03</pdfrwt>
<pdfrwt beam="2">  1       21 0.10375005E+00 0.65332698E+03</pdfrwt>
<totfact> 0.48839605E+02</totfact>
</mgrwt>
</event>
<event>
 4    1  0.4703494E-002  0.6991895E+03  0.7818608E-02  0.9718619E-01
         21   -1    0    0  501  502  0.00000000000E+00  0.00000000000E+00  0.15246319746E+04  0.15246319746E+04  0.00000000000E+00 0. -1.
         21   -1    0    0  502  503 -0.00000000000E+00 -0.00000000000E+00 -0.64274101354E+03  0.64274101354E+03  0.00000000000E+00 0.  1.
    9000007    1    1    2  501    0  0.40535156040E+03 -0.40565503597E+03  0.12080918020E+04  0.13958336927E+04  0.40000000000E+03 0. -1.
   -9000007    1    1    2    0  503 -0.40535156040E+03  0.40565503597E+03 -0.32620084093E+03  0.77153929540E+03  0.40000000000E+03 0.  1.
<mgrwt>
<rscale>  2 0.69918946E+03</rscale>
<asrwt>0</asrwt>
<pdfrwt beam="1">  1       21 0.23455876E+00 0.69918946E+03</pdfrwt>
<pdfrwt beam="2">  1       21 0.98883233E-01 0.69918946E+03</pdfrwt>
<totfact> 0.47625714E+01</totfact>
</mgrwt>
</event>
<event>
 4    1  0.4703494E-002  0.5649692E+03  0.7818608E-02  0.9980873E-01
         21   -1    0    0  503  502  0.00000000000E+00  0.00000000000E+00  0.15503034522E+04  0.15503034522E+04  0.00000000000E+00 0. -1.
         21   -1    0    0  501  503 -0.00000000000E+00 -0.00000000000E+00 -0.25440244504E+03  0.25440244504E+03  0.00000000000E+00 0.  1.
    9000007    1    1    2  501    0  0.37028210245E+03 -0.14859804018E+03  0.10419970074E+04  0.11853050141E+04  0.40000000000E+03 0.  1.
   -9000007    1    1    2    0  502 -0.37028210245E+03  0.14859804018E+03  0.25390399971E+03  0.61940088312E+03  0.40000000000E+03 0.  1.
<mgrwt>
<rscale>  2 0.56496921E+03</rscale>
<asrwt>0</asrwt>
<pdfrwt beam="1">  1       21 0.23850822E+00 0.56496921E+03</pdfrwt>
<pdfrwt beam="2">  1       21 0.39138839E-01 0.56496921E+03</pdfrwt>
<totfact> 0.37563832E+02</totfact>
</mgrwt>
</event>
<event>
 4    1  0.4703494E-002  0.5429886E+03  0.7818608E-02  0.1003130E+00
         21   -1    0    0  503  502  0.00000000000E+00  0.00000000000E+00  0.42764972573E+03  0.42764972573E+03  0.00000000000E+00 0.  1.
         21   -1    0    0  501  503 -0.00000000000E+00 -0.00000000000E+00 -0.69032335900E+03  0.69032335900E+03  0.00000000000E+00 0.  1.
    9000007    1    1    2  501    0 -0.36644976760E+03 -0.23477072719E+02 -0.11128207524E+03  0.55427457581E+03  0.40000000000E+03 0.  1.
   -9000007    1    1    2    0  502  0.36644976760E+03  0.23477072719E+02 -0.15139155803E+03  0.56369850892E+03  0.40000000000E+03 0.  1.
<mgrwt>
<rscale>  2 0.54298859E+03</rscale>
<asrwt>0</asrwt>
<pdfrwt beam="1">  1       21 0.65792266E-01 0.54298859E+03</pdfrwt>
<pdfrwt beam="2">  1       21 0.10620359E+00 0.54298859E+03</pdfrwt>
<totfact> 0.12463959E+03</totfact>
</mgrwt>
</event>
<event>
 4    1  0.4703494E-002  0.4455994E+03  0.7818608E-02  0.1029043E+00
         21   -1    0    0  503  502  0.00000000000E+00  0.00000000000E+00  0.92910872751E+03  0.92910872751E+03  0.00000000000E+00 0. -1.
         21   -1    0    0  501  503 -0.00000000000E+00 -0.00000000000E+00 -0.21514914693E+03  0.21514914693E+03  0.00000000000E+00 0. -1.
    9000007    1    1    2  501    0  0.11455566223E+02 -0.19602952309E+03  0.40379021845E+03  0.60133629895E+03  0.40000000000E+03 0. -1.
   -9000007    1    1    2    0  502 -0.11455566223E+02  0.19602952309E+03  0.31016936213E+03  0.54292157549E+03  0.40000000000E+03 0. -1.
<mgrwt>
<rscale>  2 0.44559938E+03</rscale>
<asrwt>0</asrwt>
<pdfrwt beam="1">  1       21 0.14293980E+00 0.44559938E+03</pdfrwt>
<pdfrwt beam="2">  1       21 0.33099869E-01 0.44559938E+03</pdfrwt>
<totfact> 0.25713241E+03</totfact>
</mgrwt>
</event>
<event>
 4    1  0.4703494E-002  0.5470152E+03  0.7818608E-02  0.1002187E+00
         21   -1    0    0  501  502  0.00000000000E+00  0.00000000000E+00  0.13702598358E+04  0.13702598358E+04  0.00000000000E+00 0. -1.
         21   -1    0    0  502  503 -0.00000000000E+00 -0.00000000000E+00 -0.39722225163E+03  0.39722225163E+03  0.00000000000E+00 0.  1.
    9000007    1    1    2  501    0  0.35096267310E+03  0.12669202580E+03  0.10795173689E+04  0.12101997426E+04  0.40000000000E+03 0. -1.
   -9000007    1    1    2    0  503 -0.35096267310E+03 -0.12669202580E+03 -0.10647978470E+03  0.55728234483E+03  0.40000000000E+03 0.  1.
<mgrwt>
<rscale>  2 0.54701523E+03</rscale>
<asrwt>0</asrwt>
<pdfrwt beam="1">  1       21 0.21080920E+00 0.54701523E+03</pdfrwt>
<pdfrwt beam="2">  1       21 0.61111116E-01 0.54701523E+03</pdfrwt>
<totfact> 0.22035718E+02</totfact>
</mgrwt>
</event>
<event>
 4    1  0.4703494E-002  0.4046826E+03  0.7818608E-02  0.1042170E+00
         21   -1    0    0  503  502  0.00000000000E+00  0.00000000000E+00  0.79146085364E+03  0.79146085364E+03  0.00000000000E+00 0.  1.
         21   -1    0    0  501  503 -0.00000000000E+00 -0.00000000000E+00 -0.57131582342E+03  0.57131582342E+03  0.00000000000E+00 0.  1.
    9000007    1    1    2  501    0 -0.66055934637E+01 -0.61027411327E+02 -0.43410938738E+03  0.59348036110E+03  0.40000000000E+03 0.  1.
   -9000007    1    1    2    0  502  0.66055934637E+01  0.61027411327E+02  0.65425441760E+03  0.76929631596E+03  0.40000000000E+03 0.  1.
<mgrwt>
<rscale>  2 0.40468257E+03</rscale>
<asrwt>0</asrwt>
<pdfrwt beam="1">  1       21 0.12176321E+00 0.40468257E+03</pdfrwt>
<pdfrwt beam="2">  1       21 0.87894742E-01 0.40468257E+03</pdfrwt>
<totfact> 0.48230470E+02</totfact>
</mgrwt>
</event>
<event>
 4    1  0.4703494E-002  0.4137665E+03  0.7818608E-02  0.1039114E+00
         21   -1    0    0  503  502  0.00000000000E+00  0.00000000000E+00  0.31911783587E+03  0.31911783587E+03  0.00000000000E+00 0. -1.
         21   -1    0    0  501  503 -0.00000000000E+00 -0.00000000000E+00 -0.82184436304E+03  0.82184436304E+03  0.00000000000E+00 0. -1.
    9000007    1    1    2  501    0 -0.24315718731E+02 -0.10301175691E+03 -0.58751917995E+03  0.71859687102E+03  0.40000000000E+03 0. -1.
   -9000007    1    1    2    0  502  0.24315718731E+02  0.10301175691E+03  0.84792652776E+02  0.42236532789E+03  0.40000000000E+03 0. -1.
<mgrwt>
<rscale>  2 0.41376645E+03</rscale>
<asrwt>0</asrwt>
<pdfrwt beam="1">  1       21 0.49095052E-01 0.41376645E+03</pdfrwt>
<pdfrwt beam="2">  1       21 0.12643759E+00 0.41376645E+03</pdfrwt>
<totfact> 0.15936689E+03</totfact>
</mgrwt>
</event>
<event>
 4    1  0.4703494E-002  0.4296085E+03  0.7818608E-02  0.1033984E+00
         21   -1    0    0  501  502  0.00000000000E+00  0.00000000000E+00  0.28007652588E+03  0.28007652588E+03  0.00000000000E+00 0.  1.
         21   -1    0    0  502  503 -0.00000000000E+00 -0.00000000000E+00 -0.13499782819E+04  0.13499782819E+04  0.00000000000E+00 0.  1.
    9000007    1    1    2  501    0  0.11407776177E+03  0.10746953541E+03  0.48156942917E+02  0.43229911858E+03  0.40000000000E+03 0.  1.
   -9000007    1    1    2    0  503 -0.11407776177E+03 -0.10746953541E+03 -0.11180586989E+04  0.11977556892E+04  0.40000000000E+03 0.  1.
<mgrwt>
<rscale>  2 0.42960847E+03</rscale>
<asrwt>0</asrwt>
<pdfrwt beam="1">  1       21 0.43088696E-01 0.42960847E+03</pdfrwt>
<pdfrwt beam="2">  1       21 0.20768897E+00 0.42960847E+03</pdfrwt>
<totfact> 0.51602625E+02</totfact>
</mgrwt>
</event>
<event>
 4    1  0.4703494E-002  0.4219425E+03  0.7818608E-02  0.1036436E+00
         21   -1    0    0  501  502  0.00000000000E+00  0.00000000000E+00  0.56865140473E+03  0.56865140473E+03  0.00000000000E+00 0.  1.
         21   -1    0    0  502  503 -0.00000000000E+00 -0.00000000000E+00 -0.37866376291E+03  0.37866376291E+03  0.00000000000E+00 0.  1.
    9000007    1    1    2  501    0  0.83557240532E+02 -0.10513625151E+03  0.29211068483E+03  0.51319011683E+03  0.40000000000E+03 0.  1.
   -9000007    1    1    2    0  503 -0.83557240532E+02  0.10513625151E+03 -0.10212304300E+03  0.43412505081E+03  0.40000000000E+03 0.  1.
<mgrwt>
<rscale>  2 0.42194247E+03</rscale>
<asrwt>0</asrwt>
<pdfrwt beam="1">  1       21 0.87484832E-01 0.42194247E+03</pdfrwt>
<pdfrwt beam="2">  1       21 0.58255963E-01 0.42194247E+03</pdfrwt>
<totfact> 0.27168544E+03</totfact>
</mgrwt>
</event>
<event>
 4    1  0.4703494E-002  0.7214999E+03  0.7818608E-02  0.9681155E-01
         21   -1    0    0  503  502  0.00000000000E+00  0.00000000000E+00  0.57406773323E+03  0.57406773323E+03  0.00000000000E+00 0.  1.
         21   -1    0    0  501  503 -0.00000000000E+00 -0.00000000000E+00 -0.13325470018E+04  0.13325470018E+04  0.00000000000E+00 0.  1.
    9000007    1    1    2  501    0  0.25124829909E+03 -0.54537727092E+03 -0.91809193496E+03  0.11676707055E+04  0.40000000000E+03 0.  1.
   -9000007    1    1    2    0  502 -0.25124829909E+03  0.54537727092E+03  0.15961266643E+03  0.73894402949E+03  0.40000000000E+03 0.  1.
<mgrwt>
<rscale>  2 0.72149988E+03</rscale>
<asrwt>0</asrwt>
<pdfrwt beam="1">  1       21 0.88318114E-01 0.72149988E+03</pdfrwt>
<pdfrwt beam="2">  1       21 0.20500723E+00 0.72149988E+03</pdfrwt>
<totfact> 0.96775403E+01</totfact>
</mgrwt>
</event>
<event>
 4    1  0.4703494E-002  0.5428639E+03  0.7818608E-02  0.1003159E+00
         21   -1    0    0  503  502  0.00000000000E+00  0.00000000000E+00  0.57506621144E+03  0.57506621144E+03  0.00000000000E+00 0. -1.
         21   -1    0    0  501  503 -0.00000000000E+00 -0.00000000000E+00 -0.57026077613E+03  0.57026077613E+03  0.00000000000E+00 0. -1.
    9000007    1    1    2  501    0  0.13632700190E+03 -0.34075826066E+03 -0.17990758241E+03  0.57189857655E+03  0.40000000000E+03 0. -1.
   -9000007    1    1    2    0  502 -0.13632700190E+03  0.34075826066E+03  0.18471301772E+03  0.57342841102E+03  0.40000000000E+03 0. -1.
<mgrwt>
<rscale>  2 0.54286393E+03</rscale>
<asrwt>0</asrwt>
<pdfrwt beam="1">  1       21 0.88471725E-01 0.54286393E+03</pdfrwt>
<pdfrwt beam="2">  1       21 0.87732427E-01 0.54286393E+03</pdfrwt>
<totfact> 0.10015218E+03</totfact>
</mgrwt>
</event>
<event>
 4    1  0.4703494E-002  0.4550521E+03  0.7818608E-02  0.1026226E+00
         21   -1    0    0  503  502  0.00000000000E+00  0.00000000000E+00  0.64110646577E+03  0.64110646577E+03  0.00000000000E+00 0.  1.
         21   -1    0    0  501  503 -0.00000000000E+00 -0.00000000000E+00 -0.35882027285E+03  0.35882027285E+03  0.00000000000E+00 0.  1.
    9000007    1    1    2  501    0  0.46126108809E+01 -0.21691270420E+03 -0.16840258927E+02  0.45536358193E+03  0.40000000000E+03 0.  1.
   -9000007    1    1    2    0  502 -0.46126108809E+01  0.21691270420E+03  0.29912645185E+03  0.54456315669E+03  0.40000000000E+03 0.  1.
<mgrwt>
<rscale>  2 0.45505208E+03</rscale>
<asrwt>0</asrwt>
<pdfrwt beam="1">  1       21 0.98631764E-01 0.45505208E+03</pdfrwt>
<pdfrwt beam="2">  1       21 0.55203119E-01 0.45505208E+03</pdfrwt>
<totfact> 0.22658286E+03</totfact>
</mgrwt>
</event>
<event>
 4    1  0.4703494E-002  0.4100620E+03  0.7818608E-02  0.1040350E+00
         21   -1    0    0  501  502  0.00000000000E+00  0.00000000000E+00  0.57052273332E+03  0.57052273332E+03  0.00000000000E+00 0. -1.
         21   -1    0    0  502  503 -0.00000000000E+00 -0.00000000000E+00 -0.53157541850E+03  0.53157541850E+03  0.00000000000E+00 0.  1.
    9000007    1    1    2  501    0  0.23325702751E+02 -0.87216689723E+02  0.38729696403E+03  0.56404767327E+03  0.40000000000E+03 0. -1.
   -9000007    1    1    2    0  503 -0.23325702751E+02  0.87216689723E+02 -0.34834964921E+03  0.53805047856E+03  0.40000000000E+03 0.  1.
<mgrwt>
<rscale>  2 0.41006199E+03</rscale>
<asrwt>0</asrwt>
<pdfrwt beam="1">  1       21 0.87772728E-01 0.41006199E+03</pdfrwt>
<pdfrwt beam="2">  1       21 0.81780833E-01 0.41006199E+03</pdfrwt>
<totfact> 0.12656505E+03</totfact>
</mgrwt>
</event>
<event>
 4    1  0.4703494E-002  0.4993044E+03  0.7818608E-02  0.1013961E+00
         21   -1    0    0  503  502  0.00000000000E+00  0.00000000000E+00  0.32205546505E+03  0.32205546505E+03  0.00000000000E+00 0. -1.
         21   -1    0    0  501  503 -0.00000000000E+00 -0.00000000000E+00 -0.83919880343E+03  0.83919880343E+03  0.00000000000E+00 0. -1.
    9000007    1    1    2  501    0  0.17400209473E+03 -0.24295702388E+03 -0.42028048690E+03  0.65264119705E+03  0.40000000000E+03 0. -1.
   -9000007    1    1    2    0  502 -0.17400209473E+03  0.24295702388E+03 -0.96862851491E+02  0.50861307143E+03  0.40000000000E+03 0. -1.
<mgrwt>
<rscale>  2 0.49930436E+03</rscale>
<asrwt>0</asrwt>
<pdfrwt beam="1">  1       21 0.49546995E-01 0.49930436E+03</pdfrwt>
<pdfrwt beam="2">  1       21 0.12910751E+00 0.49930436E+03</pdfrwt>
<totfact> 0.14315553E+03</totfact>
</mgrwt>
</event>
<event>
 4    1  0.4703494E-002  0.6860458E+03  0.7818608E-02  0.9741398E-01
         21   -1    0    0  503  502  0.00000000000E+00  0.00000000000E+00  0.75044961559E+03  0.75044961559E+03  0.00000000000E+00 0.  1.
         21   -1    0    0  501  503 -0.00000000000E+00 -0.00000000000E+00 -0.14821614432E+04  0.14821614432E+04  0.00000000000E+00 0.  1.
    9000007    1    1    2  501    0 -0.15277276158E+03  0.53602176478E+03 -0.12137008288E+04  0.13941766569E+04  0.40000000000E+03 0.  1.
   -9000007    1    1    2    0  502  0.15277276158E+03 -0.53602176478E+03  0.48198900114E+03  0.83843440186E+03  0.40000000000E+03 0.  1.
<mgrwt>
<rscale>  2 0.68604581E+03</rscale>
<asrwt>0</asrwt>
<pdfrwt beam="1">  1       21 0.11545379E+00 0.68604581E+03</pdfrwt>
<pdfrwt beam="2">  1       21 0.22802484E+00 0.68604581E+03</pdfrwt>
<totfact> 0.35814812E+01</totfact>
</mgrwt>
</event>
<event>
 4    1  0.4703494E-002  0.4624879E+03  0.7818608E-02  0.1024062E+00
         21   -1    0    0  501  502  0.00000000000E+00  0.00000000000E+00  0.83230942950E+03  0.83230942950E+03  0.00000000000E+00 0. -1.
         21   -1    0    0  502  503 -0.00000000000E+00 -0.00000000000E+00 -0.61406187431E+03  0.61406187431E+03  0.00000000000E+00 0.  1.
    9000007    1    1    2  501    0 -0.14229081453E+03  0.18343482723E+03  0.66059352586E+03  0.80639867197E+03  0.40000000000E+03 0. -1.
   -9000007    1    1    2    0  503  0.14229081453E+03 -0.18343482723E+03 -0.44234597067E+03  0.63997263184E+03  0.40000000000E+03 0.  1.
<mgrwt>
<rscale>  2 0.46248785E+03</rscale>
<asrwt>0</asrwt>
<pdfrwt beam="1">  1       21 0.12804760E+00 0.46248785E+03</pdfrwt>
<pdfrwt beam="2">  1       21 0.94471057E-01 0.46248785E+03</pdfrwt>
<totfact> 0.34727441E+02</totfact>
</mgrwt>
</event>
<event>
 4    1  0.4703494E-002  0.4559818E+03  0.7818608E-02  0.1025953E+00
         21   -1    0    0  501  502  0.00000000000E+00  0.00000000000E+00  0.39792813681E+03  0.39792813681E+03  0.00000000000E+00 0.  1.
         21   -1    0    0  502  503 -0.00000000000E+00 -0.00000000000E+00 -0.75399351994E+03  0.75399351994E+03  0.00000000000E+00 0.  1.
    9000007    1    1    2  501    0  0.63755565512E+02 -0.20941496025E+03  0.14110196737E+03  0.47731453247E+03  0.40000000000E+03 0.  1.
   -9000007    1    1    2    0  503 -0.63755565512E+02  0.20941496025E+03 -0.49716735051E+03  0.67460712427E+03  0.40000000000E+03 0.  1.
<mgrwt>
<rscale>  2 0.45598180E+03</rscale>
<asrwt>0</asrwt>
<pdfrwt beam="1">  1       21 0.61219714E-01 0.45598180E+03</pdfrwt>
<pdfrwt beam="2">  1       21 0.11599900E+00 0.45598180E+03</pdfrwt>
<totfact> 0.12112986E+03</totfact>
</mgrwt>
</event>
<event>
 4    1  0.4703494E-002  0.4216759E+03  0.7818608E-02  0.1036522E+00
         21   -1    0    0  503  502  0.00000000000E+00  0.00000000000E+00  0.48953681735E+03  0.48953681735E+03  0.00000000000E+00 0.  1.
         21   -1    0    0  501  503 -0.00000000000E+00 -0.00000000000E+00 -0.36535397208E+03  0.36535397208E+03  0.00000000000E+00 0.  1.
    9000007    1    1    2  501    0 -0.55317197421E+02 -0.12145207930E+03  0.94742867883E+02  0.43218839747E+03  0.40000000000E+03 0.  1.
   -9000007    1    1    2    0  502  0.55317197421E+02  0.12145207930E+03  0.29439977390E+02  0.42270239196E+03  0.40000000000E+03 0.  1.
<mgrwt>
<rscale>  2 0.42167594E+03</rscale>
<asrwt>0</asrwt>
<pdfrwt beam="1">  1       21 0.75313357E-01 0.42167594E+03</pdfrwt>
<pdfrwt beam="2">  1       21 0.56208303E-01 0.42167594E+03</pdfrwt>
<totfact> 0.41532802E+03</totfact>
</mgrwt>
</event>
<event>
 4    1  0.4703494E-002  0.5211998E+03  0.7818608E-02  0.1008389E+00
         21   -1    0    0  501  502  0.00000000000E+00  0.00000000000E+00  0.35774957790E+03  0.35774957790E+03  0.00000000000E+00 0. -1.
         21   -1    0    0  502  503 -0.00000000000E+00 -0.00000000000E+00 -0.10862910846E+04  0.10862910846E+04  0.00000000000E+00 0. -1.
    9000007    1    1    2  501    0  0.31401161406E+03  0.11421879123E+03  0.31848329364E+02  0.52217194689E+03  0.40000000000E+03 0. -1.
   -9000007    1    1    2    0  503 -0.31401161406E+03 -0.11421879123E+03 -0.76038983611E+03  0.92186871565E+03  0.40000000000E+03 0. -1.
<mgrwt>
<rscale>  2 0.52119979E+03</rscale>
<asrwt>0</asrwt>
<pdfrwt beam="1">  1       21 0.55038397E-01 0.52119979E+03</pdfrwt>
<pdfrwt beam="2">  1       21 0.16712170E+00 0.52119979E+03</pdfrwt>
<totfact> 0.56238058E+02</totfact>
</mgrwt>
</event>
<event>
 4    1  0.4703494E-002  0.4553279E+03  0.7818608E-02  0.1026145E+00
         21   -1    0    0  503  502  0.00000000000E+00  0.00000000000E+00  0.26520687310E+04  0.26520687310E+04  0.00000000000E+00 0.  1.
         21   -1    0    0  501  503 -0.00000000000E+00 -0.00000000000E+00 -0.10404425224E+03  0.10404425224E+03  0.00000000000E+00 0. -1.
    9000007    1    1    2  501    0  0.19241314365E+03 -0.10149213770E+03  0.58685481031E+03  0.74277994066E+03  0.40000000000E+03 0. -1.
   -9000007    1    1    2    0  502 -0.19241314365E+03  0.10149213770E+03  0.19611696685E+04  0.20133330426E+04  0.40000000000E+03 0.  1.
<mgrwt>
<rscale>  2 0.45532787E+03</rscale>
<asrwt>0</asrwt>
<pdfrwt beam="1">  1       21 0.40801052E+00 0.45532787E+03</pdfrwt>
<pdfrwt beam="2">  1       21 0.16006810E-01 0.45532787E+03</pdfrwt>
<totfact> 0.20548885E+02</totfact>
</mgrwt>
</event>
<event>
 4    1  0.4703494E-002  0.4157304E+03  0.7818608E-02  0.1038465E+00
         21   -1    0    0  501  502  0.00000000000E+00  0.00000000000E+00  0.43240347288E+03  0.43240347288E+03  0.00000000000E+00 0.  1.
         21   -1    0    0  502  503 -0.00000000000E+00 -0.00000000000E+00 -0.40169618526E+03  0.40169618526E+03  0.00000000000E+00 0.  1.
    9000007    1    1    2  501    0 -0.10874540388E+03  0.31720585821E+02  0.44751576644E+02  0.41813211075E+03  0.40000000000E+03 0.  1.
   -9000007    1    1    2    0  503  0.10874540388E+03 -0.31720585821E+02 -0.14044289026E+02  0.41596754739E+03  0.40000000000E+03 0.  1.
<mgrwt>
<rscale>  2 0.41573039E+03</rscale>
<asrwt>0</asrwt>
<pdfrwt beam="1">  1       21 0.66523611E-01 0.41573039E+03</pdfrwt>
<pdfrwt beam="2">  1       21 0.61799413E-01 0.41573039E+03</pdfrwt>
<totfact> 0.44761452E+03</totfact>
</mgrwt>
</event>
<event>
 4    1  0.4703494E-002  0.6963951E+03  0.7818608E-02  0.9723417E-01
         21   -1    0    0  501  502  0.00000000000E+00  0.00000000000E+00  0.52277262712E+03  0.52277262712E+03  0.00000000000E+00 0. -1.
         21   -1    0    0  502  503 -0.00000000000E+00 -0.00000000000E+00 -0.92888458125E+03  0.92888458125E+03  0.00000000000E+00 0.  1.
    9000007    1    1    2  501    0 -0.41963530019E+03 -0.38583981075E+03 -0.22918490212E+03  0.73313836627E+03  0.40000000000E+03 0.  1.
   -9000007    1    1    2    0  503  0.41963530019E+03  0.38583981075E+03 -0.17692705202E+03  0.71851884211E+03  0.40000000000E+03 0. -1.
<mgrwt>
<rscale>  2 0.69639511E+03</rscale>
<asrwt>0</asrwt>
<pdfrwt beam="1">  1       21 0.80426559E-01 0.69639511E+03</pdfrwt>
<pdfrwt beam="2">  1       21 0.14290532E+00 0.69639511E+03</pdfrwt>
<totfact> 0.34871603E+02</totfact>
</mgrwt>
</event>
<event>
 4    1  0.4703494E-002  0.6606733E+03  0.7818608E-02  0.9786955E-01
         21   -1    0    0  501  502  0.00000000000E+00  0.00000000000E+00  0.10775071450E+04  0.10775071450E+04  0.00000000000E+00 0. -1.
         21   -1    0    0  502  503 -0.00000000000E+00 -0.00000000000E+00 -0.74706395421E+03  0.74706395421E+03  0.00000000000E+00 0.  1.
    9000007    1    1    2  501    0 -0.25499380230E+03  0.45985577089E+03  0.78245206810E+03  0.10240705093E+04  0.40000000000E+03 0. -1.
   -9000007    1    1    2    0  503  0.25499380230E+03 -0.45985577089E+03 -0.45200887730E+03  0.80050058987E+03  0.40000000000E+03 0.  1.
<mgrwt>
<rscale>  2 0.66067327E+03</rscale>
<asrwt>0</asrwt>
<pdfrwt beam="1">  1       21 0.16577033E+00 0.66067327E+03</pdfrwt>
<pdfrwt beam="2">  1       21 0.11493292E+00 0.66067327E+03</pdfrwt>
<totfact> 0.97969923E+01</totfact>
</mgrwt>
</event>
<event>
 4    1  0.4703494E-002  0.4065599E+03  0.7818608E-02  0.1041532E+00
         21   -1    0    0  501  502  0.00000000000E+00  0.00000000000E+00  0.69914337033E+03  0.69914337033E+03  0.00000000000E+00 0.  1.
         21   -1    0    0  502  503 -0.00000000000E+00 -0.00000000000E+00 -0.29653450344E+03  0.29653450344E+03  0.00000000000E+00 0. -1.
    9000007    1    1    2  501    0 -0.38019138574E+02  0.62011828098E+02  0.42545701126E+03  0.58847649923E+03  0.40000000000E+03 0.  1.
   -9000007    1    1    2    0  503  0.38019138574E+02 -0.62011828098E+02 -0.22848144373E+02  0.40720137454E+03  0.40000000000E+03 0. -1.
<mgrwt>
<rscale>  2 0.40655986E+03</rscale>
<asrwt>0</asrwt>
<pdfrwt beam="1">  1       21 0.10756052E+00 0.40655986E+03</pdfrwt>
<pdfrwt beam="2">  1       21 0.45620693E-01 0.40655986E+03</pdfrwt>
<totfact> 0.28010192E+03</totfact>
</mgrwt>
</event>
<event>
 4    1  0.4703494E-002  0.5126478E+03  0.7818608E-02  0.1010529E+00
         21   -1    0    0  503  502  0.00000000000E+00  0.00000000000E+00  0.63690718807E+03  0.63690718807E+03  0.00000000000E+00 0.  1.
         21   -1    0    0  501  503 -0.00000000000E+00 -0.00000000000E+00 -0.47370224583E+03  0.47370224583E+03  0.00000000000E+00 0.  1.
    9000007    1    1    2  501    0  0.25014169381E+03  0.20059129665E+03 -0.11778439802E+03  0.52600465748E+03  0.40000000000E+03 0.  1.
   -9000007    1    1    2    0  502 -0.25014169381E+03 -0.20059129665E+03  0.28098934026E+03  0.58460477642E+03  0.40000000000E+03 0.  1.
<mgrwt>
<rscale>  2 0.51264777E+03</rscale>
<asrwt>0</asrwt>
<pdfrwt beam="1">  1       21 0.97985722E-01 0.51264777E+03</pdfrwt>
<pdfrwt beam="2">  1       21 0.72877268E-01 0.51264777E+03</pdfrwt>
<totfact> 0.12182534E+03</totfact>
</mgrwt>
</event>
<event>
 4    1  0.4703494E-002  0.5498300E+03  0.7818608E-02  0.1001533E+00
         21   -1    0    0  503  502  0.00000000000E+00  0.00000000000E+00  0.14834429065E+03  0.14834429065E+03  0.00000000000E+00 0.  1.
         21   -1    0    0  501  503 -0.00000000000E+00 -0.00000000000E+00 -0.20475532970E+04  0.20475532970E+04  0.00000000000E+00 0. -1.
    9000007    1    1    2  501    0  0.36542557579E+03 -0.93686697405E+02 -0.10249340921E+04  0.11631005726E+04  0.40000000000E+03 0.  1.
   -9000007    1    1    2    0  502 -0.36542557579E+03  0.93686697405E+02 -0.87427491421E+03  0.10327970151E+04  0.40000000000E+03 0. -1.
<mgrwt>
<rscale>  2 0.54983002E+03</rscale>
<asrwt>0</asrwt>
<pdfrwt beam="1">  1       21 0.22822199E-01 0.54983002E+03</pdfrwt>
<pdfrwt beam="2">  1       21 0.31500819E+00 0.54983002E+03</pdfrwt>
<totfact> 0.37745050E+02</totfact>
</mgrwt>
</event>
<event>
 4    1  0.4703494E-002  0.4085081E+03  0.7818608E-02  0.1040873E+00
         21   -1    0    0  501  502  0.00000000000E+00  0.00000000000E+00  0.95770480362E+02  0.95770480362E+02  0.00000000000E+00 0.  1.
         21   -1    0    0  502  503 -0.00000000000E+00 -0.00000000000E+00 -0.18956077912E+04  0.18956077912E+04  0.00000000000E+00 0.  1.
    9000007    1    1    2  501    0  0.82562130328E+02 -0.78972761109E+01 -0.61693210901E+03  0.73992168468E+03  0.40000000000E+03 0.  1.
   -9000007    1    1    2    0  503 -0.82562130328E+02  0.78972761109E+01 -0.11829052018E+04  0.12514565869E+04  0.40000000000E+03 0.  1.
<mgrwt>
<rscale>  2 0.40850811E+03</rscale>
<asrwt>0</asrwt>
<pdfrwt beam="1">  1       21 0.14733918E-01 0.40850811E+03</pdfrwt>
<pdfrwt beam="2">  1       21 0.29163200E+00 0.40850811E+03</pdfrwt>
<totfact> 0.12856154E+03</totfact>
</mgrwt>
</event>
<event>
 4    1  0.4703494E-002  0.7807953E+03  0.7818608E-02  0.9588239E-01
         21   -1    0    0  501  502  0.00000000000E+00  0.00000000000E+00  0.51266399432E+03  0.51266399432E+03  0.00000000000E+00 0. -1.
         21   -1    0    0  502  503 -0.00000000000E+00 -0.00000000000E+00 -0.13332833651E+04  0.13332833651E+04  0.00000000000E+00 0. -1.
    9000007    1    1    2  501    0 -0.48829005452E+03 -0.45958032613E+03 -0.10685756598E+03  0.78807346924E+03  0.40000000000E+03 0. -1.
   -9000007    1    1    2    0  503  0.48829005452E+03  0.45958032613E+03 -0.71376180476E+03  0.10578738901E+04  0.40000000000E+03 0. -1.
<mgrwt>
<rscale>  2 0.78079527E+03</rscale>
<asrwt>0</asrwt>
<pdfrwt beam="1">  1       21 0.78871385E-01 0.78079527E+03</pdfrwt>
<pdfrwt beam="2">  1       21 0.20512051E+00 0.78079527E+03</pdfrwt>
<totfact> 0.12378053E+02</totfact>
</mgrwt>
</event>
<event>
 4    1  0.4703494E-002  0.4078346E+03  0.7818608E-02  0.1041100E+00
         21   -1    0    0  503  502  0.00000000000E+00  0.00000000000E+00  0.12836624229E+04  0.12836624229E+04  0.00000000000E+00 0.  1.
         21   -1    0    0  501  503 -0.00000000000E+00 -0.00000000000E+00 -0.26112945186E+03  0.26112945186E+03  0.00000000000E+00 0.  1.
    9000007    1    1    2  501    0 -0.50116093953E+02  0.61785539406E+02 -0.36968483596E+02  0.40950670878E+03  0.40000000000E+03 0.  1.
   -9000007    1    1    2    0  502  0.50116093953E+02 -0.61785539406E+02  0.10595014547E+04  0.11352851660E+04  0.40000000000E+03 0.  1.
<mgrwt>
<rscale>  2 0.40783462E+03</rscale>
<asrwt>0</asrwt>
<pdfrwt beam="1">  1       21 0.19748652E+00 0.40783462E+03</pdfrwt>
<pdfrwt beam="2">  1       21 0.40173762E-01 0.40783462E+03</pdfrwt>
<totfact> 0.70458975E+02</totfact>
</mgrwt>
</event>
<event>
 4    1  0.4703494E-002  0.4905346E+03  0.7818608E-02  0.1016279E+00
         21   -1    0    0  501  502  0.00000000000E+00  0.00000000000E+00  0.45345555751E+03  0.45345555751E+03  0.00000000000E+00 0. -1.
         21   -1    0    0  502  503 -0.00000000000E+00 -0.00000000000E+00 -0.54026286213E+03  0.54026286213E+03  0.00000000000E+00 0.  1.
    9000007    1    1    2  501    0  0.23054262390E+03 -0.16575369573E+03  0.22887699811E+02  0.49106825991E+03  0.40000000000E+03 0. -1.
   -9000007    1    1    2    0  503 -0.23054262390E+03  0.16575369573E+03 -0.10969500443E+03  0.50265015974E+03  0.40000000000E+03 0. -1.
<mgrwt>
<rscale>  2 0.49053460E+03</rscale>
<asrwt>0</asrwt>
<pdfrwt beam="1">  1       21 0.69762394E-01 0.49053460E+03</pdfrwt>
<pdfrwt beam="2">  1       21 0.83117363E-01 0.49053460E+03</pdfrwt>
<totfact> 0.20039669E+03</totfact>
</mgrwt>
</event>
<event>
 4    1  0.4703494E-002  0.4050436E+03  0.7818608E-02  0.1042047E+00
         21   -1    0    0  503  502  0.00000000000E+00  0.00000000000E+00  0.17505825304E+04  0.17505825304E+04  0.00000000000E+00 0. -1.
         21   -1    0    0  501  503 -0.00000000000E+00 -0.00000000000E+00 -0.93717785604E+02  0.93717785604E+02  0.00000000000E+00 0. -1.
    9000007    1    1    2  501    0 -0.16197802553E+02  0.61627811583E+02  0.82706201287E+03  0.92091906762E+03  0.40000000000E+03 0. -1.
   -9000007    1    1    2    0  502  0.16197802553E+02 -0.61627811583E+02  0.82980273196E+03  0.92338124842E+03  0.40000000000E+03 0. -1.
<mgrwt>
<rscale>  2 0.40504365E+03</rscale>
<asrwt>0</asrwt>
<pdfrwt beam="1">  1       21 0.26932037E+00 0.40504365E+03</pdfrwt>
<pdfrwt beam="2">  1       21 0.14418122E-01 0.40504365E+03</pdfrwt>
<totfact> 0.18250287E+03</totfact>
</mgrwt>
</event>
<event>
 4    1  0.4703494E-002  0.4141139E+03  0.7818608E-02  0.1038999E+00
         21   -1    0    0  503  502  0.00000000000E+00  0.00000000000E+00  0.91860548902E+03  0.91860548902E+03  0.00000000000E+00 0.  1.
         21   -1    0    0  501  503 -0.00000000000E+00 -0.00000000000E+00 -0.24039300439E+03  0.24039300439E+03  0.00000000000E+00 0.  1.
    9000007    1    1    2  501    0 -0.10706266920E+03 -0.52826191454E+01  0.65195246842E+02  0.41921443369E+03  0.40000000000E+03 0.  1.
   -9000007    1    1    2    0  502  0.10706266920E+03  0.52826191454E+01  0.61301723778E+03  0.73978405972E+03  0.40000000000E+03 0.  1.
<mgrwt>
<rscale>  2 0.41411390E+03</rscale>
<asrwt>0</asrwt>
<pdfrwt beam="1">  1       21 0.14132392E+00 0.41411390E+03</pdfrwt>
<pdfrwt beam="2">  1       21 0.36983540E-01 0.41411390E+03</pdfrwt>
<totfact> 0.21449654E+03</totfact>
</mgrwt>
</event>
<event>
 4    1  0.4703494E-002  0.4698509E+03  0.7818608E-02  0.1021962E+00
         21   -1    0    0  501  502  0.00000000000E+00  0.00000000000E+00  0.22213449515E+03  0.22213449515E+03  0.00000000000E+00 0.  1.
         21   -1    0    0  502  503 -0.00000000000E+00 -0.00000000000E+00 -0.12678560073E+04  0.12678560073E+04  0.00000000000E+00 0. -1.
    9000007    1    1    2  501    0 -0.59809920370E+02  0.23912899516E+03 -0.17649992068E+03  0.50190848259E+03  0.40000000000E+03 0.  1.
   -9000007    1    1    2    0  503  0.59809920370E+02 -0.23912899516E+03 -0.86922159151E+03  0.98808201990E+03  0.40000000000E+03 0. -1.
<mgrwt>
<rscale>  2 0.46985094E+03</rscale>
<asrwt>0</asrwt>
<pdfrwt beam="1">  1       21 0.34174538E-01 0.46985094E+03</pdfrwt>
<pdfrwt beam="2">  1       21 0.19505477E+00 0.46985094E+03</pdfrwt>
<totfact> 0.98753995E+02</totfact>
</mgrwt>
</event>
<event>
 4    1  0.4703494E-002  0.4147920E+03  0.7818608E-02  0.1038775E+00
         21   -1    0    0  503  502  0.00000000000E+00  0.00000000000E+00  0.20931841387E+03  0.20931841387E+03  0.00000000000E+00 0. -1.
         21   -1    0    0  501  503 -0.00000000000E+00 -0.00000000000E+00 -0.82977993037E+03  0.82977993037E+03  0.00000000000E+00 0. -1.
    9000007    1    1    2  501    0  0.10904610263E+03 -0.12702151564E+02 -0.25980998951E+03  0.48944215981E+03  0.40000000000E+03 0. -1.
   -9000007    1    1    2    0  502 -0.10904610263E+03  0.12702151564E+02 -0.36065152699E+03  0.54965618443E+03  0.40000000000E+03 0. -1.
<mgrwt>
<rscale>  2 0.41479199E+03</rscale>
<asrwt>0</asrwt>
<pdfrwt beam="1">  1       21 0.32202834E-01 0.41479199E+03</pdfrwt>
<pdfrwt beam="2">  1       21 0.12765845E+00 0.41479199E+03</pdfrwt>
<totfact> 0.36984951E+03</totfact>
</mgrwt>
</event>
<event>
 4    1  0.4703494E-002  0.4189155E+03  0.7818608E-02  0.1037420E+00
         21   -1    0    0  503  502  0.00000000000E+00  0.00000000000E+00  0.36067340276E+03  0.36067340276E+03  0.00000000000E+00 0.  1.
         21   -1    0    0  501  503 -0.00000000000E+00 -0.00000000000E+00 -0.67762507369E+03  0.67762507369E+03  0.00000000000E+00 0.  1.
    9000007    1    1    2  501    0 -0.20677820362E+02 -0.12272994314E+03 -0.43414304764E+03  0.60329959142E+03  0.40000000000E+03 0.  1.
   -9000007    1    1    2    0  502  0.20677820362E+02  0.12272994314E+03  0.11719137671E+03  0.43499888502E+03  0.40000000000E+03 0.  1.
<mgrwt>
<rscale>  2 0.41891552E+03</rscale>
<asrwt>0</asrwt>
<pdfrwt beam="1">  1       21 0.55488216E-01 0.41891552E+03</pdfrwt>
<pdfrwt beam="2">  1       21 0.10425001E+00 0.41891552E+03</pdfrwt>
<totfact> 0.19850530E+03</totfact>
</mgrwt>
</event>
<event>
 4    1  0.4703494E-002  0.4050448E+03  0.7818608E-02  0.1042047E+00
         21   -1    0    0  501  502  0.00000000000E+00  0.00000000000E+00  0.61947730413E+03  0.61947730413E+03  0.00000000000E+00 0. -1.
         21   -1    0    0  502  503 -0.00000000000E+00 -0.00000000000E+00 -0.26503299212E+03  0.26503299212E+03  0.00000000000E+00 0. -1.
    9000007    1    1    2  501    0  0.62882818160E+02 -0.10345162937E+02  0.16523329479E+03  0.43745092630E+03  0.40000000000E+03 0.  1.
   -9000007    1    1    2    0  503 -0.62882818160E+02  0.10345162937E+02  0.18921101722E+03  0.44705936994E+03  0.40000000000E+03 0.  1.
<mgrwt>
<rscale>  2 0.40504478E+03</rscale>
<asrwt>0</asrwt>
<pdfrwt beam="1">  1       21 0.95304201E-01 0.40504478E+03</pdfrwt>
<pdfrwt beam="2">  1       21 0.40774306E-01 0.40504478E+03</pdfrwt>
<totfact> 0.47495136E+03</totfact>
</mgrwt>
</event>
<event>
 4    1  0.4703494E-002  0.4093615E+03  0.7818608E-02  0.1040585E+00
         21   -1    0    0  503  502  0.00000000000E+00  0.00000000000E+00  0.42464577720E+03  0.42464577720E+03  0.00000000000E+00 0. -1.
         21   -1    0    0  501  503 -0.00000000000E+00 -0.00000000000E+00 -0.50796122206E+03  0.50796122206E+03  0.00000000000E+00 0. -1.
    9000007    1    1    2  501    0  0.86539607788E+02  0.93678026813E+01 -0.26191646758E+03  0.48598055047E+03  0.40000000000E+03 0. -1.
   -9000007    1    1    2    0  502 -0.86539607788E+02 -0.93678026813E+01  0.17860102272E+03  0.44662644879E+03  0.40000000000E+03 0. -1.
<mgrwt>
<rscale>  2 0.40936153E+03</rscale>
<asrwt>0</asrwt>
<pdfrwt beam="1">  1       21 0.65330120E-01 0.40936153E+03</pdfrwt>
<pdfrwt beam="2">  1       21 0.78147880E-01 0.40936153E+03</pdfrwt>
<totfact> 0.27578247E+03</totfact>
</mgrwt>
</event>
<event>
 4    1  0.4703494E-002  0.7070202E+03  0.7818608E-02  0.9705302E-01
         21   -1    0    0  501  502  0.00000000000E+00  0.00000000000E+00  0.11459571918E+04  0.11459571918E+04  0.00000000000E+00 0.  1.
         21   -1    0    0  502  503 -0.00000000000E+00 -0.00000000000E+00 -0.43653139062E+03  0.43653139062E+03  0.00000000000E+00 0.  1.
    9000007    1    1    2  501    0  0.44401229224E+03  0.37779700980E+03  0.33322923617E+03  0.78161321644E+03  0.40000000000E+03 0.  1.
   -9000007    1    1    2    0  503 -0.44401229224E+03 -0.37779700980E+03  0.37619656498E+03  0.80087536594E+03  0.40000000000E+03 0.  1.
<mgrwt>
<rscale>  2 0.70702015E+03</rscale>
<asrwt>0</asrwt>
<pdfrwt beam="1">  1       21 0.17630110E+00 0.70702015E+03</pdfrwt>
<pdfrwt beam="2">  1       21 0.67158676E-01 0.70702015E+03</pdfrwt>
<totfact> 0.29081749E+02</totfact>
</mgrwt>
</event>
<event>
 4    1  0.4703494E-002  0.5167998E+03  0.7818608E-02  0.1009485E+00
         21   -1    0    0  503  502  0.00000000000E+00  0.00000000000E+00  0.42702522728E+03  0.42702522728E+03  0.00000000000E+00 0.  1.
         21   -1    0    0  501  503 -0.00000000000E+00 -0.00000000000E+00 -0.62793057154E+03  0.62793057154E+03  0.00000000000E+00 0.  1.
    9000007    1    1    2  501    0  0.27641631201E+03 -0.17514585996E+03 -0.13361953300E+03  0.53379418263E+03  0.40000000000E+03 0.  1.
   -9000007    1    1    2    0  502 -0.27641631201E+03  0.17514585996E+03 -0.67285811258E+02  0.52116161620E+03  0.40000000000E+03 0.  1.
<mgrwt>
<rscale>  2 0.51679982E+03</rscale>
<asrwt>0</asrwt>
<pdfrwt beam="1">  1       21 0.65696189E-01 0.51679982E+03</pdfrwt>
<pdfrwt beam="2">  1       21 0.96604703E-01 0.51679982E+03</pdfrwt>
<totfact> 0.15907186E+03</totfact>
</mgrwt>
</event>
<event>
 4    1  0.4703494E-002  0.1017365E+04  0.7818608E-02  0.9289701E-01
         21   -1    0    0  503  502  0.00000000000E+00  0.00000000000E+00  0.65903465225E+03  0.65903465225E+03  0.00000000000E+00 0.  1.
         21   -1    0    0  501  503 -0.00000000000E+00 -0.00000000000E+00 -0.17676536984E+04  0.17676536984E+04  0.00000000000E+00 0. -1.
    9000007    1    1    2  501    0  0.11591546965E+03 -0.92822173410E+03 -0.14912048097E+03  0.10282358200E+04  0.40000000000E+03 0.  1.
   -9000007    1    1    2    0  502 -0.11591546965E+03  0.92822173410E+03 -0.95949856514E+03  0.13984525306E+04  0.40000000000E+03 0. -1.
<mgrwt>
<rscale>  2 0.10173652E+04</rscale>
<asrwt>0</asrwt>
<pdfrwt beam="1">  1       21 0.10138995E+00 0.10173652E+04</pdfrwt>
<pdfrwt beam="2">  1       21 0.27194672E+00 0.10173652E+04</pdfrwt>
<totfact> 0.23434034E+01</totfact>
</mgrwt>
</event>
<event>
 4    1  0.4703494E-002  0.5208635E+03  0.7818608E-02  0.1008472E+00
         21   -1    0    0  503  502  0.00000000000E+00  0.00000000000E+00  0.30173008159E+03  0.30173008159E+03  0.00000000000E+00 0.  1.
         21   -1    0    0  501  503 -0.00000000000E+00 -0.00000000000E+00 -0.90738853043E+03  0.90738853043E+03  0.00000000000E+00 0.  1.
    9000007    1    1    2  501    0  0.32941408331E+03 -0.52774471107E+02 -0.36045622972E+03  0.63342519419E+03  0.40000000000E+03 0.  1.
   -9000007    1    1    2    0  502 -0.32941408331E+03  0.52774471107E+02 -0.24520221912E+03  0.57569341784E+03  0.40000000000E+03 0.  1.
<mgrwt>
<rscale>  2 0.52086350E+03</rscale>
<asrwt>0</asrwt>
<pdfrwt beam="1">  1       21 0.46420013E-01 0.52086350E+03</pdfrwt>
<pdfrwt beam="2">  1       21 0.13959824E+00 0.52086350E+03</pdfrwt>
<totfact> 0.13283454E+03</totfact>
</mgrwt>
</event>
<event>
 4    1  0.4703494E-002  0.5221489E+03  0.7818608E-02  0.1008154E+00
         21   -1    0    0  501  502  0.00000000000E+00  0.00000000000E+00  0.73408857102E+03  0.73408857102E+03  0.00000000000E+00 0. -1.
         21   -1    0    0  502  503 -0.00000000000E+00 -0.00000000000E+00 -0.45354531321E+03  0.45354531321E+03  0.00000000000E+00 0.  1.
    9000007    1    1    2  501    0 -0.69608933455E+02 -0.32832014035E+03  0.39299019919E+03  0.65351420401E+03  0.40000000000E+03 0. -1.
   -9000007    1    1    2    0  503  0.69608933455E+02  0.32832014035E+03 -0.11244694138E+03  0.53411968022E+03  0.40000000000E+03 0.  1.
<mgrwt>
<rscale>  2 0.52214894E+03</rscale>
<asrwt>0</asrwt>
<pdfrwt beam="1">  1       21 0.11293670E+00 0.52214894E+03</pdfrwt>
<pdfrwt beam="2">  1       21 0.69776202E-01 0.52214894E+03</pdfrwt>
<totfact> 0.94376459E+02</totfact>
</mgrwt>
</event>
<event>
 4    1  0.4703494E-002  0.6347180E+03  0.7818608E-02  0.9835885E-01
         21   -1    0    0  503  502  0.00000000000E+00  0.00000000000E+00  0.84453666066E+03  0.84453666066E+03  0.00000000000E+00 0.  1.
         21   -1    0    0  501  503 -0.00000000000E+00 -0.00000000000E+00 -0.48213484633E+03  0.48213484633E+03  0.00000000000E+00 0.  1.
    9000007    1    1    2  501    0 -0.17920089543E+03 -0.45907955215E+03  0.24947527099E+03  0.68198600202E+03  0.40000000000E+03 0.  1.
   -9000007    1    1    2    0  502  0.17920089543E+03  0.45907955215E+03  0.11292654334E+03  0.64468550497E+03  0.40000000000E+03 0.  1.
<mgrwt>
<rscale>  2 0.63471804E+03</rscale>
<asrwt>0</asrwt>
<pdfrwt beam="1">  1       21 0.12992872E+00 0.63471804E+03</pdfrwt>
<pdfrwt beam="2">  1       21 0.74174592E-01 0.63471804E+03</pdfrwt>
<totfact> 0.55229125E+02</totfact>
</mgrwt>
</event>
<event>
 4    1  0.4703494E-002  0.5156239E+03  0.7818608E-02  0.1009779E+00
         21   -1    0    0  503  502  0.00000000000E+00  0.00000000000E+00  0.60826415879E+03  0.60826415879E+03  0.00000000000E+00 0. -1.
         21   -1    0    0  501  503 -0.00000000000E+00 -0.00000000000E+00 -0.47898766268E+03  0.47898766268E+03  0.00000000000E+00 0. -1.
    9000007    1    1    2  501    0  0.16764630197E+03  0.27885959644E+03  0.22541296364E+03  0.56274235780E+03  0.40000000000E+03 0. -1.
   -9000007    1    1    2    0  502 -0.16764630197E+03 -0.27885959644E+03 -0.96136467527E+02  0.52450946367E+03  0.40000000000E+03 0. -1.
<mgrwt>
<rscale>  2 0.51562385E+03</rscale>
<asrwt>0</asrwt>
<pdfrwt beam="1">  1       21 0.93579101E-01 0.51562385E+03</pdfrwt>
<pdfrwt beam="2">  1       21 0.73690410E-01 0.51562385E+03</pdfrwt>
<totfact> 0.13257669E+03</totfact>
</mgrwt>
</event>
<event>
 4    1  0.4703494E-002  0.4870213E+03  0.7818608E-02  0.1017223E+00
         21   -1    0    0  503  502  0.00000000000E+00  0.00000000000E+00  0.21780926290E+03  0.21780926290E+03  0.00000000000E+00 0. -1.
         21   -1    0    0  501  503 -0.00000000000E+00 -0.00000000000E+00 -0.11475089967E+04  0.11475089967E+04  0.00000000000E+00 0.  1.
    9000007    1    1    2  501    0  0.84896744203E+02 -0.26454171220E+03 -0.61902490269E+03  0.78764306943E+03  0.40000000000E+03 0.  1.
   -9000007    1    1    2    0  502 -0.84896744203E+02  0.26454171220E+03 -0.31067483116E+03  0.57767519021E+03  0.40000000000E+03 0. -1.
<mgrwt>
<rscale>  2 0.48702133E+03</rscale>
<asrwt>0</asrwt>
<pdfrwt beam="1">  1       21 0.33509117E-01 0.48702133E+03</pdfrwt>
<pdfrwt beam="2">  1       21 0.17653985E+00 0.48702133E+03</pdfrwt>
<totfact> 0.13717619E+03</totfact>
</mgrwt>
</event>
<event>
 4    1  0.4703494E-002  0.6526756E+03  0.7818608E-02  0.9801771E-01
         21   -1    0    0  501  502  0.00000000000E+00  0.00000000000E+00  0.22847531827E+04  0.22847531827E+04  0.00000000000E+00 0. -1.
         21   -1    0    0  502  503 -0.00000000000E+00 -0.00000000000E+00 -0.22446556089E+03  0.22446556089E+03  0.00000000000E+00 0. -1.
    9000007    1    1    2  501    0 -0.48380232977E+03  0.17866386781E+03  0.15464784567E+04  0.16785651876E+04  0.40000000000E+03 0. -1.
   -9000007    1    1    2    0  503  0.48380232977E+03 -0.17866386781E+03  0.51380916514E+03  0.83065355602E+03  0.40000000000E+03 0. -1.
<mgrwt>
<rscale>  2 0.65267563E+03</rscale>
<asrwt>0</asrwt>
<pdfrwt beam="1">  1       21 0.35150047E+00 0.65267563E+03</pdfrwt>
<pdfrwt beam="2">  1       21 0.34533165E-01 0.65267563E+03</pdfrwt>
<totfact> 0.94407778E+01</totfact>
</mgrwt>
</event>
<event>
 4    1  0.4703494E-002  0.4553670E+03  0.7818608E-02  0.1026134E+00
         21   -1    0    0  501  502  0.00000000000E+00  0.00000000000E+00  0.51462471211E+03  0.51462471211E+03  0.00000000000E+00 0. -1.
         21   -1    0    0  502  503 -0.00000000000E+00 -0.00000000000E+00 -0.40331656951E+03  0.40331656951E+03  0.00000000000E+00 0.  1.
    9000007    1    1    2  501    0  0.17823184036E+03 -0.12487000892E+03  0.69814357627E+02  0.46068769527E+03  0.40000000000E+03 0.  1.
   -9000007    1    1    2    0  503 -0.17823184036E+03  0.12487000892E+03  0.41493784975E+02  0.45725358636E+03  0.40000000000E+03 0. -1.
<mgrwt>
<rscale>  2 0.45536700E+03</rscale>
<asrwt>0</asrwt>
<pdfrwt beam="1">  1       21 0.79173033E-01 0.45536700E+03</pdfrwt>
<pdfrwt beam="2">  1       21 0.62048703E-01 0.45536700E+03</pdfrwt>
<totfact> 0.29488408E+03</totfact>
</mgrwt>
</event>
<event>
 4    1  0.4703494E-002  0.5146168E+03  0.7818608E-02  0.1010033E+00
         21   -1    0    0  503  502  0.00000000000E+00  0.00000000000E+00  0.80794161595E+03  0.80794161595E+03  0.00000000000E+00 0.  1.
         21   -1    0    0  501  503 -0.00000000000E+00 -0.00000000000E+00 -0.40471640034E+03  0.40471640034E+03  0.00000000000E+00 0.  1.
    9000007    1    1    2  501    0 -0.31979140724E+03  0.50635307020E+02  0.46596733664E+03  0.69423053611E+03  0.40000000000E+03 0.  1.
   -9000007    1    1    2    0  502  0.31979140724E+03 -0.50635307020E+02 -0.62742121025E+02  0.51842748018E+03  0.40000000000E+03 0.  1.
<mgrwt>
<rscale>  2 0.51461683E+03</rscale>
<asrwt>0</asrwt>
<pdfrwt beam="1">  1       21 0.12429871E+00 0.51461683E+03</pdfrwt>
<pdfrwt beam="2">  1       21 0.62264062E-01 0.51461683E+03</pdfrwt>
<totfact> 0.95691883E+02</totfact>
</mgrwt>
</event>
<event>
 4    1  0.4703494E-002  0.5113984E+03  0.7818608E-02  0.1010846E+00
         21   -1    0    0  503  502  0.00000000000E+00  0.00000000000E+00  0.65697180178E+03  0.65697180178E+03  0.00000000000E+00 0. -1.
         21   -1    0    0  501  503 -0.00000000000E+00 -0.00000000000E+00 -0.14363499266E+04  0.14363499266E+04  0.00000000000E+00 0. -1.
    9000007    1    1    2  501    0  0.28933203380E+03 -0.13347380889E+03 -0.12795675190E+04  0.13779772564E+04  0.40000000000E+03 0. -1.
   -9000007    1    1    2    0  502 -0.28933203380E+03  0.13347380889E+03  0.50018939423E+03  0.71534447195E+03  0.40000000000E+03 0. -1.
<mgrwt>
<rscale>  2 0.51139836E+03</rscale>
<asrwt>0</asrwt>
<pdfrwt beam="1">  1       21 0.10107259E+00 0.51139836E+03</pdfrwt>
<pdfrwt beam="2">  1       21 0.22097691E+00 0.51139836E+03</pdfrwt>
<totfact> 0.60049390E+01</totfact>
</mgrwt>
</event>
<event>
 4    1  0.4703494E-002  0.4248514E+03  0.7818608E-02  0.1035499E+00
         21   -1    0    0  503  502  0.00000000000E+00  0.00000000000E+00  0.54821946213E+03  0.54821946213E+03  0.00000000000E+00 0.  1.
         21   -1    0    0  501  503 -0.00000000000E+00 -0.00000000000E+00 -0.62375881910E+03  0.62375881910E+03  0.00000000000E+00 0. -1.
    9000007    1    1    2  501    0 -0.42864202455E+02  0.13660661120E+03 -0.44042533324E+03  0.61194213798E+03  0.40000000000E+03 0. -1.
   -9000007    1    1    2    0  502  0.42864202455E+02 -0.13660661120E+03  0.36488597626E+03  0.56003614325E+03  0.40000000000E+03 0.  1.
<mgrwt>
<rscale>  2 0.42485139E+03</rscale>
<asrwt>0</asrwt>
<pdfrwt beam="1">  1       21 0.84341456E-01 0.42485139E+03</pdfrwt>
<pdfrwt beam="2">  1       21 0.95962895E-01 0.42485139E+03</pdfrwt>
<totfact> 0.94711305E+02</totfact>
</mgrwt>
</event>
<event>
 4    1  0.4703494E-002  0.4110430E+03  0.7818608E-02  0.1040022E+00
         21   -1    0    0  501  502  0.00000000000E+00  0.00000000000E+00  0.11235718197E+04  0.11235718197E+04  0.00000000000E+00 0.  1.
         21   -1    0    0  502  503 -0.00000000000E+00 -0.00000000000E+00 -0.31362659639E+03  0.31362659639E+03  0.00000000000E+00 0.  1.
    9000007    1    1    2  501    0 -0.73075669228E+02 -0.60135683418E+02  0.92342622806E+03  0.10107780926E+04  0.40000000000E+03 0.  1.
   -9000007    1    1    2    0  503  0.73075669228E+02  0.60135683418E+02 -0.11348100473E+03  0.42642032349E+03  0.40000000000E+03 0.  1.
<mgrwt>
<rscale>  2 0.41104301E+03</rscale>
<asrwt>0</asrwt>
<pdfrwt beam="1">  1       21 0.17285720E+00 0.41104301E+03</pdfrwt>
<pdfrwt beam="2">  1       21 0.48250246E-01 0.41104301E+03</pdfrwt>
<totfact> 0.71100178E+02</totfact>
</mgrwt>
</event>
<event>
 4    1  0.4703494E-002  0.4973957E+03  0.7818608E-02  0.1014461E+00
         21   -1    0    0  503  502  0.00000000000E+00  0.00000000000E+00  0.55890086233E+03  0.55890086233E+03  0.00000000000E+00 0. -1.
         21   -1    0    0  501  503 -0.00000000000E+00 -0.00000000000E+00 -0.50593149412E+03  0.50593149412E+03  0.00000000000E+00 0.  1.
    9000007    1    1    2  501    0 -0.12566018579E+03  0.26760410055E+03 -0.16179923564E+03  0.52305012148E+03  0.40000000000E+03 0.  1.
   -9000007    1    1    2    0  502  0.12566018579E+03 -0.26760410055E+03  0.21476860385E+03  0.54178223497E+03  0.40000000000E+03 0. -1.
<mgrwt>
<rscale>  2 0.49739565E+03</rscale>
<asrwt>0</asrwt>
<pdfrwt beam="1">  1       21 0.85984748E-01 0.49739565E+03</pdfrwt>
<pdfrwt beam="2">  1       21 0.77835615E-01 0.49739565E+03</pdfrwt>
<totfact> 0.14387271E+03</totfact>
</mgrwt>
</event>
<event>
 4    1  0.4703494E-002  0.4609906E+03  0.7818608E-02  0.1024494E+00
         21   -1    0    0  501  502  0.00000000000E+00  0.00000000000E+00  0.16506254617E+04  0.16506254617E+04  0.00000000000E+00 0.  1.
         21   -1    0    0  502  503 -0.00000000000E+00 -0.00000000000E+00 -0.17921368268E+03  0.17921368268E+03  0.00000000000E+00 0. -1.
    9000007    1    1    2  501    0  0.19858005453E+03 -0.11436023231E+03  0.12212198665E+04  0.13053314763E+04  0.40000000000E+03 0.  1.
   -9000007    1    1    2    0  503 -0.19858005453E+03  0.11436023231E+03  0.25019191260E+03  0.52450766812E+03  0.40000000000E+03 0. -1.
<mgrwt>
<rscale>  2 0.46099056E+03</rscale>
<asrwt>0</asrwt>
<pdfrwt beam="1">  1       21 0.25394237E+00 0.46099056E+03</pdfrwt>
<pdfrwt beam="2">  1       21 0.27571337E-01 0.46099056E+03</pdfrwt>
<totfact> 0.64009653E+02</totfact>
</mgrwt>
</event>
<event>
 4    1  0.4703494E-002  0.4705460E+03  0.7818608E-02  0.1021766E+00
         21   -1    0    0  503  502  0.00000000000E+00  0.00000000000E+00  0.69219240742E+03  0.69219240742E+03  0.00000000000E+00 0. -1.
         21   -1    0    0  501  503 -0.00000000000E+00 -0.00000000000E+00 -0.48296531088E+03  0.48296531088E+03  0.00000000000E+00 0.  1.
    9000007    1    1    2  501    0  0.51429087009E+02  0.24242225051E+03 -0.23683498372E+03  0.52678677664E+03  0.40000000000E+03 0.  1.
   -9000007    1    1    2    0  502 -0.51429087009E+02 -0.24242225051E+03  0.44606208027E+03  0.64837094166E+03  0.40000000000E+03 0. -1.
<mgrwt>
<rscale>  2 0.47054596E+03</rscale>
<asrwt>0</asrwt>
<pdfrwt beam="1">  1       21 0.10649114E+00 0.47054596E+03</pdfrwt>
<pdfrwt beam="2">  1       21 0.74302355E-01 0.47054596E+03</pdfrwt>
<totfact> 0.96563866E+02</totfact>
</mgrwt>
</event>
<event>
 4    1  0.4703494E-002  0.6119542E+03  0.7818608E-02  0.9880911E-01
         21   -1    0    0  501  502  0.00000000000E+00  0.00000000000E+00  0.25922387442E+03  0.25922387442E+03  0.00000000000E+00 0.  1.
         21   -1    0    0  502  503 -0.00000000000E+00 -0.00000000000E+00 -0.14514591050E+04  0.14514591050E+04  0.00000000000E+00 0.  1.
    9000007    1    1    2  501    0  0.34087701775E+03 -0.31351365509E+03 -0.65469900088E+03  0.89616892097E+03  0.40000000000E+03 0. -1.
   -9000007    1    1    2    0  503 -0.34087701775E+03  0.31351365509E+03 -0.53753622965E+03  0.81451405841E+03  0.40000000000E+03 0. -1.
<mgrwt>
<rscale>  2 0.61195421E+03</rscale>
<asrwt>0</asrwt>
<pdfrwt beam="1">  1       21 0.39880596E-01 0.61195421E+03</pdfrwt>
<pdfrwt beam="2">  1       21 0.22330140E+00 0.61195421E+03</pdfrwt>
<totfact> 0.44322640E+02</totfact>
</mgrwt>
</event>
<event>
 4    1  0.4703494E-002  0.5109492E+03  0.7818608E-02  0.1010960E+00
         21   -1    0    0  503  502  0.00000000000E+00  0.00000000000E+00  0.25161537405E+03  0.25161537405E+03  0.00000000000E+00 0.  1.
         21   -1    0    0  501  503 -0.00000000000E+00 -0.00000000000E+00 -0.11596962937E+04  0.11596962937E+04  0.00000000000E+00 0. -1.
    9000007    1    1    2  501    0  0.28778487189E+03  0.13508863280E+03 -0.22504767233E+03  0.55831489862E+03  0.40000000000E+03 0. -1.
   -9000007    1    1    2    0  502 -0.28778487189E+03 -0.13508863280E+03 -0.68303324727E+03  0.85299676909E+03  0.40000000000E+03 0.  1.
<mgrwt>
<rscale>  2 0.51094919E+03</rscale>
<asrwt>0</asrwt>
<pdfrwt beam="1">  1       21 0.38710058E-01 0.51094919E+03</pdfrwt>
<pdfrwt beam="2">  1       21 0.17841481E+00 0.51094919E+03</pdfrwt>
<totfact> 0.98242878E+02</totfact>
</mgrwt>
</event>
<event>
 4    1  0.4703494E-002  0.4143939E+03  0.7818608E-02  0.1038906E+00
         21   -1    0    0  501  502  0.00000000000E+00  0.00000000000E+00  0.20159242670E+03  0.20159242670E+03  0.00000000000E+00 0.  1.
         21   -1    0    0  502  503 -0.00000000000E+00 -0.00000000000E+00 -0.85852393879E+03  0.85852393879E+03  0.00000000000E+00 0.  1.
    9000007    1    1    2  501    0 -0.74593902122E+02  0.78473425513E+02 -0.28165862359E+03  0.50105280060E+03  0.40000000000E+03 0.  1.
   -9000007    1    1    2    0  503  0.74593902122E+02 -0.78473425513E+02 -0.37527288850E+03  0.55906356489E+03  0.40000000000E+03 0.  1.
<mgrwt>
<rscale>  2 0.41439393E+03</rscale>
<asrwt>0</asrwt>
<pdfrwt beam="1">  1       21 0.31014220E-01 0.41439393E+03</pdfrwt>
<pdfrwt beam="2">  1       21 0.13208061E+00 0.41439393E+03</pdfrwt>
<totfact> 0.36510734E+03</totfact>
</mgrwt>
</event>
<event>
 4    1  0.4703494E-002  0.4120394E+03  0.7818608E-02  0.1039689E+00
         21   -1    0    0  503  502  0.00000000000E+00  0.00000000000E+00  0.62659484357E+03  0.62659484357E+03  0.00000000000E+00 0.  1.
         21   -1    0    0  501  503 -0.00000000000E+00 -0.00000000000E+00 -0.37570151400E+03  0.37570151400E+03  0.00000000000E+00 0.  1.
    9000007    1    1    2  501    0 -0.90904468892E+02  0.38895335938E+02  0.39006678591E+03  0.56738749289E+03  0.40000000000E+03 0.  1.
   -9000007    1    1    2    0  502  0.90904468892E+02 -0.38895335938E+02 -0.13917345634E+03  0.43490886467E+03  0.40000000000E+03 0.  1.
<mgrwt>
<rscale>  2 0.41203940E+03</rscale>
<asrwt>0</asrwt>
<pdfrwt beam="1">  1       21 0.96399207E-01 0.41203940E+03</pdfrwt>
<pdfrwt beam="2">  1       21 0.57800233E-01 0.41203940E+03</pdfrwt>
<totfact> 0.22035201E+03</totfact>
</mgrwt>
</event>
<event>
 4    1  0.4703494E-002  0.4163306E+03  0.7818608E-02  0.1038267E+00
         21   -1    0    0  501  502  0.00000000000E+00  0.00000000000E+00  0.10061419834E+04  0.10061419834E+04  0.00000000000E+00 0. -1.
         21   -1    0    0  502  503 -0.00000000000E+00 -0.00000000000E+00 -0.17992293356E+03  0.17992293356E+03  0.00000000000E+00 0. -1.
    9000007    1    1    2  501    0 -0.11176250726E+03 -0.28988729164E+02  0.53539110115E+03  0.67821444664E+03  0.40000000000E+03 0.  1.
   -9000007    1    1    2    0  503  0.11176250726E+03  0.28988729164E+02  0.29082794865E+03  0.50785047028E+03  0.40000000000E+03 0.  1.
<mgrwt>
<rscale>  2 0.41633064E+03</rscale>
<asrwt>0</asrwt>
<pdfrwt beam="1">  1       21 0.15479107E+00 0.41633064E+03</pdfrwt>
<pdfrwt beam="2">  1       21 0.27680452E-01 0.41633064E+03</pdfrwt>
<totfact> 0.29919202E+03</totfact>
</mgrwt>
</event>
<event>
 4    1  0.4703494E-002  0.4861022E+03  0.7818608E-02  0.1017471E+00
         21   -1    0    0  503  502  0.00000000000E+00  0.00000000000E+00  0.51331554527E+03  0.51331554527E+03  0.00000000000E+00 0.  1.
         21   -1    0    0  501  503 -0.00000000000E+00 -0.00000000000E+00 -0.48510200918E+03  0.48510200918E+03  0.00000000000E+00 0. -1.
    9000007    1    1    2  501    0  0.27152037177E+03 -0.50715231333E+02  0.12691287086E+03  0.50239648065E+03  0.40000000000E+03 0.  1.
   -9000007    1    1    2    0  502 -0.27152037177E+03  0.50715231333E+02 -0.98699334767E+02  0.49602107381E+03  0.40000000000E+03 0. -1.
<mgrwt>
<rscale>  2 0.48610220E+03</rscale>
<asrwt>0</asrwt>
<pdfrwt beam="1">  1       21 0.78971623E-01 0.48610220E+03</pdfrwt>
<pdfrwt beam="2">  1       21 0.74631078E-01 0.48610220E+03</pdfrwt>
<totfact> 0.19393255E+03</totfact>
</mgrwt>
</event>
<event>
 4    1  0.4703494E-002  0.5301027E+03  0.7818608E-02  0.1006207E+00
         21   -1    0    0  501  502  0.00000000000E+00  0.00000000000E+00  0.16783754098E+03  0.16783754098E+03  0.00000000000E+00 0. -1.
         21   -1    0    0  502  503 -0.00000000000E+00 -0.00000000000E+00 -0.26082602994E+04  0.26082602994E+04  0.00000000000E+00 0. -1.
    9000007    1    1    2  501    0  0.33750964018E+03 -0.84238271844E+02 -0.38960423200E+03  0.65787559709E+03  0.40000000000E+03 0. -1.
   -9000007    1    1    2    0  503 -0.33750964018E+03  0.84238271844E+02 -0.20508185264E+04  0.21182222433E+04  0.40000000000E+03 0. -1.
<mgrwt>
<rscale>  2 0.53010267E+03</rscale>
<asrwt>0</asrwt>
<pdfrwt beam="1">  1       21 0.25821161E-01 0.53010267E+03</pdfrwt>
<pdfrwt beam="2">  1       21 0.40127080E+00 0.53010267E+03</pdfrwt>
<totfact> 0.86950166E+01</totfact>
</mgrwt>
</event>
<event>
 4    1  0.4703494E-002  0.4416001E+03  0.7818608E-02  0.1030257E+00
         21   -1    0    0  501  502  0.00000000000E+00  0.00000000000E+00  0.76448963340E+03  0.76448963340E+03  0.00000000000E+00 0.  1.
         21   -1    0    0  502  503 -0.00000000000E+00 -0.00000000000E+00 -0.27834454444E+03  0.27834454444E+03  0.00000000000E+00 0.  1.
    9000007    1    1    2  501    0 -0.39702812313E+02 -0.18285055126E+03  0.39379735456E+03  0.59168149697E+03  0.40000000000E+03 0. -1.
   -9000007    1    1    2    0  503  0.39702812313E+02  0.18285055126E+03  0.92347734404E+02  0.45115268086E+03  0.40000000000E+03 0. -1.
<mgrwt>
<rscale>  2 0.44160009E+03</rscale>
<asrwt>0</asrwt>
<pdfrwt beam="1">  1       21 0.11761379E+00 0.44160009E+03</pdfrwt>
<pdfrwt beam="2">  1       21 0.42822238E-01 0.44160009E+03</pdfrwt>
<totfact> 0.25249128E+03</totfact>
</mgrwt>
</event>
<event>
 4    1  0.4703494E-002  0.4422601E+03  0.7818608E-02  0.1030056E+00
         21   -1    0    0  503  502  0.00000000000E+00  0.00000000000E+00  0.41772582013E+03  0.41772582013E+03  0.00000000000E+00 0.  1.
         21   -1    0    0  501  503 -0.00000000000E+00 -0.00000000000E+00 -0.95398350519E+03  0.95398350519E+03  0.00000000000E+00 0.  1.
    9000007    1    1    2  501    0 -0.18653779077E+03 -0.28242894731E+02  0.22127483538E+03  0.49452660319E+03  0.40000000000E+03 0.  1.
   -9000007    1    1    2    0  502  0.18653779077E+03  0.28242894731E+02 -0.75753252044E+03  0.87718272214E+03  0.40000000000E+03 0.  1.
<mgrwt>
<rscale>  2 0.44226011E+03</rscale>
<asrwt>0</asrwt>
<pdfrwt beam="1">  1       21 0.64265512E-01 0.44226011E+03</pdfrwt>
<pdfrwt beam="2">  1       21 0.14676669E+00 0.44226011E+03</pdfrwt>
<totfact> 0.59339634E+02</totfact>
</mgrwt>
</event>
<event>
 4    1  0.4703494E-002  0.4873529E+03  0.7818608E-02  0.1017134E+00
         21   -1    0    0  501  502  0.00000000000E+00  0.00000000000E+00  0.31065127730E+03  0.31065127730E+03  0.00000000000E+00 0. -1.
         21   -1    0    0  502  503 -0.00000000000E+00 -0.00000000000E+00 -0.94917132805E+03  0.94917132805E+03  0.00000000000E+00 0. -1.
    9000007    1    1    2  501    0  0.21609097042E+03  0.17554932540E+03 -0.41460676643E+02  0.48911334152E+03  0.40000000000E+03 0. -1.
   -9000007    1    1    2    0  503 -0.21609097042E+03 -0.17554932540E+03 -0.59705937410E+03  0.77070926383E+03  0.40000000000E+03 0. -1.
<mgrwt>
<rscale>  2 0.48735292E+03</rscale>
<asrwt>0</asrwt>
<pdfrwt beam="1">  1       21 0.47792505E-01 0.48735292E+03</pdfrwt>
<pdfrwt beam="2">  1       21 0.14602635E+00 0.48735292E+03</pdfrwt>
<totfact> 0.11203544E+03</totfact>
</mgrwt>
</event>
<event>
 4    1  0.4703494E-002  0.4264886E+03  0.7818608E-02  0.1034975E+00
         21   -1    0    0  501  502  0.00000000000E+00  0.00000000000E+00  0.19813163490E+03  0.19813163490E+03  0.00000000000E+00 0. -1.
         21   -1    0    0  502  503 -0.00000000000E+00 -0.00000000000E+00 -0.10654118826E+04  0.10654118826E+04  0.00000000000E+00 0. -1.
    9000007    1    1    2  501    0  0.14686175536E+03 -0.18004991650E+02 -0.66860899296E+03  0.79305141093E+03  0.40000000000E+03 0.  1.
   -9000007    1    1    2    0  503 -0.14686175536E+03  0.18004991650E+02 -0.19867125478E+03  0.47049210662E+03  0.40000000000E+03 0.  1.
<mgrwt>
<rscale>  2 0.42648863E+03</rscale>
<asrwt>0</asrwt>
<pdfrwt beam="1">  1       21 0.30481789E-01 0.42648863E+03</pdfrwt>
<pdfrwt beam="2">  1       21 0.16390952E+00 0.42648863E+03</pdfrwt>
<totfact> 0.21006509E+03</totfact>
</mgrwt>
</event>
<event>
 4    1  0.4703494E-002  0.4089446E+03  0.7818608E-02  0.1040726E+00
         21   -1    0    0  501  502  0.00000000000E+00  0.00000000000E+00  0.88312990060E+03  0.88312990060E+03  0.00000000000E+00 0.  1.
         21   -1    0    0  502  503 -0.00000000000E+00 -0.00000000000E+00 -0.26215779564E+03  0.26215779564E+03  0.00000000000E+00 0.  1.
    9000007    1    1    2  501    0 -0.48268262985E+02  0.70042010182E+02  0.61223188489E+03  0.73624967863E+03  0.40000000000E+03 0.  1.
   -9000007    1    1    2    0  503  0.48268262985E+02 -0.70042010182E+02  0.87402200711E+01  0.40903801761E+03  0.40000000000E+03 0.  1.
<mgrwt>
<rscale>  2 0.40894463E+03</rscale>
<asrwt>0</asrwt>
<pdfrwt beam="1">  1       21 0.13586614E+00 0.40894463E+03</pdfrwt>
<pdfrwt beam="2">  1       21 0.40331969E-01 0.40894463E+03</pdfrwt>
<totfact> 0.19979534E+03</totfact>
</mgrwt>
</event>
<event>
 4    1  0.4703494E-002  0.5076038E+03  0.7818608E-02  0.1011813E+00
         21   -1    0    0  501  502  0.00000000000E+00  0.00000000000E+00  0.93915233504E+03  0.93915233504E+03  0.00000000000E+00 0.  1.
         21   -1    0    0  502  503 -0.00000000000E+00 -0.00000000000E+00 -0.33288394371E+03  0.33288394371E+03  0.00000000000E+00 0.  1.
    9000007    1    1    2  501    0  0.25105988974E+03 -0.18609285555E+03  0.56982406833E+03  0.76312586640E+03  0.40000000000E+03 0.  1.
   -9000007    1    1    2    0  503 -0.25105988974E+03  0.18609285555E+03  0.36444323003E+02  0.50891041235E+03  0.40000000000E+03 0.  1.
<mgrwt>
<rscale>  2 0.50760380E+03</rscale>
<asrwt>0</asrwt>
<pdfrwt beam="1">  1       21 0.14448497E+00 0.50760380E+03</pdfrwt>
<pdfrwt beam="2">  1       21 0.51212915E-01 0.50760380E+03</pdfrwt>
<totfact> 0.98754798E+02</totfact>
</mgrwt>
</event>
<event>
 4    1  0.4703494E-002  0.4081562E+03  0.7818608E-02  0.1040992E+00
         21   -1    0    0  503  502  0.00000000000E+00  0.00000000000E+00  0.24644211964E+04  0.24644211964E+04  0.00000000000E+00 0. -1.
         21   -1    0    0  501  503 -0.00000000000E+00 -0.00000000000E+00 -0.12710879502E+03  0.12710879502E+03  0.00000000000E+00 0. -1.
    9000007    1    1    2  501    0 -0.44255324616E+02  0.68065495905E+02  0.28204319896E+03  0.49612479435E+03  0.40000000000E+03 0. -1.
   -9000007    1    1    2    0  502  0.44255324616E+02 -0.68065495905E+02  0.20552692024E+04  0.20954051971E+04  0.40000000000E+03 0. -1.
<mgrwt>
<rscale>  2 0.40815615E+03</rscale>
<asrwt>0</asrwt>
<pdfrwt beam="1">  1       21 0.37914169E+00 0.40815615E+03</pdfrwt>
<pdfrwt beam="2">  1       21 0.19555201E-01 0.40815615E+03</pdfrwt>
<totfact> 0.22245483E+02</totfact>
</mgrwt>
</event>
<event>
 4    1  0.4703494E-002  0.4106588E+03  0.7818608E-02  0.1040150E+00
         21   -1    0    0  501  502  0.00000000000E+00  0.00000000000E+00  0.62068727845E+03  0.62068727845E+03  0.00000000000E+00 0. -1.
         21   -1    0    0  502  503 -0.00000000000E+00 -0.00000000000E+00 -0.37974618278E+03  0.37974618278E+03  0.00000000000E+00 0. -1.
    9000007    1    1    2  501    0 -0.89364925258E+02  0.25584309415E+02 -0.14634829722E+03  0.43595695986E+03  0.40000000000E+03 0. -1.
   -9000007    1    1    2    0  503  0.89364925258E+02 -0.25584309415E+02  0.38728939288E+03  0.56447650137E+03  0.40000000000E+03 0. -1.
<mgrwt>
<rscale>  2 0.41065880E+03</rscale>
<asrwt>0</asrwt>
<pdfrwt beam="1">  1       21 0.95490350E-01 0.41065880E+03</pdfrwt>
<pdfrwt beam="2">  1       21 0.58422490E-01 0.41065880E+03</pdfrwt>
<totfact> 0.22034391E+03</totfact>
</mgrwt>
</event>
<event>
 4    1  0.4703494E-002  0.4621394E+03  0.7818608E-02  0.1024163E+00
         21   -1    0    0  503  502  0.00000000000E+00  0.00000000000E+00  0.22280051591E+03  0.22280051591E+03  0.00000000000E+00 0. -1.
         21   -1    0    0  501  503 -0.00000000000E+00 -0.00000000000E+00 -0.10779678190E+04  0.10779678190E+04  0.00000000000E+00 0. -1.
    9000007    1    1    2  501    0 -0.14254467201E+03 -0.18235627361E+03 -0.64402566090E+03  0.79268016624E+03  0.40000000000E+03 0. -1.
   -9000007    1    1    2    0  502  0.14254467201E+03  0.18235627361E+03 -0.21114164214E+03  0.50808816862E+03  0.40000000000E+03 0. -1.
<mgrwt>
<rscale>  2 0.46213937E+03</rscale>
<asrwt>0</asrwt>
<pdfrwt beam="1">  1       21 0.34277003E-01 0.46213937E+03</pdfrwt>
<pdfrwt beam="2">  1       21 0.16584120E+00 0.46213937E+03</pdfrwt>
<totfact> 0.15830760E+03</totfact>
</mgrwt>
</event>
<event>
 4    1  0.4703494E-002  0.4225054E+03  0.7818608E-02  0.1036254E+00
         21   -1    0    0  503  502  0.00000000000E+00  0.00000000000E+00  0.14064962464E+03  0.14064962464E+03  0.00000000000E+00 0. -1.
         21   -1    0    0  501  503 -0.00000000000E+00 -0.00000000000E+00 -0.20819045854E+04  0.20819045854E+04  0.00000000000E+00 0. -1.
    9000007    1    1    2  501    0  0.43483932674E+02  0.12891829937E+03 -0.16649505330E+04  0.17177226370E+04  0.40000000000E+03 0. -1.
   -9000007    1    1    2    0  502 -0.43483932674E+02 -0.12891829937E+03 -0.27630442768E+03  0.50483157297E+03  0.40000000000E+03 0. -1.
<mgrwt>
<rscale>  2 0.42250536E+03</rscale>
<asrwt>0</asrwt>
<pdfrwt beam="1">  1       21 0.21638403E-01 0.42250536E+03</pdfrwt>
<pdfrwt beam="2">  1       21 0.32029302E+00 0.42250536E+03</pdfrwt>
<totfact> 0.41658750E+02</totfact>
</mgrwt>
</event>
<event>
 4    1  0.4703494E-002  0.5472324E+03  0.7818608E-02  0.1002137E+00
         21   -1    0    0  503  502  0.00000000000E+00  0.00000000000E+00  0.28003359805E+03  0.28003359805E+03  0.00000000000E+00 0.  1.
         21   -1    0    0  501  503 -0.00000000000E+00 -0.00000000000E+00 -0.11736677527E+04  0.11736677527E+04  0.00000000000E+00 0. -1.
    9000007    1    1    2  501    0 -0.22166343657E+03  0.30054715425E+03 -0.66347883524E+03  0.86003920600E+03  0.40000000000E+03 0. -1.
   -9000007    1    1    2    0  502  0.22166343657E+03 -0.30054715425E+03 -0.23015531937E+03  0.59366214472E+03  0.40000000000E+03 0.  1.
<mgrwt>
<rscale>  2 0.54723237E+03</rscale>
<asrwt>0</asrwt>
<pdfrwt beam="1">  1       21 0.43082092E-01 0.54723237E+03</pdfrwt>
<pdfrwt beam="2">  1       21 0.18056427E+00 0.54723237E+03</pdfrwt>
<totfact> 0.74939146E+02</totfact>
</mgrwt>
</event>
<event>
 4    1  0.4703494E-002  0.5151295E+03  0.7818608E-02  0.1009904E+00
         21   -1    0    0  501  502  0.00000000000E+00  0.00000000000E+00  0.47474981141E+03  0.47474981141E+03  0.00000000000E+00 0.  1.
         21   -1    0    0  502  503 -0.00000000000E+00 -0.00000000000E+00 -0.13955701799E+04  0.13955701799E+04  0.00000000000E+00 0.  1.
    9000007    1    1    2  501    0  0.31930545112E+03  0.58330177651E+02  0.26365206031E+03  0.57868021363E+03  0.40000000000E+03 0.  1.
   -9000007    1    1    2    0  503 -0.31930545112E+03 -0.58330177651E+02 -0.11844724288E+04  0.12916397777E+04  0.40000000000E+03 0.  1.
<mgrwt>
<rscale>  2 0.51512948E+03</rscale>
<asrwt>0</asrwt>
<pdfrwt beam="1">  1       21 0.73038433E-01 0.51512948E+03</pdfrwt>
<pdfrwt beam="2">  1       21 0.21470310E+00 0.51512948E+03</pdfrwt>
<totfact> 0.14139482E+02</totfact>
</mgrwt>
</event>
<event>
 4    1  0.4703494E-002  0.4063259E+03  0.7818608E-02  0.1041611E+00
         21   -1    0    0  501  502  0.00000000000E+00  0.00000000000E+00  0.48522883533E+03  0.48522883533E+03  0.00000000000E+00 0. -1.
         21   -1    0    0  502  503 -0.00000000000E+00 -0.00000000000E+00 -0.41137009078E+03  0.41137009078E+03  0.00000000000E+00 0.  1.
    9000007    1    1    2  501    0  0.29017807049E+02  0.65258504082E+02  0.22332597029E+03  0.46365417553E+03  0.40000000000E+03 0. -1.
   -9000007    1    1    2    0  503 -0.29017807049E+02 -0.65258504082E+02 -0.14946722574E+03  0.43294475058E+03  0.40000000000E+03 0. -1.
<mgrwt>
<rscale>  2 0.40632586E+03</rscale>
<asrwt>0</asrwt>
<pdfrwt beam="1">  1       21 0.74650590E-01 0.40632586E+03</pdfrwt>
<pdfrwt beam="2">  1       21 0.63287706E-01 0.40632586E+03</pdfrwt>
<totfact> 0.32887633E+03</totfact>
</mgrwt>
</event>
<event>
 4    1  0.4703494E-002  0.4512338E+03  0.7818608E-02  0.1027355E+00
         21   -1    0    0  503  502  0.00000000000E+00  0.00000000000E+00  0.63842583783E+03  0.63842583783E+03  0.00000000000E+00 0.  1.
         21   -1    0    0  501  503 -0.00000000000E+00 -0.00000000000E+00 -0.72574677124E+03  0.72574677124E+03  0.00000000000E+00 0.  1.
    9000007    1    1    2  501    0 -0.29465363905E+02 -0.20674555828E+03 -0.55433854653E+03  0.71477490003E+03  0.40000000000E+03 0.  1.
   -9000007    1    1    2    0  502  0.29465363905E+02  0.20674555828E+03  0.46701761312E+03  0.64939770904E+03  0.40000000000E+03 0.  1.
<mgrwt>
<rscale>  2 0.45123379E+03</rscale>
<asrwt>0</asrwt>
<pdfrwt beam="1">  1       21 0.98219359E-01 0.45123379E+03</pdfrwt>
<pdfrwt beam="2">  1       21 0.11165335E+00 0.45123379E+03</pdfrwt>
<totfact> 0.45005066E+02</totfact>
</mgrwt>
</event>
<event>
 4    1  0.4703494E-002  0.4098910E+03  0.7818608E-02  0.1040408E+00
         21   -1    0    0  503  502  0.00000000000E+00  0.00000000000E+00  0.56704782945E+03  0.56704782945E+03  0.00000000000E+00 0.  1.
         21   -1    0    0  501  503 -0.00000000000E+00 -0.00000000000E+00 -0.42029047231E+03  0.42029047231E+03  0.00000000000E+00 0.  1.
    9000007    1    1    2  501    0  0.63522409276E+02 -0.63051600117E+02 -0.19476828802E+03  0.45381195090E+03  0.40000000000E+03 0. -1.
   -9000007    1    1    2    0  502 -0.63522409276E+02  0.63051600117E+02  0.34152564517E+03  0.53352635086E+03  0.40000000000E+03 0. -1.
<mgrwt>
<rscale>  2 0.40989096E+03</rscale>
<asrwt>0</asrwt>
<pdfrwt beam="1">  1       21 0.87238127E-01 0.40989096E+03</pdfrwt>
<pdfrwt beam="2">  1       21 0.64660073E-01 0.40989096E+03</pdfrwt>
<totfact> 0.21853234E+03</totfact>
</mgrwt>
</event>
<event>
 4    1  0.4703494E-002  0.4031798E+03  0.7818608E-02  0.1042684E+00
         21   -1    0    0  501  502  0.00000000000E+00  0.00000000000E+00  0.40725964773E+03  0.40725964773E+03  0.00000000000E+00 0. -1.
         21   -1    0    0  502  503 -0.00000000000E+00 -0.00000000000E+00 -0.48919189970E+03  0.48919189970E+03  0.00000000000E+00 0. -1.
    9000007    1    1    2  501    0  0.47885730140E+02  0.16152122477E+02  0.15134382233E+03  0.43064937800E+03  0.40000000000E+03 0. -1.
   -9000007    1    1    2    0  503 -0.47885730140E+02 -0.16152122477E+02 -0.23327607430E+03  0.46580216944E+03  0.40000000000E+03 0. -1.
<mgrwt>
<rscale>  2 0.40317978E+03</rscale>
<asrwt>0</asrwt>
<pdfrwt beam="1">  1       21 0.62655331E-01 0.40317978E+03</pdfrwt>
<pdfrwt beam="2">  1       21 0.75260292E-01 0.40317978E+03</pdfrwt>
<totfact> 0.33048466E+03</totfact>
</mgrwt>
</event>
<event>
 4    1  0.4703494E-002  0.5463346E+03  0.7818608E-02  0.1002346E+00
         21   -1    0    0  503  502  0.00000000000E+00  0.00000000000E+00  0.50376485252E+03  0.50376485252E+03  0.00000000000E+00 0. -1.
         21   -1    0    0  501  503 -0.00000000000E+00 -0.00000000000E+00 -0.11886538303E+04  0.11886538303E+04  0.00000000000E+00 0. -1.
    9000007    1    1    2  501    0 -0.20694146716E+03 -0.30928417997E+03 -0.94172300580E+03  0.10887257205E+04  0.40000000000E+03 0. -1.
   -9000007    1    1    2    0  502  0.20694146716E+03  0.30928417997E+03  0.25683402803E+03  0.60369296232E+03  0.40000000000E+03 0. -1.
<mgrwt>
<rscale>  2 0.54633458E+03</rscale>
<asrwt>0</asrwt>
<pdfrwt beam="1">  1       21 0.77502285E-01 0.54633458E+03</pdfrwt>
<pdfrwt beam="2">  1       21 0.18286982E+00 0.54633458E+03</pdfrwt>
<totfact> 0.19950616E+02</totfact>
</mgrwt>
</event>
<event>
 4    1  0.4703494E-002  0.4021582E+03  0.7818608E-02  0.1043035E+00
         21   -1    0    0  501  502  0.00000000000E+00  0.00000000000E+00  0.58285926980E+03  0.58285926980E+03  0.00000000000E+00 0. -1.
         21   -1    0    0  502  503 -0.00000000000E+00 -0.00000000000E+00 -0.30436366636E+03  0.30436366636E+03  0.00000000000E+00 0. -1.
    9000007    1    1    2  501    0  0.39966025523E+02  0.11572569425E+02  0.27109128962E+03  0.48499659264E+03  0.40000000000E+03 0. -1.
   -9000007    1    1    2    0  503 -0.39966025523E+02 -0.11572569425E+02  0.74043138115E+01  0.40222634352E+03  0.40000000000E+03 0. -1.
<mgrwt>
<rscale>  2 0.40215819E+03</rscale>
<asrwt>0</asrwt>
<pdfrwt beam="1">  1       21 0.89670656E-01 0.40215819E+03</pdfrwt>
<pdfrwt beam="2">  1       21 0.46825180E-01 0.40215819E+03</pdfrwt>
<totfact> 0.41202718E+03</totfact>
</mgrwt>
</event>
<event>
 4    1  0.4703494E-002  0.5189618E+03  0.7818608E-02  0.1008945E+00
         21   -1    0    0  503  502  0.00000000000E+00  0.00000000000E+00  0.18162751516E+03  0.18162751516E+03  0.00000000000E+00 0.  1.
         21   -1    0    0  501  503 -0.00000000000E+00 -0.00000000000E+00 -0.22659126571E+04  0.22659126571E+04  0.00000000000E+00 0. -1.
    9000007    1    1    2  501    0  0.29503383771E+03 -0.14925281128E+03 -0.17615652618E+04  0.18364186720E+04  0.40000000000E+03 0. -1.
   -9000007    1    1    2    0  502 -0.29503383771E+03  0.14925281128E+03 -0.32271988007E+03  0.61112150025E+03  0.40000000000E+03 0.  1.
<mgrwt>
<rscale>  2 0.51896182E+03</rscale>
<asrwt>0</asrwt>
<pdfrwt beam="1">  1       21 0.27942694E-01 0.51896182E+03</pdfrwt>
<pdfrwt beam="2">  1       21 0.34860195E+00 0.51896182E+03</pdfrwt>
<totfact> 0.16085069E+02</totfact>
</mgrwt>
</event>
<event>
 4    1  0.4703494E-002  0.5804854E+03  0.7818608E-02  0.9946741E-01
         21   -1    0    0  501  502  0.00000000000E+00  0.00000000000E+00  0.64431562862E+03  0.64431562862E+03  0.00000000000E+00 0.  1.
         21   -1    0    0  502  503 -0.00000000000E+00 -0.00000000000E+00 -0.56046404794E+03  0.56046404794E+03  0.00000000000E+00 0.  1.
    9000007    1    1    2  501    0  0.37707319672E+03  0.18649150010E+03  0.19771422047E+03  0.61323257274E+03  0.40000000000E+03 0.  1.
   -9000007    1    1    2    0  503 -0.37707319672E+03 -0.18649150010E+03 -0.11386263980E+03  0.59154710382E+03  0.40000000000E+03 0.  1.
<mgrwt>
<rscale>  2 0.58048538E+03</rscale>
<asrwt>0</asrwt>
<pdfrwt beam="1">  1       21 0.99125482E-01 0.58048538E+03</pdfrwt>
<pdfrwt beam="2">  1       21 0.86225238E-01 0.58048538E+03</pdfrwt>
<totfact> 0.78412502E+02</totfact>
</mgrwt>
</event>
<event>
 4    1  0.4703494E-002  0.4269296E+03  0.7818608E-02  0.1034834E+00
         21   -1    0    0  503  502  0.00000000000E+00  0.00000000000E+00  0.94240187540E+03  0.94240187540E+03  0.00000000000E+00 0. -1.
         21   -1    0    0  501  503 -0.00000000000E+00 -0.00000000000E+00 -0.30552984992E+03  0.30552984992E+03  0.00000000000E+00 0. -1.
    9000007    1    1    2  501    0 -0.11885750796E+03 -0.90232023232E+02 -0.59551419166E+02  0.43106298466E+03  0.40000000000E+03 0. -1.
   -9000007    1    1    2    0  502  0.11885750796E+03  0.90232023232E+02  0.69642344465E+03  0.81686874067E+03  0.40000000000E+03 0. -1.
<mgrwt>
<rscale>  2 0.42692965E+03</rscale>
<asrwt>0</asrwt>
<pdfrwt beam="1">  1       21 0.14498490E+00 0.42692965E+03</pdfrwt>
<pdfrwt beam="2">  1       21 0.47004593E-01 0.42692965E+03</pdfrwt>
<totfact> 0.12129668E+03</totfact>
</mgrwt>
</event>
<event>
 4    1  0.4703494E-002  0.4310979E+03  0.7818608E-02  0.1033514E+00
         21   -1    0    0  503  502  0.00000000000E+00  0.00000000000E+00  0.56518449817E+03  0.56518449817E+03  0.00000000000E+00 0. -1.
         21   -1    0    0  501  503 -0.00000000000E+00 -0.00000000000E+00 -0.54357455241E+03  0.54357455241E+03  0.00000000000E+00 0. -1.
    9000007    1    1    2  501    0 -0.16073703456E+03 -0.29961007331E+01 -0.33764970649E+03  0.54758807072E+03  0.40000000000E+03 0. -1.
   -9000007    1    1    2    0  502  0.16073703456E+03  0.29961007331E+01  0.35925965226E+03  0.56117097986E+03  0.40000000000E+03 0. -1.
<mgrwt>
<rscale>  2 0.43109787E+03</rscale>
<asrwt>0</asrwt>
<pdfrwt beam="1">  1       21 0.86951462E-01 0.43109787E+03</pdfrwt>
<pdfrwt beam="2">  1       21 0.83626854E-01 0.43109787E+03</pdfrwt>
<totfact> 0.12175723E+03</totfact>
</mgrwt>
</event>
<event>
 4    1  0.4703494E-002  0.4828483E+03  0.7818608E-02  0.1018355E+00
         21   -1    0    0  503  502  0.00000000000E+00  0.00000000000E+00  0.11344279168E+04  0.11344279168E+04  0.00000000000E+00 0.  1.
         21   -1    0    0  501  503 -0.00000000000E+00 -0.00000000000E+00 -0.39455609354E+03  0.39455609354E+03  0.00000000000E+00 0.  1.
    9000007    1    1    2  501    0 -0.12530861709E+03  0.23966688141E+03 -0.15923524514E+03  0.50842730735E+03  0.40000000000E+03 0.  1.
   -9000007    1    1    2    0  502  0.12530861709E+03 -0.23966688141E+03  0.89910706839E+03  0.10205567030E+04  0.40000000000E+03 0.  1.
<mgrwt>
<rscale>  2 0.48284828E+03</rscale>
<asrwt>0</asrwt>
<pdfrwt beam="1">  1       21 0.17452737E+00 0.48284828E+03</pdfrwt>
<pdfrwt beam="2">  1       21 0.60700938E-01 0.48284828E+03</pdfrwt>
<totfact> 0.40763344E+02</totfact>
</mgrwt>
</event>
<event>
 4    1  0.4703494E-002  0.4162612E+03  0.7818608E-02  0.1038290E+00
         21   -1    0    0  503  502  0.00000000000E+00  0.00000000000E+00  0.25427787464E+03  0.25427787464E+03  0.00000000000E+00 0. -1.
         21   -1    0    0  501  503 -0.00000000000E+00 -0.00000000000E+00 -0.76567004029E+03  0.76567004029E+03  0.00000000000E+00 0. -1.
    9000007    1    1    2  501    0  0.38711293344E+02  0.10851192860E+03 -0.42484843168E+03  0.59478533336E+03  0.40000000000E+03 0. -1.
   -9000007    1    1    2    0  502 -0.38711293344E+02 -0.10851192860E+03 -0.86543733974E+02  0.42516258157E+03  0.40000000000E+03 0. -1.
<mgrwt>
<rscale>  2 0.41626122E+03</rscale>
<asrwt>0</asrwt>
<pdfrwt beam="1">  1       21 0.39119673E-01 0.41626122E+03</pdfrwt>
<pdfrwt beam="2">  1       21 0.11779539E+00 0.41626122E+03</pdfrwt>
<totfact> 0.30611867E+03</totfact>
</mgrwt>
</event>
<event>
 4    1  0.4703494E-002  0.4064232E+03  0.7818608E-02  0.1041578E+00
         21   -1    0    0  503  502  0.00000000000E+00  0.00000000000E+00  0.11057039056E+04  0.11057039056E+04  0.00000000000E+00 0. -1.
         21   -1    0    0  501  503 -0.00000000000E+00 -0.00000000000E+00 -0.19509060782E+03  0.19509060782E+03  0.00000000000E+00 0. -1.
    9000007    1    1    2  501    0  0.53624988744E+02 -0.48002062528E+02  0.14051227542E+03  0.43002736770E+03  0.40000000000E+03 0. -1.
   -9000007    1    1    2    0  502 -0.53624988744E+02  0.48002062528E+02  0.77010102232E+03  0.87076714568E+03  0.40000000000E+03 0. -1.
<mgrwt>
<rscale>  2 0.40642322E+03</rscale>
<asrwt>0</asrwt>
<pdfrwt beam="1">  1       21 0.17010829E+00 0.40642322E+03</pdfrwt>
<pdfrwt beam="2">  1       21 0.30013940E-01 0.40642322E+03</pdfrwt>
<totfact> 0.19680347E+03</totfact>
</mgrwt>
</event>
<event>
 4    1  0.4703494E-002  0.4258726E+03  0.7818608E-02  0.1035172E+00
         21   -1    0    0  501  502  0.00000000000E+00  0.00000000000E+00  0.27731428522E+03  0.27731428522E+03  0.00000000000E+00 0. -1.
         21   -1    0    0  502  503 -0.00000000000E+00 -0.00000000000E+00 -0.89596389377E+03  0.89596389377E+03  0.00000000000E+00 0. -1.
    9000007    1    1    2  501    0 -0.14160236031E+03 -0.36279905571E+02 -0.44732959679E+01  0.42589607931E+03  0.40000000000E+03 0. -1.
   -9000007    1    1    2    0  503  0.14160236031E+03  0.36279905571E+02 -0.61417631258E+03  0.74738209968E+03  0.40000000000E+03 0. -1.
<mgrwt>
<rscale>  2 0.42587259E+03</rscale>
<asrwt>0</asrwt>
<pdfrwt beam="1">  1       21 0.42663736E-01 0.42587259E+03</pdfrwt>
<pdfrwt beam="2">  1       21 0.13784060E+00 0.42587259E+03</pdfrwt>
<totfact> 0.17002780E+03</totfact>
</mgrwt>
</event>
<event>
 4    1  0.4703494E-002  0.4016426E+03  0.7818608E-02  0.1043212E+00
         21   -1    0    0  503  502  0.00000000000E+00  0.00000000000E+00  0.38509686428E+03  0.38509686428E+03  0.00000000000E+00 0.  1.
         21   -1    0    0  501  503 -0.00000000000E+00 -0.00000000000E+00 -0.66813611739E+03  0.66813611739E+03  0.00000000000E+00 0.  1.
    9000007    1    1    2  501    0  0.79510211519E+01  0.35405492990E+02 -0.46315822979E+03  0.61305164015E+03  0.40000000000E+03 0.  1.
   -9000007    1    1    2    0  502 -0.79510211519E+01 -0.35405492990E+02  0.18011897667E+03  0.44018134153E+03  0.40000000000E+03 0.  1.
<mgrwt>
<rscale>  2 0.40164259E+03</rscale>
<asrwt>0</asrwt>
<pdfrwt beam="1">  1       21 0.59245672E-01 0.40164259E+03</pdfrwt>
<pdfrwt beam="2">  1       21 0.10279017E+00 0.40164259E+03</pdfrwt>
<totfact> 0.17954880E+03</totfact>
</mgrwt>
</event>
<event>
 4    1  0.4703494E-002  0.4061869E+03  0.7818608E-02  0.1041658E+00
         21   -1    0    0  501  502  0.00000000000E+00  0.00000000000E+00  0.37323251878E+03  0.37323251878E+03  0.00000000000E+00 0. -1.
         21   -1    0    0  502  503 -0.00000000000E+00 -0.00000000000E+00 -0.44384597500E+03  0.44384597500E+03  0.00000000000E+00 0. -1.
    9000007    1    1    2  501    0 -0.67599730288E+02  0.20446907822E+02 -0.61287354972E+02  0.41078454140E+03  0.40000000000E+03 0. -1.
   -9000007    1    1    2    0  503  0.67599730288E+02 -0.20446907822E+02 -0.93261012435E+01  0.40629395238E+03  0.40000000000E+03 0. -1.
<mgrwt>
<rscale>  2 0.40618690E+03</rscale>
<asrwt>0</asrwt>
<pdfrwt beam="1">  1       21 0.57420388E-01 0.40618690E+03</pdfrwt>
<pdfrwt beam="2">  1       21 0.68283996E-01 0.40618690E+03</pdfrwt>
<totfact> 0.49754101E+03</totfact>
</mgrwt>
</event>
<event>
 4    1  0.4703494E-002  0.4803880E+03  0.7818608E-02  0.1019029E+00
         21   -1    0    0  503  502  0.00000000000E+00  0.00000000000E+00  0.12092071019E+04  0.12092071019E+04  0.00000000000E+00 0. -1.
         21   -1    0    0  501  503 -0.00000000000E+00 -0.00000000000E+00 -0.20881997726E+03  0.20881997726E+03  0.00000000000E+00 0. -1.
    9000007    1    1    2  501    0  0.14730241531E+03 -0.22152789758E+03  0.29218180685E+03  0.56226579055E+03  0.40000000000E+03 0.  1.
   -9000007    1    1    2    0  502 -0.14730241531E+03  0.22152789758E+03  0.70820531783E+03  0.85576128866E+03  0.40000000000E+03 0.  1.
<mgrwt>
<rscale>  2 0.48038798E+03</rscale>
<asrwt>0</asrwt>
<pdfrwt beam="1">  1       21 0.18603186E+00 0.48038798E+03</pdfrwt>
<pdfrwt beam="2">  1       21 0.32126151E-01 0.48038798E+03</pdfrwt>
<totfact> 0.12835431E+03</totfact>
</mgrwt>
</event>
<event>
 4    1  0.4703494E-002  0.4010623E+03  0.7818608E-02  0.1043412E+00
         21   -1    0    0  501  502  0.00000000000E+00  0.00000000000E+00  0.46057440600E+03  0.46057440600E+03  0.00000000000E+00 0.  1.
         21   -1    0    0  502  503 -0.00000000000E+00 -0.00000000000E+00 -0.50314562796E+03  0.50314562796E+03  0.00000000000E+00 0.  1.
    9000007    1    1    2  501    0  0.24037882239E+02 -0.16526360342E+02  0.24521701350E+03  0.47008757065E+03  0.40000000000E+03 0.  1.
   -9000007    1    1    2    0  503 -0.24037882239E+02  0.16526360342E+02 -0.28778823546E+03  0.49363246331E+03  0.40000000000E+03 0.  1.
<mgrwt>
<rscale>  2 0.40106226E+03</rscale>
<asrwt>0</asrwt>
<pdfrwt beam="1">  1       21 0.70857601E-01 0.40106226E+03</pdfrwt>
<pdfrwt beam="2">  1       21 0.77407020E-01 0.40106226E+03</pdfrwt>
<totfact> 0.23588023E+03</totfact>
</mgrwt>
</event>
<event>
 4    1  0.4703494E-002  0.4718947E+03  0.7818608E-02  0.1021387E+00
         21   -1    0    0  501  502  0.00000000000E+00  0.00000000000E+00  0.36644601624E+03  0.36644601624E+03  0.00000000000E+00 0. -1.
         21   -1    0    0  502  503 -0.00000000000E+00 -0.00000000000E+00 -0.60775899435E+03  0.60775899435E+03  0.00000000000E+00 0.  1.
    9000007    1    1    2  501    0  0.19916767422E+03 -0.15171302808E+03 -0.11536750837E+03  0.48579241176E+03  0.40000000000E+03 0.  1.
   -9000007    1    1    2    0  503 -0.19916767422E+03  0.15171302808E+03 -0.12594546974E+03  0.48841259882E+03  0.40000000000E+03 0. -1.
<mgrwt>
<rscale>  2 0.47189470E+03</rscale>
<asrwt>0</asrwt>
<pdfrwt beam="1">  1       21 0.56376311E-01 0.47189470E+03</pdfrwt>
<pdfrwt beam="2">  1       21 0.93501382E-01 0.47189470E+03</pdfrwt>
<totfact> 0.24468865E+03</totfact>
</mgrwt>
</event>
<event>
 4    1  0.4703494E-002  0.7039002E+03  0.7818608E-02  0.9710585E-01
         21   -1    0    0  501  502  0.00000000000E+00  0.00000000000E+00  0.28301904444E+03  0.28301904444E+03  0.00000000000E+00 0. -1.
         21   -1    0    0  502  503 -0.00000000000E+00 -0.00000000000E+00 -0.19373805143E+04  0.19373805143E+04  0.00000000000E+00 0.  1.
    9000007    1    1    2  501    0  0.45407370633E+03  0.35957276134E+03 -0.48253923025E+03  0.85341643423E+03  0.40000000000E+03 0.  1.
   -9000007    1    1    2    0  503 -0.45407370633E+03 -0.35957276134E+03 -0.11718222396E+04  0.13669831245E+04  0.40000000000E+03 0.  1.
<mgrwt>
<rscale>  2 0.70390021E+03</rscale>
<asrwt>0</asrwt>
<pdfrwt beam="1">  1       21 0.43541394E-01 0.70390021E+03</pdfrwt>
<pdfrwt beam="2">  1       21 0.29805853E+00 0.70390021E+03</pdfrwt>
<totfact> 0.12208427E+02</totfact>
</mgrwt>
</event>
<event>
 4    1  0.4703494E-002  0.4994672E+03  0.7818608E-02  0.1013918E+00
         21   -1    0    0  501  502  0.00000000000E+00  0.00000000000E+00  0.26578272596E+03  0.26578272596E+03  0.00000000000E+00 0. -1.
         21   -1    0    0  502  503 -0.00000000000E+00 -0.00000000000E+00 -0.97431301991E+03  0.97431301991E+03  0.00000000000E+00 0.  1.
    9000007    1    1    2  501    0 -0.29781372850E+03 -0.27829344122E+02 -0.23557852009E+03  0.55223611653E+03  0.40000000000E+03 0. -1.
   -9000007    1    1    2    0  503  0.29781372850E+03  0.27829344122E+02 -0.47295177386E+03  0.68785962934E+03  0.40000000000E+03 0. -1.
<mgrwt>
<rscale>  2 0.49946721E+03</rscale>
<asrwt>0</asrwt>
<pdfrwt beam="1">  1       21 0.40889650E-01 0.49946721E+03</pdfrwt>
<pdfrwt beam="2">  1       21 0.14989431E+00 0.49946721E+03</pdfrwt>
<totfact> 0.14401884E+03</totfact>
</mgrwt>
</event>
<event>
 4    1  0.4703494E-002  0.4274659E+03  0.7818608E-02  0.1034663E+00
         21   -1    0    0  503  502  0.00000000000E+00  0.00000000000E+00  0.15074794267E+03  0.15074794267E+03  0.00000000000E+00 0.  1.
         21   -1    0    0  501  503 -0.00000000000E+00 -0.00000000000E+00 -0.12128795844E+04  0.12128795844E+04  0.00000000000E+00 0.  1.
    9000007    1    1    2  501    0 -0.62292991518E+02 -0.13728314194E+03 -0.54794250557E+03  0.69495903999E+03  0.40000000000E+03 0.  1.
   -9000007    1    1    2    0  502  0.62292991518E+02  0.13728314194E+03 -0.51418913613E+03  0.66866848705E+03  0.40000000000E+03 0.  1.
<mgrwt>
<rscale>  2 0.42746588E+03</rscale>
<asrwt>0</asrwt>
<pdfrwt beam="1">  1       21 0.23191992E-01 0.42746588E+03</pdfrwt>
<pdfrwt beam="2">  1       21 0.18659686E+00 0.42746588E+03</pdfrwt>
<totfact> 0.24683416E+03</totfact>
</mgrwt>
</event>
<event>
 4    1  0.4703494E-002  0.4429386E+03  0.7818608E-02  0.1029849E+00
         21   -1    0    0  501  502  0.00000000000E+00  0.00000000000E+00  0.14554046459E+03  0.14554046459E+03  0.00000000000E+00 0. -1.
         21   -1    0    0  502  503 -0.00000000000E+00 -0.00000000000E+00 -0.18823965760E+04  0.18823965760E+04  0.00000000000E+00 0. -1.
    9000007    1    1    2  501    0 -0.18988953370E+03  0.11687666151E+02 -0.14086643267E+04  0.14766617155E+04  0.40000000000E+03 0. -1.
   -9000007    1    1    2    0  503  0.18988953370E+03 -0.11687666151E+02 -0.32819178465E+03  0.55127532510E+03  0.40000000000E+03 0. -1.
<mgrwt>
<rscale>  2 0.44293864E+03</rscale>
<asrwt>0</asrwt>
<pdfrwt beam="1">  1       21 0.22390843E-01 0.44293864E+03</pdfrwt>
<pdfrwt beam="2">  1       21 0.28959945E+00 0.44293864E+03</pdfrwt>
<totfact> 0.58931368E+02</totfact>
</mgrwt>
</event>
<event>
 4    1  0.4703494E-002  0.7228664E+03  0.7818608E-02  0.9678907E-01
         21   -1    0    0  503  502  0.00000000000E+00  0.00000000000E+00  0.53366240664E+03  0.53366240664E+03  0.00000000000E+00 0.  1.
         21   -1    0    0  501  503 -0.00000000000E+00 -0.00000000000E+00 -0.13462056499E+04  0.13462056499E+04  0.00000000000E+00 0.  1.
    9000007    1    1    2  501    0 -0.41916309782E+03 -0.43224784158E+03 -0.89707464881E+03  0.11520758763E+04  0.40000000000E+03 0.  1.
   -9000007    1    1    2    0  502  0.41916309782E+03  0.43224784158E+03  0.84531405555E+02  0.72779218026E+03  0.40000000000E+03 0.  1.
<mgrwt>
<rscale>  2 0.72286645E+03</rscale>
<asrwt>0</asrwt>
<pdfrwt beam="1">  1       21 0.82101909E-01 0.72286645E+03</pdfrwt>
<pdfrwt beam="2">  1       21 0.20710856E+00 0.72286645E+03</pdfrwt>
<totfact> 0.11131004E+02</totfact>
</mgrwt>
</event>
<event>
 4    1  0.4703494E-002  0.7118857E+03  0.7818608E-02  0.9697119E-01
         21   -1    0    0  503  502  0.00000000000E+00  0.00000000000E+00  0.17675275149E+04  0.17675275149E+04  0.00000000000E+00 0. -1.
         21   -1    0    0  501  503 -0.00000000000E+00 -0.00000000000E+00 -0.54013791979E+03  0.54013791979E+03  0.00000000000E+00 0.  1.
    9000007    1    1    2  501    0  0.33347934755E+03 -0.48535842418E+03 -0.17664021003E+03  0.73347327079E+03  0.40000000000E+03 0.  1.
   -9000007    1    1    2    0  502 -0.33347934755E+03  0.48535842418E+03  0.14040298052E+04  0.15741921639E+04  0.40000000000E+03 0. -1.
<mgrwt>
<rscale>  2 0.71188572E+03</rscale>
<asrwt>0</asrwt>
<pdfrwt beam="1">  1       21 0.27192731E+00 0.71188572E+03</pdfrwt>
<pdfrwt beam="2">  1       21 0.83098143E-01 0.71188572E+03</pdfrwt>
<totfact> 0.41983913E+01</totfact>
</mgrwt>
</event>
<event>
 4    1  0.4703494E-002  0.4165657E+03  0.7818608E-02  0.1038190E+00
         21   -1    0    0  501  502  0.00000000000E+00  0.00000000000E+00  0.12647916139E+03  0.12647916139E+03  0.00000000000E+00 0.  1.
         21   -1    0    0  502  503 -0.00000000000E+00 -0.00000000000E+00 -0.15722591793E+04  0.15722591793E+04  0.00000000000E+00 0.  1.
    9000007    1    1    2  501    0 -0.84784683835E+02  0.79614875372E+02 -0.41974421704E+03  0.59136467491E+03  0.40000000000E+03 0.  1.
   -9000007    1    1    2    0  503  0.84784683835E+02 -0.79614875372E+02 -0.10260358008E+04  0.11073736658E+04  0.40000000000E+03 0.  1.
<mgrwt>
<rscale>  2 0.41656569E+03</rscale>
<asrwt>0</asrwt>
<pdfrwt beam="1">  1       21 0.19458333E-01 0.41656569E+03</pdfrwt>
<pdfrwt beam="2">  1       21 0.24188602E+00 0.41656569E+03</pdfrwt>
<totfact> 0.15217241E+03</totfact>
</mgrwt>
</event>
<event>
 4    1  0.4703494E-002  0.4208628E+03  0.7818608E-02  0.1036786E+00
         21   -1    0    0  501  502  0.00000000000E+00  0.00000000000E+00  0.31817372528E+03  0.31817372528E+03  0.00000000000E+00 0.  1.
         21   -1    0    0  502  503 -0.00000000000E+00 -0.00000000000E+00 -0.77820424539E+03  0.77820424539E+03  0.00000000000E+00 0.  1.
    9000007    1    1    2  501    0 -0.54826611700E+02  0.11882576362E+03  0.62453888023E+02  0.42547151207E+03  0.40000000000E+03 0.  1.
   -9000007    1    1    2    0  503  0.54826611700E+02 -0.11882576362E+03 -0.52248440814E+03  0.67090645861E+03  0.40000000000E+03 0.  1.
<mgrwt>
<rscale>  2 0.42086283E+03</rscale>
<asrwt>0</asrwt>
<pdfrwt beam="1">  1       21 0.48949805E-01 0.42086283E+03</pdfrwt>
<pdfrwt beam="2">  1       21 0.11972373E+00 0.42086283E+03</pdfrwt>
<totfact> 0.18382768E+03</totfact>
</mgrwt>
</event>
<event>
 4    1  0.4703494E-002  0.4375028E+03  0.7818608E-02  0.1031516E+00
         21   -1    0    0  501  502  0.00000000000E+00  0.00000000000E+00  0.20024737710E+03  0.20024737710E+03  0.00000000000E+00 0.  1.
         21   -1    0    0  502  503 -0.00000000000E+00 -0.00000000000E+00 -0.10388069754E+04  0.10388069754E+04  0.00000000000E+00 0.  1.
    9000007    1    1    2  501    0  0.17065240769E+03  0.47817268860E+02 -0.24421872788E+03  0.50105041912E+03  0.40000000000E+03 0.  1.
   -9000007    1    1    2    0  503 -0.17065240769E+03 -0.47817268860E+02 -0.59434087044E+03  0.73800393341E+03  0.40000000000E+03 0.  1.
<mgrwt>
<rscale>  2 0.43750284E+03</rscale>
<asrwt>0</asrwt>
<pdfrwt beam="1">  1       21 0.30807289E-01 0.43750284E+03</pdfrwt>
<pdfrwt beam="2">  1       21 0.15981646E+00 0.43750284E+03</pdfrwt>
<totfact> 0.21972104E+03</totfact>
</mgrwt>
</event>
<event>
 4    1  0.4703494E-002  0.4168909E+03  0.7818608E-02  0.1038083E+00
         21   -1    0    0  501  502  0.00000000000E+00  0.00000000000E+00  0.79949615107E+03  0.79949615107E+03  0.00000000000E+00 0.  1.
         21   -1    0    0  502  503 -0.00000000000E+00 -0.00000000000E+00 -0.27987143255E+03  0.27987143255E+03  0.00000000000E+00 0.  1.
    9000007    1    1    2  501    0 -0.56351275964E+02  0.10306587486E+03  0.48037610194E+01  0.41691859755E+03  0.40000000000E+03 0.  1.
   -9000007    1    1    2    0  503  0.56351275964E+02 -0.10306587486E+03  0.51482095750E+03  0.66244898607E+03  0.40000000000E+03 0.  1.
<mgrwt>
<rscale>  2 0.41689092E+03</rscale>
<asrwt>0</asrwt>
<pdfrwt beam="1">  1       21 0.12299941E+00 0.41689092E+03</pdfrwt>
<pdfrwt beam="2">  1       21 0.43057144E-01 0.41689092E+03</pdfrwt>
<totfact> 0.22495114E+03</totfact>
</mgrwt>
</event>
<event>
 4    1  0.4703494E-002  0.4409766E+03  0.7818608E-02  0.1030448E+00
         21   -1    0    0  503  502  0.00000000000E+00  0.00000000000E+00  0.19861656682E+03  0.19861656682E+03  0.00000000000E+00 0. -1.
         21   -1    0    0  501  503 -0.00000000000E+00 -0.00000000000E+00 -0.10846441507E+04  0.10846441507E+04  0.00000000000E+00 0. -1.
    9000007    1    1    2  501    0  0.17371503293E+03  0.65447995856E+02 -0.64318954002E+03  0.77984173857E+03  0.40000000000E+03 0. -1.
   -9000007    1    1    2    0  502 -0.17371503293E+03 -0.65447995856E+02 -0.24283804387E+03  0.50341897896E+03  0.40000000000E+03 0. -1.
<mgrwt>
<rscale>  2 0.44097659E+03</rscale>
<asrwt>0</asrwt>
<pdfrwt beam="1">  1       21 0.30556395E-01 0.44097659E+03</pdfrwt>
<pdfrwt beam="2">  1       21 0.16686833E+00 0.44097659E+03</pdfrwt>
<totfact> 0.19757889E+03</totfact>
</mgrwt>
</event>
<event>
 4    1  0.4703494E-002  0.5188056E+03  0.7818608E-02  0.1008984E+00
         21   -1    0    0  503  502  0.00000000000E+00  0.00000000000E+00  0.42886781007E+03  0.42886781007E+03  0.00000000000E+00 0.  1.
         21   -1    0    0  501  503 -0.00000000000E+00 -0.00000000000E+00 -0.66798676473E+03  0.66798676473E+03  0.00000000000E+00 0.  1.
    9000007    1    1    2  501    0  0.68850834289E+02 -0.32313904825E+03 -0.25440344904E+03  0.57782384580E+03  0.40000000000E+03 0.  1.
   -9000007    1    1    2    0  502 -0.68850834289E+02  0.32313904825E+03  0.15284494383E+02  0.51903072901E+03  0.40000000000E+03 0.  1.
<mgrwt>
<rscale>  2 0.51880563E+03</rscale>
<asrwt>0</asrwt>
<pdfrwt beam="1">  1       21 0.65979663E-01 0.51880563E+03</pdfrwt>
<pdfrwt beam="2">  1       21 0.10276719E+00 0.51880563E+03</pdfrwt>
<totfact> 0.13541691E+03</totfact>
</mgrwt>
</event>
<event>
 4    1  0.4703494E-002  0.5564555E+03  0.7818608E-02  0.1000011E+00
         21   -1    0    0  501  502  0.00000000000E+00  0.00000000000E+00  0.19564700709E+04  0.19564700709E+04  0.00000000000E+00 0. -1.
         21   -1    0    0  502  503 -0.00000000000E+00 -0.00000000000E+00 -0.15874649100E+03  0.15874649100E+03  0.00000000000E+00 0. -1.
    9000007    1    1    2  501    0 -0.25031704794E+03  0.29493073629E+03  0.84067841679E+03  0.10081582039E+04  0.40000000000E+03 0. -1.
   -9000007    1    1    2    0  503  0.25031704794E+03 -0.29493073629E+03  0.95704516306E+03  0.11070583579E+04  0.40000000000E+03 0. -1.
<mgrwt>
<rscale>  2 0.55645554E+03</rscale>
<asrwt>0</asrwt>
<pdfrwt beam="1">  1       21 0.30099538E+00 0.55645554E+03</pdfrwt>
<pdfrwt beam="2">  1       21 0.24422538E-01 0.55645554E+03</pdfrwt>
<totfact> 0.40128046E+02</totfact>
</mgrwt>
</event>
<event>
 4    1  0.4703494E-002  0.4579883E+03  0.7818608E-02  0.1025366E+00
         21   -1    0    0  503  502  0.00000000000E+00  0.00000000000E+00  0.23489181348E+03  0.23489181348E+03  0.00000000000E+00 0.  1.
         21   -1    0    0  501  503 -0.00000000000E+00 -0.00000000000E+00 -0.19928742866E+04  0.19928742866E+04  0.00000000000E+00 0.  1.
    9000007    1    1    2  501    0  0.20070875807E+03  0.97310417992E+02 -0.17065053821E+04  0.17668938684E+04  0.40000000000E+03 0.  1.
   -9000007    1    1    2    0  502 -0.20070875807E+03 -0.97310417992E+02 -0.51477090990E+02  0.46087223166E+03  0.40000000000E+03 0.  1.
<mgrwt>
<rscale>  2 0.45798834E+03</rscale>
<asrwt>0</asrwt>
<pdfrwt beam="1">  1       21 0.36137201E-01 0.45798834E+03</pdfrwt>
<pdfrwt beam="2">  1       21 0.30659605E+00 0.45798834E+03</pdfrwt>
<totfact> 0.17930672E+02</totfact>
</mgrwt>
</event>
<event>
 4    1  0.4703494E-002  0.5196333E+03  0.7818608E-02  0.1008778E+00
         21   -1    0    0  503  502  0.00000000000E+00  0.00000000000E+00  0.61184531824E+03  0.61184531824E+03  0.00000000000E+00 0. -1.
         21   -1    0    0  501  503 -0.00000000000E+00 -0.00000000000E+00 -0.44713481289E+03  0.44713481289E+03  0.00000000000E+00 0. -1.
    9000007    1    1    2  501    0  0.13989456780E+03  0.30074614858E+03  0.21966271814E+02  0.52009734962E+03  0.40000000000E+03 0. -1.
   -9000007    1    1    2    0  502 -0.13989456780E+03 -0.30074614858E+03  0.14274423354E+03  0.53888278150E+03  0.40000000000E+03 0. -1.
<mgrwt>
<rscale>  2 0.51963327E+03</rscale>
<asrwt>0</asrwt>
<pdfrwt beam="1">  1       21 0.94130049E-01 0.51963327E+03</pdfrwt>
<pdfrwt beam="2">  1       21 0.68789971E-01 0.51963327E+03</pdfrwt>
<totfact> 0.15258030E+03</totfact>
</mgrwt>
</event>
<event>
 4    1  0.4703494E-002  0.7525534E+03  0.7818608E-02  0.9631353E-01
         21   -1    0    0  503  502  0.00000000000E+00  0.00000000000E+00  0.66631563311E+03  0.66631563311E+03  0.00000000000E+00 0.  1.
         21   -1    0    0  501  503 -0.00000000000E+00 -0.00000000000E+00 -0.91611496521E+03  0.91611496521E+03  0.00000000000E+00 0. -1.
    9000007    1    1    2  501    0  0.60251537020E+03 -0.20811487077E+03 -0.33753031212E+03  0.82478074805E+03  0.40000000000E+03 0. -1.
   -9000007    1    1    2    0  502 -0.60251537020E+03  0.20811487077E+03  0.87730980016E+02  0.75764985027E+03  0.40000000000E+03 0. -1.
<mgrwt>
<rscale>  2 0.75255337E+03</rscale>
<asrwt>0</asrwt>
<pdfrwt beam="1">  1       21 0.10251010E+00 0.75255337E+03</pdfrwt>
<pdfrwt beam="2">  1       21 0.14094076E+00 0.75255337E+03</pdfrwt>
<totfact> 0.19879970E+02</totfact>
</mgrwt>
</event>
<event>
 4    1  0.4703494E-002  0.4862442E+03  0.7818608E-02  0.1017433E+00
         21   -1    0    0  501  502  0.00000000000E+00  0.00000000000E+00  0.27036688731E+03  0.27036688731E+03  0.00000000000E+00 0. -1.
         21   -1    0    0  502  503 -0.00000000000E+00 -0.00000000000E+00 -0.89815844335E+03  0.89815844335E+03  0.00000000000E+00 0.  1.
    9000007    1    1    2  501    0 -0.14601346151E+03  0.23476255073E+03 -0.21905215688E+03  0.53330782256E+03  0.40000000000E+03 0. -1.
   -9000007    1    1    2    0  503  0.14601346151E+03 -0.23476255073E+03 -0.40873939915E+03  0.63521750810E+03  0.40000000000E+03 0.  1.
<mgrwt>
<rscale>  2 0.48624416E+03</rscale>
<asrwt>0</asrwt>
<pdfrwt beam="1">  1       21 0.41594905E-01 0.48624416E+03</pdfrwt>
<pdfrwt beam="2">  1       21 0.13817822E+00 0.48624416E+03</pdfrwt>
<totfact> 0.17388302E+03</totfact>
</mgrwt>
</event>
<event>
 4    1  0.4703494E-002  0.9062238E+03  0.7818608E-02  0.9417835E-01
         21   -1    0    0  501  502  0.00000000000E+00  0.00000000000E+00  0.14478376722E+04  0.14478376722E+04  0.00000000000E+00 0.  1.
         21   -1    0    0  502  503 -0.00000000000E+00 -0.00000000000E+00 -0.57158437081E+03  0.57158437081E+03  0.00000000000E+00 0. -1.
    9000007    1    1    2  501    0 -0.93054156223E+02 -0.80782581277E+03  0.34989031643E+03  0.97142413666E+03  0.40000000000E+03 0. -1.
   -9000007    1    1    2    0  503  0.93054156223E+02  0.80782581277E+03  0.52636298496E+03  0.10479979063E+04  0.40000000000E+03 0.  1.
<mgrwt>
<rscale>  2 0.90622382E+03</rscale>
<asrwt>0</asrwt>
<pdfrwt beam="1">  1       21 0.22274426E+00 0.90622382E+03</pdfrwt>
<pdfrwt beam="2">  1       21 0.87936057E-01 0.90622382E+03</pdfrwt>
<totfact> 0.70464826E+01</totfact>
</mgrwt>
</event>
<event>
 4    1  0.4703494E-002  0.4573162E+03  0.7818608E-02  0.1025562E+00
         21   -1    0    0  503  502  0.00000000000E+00  0.00000000000E+00  0.11071667889E+04  0.11071667889E+04  0.00000000000E+00 0.  1.
         21   -1    0    0  501  503 -0.00000000000E+00 -0.00000000000E+00 -0.18905992583E+03  0.18905992583E+03  0.00000000000E+00 0.  1.
    9000007    1    1    2  501    0  0.11053931573E+03 -0.19214354653E+03  0.47820563630E+03  0.66167870858E+03  0.40000000000E+03 0.  1.
   -9000007    1    1    2    0  502 -0.11053931573E+03  0.19214354653E+03  0.43990122674E+03  0.63454800613E+03  0.40000000000E+03 0.  1.
<mgrwt>
<rscale>  2 0.45731617E+03</rscale>
<asrwt>0</asrwt>
<pdfrwt beam="1">  1       21 0.17033335E+00 0.45731617E+03</pdfrwt>
<pdfrwt beam="2">  1       21 0.29086143E-01 0.45731617E+03</pdfrwt>
<totfact> 0.20419242E+03</totfact>
</mgrwt>
</event>
<event>
 4    1  0.4703494E-002  0.4134717E+03  0.7818608E-02  0.1039212E+00
         21   -1    0    0  501  502  0.00000000000E+00  0.00000000000E+00  0.12744457642E+04  0.12744457642E+04  0.00000000000E+00 0. -1.
         21   -1    0    0  502  503 -0.00000000000E+00 -0.00000000000E+00 -0.14983722701E+03  0.14983722701E+03  0.00000000000E+00 0.  1.
    9000007    1    1    2  501    0 -0.86320201712E+02  0.59225687301E+02  0.79277555600E+03  0.89412076447E+03  0.40000000000E+03 0. -1.
   -9000007    1    1    2    0  503  0.86320201712E+02 -0.59225687301E+02  0.33183298118E+03  0.53016222674E+03  0.40000000000E+03 0.  1.
<mgrwt>
<rscale>  2 0.41347172E+03</rscale>
<asrwt>0</asrwt>
<pdfrwt beam="1">  1       21 0.19606857E+00 0.41347172E+03</pdfrwt>
<pdfrwt beam="2">  1       21 0.23051882E-01 0.41347172E+03</pdfrwt>
<totfact> 0.21664423E+03</totfact>
</mgrwt>
</event>
<event>
 4    1  0.4703494E-002  0.4803076E+03  0.7818608E-02  0.1019051E+00
         21   -1    0    0  501  502  0.00000000000E+00  0.00000000000E+00  0.40613081037E+03  0.40613081037E+03  0.00000000000E+00 0.  1.
         21   -1    0    0  502  503 -0.00000000000E+00 -0.00000000000E+00 -0.70436047065E+03  0.70436047065E+03  0.00000000000E+00 0.  1.
    9000007    1    1    2  501    0 -0.21811479792E+03 -0.15205688075E+03  0.95161114784E+02  0.48964374582E+03  0.40000000000E+03 0.  1.
   -9000007    1    1    2    0  503  0.21811479792E+03  0.15205688075E+03 -0.39339077507E+03  0.62084753520E+03  0.40000000000E+03 0.  1.
<mgrwt>
<rscale>  2 0.48030757E+03</rscale>
<asrwt>0</asrwt>
<pdfrwt beam="1">  1       21 0.62481663E-01 0.48030757E+03</pdfrwt>
<pdfrwt beam="2">  1       21 0.10836315E+00 0.48030757E+03</pdfrwt>
<totfact> 0.13592943E+03</totfact>
</mgrwt>
</event>
<event>
 4    1  0.4703494E-002  0.5818913E+03  0.7818608E-02  0.9943705E-01
         21   -1    0    0  501  502  0.00000000000E+00  0.00000000000E+00  0.69265859672E+03  0.69265859672E+03  0.00000000000E+00 0. -1.
         21   -1    0    0  502  503 -0.00000000000E+00 -0.00000000000E+00 -0.57742994265E+03  0.57742994265E+03  0.00000000000E+00 0.  1.
    9000007    1    1    2  501    0  0.15801341374E+02  0.42231238492E+03  0.30635849984E+03  0.65761155956E+03  0.40000000000E+03 0. -1.
   -9000007    1    1    2    0  503 -0.15801341374E+02 -0.42231238492E+03 -0.19112984577E+03  0.61247697980E+03  0.40000000000E+03 0. -1.
<mgrwt>
<rscale>  2 0.58189126E+03</rscale>
<asrwt>0</asrwt>
<pdfrwt beam="1">  1       21 0.10656286E+00 0.58189126E+03</pdfrwt>
<pdfrwt beam="2">  1       21 0.88835376E-01 0.58189126E+03</pdfrwt>
<totfact> 0.61096797E+02</totfact>
</mgrwt>
</event>
<event>
 4    1  0.4703494E-002  0.5374400E+03  0.7818608E-02  0.1004444E+00
         21   -1    0    0  501  502  0.00000000000E+00  0.00000000000E+00  0.12455747334E+04  0.12455747334E+04  0.00000000000E+00 0. -1.
         21   -1    0    0  502  503 -0.00000000000E+00 -0.00000000000E+00 -0.31298731326E+03  0.31298731326E+03  0.00000000000E+00 0. -1.
    9000007    1    1    2  501    0  0.12155476602E+03 -0.33773682665E+03  0.86295731769E+03  0.10166302461E+04  0.40000000000E+03 0. -1.
   -9000007    1    1    2    0  503 -0.12155476602E+03  0.33773682665E+03  0.69630102418E+02  0.54193180049E+03  0.40000000000E+03 0. -1.
<mgrwt>
<rscale>  2 0.53743997E+03</rscale>
<asrwt>0</asrwt>
<pdfrwt beam="1">  1       21 0.19162688E+00 0.53743997E+03</pdfrwt>
<pdfrwt beam="2">  1       21 0.48151895E-01 0.53743997E+03</pdfrwt>
<totfact> 0.49828178E+02</totfact>
</mgrwt>
</event>
<event>
 4    1  0.4703494E-002  0.4704078E+03  0.7818608E-02  0.1021805E+00
         21   -1    0    0  503  502  0.00000000000E+00  0.00000000000E+00  0.14676922709E+04  0.14676922709E+04  0.00000000000E+00 0.  1.
         21   -1    0    0  501  503 -0.00000000000E+00 -0.00000000000E+00 -0.15778193221E+03  0.15778193221E+03  0.00000000000E+00 0.  1.
    9000007    1    1    2  501    0  0.21080550846E+03 -0.12978662206E+03  0.48361883834E+03  0.67466340530E+03  0.40000000000E+03 0.  1.
   -9000007    1    1    2    0  502 -0.21080550846E+03  0.12978662206E+03  0.82629150036E+03  0.95081079781E+03  0.40000000000E+03 0.  1.
<mgrwt>
<rscale>  2 0.47040783E+03</rscale>
<asrwt>0</asrwt>
<pdfrwt beam="1">  1       21 0.22579880E+00 0.47040783E+03</pdfrwt>
<pdfrwt beam="2">  1       21 0.24274144E-01 0.47040783E+03</pdfrwt>
<totfact> 0.12234439E+03</totfact>
</mgrwt>
</event>
<event>
 4    1  0.4703494E-002  0.4387463E+03  0.7818608E-02  0.1031132E+00
         21   -1    0    0  503  502  0.00000000000E+00  0.00000000000E+00  0.45091851307E+03  0.45091851307E+03  0.00000000000E+00 0.  1.
         21   -1    0    0  501  503 -0.00000000000E+00 -0.00000000000E+00 -0.76240639859E+03  0.76240639859E+03  0.00000000000E+00 0.  1.
    9000007    1    1    2  501    0  0.52957175541E+02 -0.17231917134E+03 -0.55818517278E+03  0.70997820133E+03  0.40000000000E+03 0.  1.
   -9000007    1    1    2    0  502 -0.52957175541E+02  0.17231917134E+03  0.24669728727E+03  0.50334671033E+03  0.40000000000E+03 0.  1.
<mgrwt>
<rscale>  2 0.43874635E+03</rscale>
<asrwt>0</asrwt>
<pdfrwt beam="1">  1       21 0.69372081E-01 0.43874635E+03</pdfrwt>
<pdfrwt beam="2">  1       21 0.11729329E+00 0.43874635E+03</pdfrwt>
<totfact> 0.89864884E+02</totfact>
</mgrwt>
</event>
<event>
 4    1  0.4703494E-002  0.4225309E+03  0.7818608E-02  0.1036246E+00
         21   -1    0    0  503  502  0.00000000000E+00  0.00000000000E+00  0.31992474653E+03  0.31992474653E+03  0.00000000000E+00 0. -1.
         21   -1    0    0  501  503 -0.00000000000E+00 -0.00000000000E+00 -0.61580992222E+03  0.61580992222E+03  0.00000000000E+00 0. -1.
    9000007    1    1    2  501    0 -0.12005727912E+03  0.64176528145E+02 -0.29123784319E+03  0.51317819355E+03  0.40000000000E+03 0. -1.
   -9000007    1    1    2    0  502  0.12005727912E+03 -0.64176528145E+02 -0.46473325040E+01  0.42255647520E+03  0.40000000000E+03 0. -1.
<mgrwt>
<rscale>  2 0.42253092E+03</rscale>
<asrwt>0</asrwt>
<pdfrwt beam="1">  1       21 0.49219192E-01 0.42253092E+03</pdfrwt>
<pdfrwt beam="2">  1       21 0.94739988E-01 0.42253092E+03</pdfrwt>
<totfact> 0.32294346E+03</totfact>
</mgrwt>
</event>
<event>
 4    1  0.4703494E-002  0.6827789E+03  0.7818608E-02  0.9747144E-01
         21   -1    0    0  503  502  0.00000000000E+00  0.00000000000E+00  0.15598684642E+04  0.15598684642E+04  0.00000000000E+00 0.  1.
         21   -1    0    0  501  503 -0.00000000000E+00 -0.00000000000E+00 -0.55756525723E+03  0.55756525723E+03  0.00000000000E+00 0.  1.
    9000007    1    1    2  501    0 -0.16585895962E+03  0.52789939837E+03 -0.22000915383E+03  0.71734998227E+03  0.40000000000E+03 0.  1.
   -9000007    1    1    2    0  502  0.16585895962E+03 -0.52789939837E+03  0.12223123608E+04  0.14000837392E+04  0.40000000000E+03 0.  1.
<mgrwt>
<rscale>  2 0.68277886E+03</rscale>
<asrwt>0</asrwt>
<pdfrwt beam="1">  1       21 0.23997976E+00 0.68277886E+03</pdfrwt>
<pdfrwt beam="2">  1       21 0.85779271E-01 0.68277886E+03</pdfrwt>
<totfact> 0.62348036E+01</totfact>
</mgrwt>
</event>
<event>
 4    1  0.4703494E-002  0.4176705E+03  0.7818608E-02  0.1037827E+00
         21   -1    0    0  501  502  0.00000000000E+00  0.00000000000E+00  0.21509643702E+04  0.21509643702E+04  0.00000000000E+00 0.  1.
         21   -1    0    0  502  503 -0.00000000000E+00 -0.00000000000E+00 -0.81394935793E+02  0.81394935793E+02  0.00000000000E+00 0.  1.
    9000007    1    1    2  501    0  0.34183422339E+02  0.11523941280E+03  0.96788310395E+03  0.10541566921E+04  0.40000000000E+03 0. -1.
   -9000007    1    1    2    0  503 -0.34183422339E+02 -0.11523941280E+03  0.11016863304E+04  0.11782026139E+04  0.40000000000E+03 0. -1.
<mgrwt>
<rscale>  2 0.41767048E+03</rscale>
<asrwt>0</asrwt>
<pdfrwt beam="1">  1       21 0.33091755E+00 0.41767048E+03</pdfrwt>
<pdfrwt beam="2">  1       21 0.12522299E-01 0.41767048E+03</pdfrwt>
<totfact> 0.10015393E+03</totfact>
</mgrwt>
</event>
<event>
 4    1  0.4703494E-002  0.4921494E+03  0.7818608E-02  0.1015849E+00
         21   -1    0    0  501  502  0.00000000000E+00  0.00000000000E+00  0.56367528703E+03  0.56367528703E+03  0.00000000000E+00 0.  1.
         21   -1    0    0  502  503 -0.00000000000E+00 -0.00000000000E+00 -0.43092654182E+03  0.43092654182E+03  0.00000000000E+00 0.  1.
    9000007    1    1    2  501    0 -0.13198432763E+02  0.28642069416E+03  0.92910643104E+02  0.50084269015E+03  0.40000000000E+03 0.  1.
   -9000007    1    1    2    0  503  0.13198432763E+02 -0.28642069416E+03  0.39838102100E+02  0.49375913870E+03  0.40000000000E+03 0.  1.
<mgrwt>
<rscale>  2 0.49214938E+03</rscale>
<asrwt>0</asrwt>
<pdfrwt beam="1">  1       21 0.86719275E-01 0.49214938E+03</pdfrwt>
<pdfrwt beam="2">  1       21 0.66296391E-01 0.49214938E+03</pdfrwt>
<totfact> 0.20329753E+03</totfact>
</mgrwt>
</event>
<event>
 4    1  0.4703494E-002  0.4361736E+03  0.7818608E-02  0.1031927E+00
         21   -1    0    0  501  502  0.00000000000E+00  0.00000000000E+00  0.42286864016E+03  0.42286864016E+03  0.00000000000E+00 0.  1.
         21   -1    0    0  502  503 -0.00000000000E+00 -0.00000000000E+00 -0.45297706508E+03  0.45297706508E+03  0.00000000000E+00 0.  1.
    9000007    1    1    2  501    0  0.16317926826E+03 -0.60165709556E+02  0.21056039097E+02  0.43668151206E+03  0.40000000000E+03 0.  1.
   -9000007    1    1    2    0  503 -0.16317926826E+03  0.60165709556E+02 -0.51164464019E+02  0.43916419318E+03  0.40000000000E+03 0.  1.
<mgrwt>
<rscale>  2 0.43617357E+03</rscale>
<asrwt>0</asrwt>
<pdfrwt beam="1">  1       21 0.65056714E-01 0.43617357E+03</pdfrwt>
<pdfrwt beam="2">  1       21 0.69688779E-01 0.43617357E+03</pdfrwt>
<totfact> 0.35748690E+03</totfact>
</mgrwt>
</event>
<event>
 4    1  0.4703494E-002  0.4444131E+03  0.7818608E-02  0.1029401E+00
         21   -1    0    0  501  502  0.00000000000E+00  0.00000000000E+00  0.84709056423E+03  0.84709056423E+03  0.00000000000E+00 0. -1.
         21   -1    0    0  502  503 -0.00000000000E+00 -0.00000000000E+00 -0.25334508169E+03  0.25334508169E+03  0.00000000000E+00 0. -1.
    9000007    1    1    2  501    0  0.42146304160E+02  0.18901505276E+03  0.14154374919E+03  0.46640929885E+03  0.40000000000E+03 0. -1.
   -9000007    1    1    2    0  503 -0.42146304160E+02 -0.18901505276E+03  0.45220173335E+03  0.63402634706E+03  0.40000000000E+03 0. -1.
<mgrwt>
<rscale>  2 0.44441310E+03</rscale>
<asrwt>0</asrwt>
<pdfrwt beam="1">  1       21 0.13032162E+00 0.44441310E+03</pdfrwt>
<pdfrwt beam="2">  1       21 0.38976167E-01 0.44441310E+03</pdfrwt>
<totfact> 0.23550481E+03</totfact>
</mgrwt>
</event>
<event>
 4    1  0.4703494E-002  0.5558470E+03  0.7818608E-02  0.1000150E+00
         21   -1    0    0  503  502  0.00000000000E+00  0.00000000000E+00  0.98618591201E+03  0.98618591201E+03  0.00000000000E+00 0. -1.
         21   -1    0    0  501  503 -0.00000000000E+00 -0.00000000000E+00 -0.56803154012E+03  0.56803154012E+03  0.00000000000E+00 0.  1.
    9000007    1    1    2  501    0  0.37088906396E+03 -0.10680454615E+03 -0.31132873130E+03  0.63709613700E+03  0.40000000000E+03 0.  1.
   -9000007    1    1    2    0  502 -0.37088906396E+03  0.10680454615E+03  0.72948310318E+03  0.91712131514E+03  0.40000000000E+03 0. -1.
<mgrwt>
<rscale>  2 0.55584702E+03</rscale>
<asrwt>0</asrwt>
<pdfrwt beam="1">  1       21 0.15172091E+00 0.55584702E+03</pdfrwt>
<pdfrwt beam="2">  1       21 0.87389468E-01 0.55584702E+03</pdfrwt>
<totfact> 0.25565818E+02</totfact>
</mgrwt>
</event>
<event>
 4    1  0.4703494E-002  0.5280103E+03  0.7818608E-02  0.1006716E+00
         21   -1    0    0  503  502  0.00000000000E+00  0.00000000000E+00  0.54731684927E+03  0.54731684927E+03  0.00000000000E+00 0.  1.
         21   -1    0    0  501  503 -0.00000000000E+00 -0.00000000000E+00 -0.51030267030E+03  0.51030267030E+03  0.00000000000E+00 0. -1.
    9000007    1    1    2  501    0 -0.17836832610E+03 -0.29492298131E+03 -0.39214897059E+01  0.52802481262E+03  0.40000000000E+03 0.  1.
   -9000007    1    1    2    0  502  0.17836832610E+03  0.29492298131E+03  0.40935668672E+02  0.52959470695E+03  0.40000000000E+03 0. -1.
<mgrwt>
<rscale>  2 0.52801025E+03</rscale>
<asrwt>0</asrwt>
<pdfrwt beam="1">  1       21 0.84202593E-01 0.52801025E+03</pdfrwt>
<pdfrwt beam="2">  1       21 0.78508103E-01 0.52801025E+03</pdfrwt>
<totfact> 0.14663438E+03</totfact>
</mgrwt>
</event>
<event>
 4    1  0.4703494E-002  0.4669187E+03  0.7818608E-02  0.1022794E+00
         21   -1    0    0  503  502  0.00000000000E+00  0.00000000000E+00  0.87540749123E+03  0.87540749123E+03  0.00000000000E+00 0.  1.
         21   -1    0    0  501  503 -0.00000000000E+00 -0.00000000000E+00 -0.32672635294E+03  0.32672635294E+03  0.00000000000E+00 0.  1.
    9000007    1    1    2  501    0 -0.24081111763E+03  0.48025022825E+01 -0.18747458344E+02  0.46729490217E+03  0.40000000000E+03 0.  1.
   -9000007    1    1    2    0  502  0.24081111763E+03 -0.48025022825E+01  0.56742859663E+03  0.73483894200E+03  0.40000000000E+03 0.  1.
<mgrwt>
<rscale>  2 0.46691869E+03</rscale>
<asrwt>0</asrwt>
<pdfrwt beam="1">  1       21 0.13467807E+00 0.46691869E+03</pdfrwt>
<pdfrwt beam="2">  1       21 0.50265593E-01 0.46691869E+03</pdfrwt>
<totfact> 0.12588518E+03</totfact>
</mgrwt>
</event>
<event>
 4    1  0.4703494E-002  0.5547675E+03  0.7818608E-02  0.1000396E+00
         21   -1    0    0  503  502  0.00000000000E+00  0.00000000000E+00  0.94674485434E+03  0.94674485434E+03  0.00000000000E+00 0.  1.
         21   -1    0    0  501  503 -0.00000000000E+00 -0.00000000000E+00 -0.42250705206E+03  0.42250705206E+03  0.00000000000E+00 0.  1.
    9000007    1    1    2  501    0  0.78892352871E+02 -0.37622198389E+03 -0.66640453257E+02  0.55875570199E+03  0.40000000000E+03 0.  1.
   -9000007    1    1    2    0  502 -0.78892352871E+02  0.37622198389E+03  0.59087825553E+03  0.81049620441E+03  0.40000000000E+03 0.  1.
<mgrwt>
<rscale>  2 0.55476750E+03</rscale>
<asrwt>0</asrwt>
<pdfrwt beam="1">  1       21 0.14565305E+00 0.55476750E+03</pdfrwt>
<pdfrwt beam="2">  1       21 0.65001085E-01 0.55476750E+03</pdfrwt>
<totfact> 0.56405086E+02</totfact>
</mgrwt>
</event>
<event>
 4    1  0.4703494E-002  0.5241936E+03  0.7818608E-02  0.1007650E+00
         21   -1    0    0  503  502  0.00000000000E+00  0.00000000000E+00  0.44273537312E+03  0.44273537312E+03  0.00000000000E+00 0. -1.
         21   -1    0    0  501  503 -0.00000000000E+00 -0.00000000000E+00 -0.73057518467E+03  0.73057518467E+03  0.00000000000E+00 0. -1.
    9000007    1    1    2  501    0 -0.76303085289E+02  0.33008596180E+03 -0.37149281978E+03  0.64248409953E+03  0.40000000000E+03 0. -1.
   -9000007    1    1    2    0  502  0.76303085289E+02 -0.33008596180E+03  0.83653008236E+02  0.53082645826E+03  0.40000000000E+03 0. -1.
<mgrwt>
<rscale>  2 0.52419357E+03</rscale>
<asrwt>0</asrwt>
<pdfrwt beam="1">  1       21 0.68113135E-01 0.52419357E+03</pdfrwt>
<pdfrwt beam="2">  1       21 0.11239618E+00 0.52419357E+03</pdfrwt>
<totfact> 0.10077961E+03</totfact>
</mgrwt>
</event>
<event>
 4    1  0.4703494E-002  0.4806767E+03  0.7818608E-02  0.1018949E+00
         21   -1    0    0  501  502  0.00000000000E+00  0.00000000000E+00  0.50945441465E+03  0.50945441465E+03  0.00000000000E+00 0. -1.
         21   -1    0    0  502  503 -0.00000000000E+00 -0.00000000000E+00 -0.46855558689E+03  0.46855558689E+03  0.00000000000E+00 0.  1.
    9000007    1    1    2  501    0  0.72004359108E+02 -0.25664263540E+03 -0.67135157854E+02  0.48534235283E+03  0.40000000000E+03 0.  1.
   -9000007    1    1    2    0  503 -0.72004359108E+02  0.25664263540E+03  0.10803398562E+03  0.49266764871E+03  0.40000000000E+03 0.  1.
<mgrwt>
<rscale>  2 0.48067668E+03</rscale>
<asrwt>0</asrwt>
<pdfrwt beam="1">  1       21 0.78377602E-01 0.48067668E+03</pdfrwt>
<pdfrwt beam="2">  1       21 0.72085475E-01 0.48067668E+03</pdfrwt>
<totfact> 0.21395984E+03</totfact>
</mgrwt>
</event>
<event>
 4    1  0.4703494E-002  0.4262805E+03  0.7818608E-02  0.1035041E+00
         21   -1    0    0  501  502  0.00000000000E+00  0.00000000000E+00  0.10308420350E+04  0.10308420350E+04  0.00000000000E+00 0. -1.
         21   -1    0    0  502  503 -0.00000000000E+00 -0.00000000000E+00 -0.16277422476E+04  0.16277422476E+04  0.00000000000E+00 0. -1.
    9000007    1    1    2  501    0  0.27714884410E+02 -0.14473048461E+03  0.95680140717E+03  0.10474654938E+04  0.40000000000E+03 0. -1.
   -9000007    1    1    2    0  503 -0.27714884410E+02  0.14473048461E+03 -0.15537016198E+04  0.16111187887E+04  0.40000000000E+03 0. -1.
<mgrwt>
<rscale>  2 0.42628046E+03</rscale>
<asrwt>0</asrwt>
<pdfrwt beam="1">  1       21 0.15859108E+00 0.42628046E+03</pdfrwt>
<pdfrwt beam="2">  1       21 0.25042188E+00 0.42628046E+03</pdfrwt>
<totfact> 0.12933347E+01</totfact>
</mgrwt>
</event>
<event>
 4    1  0.4703494E-002  0.4369763E+03  0.7818608E-02  0.1031679E+00
         21   -1    0    0  501  502  0.00000000000E+00  0.00000000000E+00  0.12098527149E+04  0.12098527149E+04  0.00000000000E+00 0.  1.
         21   -1    0    0  502  503 -0.00000000000E+00 -0.00000000000E+00 -0.40248523533E+03  0.40248523533E+03  0.00000000000E+00 0.  1.
    9000007    1    1    2  501    0  0.12642735082E+02 -0.17546645258E+03  0.10322200478E+04  0.11209043411E+04  0.40000000000E+03 0.  1.
   -9000007    1    1    2    0  503 -0.12642735082E+02  0.17546645258E+03 -0.22485256826E+03  0.49143360913E+03  0.40000000000E+03 0.  1.
<mgrwt>
<rscale>  2 0.43697633E+03</rscale>
<asrwt>0</asrwt>
<pdfrwt beam="1">  1       21 0.18613119E+00 0.43697633E+03</pdfrwt>
<pdfrwt beam="2">  1       21 0.61920806E-01 0.43697633E+03</pdfrwt>
<totfact> 0.33046049E+02</totfact>
</mgrwt>
</event>
<event>
 4    1  0.4703494E-002  0.6396983E+03  0.7818608E-02  0.9826304E-01
         21   -1    0    0  503  502  0.00000000000E+00  0.00000000000E+00  0.64123087125E+03  0.64123087125E+03  0.00000000000E+00 0. -1.
         21   -1    0    0  501  503 -0.00000000000E+00 -0.00000000000E+00 -0.13424363226E+04  0.13424363226E+04  0.00000000000E+00 0.  1.
    9000007    1    1    2  501    0  0.17946621149E+02 -0.49889055184E+03 -0.10689933254E+04  0.12457771043E+04  0.40000000000E+03 0.  1.
   -9000007    1    1    2    0  502 -0.17946621149E+02  0.49889055184E+03  0.36778787404E+03  0.73789008952E+03  0.40000000000E+03 0. -1.
<mgrwt>
<rscale>  2 0.63969826E+03</rscale>
<asrwt>0</asrwt>
<pdfrwt beam="1">  1       21 0.98650904E-01 0.63969826E+03</pdfrwt>
<pdfrwt beam="2">  1       21 0.20652866E+00 0.63969826E+03</pdfrwt>
<totfact> 0.74638938E+01</totfact>
</mgrwt>
</event>
<event>
 4    1  0.4703494E-002  0.4827044E+03  0.7818608E-02  0.1018395E+00
         21   -1    0    0  503  502  0.00000000000E+00  0.00000000000E+00  0.79768829888E+03  0.79768829888E+03  0.00000000000E+00 0.  1.
         21   -1    0    0  501  503 -0.00000000000E+00 -0.00000000000E+00 -0.11693227620E+04  0.11693227620E+04  0.00000000000E+00 0. -1.
    9000007    1    1    2  501    0 -0.26961423941E+03 -0.17655431391E+02 -0.10376707527E+04  0.11444492752E+04  0.40000000000E+03 0. -1.
   -9000007    1    1    2    0  502  0.26961423941E+03  0.17655431391E+02  0.66603628958E+03  0.82256178576E+03  0.40000000000E+03 0.  1.
<mgrwt>
<rscale>  2 0.48270442E+03</rscale>
<asrwt>0</asrwt>
<pdfrwt beam="1">  1       21 0.12272128E+00 0.48270442E+03</pdfrwt>
<pdfrwt beam="2">  1       21 0.17989581E+00 0.48270442E+03</pdfrwt>
<totfact> 0.70818210E+01</totfact>
</mgrwt>
</event>
<event>
 4    1  0.4703494E-002  0.4141710E+03  0.7818608E-02  0.1038980E+00
         21   -1    0    0  501  502  0.00000000000E+00  0.00000000000E+00  0.53944337683E+03  0.53944337683E+03  0.00000000000E+00 0.  1.
         21   -1    0    0  502  503 -0.00000000000E+00 -0.00000000000E+00 -0.82848724741E+03  0.82848724741E+03  0.00000000000E+00 0.  1.
    9000007    1    1    2  501    0  0.66610535175E+02 -0.84265615236E+02  0.39237116082E+03  0.57051975001E+03  0.40000000000E+03 0.  1.
   -9000007    1    1    2    0  503 -0.66610535175E+02  0.84265615236E+02 -0.68141503140E+03  0.79741087422E+03  0.40000000000E+03 0.  1.
<mgrwt>
<rscale>  2 0.41417105E+03</rscale>
<asrwt>0</asrwt>
<pdfrwt beam="1">  1       21 0.82991289E-01 0.41417105E+03</pdfrwt>
<pdfrwt beam="2">  1       21 0.12745958E+00 0.41417105E+03</pdfrwt>
<totfact> 0.48820953E+02</totfact>
</mgrwt>
</event>
<event>
 4    1  0.4703494E-002  0.5187437E+03  0.7818608E-02  0.1008999E+00
         21   -1    0    0  503  502  0.00000000000E+00  0.00000000000E+00  0.85029182564E+03  0.85029182564E+03  0.00000000000E+00 0. -1.
         21   -1    0    0  501  503 -0.00000000000E+00 -0.00000000000E+00 -0.35871549483E+03  0.35871549483E+03  0.00000000000E+00 0.  1.
    9000007    1    1    2  501    0  0.31250958919E+03  0.10692435037E+03  0.38347123149E+02  0.52015916977E+03  0.40000000000E+03 0. -1.
   -9000007    1    1    2    0  502 -0.31250958919E+03 -0.10692435037E+03  0.45322920767E+03  0.68884815070E+03  0.40000000000E+03 0. -1.
<mgrwt>
<rscale>  2 0.51874373E+03</rscale>
<asrwt>0</asrwt>
<pdfrwt beam="1">  1       21 0.13081413E+00 0.51874373E+03</pdfrwt>
<pdfrwt beam="2">  1       21 0.55187000E-01 0.51874373E+03</pdfrwt>
<totfact> 0.10899625E+03</totfact>
</mgrwt>
</event>
<event>
 4    1  0.4703494E-002  0.4144309E+03  0.7818608E-02  0.1038894E+00
         21   -1    0    0  503  502  0.00000000000E+00  0.00000000000E+00  0.79666744099E+02  0.79666744099E+02  0.00000000000E+00 0.  1.
         21   -1    0    0  501  503 -0.00000000000E+00 -0.00000000000E+00 -0.28247372502E+04  0.28247372502E+04  0.00000000000E+00 0.  1.
    9000007    1    1    2  501    0 -0.95442849149E+02  0.51416046013E+02 -0.20791791575E+04  0.21200799316E+04  0.40000000000E+03 0.  1.
   -9000007    1    1    2    0  502  0.95442849149E+02 -0.51416046013E+02 -0.66589134859E+03  0.78432406273E+03  0.40000000000E+03 0.  1.
<mgrwt>
<rscale>  2 0.41443087E+03</rscale>
<asrwt>0</asrwt>
<pdfrwt beam="1">  1       21 0.12256423E-01 0.41443087E+03</pdfrwt>
<pdfrwt beam="2">  1       21 0.43457492E+00 0.41443087E+03</pdfrwt>
<totfact> 0.23158866E+02</totfact>
</mgrwt>
</event>
<event>
 4    1  0.4703494E-002  0.4103043E+03  0.7818608E-02  0.1040269E+00
         21   -1    0    0  503  502  0.00000000000E+00  0.00000000000E+00  0.35524008724E+03  0.35524008724E+03  0.00000000000E+00 0. -1.
         21   -1    0    0  501  503 -0.00000000000E+00 -0.00000000000E+00 -0.76391091312E+03  0.76391091312E+03  0.00000000000E+00 0. -1.
    9000007    1    1    2  501    0  0.65264493876E+02  0.63954126663E+02 -0.54911516232E+03  0.68547578073E+03  0.40000000000E+03 0. -1.
   -9000007    1    1    2    0  502 -0.65264493876E+02 -0.63954126663E+02  0.14044433644E+03  0.43367521963E+03  0.40000000000E+03 0. -1.
<mgrwt>
<rscale>  2 0.41030426E+03</rscale>
<asrwt>0</asrwt>
<pdfrwt beam="1">  1       21 0.54652322E-01 0.41030426E+03</pdfrwt>
<pdfrwt beam="2">  1       21 0.11752475E+00 0.41030426E+03</pdfrwt>
<totfact> 0.15294021E+03</totfact>
</mgrwt>
</event>
<event>
 4    1  0.4703494E-002  0.4056631E+03  0.7818608E-02  0.1041836E+00
         21   -1    0    0  503  502  0.00000000000E+00  0.00000000000E+00  0.13448036107E+04  0.13448036107E+04  0.00000000000E+00 0. -1.
         21   -1    0    0  501  503 -0.00000000000E+00 -0.00000000000E+00 -0.72870251124E+03  0.72870251124E+03  0.00000000000E+00 0. -1.
    9000007    1    1    2  501    0 -0.15800812221E+02 -0.65672609487E+02 -0.63765492538E+03  0.75575549033E+03  0.40000000000E+03 0. -1.
   -9000007    1    1    2    0  502  0.15800812221E+02  0.65672609487E+02  0.12537560248E+04  0.13177506316E+04  0.40000000000E+03 0. -1.
<mgrwt>
<rscale>  2 0.40566311E+03</rscale>
<asrwt>0</asrwt>
<pdfrwt beam="1">  1       21 0.20689286E+00 0.40566311E+03</pdfrwt>
<pdfrwt beam="2">  1       21 0.11210808E+00 0.40566311E+03</pdfrwt>
<totfact> 0.61138020E+01</totfact>
</mgrwt>
</event>
<event>
 4    1  0.4703494E-002  0.4702394E+03  0.7818608E-02  0.1021853E+00
         21   -1    0    0  503  502  0.00000000000E+00  0.00000000000E+00  0.20872760119E+03  0.20872760119E+03  0.00000000000E+00 0.  1.
         21   -1    0    0  501  503 -0.00000000000E+00 -0.00000000000E+00 -0.32880662173E+04  0.32880662173E+04  0.00000000000E+00 0.  1.
    9000007    1    1    2  501    0  0.19157638776E+03 -0.15628036954E+03 -0.29791064779E+04  0.30159907946E+04  0.40000000000E+03 0.  1.
   -9000007    1    1    2    0  502 -0.19157638776E+03  0.15628036954E+03 -0.10023213817E+03  0.48080302388E+03  0.40000000000E+03 0.  1.
<mgrwt>
<rscale>  2 0.47023937E+03</rscale>
<asrwt>0</asrwt>
<pdfrwt beam="1">  1       21 0.32111941E-01 0.47023937E+03</pdfrwt>
<pdfrwt beam="2">  1       21 0.50585631E+00 0.47023937E+03</pdfrwt>
<totfact> 0.11395195E+01</totfact>
</mgrwt>
</event>
<event>
 4    1  0.4703494E-002  0.4389084E+03  0.7818608E-02  0.1031082E+00
         21   -1    0    0  503  502  0.00000000000E+00  0.00000000000E+00  0.21872554199E+03  0.21872554199E+03  0.00000000000E+00 0.  1.
         21   -1    0    0  501  503 -0.00000000000E+00 -0.00000000000E+00 -0.10592004783E+04  0.10592004783E+04  0.00000000000E+00 0. -1.
    9000007    1    1    2  501    0 -0.17404390200E+03 -0.48469448164E+02 -0.15796279088E+03  0.46646844538E+03  0.40000000000E+03 0.  1.
   -9000007    1    1    2    0  502  0.17404390200E+03  0.48469448164E+02 -0.68251214544E+03  0.81145757492E+03  0.40000000000E+03 0. -1.
<mgrwt>
<rscale>  2 0.43890838E+03</rscale>
<asrwt>0</asrwt>
<pdfrwt beam="1">  1       21 0.33650083E-01 0.43890838E+03</pdfrwt>
<pdfrwt beam="2">  1       21 0.16295392E+00 0.43890838E+03</pdfrwt>
<totfact> 0.17429613E+03</totfact>
</mgrwt>
</event>
<event>
 4    1  0.4703494E-002  0.4286554E+03  0.7818608E-02  0.1034286E+00
         21   -1    0    0  503  502  0.00000000000E+00  0.00000000000E+00  0.44547935481E+03  0.44547935481E+03  0.00000000000E+00 0. -1.
         21   -1    0    0  501  503 -0.00000000000E+00 -0.00000000000E+00 -0.42348744791E+03  0.42348744791E+03  0.00000000000E+00 0. -1.
    9000007    1    1    2  501    0  0.11195713825E+03 -0.10588229487E+03 -0.59093991708E+02  0.43270955736E+03  0.40000000000E+03 0. -1.
   -9000007    1    1    2    0  502 -0.11195713825E+03  0.10588229487E+03  0.81085898607E+02  0.43625724536E+03  0.40000000000E+03 0. -1.
<mgrwt>
<rscale>  2 0.42865541E+03</rscale>
<asrwt>0</asrwt>
<pdfrwt beam="1">  1       21 0.68535286E-01 0.42865541E+03</pdfrwt>
<pdfrwt beam="2">  1       21 0.65151915E-01 0.42865541E+03</pdfrwt>
<totfact> 0.37092475E+03</totfact>
</mgrwt>
</event>
<event>
 4    1  0.4703494E-002  0.4640900E+03  0.7818608E-02  0.1023602E+00
         21   -1    0    0  501  502  0.00000000000E+00  0.00000000000E+00  0.72002483605E+03  0.72002483605E+03  0.00000000000E+00 0. -1.
         21   -1    0    0  502  503 -0.00000000000E+00 -0.00000000000E+00 -0.32355311121E+03  0.32355311121E+03  0.00000000000E+00 0. -1.
    9000007    1    1    2  501    0 -0.10302854085E+03 -0.21157665675E+03  0.34160006341E+03  0.57625529519E+03  0.40000000000E+03 0. -1.
   -9000007    1    1    2    0  503  0.10302854085E+03  0.21157665675E+03  0.54871661426E+02  0.46732265207E+03  0.40000000000E+03 0. -1.
<mgrwt>
<rscale>  2 0.46409004E+03</rscale>
<asrwt>0</asrwt>
<pdfrwt beam="1">  1       21 0.11077305E+00 0.46409004E+03</pdfrwt>
<pdfrwt beam="2">  1       21 0.49777402E-01 0.46409004E+03</pdfrwt>
<totfact> 0.21191595E+03</totfact>
</mgrwt>
</event>
<event>
 4    1  0.4703494E-002  0.4003244E+03  0.7818608E-02  0.1043667E+00
         21   -1    0    0  503  502  0.00000000000E+00  0.00000000000E+00  0.85952382575E+03  0.85952382575E+03  0.00000000000E+00 0.  1.
         21   -1    0    0  501  503 -0.00000000000E+00 -0.00000000000E+00 -0.23882734445E+03  0.23882734445E+03  0.00000000000E+00 0.  1.
    9000007    1    1    2  501    0 -0.11459626514E+01  0.16071668096E+02  0.53170007440E+02  0.40383989580E+03  0.40000000000E+03 0.  1.
   -9000007    1    1    2    0  502  0.11459626514E+01 -0.16071668096E+02  0.56752647386E+03  0.69451127441E+03  0.40000000000E+03 0.  1.
<mgrwt>
<rscale>  2 0.40032438E+03</rscale>
<asrwt>0</asrwt>
<pdfrwt beam="1">  1       21 0.13223443E+00 0.40032438E+03</pdfrwt>
<pdfrwt beam="2">  1       21 0.36742669E-01 0.40032438E+03</pdfrwt>
<totfact> 0.26038173E+03</totfact>
</mgrwt>
</event>
<event>
 4    1  0.4703494E-002  0.4444233E+03  0.7818608E-02  0.1029398E+00
         21   -1    0    0  501  502  0.00000000000E+00  0.00000000000E+00  0.41838169410E+03  0.41838169410E+03  0.00000000000E+00 0. -1.
         21   -1    0    0  502  503 -0.00000000000E+00 -0.00000000000E+00 -0.11123349269E+04  0.11123349269E+04  0.00000000000E+00 0. -1.
    9000007    1    1    2  501    0  0.16427246982E+03  0.10259929809E+03  0.23368284883E+03  0.50211525982E+03  0.40000000000E+03 0. -1.
   -9000007    1    1    2    0  503 -0.16427246982E+03 -0.10259929809E+03 -0.92763608167E+03  0.10286013612E+04  0.40000000000E+03 0. -1.
<mgrwt>
<rscale>  2 0.44442329E+03</rscale>
<asrwt>0</asrwt>
<pdfrwt beam="1">  1       21 0.64366414E-01 0.44442329E+03</pdfrwt>
<pdfrwt beam="2">  1       21 0.17112845E+00 0.44442329E+03</pdfrwt>
<totfact> 0.38589433E+02</totfact>
</mgrwt>
</event>
<event>
 4    1  0.4703494E-002  0.5220780E+03  0.7818608E-02  0.1008172E+00
         21   -1    0    0  503  502  0.00000000000E+00  0.00000000000E+00  0.42263813720E+03  0.42263813720E+03  0.00000000000E+00 0. -1.
         21   -1    0    0  501  503 -0.00000000000E+00 -0.00000000000E+00 -0.67689340163E+03  0.67689340163E+03  0.00000000000E+00 0. -1.
    9000007    1    1    2  501    0 -0.30621633128E+03  0.13710224054E+03 -0.24662250713E+03  0.57739771988E+03  0.40000000000E+03 0. -1.
   -9000007    1    1    2    0  502  0.30621633128E+03 -0.13710224054E+03 -0.76327573000E+01  0.52213381895E+03  0.40000000000E+03 0. -1.
<mgrwt>
<rscale>  2 0.52207803E+03</rscale>
<asrwt>0</asrwt>
<pdfrwt beam="1">  1       21 0.65021252E-01 0.52207803E+03</pdfrwt>
<pdfrwt beam="2">  1       21 0.10413745E+00 0.52207803E+03</pdfrwt>
<totfact> 0.13527218E+03</totfact>
</mgrwt>
</event>
<event>
 4    1  0.4703494E-002  0.4270233E+03  0.7818608E-02  0.1034804E+00
         21   -1    0    0  501  502  0.00000000000E+00  0.00000000000E+00  0.46699126068E+03  0.46699126068E+03  0.00000000000E+00 0.  1.
         21   -1    0    0  502  503 -0.00000000000E+00 -0.00000000000E+00 -0.55713424936E+03  0.55713424936E+03  0.00000000000E+00 0.  1.
    9000007    1    1    2  501    0 -0.67071156108E+02 -0.13360538046E+03  0.23499200142E+03  0.48741171344E+03  0.40000000000E+03 0.  1.
   -9000007    1    1    2    0  503  0.67071156108E+02  0.13360538046E+03 -0.32513499011E+03  0.53671379660E+03  0.40000000000E+03 0.  1.
<mgrwt>
<rscale>  2 0.42702335E+03</rscale>
<asrwt>0</asrwt>
<pdfrwt beam="1">  1       21 0.71844809E-01 0.42702335E+03</pdfrwt>
<pdfrwt beam="2">  1       21 0.85712961E-01 0.42702335E+03</pdfrwt>
<totfact> 0.17868639E+03</totfact>
</mgrwt>
</event>
<event>
 4    1  0.4703494E-002  0.4086963E+03  0.7818608E-02  0.1040809E+00
         21   -1    0    0  501  502  0.00000000000E+00  0.00000000000E+00  0.36891519828E+04  0.36891519828E+04  0.00000000000E+00 0.  1.
         21   -1    0    0  502  503 -0.00000000000E+00 -0.00000000000E+00 -0.46598605437E+02  0.46598605437E+02  0.00000000000E+00 0.  1.
    9000007    1    1    2  501    0 -0.49988472870E+02 -0.67333519882E+02  0.15066753257E+04  0.15611224126E+04  0.40000000000E+03 0.  1.
   -9000007    1    1    2    0  503  0.49988472870E+02  0.67333519882E+02  0.21358780517E+04  0.21746281756E+04  0.40000000000E+03 0.  1.
<mgrwt>
<rscale>  2 0.40869628E+03</rscale>
<asrwt>0</asrwt>
<pdfrwt beam="1">  1       21 0.56756161E+00 0.40869628E+03</pdfrwt>
<pdfrwt beam="2">  1       21 0.71690191E-02 0.40869628E+03</pdfrwt>
<totfact> 0.68300813E+01</totfact>
</mgrwt>
</event>
<event>
 4    1  0.4703494E-002  0.4114559E+03  0.7818608E-02  0.1039884E+00
         21   -1    0    0  501  502  0.00000000000E+00  0.00000000000E+00  0.15135939061E+04  0.15135939061E+04  0.00000000000E+00 0. -1.
         21   -1    0    0  502  503 -0.00000000000E+00 -0.00000000000E+00 -0.25655201160E+03  0.25655201160E+03  0.00000000000E+00 0. -1.
    9000007    1    1    2  501    0  0.51539600338E+02  0.81483735729E+02  0.12932248015E+04  0.13571021762E+04  0.40000000000E+03 0. -1.
   -9000007    1    1    2    0  503 -0.51539600338E+02 -0.81483735729E+02 -0.36182906992E+02  0.41304374145E+03  0.40000000000E+03 0. -1.
<mgrwt>
<rscale>  2 0.41145587E+03</rscale>
<asrwt>0</asrwt>
<pdfrwt beam="1">  1       21 0.23286059E+00 0.41145587E+03</pdfrwt>
<pdfrwt beam="2">  1       21 0.39469541E-01 0.41145587E+03</pdfrwt>
<totfact> 0.43162001E+02</totfact>
</mgrwt>
</event>
<event>
 4    1  0.4703494E-002  0.4035475E+03  0.7818608E-02  0.1042558E+00
         21   -1    0    0  503  502  0.00000000000E+00  0.00000000000E+00  0.27462546744E+03  0.27462546744E+03  0.00000000000E+00 0.  1.
         21   -1    0    0  501  503 -0.00000000000E+00 -0.00000000000E+00 -0.64914017366E+03  0.64914017366E+03  0.00000000000E+00 0.  1.
    9000007    1    1    2  501    0 -0.20478075271E+02  0.49307712903E+02 -0.32309865471E+03  0.51695584221E+03  0.40000000000E+03 0.  1.
   -9000007    1    1    2    0  502  0.20478075271E+02 -0.49307712903E+02 -0.51416051508E+02  0.40680979889E+03  0.40000000000E+03 0.  1.
<mgrwt>
<rscale>  2 0.40354752E+03</rscale>
<asrwt>0</asrwt>
<pdfrwt beam="1">  1       21 0.42250072E-01 0.40354752E+03</pdfrwt>
<pdfrwt beam="2">  1       21 0.99867718E-01 0.40354752E+03</pdfrwt>
<totfact> 0.39458890E+03</totfact>
</mgrwt>
</event>
<event>
 4    1  0.4703494E-002  0.5469780E+03  0.7818608E-02  0.1002196E+00
         21   -1    0    0  501  502  0.00000000000E+00  0.00000000000E+00  0.11543409056E+03  0.11543409056E+03  0.00000000000E+00 0.  1.
         21   -1    0    0  502  503 -0.00000000000E+00 -0.00000000000E+00 -0.28908971866E+04  0.28908971866E+04  0.00000000000E+00 0.  1.
    9000007    1    1    2  501    0 -0.37239747591E+03 -0.22473940723E+02 -0.90425150448E+03  0.10568139578E+04  0.40000000000E+03 0.  1.
   -9000007    1    1    2    0  503  0.37239747591E+03  0.22473940723E+02 -0.18712115916E+04  0.19495173194E+04  0.40000000000E+03 0.  1.
<mgrwt>
<rscale>  2 0.54697802E+03</rscale>
<asrwt>0</asrwt>
<pdfrwt beam="1">  1       21 0.17759091E-01 0.54697802E+03</pdfrwt>
<pdfrwt beam="2">  1       21 0.44475342E+00 0.54697802E+03</pdfrwt>
<totfact> 0.91302719E+01</totfact>
</mgrwt>
</event>
<event>
 4    1  0.4703494E-002  0.4562400E+03  0.7818608E-02  0.1025877E+00
         21   -1    0    0  501  502  0.00000000000E+00  0.00000000000E+00  0.34754167403E+03  0.34754167403E+03  0.00000000000E+00 0. -1.
         21   -1    0    0  502  503 -0.00000000000E+00 -0.00000000000E+00 -0.65008374243E+03  0.65008374243E+03  0.00000000000E+00 0. -1.
    9000007    1    1    2  501    0  0.17540587713E+03  0.13186235178E+03 -0.11354195973E+02  0.45638122148E+03  0.40000000000E+03 0. -1.
   -9000007    1    1    2    0  503 -0.17540587713E+03 -0.13186235178E+03 -0.29118787244E+03  0.54124419498E+03  0.40000000000E+03 0. -1.
<mgrwt>
<rscale>  2 0.45623996E+03</rscale>
<asrwt>0</asrwt>
<pdfrwt beam="1">  1       21 0.53467950E-01 0.45623996E+03</pdfrwt>
<pdfrwt beam="2">  1       21 0.10001288E+00 0.45623996E+03</pdfrwt>
<totfact> 0.23458536E+03</totfact>
</mgrwt>
</event>
<event>
 4    1  0.4703494E-002  0.4928841E+03  0.7818608E-02  0.1015653E+00
         21   -1    0    0  503  502  0.00000000000E+00  0.00000000000E+00  0.17011127260E+04  0.17011127260E+04  0.00000000000E+00 0. -1.
         21   -1    0    0  501  503 -0.00000000000E+00 -0.00000000000E+00 -0.16659465569E+03  0.16659465569E+03  0.00000000000E+00 0.  1.
    9000007    1    1    2  501    0  0.28542065017E+03 -0.38337458075E+02  0.11201196467E+04  0.12237657991E+04  0.40000000000E+03 0. -1.
   -9000007    1    1    2    0  502 -0.28542065017E+03  0.38337458075E+02  0.41439842362E+03  0.64394158255E+03  0.40000000000E+03 0.  1.
<mgrwt>
<rscale>  2 0.49288407E+03</rscale>
<asrwt>0</asrwt>
<pdfrwt beam="1">  1       21 0.26170964E+00 0.49288407E+03</pdfrwt>
<pdfrwt beam="2">  1       21 0.25629948E-01 0.49288407E+03</pdfrwt>
<totfact> 0.65163309E+02</totfact>
</mgrwt>
</event>
<event>
 4    1  0.4703494E-002  0.4028513E+03  0.7818608E-02  0.1042797E+00
         21   -1    0    0  501  502  0.00000000000E+00  0.00000000000E+00  0.26075224412E+03  0.26075224412E+03  0.00000000000E+00 0.  1.
         21   -1    0    0  502  503 -0.00000000000E+00 -0.00000000000E+00 -0.62936651292E+03  0.62936651292E+03  0.00000000000E+00 0.  1.
    9000007    1    1    2  501    0  0.30961654189E+02 -0.36477165787E+02 -0.13744404835E+03  0.42565252740E+03  0.40000000000E+03 0.  1.
   -9000007    1    1    2    0  503 -0.30961654189E+02  0.36477165787E+02 -0.23117022045E+03  0.46446622964E+03  0.40000000000E+03 0.  1.
<mgrwt>
<rscale>  2 0.40285135E+03</rscale>
<asrwt>0</asrwt>
<pdfrwt beam="1">  1       21 0.40115730E-01 0.40285135E+03</pdfrwt>
<pdfrwt beam="2">  1       21 0.96825617E-01 0.40285135E+03</pdfrwt>
<totfact> 0.47325153E+03</totfact>
</mgrwt>
</event>
<event>
 4    1  0.4703494E-002  0.4471978E+03  0.7818608E-02  0.1028561E+00
         21   -1    0    0  501  502  0.00000000000E+00  0.00000000000E+00  0.70100547190E+03  0.70100547190E+03  0.00000000000E+00 0.  1.
         21   -1    0    0  502  503 -0.00000000000E+00 -0.00000000000E+00 -0.33737089287E+03  0.33737089287E+03  0.00000000000E+00 0.  1.
    9000007    1    1    2  501    0 -0.18478571600E+03 -0.76420910118E+02  0.38581890452E+03  0.59062860024E+03  0.40000000000E+03 0.  1.
   -9000007    1    1    2    0  503  0.18478571600E+03  0.76420910118E+02 -0.22184325491E+02  0.44774776452E+03  0.40000000000E+03 0.  1.
<mgrwt>
<rscale>  2 0.44719785E+03</rscale>
<asrwt>0</asrwt>
<pdfrwt beam="1">  1       21 0.10784700E+00 0.44719785E+03</pdfrwt>
<pdfrwt beam="2">  1       21 0.51903215E-01 0.44719785E+03</pdfrwt>
<totfact> 0.20844465E+03</totfact>
</mgrwt>
</event>
<event>
 4    1  0.4703494E-002  0.4237355E+03  0.7818608E-02  0.1035857E+00
         21   -1    0    0  503  502  0.00000000000E+00  0.00000000000E+00  0.89774806112E+03  0.89774806112E+03  0.00000000000E+00 0. -1.
         21   -1    0    0  501  503 -0.00000000000E+00 -0.00000000000E+00 -0.25710736651E+03  0.25710736651E+03  0.00000000000E+00 0. -1.
    9000007    1    1    2  501    0 -0.55661005604E+01  0.13971691520E+03  0.48189876393E+02  0.42646695306E+03  0.40000000000E+03 0. -1.
   -9000007    1    1    2    0  502  0.55661005604E+01 -0.13971691520E+03  0.59245081822E+03  0.72838847457E+03  0.40000000000E+03 0. -1.
<mgrwt>
<rscale>  2 0.42373553E+03</rscale>
<asrwt>0</asrwt>
<pdfrwt beam="1">  1       21 0.13811508E+00 0.42373553E+03</pdfrwt>
<pdfrwt beam="2">  1       21 0.39554980E-01 0.42373553E+03</pdfrwt>
<totfact> 0.19792373E+03</totfact>
</mgrwt>
</event>
<event>
 4    1  0.4703494E-002  0.4266630E+03  0.7818608E-02  0.1034919E+00
         21   -1    0    0  503  502  0.00000000000E+00  0.00000000000E+00  0.53739865827E+03  0.53739865827E+03  0.00000000000E+00 0. -1.
         21   -1    0    0  501  503 -0.00000000000E+00 -0.00000000000E+00 -0.59430763709E+03  0.59430763709E+03  0.00000000000E+00 0.  1.
    9000007    1    1    2  501    0 -0.14115206725E+03  0.46015109022E+02 -0.39951647476E+03  0.58451236938E+03  0.40000000000E+03 0.  1.
   -9000007    1    1    2    0  502  0.14115206725E+03 -0.46015109022E+02  0.34260749595E+03  0.54719392598E+03  0.40000000000E+03 0. -1.
<mgrwt>
<rscale>  2 0.42666298E+03</rscale>
<asrwt>0</asrwt>
<pdfrwt beam="1">  1       21 0.82676717E-01 0.42666298E+03</pdfrwt>
<pdfrwt beam="2">  1       21 0.91431944E-01 0.42666298E+03</pdfrwt>
<totfact> 0.11125906E+03</totfact>
</mgrwt>
</event>
<event>
 4    1  0.4703494E-002  0.6406455E+03  0.7818608E-02  0.9824492E-01
         21   -1    0    0  501  502  0.00000000000E+00  0.00000000000E+00  0.15210375983E+04  0.15210375983E+04  0.00000000000E+00 0. -1.
         21   -1    0    0  502  503 -0.00000000000E+00 -0.00000000000E+00 -0.97623311318E+03  0.97623311318E+03  0.00000000000E+00 0.  1.
    9000007    1    1    2  501    0 -0.43242909968E+03 -0.25185651636E+03  0.13345480551E+04  0.14803530465E+04  0.40000000000E+03 0. -1.
   -9000007    1    1    2    0  503  0.43242909968E+03  0.25185651636E+03 -0.78974356993E+03  0.10169176650E+04  0.40000000000E+03 0.  1.
<mgrwt>
<rscale>  2 0.64064548E+03</rscale>
<asrwt>0</asrwt>
<pdfrwt beam="1">  1       21 0.23400578E+00 0.64064548E+03</pdfrwt>
<pdfrwt beam="2">  1       21 0.15018971E+00 0.64064548E+03</pdfrwt>
<totfact> 0.16706141E+01</totfact>
</mgrwt>
</event>
<event>
 4    1  0.4703494E-002  0.4119640E+03  0.7818608E-02  0.1039714E+00
         21   -1    0    0  503  502  0.00000000000E+00  0.00000000000E+00  0.83226620300E+03  0.83226620300E+03  0.00000000000E+00 0. -1.
         21   -1    0    0  501  503 -0.00000000000E+00 -0.00000000000E+00 -0.32615979911E+03  0.32615979911E+03  0.00000000000E+00 0. -1.
    9000007    1    1    2  501    0  0.43275712556E+01 -0.98466302051E+02 -0.10154159022E+03  0.42429357178E+03  0.40000000000E+03 0. -1.
   -9000007    1    1    2    0  502 -0.43275712556E+01  0.98466302051E+02  0.60764799411E+03  0.73413243033E+03  0.40000000000E+03 0. -1.
<mgrwt>
<rscale>  2 0.41196400E+03</rscale>
<asrwt>0</asrwt>
<pdfrwt beam="1">  1       21 0.12804095E+00 0.41196400E+03</pdfrwt>
<pdfrwt beam="2">  1       21 0.50178431E-01 0.41196400E+03</pdfrwt>
<totfact> 0.14741356E+03</totfact>
</mgrwt>
</event>
<event>
 4    1  0.4703494E-002  0.4701274E+03  0.7818608E-02  0.1021884E+00
         21   -1    0    0  501  502  0.00000000000E+00  0.00000000000E+00  0.27396951283E+03  0.27396951283E+03  0.00000000000E+00 0. -1.
         21   -1    0    0  502  503 -0.00000000000E+00 -0.00000000000E+00 -0.80876363176E+03  0.80876363176E+03  0.00000000000E+00 0.  1.
    9000007    1    1    2  501    0 -0.17274615280E+03 -0.17657456444E+03 -0.24025975703E+03  0.52796265110E+03  0.40000000000E+03 0. -1.
   -9000007    1    1    2    0  503  0.17274615280E+03  0.17657456444E+03 -0.29453436190E+03  0.55477049349E+03  0.40000000000E+03 0.  1.
<mgrwt>
<rscale>  2 0.47012744E+03</rscale>
<asrwt>0</asrwt>
<pdfrwt beam="1">  1       21 0.42149156E-01 0.47012744E+03</pdfrwt>
<pdfrwt beam="2">  1       21 0.12442517E+00 0.47012744E+03</pdfrwt>
<totfact> 0.22365905E+03</totfact>
</mgrwt>
</event>
<event>
 4    1  0.4703494E-002  0.4250225E+03  0.7818608E-02  0.1035444E+00
         21   -1    0    0  503  502  0.00000000000E+00  0.00000000000E+00  0.26408913898E+03  0.26408913898E+03  0.00000000000E+00 0.  1.
         21   -1    0    0  501  503 -0.00000000000E+00 -0.00000000000E+00 -0.98402963315E+03  0.98402963315E+03  0.00000000000E+00 0.  1.
    9000007    1    1    2  501    0  0.10975850246E+03 -0.92721157054E+02 -0.70454563495E+03  0.82281753357E+03  0.40000000000E+03 0.  1.
   -9000007    1    1    2    0  502 -0.10975850246E+03  0.92721157054E+02 -0.15394859228E+02  0.42530123856E+03  0.40000000000E+03 0.  1.
<mgrwt>
<rscale>  2 0.42502252E+03</rscale>
<asrwt>0</asrwt>
<pdfrwt beam="1">  1       21 0.40629099E-01 0.42502252E+03</pdfrwt>
<pdfrwt beam="2">  1       21 0.15138917E+00 0.42502252E+03</pdfrwt>
<totfact> 0.14636301E+03</totfact>
</mgrwt>
</event>
<event>
 4    1  0.4703494E-002  0.6587032E+03  0.7818608E-02  0.9790584E-01
         21   -1    0    0  501  502  0.00000000000E+00  0.00000000000E+00  0.11207594282E+04  0.11207594282E+04  0.00000000000E+00 0.  1.
         21   -1    0    0  502  503 -0.00000000000E+00 -0.00000000000E+00 -0.57187519721E+03  0.57187519721E+03  0.00000000000E+00 0. -1.
    9000007    1    1    2  501    0  0.24450164537E+03 -0.46271901190E+03  0.75545679193E+03  0.10022998070E+04  0.40000000000E+03 0. -1.
   -9000007    1    1    2    0  503 -0.24450164537E+03  0.46271901190E+03 -0.20657256099E+03  0.69033481841E+03  0.40000000000E+03 0.  1.
<mgrwt>
<rscale>  2 0.65870322E+03</rscale>
<asrwt>0</asrwt>
<pdfrwt beam="1">  1       21 0.17242453E+00 0.65870322E+03</pdfrwt>
<pdfrwt beam="2">  1       21 0.87980799E-01 0.65870322E+03</pdfrwt>
<totfact> 0.16873445E+02</totfact>
</mgrwt>
</event>
<event>
 4    1  0.4703494E-002  0.7427241E+03  0.7818608E-02  0.9646835E-01
         21   -1    0    0  503  502  0.00000000000E+00  0.00000000000E+00  0.58495901646E+03  0.58495901646E+03  0.00000000000E+00 0.  1.
         21   -1    0    0  501  503 -0.00000000000E+00 -0.00000000000E+00 -0.10750277417E+04  0.10750277417E+04  0.00000000000E+00 0. -1.
    9000007    1    1    2  501    0 -0.54440737148E+03 -0.30864176393E+03 -0.53586044473E+03  0.91585235753E+03  0.40000000000E+03 0. -1.
   -9000007    1    1    2    0  502  0.54440737148E+03  0.30864176393E+03  0.45791719528E+02  0.74413440059E+03  0.40000000000E+03 0.  1.
<mgrwt>
<rscale>  2 0.74272412E+03</rscale>
<asrwt>0</asrwt>
<pdfrwt beam="1">  1       21 0.89993695E-01 0.74272412E+03</pdfrwt>
<pdfrwt beam="2">  1       21 0.16538888E+00 0.74272412E+03</pdfrwt>
<totfact> 0.17540334E+02</totfact>
</mgrwt>
</event>
<event>
 4    1  0.4703494E-002  0.4941807E+03  0.7818608E-02  0.1015309E+00
         21   -1    0    0  503  502  0.00000000000E+00  0.00000000000E+00  0.26757433846E+03  0.26757433846E+03  0.00000000000E+00 0.  1.
         21   -1    0    0  501  503 -0.00000000000E+00 -0.00000000000E+00 -0.19308566019E+04  0.19308566019E+04  0.00000000000E+00 0.  1.
    9000007    1    1    2  501    0 -0.15173600073E+03 -0.24736759650E+03 -0.16298481757E+04  0.17031205529E+04  0.40000000000E+03 0.  1.
   -9000007    1    1    2    0  502  0.15173600073E+03  0.24736759650E+03 -0.33434087695E+02  0.49531038747E+03  0.40000000000E+03 0.  1.
<mgrwt>
<rscale>  2 0.49418068E+03</rscale>
<asrwt>0</asrwt>
<pdfrwt beam="1">  1       21 0.41165283E-01 0.49418068E+03</pdfrwt>
<pdfrwt beam="2">  1       21 0.29705486E+00 0.49418068E+03</pdfrwt>
<totfact> 0.15334333E+02</totfact>
</mgrwt>
</event>
<event>
 4    1  0.4703494E-002  0.5307490E+03  0.7818608E-02  0.1006051E+00
         21   -1    0    0  503  502  0.00000000000E+00  0.00000000000E+00  0.63569673160E+03  0.63569673160E+03  0.00000000000E+00 0.  1.
         21   -1    0    0  501  503 -0.00000000000E+00 -0.00000000000E+00 -0.54485071481E+03  0.54485071481E+03  0.00000000000E+00 0.  1.
    9000007    1    1    2  501    0  0.19417804913E+03 -0.28980920221E+03 -0.20962706237E+03  0.57064699572E+03  0.40000000000E+03 0.  1.
   -9000007    1    1    2    0  502 -0.19417804913E+03  0.28980920221E+03  0.30047307916E+03  0.60990045069E+03  0.40000000000E+03 0.  1.
<mgrwt>
<rscale>  2 0.53074899E+03</rscale>
<asrwt>0</asrwt>
<pdfrwt beam="1">  1       21 0.97799497E-01 0.53074899E+03</pdfrwt>
<pdfrwt beam="2">  1       21 0.83823187E-01 0.53074899E+03</pdfrwt>
<totfact> 0.88053214E+02</totfact>
</mgrwt>
</event>
<event>
 4    1  0.4703494E-002  0.4615992E+03  0.7818608E-02  0.1024318E+00
         21   -1    0    0  501  502  0.00000000000E+00  0.00000000000E+00  0.33026698283E+03  0.33026698283E+03  0.00000000000E+00 0.  1.
         21   -1    0    0  502  503 -0.00000000000E+00 -0.00000000000E+00 -0.16576798549E+04  0.16576798549E+04  0.00000000000E+00 0.  1.
    9000007    1    1    2  501    0 -0.18120807204E+03  0.14225848160E+03  0.11312536821E+03  0.47525907660E+03  0.40000000000E+03 0.  1.
   -9000007    1    1    2    0  503  0.18120807204E+03 -0.14225848160E+03 -0.14405382403E+04  0.15126877611E+04  0.40000000000E+03 0.  1.
<mgrwt>
<rscale>  2 0.46159922E+03</rscale>
<asrwt>0</asrwt>
<pdfrwt beam="1">  1       21 0.50810305E-01 0.46159922E+03</pdfrwt>
<pdfrwt beam="2">  1       21 0.25502767E+00 0.46159922E+03</pdfrwt>
<totfact> 0.18043882E+02</totfact>
</mgrwt>
</event>
<event>
 4    1  0.4703494E-002  0.6315303E+03  0.7818608E-02  0.9842067E-01
         21   -1    0    0  501  502  0.00000000000E+00  0.00000000000E+00  0.96424016980E+03  0.96424016980E+03  0.00000000000E+00 0. -1.
         21   -1    0    0  502  503 -0.00000000000E+00 -0.00000000000E+00 -0.53108490635E+03  0.53108490635E+03  0.00000000000E+00 0.  1.
    9000007    1    1    2  501    0  0.46807742771E+03  0.14047790936E+03  0.56819865178E+03  0.84951764504E+03  0.40000000000E+03 0. -1.
   -9000007    1    1    2    0  503 -0.46807742771E+03 -0.14047790936E+03 -0.13504338833E+03  0.64580743111E+03  0.40000000000E+03 0.  1.
<mgrwt>
<rscale>  2 0.63153030E+03</rscale>
<asrwt>0</asrwt>
<pdfrwt beam="1">  1       21 0.14834464E+00 0.63153030E+03</pdfrwt>
<pdfrwt beam="2">  1       21 0.81705370E-01 0.63153030E+03</pdfrwt>
<totfact> 0.30985067E+02</totfact>
</mgrwt>
</event>
<event>
 4    1  0.4703494E-002  0.4072559E+03  0.7818608E-02  0.1041296E+00
         21   -1    0    0  503  502  0.00000000000E+00  0.00000000000E+00  0.15250977178E+03  0.15250977178E+03  0.00000000000E+00 0.  1.
         21   -1    0    0  501  503 -0.00000000000E+00 -0.00000000000E+00 -0.10898753975E+04  0.10898753975E+04  0.00000000000E+00 0.  1.
    9000007    1    1    2  501    0 -0.61369684815E+01 -0.76286839997E+02 -0.49756432371E+03  0.64298335948E+03  0.40000000000E+03 0. -1.
   -9000007    1    1    2    0  502  0.61369684815E+01  0.76286839997E+02 -0.43980130201E+03  0.59940180980E+03  0.40000000000E+03 0. -1.
<mgrwt>
<rscale>  2 0.40725587E+03</rscale>
<asrwt>0</asrwt>
<pdfrwt beam="1">  1       21 0.23463042E-01 0.40725587E+03</pdfrwt>
<pdfrwt beam="2">  1       21 0.16767314E+00 0.40725587E+03</pdfrwt>
<totfact> 0.33163830E+03</totfact>
</mgrwt>
</event>
<event>
 4    1  0.4703494E-002  0.4006099E+03  0.7818608E-02  0.1043569E+00
         21   -1    0    0  503  502  0.00000000000E+00  0.00000000000E+00  0.25574201699E+03  0.25574201699E+03  0.00000000000E+00 0. -1.
         21   -1    0    0  501  503 -0.00000000000E+00 -0.00000000000E+00 -0.18838671052E+04  0.18838671052E+04  0.00000000000E+00 0. -1.
    9000007    1    1    2  501    0  0.13567782948E+02 -0.17440708537E+02 -0.16876989716E+04  0.17345939242E+04  0.40000000000E+03 0. -1.
   -9000007    1    1    2    0  502 -0.13567782948E+02  0.17440708537E+02  0.59573883387E+02  0.40501519802E+03  0.40000000000E+03 0. -1.
<mgrwt>
<rscale>  2 0.40060986E+03</rscale>
<asrwt>0</asrwt>
<pdfrwt beam="1">  1       21 0.39344927E-01 0.40060986E+03</pdfrwt>
<pdfrwt beam="2">  1       21 0.28982570E+00 0.40060986E+03</pdfrwt>
<totfact> 0.19720673E+02</totfact>
</mgrwt>
</event>
<event>
 4    1  0.4703494E-002  0.4843453E+03  0.7818608E-02  0.1017948E+00
         21   -1    0    0  501  502  0.00000000000E+00  0.00000000000E+00  0.14242072253E+04  0.14242072253E+04  0.00000000000E+00 0.  1.
         21   -1    0    0  502  503 -0.00000000000E+00 -0.00000000000E+00 -0.16489663919E+03  0.16489663919E+03  0.00000000000E+00 0.  1.
    9000007    1    1    2  501    0 -0.36476042196E+02  0.27066558184E+03  0.65592046317E+03  0.81536618329E+03  0.40000000000E+03 0.  1.
   -9000007    1    1    2    0  503  0.36476042196E+02 -0.27066558184E+03  0.60339012292E+03  0.77373768119E+03  0.40000000000E+03 0.  1.
<mgrwt>
<rscale>  2 0.48434529E+03</rscale>
<asrwt>0</asrwt>
<pdfrwt beam="1">  1       21 0.21910880E+00 0.48434529E+03</pdfrwt>
<pdfrwt beam="2">  1       21 0.25368715E-01 0.48434529E+03</pdfrwt>
<totfact> 0.12311539E+03</totfact>
</mgrwt>
</event>
<event>
 4    1  0.4703494E-002  0.6369676E+03  0.7818608E-02  0.9831546E-01
         21   -1    0    0  503  502  0.00000000000E+00  0.00000000000E+00  0.23108234664E+04  0.23108234664E+04  0.00000000000E+00 0.  1.
         21   -1    0    0  501  503 -0.00000000000E+00 -0.00000000000E+00 -0.24684135196E+03  0.24684135196E+03  0.00000000000E+00 0. -1.
    9000007    1    1    2  501    0  0.11703615141E+03 -0.48169523644E+03  0.34485864088E+03  0.72433089382E+03  0.40000000000E+03 0. -1.
   -9000007    1    1    2    0  502 -0.11703615141E+03  0.48169523644E+03  0.17191234735E+04  0.18333339245E+04  0.40000000000E+03 0. -1.
<mgrwt>
<rscale>  2 0.63696763E+03</rscale>
<asrwt>0</asrwt>
<pdfrwt beam="1">  1       21 0.35551129E+00 0.63696763E+03</pdfrwt>
<pdfrwt beam="2">  1       21 0.37975594E-01 0.63696763E+03</pdfrwt>
<totfact> 0.73895637E+01</totfact>
</mgrwt>
</event>
<event>
 4    1  0.4703494E-002  0.5134188E+03  0.7818608E-02  0.1010335E+00
         21   -1    0    0  501  502  0.00000000000E+00  0.00000000000E+00  0.57412158977E+03  0.57412158977E+03  0.00000000000E+00 0.  1.
         21   -1    0    0  502  503 -0.00000000000E+00 -0.00000000000E+00 -0.84215128242E+03  0.84215128242E+03  0.00000000000E+00 0.  1.
    9000007    1    1    2  501    0  0.15302411639E+03 -0.28316519690E+03  0.34354840931E+03  0.61775757257E+03  0.40000000000E+03 0.  1.
   -9000007    1    1    2    0  503 -0.15302411639E+03  0.28316519690E+03 -0.61157810196E+03  0.79851529962E+03  0.40000000000E+03 0.  1.
<mgrwt>
<rscale>  2 0.51341884E+03</rscale>
<asrwt>0</asrwt>
<pdfrwt beam="1">  1       21 0.88326399E-01 0.51341884E+03</pdfrwt>
<pdfrwt beam="2">  1       21 0.12956173E+00 0.51341884E+03</pdfrwt>
<totfact> 0.38668421E+02</totfact>
</mgrwt>
</event>
<event>
 4    1  0.4703494E-002  0.4912220E+03  0.7818608E-02  0.1016096E+00
         21   -1    0    0  501  502  0.00000000000E+00  0.00000000000E+00  0.22849102615E+03  0.22849102615E+03  0.00000000000E+00 0.  1.
         21   -1    0    0  502  503 -0.00000000000E+00 -0.00000000000E+00 -0.10874589339E+04  0.10874589339E+04  0.00000000000E+00 0.  1.
    9000007    1    1    2  501    0 -0.10537558877E+03 -0.26494345018E+03 -0.31766992164E+03  0.58498993634E+03  0.40000000000E+03 0.  1.
   -9000007    1    1    2    0  503  0.10537558877E+03  0.26494345018E+03 -0.54129798609E+03  0.73096002370E+03  0.40000000000E+03 0.  1.
<mgrwt>
<rscale>  2 0.49122199E+03</rscale>
<asrwt>0</asrwt>
<pdfrwt beam="1">  1       21 0.35152465E-01 0.49122199E+03</pdfrwt>
<pdfrwt beam="2">  1       21 0.16730138E+00 0.49122199E+03</pdfrwt>
<totfact> 0.14505339E+03</totfact>
</mgrwt>
</event>
<event>
 4    1  0.4703494E-002  0.4836344E+03  0.7818608E-02  0.1018141E+00
         21   -1    0    0  501  502  0.00000000000E+00  0.00000000000E+00  0.13669200223E+04  0.13669200223E+04  0.00000000000E+00 0. -1.
         21   -1    0    0  502  503 -0.00000000000E+00 -0.00000000000E+00 -0.17239986256E+03  0.17239986256E+03  0.00000000000E+00 0.  1.
    9000007    1    1    2  501    0 -0.12827100566E+03 -0.23968476447E+03  0.66367204003E+03  0.82119596561E+03  0.40000000000E+03 0.  1.
   -9000007    1    1    2    0  503  0.12827100566E+03  0.23968476447E+03  0.53084811973E+03  0.71812391927E+03  0.40000000000E+03 0. -1.
<mgrwt>
<rscale>  2 0.48363440E+03</rscale>
<asrwt>0</asrwt>
<pdfrwt beam="1">  1       21 0.21029538E+00 0.48363440E+03</pdfrwt>
<pdfrwt beam="2">  1       21 0.26523057E-01 0.48363440E+03</pdfrwt>
<totfact> 0.12876210E+03</totfact>
</mgrwt>
</event>
<event>
 4    1  0.4703494E-002  0.4073886E+03  0.7818608E-02  0.1041251E+00
         21   -1    0    0  503  502  0.00000000000E+00  0.00000000000E+00  0.16702733294E+03  0.16702733294E+03  0.00000000000E+00 0. -1.
         21   -1    0    0  501  503 -0.00000000000E+00 -0.00000000000E+00 -0.10483796867E+04  0.10483796867E+04  0.00000000000E+00 0. -1.
    9000007    1    1    2  501    0 -0.76777732597E+02  0.84046922098E+01 -0.57953504634E+03  0.70839701369E+03  0.40000000000E+03 0. -1.
   -9000007    1    1    2    0  502  0.76777732597E+02 -0.84046922098E+01 -0.30181730745E+03  0.50701000596E+03  0.40000000000E+03 0. -1.
<mgrwt>
<rscale>  2 0.40738858E+03</rscale>
<asrwt>0</asrwt>
<pdfrwt beam="1">  1       21 0.25696513E-01 0.40738858E+03</pdfrwt>
<pdfrwt beam="2">  1       21 0.16128918E+00 0.40738858E+03</pdfrwt>
<totfact> 0.30999608E+03</totfact>
</mgrwt>
</event>
<event>
 4    1  0.4703494E-002  0.4400132E+03  0.7818608E-02  0.1030743E+00
         21   -1    0    0  501  502  0.00000000000E+00  0.00000000000E+00  0.59577305164E+03  0.59577305164E+03  0.00000000000E+00 0. -1.
         21   -1    0    0  502  503 -0.00000000000E+00 -0.00000000000E+00 -0.50826679971E+03  0.50826679971E+03  0.00000000000E+00 0. -1.
    9000007    1    1    2  501    0 -0.18325793629E+03  0.53083468416E+01  0.37525027657E+03  0.57829440584E+03  0.40000000000E+03 0. -1.
   -9000007    1    1    2    0  503  0.18325793629E+03 -0.53083468416E+01 -0.28774402464E+03  0.52574544551E+03  0.40000000000E+03 0. -1.
<mgrwt>
<rscale>  2 0.44001324E+03</rscale>
<asrwt>0</asrwt>
<pdfrwt beam="1">  1       21 0.91657392E-01 0.44001324E+03</pdfrwt>
<pdfrwt beam="2">  1       21 0.78194892E-01 0.44001324E+03</pdfrwt>
<totfact> 0.12511096E+03</totfact>
</mgrwt>
</event>
<event>
 4    1  0.4703494E-002  0.6161451E+03  0.7818608E-02  0.9872465E-01
         21   -1    0    0  503  502  0.00000000000E+00  0.00000000000E+00  0.55140878775E+03  0.55140878775E+03  0.00000000000E+00 0.  1.
         21   -1    0    0  501  503 -0.00000000000E+00 -0.00000000000E+00 -0.77951906569E+03  0.77951906569E+03  0.00000000000E+00 0. -1.
    9000007    1    1    2  501    0  0.44405400969E+03  0.14983611290E+03 -0.34147120439E+03  0.70444120243E+03  0.40000000000E+03 0. -1.
   -9000007    1    1    2    0  502 -0.44405400969E+03 -0.14983611290E+03  0.11336092645E+03  0.62648665101E+03  0.40000000000E+03 0.  1.
<mgrwt>
<rscale>  2 0.61614513E+03</rscale>
<asrwt>0</asrwt>
<pdfrwt beam="1">  1       21 0.84832121E-01 0.61614513E+03</pdfrwt>
<pdfrwt beam="2">  1       21 0.11992601E+00 0.61614513E+03</pdfrwt>
<totfact> 0.50056942E+02</totfact>
</mgrwt>
</event>
<event>
 4    1  0.4703494E-002  0.5885501E+03  0.7818608E-02  0.9929450E-01
         21   -1    0    0  503  502  0.00000000000E+00  0.00000000000E+00  0.42194528034E+03  0.42194528034E+03  0.00000000000E+00 0.  1.
         21   -1    0    0  501  503 -0.00000000000E+00 -0.00000000000E+00 -0.97204938916E+03  0.97204938916E+03  0.00000000000E+00 0.  1.
    9000007    1    1    2  501    0 -0.69038990727E+02 -0.42617464066E+03 -0.54986333507E+03  0.80544453182E+03  0.40000000000E+03 0.  1.
   -9000007    1    1    2    0  502  0.69038990727E+02  0.42617464066E+03 -0.24077374396E+00  0.58855013767E+03  0.40000000000E+03 0.  1.
<mgrwt>
<rscale>  2 0.58855009E+03</rscale>
<asrwt>0</asrwt>
<pdfrwt beam="1">  1       21 0.64914659E-01 0.58855009E+03</pdfrwt>
<pdfrwt beam="2">  1       21 0.14954606E+00 0.58855009E+03</pdfrwt>
<totfact> 0.52021041E+02</totfact>
</mgrwt>
</event>
<event>
 4    1  0.4703494E-002  0.4488798E+03  0.7818608E-02  0.1028057E+00
         21   -1    0    0  501  502  0.00000000000E+00  0.00000000000E+00  0.62426618148E+03  0.62426618148E+03  0.00000000000E+00 0.  1.
         21   -1    0    0  502  503 -0.00000000000E+00 -0.00000000000E+00 -0.48839077775E+03  0.48839077775E+03  0.00000000000E+00 0.  1.
    9000007    1    1    2  501    0 -0.95200469723E+02 -0.18008315294E+03  0.39190991017E+03  0.59589130644E+03  0.40000000000E+03 0.  1.
   -9000007    1    1    2    0  503  0.95200469723E+02  0.18008315294E+03 -0.25603450644E+03  0.51676565279E+03  0.40000000000E+03 0.  1.
<mgrwt>
<rscale>  2 0.44887980E+03</rscale>
<asrwt>0</asrwt>
<pdfrwt beam="1">  1       21 0.96040952E-01 0.44887980E+03</pdfrwt>
<pdfrwt beam="2">  1       21 0.75137042E-01 0.44887980E+03</pdfrwt>
<totfact> 0.12215922E+03</totfact>
</mgrwt>
</event>
<event>
 4    1  0.4703494E-002  0.4257714E+03  0.7818608E-02  0.1035204E+00
         21   -1    0    0  501  502  0.00000000000E+00  0.00000000000E+00  0.10536886539E+04  0.10536886539E+04  0.00000000000E+00 0.  1.
         21   -1    0    0  502  503 -0.00000000000E+00 -0.00000000000E+00 -0.19586835477E+03  0.19586835477E+03  0.00000000000E+00 0.  1.
    9000007    1    1    2  501    0  0.13161307054E+03 -0.62922548032E+02  0.64680689247E+03  0.77436451593E+03  0.40000000000E+03 0.  1.
   -9000007    1    1    2    0  503 -0.13161307054E+03  0.62922548032E+02  0.21101340670E+03  0.47519249278E+03  0.40000000000E+03 0.  1.
<mgrwt>
<rscale>  2 0.42577136E+03</rscale>
<asrwt>0</asrwt>
<pdfrwt beam="1">  1       21 0.16210594E+00 0.42577136E+03</pdfrwt>
<pdfrwt beam="2">  1       21 0.30133594E-01 0.42577136E+03</pdfrwt>
<totfact> 0.22174294E+03</totfact>
</mgrwt>
</event>
<event>
 4    1  0.4703494E-002  0.4793094E+03  0.7818608E-02  0.1019325E+00
         21   -1    0    0  501  502  0.00000000000E+00  0.00000000000E+00  0.58054553376E+03  0.58054553376E+03  0.00000000000E+00 0.  1.
         21   -1    0    0  502  503 -0.00000000000E+00 -0.00000000000E+00 -0.51535705489E+03  0.51535705489E+03  0.00000000000E+00 0.  1.
    9000007    1    1    2  501    0  0.25924136674E+03 -0.50312963946E+02  0.29659683017E+03  0.56365517849E+03  0.40000000000E+03 0.  1.
   -9000007    1    1    2    0  503 -0.25924136674E+03  0.50312963946E+02 -0.23140835130E+03  0.53224741016E+03  0.40000000000E+03 0.  1.
<mgrwt>
<rscale>  2 0.47930938E+03</rscale>
<asrwt>0</asrwt>
<pdfrwt beam="1">  1       21 0.89314697E-01 0.47930938E+03</pdfrwt>
<pdfrwt beam="2">  1       21 0.79285701E-01 0.47930938E+03</pdfrwt>
<totfact> 0.12688639E+03</totfact>
</mgrwt>
</event>
<event>
 4    1  0.4703494E-002  0.4417546E+03  0.7818608E-02  0.1030210E+00
         21   -1    0    0  503  502  0.00000000000E+00  0.00000000000E+00  0.39244458120E+04  0.39244458120E+04  0.00000000000E+00 0. -1.
         21   -1    0    0  501  503 -0.00000000000E+00 -0.00000000000E+00 -0.77518229972E+02  0.77518229972E+02  0.00000000000E+00 0.  1.
    9000007    1    1    2  501    0 -0.52760525099E+02 -0.17989851878E+03  0.72533736742E+03  0.84927112670E+03  0.40000000000E+03 0.  1.
   -9000007    1    1    2    0  502  0.52760525099E+02  0.17989851878E+03  0.31215902146E+04  0.31526929152E+04  0.40000000000E+03 0. -1.
<mgrwt>
<rscale>  2 0.44175463E+03</rscale>
<asrwt>0</asrwt>
<pdfrwt beam="1">  1       21 0.60376074E+00 0.44175463E+03</pdfrwt>
<pdfrwt beam="2">  1       21 0.11925885E-01 0.44175463E+03</pdfrwt>
<totfact> 0.14065089E+01</totfact>
</mgrwt>
</event>
<event>
 4    1  0.4703494E-002  0.4940169E+03  0.7818608E-02  0.1015352E+00
         21   -1    0    0  503  502  0.00000000000E+00  0.00000000000E+00  0.35518055388E+03  0.35518055388E+03  0.00000000000E+00 0.  1.
         21   -1    0    0  501  503 -0.00000000000E+00 -0.00000000000E+00 -0.80761456512E+03  0.80761456512E+03  0.00000000000E+00 0. -1.
    9000007    1    1    2  501    0 -0.28330161716E+03 -0.61586492969E+02 -0.16481197671E+01  0.49401965416E+03  0.40000000000E+03 0.  1.
   -9000007    1    1    2    0  502  0.28330161716E+03  0.61586492969E+02 -0.45078589148E+03  0.66877546483E+03  0.40000000000E+03 0. -1.
<mgrwt>
<rscale>  2 0.49401690E+03</rscale>
<asrwt>0</asrwt>
<pdfrwt beam="1">  1       21 0.54643162E-01 0.49401690E+03</pdfrwt>
<pdfrwt beam="2">  1       21 0.12424839E+00 0.49401690E+03</pdfrwt>
<totfact> 0.12839232E+03</totfact>
</mgrwt>
</event>
<event>
 4    1  0.4703494E-002  0.4151995E+03  0.7818608E-02  0.1038640E+00
         21   -1    0    0  503  502  0.00000000000E+00  0.00000000000E+00  0.53574146368E+03  0.53574146368E+03  0.00000000000E+00 0. -1.
         21   -1    0    0  501  503 -0.00000000000E+00 -0.00000000000E+00 -0.36543865401E+03  0.36543865401E+03  0.00000000000E+00 0. -1.
    9000007    1    1    2  501    0 -0.96998099551E+02 -0.54607963885E+02 -0.70592709908E+02  0.42115791780E+03  0.40000000000E+03 0. -1.
   -9000007    1    1    2    0  502  0.96998099551E+02  0.54607963885E+02  0.24089551958E+03  0.48002219989E+03  0.40000000000E+03 0. -1.
<mgrwt>
<rscale>  2 0.41519954E+03</rscale>
<asrwt>0</asrwt>
<pdfrwt beam="1">  1       21 0.82421764E-01 0.41519954E+03</pdfrwt>
<pdfrwt beam="2">  1       21 0.56221331E-01 0.41519954E+03</pdfrwt>
<totfact> 0.33817672E+03</totfact>
</mgrwt>
</event>
<event>
 4    1  0.4703494E-002  0.4258686E+03  0.7818608E-02  0.1035173E+00
         21   -1    0    0  501  502  0.00000000000E+00  0.00000000000E+00  0.44299201513E+03  0.44299201513E+03  0.00000000000E+00 0.  1.
         21   -1    0    0  502  503 -0.00000000000E+00 -0.00000000000E+00 -0.40941223300E+03  0.40941223300E+03  0.00000000000E+00 0. -1.
    9000007    1    1    2  501    0  0.64880639393E+02 -0.13097559132E+03  0.18290131350E+02  0.42626122483E+03  0.40000000000E+03 0.  1.
   -9000007    1    1    2    0  503 -0.64880639393E+02  0.13097559132E+03  0.15289650777E+02  0.42614302330E+03  0.40000000000E+03 0. -1.
<mgrwt>
<rscale>  2 0.42586865E+03</rscale>
<asrwt>0</asrwt>
<pdfrwt beam="1">  1       21 0.68152618E-01 0.42586865E+03</pdfrwt>
<pdfrwt beam="2">  1       21 0.62986498E-01 0.42586865E+03</pdfrwt>
<totfact> 0.40519593E+03</totfact>
</mgrwt>
</event>
<event>
 4    1  0.4703494E-002  0.4043540E+03  0.7818608E-02  0.1042282E+00
         21   -1    0    0  503  502  0.00000000000E+00  0.00000000000E+00  0.61377007668E+03  0.61377007668E+03  0.00000000000E+00 0.  1.
         21   -1    0    0  501  503 -0.00000000000E+00 -0.00000000000E+00 -0.29962175380E+03  0.29962175380E+03  0.00000000000E+00 0.  1.
    9000007    1    1    2  501    0 -0.42393466347E+02  0.41290911095E+02  0.49781646614E+01  0.40438462811E+03  0.40000000000E+03 0.  1.
   -9000007    1    1    2    0  502  0.42393466347E+02 -0.41290911095E+02  0.30917015822E+03  0.50900720237E+03  0.40000000000E+03 0.  1.
<mgrwt>
<rscale>  2 0.40435399E+03</rscale>
<asrwt>0</asrwt>
<pdfrwt beam="1">  1       21 0.94426165E-01 0.40435399E+03</pdfrwt>
<pdfrwt beam="2">  1       21 0.46095655E-01 0.40435399E+03</pdfrwt>
<totfact> 0.37636397E+03</totfact>
</mgrwt>
</event>
<event>
 4    1  0.4703494E-002  0.4076438E+03  0.7818608E-02  0.1041165E+00
         21   -1    0    0  501  502  0.00000000000E+00  0.00000000000E+00  0.23885498959E+03  0.23885498959E+03  0.00000000000E+00 0.  1.
         21   -1    0    0  502  503 -0.00000000000E+00 -0.00000000000E+00 -0.11357093835E+04  0.11357093835E+04  0.00000000000E+00 0.  1.
    9000007    1    1    2  501    0 -0.17137190963E+02  0.76679937650E+02 -0.20639635769E+02  0.40816600877E+03  0.40000000000E+03 0.  1.
   -9000007    1    1    2    0  503  0.17137190963E+02 -0.76679937650E+02 -0.87621475812E+03  0.96639836429E+03  0.40000000000E+03 0.  1.
<mgrwt>
<rscale>  2 0.40764383E+03</rscale>
<asrwt>0</asrwt>
<pdfrwt beam="1">  1       21 0.36746922E-01 0.40764383E+03</pdfrwt>
<pdfrwt beam="2">  1       21 0.17472452E+00 0.40764383E+03</pdfrwt>
<totfact> 0.12139382E+03</totfact>
</mgrwt>
</event>
<event>
 4    1  0.4703494E-002  0.4299177E+03  0.7818608E-02  0.1033886E+00
         21   -1    0    0  501  502  0.00000000000E+00  0.00000000000E+00  0.21911807641E+03  0.21911807641E+03  0.00000000000E+00 0.  1.
         21   -1    0    0  502  503 -0.00000000000E+00 -0.00000000000E+00 -0.92529711254E+03  0.92529711254E+03  0.00000000000E+00 0.  1.
    9000007    1    1    2  501    0 -0.15753075843E+03  0.36450435957E+01 -0.18297393759E+03  0.46723515282E+03  0.40000000000E+03 0.  1.
   -9000007    1    1    2    0  503  0.15753075843E+03 -0.36450435957E+01 -0.52320509854E+03  0.67718003613E+03  0.40000000000E+03 0.  1.
<mgrwt>
<rscale>  2 0.42991770E+03</rscale>
<asrwt>0</asrwt>
<pdfrwt beam="1">  1       21 0.33710473E-01 0.42991770E+03</pdfrwt>
<pdfrwt beam="2">  1       21 0.14235340E+00 0.42991770E+03</pdfrwt>
<totfact> 0.25213395E+03</totfact>
</mgrwt>
</event>
<event>
 4    1  0.4703494E-002  0.4583470E+03  0.7818608E-02  0.1025262E+00
         21   -1    0    0  503  502  0.00000000000E+00  0.00000000000E+00  0.12530526289E+04  0.12530526289E+04  0.00000000000E+00 0.  1.
         21   -1    0    0  501  503 -0.00000000000E+00 -0.00000000000E+00 -0.18000096242E+03  0.18000096242E+03  0.00000000000E+00 0. -1.
    9000007    1    1    2  501    0  0.18710114824E+03  0.12278099426E+03  0.34888091352E+03  0.57602074967E+03  0.40000000000E+03 0. -1.
   -9000007    1    1    2    0  502 -0.18710114824E+03 -0.12278099426E+03  0.72417075291E+03  0.85703284161E+03  0.40000000000E+03 0. -1.
<mgrwt>
<rscale>  2 0.45834704E+03</rscale>
<asrwt>0</asrwt>
<pdfrwt beam="1">  1       21 0.19277732E+00 0.45834704E+03</pdfrwt>
<pdfrwt beam="2">  1       21 0.27692456E-01 0.45834704E+03</pdfrwt>
<totfact> 0.15643608E+03</totfact>
</mgrwt>
</event>
<event>
 4    1  0.4703494E-002  0.4130154E+03  0.7818608E-02  0.1039364E+00
         21   -1    0    0  503  502  0.00000000000E+00  0.00000000000E+00  0.36576480918E+03  0.36576480918E+03  0.00000000000E+00 0. -1.
         21   -1    0    0  501  503 -0.00000000000E+00 -0.00000000000E+00 -0.65573562175E+03  0.65573562175E+03  0.00000000000E+00 0. -1.
    9000007    1    1    2  501    0 -0.69727090251E+02 -0.75629702217E+02  0.12948453319E+03  0.43283710944E+03  0.40000000000E+03 0. -1.
   -9000007    1    1    2    0  502  0.69727090251E+02  0.75629702217E+02 -0.41945534577E+03  0.58866332149E+03  0.40000000000E+03 0. -1.
<mgrwt>
<rscale>  2 0.41301540E+03</rscale>
<asrwt>0</asrwt>
<pdfrwt beam="1">  1       21 0.56271509E-01 0.41301540E+03</pdfrwt>
<pdfrwt beam="2">  1       21 0.10088240E+00 0.41301540E+03</pdfrwt>
<totfact> 0.20918104E+03</totfact>
</mgrwt>
</event>
<event>
 4    1  0.4703494E-002  0.4125826E+03  0.7818608E-02  0.1039508E+00
         21   -1    0    0  501  502  0.00000000000E+00  0.00000000000E+00  0.54577783818E+03  0.54577783818E+03  0.00000000000E+00 0. -1.
         21   -1    0    0  502  503 -0.00000000000E+00 -0.00000000000E+00 -0.45600420048E+03  0.45600420048E+03  0.00000000000E+00 0.  1.
    9000007    1    1    2  501    0 -0.10070345662E+03  0.91244211347E+01  0.32647036015E+03  0.52612483052E+03  0.40000000000E+03 0. -1.
   -9000007    1    1    2    0  503  0.10070345662E+03 -0.91244211347E+01 -0.23669672245E+03  0.47565720814E+03  0.40000000000E+03 0.  1.
<mgrwt>
<rscale>  2 0.41258265E+03</rscale>
<asrwt>0</asrwt>
<pdfrwt beam="1">  1       21 0.83965821E-01 0.41258265E+03</pdfrwt>
<pdfrwt beam="2">  1       21 0.70154492E-01 0.41258265E+03</pdfrwt>
<totfact> 0.19898295E+03</totfact>
</mgrwt>
</event>
<event>
 4    1  0.4703494E-002  0.6516863E+03  0.7818608E-02  0.9803620E-01
         21   -1    0    0  503  502  0.00000000000E+00  0.00000000000E+00  0.11949464685E+04  0.11949464685E+04  0.00000000000E+00 0. -1.
         21   -1    0    0  501  503 -0.00000000000E+00 -0.00000000000E+00 -0.39321541525E+03  0.39321541525E+03  0.00000000000E+00 0. -1.
    9000007    1    1    2  501    0 -0.21527681956E+03  0.46728029615E+03  0.64708989432E+03  0.91837917852E+03  0.40000000000E+03 0. -1.
   -9000007    1    1    2    0  502  0.21527681956E+03 -0.46728029615E+03  0.15464115894E+03  0.66978270524E+03  0.40000000000E+03 0. -1.
<mgrwt>
<rscale>  2 0.65168626E+03</rscale>
<asrwt>0</asrwt>
<pdfrwt beam="1">  1       21 0.18383792E+00 0.65168626E+03</pdfrwt>
<pdfrwt beam="2">  1       21 0.60494680E-01 0.65168626E+03</pdfrwt>
<totfact> 0.33024825E+02</totfact>
</mgrwt>
</event>
<event>
 4    1  0.4703494E-002  0.5751870E+03  0.7818608E-02  0.9958266E-01
         21   -1    0    0  503  502  0.00000000000E+00  0.00000000000E+00  0.37568078307E+03  0.37568078307E+03  0.00000000000E+00 0.  1.
         21   -1    0    0  501  503 -0.00000000000E+00 -0.00000000000E+00 -0.10735613216E+04  0.10735613216E+04  0.00000000000E+00 0. -1.
    9000007    1    1    2  501    0 -0.35675702225E+02  0.41178556838E+03 -0.65611527841E+03  0.87254075471E+03  0.40000000000E+03 0. -1.
   -9000007    1    1    2    0  502  0.35675702225E+02 -0.41178556838E+03 -0.41765260085E+02  0.57670134993E+03  0.40000000000E+03 0.  1.
<mgrwt>
<rscale>  2 0.57518702E+03</rscale>
<asrwt>0</asrwt>
<pdfrwt beam="1">  1       21 0.57797044E-01 0.57518702E+03</pdfrwt>
<pdfrwt beam="2">  1       21 0.16516328E+00 0.57518702E+03</pdfrwt>
<totfact> 0.51224457E+02</totfact>
</mgrwt>
</event>
<event>
 4    1  0.4703494E-002  0.5086542E+03  0.7818608E-02  0.1011544E+00
         21   -1    0    0  501  502  0.00000000000E+00  0.00000000000E+00  0.30698989286E+03  0.30698989286E+03  0.00000000000E+00 0.  1.
         21   -1    0    0  502  503 -0.00000000000E+00 -0.00000000000E+00 -0.11521094738E+04  0.11521094738E+04  0.00000000000E+00 0. -1.
    9000007    1    1    2  501    0 -0.23750782764E+02  0.31331296545E+03 -0.44544723609E+02  0.51060096592E+03  0.40000000000E+03 0.  1.
   -9000007    1    1    2    0  503  0.23750782764E+02 -0.31331296545E+03 -0.80057485730E+03  0.94849840071E+03  0.40000000000E+03 0. -1.
<mgrwt>
<rscale>  2 0.50865422E+03</rscale>
<asrwt>0</asrwt>
<pdfrwt beam="1">  1       21 0.47229213E-01 0.50865422E+03</pdfrwt>
<pdfrwt beam="2">  1       21 0.17724761E+00 0.50865422E+03</pdfrwt>
<totfact> 0.66201325E+02</totfact>
</mgrwt>
</event>
<event>
 4    1  0.4703494E-002  0.4648251E+03  0.7818608E-02  0.1023391E+00
         21   -1    0    0  503  502  0.00000000000E+00  0.00000000000E+00  0.69651025513E+03  0.69651025513E+03  0.00000000000E+00 0. -1.
         21   -1    0    0  501  503 -0.00000000000E+00 -0.00000000000E+00 -0.31095568523E+03  0.31095568523E+03  0.00000000000E+00 0. -1.
    9000007    1    1    2  501    0 -0.14662082878E+03  0.18591585380E+03  0.16806036566E+03  0.49427387007E+03  0.40000000000E+03 0. -1.
   -9000007    1    1    2    0  502  0.14662082878E+03 -0.18591585380E+03  0.21749420424E+03  0.51319207029E+03  0.40000000000E+03 0. -1.
<mgrwt>
<rscale>  2 0.46482510E+03</rscale>
<asrwt>0</asrwt>
<pdfrwt beam="1">  1       21 0.10715542E+00 0.46482510E+03</pdfrwt>
<pdfrwt beam="2">  1       21 0.47839336E-01 0.46482510E+03</pdfrwt>
<totfact> 0.25025577E+03</totfact>
</mgrwt>
</event>
<event>
 4    1  0.4703494E-002  0.5053711E+03  0.7818608E-02  0.1012386E+00
         21   -1    0    0  501  502  0.00000000000E+00  0.00000000000E+00  0.57321577804E+03  0.57321577804E+03  0.00000000000E+00 0.  1.
         21   -1    0    0  502  503 -0.00000000000E+00 -0.00000000000E+00 -0.44570226097E+03  0.44570226097E+03  0.00000000000E+00 0.  1.
    9000007    1    1    2  501    0 -0.20280357665E+02  0.30820229999E+03  0.72973487075E+02  0.51061245622E+03  0.40000000000E+03 0.  1.
   -9000007    1    1    2    0  503  0.20280357665E+02 -0.30820229999E+03  0.54540030000E+02  0.50830558279E+03  0.40000000000E+03 0.  1.
<mgrwt>
<rscale>  2 0.50537110E+03</rscale>
<asrwt>0</asrwt>
<pdfrwt beam="1">  1       21 0.88187042E-01 0.50537110E+03</pdfrwt>
<pdfrwt beam="2">  1       21 0.68569579E-01 0.50537110E+03</pdfrwt>
<totfact> 0.18037588E+03</totfact>
</mgrwt>
</event>
<event>
 4    1  0.4703494E-002  0.4749141E+03  0.7818608E-02  0.1020542E+00
         21   -1    0    0  503  502  0.00000000000E+00  0.00000000000E+00  0.54342308917E+03  0.54342308917E+03  0.00000000000E+00 0. -1.
         21   -1    0    0  501  503 -0.00000000000E+00 -0.00000000000E+00 -0.55278533996E+03  0.55278533996E+03  0.00000000000E+00 0. -1.
    9000007    1    1    2  501    0 -0.81145956709E+02 -0.24281419405E+03 -0.27828371720E+03  0.55044093814E+03  0.40000000000E+03 0. -1.
   -9000007    1    1    2    0  502  0.81145956709E+02  0.24281419405E+03  0.26892146641E+03  0.54576749099E+03  0.40000000000E+03 0. -1.
<mgrwt>
<rscale>  2 0.47491410E+03</rscale>
<asrwt>0</asrwt>
<pdfrwt beam="1">  1       21 0.83603552E-01 0.47491410E+03</pdfrwt>
<pdfrwt beam="2">  1       21 0.85043899E-01 0.47491410E+03</pdfrwt>
<totfact> 0.12612361E+03</totfact>
</mgrwt>
</event>
<event>
 4    1  0.4703494E-002  0.4793309E+03  0.7818608E-02  0.1019319E+00
         21   -1    0    0  503  502  0.00000000000E+00  0.00000000000E+00  0.75027309169E+03  0.75027309169E+03  0.00000000000E+00 0. -1.
         21   -1    0    0  501  503 -0.00000000000E+00 -0.00000000000E+00 -0.45356270134E+03  0.45356270134E+03  0.00000000000E+00 0. -1.
    9000007    1    1    2  501    0 -0.24773889162E+03 -0.91561851174E+02  0.49141057339E+03  0.68647103555E+03  0.40000000000E+03 0. -1.
   -9000007    1    1    2    0  502  0.24773889162E+03  0.91561851174E+02 -0.19470018304E+03  0.51736475748E+03  0.40000000000E+03 0. -1.
<mgrwt>
<rscale>  2 0.47933092E+03</rscale>
<asrwt>0</asrwt>
<pdfrwt beam="1">  1       21 0.11542663E+00 0.47933092E+03</pdfrwt>
<pdfrwt beam="2">  1       21 0.69778877E-01 0.47933092E+03</pdfrwt>
<totfact> 0.90790846E+02</totfact>
</mgrwt>
</event>
<event>
 4    1  0.4703494E-002  0.4557415E+03  0.7818608E-02  0.1026024E+00
         21   -1    0    0  501  502  0.00000000000E+00  0.00000000000E+00  0.35424150711E+03  0.35424150711E+03  0.00000000000E+00 0.  1.
         21   -1    0    0  502  503 -0.00000000000E+00 -0.00000000000E+00 -0.70781206839E+03  0.70781206839E+03  0.00000000000E+00 0.  1.
    9000007    1    1    2  501    0 -0.20539382493E+03 -0.74254132323E+02  0.43215514856E+02  0.45778584536E+03  0.40000000000E+03 0.  1.
   -9000007    1    1    2    0  503  0.20539382493E+03  0.74254132323E+02 -0.39678607613E+03  0.60426773015E+03  0.40000000000E+03 0.  1.
<mgrwt>
<rscale>  2 0.45574148E+03</rscale>
<asrwt>0</asrwt>
<pdfrwt beam="1">  1       21 0.54498694E-01 0.45574148E+03</pdfrwt>
<pdfrwt beam="2">  1       21 0.10889416E+00 0.45574148E+03</pdfrwt>
<totfact> 0.18267644E+03</totfact>
</mgrwt>
</event>
<event>
 4    1  0.4703494E-002  0.4720413E+03  0.7818608E-02  0.1021346E+00
         21   -1    0    0  501  502  0.00000000000E+00  0.00000000000E+00  0.86052901321E+03  0.86052901321E+03  0.00000000000E+00 0. -1.
         21   -1    0    0  502  503 -0.00000000000E+00 -0.00000000000E+00 -0.29976665102E+03  0.29976665102E+03  0.00000000000E+00 0. -1.
    9000007    1    1    2  501    0  0.25063994187E+03  0.16151153184E+01  0.49448957218E+03  0.68362484306E+03  0.40000000000E+03 0. -1.
   -9000007    1    1    2    0  503 -0.25063994187E+03 -0.16151153184E+01  0.66272790016E+02  0.47667082117E+03  0.40000000000E+03 0. -1.
<mgrwt>
<rscale>  2 0.47204130E+03</rscale>
<asrwt>0</asrwt>
<pdfrwt beam="1">  1       21 0.13238908E+00 0.47204130E+03</pdfrwt>
<pdfrwt beam="2">  1       21 0.46117947E-01 0.47204130E+03</pdfrwt>
<totfact> 0.15767369E+03</totfact>
</mgrwt>
</event>
<event>
 4    1  0.4703494E-002  0.5085943E+03  0.7818608E-02  0.1011560E+00
         21   -1    0    0  503  502  0.00000000000E+00  0.00000000000E+00  0.19118394994E+03  0.19118394994E+03  0.00000000000E+00 0. -1.
         21   -1    0    0  501  503 -0.00000000000E+00 -0.00000000000E+00 -0.16559493362E+04  0.16559493362E+04  0.00000000000E+00 0. -1.
    9000007    1    1    2  501    0 -0.29225516058E+03 -0.11513089294E+03 -0.11274249248E+04  0.12368327140E+04  0.40000000000E+03 0. -1.
   -9000007    1    1    2    0  502  0.29225516058E+03  0.11513089294E+03 -0.33734046143E+03  0.61030057211E+03  0.40000000000E+03 0. -1.
<mgrwt>
<rscale>  2 0.50859434E+03</rscale>
<asrwt>0</asrwt>
<pdfrwt beam="1">  1       21 0.29412916E-01 0.50859434E+03</pdfrwt>
<pdfrwt beam="2">  1       21 0.25476143E+00 0.50859434E+03</pdfrwt>
<totfact> 0.54399108E+02</totfact>
</mgrwt>
</event>
<event>
 4    1  0.4703494E-002  0.4075891E+03  0.7818608E-02  0.1041183E+00
         21   -1    0    0  501  502  0.00000000000E+00  0.00000000000E+00  0.15172485547E+03  0.15172485547E+03  0.00000000000E+00 0. -1.
         21   -1    0    0  502  503 -0.00000000000E+00 -0.00000000000E+00 -0.11075246381E+04  0.11075246381E+04  0.00000000000E+00 0. -1.
    9000007    1    1    2  501    0 -0.37493215691E+02 -0.68725298158E+02 -0.41077158888E+03  0.57867279706E+03  0.40000000000E+03 0.  1.
   -9000007    1    1    2    0  503  0.37493215691E+02  0.68725298158E+02 -0.54502819372E+03  0.68057669647E+03  0.40000000000E+03 0.  1.
<mgrwt>
<rscale>  2 0.40758914E+03</rscale>
<asrwt>0</asrwt>
<pdfrwt beam="1">  1       21 0.23342286E-01 0.40758914E+03</pdfrwt>
<pdfrwt beam="2">  1       21 0.17038840E+00 0.40758914E+03</pdfrwt>
<totfact> 0.32002073E+03</totfact>
</mgrwt>
</event>
<event>
 4    1  0.4703494E-002  0.4428300E+03  0.7818608E-02  0.1029882E+00
         21   -1    0    0  503  502  0.00000000000E+00  0.00000000000E+00  0.29562806192E+03  0.29562806192E+03  0.00000000000E+00 0.  1.
         21   -1    0    0  501  503 -0.00000000000E+00 -0.00000000000E+00 -0.68877959056E+03  0.68877959056E+03  0.00000000000E+00 0.  1.
    9000007    1    1    2  501    0 -0.18988407455E+03 -0.65119778590E+01 -0.29119129152E+03  0.52999126019E+03  0.40000000000E+03 0.  1.
   -9000007    1    1    2    0  502  0.18988407455E+03  0.65119778590E+01 -0.10196023712E+03  0.45441639229E+03  0.40000000000E+03 0.  1.
<mgrwt>
<rscale>  2 0.44282995E+03</rscale>
<asrwt>0</asrwt>
<pdfrwt beam="1">  1       21 0.45481240E-01 0.44282995E+03</pdfrwt>
<pdfrwt beam="2">  1       21 0.10596609E+00 0.44282995E+03</pdfrwt>
<totfact> 0.28843156E+03</totfact>
</mgrwt>
</event>
<event>
 4    1  0.4703494E-002  0.4060132E+03  0.7818608E-02  0.1041717E+00
         21   -1    0    0  503  502  0.00000000000E+00  0.00000000000E+00  0.14823178855E+04  0.14823178855E+04  0.00000000000E+00 0. -1.
         21   -1    0    0  501  503 -0.00000000000E+00 -0.00000000000E+00 -0.11120873307E+03  0.11120873307E+03  0.00000000000E+00 0. -1.
    9000007    1    1    2  501    0  0.51478381165E+02 -0.46868522627E+02  0.68534034817E+03  0.79657898226E+03  0.40000000000E+03 0. -1.
   -9000007    1    1    2    0  502 -0.51478381165E+02  0.46868522627E+02  0.68576880427E+03  0.79694763633E+03  0.40000000000E+03 0. -1.
<mgrwt>
<rscale>  2 0.40601316E+03</rscale>
<asrwt>0</asrwt>
<pdfrwt beam="1">  1       21 0.22804889E+00 0.40601316E+03</pdfrwt>
<pdfrwt beam="2">  1       21 0.17109037E-01 0.40601316E+03</pdfrwt>
<totfact> 0.23768943E+03</totfact>
</mgrwt>
</event>
<event>
 4    1  0.4703494E-002  0.5517041E+03  0.7818608E-02  0.1001100E+00
         21   -1    0    0  503  502  0.00000000000E+00  0.00000000000E+00  0.12559746004E+04  0.12559746004E+04  0.00000000000E+00 0. -1.
         21   -1    0    0  501  503 -0.00000000000E+00 -0.00000000000E+00 -0.24860679073E+03  0.24860679073E+03  0.00000000000E+00 0. -1.
    9000007    1    1    2  501    0 -0.58646931362E+02  0.37541709449E+03  0.38427805567E+03  0.67234446637E+03  0.40000000000E+03 0. -1.
   -9000007    1    1    2    0  502  0.58646931362E+02 -0.37541709449E+03  0.62308975398E+03  0.83223692474E+03  0.40000000000E+03 0. -1.
<mgrwt>
<rscale>  2 0.55170414E+03</rscale>
<asrwt>0</asrwt>
<pdfrwt beam="1">  1       21 0.19322686E+00 0.55170414E+03</pdfrwt>
<pdfrwt beam="2">  1       21 0.38247199E-01 0.55170414E+03</pdfrwt>
<totfact> 0.78176427E+02</totfact>
</mgrwt>
</event>
<event>
 4    1  0.4703494E-002  0.5044706E+03  0.7818608E-02  0.1012619E+00
         21   -1    0    0  503  502  0.00000000000E+00  0.00000000000E+00  0.56756008090E+03  0.56756008090E+03  0.00000000000E+00 0.  1.
         21   -1    0    0  501  503 -0.00000000000E+00 -0.00000000000E+00 -0.49014388072E+03  0.49014388072E+03  0.00000000000E+00 0. -1.
    9000007    1    1    2  501    0  0.29051975329E+03 -0.10044329169E+03 -0.11563937584E+03  0.51755487356E+03  0.40000000000E+03 0.  1.
   -9000007    1    1    2    0  502 -0.29051975329E+03  0.10044329169E+03  0.19305557603E+03  0.54014908806E+03  0.40000000000E+03 0. -1.
<mgrwt>
<rscale>  2 0.50447060E+03</rscale>
<asrwt>0</asrwt>
<pdfrwt beam="1">  1       21 0.87316935E-01 0.50447060E+03</pdfrwt>
<pdfrwt beam="2">  1       21 0.75406751E-01 0.50447060E+03</pdfrwt>
<totfact> 0.14887046E+03</totfact>
</mgrwt>
</event>
<event>
 4    1  0.4703494E-002  0.5100021E+03  0.7818608E-02  0.1011201E+00
         21   -1    0    0  503  502  0.00000000000E+00  0.00000000000E+00  0.41965329577E+03  0.41965329577E+03  0.00000000000E+00 0. -1.
         21   -1    0    0  501  503 -0.00000000000E+00 -0.00000000000E+00 -0.64089604469E+03  0.64089604469E+03  0.00000000000E+00 0. -1.
    9000007    1    1    2  501    0  0.23896120966E+03  0.20736370734E+03 -0.20682285327E+03  0.55034340141E+03  0.40000000000E+03 0. -1.
   -9000007    1    1    2    0  502 -0.23896120966E+03 -0.20736370734E+03 -0.14419895653E+02  0.51020593904E+03  0.40000000000E+03 0. -1.
<mgrwt>
<rscale>  2 0.51000212E+03</rscale>
<asrwt>0</asrwt>
<pdfrwt beam="1">  1       21 0.64562046E-01 0.51000212E+03</pdfrwt>
<pdfrwt beam="2">  1       21 0.98599391E-01 0.51000212E+03</pdfrwt>
<totfact> 0.15774785E+03</totfact>
</mgrwt>
</event>
<event>
 4    1  0.4703494E-002  0.5421437E+03  0.7818608E-02  0.1003329E+00
         21   -1    0    0  503  502  0.00000000000E+00  0.00000000000E+00  0.14075965863E+04  0.14075965863E+04  0.00000000000E+00 0. -1.
         21   -1    0    0  501  503 -0.00000000000E+00 -0.00000000000E+00 -0.27311650010E+03  0.27311650010E+03  0.00000000000E+00 0. -1.
    9000007    1    1    2  501    0 -0.33469428933E+03 -0.14798488281E+03  0.97501273097E+03  0.11156028049E+04  0.40000000000E+03 0. -1.
   -9000007    1    1    2    0  502  0.33469428933E+03  0.14798488281E+03  0.15946735526E+03  0.56511028149E+03  0.40000000000E+03 0. -1.
<mgrwt>
<rscale>  2 0.54214370E+03</rscale>
<asrwt>0</asrwt>
<pdfrwt beam="1">  1       21 0.21655332E+00 0.54214370E+03</pdfrwt>
<pdfrwt beam="2">  1       21 0.42017924E-01 0.54214370E+03</pdfrwt>
<totfact> 0.45185887E+02</totfact>
</mgrwt>
</event>
<event>
 4    1  0.4703494E-002  0.4331219E+03  0.7818608E-02  0.1032878E+00
         21   -1    0    0  501  502  0.00000000000E+00  0.00000000000E+00  0.11829193735E+04  0.11829193735E+04  0.00000000000E+00 0. -1.
         21   -1    0    0  502  503 -0.00000000000E+00 -0.00000000000E+00 -0.16599270655E+03  0.16599270655E+03  0.00000000000E+00 0. -1.
    9000007    1    1    2  501    0 -0.72446460724E+02  0.14948622055E+03  0.36599526061E+03  0.56705127686E+03  0.40000000000E+03 0. -1.
   -9000007    1    1    2    0  503  0.72446460724E+02 -0.14948622055E+03  0.65093140639E+03  0.78186080323E+03  0.40000000000E+03 0. -1.
<mgrwt>
<rscale>  2 0.43312195E+03</rscale>
<asrwt>0</asrwt>
<pdfrwt beam="1">  1       21 0.18198759E+00 0.43312195E+03</pdfrwt>
<pdfrwt beam="2">  1       21 0.25537340E-01 0.43312195E+03</pdfrwt>
<totfact> 0.21991180E+03</totfact>
</mgrwt>
</event>
<event>
 4    1  0.4703494E-002  0.5541116E+03  0.7818608E-02  0.1000547E+00
         21   -1    0    0  503  502  0.00000000000E+00  0.00000000000E+00  0.47952981922E+03  0.47952981922E+03  0.00000000000E+00 0.  1.
         21   -1    0    0  501  503 -0.00000000000E+00 -0.00000000000E+00 -0.97468543530E+03  0.97468543530E+03  0.00000000000E+00 0. -1.
    9000007    1    1    2  501    0 -0.36072574348E+03  0.13006389505E+03 -0.67346498027E+03  0.87212083936E+03  0.40000000000E+03 0. -1.
   -9000007    1    1    2    0  502  0.36072574348E+03 -0.13006389505E+03  0.17830936418E+03  0.58209441516E+03  0.40000000000E+03 0.  1.
<mgrwt>
<rscale>  2 0.55411161E+03</rscale>
<asrwt>0</asrwt>
<pdfrwt beam="1">  1       21 0.73773819E-01 0.55411161E+03</pdfrwt>
<pdfrwt beam="2">  1       21 0.14995160E+00 0.55411161E+03</pdfrwt>
<totfact> 0.39162342E+02</totfact>
</mgrwt>
</event>
<event>
 4    1  0.4703494E-002  0.4077655E+03  0.7818608E-02  0.1041123E+00
         21   -1    0    0  501  502  0.00000000000E+00  0.00000000000E+00  0.48174811179E+03  0.48174811179E+03  0.00000000000E+00 0.  1.
         21   -1    0    0  502  503 -0.00000000000E+00 -0.00000000000E+00 -0.43042473990E+03  0.43042473990E+03  0.00000000000E+00 0.  1.
    9000007    1    1    2  501    0 -0.24619463117E+02  0.75276642336E+02 -0.17735084619E+03  0.44466393320E+03  0.40000000000E+03 0. -1.
   -9000007    1    1    2    0  503  0.24619463117E+02 -0.75276642336E+02  0.22867421809E+03  0.46750891848E+03  0.40000000000E+03 0. -1.
<mgrwt>
<rscale>  2 0.40776549E+03</rscale>
<asrwt>0</asrwt>
<pdfrwt beam="1">  1       21 0.74115094E-01 0.40776549E+03</pdfrwt>
<pdfrwt beam="2">  1       21 0.66219191E-01 0.40776549E+03</pdfrwt>
<totfact> 0.30221800E+03</totfact>
</mgrwt>
</event>
<event>
 4    1  0.4703494E-002  0.4096965E+03  0.7818608E-02  0.1040473E+00
         21   -1    0    0  501  502  0.00000000000E+00  0.00000000000E+00  0.10652138818E+03  0.10652138818E+03  0.00000000000E+00 0.  1.
         21   -1    0    0  502  503 -0.00000000000E+00 -0.00000000000E+00 -0.16201228122E+04  0.16201228122E+04  0.00000000000E+00 0. -1.
    9000007    1    1    2  501    0  0.62149227124E+01 -0.88388827197E+02 -0.89967407735E+03  0.98856697067E+03  0.40000000000E+03 0.  1.
   -9000007    1    1    2    0  503 -0.62149227124E+01  0.88388827197E+02 -0.61392734664E+03  0.73807722969E+03  0.40000000000E+03 0.  1.
<mgrwt>
<rscale>  2 0.40969649E+03</rscale>
<asrwt>0</asrwt>
<pdfrwt beam="1">  1       21 0.16387906E-01 0.40969649E+03</pdfrwt>
<pdfrwt beam="2">  1       21 0.24924966E+00 0.40969649E+03</pdfrwt>
<totfact> 0.19001765E+03</totfact>
</mgrwt>
</event>
<event>
 4    1  0.4703494E-002  0.4580700E+03  0.7818608E-02  0.1025342E+00
         21   -1    0    0  501  502  0.00000000000E+00  0.00000000000E+00  0.12516404600E+04  0.12516404600E+04  0.00000000000E+00 0.  1.
         21   -1    0    0  502  503 -0.00000000000E+00 -0.00000000000E+00 -0.38244954479E+03  0.38244954479E+03  0.00000000000E+00 0.  1.
    9000007    1    1    2  501    0 -0.14144421055E+03  0.17268947382E+03  0.10469221301E+04  0.11427484700E+04  0.40000000000E+03 0.  1.
   -9000007    1    1    2    0  503  0.14144421055E+03 -0.17268947382E+03 -0.17773121493E+03  0.49134153481E+03  0.40000000000E+03 0.  1.
<mgrwt>
<rscale>  2 0.45806999E+03</rscale>
<asrwt>0</asrwt>
<pdfrwt beam="1">  1       21 0.19256007E+00 0.45806999E+03</pdfrwt>
<pdfrwt beam="2">  1       21 0.58838392E-01 0.45806999E+03</pdfrwt>
<totfact> 0.33042840E+02</totfact>
</mgrwt>
</event>
<event>
 4    1  0.4703494E-002  0.4208393E+03  0.7818608E-02  0.1036793E+00
         21   -1    0    0  503  502  0.00000000000E+00  0.00000000000E+00  0.15703261468E+03  0.15703261468E+03  0.00000000000E+00 0.  1.
         21   -1    0    0  501  503 -0.00000000000E+00 -0.00000000000E+00 -0.11296297112E+04  0.11296297112E+04  0.00000000000E+00 0.  1.
    9000007    1    1    2  501    0  0.12885553265E+03 -0.22405398461E+02 -0.46060454207E+03  0.62390888305E+03  0.40000000000E+03 0. -1.
   -9000007    1    1    2    0  502 -0.12885553265E+03  0.22405398461E+02 -0.51199255448E+03  0.66275344285E+03  0.40000000000E+03 0. -1.
<mgrwt>
<rscale>  2 0.42083934E+03</rscale>
<asrwt>0</asrwt>
<pdfrwt beam="1">  1       21 0.24158863E-01 0.42083934E+03</pdfrwt>
<pdfrwt beam="2">  1       21 0.17378919E+00 0.42083934E+03</pdfrwt>
<totfact> 0.28145865E+03</totfact>
</mgrwt>
</event>
<event>
 4    1  0.4703494E-002  0.5083118E+03  0.7818608E-02  0.1011632E+00
         21   -1    0    0  501  502  0.00000000000E+00  0.00000000000E+00  0.18567068694E+03  0.18567068694E+03  0.00000000000E+00 0. -1.
         21   -1    0    0  502  503 -0.00000000000E+00 -0.00000000000E+00 -0.15043340884E+04  0.15043340884E+04  0.00000000000E+00 0. -1.
    9000007    1    1    2  501    0 -0.30577265936E+03  0.69885261523E+02 -0.42802009219E+03  0.66451641689E+03  0.40000000000E+03 0. -1.
   -9000007    1    1    2    0  503  0.30577265936E+03 -0.69885261523E+02 -0.89064330928E+03  0.10254883585E+04  0.40000000000E+03 0. -1.
<mgrwt>
<rscale>  2 0.50831178E+03</rscale>
<asrwt>0</asrwt>
<pdfrwt beam="1">  1       21 0.28564721E-01 0.50831178E+03</pdfrwt>
<pdfrwt beam="2">  1       21 0.23143601E+00 0.50831178E+03</pdfrwt>
<totfact> 0.80549925E+02</totfact>
</mgrwt>
</event>
<event>
 4    1  0.4703494E-002  0.4574087E+03  0.7818608E-02  0.1025535E+00
         21   -1    0    0  501  502  0.00000000000E+00  0.00000000000E+00  0.18133826165E+03  0.18133826165E+03  0.00000000000E+00 0. -1.
         21   -1    0    0  502  503 -0.00000000000E+00 -0.00000000000E+00 -0.11892577947E+04  0.11892577947E+04  0.00000000000E+00 0. -1.
    9000007    1    1    2  501    0  0.16398664196E+03 -0.14943604695E+03 -0.38558000765E+03  0.59824300512E+03  0.40000000000E+03 0. -1.
   -9000007    1    1    2    0  503 -0.16398664196E+03  0.14943604695E+03 -0.62233952543E+03  0.77235305126E+03  0.40000000000E+03 0. -1.
<mgrwt>
<rscale>  2 0.45740874E+03</rscale>
<asrwt>0</asrwt>
<pdfrwt beam="1">  1       21 0.27898194E-01 0.45740874E+03</pdfrwt>
<pdfrwt beam="2">  1       21 0.18296274E+00 0.45740874E+03</pdfrwt>
<totfact> 0.18020125E+03</totfact>
</mgrwt>
</event>
<event>
 4    1  0.4703494E-002  0.4092291E+03  0.7818608E-02  0.1040630E+00
         21   -1    0    0  501  502  0.00000000000E+00  0.00000000000E+00  0.36637630314E+03  0.36637630314E+03  0.00000000000E+00 0. -1.
         21   -1    0    0  502  503 -0.00000000000E+00 -0.00000000000E+00 -0.75910251199E+03  0.75910251199E+03  0.00000000000E+00 0. -1.
    9000007    1    1    2  501    0  0.40568236670E+02  0.76306420932E+02  0.15858644114E+03  0.43888279873E+03  0.40000000000E+03 0. -1.
   -9000007    1    1    2    0  503 -0.40568236670E+02 -0.76306420932E+02 -0.55131264999E+03  0.68659601640E+03  0.40000000000E+03 0. -1.
<mgrwt>
<rscale>  2 0.40922909E+03</rscale>
<asrwt>0</asrwt>
<pdfrwt beam="1">  1       21 0.56365586E-01 0.40922909E+03</pdfrwt>
<pdfrwt beam="2">  1       21 0.11678500E+00 0.40922909E+03</pdfrwt>
<totfact> 0.14543522E+03</totfact>
</mgrwt>
</event>
<event>
 4    1  0.4703494E-002  0.4056159E+03  0.7818608E-02  0.1041852E+00
         21   -1    0    0  503  502  0.00000000000E+00  0.00000000000E+00  0.56122932010E+03  0.56122932010E+03  0.00000000000E+00 0. -1.
         21   -1    0    0  501  503 -0.00000000000E+00 -0.00000000000E+00 -0.29583973780E+03  0.29583973780E+03  0.00000000000E+00 0. -1.
    9000007    1    1    2  501    0  0.58070538461E+02 -0.33941962647E+02  0.17355789690E+03  0.44118770137E+03  0.40000000000E+03 0.  1.
   -9000007    1    1    2    0  502 -0.58070538461E+02  0.33941962647E+02  0.91831685397E+02  0.41588135653E+03  0.40000000000E+03 0.  1.
<mgrwt>
<rscale>  2 0.40561588E+03</rscale>
<asrwt>0</asrwt>
<pdfrwt beam="1">  1       21 0.86342972E-01 0.40561588E+03</pdfrwt>
<pdfrwt beam="2">  1       21 0.45513806E-01 0.40561588E+03</pdfrwt>
<totfact> 0.47734669E+03</totfact>
</mgrwt>
</event>
<event>
 4    1  0.4703494E-002  0.5370474E+03  0.7818608E-02  0.1004537E+00
         21   -1    0    0  503  502  0.00000000000E+00  0.00000000000E+00  0.84141379722E+03  0.84141379722E+03  0.00000000000E+00 0. -1.
         21   -1    0    0  501  503 -0.00000000000E+00 -0.00000000000E+00 -0.64575072217E+03  0.64575072217E+03  0.00000000000E+00 0.  1.
    9000007    1    1    2  501    0  0.35595407990E+03 -0.41432511935E+02 -0.41149556022E+03  0.67657117595E+03  0.40000000000E+03 0.  1.
   -9000007    1    1    2    0  502 -0.35595407990E+03  0.41432511935E+02  0.60715863527E+03  0.81059334344E+03  0.40000000000E+03 0. -1.
<mgrwt>
<rscale>  2 0.53704745E+03</rscale>
<asrwt>0</asrwt>
<pdfrwt beam="1">  1       21 0.12944828E+00 0.53704745E+03</pdfrwt>
<pdfrwt beam="2">  1       21 0.99346265E-01 0.53704745E+03</pdfrwt>
<totfact> 0.28955198E+02</totfact>
</mgrwt>
</event>
<event>
 4    1  0.4703494E-002  0.4400874E+03  0.7818608E-02  0.1030720E+00
         21   -1    0    0  503  502  0.00000000000E+00  0.00000000000E+00  0.36856413208E+03  0.36856413208E+03  0.00000000000E+00 0.  1.
         21   -1    0    0  501  503 -0.00000000000E+00 -0.00000000000E+00 -0.66210248538E+03  0.66210248538E+03  0.00000000000E+00 0.  1.
    9000007    1    1    2  501    0  0.42867902955E+01 -0.18346256272E+03 -0.38085239080E+03  0.58200123030E+03  0.40000000000E+03 0.  1.
   -9000007    1    1    2    0  502 -0.42867902955E+01  0.18346256272E+03  0.87314037496E+02  0.44866538716E+03  0.40000000000E+03 0.  1.
<mgrwt>
<rscale>  2 0.44008736E+03</rscale>
<asrwt>0</asrwt>
<pdfrwt beam="1">  1       21 0.56702175E-01 0.44008736E+03</pdfrwt>
<pdfrwt beam="2">  1       21 0.10186192E+00 0.44008736E+03</pdfrwt>
<totfact> 0.19881450E+03</totfact>
</mgrwt>
</event>
<event>
 4    1  0.4703494E-002  0.4843231E+03  0.7818608E-02  0.1017954E+00
         21   -1    0    0  503  502  0.00000000000E+00  0.00000000000E+00  0.15848322749E+03  0.15848322749E+03  0.00000000000E+00 0.  1.
         21   -1    0    0  501  503 -0.00000000000E+00 -0.00000000000E+00 -0.16635292386E+04  0.16635292386E+04  0.00000000000E+00 0. -1.
    9000007    1    1    2  501    0  0.23552553873E+03 -0.13819045511E+03 -0.45000138151E+03  0.66111279267E+03  0.40000000000E+03 0.  1.
   -9000007    1    1    2    0  502 -0.23552553873E+03  0.13819045511E+03 -0.10550446296E+04  0.11608996734E+04  0.40000000000E+03 0.  1.
<mgrwt>
<rscale>  2 0.48432312E+03</rscale>
<asrwt>0</asrwt>
<pdfrwt beam="1">  1       21 0.24382035E-01 0.48432312E+03</pdfrwt>
<pdfrwt beam="2">  1       21 0.25592758E+00 0.48432312E+03</pdfrwt>
<totfact> 0.78242164E+02</totfact>
</mgrwt>
</event>
<event>
 4    1  0.4703494E-002  0.4263355E+03  0.7818608E-02  0.1035024E+00
         21   -1    0    0  501  502  0.00000000000E+00  0.00000000000E+00  0.86757300540E+03  0.86757300540E+03  0.00000000000E+00 0. -1.
         21   -1    0    0  502  503 -0.00000000000E+00 -0.00000000000E+00 -0.21581775684E+03  0.21581775684E+03  0.00000000000E+00 0.  1.
    9000007    1    1    2  501    0 -0.94292151661E+02 -0.11345003410E+03  0.23324159478E+03  0.48596662605E+03  0.40000000000E+03 0. -1.
   -9000007    1    1    2    0  503  0.94292151661E+02  0.11345003410E+03  0.41851365378E+03  0.59742413619E+03  0.40000000000E+03 0.  1.
<mgrwt>
<rscale>  2 0.42633545E+03</rscale>
<asrwt>0</asrwt>
<pdfrwt beam="1">  1       21 0.13347277E+00 0.42633545E+03</pdfrwt>
<pdfrwt beam="2">  1       21 0.33202732E-01 0.42633545E+03</pdfrwt>
<totfact> 0.30856315E+03</totfact>
</mgrwt>
</event>
<event>
 4    1  0.4703494E-002  0.5927136E+03  0.7818608E-02  0.9920639E-01
         21   -1    0    0  503  502  0.00000000000E+00  0.00000000000E+00  0.35632743685E+04  0.35632743685E+04  0.00000000000E+00 0.  1.
         21   -1    0    0  501  503 -0.00000000000E+00 -0.00000000000E+00 -0.21376515664E+03  0.21376515664E+03  0.00000000000E+00 0.  1.
    9000007    1    1    2  501    0  0.32253603006E+03 -0.29543180636E+03  0.28854409241E+03  0.65921706301E+03  0.40000000000E+03 0.  1.
   -9000007    1    1    2    0  502 -0.32253603006E+03  0.29543180636E+03  0.30609651194E+04  0.31178224621E+04  0.40000000000E+03 0.  1.
<mgrwt>
<rscale>  2 0.59271363E+03</rscale>
<asrwt>0</asrwt>
<pdfrwt beam="1">  1       21 0.54819601E+00 0.59271363E+03</pdfrwt>
<pdfrwt beam="2">  1       21 0.32886950E-01 0.59271363E+03</pdfrwt>
<totfact> 0.48875752E+00</totfact>
</mgrwt>
</event>
<event>
 4    1  0.4703494E-002  0.5290929E+03  0.7818608E-02  0.1006452E+00
         21   -1    0    0  503  502  0.00000000000E+00  0.00000000000E+00  0.25069561868E+03  0.25069561868E+03  0.00000000000E+00 0. -1.
         21   -1    0    0  501  503 -0.00000000000E+00 -0.00000000000E+00 -0.15992084591E+04  0.15992084591E+04  0.00000000000E+00 0. -1.
    9000007    1    1    2  501    0  0.17443408530E+03  0.29918557819E+03 -0.11823475880E+04  0.12953320343E+04  0.40000000000E+03 0. -1.
   -9000007    1    1    2    0  502 -0.17443408530E+03 -0.29918557819E+03 -0.16616525248E+03  0.55457204351E+03  0.40000000000E+03 0. -1.
<mgrwt>
<rscale>  2 0.52909287E+03</rscale>
<asrwt>0</asrwt>
<pdfrwt beam="1">  1       21 0.38568556E-01 0.52909287E+03</pdfrwt>
<pdfrwt beam="2">  1       21 0.24603207E+00 0.52909287E+03</pdfrwt>
<totfact> 0.35293610E+02</totfact>
</mgrwt>
</event>
<event>
 4    1  0.4703494E-002  0.4039037E+03  0.7818608E-02  0.1042436E+00
         21   -1    0    0  503  502  0.00000000000E+00  0.00000000000E+00  0.15998143036E+04  0.15998143036E+04  0.00000000000E+00 0.  1.
         21   -1    0    0  501  503 -0.00000000000E+00 -0.00000000000E+00 -0.29601211017E+03  0.29601211017E+03  0.00000000000E+00 0.  1.
    9000007    1    1    2  501    0  0.29849193388E+02  0.47405243702E+02 -0.11556326021E+03  0.42011081703E+03  0.40000000000E+03 0.  1.
   -9000007    1    1    2    0  502 -0.29849193388E+02 -0.47405243702E+02  0.14193654537E+04  0.14757155968E+04  0.40000000000E+03 0.  1.
<mgrwt>
<rscale>  2 0.40390374E+03</rscale>
<asrwt>0</asrwt>
<pdfrwt beam="1">  1       21 0.24612527E+00 0.40390374E+03</pdfrwt>
<pdfrwt beam="2">  1       21 0.45540325E-01 0.40390374E+03</pdfrwt>
<totfact> 0.26684343E+02</totfact>
</mgrwt>
</event>
<event>
 4    1  0.4703494E-002  0.4721310E+03  0.7818608E-02  0.1021320E+00
         21   -1    0    0  501  502  0.00000000000E+00  0.00000000000E+00  0.19307854822E+03  0.19307854822E+03  0.00000000000E+00 0.  1.
         21   -1    0    0  502  503 -0.00000000000E+00 -0.00000000000E+00 -0.13986766721E+04  0.13986766721E+04  0.00000000000E+00 0.  1.
    9000007    1    1    2  501    0 -0.21950484707E+03 -0.12134798160E+03 -0.27025707082E+03  0.54400973783E+03  0.40000000000E+03 0.  1.
   -9000007    1    1    2    0  503  0.21950484707E+03  0.12134798160E+03 -0.93534105304E+03  0.10477454825E+04  0.40000000000E+03 0.  1.
<mgrwt>
<rscale>  2 0.47213103E+03</rscale>
<asrwt>0</asrwt>
<pdfrwt beam="1">  1       21 0.29704391E-01 0.47213103E+03</pdfrwt>
<pdfrwt beam="2">  1       21 0.21518103E+00 0.47213103E+03</pdfrwt>
<totfact> 0.96177855E+02</totfact>
</mgrwt>
</event>
<event>
 4    1  0.4703494E-002  0.5825455E+03  0.7818608E-02  0.9942295E-01
         21   -1    0    0  503  502  0.00000000000E+00  0.00000000000E+00  0.36265252172E+03  0.36265252172E+03  0.00000000000E+00 0. -1.
         21   -1    0    0  501  503 -0.00000000000E+00 -0.00000000000E+00 -0.10188745517E+04  0.10188745517E+04  0.00000000000E+00 0. -1.
    9000007    1    1    2  501    0  0.19190763907E+03  0.37753241347E+03 -0.52539056368E+03  0.78447084685E+03  0.40000000000E+03 0. -1.
   -9000007    1    1    2    0  502 -0.19190763907E+03 -0.37753241347E+03 -0.13083146635E+03  0.59705622662E+03  0.40000000000E+03 0. -1.
<mgrwt>
<rscale>  2 0.58254550E+03</rscale>
<asrwt>0</asrwt>
<pdfrwt beam="1">  1       21 0.55792697E-01 0.58254550E+03</pdfrwt>
<pdfrwt beam="2">  1       21 0.15674993E+00 0.58254550E+03</pdfrwt>
<totfact> 0.63937609E+02</totfact>
</mgrwt>
</event>
<event>
 4    1  0.4703494E-002  0.5353182E+03  0.7818608E-02  0.1004950E+00
         21   -1    0    0  503  502  0.00000000000E+00  0.00000000000E+00  0.46238804172E+03  0.46238804172E+03  0.00000000000E+00 0. -1.
         21   -1    0    0  501  503 -0.00000000000E+00 -0.00000000000E+00 -0.76672157600E+03  0.76672157600E+03  0.00000000000E+00 0. -1.
    9000007    1    1    2  501    0  0.28741568427E+03  0.20966126608E+03 -0.42123128571E+03  0.68117649557E+03  0.40000000000E+03 0. -1.
   -9000007    1    1    2    0  502 -0.28741568427E+03 -0.20966126608E+03  0.11689775142E+03  0.54793312215E+03  0.40000000000E+03 0. -1.
<mgrwt>
<rscale>  2 0.53531824E+03</rscale>
<asrwt>0</asrwt>
<pdfrwt beam="1">  1       21 0.71136622E-01 0.53531824E+03</pdfrwt>
<pdfrwt beam="2">  1       21 0.11795717E+00 0.53531824E+03</pdfrwt>
<totfact> 0.80608229E+02</totfact>
</mgrwt>
</event>
<event>
 4    1  0.4703494E-002  0.5277144E+03  0.7818608E-02  0.1006788E+00
         21   -1    0    0  501  502  0.00000000000E+00  0.00000000000E+00  0.32978984647E+03  0.32978984647E+03  0.00000000000E+00 0.  1.
         21   -1    0    0  502  503 -0.00000000000E+00 -0.00000000000E+00 -0.95256852931E+03  0.95256852931E+03  0.00000000000E+00 0.  1.
    9000007    1    1    2  501    0 -0.42682052109E+02  0.34155637327E+03 -0.95349792946E+02  0.53625935582E+03  0.40000000000E+03 0.  1.
   -9000007    1    1    2    0  503  0.42682052109E+02 -0.34155637327E+03 -0.52742888989E+03  0.74609901996E+03  0.40000000000E+03 0.  1.
<mgrwt>
<rscale>  2 0.52771442E+03</rscale>
<asrwt>0</asrwt>
<pdfrwt beam="1">  1       21 0.50736900E-01 0.52771442E+03</pdfrwt>
<pdfrwt beam="2">  1       21 0.14654900E+00 0.52771442E+03</pdfrwt>
<totfact> 0.96248213E+02</totfact>
</mgrwt>
</event>
<event>
 4    1  0.4703494E-002  0.6634160E+03  0.7818608E-02  0.9781926E-01
         21   -1    0    0  503  502  0.00000000000E+00  0.00000000000E+00  0.69847829645E+03  0.69847829645E+03  0.00000000000E+00 0. -1.
         21   -1    0    0  501  503 -0.00000000000E+00 -0.00000000000E+00 -0.63587804523E+03  0.63587804523E+03  0.00000000000E+00 0. -1.
    9000007    1    1    2  501    0 -0.50533529322E+03 -0.15734363826E+03 -0.32222435394E+02  0.66419806114E+03  0.40000000000E+03 0. -1.
   -9000007    1    1    2    0  502  0.50533529322E+03  0.15734363826E+03  0.94822686610E+02  0.67015828054E+03  0.40000000000E+03 0. -1.
<mgrwt>
<rscale>  2 0.66341599E+03</rscale>
<asrwt>0</asrwt>
<pdfrwt beam="1">  1       21 0.10745820E+00 0.66341599E+03</pdfrwt>
<pdfrwt beam="2">  1       21 0.97827392E-01 0.66341599E+03</pdfrwt>
<totfact> 0.46246999E+02</totfact>
</mgrwt>
</event>
<event>
 4    1  0.4703494E-002  0.4287170E+03  0.7818608E-02  0.1034266E+00
         21   -1    0    0  501  502  0.00000000000E+00  0.00000000000E+00  0.48094269660E+03  0.48094269660E+03  0.00000000000E+00 0. -1.
         21   -1    0    0  502  503 -0.00000000000E+00 -0.00000000000E+00 -0.42489300855E+03  0.42489300855E+03  0.00000000000E+00 0. -1.
    9000007    1    1    2  501    0  0.34164750051E+02 -0.15043612731E+03  0.17165602386E+03  0.46180520685E+03  0.40000000000E+03 0. -1.
   -9000007    1    1    2    0  503 -0.34164750051E+02  0.15043612731E+03 -0.11560633581E+03  0.44403049831E+03  0.40000000000E+03 0. -1.
<mgrwt>
<rscale>  2 0.42871699E+03</rscale>
<asrwt>0</asrwt>
<pdfrwt beam="1">  1       21 0.73991184E-01 0.42871699E+03</pdfrwt>
<pdfrwt beam="2">  1       21 0.65368155E-01 0.42871699E+03</pdfrwt>
<totfact> 0.30975088E+03</totfact>
</mgrwt>
</event>
<event>
 4    1  0.4703494E-002  0.4975284E+03  0.7818608E-02  0.1014426E+00
         21   -1    0    0  503  502  0.00000000000E+00  0.00000000000E+00  0.85766926900E+03  0.85766926900E+03  0.00000000000E+00 0. -1.
         21   -1    0    0  501  503 -0.00000000000E+00 -0.00000000000E+00 -0.55931496428E+03  0.55931496428E+03  0.00000000000E+00 0.  1.
    9000007    1    1    2  501    0 -0.28593487293E+03 -0.75998289880E+02 -0.34371569383E+03  0.60471064965E+03  0.40000000000E+03 0.  1.
   -9000007    1    1    2    0  502  0.28593487293E+03  0.75998289880E+02  0.64206999855E+03  0.81227358363E+03  0.40000000000E+03 0. -1.
<mgrwt>
<rscale>  2 0.49752838E+03</rscale>
<asrwt>0</asrwt>
<pdfrwt beam="1">  1       21 0.13194912E+00 0.49752838E+03</pdfrwt>
<pdfrwt beam="2">  1       21 0.86048456E-01 0.49752838E+03</pdfrwt>
<totfact> 0.39470658E+02</totfact>
</mgrwt>
</event>
<event>
 4    1  0.4703494E-002  0.4136233E+03  0.7818608E-02  0.1039162E+00
         21   -1    0    0  501  502  0.00000000000E+00  0.00000000000E+00  0.54637570125E+03  0.54637570125E+03  0.00000000000E+00 0. -1.
         21   -1    0    0  502  503 -0.00000000000E+00 -0.00000000000E+00 -0.32773838098E+03  0.32773838098E+03  0.00000000000E+00 0. -1.
    9000007    1    1    2  501    0  0.13399435434E+02 -0.10442569355E+03  0.17031874875E+02  0.41397385800E+03  0.40000000000E+03 0. -1.
   -9000007    1    1    2    0  503 -0.13399435434E+02  0.10442569355E+03  0.20160544539E+03  0.46014022423E+03  0.40000000000E+03 0. -1.
<mgrwt>
<rscale>  2 0.41362334E+03</rscale>
<asrwt>0</asrwt>
<pdfrwt beam="1">  1       21 0.84057800E-01 0.41362334E+03</pdfrwt>
<pdfrwt beam="2">  1       21 0.50421289E-01 0.41362334E+03</pdfrwt>
<totfact> 0.40825876E+03</totfact>
</mgrwt>
</event>
<event>
 4    1  0.4703494E-002  0.5374589E+03  0.7818608E-02  0.1004439E+00
         21   -1    0    0  501  502  0.00000000000E+00  0.00000000000E+00  0.27184651977E+04  0.27184651977E+04  0.00000000000E+00 0. -1.
         21   -1    0    0  502  503 -0.00000000000E+00 -0.00000000000E+00 -0.81713983169E+03  0.81713983169E+03  0.00000000000E+00 0. -1.
    9000007    1    1    2  501    0 -0.34015109841E+03  0.11471417798E+03  0.25995230462E+04  0.26545022471E+04  0.40000000000E+03 0. -1.
   -9000007    1    1    2    0  503  0.34015109841E+03 -0.11471417798E+03 -0.69819768016E+03  0.88110278228E+03  0.40000000000E+03 0. -1.
<mgrwt>
<rscale>  2 0.53745894E+03</rscale>
<asrwt>0</asrwt>
<pdfrwt beam="1">  1       21 0.41822541E+00 0.53745894E+03</pdfrwt>
<pdfrwt beam="2">  1       21 0.12571382E+00 0.53745894E+03</pdfrwt>
<totfact> 0.20304250E+00</totfact>
</mgrwt>
</event>
<event>
 4    1  0.4703494E-002  0.5343837E+03  0.7818608E-02  0.1005175E+00
         21   -1    0    0  503  502  0.00000000000E+00  0.00000000000E+00  0.51746692250E+03  0.51746692250E+03  0.00000000000E+00 0.  1.
         21   -1    0    0  501  503 -0.00000000000E+00 -0.00000000000E+00 -0.10047623706E+04  0.10047623706E+04  0.00000000000E+00 0.  1.
    9000007    1    1    2  501    0  0.32952089340E+03  0.13031455534E+03 -0.75465118254E+03  0.92469687457E+03  0.40000000000E+03 0.  1.
   -9000007    1    1    2    0  502 -0.32952089340E+03 -0.13031455534E+03  0.26735573440E+03  0.59753241857E+03  0.40000000000E+03 0.  1.
<mgrwt>
<rscale>  2 0.53438367E+03</rscale>
<asrwt>0</asrwt>
<pdfrwt beam="1">  1       21 0.79610297E-01 0.53438367E+03</pdfrwt>
<pdfrwt beam="2">  1       21 0.15457882E+00 0.53438367E+03</pdfrwt>
<totfact> 0.30473523E+02</totfact>
</mgrwt>
</event>
<event>
 4    1  0.4703494E-002  0.4056531E+03  0.7818608E-02  0.1041840E+00
         21   -1    0    0  503  502  0.00000000000E+00  0.00000000000E+00  0.86234833300E+03  0.86234833300E+03  0.00000000000E+00 0. -1.
         21   -1    0    0  501  503 -0.00000000000E+00 -0.00000000000E+00 -0.22436828880E+03  0.22436828880E+03  0.00000000000E+00 0. -1.
    9000007    1    1    2  501    0 -0.60097831455E+02  0.30703667380E+02  0.10888710193E+03  0.42001293492E+03  0.40000000000E+03 0. -1.
   -9000007    1    1    2    0  502  0.60097831455E+02 -0.30703667380E+02  0.52909294226E+03  0.66670368687E+03  0.40000000000E+03 0. -1.
<mgrwt>
<rscale>  2 0.40565313E+03</rscale>
<asrwt>0</asrwt>
<pdfrwt beam="1">  1       21 0.13266897E+00 0.40565313E+03</pdfrwt>
<pdfrwt beam="2">  1       21 0.34518199E-01 0.40565313E+03</pdfrwt>
<totfact> 0.29228384E+03</totfact>
</mgrwt>
</event>
