<event>
 4    1  0.4962426E-002  0.4012818E+03  0.7818608E-02  0.1043337E+00
         21   -1    0    0  501  502  0.00000000000E+00  0.00000000000E+00  0.18829379975E+03  0.18829379975E+03  0.00000000000E+00 0. -1.
         21   -1    0    0  502  503 -0.00000000000E+00 -0.00000000000E+00 -0.12792708147E+04  0.12792708147E+04  0.00000000000E+00 0. -1.
    9000005    1    1    2  501    0  0.24816032060E+02 -0.20278720225E+02 -0.12300470309E+03  0.41971087539E+03  0.40000000000E+03 0. -1.
   -9000005    1    1    2    0  503 -0.24816032060E+02  0.20278720225E+02 -0.96797231186E+03  0.10478537391E+04  0.40000000000E+03 0. -1.
<mgrwt>
<rscale>  2 0.40128177E+03</rscale>
<asrwt>0</asrwt>
<pdfrwt beam="1">  1       21 0.28968277E-01 0.40128177E+03</pdfrwt>
<pdfrwt beam="2">  1       21 0.19681089E+00 0.40128177E+03</pdfrwt>
<totfact> 0.13801528E+03</totfact>
</mgrwt>
</event>
<event>
 4    1  0.4962426E-002  0.4158718E+03  0.7818608E-02  0.1038418E+00
         21   -1    0    0  503  502  0.00000000000E+00  0.00000000000E+00  0.13921933894E+04  0.13921933894E+04  0.00000000000E+00 0.  1.
         21   -1    0    0  501  503 -0.00000000000E+00 -0.00000000000E+00 -0.14760728232E+03  0.14760728232E+03  0.00000000000E+00 0.  1.
    9000005    1    1    2  501    0 -0.11173374466E+03  0.21561842541E+02  0.92869857642E+03  0.10175609999E+04  0.40000000000E+03 0.  1.
   -9000005    1    1    2    0  502  0.11173374466E+03 -0.21561842541E+02  0.31588753064E+03  0.52223967176E+03  0.40000000000E+03 0.  1.
<mgrwt>
<rscale>  2 0.41587179E+03</rscale>
<asrwt>0</asrwt>
<pdfrwt beam="1">  1       21 0.21418359E+00 0.41587179E+03</pdfrwt>
<pdfrwt beam="2">  1       21 0.22708814E-01 0.41587179E+03</pdfrwt>
<totfact> 0.16934449E+03</totfact>
</mgrwt>
</event>
<event>
 4    1  0.4962426E-002  0.4653372E+03  0.7818608E-02  0.1023245E+00
         21   -1    0    0  501  502  0.00000000000E+00  0.00000000000E+00  0.11941764321E+04  0.11941764321E+04  0.00000000000E+00 0.  1.
         21   -1    0    0  502  503 -0.00000000000E+00 -0.00000000000E+00 -0.19028022520E+03  0.19028022520E+03  0.00000000000E+00 0.  1.
    9000005    1    1    2  501    0  0.23374774815E+03  0.43597293526E+02  0.35180841923E+03  0.58335914976E+03  0.40000000000E+03 0. -1.
   -9000005    1    1    2    0  503 -0.23374774815E+03 -0.43597293526E+02  0.65208778770E+03  0.80109750757E+03  0.40000000000E+03 0. -1.
<mgrwt>
<rscale>  2 0.46533723E+03</rscale>
<asrwt>0</asrwt>
<pdfrwt beam="1">  1       21 0.18371945E+00 0.46533723E+03</pdfrwt>
<pdfrwt beam="2">  1       21 0.29273882E-01 0.46533723E+03</pdfrwt>
<totfact> 0.16133149E+03</totfact>
</mgrwt>
</event>
<event>
 4    1  0.4962426E-002  0.6906933E+03  0.7818608E-02  0.9733282E-01
         21   -1    0    0  501  502  0.00000000000E+00  0.00000000000E+00  0.25727426029E+04  0.25727426029E+04  0.00000000000E+00 0.  1.
         21   -1    0    0  502  503 -0.00000000000E+00 -0.00000000000E+00 -0.19350097306E+03  0.19350097306E+03  0.00000000000E+00 0. -1.
    9000005    1    1    2  501    0  0.37187303831E+03 -0.42280922461E+03  0.14721409338E+04  0.16261168857E+04  0.40000000000E+03 0. -1.
   -9000005    1    1    2    0  503 -0.37187303831E+03  0.42280922461E+03  0.90710069600E+03  0.11401266902E+04  0.40000000000E+03 0. -1.
<mgrwt>
<rscale>  2 0.69069327E+03</rscale>
<asrwt>0</asrwt>
<pdfrwt beam="1">  1       21 0.39580653E+00 0.69069327E+03</pdfrwt>
<pdfrwt beam="2">  1       21 0.29769382E-01 0.69069327E+03</pdfrwt>
<totfact> 0.65556784E+01</totfact>
</mgrwt>
</event>
<event>
 4    1  0.4962426E-002  0.4204167E+03  0.7818608E-02  0.1036931E+00
         21   -1    0    0  503  502  0.00000000000E+00  0.00000000000E+00  0.13651378186E+03  0.13651378186E+03  0.00000000000E+00 0. -1.
         21   -1    0    0  501  503 -0.00000000000E+00 -0.00000000000E+00 -0.18053680290E+04  0.18053680290E+04  0.00000000000E+00 0. -1.
    9000005    1    1    2  501    0  0.67151822081E+02 -0.11063830678E+03 -0.13507973163E+04  0.14147097200E+04  0.40000000000E+03 0. -1.
   -9000005    1    1    2    0  502 -0.67151822081E+02  0.11063830678E+03 -0.31805693085E+03  0.52717209087E+03  0.40000000000E+03 0. -1.
<mgrwt>
<rscale>  2 0.42041670E+03</rscale>
<asrwt>0</asrwt>
<pdfrwt beam="1">  1       21 0.21002121E-01 0.42041670E+03</pdfrwt>
<pdfrwt beam="2">  1       21 0.27774891E+00 0.42041670E+03</pdfrwt>
<totfact> 0.79500660E+02</totfact>
</mgrwt>
</event>
<event>
 4    1  0.4962426E-002  0.4240028E+03  0.7818608E-02  0.1035771E+00
         21   -1    0    0  503  502  0.00000000000E+00  0.00000000000E+00  0.12738435045E+03  0.12738435045E+03  0.00000000000E+00 0. -1.
         21   -1    0    0  501  503 -0.00000000000E+00 -0.00000000000E+00 -0.14420930694E+04  0.14420930694E+04  0.00000000000E+00 0. -1.
    9000005    1    1    2  501    0  0.13430790164E+03  0.41710804750E+02 -0.54269572617E+03  0.68869227880E+03  0.40000000000E+03 0. -1.
   -9000005    1    1    2    0  502 -0.13430790164E+03 -0.41710804750E+02 -0.77201299280E+03  0.88078514107E+03  0.40000000000E+03 0. -1.
<mgrwt>
<rscale>  2 0.42400283E+03</rscale>
<asrwt>0</asrwt>
<pdfrwt beam="1">  1       21 0.19597594E-01 0.42400283E+03</pdfrwt>
<pdfrwt beam="2">  1       21 0.22186046E+00 0.42400283E+03</pdfrwt>
<totfact> 0.19962978E+03</totfact>
</mgrwt>
</event>
<event>
 4    1  0.4962426E-002  0.6860423E+03  0.7818608E-02  0.9741404E-01
         21   -1    0    0  503  502  0.00000000000E+00  0.00000000000E+00  0.49948006420E+03  0.49948006420E+03  0.00000000000E+00 0. -1.
         21   -1    0    0  501  503 -0.00000000000E+00 -0.00000000000E+00 -0.12785417423E+04  0.12785417423E+04  0.00000000000E+00 0. -1.
    9000005    1    1    2  501    0  0.16465352384E+03 -0.53248774763E+03  0.66383557836E+02  0.68924651689E+03  0.40000000000E+03 0. -1.
   -9000005    1    1    2    0  502 -0.16465352384E+03  0.53248774763E+03 -0.84544523590E+03  0.10887752896E+04  0.40000000000E+03 0. -1.
<mgrwt>
<rscale>  2 0.68604226E+03</rscale>
<asrwt>0</asrwt>
<pdfrwt beam="1">  1       21 0.76843088E-01 0.68604226E+03</pdfrwt>
<pdfrwt beam="2">  1       21 0.19669873E+00 0.68604226E+03</pdfrwt>
<totfact> 0.15468636E+02</totfact>
</mgrwt>
</event>
<event>
 4    1  0.4962426E-002  0.4231872E+03  0.7818608E-02  0.1036034E+00
         21   -1    0    0  503  502  0.00000000000E+00  0.00000000000E+00  0.33581851655E+03  0.33581851655E+03  0.00000000000E+00 0.  1.
         21   -1    0    0  501  503 -0.00000000000E+00 -0.00000000000E+00 -0.56436230835E+03  0.56436230835E+03  0.00000000000E+00 0.  1.
    9000005    1    1    2  501    0 -0.10007438919E+03 -0.95249640903E+02 -0.86548199295E+01  0.42327565885E+03  0.40000000000E+03 0.  1.
   -9000005    1    1    2    0  502  0.10007438919E+03  0.95249640903E+02 -0.21988897186E+03  0.47690516606E+03  0.40000000000E+03 0.  1.
<mgrwt>
<rscale>  2 0.42318717E+03</rscale>
<asrwt>0</asrwt>
<pdfrwt beam="1">  1       21 0.51664388E-01 0.42318717E+03</pdfrwt>
<pdfrwt beam="2">  1       21 0.86824969E-01 0.42318717E+03</pdfrwt>
<totfact> 0.35808338E+03</totfact>
</mgrwt>
</event>
<event>
 4    1  0.4962426E-002  0.7290293E+03  0.7818608E-02  0.9668837E-01
         21   -1    0    0  503  502  0.00000000000E+00  0.00000000000E+00  0.55643048041E+03  0.55643048041E+03  0.00000000000E+00 0.  1.
         21   -1    0    0  501  503 -0.00000000000E+00 -0.00000000000E+00 -0.98861130083E+03  0.98861130083E+03  0.00000000000E+00 0.  1.
    9000005    1    1    2  501    0 -0.51402914029E+03  0.32750227385E+03 -0.35818005589E+03  0.81226636572E+03  0.40000000000E+03 0.  1.
   -9000005    1    1    2    0  502  0.51402914029E+03 -0.32750227385E+03 -0.74000764530E+02  0.73277541552E+03  0.40000000000E+03 0.  1.
<mgrwt>
<rscale>  2 0.72902928E+03</rscale>
<asrwt>0</asrwt>
<pdfrwt beam="1">  1       21 0.85604691E-01 0.72902928E+03</pdfrwt>
<pdfrwt beam="2">  1       21 0.15209404E+00 0.72902928E+03</pdfrwt>
<totfact> 0.25134469E+02</totfact>
</mgrwt>
</event>
<event>
 4    1  0.4962426E-002  0.5465511E+03  0.7818608E-02  0.1002295E+00
         21   -1    0    0  501  502  0.00000000000E+00  0.00000000000E+00  0.21797589883E+03  0.21797589883E+03  0.00000000000E+00 0. -1.
         21   -1    0    0  502  503 -0.00000000000E+00 -0.00000000000E+00 -0.22950467370E+04  0.22950467370E+04  0.00000000000E+00 0. -1.
    9000005    1    1    2  501    0 -0.35808546673E+03 -0.10243465291E+03 -0.24099193765E+03  0.59732334093E+03  0.40000000000E+03 0. -1.
   -9000005    1    1    2    0  503  0.35808546673E+03  0.10243465291E+03 -0.18360789006E+04  0.19156992950E+04  0.40000000000E+03 0. -1.
<mgrwt>
<rscale>  2 0.54655106E+03</rscale>
<asrwt>0</asrwt>
<pdfrwt beam="1">  1       21 0.33534755E-01 0.54655106E+03</pdfrwt>
<pdfrwt beam="2">  1       21 0.35308410E+00 0.54655106E+03</pdfrwt>
<totfact> 0.10322680E+02</totfact>
</mgrwt>
</event>
<event>
 4    1  0.4962426E-002  0.4043045E+03  0.7818608E-02  0.1042299E+00
         21   -1    0    0  501  502  0.00000000000E+00  0.00000000000E+00  0.24974838793E+03  0.24974838793E+03  0.00000000000E+00 0.  1.
         21   -1    0    0  502  503 -0.00000000000E+00 -0.00000000000E+00 -0.77420243015E+03  0.77420243015E+03  0.00000000000E+00 0.  1.
    9000005    1    1    2  501    0 -0.57784230668E+02 -0.11096838232E+02 -0.60919512060E+02  0.40886837012E+03  0.40000000000E+03 0.  1.
   -9000005    1    1    2    0  503  0.57784230668E+02  0.11096838232E+02 -0.46353453017E+03  0.61508244796E+03  0.40000000000E+03 0.  1.
<mgrwt>
<rscale>  2 0.40430454E+03</rscale>
<asrwt>0</asrwt>
<pdfrwt beam="1">  1       21 0.38422829E-01 0.40430454E+03</pdfrwt>
<pdfrwt beam="2">  1       21 0.11910807E+00 0.40430454E+03</pdfrwt>
<totfact> 0.31031174E+03</totfact>
</mgrwt>
</event>
<event>
 4    1  0.4962426E-002  0.4096762E+03  0.7818608E-02  0.1040480E+00
         21   -1    0    0  501  502  0.00000000000E+00  0.00000000000E+00  0.97831081724E+03  0.97831081724E+03  0.00000000000E+00 0. -1.
         21   -1    0    0  502  503 -0.00000000000E+00 -0.00000000000E+00 -0.20548144336E+03  0.20548144336E+03  0.00000000000E+00 0. -1.
    9000005    1    1    2  501    0 -0.83960344058E+02  0.28022338159E+02  0.62692030879E+03  0.74890831507E+03  0.40000000000E+03 0. -1.
   -9000005    1    1    2    0  503  0.83960344058E+02 -0.28022338159E+02  0.14590906509E+03  0.43488394554E+03  0.40000000000E+03 0. -1.
<mgrwt>
<rscale>  2 0.40967620E+03</rscale>
<asrwt>0</asrwt>
<pdfrwt beam="1">  1       21 0.15050935E+00 0.40967620E+03</pdfrwt>
<pdfrwt beam="2">  1       21 0.31612530E-01 0.40967620E+03</pdfrwt>
<totfact> 0.24892388E+03</totfact>
</mgrwt>
</event>
<event>
 4    1  0.4962426E-002  0.6329802E+03  0.7818608E-02  0.9839250E-01
         21   -1    0    0  503  502  0.00000000000E+00  0.00000000000E+00  0.38877577021E+03  0.38877577021E+03  0.00000000000E+00 0. -1.
         21   -1    0    0  501  503 -0.00000000000E+00 -0.00000000000E+00 -0.11159669352E+04  0.11159669352E+04  0.00000000000E+00 0.  1.
    9000005    1    1    2  501    0  0.35427927863E+03  0.33933771266E+03 -0.15547908671E+03  0.65179570181E+03  0.40000000000E+03 0.  1.
   -9000005    1    1    2    0  502 -0.35427927863E+03 -0.33933771266E+03 -0.57171207831E+03  0.85294700362E+03  0.40000000000E+03 0.  1.
<mgrwt>
<rscale>  2 0.63298017E+03</rscale>
<asrwt>0</asrwt>
<pdfrwt beam="1">  1       21 0.59811657E-01 0.63298017E+03</pdfrwt>
<pdfrwt beam="2">  1       21 0.17168722E+00 0.63298017E+03</pdfrwt>
<totfact> 0.41674754E+02</totfact>
</mgrwt>
</event>
<event>
 4    1  0.4962426E-002  0.4591615E+03  0.7818608E-02  0.1025025E+00
         21   -1    0    0  503  502  0.00000000000E+00  0.00000000000E+00  0.38614795003E+03  0.38614795003E+03  0.00000000000E+00 0. -1.
         21   -1    0    0  501  503 -0.00000000000E+00 -0.00000000000E+00 -0.62788252777E+03  0.62788252777E+03  0.00000000000E+00 0. -1.
    9000005    1    1    2  501    0  0.61092335724E+02 -0.21701848047E+03 -0.30398436366E+03  0.55066849166E+03  0.40000000000E+03 0. -1.
   -9000005    1    1    2    0  502 -0.61092335724E+02  0.21701848047E+03  0.62249785927E+02  0.46336198614E+03  0.40000000000E+03 0. -1.
<mgrwt>
<rscale>  2 0.45916151E+03</rscale>
<asrwt>0</asrwt>
<pdfrwt beam="1">  1       21 0.59407378E-01 0.45916151E+03</pdfrwt>
<pdfrwt beam="2">  1       21 0.96597311E-01 0.45916151E+03</pdfrwt>
<totfact> 0.20280860E+03</totfact>
</mgrwt>
</event>
<event>
 4    1  0.4962426E-002  0.4305924E+03  0.7818608E-02  0.1033673E+00
         21   -1    0    0  503  502  0.00000000000E+00  0.00000000000E+00  0.19028555759E+04  0.19028555759E+04  0.00000000000E+00 0. -1.
         21   -1    0    0  501  503 -0.00000000000E+00 -0.00000000000E+00 -0.10243010859E+03  0.10243010859E+03  0.00000000000E+00 0.  1.
    9000005    1    1    2  501    0 -0.12850354993E+03 -0.94322271282E+02  0.67885846411E+03  0.80390215045E+03  0.40000000000E+03 0. -1.
   -9000005    1    1    2    0  502  0.12850354993E+03  0.94322271282E+02  0.11215670032E+04  0.12013835341E+04  0.40000000000E+03 0.  1.
<mgrwt>
<rscale>  2 0.43059244E+03</rscale>
<asrwt>0</asrwt>
<pdfrwt beam="1">  1       21 0.29274698E+00 0.43059244E+03</pdfrwt>
<pdfrwt beam="2">  1       21 0.15758480E-01 0.43059244E+03</pdfrwt>
<totfact> 0.11039077E+03</totfact>
</mgrwt>
</event>
<event>
 4    1  0.4962426E-002  0.4947457E+03  0.7818608E-02  0.1015160E+00
         21   -1    0    0  503  502  0.00000000000E+00  0.00000000000E+00  0.69676842931E+03  0.69676842931E+03  0.00000000000E+00 0.  1.
         21   -1    0    0  501  503 -0.00000000000E+00 -0.00000000000E+00 -0.35155200124E+03  0.35155200124E+03  0.00000000000E+00 0. -1.
    9000005    1    1    2  501    0  0.68663479416E+02 -0.28294631580E+03  0.15851641322E+03  0.51951972464E+03  0.40000000000E+03 0. -1.
   -9000005    1    1    2    0  502 -0.68663479416E+02  0.28294631580E+03  0.18670001484E+03  0.52880070591E+03  0.40000000000E+03 0. -1.
<mgrwt>
<rscale>  2 0.49474568E+03</rscale>
<asrwt>0</asrwt>
<pdfrwt beam="1">  1       21 0.10719514E+00 0.49474568E+03</pdfrwt>
<pdfrwt beam="2">  1       21 0.54084923E-01 0.49474568E+03</pdfrwt>
<totfact> 0.19035678E+03</totfact>
</mgrwt>
</event>
<event>
 4    1  0.4962426E-002  0.4238033E+03  0.7818608E-02  0.1035836E+00
         21   -1    0    0  501  502  0.00000000000E+00  0.00000000000E+00  0.11696514083E+03  0.11696514083E+03  0.00000000000E+00 0. -1.
         21   -1    0    0  502  503 -0.00000000000E+00 -0.00000000000E+00 -0.15359998614E+04  0.15359998614E+04  0.00000000000E+00 0. -1.
    9000005    1    1    2  501    0 -0.98466837405E+02  0.99566723627E+02 -0.69584176083E+03  0.81474229462E+03  0.40000000000E+03 0. -1.
   -9000005    1    1    2    0  503  0.98466837405E+02 -0.99566723627E+02 -0.72319295972E+03  0.83822270759E+03  0.40000000000E+03 0. -1.
<mgrwt>
<rscale>  2 0.42380332E+03</rscale>
<asrwt>0</asrwt>
<pdfrwt beam="1">  1       21 0.17994636E-01 0.42380332E+03</pdfrwt>
<pdfrwt beam="2">  1       21 0.23630768E+00 0.42380332E+03</pdfrwt>
<totfact> 0.19031993E+03</totfact>
</mgrwt>
</event>
<event>
 4    1  0.4962426E-002  0.6985850E+03  0.7818608E-02  0.9719655E-01
         21   -1    0    0  501  502  0.00000000000E+00  0.00000000000E+00  0.18710804082E+04  0.18710804082E+04  0.00000000000E+00 0.  1.
         21   -1    0    0  502  503 -0.00000000000E+00 -0.00000000000E+00 -0.26607328032E+03  0.26607328032E+03  0.00000000000E+00 0. -1.
    9000005    1    1    2  501    0 -0.30094503925E+03  0.48729162593E+03  0.95260714956E+03  0.11813049677E+04  0.40000000000E+03 0. -1.
   -9000005    1    1    2    0  503  0.30094503925E+03 -0.48729162593E+03  0.65239997830E+03  0.95584872079E+03  0.40000000000E+03 0.  1.
<mgrwt>
<rscale>  2 0.69858503E+03</rscale>
<asrwt>0</asrwt>
<pdfrwt beam="1">  1       21 0.28785852E+00 0.69858503E+03</pdfrwt>
<pdfrwt beam="2">  1       21 0.40934352E-01 0.69858503E+03</pdfrwt>
<totfact> 0.16080075E+02</totfact>
</mgrwt>
</event>
<event>
 4    1  0.4962426E-002  0.5586290E+03  0.7818608E-02  0.9995162E-01
         21   -1    0    0  503  502  0.00000000000E+00  0.00000000000E+00  0.77227122831E+03  0.77227122831E+03  0.00000000000E+00 0. -1.
         21   -1    0    0  501  503 -0.00000000000E+00 -0.00000000000E+00 -0.40994287587E+03  0.40994287587E+03  0.00000000000E+00 0. -1.
    9000005    1    1    2  501    0  0.38953683403E+03  0.18093533994E+02  0.25180009770E+03  0.61275575089E+03  0.40000000000E+03 0. -1.
   -9000005    1    1    2    0  502 -0.38953683403E+03 -0.18093533994E+02  0.11052825473E+03  0.56945835329E+03  0.40000000000E+03 0. -1.
<mgrwt>
<rscale>  2 0.55862897E+03</rscale>
<asrwt>0</asrwt>
<pdfrwt beam="1">  1       21 0.11881096E+00 0.55862897E+03</pdfrwt>
<pdfrwt beam="2">  1       21 0.63068135E-01 0.55862897E+03</pdfrwt>
<totfact> 0.10287090E+03</totfact>
</mgrwt>
</event>
<event>
 4    1  0.4962426E-002  0.5390746E+03  0.7818608E-02  0.1004055E+00
         21   -1    0    0  503  502  0.00000000000E+00  0.00000000000E+00  0.21137152329E+03  0.21137152329E+03  0.00000000000E+00 0. -1.
         21   -1    0    0  501  503 -0.00000000000E+00 -0.00000000000E+00 -0.14213571394E+04  0.14213571394E+04  0.00000000000E+00 0.  1.
    9000005    1    1    2  501    0 -0.32694926318E+03  0.15396619651E+03 -0.75268328356E+03  0.92581506562E+03  0.40000000000E+03 0. -1.
   -9000005    1    1    2    0  502  0.32694926318E+03 -0.15396619651E+03 -0.45730233251E+03  0.70691359704E+03  0.40000000000E+03 0.  1.
<mgrwt>
<rscale>  2 0.53907459E+03</rscale>
<asrwt>0</asrwt>
<pdfrwt beam="1">  1       21 0.32518696E-01 0.53907459E+03</pdfrwt>
<pdfrwt beam="2">  1       21 0.21867033E+00 0.53907459E+03</pdfrwt>
<totfact> 0.74065478E+02</totfact>
</mgrwt>
</event>
<event>
 4    1  0.4962426E-002  0.4831274E+03  0.7818608E-02  0.1018279E+00
         21   -1    0    0  503  502  0.00000000000E+00  0.00000000000E+00  0.49639523802E+03  0.49639523802E+03  0.00000000000E+00 0.  1.
         21   -1    0    0  501  503 -0.00000000000E+00 -0.00000000000E+00 -0.47725908765E+03  0.47725908765E+03  0.00000000000E+00 0. -1.
    9000005    1    1    2  501    0  0.18375954996E+03 -0.19910934704E+03  0.68715226222E+02  0.48798963780E+03  0.40000000000E+03 0. -1.
   -9000005    1    1    2    0  502 -0.18375954996E+03  0.19910934704E+03 -0.49579075848E+02  0.48566468787E+03  0.40000000000E+03 0. -1.
<mgrwt>
<rscale>  2 0.48312742E+03</rscale>
<asrwt>0</asrwt>
<pdfrwt beam="1">  1       21 0.76368498E-01 0.48312742E+03</pdfrwt>
<pdfrwt beam="2">  1       21 0.73424475E-01 0.48312742E+03</pdfrwt>
<totfact> 0.21763461E+03</totfact>
</mgrwt>
</event>
<event>
 4    1  0.4962426E-002  0.4279747E+03  0.7818608E-02  0.1034502E+00
         21   -1    0    0  501  502  0.00000000000E+00  0.00000000000E+00  0.62140937397E+03  0.62140937397E+03  0.00000000000E+00 0. -1.
         21   -1    0    0  502  503 -0.00000000000E+00 -0.00000000000E+00 -0.29504219278E+03  0.29504219278E+03  0.00000000000E+00 0. -1.
    9000005    1    1    2  501    0  0.28011171076E+02 -0.14959170637E+03  0.17752851990E+03  0.46333430663E+03  0.40000000000E+03 0. -1.
   -9000005    1    1    2    0  503 -0.28011171076E+02  0.14959170637E+03  0.14883866128E+03  0.45311726011E+03  0.40000000000E+03 0. -1.
<mgrwt>
<rscale>  2 0.42797465E+03</rscale>
<asrwt>0</asrwt>
<pdfrwt beam="1">  1       21 0.95601442E-01 0.42797465E+03</pdfrwt>
<pdfrwt beam="2">  1       21 0.45391107E-01 0.42797465E+03</pdfrwt>
<totfact> 0.37405544E+03</totfact>
</mgrwt>
</event>
<event>
 4    1  0.4962426E-002  0.4262616E+03  0.7818608E-02  0.1035047E+00
         21   -1    0    0  503  502  0.00000000000E+00  0.00000000000E+00  0.25345752625E+04  0.25345752625E+04  0.00000000000E+00 0. -1.
         21   -1    0    0  501  503 -0.00000000000E+00 -0.00000000000E+00 -0.78269167235E+02  0.78269167235E+02  0.00000000000E+00 0. -1.
    9000005    1    1    2  501    0  0.14370445142E+03  0.32372697633E+02  0.84933088922E+03  0.95029570150E+03  0.40000000000E+03 0. -1.
   -9000005    1    1    2    0  502 -0.14370445142E+03 -0.32372697633E+02  0.16069752060E+04  0.16625487282E+04  0.40000000000E+03 0. -1.
<mgrwt>
<rscale>  2 0.42626161E+03</rscale>
<asrwt>0</asrwt>
<pdfrwt beam="1">  1       21 0.38993459E+00 0.42626161E+03</pdfrwt>
<pdfrwt beam="2">  1       21 0.12041412E-01 0.42626161E+03</pdfrwt>
<totfact> 0.46211761E+02</totfact>
</mgrwt>
</event>
<event>
 4    1  0.4962426E-002  0.5472726E+03  0.7818608E-02  0.1002127E+00
         21   -1    0    0  501  502  0.00000000000E+00  0.00000000000E+00  0.70497630406E+03  0.70497630406E+03  0.00000000000E+00 0. -1.
         21   -1    0    0  502  503 -0.00000000000E+00 -0.00000000000E+00 -0.56834434895E+03  0.56834434895E+03  0.00000000000E+00 0.  1.
    9000005    1    1    2  501    0 -0.23336693803E+03  0.29162854582E+03  0.38822270768E+03  0.67098748666E+03  0.40000000000E+03 0. -1.
   -9000005    1    1    2    0  503  0.23336693803E+03 -0.29162854582E+03 -0.25159075258E+03  0.60233316635E+03  0.40000000000E+03 0.  1.
<mgrwt>
<rscale>  2 0.54727263E+03</rscale>
<asrwt>0</asrwt>
<pdfrwt beam="1">  1       21 0.10845789E+00 0.54727263E+03</pdfrwt>
<pdfrwt beam="2">  1       21 0.87437591E-01 0.54727263E+03</pdfrwt>
<totfact> 0.61449642E+02</totfact>
</mgrwt>
</event>
<event>
 4    1  0.4962426E-002  0.4074611E+03  0.7818608E-02  0.1041226E+00
         21   -1    0    0  501  502  0.00000000000E+00  0.00000000000E+00  0.10775784838E+04  0.10775784838E+04  0.00000000000E+00 0.  1.
         21   -1    0    0  502  503 -0.00000000000E+00 -0.00000000000E+00 -0.21439968417E+03  0.21439968417E+03  0.00000000000E+00 0.  1.
    9000005    1    1    2  501    0  0.73731494595E+01  0.77267069577E+02  0.77425601845E+03  0.87492682293E+03  0.40000000000E+03 0.  1.
   -9000005    1    1    2    0  503 -0.73731494595E+01 -0.77267069577E+02  0.88922781160E+02  0.41705134502E+03  0.40000000000E+03 0.  1.
<mgrwt>
<rscale>  2 0.40746112E+03</rscale>
<asrwt>0</asrwt>
<pdfrwt beam="1">  1       21 0.16578130E+00 0.40746112E+03</pdfrwt>
<pdfrwt beam="2">  1       21 0.32984567E-01 0.40746112E+03</pdfrwt>
<totfact> 0.17526620E+03</totfact>
</mgrwt>
</event>
<event>
 4    1  0.4962426E-002  0.4234534E+03  0.7818608E-02  0.1035948E+00
         21   -1    0    0  501  502  0.00000000000E+00  0.00000000000E+00  0.15052791545E+04  0.15052791545E+04  0.00000000000E+00 0. -1.
         21   -1    0    0  502  503 -0.00000000000E+00 -0.00000000000E+00 -0.14763089991E+03  0.14763089991E+03  0.00000000000E+00 0. -1.
    9000005    1    1    2  501    0  0.83543938467E+02  0.11105496724E+03  0.10419992617E+04  0.11247556432E+04  0.40000000000E+03 0. -1.
   -9000005    1    1    2    0  503 -0.83543938467E+02 -0.11105496724E+03  0.31564899281E+03  0.52815441120E+03  0.40000000000E+03 0. -1.
<mgrwt>
<rscale>  2 0.42345342E+03</rscale>
<asrwt>0</asrwt>
<pdfrwt beam="1">  1       21 0.23158140E+00 0.42345342E+03</pdfrwt>
<pdfrwt beam="2">  1       21 0.22712447E-01 0.42345342E+03</pdfrwt>
<totfact> 0.13080480E+03</totfact>
</mgrwt>
</event>
<event>
 4    1  0.4962426E-002  0.4787506E+03  0.7818608E-02  0.1019479E+00
         21   -1    0    0  503  502  0.00000000000E+00  0.00000000000E+00  0.48335198940E+03  0.48335198940E+03  0.00000000000E+00 0. -1.
         21   -1    0    0  501  503 -0.00000000000E+00 -0.00000000000E+00 -0.65331262076E+03  0.65331262076E+03  0.00000000000E+00 0. -1.
    9000005    1    1    2  501    0 -0.15197507453E+02 -0.26262370885E+03 -0.38256685440E+03  0.61282915626E+03  0.40000000000E+03 0. -1.
   -9000005    1    1    2    0  502  0.15197507453E+02  0.26262370885E+03  0.21260622304E+03  0.52383545390E+03  0.40000000000E+03 0. -1.
<mgrwt>
<rscale>  2 0.47875064E+03</rscale>
<asrwt>0</asrwt>
<pdfrwt beam="1">  1       21 0.74361844E-01 0.47875064E+03</pdfrwt>
<pdfrwt beam="2">  1       21 0.10050963E+00 0.47875064E+03</pdfrwt>
<totfact> 0.11074410E+03</totfact>
</mgrwt>
</event>
<event>
 4    1  0.4962426E-002  0.4895640E+03  0.7818608E-02  0.1016539E+00
         21   -1    0    0  501  502  0.00000000000E+00  0.00000000000E+00  0.25180210200E+03  0.25180210200E+03  0.00000000000E+00 0. -1.
         21   -1    0    0  502  503 -0.00000000000E+00 -0.00000000000E+00 -0.14218496351E+04  0.14218496351E+04  0.00000000000E+00 0.  1.
    9000005    1    1    2  501    0  0.22450878826E+02  0.28136963867E+03 -0.10388977498E+03  0.50046578391E+03  0.40000000000E+03 0. -1.
   -9000005    1    1    2    0  503 -0.22450878826E+02 -0.28136963867E+03 -0.10661577581E+04  0.11731859531E+04  0.40000000000E+03 0.  1.
<mgrwt>
<rscale>  2 0.48956401E+03</rscale>
<asrwt>0</asrwt>
<pdfrwt beam="1">  1       21 0.38738784E-01 0.48956401E+03</pdfrwt>
<pdfrwt beam="2">  1       21 0.21874610E+00 0.48956401E+03</pdfrwt>
<totfact> 0.52931161E+02</totfact>
</mgrwt>
</event>
<event>
 4    1  0.4962426E-002  0.4578964E+03  0.7818608E-02  0.1025393E+00
         21   -1    0    0  503  502  0.00000000000E+00  0.00000000000E+00  0.20368084606E+03  0.20368084606E+03  0.00000000000E+00 0. -1.
         21   -1    0    0  501  503 -0.00000000000E+00 -0.00000000000E+00 -0.11295442545E+04  0.11295442545E+04  0.00000000000E+00 0.  1.
    9000005    1    1    2  501    0  0.21262888599E+03  0.66768733701E+02 -0.66141977506E+03  0.80445337081E+03  0.40000000000E+03 0.  1.
   -9000005    1    1    2    0  502 -0.21262888599E+03 -0.66768733701E+02 -0.26444363339E+03  0.52877172977E+03  0.40000000000E+03 0.  1.
<mgrwt>
<rscale>  2 0.45789639E+03</rscale>
<asrwt>0</asrwt>
<pdfrwt beam="1">  1       21 0.31335515E-01 0.45789639E+03</pdfrwt>
<pdfrwt beam="2">  1       21 0.17377604E+00 0.45789639E+03</pdfrwt>
<totfact> 0.16623200E+03</totfact>
</mgrwt>
</event>
<event>
 4    1  0.4962426E-002  0.6983466E+03  0.7818608E-02  0.9720064E-01
         21   -1    0    0  501  502  0.00000000000E+00  0.00000000000E+00  0.62880569666E+03  0.62880569666E+03  0.00000000000E+00 0.  1.
         21   -1    0    0  502  503 -0.00000000000E+00 -0.00000000000E+00 -0.19529611369E+04  0.19529611369E+04  0.00000000000E+00 0. -1.
    9000005    1    1    2  501    0 -0.57153156148E+03 -0.32243461155E+02  0.34022543376E+03  0.77681485074E+03  0.40000000000E+03 0.  1.
   -9000005    1    1    2    0  503  0.57153156148E+03  0.32243461155E+02 -0.16643808740E+04  0.18049519828E+04  0.40000000000E+03 0. -1.
<mgrwt>
<rscale>  2 0.69834659E+03</rscale>
<asrwt>0</asrwt>
<pdfrwt beam="1">  1       21 0.96739339E-01 0.69834659E+03</pdfrwt>
<pdfrwt beam="2">  1       21 0.30045556E+00 0.69834659E+03</pdfrwt>
<totfact> 0.19606161E+01</totfact>
</mgrwt>
</event>
<event>
 4    1  0.4962426E-002  0.4065084E+03  0.7818608E-02  0.1041549E+00
         21   -1    0    0  501  502  0.00000000000E+00  0.00000000000E+00  0.22801554183E+03  0.22801554183E+03  0.00000000000E+00 0.  1.
         21   -1    0    0  502  503 -0.00000000000E+00 -0.00000000000E+00 -0.80552784910E+03  0.80552784910E+03  0.00000000000E+00 0.  1.
    9000005    1    1    2  501    0 -0.14030632316E+02 -0.71079045169E+02 -0.12508747386E+03  0.42531866338E+03  0.40000000000E+03 0.  1.
   -9000005    1    1    2    0  503  0.14030632316E+02  0.71079045169E+02 -0.45242483341E+03  0.60822472754E+03  0.40000000000E+03 0.  1.
<mgrwt>
<rscale>  2 0.40650841E+03</rscale>
<asrwt>0</asrwt>
<pdfrwt beam="1">  1       21 0.35079314E-01 0.40650841E+03</pdfrwt>
<pdfrwt beam="2">  1       21 0.12392736E+00 0.40650841E+03</pdfrwt>
<totfact> 0.33717006E+03</totfact>
</mgrwt>
</event>
<event>
 4    1  0.4962426E-002  0.4717671E+03  0.7818608E-02  0.1021423E+00
         21   -1    0    0  501  502  0.00000000000E+00  0.00000000000E+00  0.46952066245E+03  0.46952066245E+03  0.00000000000E+00 0. -1.
         21   -1    0    0  502  503 -0.00000000000E+00 -0.00000000000E+00 -0.61471341780E+03  0.61471341780E+03  0.00000000000E+00 0. -1.
    9000005    1    1    2  501    0 -0.10468309666E+03 -0.22716876584E+03  0.18675405678E+03  0.50738671310E+03  0.40000000000E+03 0. -1.
   -9000005    1    1    2    0  503  0.10468309666E+03  0.22716876584E+03 -0.33194681213E+03  0.57684736715E+03  0.40000000000E+03 0. -1.
<mgrwt>
<rscale>  2 0.47176710E+03</rscale>
<asrwt>0</asrwt>
<pdfrwt beam="1">  1       21 0.72233948E-01 0.47176710E+03</pdfrwt>
<pdfrwt beam="2">  1       21 0.94571295E-01 0.47176710E+03</pdfrwt>
<totfact> 0.13741707E+03</totfact>
</mgrwt>
</event>
<event>
 4    1  0.4962426E-002  0.4144222E+03  0.7818608E-02  0.1038897E+00
         21   -1    0    0  503  502  0.00000000000E+00  0.00000000000E+00  0.38268971718E+03  0.38268971718E+03  0.00000000000E+00 0.  1.
         21   -1    0    0  501  503 -0.00000000000E+00 -0.00000000000E+00 -0.85763826634E+03  0.85763826634E+03  0.00000000000E+00 0.  1.
    9000005    1    1    2  501    0 -0.23123118108E+02  0.10588230988E+03 -0.66566547583E+03  0.78412771144E+03  0.40000000000E+03 0.  1.
   -9000005    1    1    2    0  502  0.23123118108E+02 -0.10588230988E+03  0.19071692667E+03  0.45620027209E+03  0.40000000000E+03 0.  1.
<mgrwt>
<rscale>  2 0.41442218E+03</rscale>
<asrwt>0</asrwt>
<pdfrwt beam="1">  1       21 0.58875342E-01 0.41442218E+03</pdfrwt>
<pdfrwt beam="2">  1       21 0.13194435E+00 0.41442218E+03</pdfrwt>
<totfact> 0.96600295E+02</totfact>
</mgrwt>
</event>
<event>
 4    1  0.4962426E-002  0.5743239E+03  0.7818608E-02  0.9960156E-01
         21   -1    0    0  503  502  0.00000000000E+00  0.00000000000E+00  0.19124043650E+03  0.19124043650E+03  0.00000000000E+00 0.  1.
         21   -1    0    0  501  503 -0.00000000000E+00 -0.00000000000E+00 -0.17587566870E+04  0.17587566870E+04  0.00000000000E+00 0. -1.
    9000005    1    1    2  501    0  0.16536932475E+03 -0.37749293724E+03 -0.64824442162E+03  0.86606510228E+03  0.40000000000E+03 0.  1.
   -9000005    1    1    2    0  502 -0.16536932475E+03  0.37749293724E+03 -0.91927182885E+03  0.10839320212E+04  0.40000000000E+03 0.  1.
<mgrwt>
<rscale>  2 0.57432389E+03</rscale>
<asrwt>0</asrwt>
<pdfrwt beam="1">  1       21 0.29421604E-01 0.57432389E+03</pdfrwt>
<pdfrwt beam="2">  1       21 0.27057797E+00 0.57432389E+03</pdfrwt>
<totfact> 0.42242125E+02</totfact>
</mgrwt>
</event>
<event>
 4    1  0.4962426E-002  0.8654009E+03  0.7818608E-02  0.9469896E-01
         21   -1    0    0  501  502  0.00000000000E+00  0.00000000000E+00  0.11206207464E+04  0.11206207464E+04  0.00000000000E+00 0.  1.
         21   -1    0    0  502  503 -0.00000000000E+00 -0.00000000000E+00 -0.69234952867E+03  0.69234952867E+03  0.00000000000E+00 0.  1.
    9000005    1    1    2  501    0  0.45363720935E+03  0.61897659184E+03  0.38305817010E+03  0.94638908523E+03  0.40000000000E+03 0.  1.
   -9000005    1    1    2    0  503 -0.45363720935E+03 -0.61897659184E+03  0.45213047655E+02  0.86658118987E+03  0.40000000000E+03 0.  1.
<mgrwt>
<rscale>  2 0.86540091E+03</rscale>
<asrwt>0</asrwt>
<pdfrwt beam="1">  1       21 0.17240319E+00 0.86540091E+03</pdfrwt>
<pdfrwt beam="2">  1       21 0.10651531E+00 0.86540091E+03</pdfrwt>
<totfact> 0.99279882E+01</totfact>
</mgrwt>
</event>
<event>
 4    1  0.4962426E-002  0.5293109E+03  0.7818608E-02  0.1006399E+00
         21   -1    0    0  501  502  0.00000000000E+00  0.00000000000E+00  0.31109152743E+03  0.31109152743E+03  0.00000000000E+00 0. -1.
         21   -1    0    0  502  503 -0.00000000000E+00 -0.00000000000E+00 -0.94198306361E+03  0.94198306361E+03  0.00000000000E+00 0.  1.
    9000005    1    1    2  501    0 -0.10565010480E+03 -0.33016379849E+03 -0.18412935606E+03  0.56042278526E+03  0.40000000000E+03 0. -1.
   -9000005    1    1    2    0  503  0.10565010480E+03  0.33016379849E+03 -0.44676218012E+03  0.69265180579E+03  0.40000000000E+03 0.  1.
<mgrwt>
<rscale>  2 0.52931095E+03</rscale>
<asrwt>0</asrwt>
<pdfrwt beam="1">  1       21 0.47860236E-01 0.52931095E+03</pdfrwt>
<pdfrwt beam="2">  1       21 0.14492047E+00 0.52931095E+03</pdfrwt>
<totfact> 0.11227349E+03</totfact>
</mgrwt>
</event>
<event>
 4    1  0.4962426E-002  0.4183013E+03  0.7818608E-02  0.1037621E+00
         21   -1    0    0  501  502  0.00000000000E+00  0.00000000000E+00  0.14786397173E+03  0.14786397173E+03  0.00000000000E+00 0. -1.
         21   -1    0    0  502  503 -0.00000000000E+00 -0.00000000000E+00 -0.11909019322E+04  0.11909019322E+04  0.00000000000E+00 0.  1.
    9000005    1    1    2  501    0 -0.12162605406E+03  0.13531276697E+02 -0.57479597238E+03  0.71089127322E+03  0.40000000000E+03 0.  1.
   -9000005    1    1    2    0  503  0.12162605406E+03 -0.13531276697E+02 -0.46824198808E+03  0.62787463070E+03  0.40000000000E+03 0. -1.
<mgrwt>
<rscale>  2 0.41830132E+03</rscale>
<asrwt>0</asrwt>
<pdfrwt beam="1">  1       21 0.22748303E-01 0.41830132E+03</pdfrwt>
<pdfrwt beam="2">  1       21 0.18321569E+00 0.41830132E+03</pdfrwt>
<totfact> 0.27144732E+03</totfact>
</mgrwt>
</event>
<event>
 4    1  0.4962426E-002  0.4190921E+03  0.7818608E-02  0.1037362E+00
         21   -1    0    0  501  502  0.00000000000E+00  0.00000000000E+00  0.16095931771E+04  0.16095931771E+04  0.00000000000E+00 0.  1.
         21   -1    0    0  502  503 -0.00000000000E+00 -0.00000000000E+00 -0.15506010567E+03  0.15506010567E+03  0.00000000000E+00 0.  1.
    9000005    1    1    2  501    0 -0.73404257991E+02 -0.10124242937E+03  0.12075272814E+04  0.12781863518E+04  0.40000000000E+03 0.  1.
   -9000005    1    1    2    0  503  0.73404257991E+02  0.10124242937E+03  0.24700578999E+03  0.48646693092E+03  0.40000000000E+03 0.  1.
<mgrwt>
<rscale>  2 0.41909213E+03</rscale>
<asrwt>0</asrwt>
<pdfrwt beam="1">  1       21 0.24762971E+00 0.41909213E+03</pdfrwt>
<pdfrwt beam="2">  1       21 0.23855402E-01 0.41909213E+03</pdfrwt>
<totfact> 0.94854445E+02</totfact>
</mgrwt>
</event>
<event>
 4    1  0.4962426E-002  0.4389762E+03  0.7818608E-02  0.1031061E+00
         21   -1    0    0  503  502  0.00000000000E+00  0.00000000000E+00  0.52124403710E+03  0.52124403710E+03  0.00000000000E+00 0. -1.
         21   -1    0    0  501  503 -0.00000000000E+00 -0.00000000000E+00 -0.13503254319E+04  0.13503254319E+04  0.00000000000E+00 0. -1.
    9000005    1    1    2  501    0 -0.18446673824E+01  0.18082234495E+03 -0.12120025585E+04  0.12890501639E+04  0.40000000000E+03 0. -1.
   -9000005    1    1    2    0  502  0.18446673824E+01 -0.18082234495E+03  0.38292116369E+03  0.58251930512E+03  0.40000000000E+03 0. -1.
<mgrwt>
<rscale>  2 0.43897622E+03</rscale>
<asrwt>0</asrwt>
<pdfrwt beam="1">  1       21 0.80191392E-01 0.43897622E+03</pdfrwt>
<pdfrwt beam="2">  1       21 0.20774237E+00 0.43897622E+03</pdfrwt>
<totfact> 0.13193708E+02</totfact>
</mgrwt>
</event>
<event>
 4    1  0.4962426E-002  0.4026438E+03  0.7818608E-02  0.1042868E+00
         21   -1    0    0  501  502  0.00000000000E+00  0.00000000000E+00  0.22484645559E+03  0.22484645559E+03  0.00000000000E+00 0. -1.
         21   -1    0    0  502  503 -0.00000000000E+00 -0.00000000000E+00 -0.78826714897E+03  0.78826714897E+03  0.00000000000E+00 0. -1.
    9000005    1    1    2  501    0 -0.28270533712E+02 -0.36370303520E+02 -0.42964910688E+03  0.58882966731E+03  0.40000000000E+03 0. -1.
   -9000005    1    1    2    0  503  0.28270533712E+02  0.36370303520E+02 -0.13377158649E+03  0.42428393725E+03  0.40000000000E+03 0. -1.
<mgrwt>
<rscale>  2 0.40264379E+03</rscale>
<asrwt>0</asrwt>
<pdfrwt beam="1">  1       21 0.34591763E-01 0.40264379E+03</pdfrwt>
<pdfrwt beam="2">  1       21 0.12127187E+00 0.40264379E+03</pdfrwt>
<totfact> 0.36711917E+03</totfact>
</mgrwt>
</event>
<event>
 4    1  0.4962426E-002  0.7045733E+03  0.7818608E-02  0.9709443E-01
         21   -1    0    0  501  502  0.00000000000E+00  0.00000000000E+00  0.76053011609E+03  0.76053011609E+03  0.00000000000E+00 0. -1.
         21   -1    0    0  502  503 -0.00000000000E+00 -0.00000000000E+00 -0.65343195270E+03  0.65343195270E+03  0.00000000000E+00 0. -1.
    9000005    1    1    2  501    0 -0.17422228410E+03 -0.55323607447E+03  0.30436636536E+02  0.70523042136E+03  0.40000000000E+03 0. -1.
   -9000005    1    1    2    0  503  0.17422228410E+03  0.55323607447E+03  0.76661526862E+02  0.70873164743E+03  0.40000000000E+03 0. -1.
<mgrwt>
<rscale>  2 0.70457332E+03</rscale>
<asrwt>0</asrwt>
<pdfrwt beam="1">  1       21 0.11700463E+00 0.70457332E+03</pdfrwt>
<pdfrwt beam="2">  1       21 0.10052799E+00 0.70457332E+03</pdfrwt>
<totfact> 0.34494471E+02</totfact>
</mgrwt>
</event>
<event>
 4    1  0.4962426E-002  0.4451671E+03  0.7818608E-02  0.1029173E+00
         21   -1    0    0  501  502  0.00000000000E+00  0.00000000000E+00  0.16843307227E+03  0.16843307227E+03  0.00000000000E+00 0.  1.
         21   -1    0    0  502  503 -0.00000000000E+00 -0.00000000000E+00 -0.12516496137E+04  0.12516496137E+04  0.00000000000E+00 0.  1.
    9000005    1    1    2  501    0 -0.45042531638E+02  0.19011811733E+03 -0.36770974059E+03  0.57739430333E+03  0.40000000000E+03 0.  1.
   -9000005    1    1    2    0  503  0.45042531638E+02 -0.19011811733E+03 -0.71550680084E+03  0.84268838264E+03  0.40000000000E+03 0.  1.
<mgrwt>
<rscale>  2 0.44516708E+03</rscale>
<asrwt>0</asrwt>
<pdfrwt beam="1">  1       21 0.25912779E-01 0.44516708E+03</pdfrwt>
<pdfrwt beam="2">  1       21 0.19256149E+00 0.44516708E+03</pdfrwt>
<totfact> 0.17981448E+03</totfact>
</mgrwt>
</event>
<event>
 4    1  0.4962426E-002  0.4122198E+03  0.7818608E-02  0.1039629E+00
         21   -1    0    0  501  502  0.00000000000E+00  0.00000000000E+00  0.17834110375E+04  0.17834110375E+04  0.00000000000E+00 0.  1.
         21   -1    0    0  502  503 -0.00000000000E+00 -0.00000000000E+00 -0.20984159632E+03  0.20984159632E+03  0.00000000000E+00 0.  1.
    9000005    1    1    2  501    0  0.96330101616E+02  0.25410841383E+02  0.15231684431E+04  0.15779630241E+04  0.40000000000E+03 0.  1.
   -9000005    1    1    2    0  503 -0.96330101616E+02 -0.25410841383E+02  0.50400998083E+02  0.41528960972E+03  0.40000000000E+03 0.  1.
<mgrwt>
<rscale>  2 0.41221984E+03</rscale>
<asrwt>0</asrwt>
<pdfrwt beam="1">  1       21 0.27437092E+00 0.41221984E+03</pdfrwt>
<pdfrwt beam="2">  1       21 0.32283324E-01 0.41221984E+03</pdfrwt>
<totfact> 0.36153506E+02</totfact>
</mgrwt>
</event>
<event>
 4    1  0.4962426E-002  0.5573032E+03  0.7818608E-02  0.9998175E-01
         21   -1    0    0  503  502  0.00000000000E+00  0.00000000000E+00  0.10498660236E+04  0.10498660236E+04  0.00000000000E+00 0.  1.
         21   -1    0    0  501  503 -0.00000000000E+00 -0.00000000000E+00 -0.49972693445E+03  0.49972693445E+03  0.00000000000E+00 0. -1.
    9000005    1    1    2  501    0  0.38105464117E+03 -0.73376991292E+02 -0.21983515699E+03  0.59909458240E+03  0.40000000000E+03 0. -1.
   -9000005    1    1    2    0  502 -0.38105464117E+03  0.73376991292E+02  0.76997424617E+03  0.95049837568E+03  0.40000000000E+03 0.  1.
<mgrwt>
<rscale>  2 0.55730317E+03</rscale>
<asrwt>0</asrwt>
<pdfrwt beam="1">  1       21 0.16151785E+00 0.55730317E+03</pdfrwt>
<pdfrwt beam="2">  1       21 0.76881068E-01 0.55730317E+03</pdfrwt>
<totfact> 0.28952643E+02</totfact>
</mgrwt>
</event>
<event>
 4    1  0.4962426E-002  0.4040229E+03  0.7818608E-02  0.1042396E+00
         21   -1    0    0  503  502  0.00000000000E+00  0.00000000000E+00  0.20096300853E+04  0.20096300853E+04  0.00000000000E+00 0. -1.
         21   -1    0    0  501  503 -0.00000000000E+00 -0.00000000000E+00 -0.90846050682E+02  0.90846050682E+02  0.00000000000E+00 0. -1.
    9000005    1    1    2  501    0  0.16173903451E+02  0.54524736956E+02  0.61763320864E+03  0.73804154525E+03  0.40000000000E+03 0.  1.
   -9000005    1    1    2    0  502 -0.16173903451E+02 -0.54524736956E+02  0.13011508260E+04  0.13624345907E+04  0.40000000000E+03 0.  1.
<mgrwt>
<rscale>  2 0.40402295E+03</rscale>
<asrwt>0</asrwt>
<pdfrwt beam="1">  1       21 0.30917383E+00 0.40402295E+03</pdfrwt>
<pdfrwt beam="2">  1       21 0.13976317E-01 0.40402295E+03</pdfrwt>
<totfact> 0.11158051E+03</totfact>
</mgrwt>
</event>
<event>
 4    1  0.4962426E-002  0.4312332E+03  0.7818608E-02  0.1033471E+00
         21   -1    0    0  501  502  0.00000000000E+00  0.00000000000E+00  0.72803804411E+03  0.72803804411E+03  0.00000000000E+00 0. -1.
         21   -1    0    0  502  503 -0.00000000000E+00 -0.00000000000E+00 -0.25558396623E+03  0.25558396623E+03  0.00000000000E+00 0.  1.
    9000005    1    1    2  501    0 -0.93458299705E+02  0.13125395778E+03  0.24833582490E+03  0.49762710652E+03  0.40000000000E+03 0. -1.
   -9000005    1    1    2    0  503  0.93458299705E+02 -0.13125395778E+03  0.22411825298E+03  0.48599490382E+03  0.40000000000E+03 0. -1.
<mgrwt>
<rscale>  2 0.43123318E+03</rscale>
<asrwt>0</asrwt>
<pdfrwt beam="1">  1       21 0.11200585E+00 0.43123318E+03</pdfrwt>
<pdfrwt beam="2">  1       21 0.39320610E-01 0.43123318E+03</pdfrwt>
<totfact> 0.34158392E+03</totfact>
</mgrwt>
</event>
<event>
 4    1  0.4962426E-002  0.5104134E+03  0.7818608E-02  0.1011096E+00
         21   -1    0    0  501  502  0.00000000000E+00  0.00000000000E+00  0.73315178578E+03  0.73315178578E+03  0.00000000000E+00 0.  1.
         21   -1    0    0  502  503 -0.00000000000E+00 -0.00000000000E+00 -0.38880120063E+03  0.38880120063E+03  0.00000000000E+00 0.  1.
    9000005    1    1    2  501    0  0.70882720773E+02  0.30902673780E+03  0.76174394822E+01  0.51047028333E+03  0.40000000000E+03 0.  1.
   -9000005    1    1    2    0  503 -0.70882720773E+02 -0.30902673780E+03  0.33673314567E+03  0.61148270308E+03  0.40000000000E+03 0.  1.
<mgrwt>
<rscale>  2 0.51041344E+03</rscale>
<asrwt>0</asrwt>
<pdfrwt beam="1">  1       21 0.11279258E+00 0.51041344E+03</pdfrwt>
<pdfrwt beam="2">  1       21 0.59815569E-01 0.51041344E+03</pdfrwt>
<totfact> 0.13397033E+03</totfact>
</mgrwt>
</event>
<event>
 4    1  0.4962426E-002  0.4651928E+03  0.7818608E-02  0.1023286E+00
         21   -1    0    0  501  502  0.00000000000E+00  0.00000000000E+00  0.83221411917E+02  0.83221411917E+02  0.00000000000E+00 0.  1.
         21   -1    0    0  502  503 -0.00000000000E+00 -0.00000000000E+00 -0.28046641935E+04  0.28046641935E+04  0.00000000000E+00 0. -1.
    9000005    1    1    2  501    0 -0.23597590598E+03  0.26827445238E+02 -0.97099063561E+03  0.10766741171E+04  0.40000000000E+03 0.  1.
   -9000005    1    1    2    0  503  0.23597590598E+03 -0.26827445238E+02 -0.17504521460E+04  0.18112114883E+04  0.40000000000E+03 0. -1.
<mgrwt>
<rscale>  2 0.46519280E+03</rscale>
<asrwt>0</asrwt>
<pdfrwt beam="1">  1       21 0.12803295E-01 0.46519280E+03</pdfrwt>
<pdfrwt beam="2">  1       21 0.43148675E+00 0.46519280E+03</pdfrwt>
<totfact> 0.21648235E+02</totfact>
</mgrwt>
</event>
<event>
 4    1  0.4962426E-002  0.4000939E+03  0.7818608E-02  0.1043747E+00
         21   -1    0    0  503  502  0.00000000000E+00  0.00000000000E+00  0.48714115612E+03  0.48714115612E+03  0.00000000000E+00 0. -1.
         21   -1    0    0  501  503 -0.00000000000E+00 -0.00000000000E+00 -0.61486406522E+03  0.61486406522E+03  0.00000000000E+00 0. -1.
    9000005    1    1    2  501    0  0.20731530290E+01 -0.84172472983E+01 -0.43982578154E+03  0.59457704809E+03  0.40000000000E+03 0.  1.
   -9000005    1    1    2    0  502 -0.20731530290E+01  0.84172472983E+01  0.31210287244E+03  0.50742817324E+03  0.40000000000E+03 0.  1.
<mgrwt>
<rscale>  2 0.40009392E+03</rscale>
<asrwt>0</asrwt>
<pdfrwt beam="1">  1       21 0.74944794E-01 0.40009392E+03</pdfrwt>
<pdfrwt beam="2">  1       21 0.94594471E-01 0.40009392E+03</pdfrwt>
<totfact> 0.13009760E+03</totfact>
</mgrwt>
</event>
<event>
 4    1  0.4962426E-002  0.5721539E+03  0.7818608E-02  0.9964924E-01
         21   -1    0    0  503  502  0.00000000000E+00  0.00000000000E+00  0.65384978111E+03  0.65384978111E+03  0.00000000000E+00 0. -1.
         21   -1    0    0  501  503 -0.00000000000E+00 -0.00000000000E+00 -0.68036295027E+03  0.68036295027E+03  0.00000000000E+00 0.  1.
    9000005    1    1    2  501    0  0.34419955678E+03 -0.22110349206E+03 -0.35609983253E+03  0.67391926802E+03  0.40000000000E+03 0.  1.
   -9000005    1    1    2    0  502 -0.34419955678E+03  0.22110349206E+03  0.32958666337E+03  0.66029346336E+03  0.40000000000E+03 0. -1.
<mgrwt>
<rscale>  2 0.57215390E+03</rscale>
<asrwt>0</asrwt>
<pdfrwt beam="1">  1       21 0.10059227E+00 0.57215390E+03</pdfrwt>
<pdfrwt beam="2">  1       21 0.10467122E+00 0.57215390E+03</pdfrwt>
<totfact> 0.47496597E+02</totfact>
</mgrwt>
</event>
<event>
 4    1  0.4962426E-002  0.4292321E+03  0.7818608E-02  0.1034103E+00
         21   -1    0    0  503  502  0.00000000000E+00  0.00000000000E+00  0.37494443481E+03  0.37494443481E+03  0.00000000000E+00 0.  1.
         21   -1    0    0  501  503 -0.00000000000E+00 -0.00000000000E+00 -0.71277524156E+03  0.71277524156E+03  0.00000000000E+00 0.  1.
    9000005    1    1    2  501    0 -0.31248248203E+02 -0.15252458526E+03 -0.47202159808E+03  0.63800046331E+03  0.40000000000E+03 0.  1.
   -9000005    1    1    2    0  502  0.31248248203E+02  0.15252458526E+03  0.13419079133E+03  0.44971921307E+03  0.40000000000E+03 0.  1.
<mgrwt>
<rscale>  2 0.42923211E+03</rscale>
<asrwt>0</asrwt>
<pdfrwt beam="1">  1       21 0.57683760E-01 0.42923211E+03</pdfrwt>
<pdfrwt beam="2">  1       21 0.10965773E+00 0.42923211E+03</pdfrwt>
<totfact> 0.16043574E+03</totfact>
</mgrwt>
</event>
<event>
 4    1  0.4962426E-002  0.4740230E+03  0.7818608E-02  0.1020791E+00
         21   -1    0    0  501  502  0.00000000000E+00  0.00000000000E+00  0.22466828051E+03  0.22466828051E+03  0.00000000000E+00 0.  1.
         21   -1    0    0  502  503 -0.00000000000E+00 -0.00000000000E+00 -0.10251017670E+04  0.10251017670E+04  0.00000000000E+00 0. -1.
    9000005    1    1    2  501    0  0.11459814625E+03 -0.22707946446E+03 -0.30268893730E+03  0.56242191553E+03  0.40000000000E+03 0.  1.
   -9000005    1    1    2    0  503 -0.11459814625E+03  0.22707946446E+03 -0.49774454923E+03  0.68734813202E+03  0.40000000000E+03 0.  1.
<mgrwt>
<rscale>  2 0.47402301E+03</rscale>
<asrwt>0</asrwt>
<pdfrwt beam="1">  1       21 0.34564350E-01 0.47402301E+03</pdfrwt>
<pdfrwt beam="2">  1       21 0.15770797E+00 0.47402301E+03</pdfrwt>
<totfact> 0.17835982E+03</totfact>
</mgrwt>
</event>
<event>
 4    1  0.4962426E-002  0.5092943E+03  0.7818608E-02  0.1011381E+00
         21   -1    0    0  503  502  0.00000000000E+00  0.00000000000E+00  0.72210376341E+03  0.72210376341E+03  0.00000000000E+00 0. -1.
         21   -1    0    0  501  503 -0.00000000000E+00 -0.00000000000E+00 -0.59284839759E+03  0.59284839759E+03  0.00000000000E+00 0. -1.
    9000005    1    1    2  501    0 -0.14460446990E+02  0.31491516786E+03 -0.34812343128E+03  0.61690403701E+03  0.40000000000E+03 0. -1.
   -9000005    1    1    2    0  502  0.14460446990E+02 -0.31491516786E+03  0.47737879710E+03  0.69804812398E+03  0.40000000000E+03 0. -1.
<mgrwt>
<rscale>  2 0.50929428E+03</rscale>
<asrwt>0</asrwt>
<pdfrwt beam="1">  1       21 0.11109289E+00 0.50929428E+03</pdfrwt>
<pdfrwt beam="2">  1       21 0.91207445E-01 0.50929428E+03</pdfrwt>
<totfact> 0.53107576E+02</totfact>
</mgrwt>
</event>
<event>
 4    1  0.4962426E-002  0.5770717E+03  0.7818608E-02  0.9954151E-01
         21   -1    0    0  501  502  0.00000000000E+00  0.00000000000E+00  0.91766959236E+03  0.91766959236E+03  0.00000000000E+00 0. -1.
         21   -1    0    0  502  503 -0.00000000000E+00 -0.00000000000E+00 -0.60253363649E+03  0.60253363649E+03  0.00000000000E+00 0.  1.
    9000005    1    1    2  501    0 -0.19964208917E+03 -0.36490384942E+03  0.63693182362E+03  0.85947305428E+03  0.40000000000E+03 0. -1.
   -9000005    1    1    2    0  503  0.19964208917E+03  0.36490384942E+03 -0.32179586775E+03  0.66073017457E+03  0.40000000000E+03 0.  1.
<mgrwt>
<rscale>  2 0.57707173E+03</rscale>
<asrwt>0</asrwt>
<pdfrwt beam="1">  1       21 0.14117994E+00 0.57707173E+03</pdfrwt>
<pdfrwt beam="2">  1       21 0.92697482E-01 0.57707173E+03</pdfrwt>
<totfact> 0.26792741E+02</totfact>
</mgrwt>
</event>
<event>
 4    1  0.4962426E-002  0.4943133E+03  0.7818608E-02  0.1015274E+00
         21   -1    0    0  501  502  0.00000000000E+00  0.00000000000E+00  0.15478748285E+04  0.15478748285E+04  0.00000000000E+00 0.  1.
         21   -1    0    0  502  503 -0.00000000000E+00 -0.00000000000E+00 -0.19157020814E+03  0.19157020814E+03  0.00000000000E+00 0. -1.
    9000005    1    1    2  501    0 -0.24968909260E+03  0.14832743038E+03  0.10429945797E+04  0.11542024791E+04  0.40000000000E+03 0.  1.
   -9000005    1    1    2    0  503  0.24968909260E+03 -0.14832743038E+03  0.31331004073E+03  0.58524255756E+03  0.40000000000E+03 0. -1.
<mgrwt>
<rscale>  2 0.49431333E+03</rscale>
<asrwt>0</asrwt>
<pdfrwt beam="1">  1       21 0.23813458E+00 0.49431333E+03</pdfrwt>
<pdfrwt beam="2">  1       21 0.29472341E-01 0.49431333E+03</pdfrwt>
<totfact> 0.69130454E+02</totfact>
</mgrwt>
</event>
<event>
 4    1  0.4962426E-002  0.4806949E+03  0.7818608E-02  0.1018944E+00
         21   -1    0    0  503  502  0.00000000000E+00  0.00000000000E+00  0.16919788513E+04  0.16919788513E+04  0.00000000000E+00 0.  1.
         21   -1    0    0  501  503 -0.00000000000E+00 -0.00000000000E+00 -0.13668951337E+03  0.13668951337E+03  0.00000000000E+00 0.  1.
    9000005    1    1    2  501    0 -0.20989932328E+02  0.26575737447E+03  0.80507853406E+03  0.93766678802E+03  0.40000000000E+03 0.  1.
   -9000005    1    1    2    0  502  0.20989932328E+02 -0.26575737447E+03  0.75021080385E+03  0.89100157663E+03  0.40000000000E+03 0.  1.
<mgrwt>
<rscale>  2 0.48069487E+03</rscale>
<asrwt>0</asrwt>
<pdfrwt beam="1">  1       21 0.26030442E+00 0.48069487E+03</pdfrwt>
<pdfrwt beam="2">  1       21 0.21029157E-01 0.48069487E+03</pdfrwt>
<totfact> 0.98033631E+02</totfact>
</mgrwt>
</event>
<event>
 4    1  0.4962426E-002  0.4238659E+03  0.7818608E-02  0.1035815E+00
         21   -1    0    0  501  502  0.00000000000E+00  0.00000000000E+00  0.51062882406E+03  0.51062882406E+03  0.00000000000E+00 0. -1.
         21   -1    0    0  502  503 -0.00000000000E+00 -0.00000000000E+00 -0.61562481544E+03  0.61562481544E+03  0.00000000000E+00 0. -1.
    9000005    1    1    2  501    0 -0.17570904015E+02 -0.13911709481E+03  0.31611340653E+03  0.52876269585E+03  0.40000000000E+03 0. -1.
   -9000005    1    1    2    0  503  0.17570904015E+02  0.13911709481E+03 -0.42110939791E+03  0.59749094365E+03  0.40000000000E+03 0. -1.
<mgrwt>
<rscale>  2 0.42386590E+03</rscale>
<asrwt>0</asrwt>
<pdfrwt beam="1">  1       21 0.78558281E-01 0.42386590E+03</pdfrwt>
<pdfrwt beam="2">  1       21 0.94711510E-01 0.42386590E+03</pdfrwt>
<totfact> 0.11525642E+03</totfact>
</mgrwt>
</event>
<event>
 4    1  0.4962426E-002  0.4368725E+03  0.7818608E-02  0.1031711E+00
         21   -1    0    0  501  502  0.00000000000E+00  0.00000000000E+00  0.29298378777E+03  0.29298378777E+03  0.00000000000E+00 0. -1.
         21   -1    0    0  502  503 -0.00000000000E+00 -0.00000000000E+00 -0.11710807359E+04  0.11710807359E+04  0.00000000000E+00 0. -1.
    9000005    1    1    2  501    0 -0.30348549927E+02  0.17302188021E+03  0.48585269652E+02  0.43956584711E+03  0.40000000000E+03 0. -1.
   -9000005    1    1    2    0  503  0.30348549927E+02 -0.17302188021E+03 -0.92668221774E+03  0.10244986765E+04  0.40000000000E+03 0. -1.
<mgrwt>
<rscale>  2 0.43687253E+03</rscale>
<asrwt>0</asrwt>
<pdfrwt beam="1">  1       21 0.45074430E-01 0.43687253E+03</pdfrwt>
<pdfrwt beam="2">  1       21 0.18016626E+00 0.43687253E+03</pdfrwt>
<totfact> 0.71876699E+02</totfact>
</mgrwt>
</event>
<event>
 4    1  0.4962426E-002  0.6393953E+03  0.7818608E-02  0.9826884E-01
         21   -1    0    0  503  502  0.00000000000E+00  0.00000000000E+00  0.48494501683E+03  0.48494501683E+03  0.00000000000E+00 0.  1.
         21   -1    0    0  501  503 -0.00000000000E+00 -0.00000000000E+00 -0.10111996594E+04  0.10111996594E+04  0.00000000000E+00 0. -1.
    9000005    1    1    2  501    0  0.11938072420E+03  0.48432906196E+03 -0.56819095576E+03  0.85537556651E+03  0.40000000000E+03 0. -1.
   -9000005    1    1    2    0  502 -0.11938072420E+03 -0.48432906196E+03  0.41936313209E+02  0.64076910970E+03  0.40000000000E+03 0.  1.
<mgrwt>
<rscale>  2 0.63939534E+03</rscale>
<asrwt>0</asrwt>
<pdfrwt beam="1">  1       21 0.74606927E-01 0.63939534E+03</pdfrwt>
<pdfrwt beam="2">  1       21 0.15556918E+00 0.63939534E+03</pdfrwt>
<totfact> 0.33461719E+02</totfact>
</mgrwt>
</event>
<event>
 4    1  0.4962426E-002  0.4274851E+03  0.7818608E-02  0.1034657E+00
         21   -1    0    0  503  502  0.00000000000E+00  0.00000000000E+00  0.74920894209E+02  0.74920894209E+02  0.00000000000E+00 0. -1.
         21   -1    0    0  501  503 -0.00000000000E+00 -0.00000000000E+00 -0.24894466805E+04  0.24894466805E+04  0.00000000000E+00 0. -1.
    9000005    1    1    2  501    0 -0.14353028679E+03  0.46287800950E+02 -0.10250174257E+04  0.11105873341E+04  0.40000000000E+03 0. -1.
   -9000005    1    1    2    0  502  0.14353028679E+03 -0.46287800950E+02 -0.13895083607E+04  0.14537802407E+04  0.40000000000E+03 0. -1.
<mgrwt>
<rscale>  2 0.42748509E+03</rscale>
<asrwt>0</asrwt>
<pdfrwt beam="1">  1       21 0.11526291E-01 0.42748509E+03</pdfrwt>
<pdfrwt beam="2">  1       21 0.38299182E+00 0.42748509E+03</pdfrwt>
<totfact> 0.55308419E+02</totfact>
</mgrwt>
</event>
<event>
 4    1  0.4962426E-002  0.4678130E+03  0.7818608E-02  0.1022539E+00
         21   -1    0    0  503  502  0.00000000000E+00  0.00000000000E+00  0.14724094683E+04  0.14724094683E+04  0.00000000000E+00 0.  1.
         21   -1    0    0  501  503 -0.00000000000E+00 -0.00000000000E+00 -0.24711460491E+03  0.24711460491E+03  0.00000000000E+00 0.  1.
    9000005    1    1    2  501    0 -0.34553771424E+02  0.24011472823E+03  0.69889719070E+02  0.47300488228E+03  0.40000000000E+03 0.  1.
   -9000005    1    1    2    0  502  0.34553771424E+02 -0.24011472823E+03  0.11554051444E+04  0.12465191910E+04  0.40000000000E+03 0.  1.
<mgrwt>
<rscale>  2 0.46781305E+03</rscale>
<asrwt>0</asrwt>
<pdfrwt beam="1">  1       21 0.22652453E+00 0.46781305E+03</pdfrwt>
<pdfrwt beam="2">  1       21 0.38017632E-01 0.46781305E+03</pdfrwt>
<totfact> 0.49584899E+02</totfact>
</mgrwt>
</event>
<event>
 4    1  0.4962426E-002  0.4442405E+03  0.7818608E-02  0.1029454E+00
         21   -1    0    0  501  502  0.00000000000E+00  0.00000000000E+00  0.90024729097E+03  0.90024729097E+03  0.00000000000E+00 0.  1.
         21   -1    0    0  502  503 -0.00000000000E+00 -0.00000000000E+00 -0.43528216406E+03  0.43528216406E+03  0.00000000000E+00 0.  1.
    9000005    1    1    2  501    0  0.15993941361E+03 -0.10848512828E+03  0.70295076072E+03  0.83155842313E+03  0.40000000000E+03 0.  1.
   -9000005    1    1    2    0  503 -0.15993941361E+03  0.10848512828E+03 -0.23798563382E+03  0.50397103189E+03  0.40000000000E+03 0.  1.
<mgrwt>
<rscale>  2 0.44424052E+03</rscale>
<asrwt>0</asrwt>
<pdfrwt beam="1">  1       21 0.13849958E+00 0.44424052E+03</pdfrwt>
<pdfrwt beam="2">  1       21 0.66966487E-01 0.44424052E+03</pdfrwt>
<totfact> 0.63170516E+02</totfact>
</mgrwt>
</event>
<event>
 4    1  0.4962426E-002  0.5504742E+03  0.7818608E-02  0.1001384E+00
         21   -1    0    0  503  502  0.00000000000E+00  0.00000000000E+00  0.24837807642E+04  0.24837807642E+04  0.00000000000E+00 0.  1.
         21   -1    0    0  501  503 -0.00000000000E+00 -0.00000000000E+00 -0.16960177805E+03  0.16960177805E+03  0.00000000000E+00 0.  1.
    9000005    1    1    2  501    0 -0.25300548884E+03 -0.28108734230E+03  0.45423548870E+03  0.71368883316E+03  0.40000000000E+03 0.  1.
   -9000005    1    1    2    0  502  0.25300548884E+03  0.28108734230E+03  0.18599434974E+04  0.19396937091E+04  0.40000000000E+03 0.  1.
<mgrwt>
<rscale>  2 0.55047422E+03</rscale>
<asrwt>0</asrwt>
<pdfrwt beam="1">  1       21 0.38212009E+00 0.55047422E+03</pdfrwt>
<pdfrwt beam="2">  1       21 0.26092583E-01 0.55047422E+03</pdfrwt>
<totfact> 0.11166208E+02</totfact>
</mgrwt>
</event>
<event>
 4    1  0.4962426E-002  0.4685836E+03  0.7818608E-02  0.1022321E+00
         21   -1    0    0  501  502  0.00000000000E+00  0.00000000000E+00  0.72095133729E+03  0.72095133729E+03  0.00000000000E+00 0.  1.
         21   -1    0    0  502  503 -0.00000000000E+00 -0.00000000000E+00 -0.41183333211E+03  0.41183333211E+03  0.00000000000E+00 0. -1.
    9000005    1    1    2  501    0 -0.35758687364E+02  0.24143724131E+03  0.44363298328E+03  0.64527579302E+03  0.40000000000E+03 0.  1.
   -9000005    1    1    2    0  503  0.35758687364E+02 -0.24143724131E+03 -0.13451497810E+03  0.48750887638E+03  0.40000000000E+03 0. -1.
<mgrwt>
<rscale>  2 0.46858364E+03</rscale>
<asrwt>0</asrwt>
<pdfrwt beam="1">  1       21 0.11091559E+00 0.46858364E+03</pdfrwt>
<pdfrwt beam="2">  1       21 0.63358974E-01 0.46858364E+03</pdfrwt>
<totfact> 0.12495426E+03</totfact>
</mgrwt>
</event>
<event>
 4    1  0.4962426E-002  0.5378898E+03  0.7818608E-02  0.1004336E+00
         21   -1    0    0  503  502  0.00000000000E+00  0.00000000000E+00  0.37325296056E+03  0.37325296056E+03  0.00000000000E+00 0. -1.
         21   -1    0    0  501  503 -0.00000000000E+00 -0.00000000000E+00 -0.11327250806E+04  0.11327250806E+04  0.00000000000E+00 0.  1.
    9000005    1    1    2  501    0  0.33053844364E+03 -0.14166778789E+03 -0.80280644285E+03  0.96634549180E+03  0.40000000000E+03 0.  1.
   -9000005    1    1    2    0  502 -0.33053844364E+03  0.14166778789E+03  0.43334322763E+02  0.53963254941E+03  0.40000000000E+03 0. -1.
<mgrwt>
<rscale>  2 0.53788979E+03</rscale>
<asrwt>0</asrwt>
<pdfrwt beam="1">  1       21 0.57423533E-01 0.53788979E+03</pdfrwt>
<pdfrwt beam="2">  1       21 0.17426540E+00 0.53788979E+03</pdfrwt>
<totfact> 0.45181272E+02</totfact>
</mgrwt>
</event>
<event>
 4    1  0.4962426E-002  0.4815559E+03  0.7818608E-02  0.1018708E+00
         21   -1    0    0  501  502  0.00000000000E+00  0.00000000000E+00  0.31419197896E+04  0.31419197896E+04  0.00000000000E+00 0. -1.
         21   -1    0    0  502  503 -0.00000000000E+00 -0.00000000000E+00 -0.93888247945E+02  0.93888247945E+02  0.00000000000E+00 0. -1.
    9000005    1    1    2  501    0 -0.98235758385E+02  0.24949115008E+03  0.22722559500E+04  0.23227232295E+04  0.40000000000E+03 0. -1.
   -9000005    1    1    2    0  503  0.98235758385E+02 -0.24949115008E+03  0.77577559157E+03  0.91308480804E+03  0.40000000000E+03 0. -1.
<mgrwt>
<rscale>  2 0.48155591E+03</rscale>
<asrwt>0</asrwt>
<pdfrwt beam="1">  1       21 0.48337220E+00 0.48155591E+03</pdfrwt>
<pdfrwt beam="2">  1       21 0.14444348E-01 0.48155591E+03</pdfrwt>
<totfact> 0.75802777E+01</totfact>
</mgrwt>
</event>
<event>
 4    1  0.4962426E-002  0.5079143E+03  0.7818608E-02  0.1011734E+00
         21   -1    0    0  501  502  0.00000000000E+00  0.00000000000E+00  0.29549326218E+03  0.29549326218E+03  0.00000000000E+00 0. -1.
         21   -1    0    0  502  503 -0.00000000000E+00 -0.00000000000E+00 -0.13326261746E+04  0.13326261746E+04  0.00000000000E+00 0. -1.
    9000005    1    1    2  501    0  0.40081431238E+02  0.31043580078E+03 -0.40502037645E+02  0.50952656711E+03  0.40000000000E+03 0. -1.
   -9000005    1    1    2    0  503 -0.40081431238E+02 -0.31043580078E+03 -0.99663087481E+03  0.11185928697E+04  0.40000000000E+03 0. -1.
<mgrwt>
<rscale>  2 0.50791427E+03</rscale>
<asrwt>0</asrwt>
<pdfrwt beam="1">  1       21 0.45460502E-01 0.50791427E+03</pdfrwt>
<pdfrwt beam="2">  1       21 0.20501941E+00 0.50791427E+03</pdfrwt>
<totfact> 0.46269150E+02</totfact>
</mgrwt>
</event>
<event>
 4    1  0.4962426E-002  0.4604095E+03  0.7818608E-02  0.1024663E+00
         21   -1    0    0  501  502  0.00000000000E+00  0.00000000000E+00  0.48722411724E+03  0.48722411724E+03  0.00000000000E+00 0. -1.
         21   -1    0    0  502  503 -0.00000000000E+00 -0.00000000000E+00 -0.78452994621E+03  0.78452994621E+03  0.00000000000E+00 0.  1.
    9000005    1    1    2  501    0  0.55260515324E+02  0.22118595681E+03 -0.57304436381E+03  0.73508965095E+03  0.40000000000E+03 0.  1.
   -9000005    1    1    2    0  503 -0.55260515324E+02 -0.22118595681E+03  0.27573853484E+03  0.53666441250E+03  0.40000000000E+03 0. -1.
<mgrwt>
<rscale>  2 0.46040955E+03</rscale>
<asrwt>0</asrwt>
<pdfrwt beam="1">  1       21 0.74957558E-01 0.46040955E+03</pdfrwt>
<pdfrwt beam="2">  1       21 0.12069691E+00 0.46040955E+03</pdfrwt>
<totfact> 0.69487292E+02</totfact>
</mgrwt>
</event>
<event>
 4    1  0.4962426E-002  0.4383875E+03  0.7818608E-02  0.1031243E+00
         21   -1    0    0  503  502  0.00000000000E+00  0.00000000000E+00  0.42075192344E+03  0.42075192344E+03  0.00000000000E+00 0.  1.
         21   -1    0    0  501  503 -0.00000000000E+00 -0.00000000000E+00 -0.63077464113E+03  0.63077464113E+03  0.00000000000E+00 0.  1.
    9000005    1    1    2  501    0  0.17257280108E+03  0.49012474522E+02  0.17113748577E+03  0.47060772770E+03  0.40000000000E+03 0.  1.
   -9000005    1    1    2    0  502 -0.17257280108E+03 -0.49012474522E+02 -0.38116020346E+03  0.58091883687E+03  0.40000000000E+03 0.  1.
<mgrwt>
<rscale>  2 0.43838749E+03</rscale>
<asrwt>0</asrwt>
<pdfrwt beam="1">  1       21 0.64731065E-01 0.43838749E+03</pdfrwt>
<pdfrwt beam="2">  1       21 0.97042252E-01 0.43838749E+03</pdfrwt>
<totfact> 0.16733223E+03</totfact>
</mgrwt>
</event>
<event>
 4    1  0.4962426E-002  0.4210837E+03  0.7818608E-02  0.1036714E+00
         21   -1    0    0  503  502  0.00000000000E+00  0.00000000000E+00  0.20043374670E+03  0.20043374670E+03  0.00000000000E+00 0. -1.
         21   -1    0    0  501  503 -0.00000000000E+00 -0.00000000000E+00 -0.13838776887E+04  0.13838776887E+04  0.00000000000E+00 0.  1.
    9000005    1    1    2  501    0  0.28264567807E+02  0.12850136811E+03 -0.10675125865E+04  0.11475602859E+04  0.40000000000E+03 0.  1.
   -9000005    1    1    2    0  502 -0.28264567807E+02 -0.12850136811E+03 -0.11593135549E+03  0.43675114950E+03  0.40000000000E+03 0. -1.
<mgrwt>
<rscale>  2 0.42108371E+03</rscale>
<asrwt>0</asrwt>
<pdfrwt beam="1">  1       21 0.30835962E-01 0.42108371E+03</pdfrwt>
<pdfrwt beam="2">  1       21 0.21290426E+00 0.42108371E+03</pdfrwt>
<totfact> 0.94637117E+02</totfact>
</mgrwt>
</event>
<event>
 4    1  0.4962426E-002  0.4013028E+03  0.7818608E-02  0.1043329E+00
         21   -1    0    0  501  502  0.00000000000E+00  0.00000000000E+00  0.14688734914E+03  0.14688734914E+03  0.00000000000E+00 0. -1.
         21   -1    0    0  502  503 -0.00000000000E+00 -0.00000000000E+00 -0.11300968214E+04  0.11300968214E+04  0.00000000000E+00 0. -1.
    9000005    1    1    2  501    0 -0.83584904709E+01  0.31210216506E+02 -0.38131401547E+03  0.55357413268E+03  0.40000000000E+03 0.  1.
   -9000005    1    1    2    0  503  0.83584904709E+01 -0.31210216506E+02 -0.60189545681E+03  0.72341003788E+03  0.40000000000E+03 0.  1.
<mgrwt>
<rscale>  2 0.40130281E+03</rscale>
<asrwt>0</asrwt>
<pdfrwt beam="1">  1       21 0.22598054E-01 0.40130281E+03</pdfrwt>
<pdfrwt beam="2">  1       21 0.17386105E+00 0.40130281E+03</pdfrwt>
<totfact> 0.32247829E+03</totfact>
</mgrwt>
</event>
<event>
 4    1  0.4962426E-002  0.4635813E+03  0.7818608E-02  0.1023748E+00
         21   -1    0    0  501  502  0.00000000000E+00  0.00000000000E+00  0.52713357743E+03  0.52713357743E+03  0.00000000000E+00 0.  1.
         21   -1    0    0  502  503 -0.00000000000E+00 -0.00000000000E+00 -0.41134333515E+03  0.41134333515E+03  0.00000000000E+00 0.  1.
    9000005    1    1    2  501    0 -0.23405787026E+03 -0.11158461419E+02  0.10211103866E+03  0.47469386146E+03  0.40000000000E+03 0.  1.
   -9000005    1    1    2    0  503  0.23405787026E+03  0.11158461419E+02  0.13679203627E+02  0.46378305112E+03  0.40000000000E+03 0.  1.
<mgrwt>
<rscale>  2 0.46358127E+03</rscale>
<asrwt>0</asrwt>
<pdfrwt beam="1">  1       21 0.81097474E-01 0.46358127E+03</pdfrwt>
<pdfrwt beam="2">  1       21 0.63283590E-01 0.46358127E+03</pdfrwt>
<totfact> 0.26630424E+03</totfact>
</mgrwt>
</event>
<event>
 4    1  0.4962426E-002  0.4176397E+03  0.7818608E-02  0.1037837E+00
         21   -1    0    0  501  502  0.00000000000E+00  0.00000000000E+00  0.35545819890E+03  0.35545819890E+03  0.00000000000E+00 0.  1.
         21   -1    0    0  502  503 -0.00000000000E+00 -0.00000000000E+00 -0.49395583009E+03  0.49395583009E+03  0.00000000000E+00 0. -1.
    9000005    1    1    2  501    0 -0.11328482671E+03 -0.39868134688E+02 -0.10373575644E+03  0.43033013756E+03  0.40000000000E+03 0. -1.
   -9000005    1    1    2    0  503  0.11328482671E+03  0.39868134688E+02 -0.34761874745E+02  0.41908389144E+03  0.40000000000E+03 0. -1.
<mgrwt>
<rscale>  2 0.41763970E+03</rscale>
<asrwt>0</asrwt>
<pdfrwt beam="1">  1       21 0.54685877E-01 0.41763970E+03</pdfrwt>
<pdfrwt beam="2">  1       21 0.75993204E-01 0.41763970E+03</pdfrwt>
<totfact> 0.43236918E+03</totfact>
</mgrwt>
</event>
<event>
 4    1  0.4962426E-002  0.4121769E+03  0.7818608E-02  0.1039643E+00
         21   -1    0    0  501  502  0.00000000000E+00  0.00000000000E+00  0.10918113158E+03  0.10918113158E+03  0.00000000000E+00 0.  1.
         21   -1    0    0  502  503 -0.00000000000E+00 -0.00000000000E+00 -0.16597655402E+04  0.16597655402E+04  0.00000000000E+00 0.  1.
    9000005    1    1    2  501    0 -0.43441788826E+02  0.89457140531E+02 -0.55418003652E+03  0.69065568982E+03  0.40000000000E+03 0.  1.
   -9000005    1    1    2    0  503  0.43441788826E+02 -0.89457140531E+02 -0.99640437210E+03  0.10782909820E+04  0.40000000000E+03 0.  1.
<mgrwt>
<rscale>  2 0.41217687E+03</rscale>
<asrwt>0</asrwt>
<pdfrwt beam="1">  1       21 0.16797099E-01 0.41217687E+03</pdfrwt>
<pdfrwt beam="2">  1       21 0.25534852E+00 0.41217687E+03</pdfrwt>
<totfact> 0.16634330E+03</totfact>
</mgrwt>
</event>
<event>
 4    1  0.4962426E-002  0.4090812E+03  0.7818608E-02  0.1040680E+00
         21   -1    0    0  503  502  0.00000000000E+00  0.00000000000E+00  0.35590111627E+03  0.35590111627E+03  0.00000000000E+00 0.  1.
         21   -1    0    0  501  503 -0.00000000000E+00 -0.00000000000E+00 -0.48416120961E+03  0.48416120961E+03  0.00000000000E+00 0.  1.
    9000005    1    1    2  501    0 -0.83104971199E+02  0.21000699828E+02 -0.13543625709E+03  0.43091814230E+03  0.40000000000E+03 0.  1.
   -9000005    1    1    2    0  502  0.83104971199E+02 -0.21000699828E+02  0.71761637552E+01  0.40914418358E+03  0.40000000000E+03 0.  1.
<mgrwt>
<rscale>  2 0.40908125E+03</rscale>
<asrwt>0</asrwt>
<pdfrwt beam="1">  1       21 0.54754018E-01 0.40908125E+03</pdfrwt>
<pdfrwt beam="2">  1       21 0.74486340E-01 0.40908125E+03</pdfrwt>
<totfact> 0.45274486E+03</totfact>
</mgrwt>
</event>
<event>
 4    1  0.4962426E-002  0.4206805E+03  0.7818608E-02  0.1036845E+00
         21   -1    0    0  503  502  0.00000000000E+00  0.00000000000E+00  0.43402638135E+03  0.43402638135E+03  0.00000000000E+00 0. -1.
         21   -1    0    0  501  503 -0.00000000000E+00 -0.00000000000E+00 -0.10491984000E+04  0.10491984000E+04  0.00000000000E+00 0. -1.
    9000005    1    1    2  501    0  0.12363398398E+03  0.41069975344E+02 -0.88745610060E+03  0.98211528619E+03  0.40000000000E+03 0. -1.
   -9000005    1    1    2    0  502 -0.12363398398E+03 -0.41069975344E+02  0.27228408195E+03  0.50110949517E+03  0.40000000000E+03 0. -1.
<mgrwt>
<rscale>  2 0.42068053E+03</rscale>
<asrwt>0</asrwt>
<pdfrwt beam="1">  1       21 0.66773290E-01 0.42068053E+03</pdfrwt>
<pdfrwt beam="2">  1       21 0.16141514E+00 0.42068053E+03</pdfrwt>
<totfact> 0.42436387E+02</totfact>
</mgrwt>
</event>
<event>
 4    1  0.4962426E-002  0.4054466E+03  0.7818608E-02  0.1041910E+00
         21   -1    0    0  503  502  0.00000000000E+00  0.00000000000E+00  0.81261588781E+03  0.81261588781E+03  0.00000000000E+00 0.  1.
         21   -1    0    0  501  503 -0.00000000000E+00 -0.00000000000E+00 -0.39516424483E+03  0.39516424483E+03  0.00000000000E+00 0.  1.
    9000005    1    1    2  501    0  0.24945571030E+02  0.61356657909E+02 -0.21316709265E+03  0.45806891444E+03  0.40000000000E+03 0.  1.
   -9000005    1    1    2    0  502 -0.24945571030E+02 -0.61356657909E+02  0.63061873563E+03  0.74971121821E+03  0.40000000000E+03 0.  1.
<mgrwt>
<rscale>  2 0.40544657E+03</rscale>
<asrwt>0</asrwt>
<pdfrwt beam="1">  1       21 0.12501783E+00 0.40544657E+03</pdfrwt>
<pdfrwt beam="2">  1       21 0.60794499E-01 0.40544657E+03</pdfrwt>
<totfact> 0.10393451E+03</totfact>
</mgrwt>
</event>
<event>
 4    1  0.4962426E-002  0.4054730E+03  0.7818608E-02  0.1041901E+00
         21   -1    0    0  501  502  0.00000000000E+00  0.00000000000E+00  0.11118067391E+04  0.11118067391E+04  0.00000000000E+00 0. -1.
         21   -1    0    0  502  503 -0.00000000000E+00 -0.00000000000E+00 -0.18096305215E+03  0.18096305215E+03  0.00000000000E+00 0. -1.
    9000005    1    1    2  501    0  0.63711030600E+02  0.18688417441E+02  0.74181816082E+03  0.84540081386E+03  0.40000000000E+03 0. -1.
   -9000005    1    1    2    0  503 -0.63711030600E+02 -0.18688417441E+02  0.18902552609E+03  0.44736897733E+03  0.40000000000E+03 0. -1.
<mgrwt>
<rscale>  2 0.40547300E+03</rscale>
<asrwt>0</asrwt>
<pdfrwt beam="1">  1       21 0.17104719E+00 0.40547300E+03</pdfrwt>
<pdfrwt beam="2">  1       21 0.27840470E-01 0.40547300E+03</pdfrwt>
<totfact> 0.22484838E+03</totfact>
</mgrwt>
</event>
<event>
 4    1  0.4962426E-002  0.4361336E+03  0.7818608E-02  0.1031940E+00
         21   -1    0    0  503  502  0.00000000000E+00  0.00000000000E+00  0.13460542049E+04  0.13460542049E+04  0.00000000000E+00 0.  1.
         21   -1    0    0  501  503 -0.00000000000E+00 -0.00000000000E+00 -0.17740279339E+03  0.17740279339E+03  0.00000000000E+00 0. -1.
    9000005    1    1    2  501    0 -0.17220775780E+03  0.23601381908E+02  0.24074956588E+03  0.49816953996E+03  0.40000000000E+03 0. -1.
   -9000005    1    1    2    0  502  0.17220775780E+03 -0.23601381908E+02  0.92790184564E+03  0.10252874583E+04  0.40000000000E+03 0.  1.
<mgrwt>
<rscale>  2 0.43613362E+03</rscale>
<asrwt>0</asrwt>
<pdfrwt beam="1">  1       21 0.20708526E+00 0.43613362E+03</pdfrwt>
<pdfrwt beam="2">  1       21 0.27292738E-01 0.43613362E+03</pdfrwt>
<totfact> 0.13049438E+03</totfact>
</mgrwt>
</event>
<event>
 4    1  0.4962426E-002  0.5615836E+03  0.7818608E-02  0.9988478E-01
         21   -1    0    0  503  502  0.00000000000E+00  0.00000000000E+00  0.14630216551E+04  0.14630216551E+04  0.00000000000E+00 0.  1.
         21   -1    0    0  501  503 -0.00000000000E+00 -0.00000000000E+00 -0.22833627074E+03  0.22833627074E+03  0.00000000000E+00 0.  1.
    9000005    1    1    2  501    0 -0.37219729479E+03 -0.12978965832E+03  0.81734549298E+03  0.99168030965E+03  0.40000000000E+03 0.  1.
   -9000005    1    1    2    0  502  0.37219729479E+03  0.12978965832E+03  0.41733989136E+03  0.69967761617E+03  0.40000000000E+03 0.  1.
<mgrwt>
<rscale>  2 0.56158364E+03</rscale>
<asrwt>0</asrwt>
<pdfrwt beam="1">  1       21 0.22508025E+00 0.56158364E+03</pdfrwt>
<pdfrwt beam="2">  1       21 0.35128658E-01 0.56158364E+03</pdfrwt>
<totfact> 0.57103671E+02</totfact>
</mgrwt>
</event>
<event>
 4    1  0.4962426E-002  0.4372028E+03  0.7818608E-02  0.1031609E+00
         21   -1    0    0  503  502  0.00000000000E+00  0.00000000000E+00  0.86345808124E+03  0.86345808124E+03  0.00000000000E+00 0.  1.
         21   -1    0    0  501  503 -0.00000000000E+00 -0.00000000000E+00 -0.23304401455E+03  0.23304401455E+03  0.00000000000E+00 0.  1.
    9000005    1    1    2  501    0  0.12278169207E+02 -0.17605539754E+03  0.19251514149E+03  0.47771156166E+03  0.40000000000E+03 0.  1.
   -9000005    1    1    2    0  502 -0.12278169207E+02  0.17605539754E+03  0.43789892520E+03  0.61879053414E+03  0.40000000000E+03 0.  1.
<mgrwt>
<rscale>  2 0.43720276E+03</rscale>
<asrwt>0</asrwt>
<pdfrwt beam="1">  1       21 0.13283970E+00 0.43720276E+03</pdfrwt>
<pdfrwt beam="2">  1       21 0.35852926E-01 0.43720276E+03</pdfrwt>
<totfact> 0.26643119E+03</totfact>
</mgrwt>
</event>
<event>
 4    1  0.4962426E-002  0.4685920E+03  0.7818608E-02  0.1022318E+00
         21   -1    0    0  501  502  0.00000000000E+00  0.00000000000E+00  0.16521058836E+03  0.16521058836E+03  0.00000000000E+00 0.  1.
         21   -1    0    0  502  503 -0.00000000000E+00 -0.00000000000E+00 -0.13738281113E+04  0.13738281113E+04  0.00000000000E+00 0. -1.
    9000005    1    1    2  501    0 -0.21854273415E+02 -0.24310671711E+03 -0.46543216751E+03  0.66045861924E+03  0.40000000000E+03 0.  1.
   -9000005    1    1    2    0  503  0.21854273415E+02  0.24310671711E+03 -0.74318535538E+03  0.87858008037E+03  0.40000000000E+03 0. -1.
<mgrwt>
<rscale>  2 0.46859202E+03</rscale>
<asrwt>0</asrwt>
<pdfrwt beam="1">  1       21 0.25417013E-01 0.46859202E+03</pdfrwt>
<pdfrwt beam="2">  1       21 0.21135817E+00 0.46859202E+03</pdfrwt>
<totfact> 0.13862814E+03</totfact>
</mgrwt>
</event>
<event>
 4    1  0.4962426E-002  0.4604880E+03  0.7818608E-02  0.1024640E+00
         21   -1    0    0  501  502  0.00000000000E+00  0.00000000000E+00  0.13870534241E+03  0.13870534241E+03  0.00000000000E+00 0. -1.
         21   -1    0    0  502  503 -0.00000000000E+00 -0.00000000000E+00 -0.15468926035E+04  0.15468926035E+04  0.00000000000E+00 0.  1.
    9000005    1    1    2  501    0  0.95729303252E+02 -0.20708721696E+03 -0.79530483128E+03  0.91899890620E+03  0.40000000000E+03 0. -1.
   -9000005    1    1    2    0  503 -0.95729303252E+02  0.20708721696E+03 -0.61288242985E+03  0.76659903975E+03  0.40000000000E+03 0.  1.
<mgrwt>
<rscale>  2 0.46048802E+03</rscale>
<asrwt>0</asrwt>
<pdfrwt beam="1">  1       21 0.21339282E-01 0.46048802E+03</pdfrwt>
<pdfrwt beam="2">  1       21 0.23798349E+00 0.46048802E+03</pdfrwt>
<totfact> 0.13210063E+03</totfact>
</mgrwt>
</event>
<event>
 4    1  0.4962426E-002  0.4773400E+03  0.7818608E-02  0.1019869E+00
         21   -1    0    0  503  502  0.00000000000E+00  0.00000000000E+00  0.19474466255E+03  0.19474466255E+03  0.00000000000E+00 0. -1.
         21   -1    0    0  501  503 -0.00000000000E+00 -0.00000000000E+00 -0.12802212138E+04  0.12802212138E+04  0.00000000000E+00 0.  1.
    9000005    1    1    2  501    0  0.25312308857E+02 -0.25925423408E+03 -0.75911953625E+03  0.89672512019E+03  0.40000000000E+03 0. -1.
   -9000005    1    1    2    0  502 -0.25312308857E+02  0.25925423408E+03 -0.32635701505E+03  0.57824075620E+03  0.40000000000E+03 0.  1.
<mgrwt>
<rscale>  2 0.47734000E+03</rscale>
<asrwt>0</asrwt>
<pdfrwt beam="1">  1       21 0.29960718E-01 0.47734000E+03</pdfrwt>
<pdfrwt beam="2">  1       21 0.19695711E+00 0.47734000E+03</pdfrwt>
<totfact> 0.12440529E+03</totfact>
</mgrwt>
</event>
<event>
 4    1  0.4962426E-002  0.6513978E+03  0.7818608E-02  0.9804160E-01
         21   -1    0    0  501  502  0.00000000000E+00  0.00000000000E+00  0.55402506068E+03  0.55402506068E+03  0.00000000000E+00 0. -1.
         21   -1    0    0  502  503 -0.00000000000E+00 -0.00000000000E+00 -0.81197204340E+03  0.81197204340E+03  0.00000000000E+00 0. -1.
    9000005    1    1    2  501    0 -0.29534303486E+03 -0.42082245382E+03  0.33747054015E+02  0.65227134656E+03  0.40000000000E+03 0. -1.
   -9000005    1    1    2    0  503  0.29534303486E+03  0.42082245382E+03 -0.29169403673E+03  0.71372575752E+03  0.40000000000E+03 0. -1.
<mgrwt>
<rscale>  2 0.65139776E+03</rscale>
<asrwt>0</asrwt>
<pdfrwt beam="1">  1       21 0.85234625E-01 0.65139776E+03</pdfrwt>
<pdfrwt beam="2">  1       21 0.12491878E+00 0.65139776E+03</pdfrwt>
<totfact> 0.44059288E+02</totfact>
</mgrwt>
</event>
<event>
 4    1  0.4962426E-002  0.4938538E+03  0.7818608E-02  0.1015396E+00
         21   -1    0    0  503  502  0.00000000000E+00  0.00000000000E+00  0.72044265314E+03  0.72044265314E+03  0.00000000000E+00 0.  1.
         21   -1    0    0  501  503 -0.00000000000E+00 -0.00000000000E+00 -0.37553506093E+03  0.37553506093E+03  0.00000000000E+00 0. -1.
    9000005    1    1    2  501    0  0.25096380762E+03  0.14459839238E+03  0.43479495294E+00  0.49385394284E+03  0.40000000000E+03 0. -1.
   -9000005    1    1    2    0  502 -0.25096380762E+03 -0.14459839238E+03  0.34447279726E+03  0.60212377122E+03  0.40000000000E+03 0.  1.
<mgrwt>
<rscale>  2 0.49385375E+03</rscale>
<asrwt>0</asrwt>
<pdfrwt beam="1">  1       21 0.11083733E+00 0.49385375E+03</pdfrwt>
<pdfrwt beam="2">  1       21 0.57774625E-01 0.49385375E+03</pdfrwt>
<totfact> 0.15187550E+03</totfact>
</mgrwt>
</event>
<event>
 4    1  0.4962426E-002  0.4438073E+03  0.7818608E-02  0.1029585E+00
         21   -1    0    0  503  502  0.00000000000E+00  0.00000000000E+00  0.76869489426E+03  0.76869489426E+03  0.00000000000E+00 0. -1.
         21   -1    0    0  501  503 -0.00000000000E+00 -0.00000000000E+00 -0.91376415818E+03  0.91376415818E+03  0.00000000000E+00 0.  1.
    9000005    1    1    2  501    0 -0.19225554375E+03  0.16558858978E+01 -0.78613595019E+03  0.90275947420E+03  0.40000000000E+03 0.  1.
   -9000005    1    1    2    0  502  0.19225554375E+03 -0.16558858978E+01  0.64106668628E+03  0.77969957825E+03  0.40000000000E+03 0. -1.
<mgrwt>
<rscale>  2 0.44380732E+03</rscale>
<asrwt>0</asrwt>
<pdfrwt beam="1">  1       21 0.11826075E+00 0.44380732E+03</pdfrwt>
<pdfrwt beam="2">  1       21 0.14057910E+00 0.44380732E+03</pdfrwt>
<totfact> 0.15795281E+02</totfact>
</mgrwt>
</event>
<event>
 4    1  0.4962426E-002  0.4037353E+03  0.7818608E-02  0.1042494E+00
         21   -1    0    0  501  502  0.00000000000E+00  0.00000000000E+00  0.17558269642E+04  0.17558269642E+04  0.00000000000E+00 0.  1.
         21   -1    0    0  502  503 -0.00000000000E+00 -0.00000000000E+00 -0.11304786279E+03  0.11304786279E+03  0.00000000000E+00 0.  1.
    9000005    1    1    2  501    0  0.17258204553E+02 -0.52003622474E+02  0.12165129909E+04  0.12817589787E+04  0.40000000000E+03 0.  1.
   -9000005    1    1    2    0  503 -0.17258204553E+02  0.52003622474E+02  0.42626611050E+03  0.58711584831E+03  0.40000000000E+03 0.  1.
<mgrwt>
<rscale>  2 0.40373534E+03</rscale>
<asrwt>0</asrwt>
<pdfrwt beam="1">  1       21 0.27012721E+00 0.40373534E+03</pdfrwt>
<pdfrwt beam="2">  1       21 0.17391980E-01 0.40373534E+03</pdfrwt>
<totfact> 0.12743838E+03</totfact>
</mgrwt>
</event>
<event>
 4    1  0.4962426E-002  0.5977945E+03  0.7818608E-02  0.9909992E-01
         21   -1    0    0  503  502  0.00000000000E+00  0.00000000000E+00  0.14740281105E+04  0.14740281105E+04  0.00000000000E+00 0. -1.
         21   -1    0    0  501  503 -0.00000000000E+00 -0.00000000000E+00 -0.41906270564E+03  0.41906270564E+03  0.00000000000E+00 0.  1.
    9000005    1    1    2  501    0  0.18366358083E+03  0.40450700098E+03 -0.87028082006E+02  0.60409611141E+03  0.40000000000E+03 0.  1.
   -9000005    1    1    2    0  502 -0.18366358083E+03 -0.40450700098E+03  0.11419934869E+04  0.12889947047E+04  0.40000000000E+03 0.  1.
<mgrwt>
<rscale>  2 0.59779447E+03</rscale>
<asrwt>0</asrwt>
<pdfrwt beam="1">  1       21 0.22677355E+00 0.59779447E+03</pdfrwt>
<pdfrwt beam="2">  1       21 0.64471186E-01 0.59779447E+03</pdfrwt>
<totfact> 0.15086516E+02</totfact>
</mgrwt>
</event>
<event>
 4    1  0.4962426E-002  0.4125922E+03  0.7818608E-02  0.1039505E+00
         21   -1    0    0  501  502  0.00000000000E+00  0.00000000000E+00  0.12805704278E+04  0.12805704278E+04  0.00000000000E+00 0. -1.
         21   -1    0    0  502  503 -0.00000000000E+00 -0.00000000000E+00 -0.24336130798E+03  0.24336130798E+03  0.00000000000E+00 0. -1.
    9000005    1    1    2  501    0  0.99112616118E+02  0.20224985701E+02  0.10318752223E+04  0.11113050144E+04  0.40000000000E+03 0. -1.
   -9000005    1    1    2    0  503 -0.99112616118E+02 -0.20224985701E+02  0.53338975430E+01  0.41262672136E+03  0.40000000000E+03 0. -1.
<mgrwt>
<rscale>  2 0.41259225E+03</rscale>
<asrwt>0</asrwt>
<pdfrwt beam="1">  1       21 0.19701083E+00 0.41259225E+03</pdfrwt>
<pdfrwt beam="2">  1       21 0.37440202E-01 0.41259225E+03</pdfrwt>
<totfact> 0.81788567E+02</totfact>
</mgrwt>
</event>
<event>
 4    1  0.4962426E-002  0.9550040E+03  0.7818608E-02  0.9359321E-01
         21   -1    0    0  503  502  0.00000000000E+00  0.00000000000E+00  0.10295454121E+04  0.10295454121E+04  0.00000000000E+00 0. -1.
         21   -1    0    0  501  503 -0.00000000000E+00 -0.00000000000E+00 -0.90760359629E+03  0.90760359629E+03  0.00000000000E+00 0. -1.
    9000005    1    1    2  501    0 -0.36025065713E+03 -0.78882954769E+03  0.21088951527E+03  0.97801174785E+03  0.40000000000E+03 0. -1.
   -9000005    1    1    2    0  502  0.36025065713E+03  0.78882954769E+03 -0.88947699482E+02  0.95913726052E+03  0.40000000000E+03 0. -1.
<mgrwt>
<rscale>  2 0.95500397E+03</rscale>
<asrwt>0</asrwt>
<pdfrwt beam="1">  1       21 0.15839160E+00 0.95500397E+03</pdfrwt>
<pdfrwt beam="2">  1       21 0.13963132E+00 0.95500397E+03</pdfrwt>
<totfact> 0.61230508E+01</totfact>
</mgrwt>
</event>
<event>
 4    1  0.4962426E-002  0.4144229E+03  0.7818608E-02  0.1038897E+00
         21   -1    0    0  501  502  0.00000000000E+00  0.00000000000E+00  0.21435024146E+03  0.21435024146E+03  0.00000000000E+00 0.  1.
         21   -1    0    0  502  503 -0.00000000000E+00 -0.00000000000E+00 -0.80297484157E+03  0.80297484157E+03  0.00000000000E+00 0.  1.
    9000005    1    1    2  501    0  0.22632025049E+01  0.10835687640E+03 -0.31794459022E+03  0.52233619174E+03  0.40000000000E+03 0. -1.
   -9000005    1    1    2    0  503 -0.22632025049E+01 -0.10835687640E+03 -0.27068000989E+03  0.49498889129E+03  0.40000000000E+03 0. -1.
<mgrwt>
<rscale>  2 0.41442289E+03</rscale>
<asrwt>0</asrwt>
<pdfrwt beam="1">  1       21 0.32976961E-01 0.41442289E+03</pdfrwt>
<pdfrwt beam="2">  1       21 0.12353459E+00 0.41442289E+03</pdfrwt>
<totfact> 0.38375053E+03</totfact>
</mgrwt>
</event>
<event>
 4    1  0.4962426E-002  0.4424025E+03  0.7818608E-02  0.1030012E+00
         21   -1    0    0  501  502  0.00000000000E+00  0.00000000000E+00  0.55259269017E+03  0.55259269017E+03  0.00000000000E+00 0. -1.
         21   -1    0    0  502  503 -0.00000000000E+00 -0.00000000000E+00 -0.36905773992E+03  0.36905773992E+03  0.00000000000E+00 0. -1.
    9000005    1    1    2  501    0 -0.18103047356E+03  0.54294908542E+02  0.18427700699E+03  0.47924731064E+03  0.40000000000E+03 0.  1.
   -9000005    1    1    2    0  503  0.18103047356E+03 -0.54294908542E+02 -0.74205674441E+00  0.44240311945E+03  0.40000000000E+03 0.  1.
<mgrwt>
<rscale>  2 0.44240250E+03</rscale>
<asrwt>0</asrwt>
<pdfrwt beam="1">  1       21 0.85014260E-01 0.44240250E+03</pdfrwt>
<pdfrwt beam="2">  1       21 0.56778114E-01 0.44240250E+03</pdfrwt>
<totfact> 0.30492901E+03</totfact>
</mgrwt>
</event>
<event>
 4    1  0.4962426E-002  0.5450663E+03  0.7818608E-02  0.1002642E+00
         21   -1    0    0  503  502  0.00000000000E+00  0.00000000000E+00  0.33146548448E+03  0.33146548448E+03  0.00000000000E+00 0.  1.
         21   -1    0    0  501  503 -0.00000000000E+00 -0.00000000000E+00 -0.92239500191E+03  0.92239500191E+03  0.00000000000E+00 0.  1.
    9000005    1    1    2  501    0  0.26380035591E+03  0.25982044093E+03 -0.40088390468E+03  0.67661303146E+03  0.40000000000E+03 0.  1.
   -9000005    1    1    2    0  502 -0.26380035591E+03 -0.25982044093E+03 -0.19004561274E+03  0.57724745493E+03  0.40000000000E+03 0.  1.
<mgrwt>
<rscale>  2 0.54506632E+03</rscale>
<asrwt>0</asrwt>
<pdfrwt beam="1">  1       21 0.50994691E-01 0.54506632E+03</pdfrwt>
<pdfrwt beam="2">  1       21 0.14190692E+00 0.54506632E+03</pdfrwt>
<totfact> 0.10322249E+03</totfact>
</mgrwt>
</event>
<event>
 4    1  0.4962426E-002  0.5410304E+03  0.7818608E-02  0.1003592E+00
         21   -1    0    0  501  502  0.00000000000E+00  0.00000000000E+00  0.51481566733E+03  0.51481566733E+03  0.00000000000E+00 0.  1.
         21   -1    0    0  502  503 -0.00000000000E+00 -0.00000000000E+00 -0.11066739109E+04  0.11066739109E+04  0.00000000000E+00 0.  1.
    9000005    1    1    2  501    0  0.30736025107E+03 -0.19555964285E+03  0.26940261197E+03  0.60439363431E+03  0.40000000000E+03 0.  1.
   -9000005    1    1    2    0  503 -0.30736025107E+03  0.19555964285E+03 -0.86126085553E+03  0.10170959439E+04  0.40000000000E+03 0.  1.
<mgrwt>
<rscale>  2 0.54103040E+03</rscale>
<asrwt>0</asrwt>
<pdfrwt beam="1">  1       21 0.79202410E-01 0.54103040E+03</pdfrwt>
<pdfrwt beam="2">  1       21 0.17025753E+00 0.54103040E+03</pdfrwt>
<totfact> 0.23425449E+02</totfact>
</mgrwt>
</event>
<event>
 4    1  0.4962426E-002  0.4623570E+03  0.7818608E-02  0.1024100E+00
         21   -1    0    0  503  502  0.00000000000E+00  0.00000000000E+00  0.34439356690E+03  0.34439356690E+03  0.00000000000E+00 0.  1.
         21   -1    0    0  501  503 -0.00000000000E+00 -0.00000000000E+00 -0.65461220630E+03  0.65461220630E+03  0.00000000000E+00 0.  1.
    9000005    1    1    2  501    0 -0.15242289108E+03 -0.17476060427E+03 -0.26875634517E+03  0.53479339899E+03  0.40000000000E+03 0.  1.
   -9000005    1    1    2    0  502  0.15242289108E+03  0.17476060427E+03 -0.41462294234E+02  0.46421237422E+03  0.40000000000E+03 0.  1.
<mgrwt>
<rscale>  2 0.46235701E+03</rscale>
<asrwt>0</asrwt>
<pdfrwt beam="1">  1       21 0.52983626E-01 0.46235701E+03</pdfrwt>
<pdfrwt beam="2">  1       21 0.10070957E+00 0.46235701E+03</pdfrwt>
<totfact> 0.23467732E+03</totfact>
</mgrwt>
</event>
<event>
 4    1  0.4962426E-002  0.5062126E+03  0.7818608E-02  0.1012170E+00
         21   -1    0    0  501  502  0.00000000000E+00  0.00000000000E+00  0.43101902937E+03  0.43101902937E+03  0.00000000000E+00 0. -1.
         21   -1    0    0  502  503 -0.00000000000E+00 -0.00000000000E+00 -0.61104579163E+03  0.61104579163E+03  0.00000000000E+00 0.  1.
    9000005    1    1    2  501    0 -0.21153155000E+03 -0.22694839275E+03 -0.17568876495E+03  0.53583366052E+03  0.40000000000E+03 0. -1.
   -9000005    1    1    2    0  503  0.21153155000E+03  0.22694839275E+03 -0.43379973136E+01  0.50623116048E+03  0.40000000000E+03 0. -1.
<mgrwt>
<rscale>  2 0.50621257E+03</rscale>
<asrwt>0</asrwt>
<pdfrwt beam="1">  1       21 0.66310620E-01 0.50621257E+03</pdfrwt>
<pdfrwt beam="2">  1       21 0.94007044E-01 0.50621257E+03</pdfrwt>
<totfact> 0.16694805E+03</totfact>
</mgrwt>
</event>
<event>
 4    1  0.4962426E-002  0.4079602E+03  0.7818608E-02  0.1041058E+00
         21   -1    0    0  503  502  0.00000000000E+00  0.00000000000E+00  0.19012222407E+03  0.19012222407E+03  0.00000000000E+00 0. -1.
         21   -1    0    0  501  503 -0.00000000000E+00 -0.00000000000E+00 -0.96837219387E+03  0.96837219387E+03  0.00000000000E+00 0. -1.
    9000005    1    1    2  501    0 -0.67050940241E+02 -0.43996468556E+02 -0.20963613302E+03  0.45867071642E+03  0.40000000000E+03 0. -1.
   -9000005    1    1    2    0  502  0.67050940241E+02  0.43996468556E+02 -0.56861383678E+03  0.69982370152E+03  0.40000000000E+03 0. -1.
<mgrwt>
<rscale>  2 0.40796019E+03</rscale>
<asrwt>0</asrwt>
<pdfrwt beam="1">  1       21 0.29249572E-01 0.40796019E+03</pdfrwt>
<pdfrwt beam="2">  1       21 0.14898034E+00 0.40796019E+03</pdfrwt>
<totfact> 0.29880697E+03</totfact>
</mgrwt>
</event>
<event>
 4    1  0.4962426E-002  0.4345763E+03  0.7818608E-02  0.1032424E+00
         21   -1    0    0  503  502  0.00000000000E+00  0.00000000000E+00  0.31315999464E+03  0.31315999464E+03  0.00000000000E+00 0. -1.
         21   -1    0    0  501  503 -0.00000000000E+00 -0.00000000000E+00 -0.60342748636E+03  0.60342748636E+03  0.00000000000E+00 0. -1.
    9000005    1    1    2  501    0  0.11573967499E+03 -0.12434177375E+03 -0.13393675036E+03  0.45474784459E+03  0.40000000000E+03 0. -1.
   -9000005    1    1    2    0  502 -0.11573967499E+03  0.12434177375E+03 -0.15633074135E+03  0.46183963641E+03  0.40000000000E+03 0. -1.
<mgrwt>
<rscale>  2 0.43457629E+03</rscale>
<asrwt>0</asrwt>
<pdfrwt beam="1">  1       21 0.48178462E-01 0.43457629E+03</pdfrwt>
<pdfrwt beam="2">  1       21 0.92834996E-01 0.43457629E+03</pdfrwt>
<totfact> 0.35310820E+03</totfact>
</mgrwt>
</event>
<event>
 4    1  0.4962426E-002  0.5310610E+03  0.7818608E-02  0.1005975E+00
         21   -1    0    0  501  502  0.00000000000E+00  0.00000000000E+00  0.87516539693E+03  0.87516539693E+03  0.00000000000E+00 0.  1.
         21   -1    0    0  502  503 -0.00000000000E+00 -0.00000000000E+00 -0.35789183384E+03  0.35789183384E+03  0.00000000000E+00 0. -1.
    9000005    1    1    2  501    0 -0.28799261265E+03  0.19770181598E+03  0.45318693554E+03  0.69814336030E+03  0.40000000000E+03 0.  1.
   -9000005    1    1    2    0  503  0.28799261265E+03 -0.19770181598E+03  0.64086627543E+02  0.53491387046E+03  0.40000000000E+03 0. -1.
<mgrwt>
<rscale>  2 0.53106097E+03</rscale>
<asrwt>0</asrwt>
<pdfrwt beam="1">  1       21 0.13464083E+00 0.53106097E+03</pdfrwt>
<pdfrwt beam="2">  1       21 0.55060282E-01 0.53106097E+03</pdfrwt>
<totfact> 0.10113235E+03</totfact>
</mgrwt>
</event>
<event>
 4    1  0.4962426E-002  0.5257200E+03  0.7818608E-02  0.1007275E+00
         21   -1    0    0  501  502  0.00000000000E+00  0.00000000000E+00  0.64897641910E+03  0.64897641910E+03  0.00000000000E+00 0.  1.
         21   -1    0    0  502  503 -0.00000000000E+00 -0.00000000000E+00 -0.42612625995E+03  0.42612625995E+03  0.00000000000E+00 0.  1.
    9000005    1    1    2  501    0 -0.59026163439E+02 -0.33600213831E+03  0.12453037296E+03  0.54026783979E+03  0.40000000000E+03 0.  1.
   -9000005    1    1    2    0  503  0.59026163439E+02  0.33600213831E+03  0.98319786188E+02  0.53483483925E+03  0.40000000000E+03 0.  1.
<mgrwt>
<rscale>  2 0.52572001E+03</rscale>
<asrwt>0</asrwt>
<pdfrwt beam="1">  1       21 0.99842526E-01 0.52572001E+03</pdfrwt>
<pdfrwt beam="2">  1       21 0.65557886E-01 0.52572001E+03</pdfrwt>
<totfact> 0.14711079E+03</totfact>
</mgrwt>
</event>
<event>
 4    1  0.4962426E-002  0.4337027E+03  0.7818608E-02  0.1032697E+00
         21   -1    0    0  501  502  0.00000000000E+00  0.00000000000E+00  0.36094976188E+03  0.36094976188E+03  0.00000000000E+00 0. -1.
         21   -1    0    0  502  503 -0.00000000000E+00 -0.00000000000E+00 -0.77233494223E+03  0.77233494223E+03  0.00000000000E+00 0. -1.
    9000005    1    1    2  501    0  0.16742985834E+03  0.80784533438E+01  0.11747605182E+03  0.44933132722E+03  0.40000000000E+03 0.  1.
   -9000005    1    1    2    0  503 -0.16742985834E+03 -0.80784533438E+01 -0.52886123217E+03  0.68395337689E+03  0.40000000000E+03 0.  1.
<mgrwt>
<rscale>  2 0.43370268E+03</rscale>
<asrwt>0</asrwt>
<pdfrwt beam="1">  1       21 0.55530733E-01 0.43370268E+03</pdfrwt>
<pdfrwt beam="2">  1       21 0.11882076E+00 0.43370268E+03</pdfrwt>
<totfact> 0.14233333E+03</totfact>
</mgrwt>
</event>
<event>
 4    1  0.4962426E-002  0.4155094E+03  0.7818608E-02  0.1038538E+00
         21   -1    0    0  503  502  0.00000000000E+00  0.00000000000E+00  0.37856701234E+03  0.37856701234E+03  0.00000000000E+00 0. -1.
         21   -1    0    0  501  503 -0.00000000000E+00 -0.00000000000E+00 -0.57347705494E+03  0.57347705494E+03  0.00000000000E+00 0. -1.
    9000005    1    1    2  501    0  0.82268242972E+02  0.76681236491E+02 -0.31285242565E+03  0.52011990547E+03  0.40000000000E+03 0. -1.
   -9000005    1    1    2    0  502 -0.82268242972E+02 -0.76681236491E+02  0.11794238305E+03  0.43192416181E+03  0.40000000000E+03 0. -1.
<mgrwt>
<rscale>  2 0.41550942E+03</rscale>
<asrwt>0</asrwt>
<pdfrwt beam="1">  1       21 0.58241079E-01 0.41550942E+03</pdfrwt>
<pdfrwt beam="2">  1       21 0.88227239E-01 0.41550942E+03</pdfrwt>
<totfact> 0.26714950E+03</totfact>
</mgrwt>
</event>
<event>
 4    1  0.4962426E-002  0.4036155E+03  0.7818608E-02  0.1042535E+00
         21   -1    0    0  503  502  0.00000000000E+00  0.00000000000E+00  0.47250497266E+03  0.47250497266E+03  0.00000000000E+00 0.  1.
         21   -1    0    0  501  503 -0.00000000000E+00 -0.00000000000E+00 -0.38481974348E+03  0.38481974348E+03  0.00000000000E+00 0.  1.
    9000005    1    1    2  501    0  0.50895837818E+02  0.17749665737E+02 -0.94446412486E+02  0.41451846976E+03  0.40000000000E+03 0. -1.
   -9000005    1    1    2    0  502 -0.50895837818E+02 -0.17749665737E+02  0.18213164167E+03  0.44280624638E+03  0.40000000000E+03 0. -1.
<mgrwt>
<rscale>  2 0.40361546E+03</rscale>
<asrwt>0</asrwt>
<pdfrwt beam="1">  1       21 0.72693073E-01 0.40361546E+03</pdfrwt>
<pdfrwt beam="2">  1       21 0.59203037E-01 0.40361546E+03</pdfrwt>
<totfact> 0.40479666E+03</totfact>
</mgrwt>
</event>
<event>
 4    1  0.4962426E-002  0.6152309E+03  0.7818608E-02  0.9874301E-01
         21   -1    0    0  503  502  0.00000000000E+00  0.00000000000E+00  0.81885684974E+03  0.81885684974E+03  0.00000000000E+00 0. -1.
         21   -1    0    0  501  503 -0.00000000000E+00 -0.00000000000E+00 -0.49711355226E+03  0.49711355226E+03  0.00000000000E+00 0.  1.
    9000005    1    1    2  501    0  0.46542249590E+03  0.43484637531E+02 -0.13401982070E+02  0.61537681668E+03  0.40000000000E+03 0. -1.
   -9000005    1    1    2    0  502 -0.46542249590E+03 -0.43484637531E+02  0.33514527954E+03  0.70059358532E+03  0.40000000000E+03 0.  1.
<mgrwt>
<rscale>  2 0.61523086E+03</rscale>
<asrwt>0</asrwt>
<pdfrwt beam="1">  1       21 0.12597798E+00 0.61523086E+03</pdfrwt>
<pdfrwt beam="2">  1       21 0.76479008E-01 0.61523086E+03</pdfrwt>
<totfact> 0.56136702E+02</totfact>
</mgrwt>
</event>
<event>
 4    1  0.4962426E-002  0.4312782E+03  0.7818608E-02  0.1033457E+00
         21   -1    0    0  503  502  0.00000000000E+00  0.00000000000E+00  0.25719139775E+03  0.25719139775E+03  0.00000000000E+00 0. -1.
         21   -1    0    0  501  503 -0.00000000000E+00 -0.00000000000E+00 -0.10180530107E+04  0.10180530107E+04  0.00000000000E+00 0. -1.
    9000005    1    1    2  501    0 -0.16045914428E+03 -0.15928796139E+02 -0.72357834768E+03  0.84235769644E+03  0.40000000000E+03 0. -1.
   -9000005    1    1    2    0  502  0.16045914428E+03  0.15928796139E+02 -0.37283265233E+02  0.43288671197E+03  0.40000000000E+03 0. -1.
<mgrwt>
<rscale>  2 0.43127817E+03</rscale>
<asrwt>0</asrwt>
<pdfrwt beam="1">  1       21 0.39567907E-01 0.43127817E+03</pdfrwt>
<pdfrwt beam="2">  1       21 0.15662354E+00 0.43127817E+03</pdfrwt>
<totfact> 0.14045274E+03</totfact>
</mgrwt>
</event>
<event>
 4    1  0.4962426E-002  0.5296595E+03  0.7818608E-02  0.1006315E+00
         21   -1    0    0  501  502  0.00000000000E+00  0.00000000000E+00  0.10350333142E+03  0.10350333142E+03  0.00000000000E+00 0.  1.
         21   -1    0    0  502  503 -0.00000000000E+00 -0.00000000000E+00 -0.27124310341E+04  0.27124310341E+04  0.00000000000E+00 0.  1.
    9000005    1    1    2  501    0 -0.34565116516E+03  0.32626101751E+02 -0.13426452350E+04  0.14433417536E+04  0.40000000000E+03 0.  1.
   -9000005    1    1    2    0  503  0.34565116516E+03 -0.32626101751E+02 -0.12662824676E+04  0.13725926119E+04  0.40000000000E+03 0.  1.
<mgrwt>
<rscale>  2 0.52965950E+03</rscale>
<asrwt>0</asrwt>
<pdfrwt beam="1">  1       21 0.15923588E-01 0.52965950E+03</pdfrwt>
<pdfrwt beam="2">  1       21 0.41729711E+00 0.52965950E+03</pdfrwt>
<totfact> 0.17244744E+02</totfact>
</mgrwt>
</event>
<event>
 4    1  0.4962426E-002  0.4424368E+03  0.7818608E-02  0.1030002E+00
         21   -1    0    0  501  502  0.00000000000E+00  0.00000000000E+00  0.62430048473E+03  0.62430048473E+03  0.00000000000E+00 0. -1.
         21   -1    0    0  502  503 -0.00000000000E+00 -0.00000000000E+00 -0.44772524344E+03  0.44772524344E+03  0.00000000000E+00 0. -1.
    9000005    1    1    2  501    0  0.17883889633E+03 -0.61375894928E+02  0.38171673035E+03  0.58434408832E+03  0.40000000000E+03 0. -1.
   -9000005    1    1    2    0  503 -0.17883889633E+03  0.61375894928E+02 -0.20514148906E+03  0.48768163986E+03  0.40000000000E+03 0. -1.
<mgrwt>
<rscale>  2 0.44243683E+03</rscale>
<asrwt>0</asrwt>
<pdfrwt beam="1">  1       21 0.96046229E-01 0.44243683E+03</pdfrwt>
<pdfrwt beam="2">  1       21 0.68880806E-01 0.44243683E+03</pdfrwt>
<totfact> 0.14908315E+03</totfact>
</mgrwt>
</event>
<event>
 4    1  0.4962426E-002  0.4060338E+03  0.7818608E-02  0.1041710E+00
         21   -1    0    0  503  502  0.00000000000E+00  0.00000000000E+00  0.91570685344E+03  0.91570685344E+03  0.00000000000E+00 0. -1.
         21   -1    0    0  501  503 -0.00000000000E+00 -0.00000000000E+00 -0.18315747454E+03  0.18315747454E+03  0.00000000000E+00 0. -1.
    9000005    1    1    2  501    0  0.36195265010E+02  0.59609647965E+02  0.29458812168E+03  0.50164286975E+03  0.40000000000E+03 0. -1.
   -9000005    1    1    2    0  502 -0.36195265010E+02 -0.59609647965E+02  0.43796125722E+03  0.59722145822E+03  0.40000000000E+03 0. -1.
<mgrwt>
<rscale>  2 0.40603375E+03</rscale>
<asrwt>0</asrwt>
<pdfrwt beam="1">  1       21 0.14087797E+00 0.40603375E+03</pdfrwt>
<pdfrwt beam="2">  1       21 0.28178074E-01 0.40603375E+03</pdfrwt>
<totfact> 0.37392588E+03</totfact>
</mgrwt>
</event>
<event>
 4    1  0.4962426E-002  0.4937383E+03  0.7818608E-02  0.1015426E+00
         21   -1    0    0  501  502  0.00000000000E+00  0.00000000000E+00  0.12083839221E+04  0.12083839221E+04  0.00000000000E+00 0.  1.
         21   -1    0    0  502  503 -0.00000000000E+00 -0.00000000000E+00 -0.32669372871E+03  0.32669372871E+03  0.00000000000E+00 0.  1.
    9000005    1    1    2  501    0 -0.27226137705E+03  0.98240748564E+02  0.91553200508E+03  0.10401809239E+04  0.40000000000E+03 0.  1.
   -9000005    1    1    2    0  503  0.27226137705E+03 -0.98240748564E+02 -0.33841811673E+02  0.49489672693E+03  0.40000000000E+03 0.  1.
<mgrwt>
<rscale>  2 0.49373829E+03</rscale>
<asrwt>0</asrwt>
<pdfrwt beam="1">  1       21 0.18590522E+00 0.49373829E+03</pdfrwt>
<pdfrwt beam="2">  1       21 0.50260574E-01 0.49373829E+03</pdfrwt>
<totfact> 0.50718802E+02</totfact>
</mgrwt>
</event>
<event>
 4    1  0.4962426E-002  0.4675266E+03  0.7818608E-02  0.1022621E+00
         21   -1    0    0  503  502  0.00000000000E+00  0.00000000000E+00  0.94181322783E+03  0.94181322783E+03  0.00000000000E+00 0.  1.
         21   -1    0    0  501  503 -0.00000000000E+00 -0.00000000000E+00 -0.25863584807E+03  0.25863584807E+03  0.00000000000E+00 0.  1.
    9000005    1    1    2  501    0 -0.21339931663E+03  0.11420080878E+03  0.14927713861E+03  0.49077974406E+03  0.40000000000E+03 0.  1.
   -9000005    1    1    2    0  502  0.21339931663E+03 -0.11420080878E+03  0.53390024115E+03  0.70966933185E+03  0.40000000000E+03 0.  1.
<mgrwt>
<rscale>  2 0.46752657E+03</rscale>
<asrwt>0</asrwt>
<pdfrwt beam="1">  1       21 0.14489434E+00 0.46752657E+03</pdfrwt>
<pdfrwt beam="2">  1       21 0.39790131E-01 0.46752657E+03</pdfrwt>
<totfact> 0.16905861E+03</totfact>
</mgrwt>
</event>
<event>
 4    1  0.4962426E-002  0.4513368E+03  0.7818608E-02  0.1027324E+00
         21   -1    0    0  501  502  0.00000000000E+00  0.00000000000E+00  0.38260754959E+03  0.38260754959E+03  0.00000000000E+00 0. -1.
         21   -1    0    0  502  503 -0.00000000000E+00 -0.00000000000E+00 -0.58389948817E+03  0.58389948817E+03  0.00000000000E+00 0. -1.
    9000005    1    1    2  501    0 -0.62722040668E+02  0.19942627649E+03  0.42855501236E+02  0.45336683616E+03  0.40000000000E+03 0.  1.
   -9000005    1    1    2    0  503  0.62722040668E+02 -0.19942627649E+03 -0.24414743981E+03  0.51314020161E+03  0.40000000000E+03 0.  1.
<mgrwt>
<rscale>  2 0.45133679E+03</rscale>
<asrwt>0</asrwt>
<pdfrwt beam="1">  1       21 0.58862700E-01 0.45133679E+03</pdfrwt>
<pdfrwt beam="2">  1       21 0.89830690E-01 0.45133679E+03</pdfrwt>
<totfact> 0.24681724E+03</totfact>
</mgrwt>
</event>
<event>
 4    1  0.4962426E-002  0.4116266E+03  0.7818608E-02  0.1039827E+00
         21   -1    0    0  503  502  0.00000000000E+00  0.00000000000E+00  0.27008748150E+04  0.27008748150E+04  0.00000000000E+00 0. -1.
         21   -1    0    0  501  503 -0.00000000000E+00 -0.00000000000E+00 -0.77596128939E+02  0.77596128939E+02  0.00000000000E+00 0. -1.
    9000005    1    1    2  501    0 -0.97037500531E+02 -0.44887237972E+01  0.70364753133E+03  0.81520320994E+03  0.40000000000E+03 0. -1.
   -9000005    1    1    2    0  502  0.97037500531E+02  0.44887237972E+01  0.19196311548E+04  0.19632677340E+04  0.40000000000E+03 0. -1.
<mgrwt>
<rscale>  2 0.41162656E+03</rscale>
<asrwt>0</asrwt>
<pdfrwt beam="1">  1       21 0.41551913E+00 0.41162656E+03</pdfrwt>
<pdfrwt beam="2">  1       21 0.11937868E-01 0.41162656E+03</pdfrwt>
<totfact> 0.32482063E+02</totfact>
</mgrwt>
</event>
<event>
 4    1  0.4962426E-002  0.4551713E+03  0.7818608E-02  0.1026191E+00
         21   -1    0    0  503  502  0.00000000000E+00  0.00000000000E+00  0.18674699496E+04  0.18674699496E+04  0.00000000000E+00 0.  1.
         21   -1    0    0  501  503 -0.00000000000E+00 -0.00000000000E+00 -0.61546926199E+03  0.61546926199E+03  0.00000000000E+00 0.  1.
    9000005    1    1    2  501    0  0.18074069797E+03 -0.12047275874E+03 -0.49802270953E+03  0.67469067335E+03  0.40000000000E+03 0.  1.
   -9000005    1    1    2    0  502 -0.18074069797E+03  0.12047275874E+03  0.17500233972E+04  0.18082485382E+04  0.40000000000E+03 0.  1.
<mgrwt>
<rscale>  2 0.45517127E+03</rscale>
<asrwt>0</asrwt>
<pdfrwt beam="1">  1       21 0.28730307E+00 0.45517127E+03</pdfrwt>
<pdfrwt beam="2">  1       21 0.94687580E-01 0.45517127E+03</pdfrwt>
<totfact> 0.28385932E+01</totfact>
</mgrwt>
</event>
<event>
 4    1  0.4962426E-002  0.5124790E+03  0.7818608E-02  0.1010572E+00
         21   -1    0    0  503  502  0.00000000000E+00  0.00000000000E+00  0.97550543856E+03  0.97550543856E+03  0.00000000000E+00 0. -1.
         21   -1    0    0  501  503 -0.00000000000E+00 -0.00000000000E+00 -0.38302863301E+03  0.38302863301E+03  0.00000000000E+00 0. -1.
    9000005    1    1    2  501    0 -0.23075927918E+03 -0.22222709637E+03 -0.74011215078E+02  0.51779570029E+03  0.40000000000E+03 0. -1.
   -9000005    1    1    2    0  502  0.23075927918E+03  0.22222709637E+03  0.66648802064E+03  0.84073837128E+03  0.40000000000E+03 0. -1.
<mgrwt>
<rscale>  2 0.51247900E+03</rscale>
<asrwt>0</asrwt>
<pdfrwt beam="1">  1       21 0.15007776E+00 0.51247900E+03</pdfrwt>
<pdfrwt beam="2">  1       21 0.58927482E-01 0.51247900E+03</pdfrwt>
<totfact> 0.65629785E+02</totfact>
</mgrwt>
</event>
<event>
 4    1  0.4962426E-002  0.4772709E+03  0.7818608E-02  0.1019888E+00
         21   -1    0    0  503  502  0.00000000000E+00  0.00000000000E+00  0.42276737140E+03  0.42276737140E+03  0.00000000000E+00 0. -1.
         21   -1    0    0  501  503 -0.00000000000E+00 -0.00000000000E+00 -0.53964992772E+03  0.53964992772E+03  0.00000000000E+00 0. -1.
    9000005    1    1    2  501    0 -0.96027456699E+02  0.24200460919E+03 -0.39355928709E+02  0.47889079385E+03  0.40000000000E+03 0. -1.
   -9000005    1    1    2    0  502  0.96027456699E+02 -0.24200460919E+03 -0.77526627615E+02  0.48352650527E+03  0.40000000000E+03 0. -1.
<mgrwt>
<rscale>  2 0.47727089E+03</rscale>
<asrwt>0</asrwt>
<pdfrwt beam="1">  1       21 0.65041134E-01 0.47727089E+03</pdfrwt>
<pdfrwt beam="2">  1       21 0.83023065E-01 0.47727089E+03</pdfrwt>
<totfact> 0.23616229E+03</totfact>
</mgrwt>
</event>
<event>
 4    1  0.4962426E-002  0.4750400E+03  0.7818608E-02  0.1020507E+00
         21   -1    0    0  501  502  0.00000000000E+00  0.00000000000E+00  0.47306026576E+03  0.47306026576E+03  0.00000000000E+00 0.  1.
         21   -1    0    0  502  503 -0.00000000000E+00 -0.00000000000E+00 -0.80188577652E+03  0.80188577652E+03  0.00000000000E+00 0.  1.
    9000005    1    1    2  501    0 -0.11336689735E+03 -0.22980624395E+03  0.24133135964E+03  0.53282622713E+03  0.40000000000E+03 0.  1.
   -9000005    1    1    2    0  503  0.11336689735E+03  0.22980624395E+03 -0.57015687040E+03  0.74211981515E+03  0.40000000000E+03 0.  1.
<mgrwt>
<rscale>  2 0.47503996E+03</rscale>
<asrwt>0</asrwt>
<pdfrwt beam="1">  1       21 0.72778503E-01 0.47503996E+03</pdfrwt>
<pdfrwt beam="2">  1       21 0.12336704E+00 0.47503996E+03</pdfrwt>
<totfact> 0.69833181E+02</totfact>
</mgrwt>
</event>
<event>
 4    1  0.4962426E-002  0.5754486E+03  0.7818608E-02  0.9957694E-01
         21   -1    0    0  503  502  0.00000000000E+00  0.00000000000E+00  0.86052575020E+03  0.86052575020E+03  0.00000000000E+00 0. -1.
         21   -1    0    0  501  503 -0.00000000000E+00 -0.00000000000E+00 -0.39942869321E+03  0.39942869321E+03  0.00000000000E+00 0.  1.
    9000005    1    1    2  501    0 -0.41257813162E+03  0.30338400560E+02  0.11003905726E+03  0.58587518070E+03  0.40000000000E+03 0. -1.
   -9000005    1    1    2    0  502  0.41257813162E+03 -0.30338400560E+02  0.35105799972E+03  0.67407926271E+03  0.40000000000E+03 0.  1.
<mgrwt>
<rscale>  2 0.57544864E+03</rscale>
<asrwt>0</asrwt>
<pdfrwt beam="1">  1       21 0.13238858E+00 0.57544864E+03</pdfrwt>
<pdfrwt beam="2">  1       21 0.61450568E-01 0.57544864E+03</pdfrwt>
<totfact> 0.81868359E+02</totfact>
</mgrwt>
</event>
<event>
 4    1  0.4962426E-002  0.4106712E+03  0.7818608E-02  0.1040146E+00
         21   -1    0    0  501  502  0.00000000000E+00  0.00000000000E+00  0.25595117957E+03  0.25595117957E+03  0.00000000000E+00 0. -1.
         21   -1    0    0  502  503 -0.00000000000E+00 -0.00000000000E+00 -0.97121480386E+03  0.97121480386E+03  0.00000000000E+00 0. -1.
    9000005    1    1    2  501    0  0.52999960181E+02  0.76431697643E+02 -0.96956714217E+01  0.41078559642E+03  0.40000000000E+03 0.  1.
   -9000005    1    1    2    0  503 -0.52999960181E+02 -0.76431697643E+02 -0.70556795287E+03  0.81638038701E+03  0.40000000000E+03 0.  1.
<mgrwt>
<rscale>  2 0.41067116E+03</rscale>
<asrwt>0</asrwt>
<pdfrwt beam="1">  1       21 0.39377105E-01 0.41067116E+03</pdfrwt>
<pdfrwt beam="2">  1       21 0.14941766E+00 0.41067116E+03</pdfrwt>
<totfact> 0.16276341E+03</totfact>
</mgrwt>
</event>
<event>
 4    1  0.4962426E-002  0.4101040E+03  0.7818608E-02  0.1040336E+00
         21   -1    0    0  503  502  0.00000000000E+00  0.00000000000E+00  0.10006719520E+04  0.10006719520E+04  0.00000000000E+00 0. -1.
         21   -1    0    0  501  503 -0.00000000000E+00 -0.00000000000E+00 -0.16876774324E+03  0.16876774324E+03  0.00000000000E+00 0. -1.
    9000005    1    1    2  501    0 -0.50499603041E+02 -0.75067112276E+02  0.37841852342E+03  0.55801958758E+03  0.40000000000E+03 0. -1.
   -9000005    1    1    2    0  502  0.50499603041E+02  0.75067112276E+02  0.45348568536E+03  0.61142010769E+03  0.40000000000E+03 0. -1.
<mgrwt>
<rscale>  2 0.41010399E+03</rscale>
<asrwt>0</asrwt>
<pdfrwt beam="1">  1       21 0.15394953E+00 0.41010399E+03</pdfrwt>
<pdfrwt beam="2">  1       21 0.25964269E-01 0.41010399E+03</pdfrwt>
<totfact> 0.34508352E+03</totfact>
</mgrwt>
</event>
<event>
 4    1  0.4962426E-002  0.4332503E+03  0.7818608E-02  0.1032838E+00
         21   -1    0    0  503  502  0.00000000000E+00  0.00000000000E+00  0.49492409705E+03  0.49492409705E+03  0.00000000000E+00 0. -1.
         21   -1    0    0  501  503 -0.00000000000E+00 -0.00000000000E+00 -0.48193191825E+03  0.48193191825E+03  0.00000000000E+00 0. -1.
    9000005    1    1    2  501    0 -0.15329185356E+03 -0.64864845389E+02 -0.21894319066E+03  0.48542966666E+03  0.40000000000E+03 0. -1.
   -9000005    1    1    2    0  502  0.15329185356E+03  0.64864845389E+02  0.23193536946E+03  0.49142634864E+03  0.40000000000E+03 0. -1.
<mgrwt>
<rscale>  2 0.43325032E+03</rscale>
<asrwt>0</asrwt>
<pdfrwt beam="1">  1       21 0.76142169E-01 0.43325032E+03</pdfrwt>
<pdfrwt beam="2">  1       21 0.74143372E-01 0.43325032E+03</pdfrwt>
<totfact> 0.21824623E+03</totfact>
</mgrwt>
</event>
<event>
 4    1  0.4962426E-002  0.5730230E+03  0.7818608E-02  0.9963011E-01
         21   -1    0    0  503  502  0.00000000000E+00  0.00000000000E+00  0.48293733961E+03  0.48293733961E+03  0.00000000000E+00 0. -1.
         21   -1    0    0  501  503 -0.00000000000E+00 -0.00000000000E+00 -0.88753430375E+03  0.88753430375E+03  0.00000000000E+00 0. -1.
    9000005    1    1    2  501    0  0.36332339898E+03 -0.19066052269E+03 -0.53372217007E+03  0.78308025258E+03  0.40000000000E+03 0. -1.
   -9000005    1    1    2    0  502 -0.36332339898E+03  0.19066052269E+03  0.12912520592E+03  0.58739139078E+03  0.40000000000E+03 0. -1.
<mgrwt>
<rscale>  2 0.57302297E+03</rscale>
<asrwt>0</asrwt>
<pdfrwt beam="1">  1       21 0.74298052E-01 0.57302297E+03</pdfrwt>
<pdfrwt beam="2">  1       21 0.13654374E+00 0.57302297E+03</pdfrwt>
<totfact> 0.49268372E+02</totfact>
</mgrwt>
</event>
<event>
 4    1  0.4962426E-002  0.4548413E+03  0.7818608E-02  0.1026288E+00
         21   -1    0    0  503  502  0.00000000000E+00  0.00000000000E+00  0.44907994786E+03  0.44907994786E+03  0.00000000000E+00 0.  1.
         21   -1    0    0  501  503 -0.00000000000E+00 -0.00000000000E+00 -0.66534180791E+03  0.66534180791E+03  0.00000000000E+00 0.  1.
    9000005    1    1    2  501    0 -0.13228046707E+03 -0.17141324979E+03 -0.41717412719E+03  0.61718301707E+03  0.40000000000E+03 0.  1.
   -9000005    1    1    2    0  502  0.13228046707E+03  0.17141324979E+03  0.20091226714E+03  0.49723873869E+03  0.40000000000E+03 0.  1.
<mgrwt>
<rscale>  2 0.45484132E+03</rscale>
<asrwt>0</asrwt>
<pdfrwt beam="1">  1       21 0.69089223E-01 0.45484132E+03</pdfrwt>
<pdfrwt beam="2">  1       21 0.10236028E+00 0.45484132E+03</pdfrwt>
<totfact> 0.12627061E+03</totfact>
</mgrwt>
</event>
<event>
 4    1  0.4962426E-002  0.4259885E+03  0.7818608E-02  0.1035135E+00
         21   -1    0    0  503  502  0.00000000000E+00  0.00000000000E+00  0.23971114441E+04  0.23971114441E+04  0.00000000000E+00 0.  1.
         21   -1    0    0  501  503 -0.00000000000E+00 -0.00000000000E+00 -0.10178581430E+03  0.10178581430E+03  0.00000000000E+00 0.  1.
    9000005    1    1    2  501    0 -0.14132340647E+03  0.38651435755E+02  0.51516365734E+03  0.66847575315E+03  0.40000000000E+03 0.  1.
   -9000005    1    1    2    0  502  0.14132340647E+03 -0.38651435755E+02  0.17801619724E+04  0.18304215052E+04  0.40000000000E+03 0.  1.
<mgrwt>
<rscale>  2 0.42598854E+03</rscale>
<asrwt>0</asrwt>
<pdfrwt beam="1">  1       21 0.36878633E+00 0.42598854E+03</pdfrwt>
<pdfrwt beam="2">  1       21 0.15659358E-01 0.42598854E+03</pdfrwt>
<totfact> 0.38692517E+02</totfact>
</mgrwt>
</event>
<event>
 4    1  0.4962426E-002  0.5168847E+03  0.7818608E-02  0.1009463E+00
         21   -1    0    0  501  502  0.00000000000E+00  0.00000000000E+00  0.24883439938E+04  0.24883439938E+04  0.00000000000E+00 0. -1.
         21   -1    0    0  502  503 -0.00000000000E+00 -0.00000000000E+00 -0.11326523368E+03  0.11326523368E+03  0.00000000000E+00 0. -1.
    9000005    1    1    2  501    0 -0.31652175605E+03 -0.83568849819E+02  0.14843430908E+04  0.15717646726E+04  0.40000000000E+03 0. -1.
   -9000005    1    1    2    0  503  0.31652175605E+03  0.83568849819E+02  0.89073566935E+03  0.10298445550E+04  0.40000000000E+03 0. -1.
<mgrwt>
<rscale>  2 0.51688468E+03</rscale>
<asrwt>0</asrwt>
<pdfrwt beam="1">  1       21 0.38282211E+00 0.51688468E+03</pdfrwt>
<pdfrwt beam="2">  1       21 0.17425423E-01 0.51688468E+03</pdfrwt>
<totfact> 0.24464106E+02</totfact>
</mgrwt>
</event>
<event>
 4    1  0.4962426E-002  0.4441710E+03  0.7818608E-02  0.1029475E+00
         21   -1    0    0  501  502  0.00000000000E+00  0.00000000000E+00  0.61502773786E+03  0.61502773786E+03  0.00000000000E+00 0.  1.
         21   -1    0    0  502  503 -0.00000000000E+00 -0.00000000000E+00 -0.47643397973E+03  0.47643397973E+03  0.00000000000E+00 0.  1.
    9000005    1    1    2  501    0  0.74965429711E+02 -0.17795514129E+03  0.38122818482E+03  0.58533988149E+03  0.40000000000E+03 0.  1.
   -9000005    1    1    2    0  503 -0.74965429711E+02  0.17795514129E+03 -0.24263442668E+03  0.50612183610E+03  0.40000000000E+03 0.  1.
<mgrwt>
<rscale>  2 0.44417097E+03</rscale>
<asrwt>0</asrwt>
<pdfrwt beam="1">  1       21 0.94619652E-01 0.44417097E+03</pdfrwt>
<pdfrwt beam="2">  1       21 0.73297535E-01 0.44417097E+03</pdfrwt>
<totfact> 0.13420878E+03</totfact>
</mgrwt>
</event>
<event>
 4    1  0.4962426E-002  0.4069203E+03  0.7818608E-02  0.1041409E+00
         21   -1    0    0  503  502  0.00000000000E+00  0.00000000000E+00  0.86751383836E+02  0.86751383836E+02  0.00000000000E+00 0. -1.
         21   -1    0    0  501  503 -0.00000000000E+00 -0.00000000000E+00 -0.19431073376E+04  0.19431073376E+04  0.00000000000E+00 0. -1.
    9000005    1    1    2  501    0  0.65422372861E+02 -0.36111268469E+02 -0.79316173203E+03  0.89145366887E+03  0.40000000000E+03 0. -1.
   -9000005    1    1    2    0  502 -0.65422372861E+02  0.36111268469E+02 -0.10631942217E+04  0.11384050525E+04  0.40000000000E+03 0. -1.
<mgrwt>
<rscale>  2 0.40692028E+03</rscale>
<asrwt>0</asrwt>
<pdfrwt beam="1">  1       21 0.13346367E-01 0.40692028E+03</pdfrwt>
<pdfrwt beam="2">  1       21 0.29893958E+00 0.40692028E+03</pdfrwt>
<totfact> 0.13960190E+03</totfact>
</mgrwt>
</event>
<event>
 4    1  0.4962426E-002  0.4804886E+03  0.7818608E-02  0.1019001E+00
         21   -1    0    0  503  502  0.00000000000E+00  0.00000000000E+00  0.13339051213E+04  0.13339051213E+04  0.00000000000E+00 0.  1.
         21   -1    0    0  501  503 -0.00000000000E+00 -0.00000000000E+00 -0.53923416661E+03  0.53923416661E+03  0.00000000000E+00 0.  1.
    9000005    1    1    2  501    0 -0.22592253735E+03 -0.14081303261E+03 -0.37442884596E+03  0.60915208587E+03  0.40000000000E+03 0.  1.
   -9000005    1    1    2    0  502  0.22592253735E+03  0.14081303261E+03  0.11690998007E+04  0.12639872021E+04  0.40000000000E+03 0.  1.
<mgrwt>
<rscale>  2 0.48048861E+03</rscale>
<asrwt>0</asrwt>
<pdfrwt beam="1">  1       21 0.20521617E+00 0.48048861E+03</pdfrwt>
<pdfrwt beam="2">  1       21 0.82959103E-01 0.48048861E+03</pdfrwt>
<totfact> 0.12381008E+02</totfact>
</mgrwt>
</event>
<event>
 4    1  0.4962426E-002  0.4161414E+03  0.7818608E-02  0.1038330E+00
         21   -1    0    0  503  502  0.00000000000E+00  0.00000000000E+00  0.53992374298E+03  0.53992374298E+03  0.00000000000E+00 0.  1.
         21   -1    0    0  501  503 -0.00000000000E+00 -0.00000000000E+00 -0.42372631432E+03  0.42372631432E+03  0.00000000000E+00 0.  1.
    9000005    1    1    2  501    0 -0.82962969324E+02  0.79314529200E+02 -0.17944427885E+03  0.45318197011E+03  0.40000000000E+03 0.  1.
   -9000005    1    1    2    0  502  0.82962969324E+02 -0.79314529200E+02  0.29564170751E+03  0.51046808719E+03  0.40000000000E+03 0.  1.
<mgrwt>
<rscale>  2 0.41614138E+03</rscale>
<asrwt>0</asrwt>
<pdfrwt beam="1">  1       21 0.83065192E-01 0.41614138E+03</pdfrwt>
<pdfrwt beam="2">  1       21 0.65188663E-01 0.41614138E+03</pdfrwt>
<totfact> 0.24005635E+03</totfact>
</mgrwt>
</event>
<event>
 4    1  0.4962426E-002  0.4926211E+03  0.7818608E-02  0.1015723E+00
         21   -1    0    0  501  502  0.00000000000E+00  0.00000000000E+00  0.23358177785E+03  0.23358177785E+03  0.00000000000E+00 0.  1.
         21   -1    0    0  502  503 -0.00000000000E+00 -0.00000000000E+00 -0.10427118938E+04  0.10427118938E+04  0.00000000000E+00 0. -1.
    9000005    1    1    2  501    0  0.13489529165E+03  0.25392679400E+03 -0.36614261731E+03  0.61378821480E+03  0.40000000000E+03 0.  1.
   -9000005    1    1    2    0  503 -0.13489529165E+03 -0.25392679400E+03 -0.44298749869E+03  0.66250545689E+03  0.40000000000E+03 0. -1.
<mgrwt>
<rscale>  2 0.49262111E+03</rscale>
<asrwt>0</asrwt>
<pdfrwt beam="1">  1       21 0.35935658E-01 0.49262111E+03</pdfrwt>
<pdfrwt beam="2">  1       21 0.16041722E+00 0.49262111E+03</pdfrwt>
<totfact> 0.15605978E+03</totfact>
</mgrwt>
</event>
<event>
 4    1  0.4962426E-002  0.4599725E+03  0.7818608E-02  0.1024789E+00
         21   -1    0    0  501  502  0.00000000000E+00  0.00000000000E+00  0.36482252536E+03  0.36482252536E+03  0.00000000000E+00 0.  1.
         21   -1    0    0  502  503 -0.00000000000E+00 -0.00000000000E+00 -0.63187313341E+03  0.63187313341E+03  0.00000000000E+00 0. -1.
    9000005    1    1    2  501    0  0.72420135688E+01 -0.22698510546E+03 -0.27639677330E+03  0.53662823365E+03  0.40000000000E+03 0. -1.
   -9000005    1    1    2    0  503 -0.72420135688E+01  0.22698510546E+03  0.93461652441E+01  0.46006742513E+03  0.40000000000E+03 0.  1.
<mgrwt>
<rscale>  2 0.45997248E+03</rscale>
<asrwt>0</asrwt>
<pdfrwt beam="1">  1       21 0.56126543E-01 0.45997248E+03</pdfrwt>
<pdfrwt beam="2">  1       21 0.97211251E-01 0.45997248E+03</pdfrwt>
<totfact> 0.22597992E+03</totfact>
</mgrwt>
</event>
<event>
 4    1  0.4962426E-002  0.4718990E+03  0.7818608E-02  0.1021386E+00
         21   -1    0    0  503  502  0.00000000000E+00  0.00000000000E+00  0.14694045790E+03  0.14694045790E+03  0.00000000000E+00 0. -1.
         21   -1    0    0  501  503 -0.00000000000E+00 -0.00000000000E+00 -0.24336020421E+04  0.24336020421E+04  0.00000000000E+00 0. -1.
    9000005    1    1    2  501    0 -0.12157236226E+03  0.21888086083E+03 -0.19358340607E+04  0.19925215635E+04  0.40000000000E+03 0. -1.
   -9000005    1    1    2    0  502  0.12157236226E+03 -0.21888086083E+03 -0.35082752353E+03  0.58802093650E+03  0.40000000000E+03 0. -1.
<mgrwt>
<rscale>  2 0.47189900E+03</rscale>
<asrwt>0</asrwt>
<pdfrwt beam="1">  1       21 0.22606224E-01 0.47189900E+03</pdfrwt>
<pdfrwt beam="2">  1       21 0.37440033E+00 0.47189900E+03</pdfrwt>
<totfact> 0.17292040E+02</totfact>
</mgrwt>
</event>
<event>
 4    1  0.4962426E-002  0.4022212E+03  0.7818608E-02  0.1043013E+00
         21   -1    0    0  503  502  0.00000000000E+00  0.00000000000E+00  0.56478075061E+03  0.56478075061E+03  0.00000000000E+00 0.  1.
         21   -1    0    0  501  503 -0.00000000000E+00 -0.00000000000E+00 -0.42385087698E+03  0.42385087698E+03  0.00000000000E+00 0.  1.
    9000005    1    1    2  501    0  0.37604589208E+02 -0.19178156157E+02 -0.21097869359E+03  0.45419590041E+03  0.40000000000E+03 0.  1.
   -9000005    1    1    2    0  502 -0.37604589208E+02  0.19178156157E+02  0.35190856721E+03  0.53443572718E+03  0.40000000000E+03 0.  1.
<mgrwt>
<rscale>  2 0.40222122E+03</rscale>
<asrwt>0</asrwt>
<pdfrwt beam="1">  1       21 0.86889347E-01 0.40222122E+03</pdfrwt>
<pdfrwt beam="2">  1       21 0.65207827E-01 0.40222122E+03</pdfrwt>
<totfact> 0.21720713E+03</totfact>
</mgrwt>
</event>
<event>
 4    1  0.4962426E-002  0.4281716E+03  0.7818608E-02  0.1034439E+00
         21   -1    0    0  503  502  0.00000000000E+00  0.00000000000E+00  0.74817796434E+03  0.74817796434E+03  0.00000000000E+00 0. -1.
         21   -1    0    0  501  503 -0.00000000000E+00 -0.00000000000E+00 -0.28567684532E+03  0.28567684532E+03  0.00000000000E+00 0. -1.
    9000005    1    1    2  501    0 -0.14091571019E+03  0.58938252736E+02  0.36279385083E+02  0.42970588639E+03  0.40000000000E+03 0.  1.
   -9000005    1    1    2    0  502  0.14091571019E+03 -0.58938252736E+02  0.42622173394E+03  0.60414892328E+03  0.40000000000E+03 0.  1.
<mgrwt>
<rscale>  2 0.42817164E+03</rscale>
<asrwt>0</asrwt>
<pdfrwt beam="1">  1       21 0.11510430E+00 0.42817164E+03</pdfrwt>
<pdfrwt beam="2">  1       21 0.43950284E-01 0.42817164E+03</pdfrwt>
<totfact> 0.25375731E+03</totfact>
</mgrwt>
</event>
<event>
 4    1  0.4962426E-002  0.4306734E+03  0.7818608E-02  0.1033647E+00
         21   -1    0    0  503  502  0.00000000000E+00  0.00000000000E+00  0.25552369754E+03  0.25552369754E+03  0.00000000000E+00 0. -1.
         21   -1    0    0  501  503 -0.00000000000E+00 -0.00000000000E+00 -0.92560460586E+03  0.92560460586E+03  0.00000000000E+00 0. -1.
    9000005    1    1    2  501    0 -0.45340369816E+02  0.15304858437E+03 -0.60936823312E+03  0.74619653031E+03  0.40000000000E+03 0. -1.
   -9000005    1    1    2    0  502  0.45340369816E+02 -0.15304858437E+03 -0.60712675199E+02  0.43493177309E+03  0.40000000000E+03 0. -1.
<mgrwt>
<rscale>  2 0.43067345E+03</rscale>
<asrwt>0</asrwt>
<pdfrwt beam="1">  1       21 0.39311338E-01 0.43067345E+03</pdfrwt>
<pdfrwt beam="2">  1       21 0.14240071E+00 0.43067345E+03</pdfrwt>
<totfact> 0.18427847E+03</totfact>
</mgrwt>
</event>
<event>
 4    1  0.4962426E-002  0.4142623E+03  0.7818608E-02  0.1038950E+00
         21   -1    0    0  503  502  0.00000000000E+00  0.00000000000E+00  0.10548359470E+04  0.10548359470E+04  0.00000000000E+00 0.  1.
         21   -1    0    0  501  503 -0.00000000000E+00 -0.00000000000E+00 -0.18607120921E+03  0.18607120921E+03  0.00000000000E+00 0.  1.
    9000005    1    1    2  501    0  0.82513585739E+02 -0.69316646016E+02  0.21445193947E+03  0.46647928527E+03  0.40000000000E+03 0. -1.
   -9000005    1    1    2    0  502 -0.82513585739E+02  0.69316646016E+02  0.65431279832E+03  0.77442787094E+03  0.40000000000E+03 0. -1.
<mgrwt>
<rscale>  2 0.41426234E+03</rscale>
<asrwt>0</asrwt>
<pdfrwt beam="1">  1       21 0.16228245E+00 0.41426234E+03</pdfrwt>
<pdfrwt beam="2">  1       21 0.28626341E-01 0.41426234E+03</pdfrwt>
<totfact> 0.24589248E+03</totfact>
</mgrwt>
</event>
<event>
 4    1  0.4962426E-002  0.4224788E+03  0.7818608E-02  0.1036263E+00
         21   -1    0    0  501  502  0.00000000000E+00  0.00000000000E+00  0.96427302726E+03  0.96427302726E+03  0.00000000000E+00 0.  1.
         21   -1    0    0  502  503 -0.00000000000E+00 -0.00000000000E+00 -0.20308305480E+03  0.20308305480E+03  0.00000000000E+00 0.  1.
    9000005    1    1    2  501    0  0.47781924182E+02 -0.12729982323E+03  0.55427524724E+03  0.69692855227E+03  0.40000000000E+03 0.  1.
   -9000005    1    1    2    0  503 -0.47781924182E+02  0.12729982323E+03  0.20691472523E+03  0.47042752979E+03  0.40000000000E+03 0.  1.
<mgrwt>
<rscale>  2 0.42247882E+03</rscale>
<asrwt>0</asrwt>
<pdfrwt beam="1">  1       21 0.14834969E+00 0.42247882E+03</pdfrwt>
<pdfrwt beam="2">  1       21 0.31243547E-01 0.42247882E+03</pdfrwt>
<totfact> 0.26358180E+03</totfact>
</mgrwt>
</event>
<event>
 4    1  0.4962426E-002  0.4178508E+03  0.7818608E-02  0.1037768E+00
         21   -1    0    0  501  502  0.00000000000E+00  0.00000000000E+00  0.74888644199E+03  0.74888644199E+03  0.00000000000E+00 0.  1.
         21   -1    0    0  502  503 -0.00000000000E+00 -0.00000000000E+00 -0.90104456966E+03  0.90104456966E+03  0.00000000000E+00 0.  1.
    9000005    1    1    2  501    0  0.29174402584E+02  0.11725245460E+03  0.63418226217E+03  0.75946456502E+03  0.40000000000E+03 0.  1.
   -9000005    1    1    2    0  503 -0.29174402584E+02 -0.11725245460E+03 -0.78634038984E+03  0.89046644663E+03  0.40000000000E+03 0.  1.
<mgrwt>
<rscale>  2 0.41785079E+03</rscale>
<asrwt>0</asrwt>
<pdfrwt beam="1">  1       21 0.11521330E+00 0.41785079E+03</pdfrwt>
<pdfrwt beam="2">  1       21 0.13862224E+00 0.41785079E+03</pdfrwt>
<totfact> 0.17751323E+02</totfact>
</mgrwt>
</event>
<event>
 4    1  0.4962426E-002  0.4009720E+03  0.7818608E-02  0.1043444E+00
         21   -1    0    0  501  502  0.00000000000E+00  0.00000000000E+00  0.97617357690E+03  0.97617357690E+03  0.00000000000E+00 0.  1.
         21   -1    0    0  502  503 -0.00000000000E+00 -0.00000000000E+00 -0.17426091718E+03  0.17426091718E+03  0.00000000000E+00 0.  1.
    9000005    1    1    2  501    0 -0.13622427442E+02 -0.24350845360E+02  0.26624076426E+03  0.48131349322E+03  0.40000000000E+03 0.  1.
   -9000005    1    1    2    0  503  0.13622427442E+02  0.24350845360E+02  0.53567189546E+03  0.66912100086E+03  0.40000000000E+03 0.  1.
<mgrwt>
<rscale>  2 0.40097199E+03</rscale>
<asrwt>0</asrwt>
<pdfrwt beam="1">  1       21 0.15018055E+00 0.40097199E+03</pdfrwt>
<pdfrwt beam="2">  1       21 0.26809372E-01 0.40097199E+03</pdfrwt>
<totfact> 0.34807616E+03</totfact>
</mgrwt>
</event>
<event>
 4    1  0.4962426E-002  0.5272361E+03  0.7818608E-02  0.1006905E+00
         21   -1    0    0  501  502  0.00000000000E+00  0.00000000000E+00  0.52901031487E+03  0.52901031487E+03  0.00000000000E+00 0. -1.
         21   -1    0    0  502  503 -0.00000000000E+00 -0.00000000000E+00 -0.59594035819E+03  0.59594035819E+03  0.00000000000E+00 0. -1.
    9000005    1    1    2  501    0 -0.18982469482E+03 -0.28625945667E+03  0.15995974203E+03  0.55096734056E+03  0.40000000000E+03 0. -1.
   -9000005    1    1    2    0  503  0.18982469482E+03  0.28625945667E+03 -0.22688978535E+03  0.57398333250E+03  0.40000000000E+03 0. -1.
<mgrwt>
<rscale>  2 0.52723609E+03</rscale>
<asrwt>0</asrwt>
<pdfrwt beam="1">  1       21 0.81386202E-01 0.52723609E+03</pdfrwt>
<pdfrwt beam="2">  1       21 0.91683132E-01 0.52723609E+03</pdfrwt>
<totfact> 0.11031740E+03</totfact>
</mgrwt>
</event>
<event>
 4    1  0.4962426E-002  0.4238606E+03  0.7818608E-02  0.1035817E+00
         21   -1    0    0  503  502  0.00000000000E+00  0.00000000000E+00  0.13052863565E+04  0.13052863565E+04  0.00000000000E+00 0. -1.
         21   -1    0    0  501  503 -0.00000000000E+00 -0.00000000000E+00 -0.28139199109E+03  0.28139199109E+03  0.00000000000E+00 0. -1.
    9000005    1    1    2  501    0  0.11113459635E+03 -0.85480278520E+02 -0.55090726167E+02  0.42742574166E+03  0.40000000000E+03 0. -1.
   -9000005    1    1    2    0  502 -0.11113459635E+03  0.85480278520E+02  0.10789850916E+04  0.11592526059E+04  0.40000000000E+03 0. -1.
<mgrwt>
<rscale>  2 0.42386056E+03</rscale>
<asrwt>0</asrwt>
<pdfrwt beam="1">  1       21 0.20081328E+00 0.42386056E+03</pdfrwt>
<pdfrwt beam="2">  1       21 0.43291076E-01 0.42386056E+03</pdfrwt>
<totfact> 0.56886187E+02</totfact>
</mgrwt>
</event>
<event>
 4    1  0.4962426E-002  0.4058252E+03  0.7818608E-02  0.1041781E+00
         21   -1    0    0  501  502  0.00000000000E+00  0.00000000000E+00  0.31975890457E+03  0.31975890457E+03  0.00000000000E+00 0. -1.
         21   -1    0    0  502  503 -0.00000000000E+00 -0.00000000000E+00 -0.66778410310E+03  0.66778410310E+03  0.00000000000E+00 0.  1.
    9000005    1    1    2  501    0  0.19581499213E+02  0.65655710757E+02  0.62125378625E+02  0.41055288348E+03  0.40000000000E+03 0. -1.
   -9000005    1    1    2    0  503 -0.19581499213E+02 -0.65655710757E+02 -0.41015057716E+03  0.57699012419E+03  0.40000000000E+03 0.  1.
<mgrwt>
<rscale>  2 0.40582522E+03</rscale>
<asrwt>0</asrwt>
<pdfrwt beam="1">  1       21 0.49193678E-01 0.40582522E+03</pdfrwt>
<pdfrwt beam="2">  1       21 0.10273602E+00 0.40582522E+03</pdfrwt>
<totfact> 0.26755515E+03</totfact>
</mgrwt>
</event>
<event>
 4    1  0.4962426E-002  0.4072949E+03  0.7818608E-02  0.1041283E+00
         21   -1    0    0  503  502  0.00000000000E+00  0.00000000000E+00  0.23615467615E+04  0.23615467615E+04  0.00000000000E+00 0. -1.
         21   -1    0    0  501  503 -0.00000000000E+00 -0.00000000000E+00 -0.80802075330E+02  0.80802075330E+02  0.00000000000E+00 0. -1.
    9000005    1    1    2  501    0 -0.69276436899E+02 -0.33013641107E+02  0.69898644629E+03  0.80899392909E+03  0.40000000000E+03 0. -1.
   -9000005    1    1    2    0  502  0.69276436899E+02  0.33013641107E+02  0.15817582399E+04  0.16333549078E+04  0.40000000000E+03 0. -1.
<mgrwt>
<rscale>  2 0.40729489E+03</rscale>
<asrwt>0</asrwt>
<pdfrwt beam="1">  1       21 0.36331483E+00 0.40729489E+03</pdfrwt>
<pdfrwt beam="2">  1       21 0.12431090E-01 0.40729489E+03</pdfrwt>
<totfact> 0.64791053E+02</totfact>
</mgrwt>
</event>
<event>
 4    1  0.4962426E-002  0.4497070E+03  0.7818608E-02  0.1027809E+00
         21   -1    0    0  503  502  0.00000000000E+00  0.00000000000E+00  0.53490277264E+03  0.53490277264E+03  0.00000000000E+00 0.  1.
         21   -1    0    0  501  503 -0.00000000000E+00 -0.00000000000E+00 -0.75610825532E+03  0.75610825532E+03  0.00000000000E+00 0.  1.
    9000005    1    1    2  501    0 -0.12807465128E+03  0.16072738131E+03 -0.56702803456E+03  0.72371071526E+03  0.40000000000E+03 0.  1.
   -9000005    1    1    2    0  502  0.12807465128E+03 -0.16072738131E+03  0.34582255188E+03  0.56730031270E+03  0.40000000000E+03 0.  1.
<mgrwt>
<rscale>  2 0.44970702E+03</rscale>
<asrwt>0</asrwt>
<pdfrwt beam="1">  1       21 0.82292734E-01 0.44970702E+03</pdfrwt>
<pdfrwt beam="2">  1       21 0.11632435E+00 0.44970702E+03</pdfrwt>
<totfact> 0.61817037E+02</totfact>
</mgrwt>
</event>
<event>
 4    1  0.4962426E-002  0.4433174E+03  0.7818608E-02  0.1029734E+00
         21   -1    0    0  501  502  0.00000000000E+00  0.00000000000E+00  0.10495058791E+03  0.10495058791E+03  0.00000000000E+00 0.  1.
         21   -1    0    0  502  503 -0.00000000000E+00 -0.00000000000E+00 -0.21535354470E+04  0.21535354470E+04  0.00000000000E+00 0.  1.
    9000005    1    1    2  501    0 -0.18901834382E+03 -0.28325783220E+02 -0.61642779871E+03  0.75928487100E+03  0.40000000000E+03 0.  1.
   -9000005    1    1    2    0  503  0.18901834382E+03  0.28325783220E+02 -0.14321570604E+04  0.14992011639E+04  0.40000000000E+03 0.  1.
<mgrwt>
<rscale>  2 0.44331736E+03</rscale>
<asrwt>0</asrwt>
<pdfrwt beam="1">  1       21 0.16146245E-01 0.44331736E+03</pdfrwt>
<pdfrwt beam="2">  1       21 0.33131313E+00 0.44331736E+03</pdfrwt>
<totfact> 0.61367304E+02</totfact>
</mgrwt>
</event>
<event>
 4    1  0.4962426E-002  0.4588826E+03  0.7818608E-02  0.1025106E+00
         21   -1    0    0  503  502  0.00000000000E+00  0.00000000000E+00  0.12547744099E+04  0.12547744099E+04  0.00000000000E+00 0. -1.
         21   -1    0    0  501  503 -0.00000000000E+00 -0.00000000000E+00 -0.48192837563E+03  0.48192837563E+03  0.00000000000E+00 0. -1.
    9000005    1    1    2  501    0  0.89189871568E+02 -0.20644235454E+03 -0.31462158036E+03  0.55638118028E+03  0.40000000000E+03 0. -1.
   -9000005    1    1    2    0  502 -0.89189871568E+02  0.20644235454E+03  0.10874676147E+04  0.11803216053E+04  0.40000000000E+03 0. -1.
<mgrwt>
<rscale>  2 0.45888264E+03</rscale>
<asrwt>0</asrwt>
<pdfrwt beam="1">  1       21 0.19304222E+00 0.45888264E+03</pdfrwt>
<pdfrwt beam="2">  1       21 0.74142827E-01 0.45888264E+03</pdfrwt>
<totfact> 0.19574668E+02</totfact>
</mgrwt>
</event>
<event>
 4    1  0.4962426E-002  0.4083491E+03  0.7818608E-02  0.1040926E+00
         21   -1    0    0  503  502  0.00000000000E+00  0.00000000000E+00  0.37626128101E+03  0.37626128101E+03  0.00000000000E+00 0. -1.
         21   -1    0    0  501  503 -0.00000000000E+00 -0.00000000000E+00 -0.97101584912E+03  0.97101584912E+03  0.00000000000E+00 0. -1.
    9000005    1    1    2  501    0 -0.69111907008E+02  0.44413040668E+02 -0.79404503106E+03  0.89289220247E+03  0.40000000000E+03 0. -1.
   -9000005    1    1    2    0  502  0.69111907008E+02 -0.44413040668E+02  0.19929046295E+03  0.45438492767E+03  0.40000000000E+03 0. -1.
<mgrwt>
<rscale>  2 0.40834908E+03</rscale>
<asrwt>0</asrwt>
<pdfrwt beam="1">  1       21 0.57886351E-01 0.40834908E+03</pdfrwt>
<pdfrwt beam="2">  1       21 0.14938705E+00 0.40834908E+03</pdfrwt>
<totfact> 0.72318489E+02</totfact>
</mgrwt>
</event>
<event>
 4    1  0.4962426E-002  0.4076917E+03  0.7818608E-02  0.1041148E+00
         21   -1    0    0  501  502  0.00000000000E+00  0.00000000000E+00  0.10100246280E+04  0.10100246280E+04  0.00000000000E+00 0.  1.
         21   -1    0    0  502  503 -0.00000000000E+00 -0.00000000000E+00 -0.23189434522E+03  0.23189434522E+03  0.00000000000E+00 0.  1.
    9000005    1    1    2  501    0 -0.70991836583E+02 -0.34244626816E+02  0.72366619477E+03  0.83060537970E+03  0.40000000000E+03 0.  1.
   -9000005    1    1    2    0  503  0.70991836583E+02  0.34244626816E+02  0.54464087999E+02  0.41131359351E+03  0.40000000000E+03 0.  1.
<mgrwt>
<rscale>  2 0.40769172E+03</rscale>
<asrwt>0</asrwt>
<pdfrwt beam="1">  1       21 0.15538840E+00 0.40769172E+03</pdfrwt>
<pdfrwt beam="2">  1       21 0.35676054E-01 0.40769172E+03</pdfrwt>
<totfact> 0.17913833E+03</totfact>
</mgrwt>
</event>
<event>
 4    1  0.4962426E-002  0.6603308E+03  0.7818608E-02  0.9787585E-01
         21   -1    0    0  501  502  0.00000000000E+00  0.00000000000E+00  0.61039537026E+03  0.61039537026E+03  0.00000000000E+00 0.  1.
         21   -1    0    0  502  503 -0.00000000000E+00 -0.00000000000E+00 -0.12470870760E+04  0.12470870760E+04  0.00000000000E+00 0.  1.
    9000005    1    1    2  501    0  0.30000334233E+03  0.43131745854E+03  0.28867309175E+03  0.72067253961E+03  0.40000000000E+03 0.  1.
   -9000005    1    1    2    0  503 -0.30000334233E+03 -0.43131745854E+03 -0.92536479747E+03  0.11368099066E+04  0.40000000000E+03 0.  1.
<mgrwt>
<rscale>  2 0.66033079E+03</rscale>
<asrwt>0</asrwt>
<pdfrwt beam="1">  1       21 0.93906980E-01 0.66033079E+03</pdfrwt>
<pdfrwt beam="2">  1       21 0.19185955E+00 0.66033079E+03</pdfrwt>
<totfact> 0.10495106E+02</totfact>
</mgrwt>
</event>
<event>
 4    1  0.4962426E-002  0.5055490E+03  0.7818608E-02  0.1012341E+00
         21   -1    0    0  503  502  0.00000000000E+00  0.00000000000E+00  0.18213928674E+04  0.18213928674E+04  0.00000000000E+00 0.  1.
         21   -1    0    0  501  503 -0.00000000000E+00 -0.00000000000E+00 -0.22491244719E+03  0.22491244719E+03  0.00000000000E+00 0.  1.
    9000005    1    1    2  501    0  0.22820446124E+03 -0.20857262746E+03  0.17076480274E+03  0.53361075224E+03  0.40000000000E+03 0.  1.
   -9000005    1    1    2    0  502 -0.22820446124E+03  0.20857262746E+03  0.14257156174E+04  0.15126945623E+04  0.40000000000E+03 0.  1.
<mgrwt>
<rscale>  2 0.50554903E+03</rscale>
<asrwt>0</asrwt>
<pdfrwt beam="1">  1       21 0.28021428E+00 0.50554903E+03</pdfrwt>
<pdfrwt beam="2">  1       21 0.34601916E-01 0.50554903E+03</pdfrwt>
<totfact> 0.27506321E+02</totfact>
</mgrwt>
</event>
<event>
 4    1  0.4962426E-002  0.4779690E+03  0.7818608E-02  0.1019695E+00
         21   -1    0    0  501  502  0.00000000000E+00  0.00000000000E+00  0.48914536944E+03  0.48914536944E+03  0.00000000000E+00 0.  1.
         21   -1    0    0  502  503 -0.00000000000E+00 -0.00000000000E+00 -0.47539039619E+03  0.47539039619E+03  0.00000000000E+00 0.  1.
    9000005    1    1    2  501    0  0.20360340216E+03 -0.16431679793E+03  0.70763991920E+02  0.48317895029E+03  0.40000000000E+03 0.  1.
   -9000005    1    1    2    0  503 -0.20360340216E+03  0.16431679793E+03 -0.57009018669E+02  0.48135681533E+03  0.40000000000E+03 0.  1.
<mgrwt>
<rscale>  2 0.47796899E+03</rscale>
<asrwt>0</asrwt>
<pdfrwt beam="1">  1       21 0.75253133E-01 0.47796899E+03</pdfrwt>
<pdfrwt beam="2">  1       21 0.73136985E-01 0.47796899E+03</pdfrwt>
<totfact> 0.22751501E+03</totfact>
</mgrwt>
</event>
<event>
 4    1  0.4962426E-002  0.4785658E+03  0.7818608E-02  0.1019530E+00
         21   -1    0    0  503  502  0.00000000000E+00  0.00000000000E+00  0.24555385339E+03  0.24555385339E+03  0.00000000000E+00 0.  1.
         21   -1    0    0  501  503 -0.00000000000E+00 -0.00000000000E+00 -0.18781328766E+04  0.18781328766E+04  0.00000000000E+00 0.  1.
    9000005    1    1    2  501    0 -0.57315951885E+02  0.25639830618E+03 -0.15696716754E+04  0.16410040763E+04  0.40000000000E+03 0.  1.
   -9000005    1    1    2    0  502  0.57315951885E+02 -0.25639830618E+03 -0.62907347754E+02  0.48268265367E+03  0.40000000000E+03 0.  1.
<mgrwt>
<rscale>  2 0.47856578E+03</rscale>
<asrwt>0</asrwt>
<pdfrwt beam="1">  1       21 0.37777514E-01 0.47856578E+03</pdfrwt>
<pdfrwt beam="2">  1       21 0.28894353E+00 0.47856578E+03</pdfrwt>
<totfact> 0.20669459E+02</totfact>
</mgrwt>
</event>
<event>
 4    1  0.4962426E-002  0.4515849E+03  0.7818608E-02  0.1027250E+00
         21   -1    0    0  501  502  0.00000000000E+00  0.00000000000E+00  0.25111530347E+03  0.25111530347E+03  0.00000000000E+00 0. -1.
         21   -1    0    0  502  503 -0.00000000000E+00 -0.00000000000E+00 -0.94914003591E+03  0.94914003591E+03  0.00000000000E+00 0. -1.
    9000005    1    1    2  501    0  0.11765895641E+03  0.17345099653E+03 -0.12097082313E+03  0.46750702483E+03  0.40000000000E+03 0. -1.
   -9000005    1    1    2    0  503 -0.11765895641E+03 -0.17345099653E+03 -0.57705390932E+03  0.73274831455E+03  0.40000000000E+03 0. -1.
<mgrwt>
<rscale>  2 0.45158485E+03</rscale>
<asrwt>0</asrwt>
<pdfrwt beam="1">  1       21 0.38633123E-01 0.45158485E+03</pdfrwt>
<pdfrwt beam="2">  1       21 0.14602155E+00 0.45158485E+03</pdfrwt>
<totfact> 0.17702400E+03</totfact>
</mgrwt>
</event>
<event>
 4    1  0.4962426E-002  0.4357998E+03  0.7818608E-02  0.1032043E+00
         21   -1    0    0  503  502  0.00000000000E+00  0.00000000000E+00  0.18188692433E+03  0.18188692433E+03  0.00000000000E+00 0.  1.
         21   -1    0    0  501  503 -0.00000000000E+00 -0.00000000000E+00 -0.11693423697E+04  0.11693423697E+04  0.00000000000E+00 0.  1.
    9000005    1    1    2  501    0 -0.13025785400E+03 -0.11381712609E+03 -0.27268463038E+03  0.51408010501E+03  0.40000000000E+03 0.  1.
   -9000005    1    1    2    0  502  0.13025785400E+03  0.11381712609E+03 -0.71477081500E+03  0.83714918903E+03  0.40000000000E+03 0.  1.
<mgrwt>
<rscale>  2 0.43579978E+03</rscale>
<asrwt>0</asrwt>
<pdfrwt beam="1">  1       21 0.27982603E-01 0.43579978E+03</pdfrwt>
<pdfrwt beam="2">  1       21 0.17989883E+00 0.43579978E+03</pdfrwt>
<totfact> 0.18994399E+03</totfact>
</mgrwt>
</event>
<event>
 4    1  0.4962426E-002  0.4360046E+03  0.7818608E-02  0.1031980E+00
         21   -1    0    0  501  502  0.00000000000E+00  0.00000000000E+00  0.57038951664E+03  0.57038951664E+03  0.00000000000E+00 0.  1.
         21   -1    0    0  502  503 -0.00000000000E+00 -0.00000000000E+00 -0.41356484063E+03  0.41356484063E+03  0.00000000000E+00 0.  1.
    9000005    1    1    2  501    0  0.17308642358E+03 -0.11877624679E+02  0.29517637220E+03  0.52652547773E+03  0.40000000000E+03 0.  1.
   -9000005    1    1    2    0  503 -0.17308642358E+03  0.11877624679E+02 -0.13835169620E+03  0.45742887954E+03  0.40000000000E+03 0.  1.
<mgrwt>
<rscale>  2 0.43600457E+03</rscale>
<asrwt>0</asrwt>
<pdfrwt beam="1">  1       21 0.87752234E-01 0.43600457E+03</pdfrwt>
<pdfrwt beam="2">  1       21 0.63625360E-01 0.43600457E+03</pdfrwt>
<totfact> 0.22109028E+03</totfact>
</mgrwt>
</event>
<event>
 4    1  0.4962426E-002  0.5612372E+03  0.7818608E-02  0.9989259E-01
         21   -1    0    0  501  502  0.00000000000E+00  0.00000000000E+00  0.29291980875E+03  0.29291980875E+03  0.00000000000E+00 0.  1.
         21   -1    0    0  502  503 -0.00000000000E+00 -0.00000000000E+00 -0.10815204955E+04  0.10815204955E+04  0.00000000000E+00 0.  1.
    9000005    1    1    2  501    0 -0.34879396179E+03  0.18256497028E+03 -0.44626797954E+03  0.71703717178E+03  0.40000000000E+03 0.  1.
   -9000005    1    1    2    0  503  0.34879396179E+03 -0.18256497028E+03 -0.34233270722E+03  0.65740313248E+03  0.40000000000E+03 0.  1.
<mgrwt>
<rscale>  2 0.56123720E+03</rscale>
<asrwt>0</asrwt>
<pdfrwt beam="1">  1       21 0.45064586E-01 0.56123720E+03</pdfrwt>
<pdfrwt beam="2">  1       21 0.16638777E+00 0.56123720E+03</pdfrwt>
<totfact> 0.85971711E+02</totfact>
</mgrwt>
</event>
<event>
 4    1  0.4962426E-002  0.4271324E+03  0.7818608E-02  0.1034770E+00
         21   -1    0    0  503  502  0.00000000000E+00  0.00000000000E+00  0.40930652902E+03  0.40930652902E+03  0.00000000000E+00 0.  1.
         21   -1    0    0  501  503 -0.00000000000E+00 -0.00000000000E+00 -0.47800237489E+03  0.47800237489E+03  0.00000000000E+00 0.  1.
    9000005    1    1    2  501    0  0.14975742939E+03 -0.38459265086E+01 -0.14961741470E+03  0.45257866674E+03  0.40000000000E+03 0. -1.
   -9000005    1    1    2    0  502 -0.14975742939E+03  0.38459265086E+01  0.80921568828E+02  0.43473023717E+03  0.40000000000E+03 0. -1.
<mgrwt>
<rscale>  2 0.42713239E+03</rscale>
<asrwt>0</asrwt>
<pdfrwt beam="1">  1       21 0.62970235E-01 0.42713239E+03</pdfrwt>
<pdfrwt beam="2">  1       21 0.73538827E-01 0.42713239E+03</pdfrwt>
<totfact> 0.34139707E+03</totfact>
</mgrwt>
</event>
<event>
 4    1  0.4962426E-002  0.4179238E+03  0.7818608E-02  0.1037744E+00
         21   -1    0    0  501  502  0.00000000000E+00  0.00000000000E+00  0.48897467372E+03  0.48897467372E+03  0.00000000000E+00 0. -1.
         21   -1    0    0  502  503 -0.00000000000E+00 -0.00000000000E+00 -0.38791284098E+03  0.38791284098E+03  0.00000000000E+00 0. -1.
    9000005    1    1    2  501    0  0.54539882864E+02  0.10810024958E+03  0.17390625604E+03  0.45266284216E+03  0.40000000000E+03 0. -1.
   -9000005    1    1    2    0  503 -0.54539882864E+02 -0.10810024958E+03 -0.72844423303E+02  0.42422467254E+03  0.40000000000E+03 0. -1.
<mgrwt>
<rscale>  2 0.41792375E+03</rscale>
<asrwt>0</asrwt>
<pdfrwt beam="1">  1       21 0.75226872E-01 0.41792375E+03</pdfrwt>
<pdfrwt beam="2">  1       21 0.59678899E-01 0.41792375E+03</pdfrwt>
<totfact> 0.36603902E+03</totfact>
</mgrwt>
</event>
<event>
 4    1  0.4962426E-002  0.4577727E+03  0.7818608E-02  0.1025429E+00
         21   -1    0    0  501  502  0.00000000000E+00  0.00000000000E+00  0.30200358009E+04  0.30200358009E+04  0.00000000000E+00 0.  1.
         21   -1    0    0  502  503 -0.00000000000E+00 -0.00000000000E+00 -0.76536050246E+02  0.76536050246E+02  0.00000000000E+00 0.  1.
    9000005    1    1    2  501    0 -0.37337075413E+02  0.21945787384E+03  0.19448969219E+04  0.19980440066E+04  0.40000000000E+03 0.  1.
   -9000005    1    1    2    0  503  0.37337075413E+02 -0.21945787384E+03  0.99860282877E+03  0.10985278445E+04  0.40000000000E+03 0.  1.
<mgrwt>
<rscale>  2 0.45777267E+03</rscale>
<asrwt>0</asrwt>
<pdfrwt beam="1">  1       21 0.46462080E+00 0.45777267E+03</pdfrwt>
<pdfrwt beam="2">  1       21 0.11774779E-01 0.45777267E+03</pdfrwt>
<totfact> 0.15137759E+02</totfact>
</mgrwt>
</event>
<event>
 4    1  0.4962426E-002  0.4727518E+03  0.7818608E-02  0.1021146E+00
         21   -1    0    0  503  502  0.00000000000E+00  0.00000000000E+00  0.77800773188E+03  0.77800773188E+03  0.00000000000E+00 0.  1.
         21   -1    0    0  501  503 -0.00000000000E+00 -0.00000000000E+00 -0.30890441323E+03  0.30890441323E+03  0.00000000000E+00 0. -1.
    9000005    1    1    2  501    0  0.14155728353E+03  0.20846054934E+03  0.37839069212E+03  0.60553594528E+03  0.40000000000E+03 0. -1.
   -9000005    1    1    2    0  502 -0.14155728353E+03 -0.20846054934E+03  0.90712626531E+02  0.48137619983E+03  0.40000000000E+03 0. -1.
<mgrwt>
<rscale>  2 0.47275180E+03</rscale>
<asrwt>0</asrwt>
<pdfrwt beam="1">  1       21 0.11969350E+00 0.47275180E+03</pdfrwt>
<pdfrwt beam="2">  1       21 0.47523756E-01 0.47275180E+03</pdfrwt>
<totfact> 0.19190108E+03</totfact>
</mgrwt>
</event>
<event>
 4    1  0.4962426E-002  0.4098539E+03  0.7818608E-02  0.1040420E+00
         21   -1    0    0  501  502  0.00000000000E+00  0.00000000000E+00  0.18785651789E+04  0.18785651789E+04  0.00000000000E+00 0. -1.
         21   -1    0    0  502  503 -0.00000000000E+00 -0.00000000000E+00 -0.91520905884E+02  0.91520905884E+02  0.00000000000E+00 0. -1.
    9000005    1    1    2  501    0 -0.46489810768E+02  0.76281655689E+02  0.10427875296E+04  0.11204401035E+04  0.40000000000E+03 0.  1.
   -9000005    1    1    2    0  503  0.46489810768E+02 -0.76281655689E+02  0.74425674340E+03  0.84964598133E+03  0.40000000000E+03 0.  1.
<mgrwt>
<rscale>  2 0.40985387E+03</rscale>
<asrwt>0</asrwt>
<pdfrwt beam="1">  1       21 0.28901000E+00 0.40985387E+03</pdfrwt>
<pdfrwt beam="2">  1       21 0.14080141E-01 0.40985387E+03</pdfrwt>
<totfact> 0.14482862E+03</totfact>
</mgrwt>
</event>
<event>
 4    1  0.4962426E-002  0.4323220E+03  0.7818608E-02  0.1033129E+00
         21   -1    0    0  501  502  0.00000000000E+00  0.00000000000E+00  0.96273778010E+03  0.96273778010E+03  0.00000000000E+00 0.  1.
         21   -1    0    0  502  503 -0.00000000000E+00 -0.00000000000E+00 -0.19944027663E+03  0.19944027663E+03  0.00000000000E+00 0. -1.
    9000005    1    1    2  501    0 -0.90196922462E+02  0.13699220861E+03  0.47641137228E+03  0.64332740162E+03  0.40000000000E+03 0. -1.
   -9000005    1    1    2    0  503  0.90196922462E+02 -0.13699220861E+03  0.28688613118E+03  0.51885065511E+03  0.40000000000E+03 0. -1.
<mgrwt>
<rscale>  2 0.43232204E+03</rscale>
<asrwt>0</asrwt>
<pdfrwt beam="1">  1       21 0.14811350E+00 0.43232204E+03</pdfrwt>
<pdfrwt beam="2">  1       21 0.30683120E-01 0.43232204E+03</pdfrwt>
<totfact> 0.27335841E+03</totfact>
</mgrwt>
</event>
<event>
 4    1  0.4962426E-002  0.4186435E+03  0.7818608E-02  0.1037509E+00
         21   -1    0    0  503  502  0.00000000000E+00  0.00000000000E+00  0.15521732439E+04  0.15521732439E+04  0.00000000000E+00 0.  1.
         21   -1    0    0  501  503 -0.00000000000E+00 -0.00000000000E+00 -0.25007873851E+03  0.25007873851E+03  0.00000000000E+00 0.  1.
    9000005    1    1    2  501    0  0.12091388807E+03  0.25341789283E+02 -0.16324899408E+02  0.41896166526E+03  0.40000000000E+03 0.  1.
   -9000005    1    1    2    0  502 -0.12091388807E+03 -0.25341789283E+02  0.13184194048E+04  0.13832903172E+04  0.40000000000E+03 0.  1.
<mgrwt>
<rscale>  2 0.41864349E+03</rscale>
<asrwt>0</asrwt>
<pdfrwt beam="1">  1       21 0.23879588E+00 0.41864349E+03</pdfrwt>
<pdfrwt beam="2">  1       21 0.38473653E-01 0.41864349E+03</pdfrwt>
<totfact> 0.41605422E+02</totfact>
</mgrwt>
</event>
<event>
 4    1  0.4962426E-002  0.4777655E+03  0.7818608E-02  0.1019751E+00
         21   -1    0    0  501  502  0.00000000000E+00  0.00000000000E+00  0.42151617096E+03  0.42151617096E+03  0.00000000000E+00 0. -1.
         21   -1    0    0  502  503 -0.00000000000E+00 -0.00000000000E+00 -0.68634365062E+03  0.68634365062E+03  0.00000000000E+00 0. -1.
    9000005    1    1    2  501    0  0.11658573566E+03 -0.23381111422E+03 -0.38686359497E+03  0.61475467627E+03  0.40000000000E+03 0. -1.
   -9000005    1    1    2    0  503 -0.11658573566E+03  0.23381111422E+03  0.12203611530E+03  0.49310514531E+03  0.40000000000E+03 0. -1.
<mgrwt>
<rscale>  2 0.47776550E+03</rscale>
<asrwt>0</asrwt>
<pdfrwt beam="1">  1       21 0.64848642E-01 0.47776550E+03</pdfrwt>
<pdfrwt beam="2">  1       21 0.10559133E+00 0.47776550E+03</pdfrwt>
<totfact> 0.13358592E+03</totfact>
</mgrwt>
</event>
<event>
 4    1  0.4962426E-002  0.6231986E+03  0.7818608E-02  0.9858412E-01
         21   -1    0    0  503  502  0.00000000000E+00  0.00000000000E+00  0.13033754056E+04  0.13033754056E+04  0.00000000000E+00 0. -1.
         21   -1    0    0  501  503 -0.00000000000E+00 -0.00000000000E+00 -0.49193799092E+03  0.49193799092E+03  0.00000000000E+00 0.  1.
    9000005    1    1    2  501    0  0.11893441281E+01 -0.47788607899E+03 -0.15793420319E+03  0.64289947237E+03  0.40000000000E+03 0.  1.
   -9000005    1    1    2    0  502 -0.11893441281E+01  0.47788607899E+03  0.96937161790E+03  0.11524139242E+04  0.40000000000E+03 0. -1.
<mgrwt>
<rscale>  2 0.62319862E+03</rscale>
<asrwt>0</asrwt>
<pdfrwt beam="1">  1       21 0.20051929E+00 0.62319862E+03</pdfrwt>
<pdfrwt beam="2">  1       21 0.75682769E-01 0.62319862E+03</pdfrwt>
<totfact> 0.15440570E+02</totfact>
</mgrwt>
</event>
<event>
 4    1  0.4962426E-002  0.5369547E+03  0.7818608E-02  0.1004559E+00
         21   -1    0    0  501  502  0.00000000000E+00  0.00000000000E+00  0.12653599516E+04  0.12653599516E+04  0.00000000000E+00 0.  1.
         21   -1    0    0  502  503 -0.00000000000E+00 -0.00000000000E+00 -0.24289901117E+03  0.24289901117E+03  0.00000000000E+00 0.  1.
    9000005    1    1    2  501    0  0.34760929478E+03 -0.86533994841E+02  0.69890043202E+03  0.88135246522E+03  0.40000000000E+03 0.  1.
   -9000005    1    1    2    0  503 -0.34760929478E+03  0.86533994841E+02  0.32356050843E+03  0.62690649757E+03  0.40000000000E+03 0.  1.
<mgrwt>
<rscale>  2 0.53695470E+03</rscale>
<asrwt>0</asrwt>
<pdfrwt beam="1">  1       21 0.19467076E+00 0.53695470E+03</pdfrwt>
<pdfrwt beam="2">  1       21 0.37369079E-01 0.53695470E+03</pdfrwt>
<totfact> 0.80599953E+02</totfact>
</mgrwt>
</event>
<event>
 4    1  0.4962426E-002  0.4467400E+03  0.7818608E-02  0.1028699E+00
         21   -1    0    0  503  502  0.00000000000E+00  0.00000000000E+00  0.71745935502E+03  0.71745935502E+03  0.00000000000E+00 0. -1.
         21   -1    0    0  501  503 -0.00000000000E+00 -0.00000000000E+00 -0.28254137290E+03  0.28254137290E+03  0.00000000000E+00 0. -1.
    9000005    1    1    2  501    0 -0.17665437019E+03 -0.91486819959E+02  0.15527574193E+03  0.47295577041E+03  0.40000000000E+03 0. -1.
   -9000005    1    1    2    0  502  0.17665437019E+03  0.91486819959E+02  0.27964224020E+03  0.52704495751E+03  0.40000000000E+03 0. -1.
<mgrwt>
<rscale>  2 0.44673997E+03</rscale>
<asrwt>0</asrwt>
<pdfrwt beam="1">  1       21 0.11037836E+00 0.44673997E+03</pdfrwt>
<pdfrwt beam="2">  1       21 0.43467904E-01 0.44673997E+03</pdfrwt>
<totfact> 0.28622695E+03</totfact>
</mgrwt>
</event>
<event>
 4    1  0.4962426E-002  0.4421541E+03  0.7818608E-02  0.1030088E+00
         21   -1    0    0  501  502  0.00000000000E+00  0.00000000000E+00  0.29328605590E+03  0.29328605590E+03  0.00000000000E+00 0. -1.
         21   -1    0    0  502  503 -0.00000000000E+00 -0.00000000000E+00 -0.98776964397E+03  0.98776964397E+03  0.00000000000E+00 0. -1.
    9000005    1    1    2  501    0  0.96117315772E+02 -0.16205456277E+03  0.18005710329E+02  0.44252053660E+03  0.40000000000E+03 0. -1.
   -9000005    1    1    2    0  503 -0.96117315772E+02  0.16205456277E+03 -0.71248929839E+03  0.83853516327E+03  0.40000000000E+03 0. -1.
<mgrwt>
<rscale>  2 0.44215407E+03</rscale>
<asrwt>0</asrwt>
<pdfrwt beam="1">  1       21 0.45120932E-01 0.44215407E+03</pdfrwt>
<pdfrwt beam="2">  1       21 0.15196456E+00 0.44215407E+03</pdfrwt>
<totfact> 0.11563046E+03</totfact>
</mgrwt>
</event>
<event>
 4    1  0.4962426E-002  0.4074808E+03  0.7818608E-02  0.1041220E+00
         21   -1    0    0  501  502  0.00000000000E+00  0.00000000000E+00  0.11680320924E+03  0.11680320924E+03  0.00000000000E+00 0.  1.
         21   -1    0    0  502  503 -0.00000000000E+00 -0.00000000000E+00 -0.14246400678E+04  0.14246400678E+04  0.00000000000E+00 0.  1.
    9000005    1    1    2  501    0  0.70575016648E+02 -0.32554566534E+02 -0.68986118473E+03  0.80121725329E+03  0.40000000000E+03 0.  1.
   -9000005    1    1    2    0  503 -0.70575016648E+02  0.32554566534E+02 -0.61797567379E+03  0.74022602370E+03  0.40000000000E+03 0.  1.
<mgrwt>
<rscale>  2 0.40748084E+03</rscale>
<asrwt>0</asrwt>
<pdfrwt beam="1">  1       21 0.17969724E-01 0.40748084E+03</pdfrwt>
<pdfrwt beam="2">  1       21 0.21917540E+00 0.40748084E+03</pdfrwt>
<totfact> 0.24650917E+03</totfact>
</mgrwt>
</event>
<event>
 4    1  0.4962426E-002  0.1077859E+04  0.7818608E-02  0.9227044E-01
         21   -1    0    0  501  502  0.00000000000E+00  0.00000000000E+00  0.49416745560E+03  0.49416745560E+03  0.00000000000E+00 0. -1.
         21   -1    0    0  502  503 -0.00000000000E+00 -0.00000000000E+00 -0.23763275608E+04  0.23763275608E+04  0.00000000000E+00 0.  1.
    9000005    1    1    2  501    0  0.84379508662E+03  0.53832203544E+03 -0.10892944741E+04  0.15324304922E+04  0.40000000000E+03 0.  1.
   -9000005    1    1    2    0  503 -0.84379508662E+03 -0.53832203544E+03 -0.79286563113E+03  0.13380645243E+04  0.40000000000E+03 0. -1.
<mgrwt>
<rscale>  2 0.10778593E+04</rscale>
<asrwt>0</asrwt>
<pdfrwt beam="1">  1       21 0.76025762E-01 0.10778593E+04</pdfrwt>
<pdfrwt beam="2">  1       21 0.36558886E+00 0.10778593E+04</pdfrwt>
<totfact> 0.11907734E+01</totfact>
</mgrwt>
</event>
<event>
 4    1  0.4962426E-002  0.4772072E+03  0.7818608E-02  0.1019906E+00
         21   -1    0    0  503  502  0.00000000000E+00  0.00000000000E+00  0.26601101884E+04  0.26601101884E+04  0.00000000000E+00 0.  1.
         21   -1    0    0  501  503 -0.00000000000E+00 -0.00000000000E+00 -0.14222108064E+03  0.14222108064E+03  0.00000000000E+00 0.  1.
    9000005    1    1    2  501    0  0.23207029151E+03 -0.11777127006E+03  0.37491677129E+03  0.60686841873E+03  0.40000000000E+03 0.  1.
   -9000005    1    1    2    0  502 -0.23207029151E+03  0.11777127006E+03  0.21429723364E+04  0.21954628503E+04  0.40000000000E+03 0.  1.
<mgrwt>
<rscale>  2 0.47720718E+03</rscale>
<asrwt>0</asrwt>
<pdfrwt beam="1">  1       21 0.40924769E+00 0.47720718E+03</pdfrwt>
<pdfrwt beam="2">  1       21 0.21880168E-01 0.47720718E+03</pdfrwt>
<totfact> 0.11001136E+02</totfact>
</mgrwt>
</event>
<event>
 4    1  0.4962426E-002  0.4932643E+03  0.7818608E-02  0.1015552E+00
         21   -1    0    0  501  502  0.00000000000E+00  0.00000000000E+00  0.11053900255E+04  0.11053900255E+04  0.00000000000E+00 0. -1.
         21   -1    0    0  502  503 -0.00000000000E+00 -0.00000000000E+00 -0.10071535262E+04  0.10071535262E+04  0.00000000000E+00 0. -1.
    9000005    1    1    2  501    0  0.27063161358E+03  0.10034045950E+03  0.98285971028E+03  0.10996921788E+04  0.40000000000E+03 0. -1.
   -9000005    1    1    2    0  503 -0.27063161358E+03 -0.10034045950E+03 -0.88462321096E+03  0.10128513728E+04  0.40000000000E+03 0. -1.
<mgrwt>
<rscale>  2 0.49326431E+03</rscale>
<asrwt>0</asrwt>
<pdfrwt beam="1">  1       21 0.17006000E+00 0.49326431E+03</pdfrwt>
<pdfrwt beam="2">  1       21 0.15494670E+00 0.49326431E+03</pdfrwt>
<totfact> 0.44626679E+01</totfact>
</mgrwt>
</event>
<event>
 4    1  0.4962426E-002  0.5231421E+03  0.7818608E-02  0.1007909E+00
         21   -1    0    0  503  502  0.00000000000E+00  0.00000000000E+00  0.93941033603E+03  0.93941033603E+03  0.00000000000E+00 0. -1.
         21   -1    0    0  501  503 -0.00000000000E+00 -0.00000000000E+00 -0.30284628733E+03  0.30284628733E+03  0.00000000000E+00 0. -1.
    9000005    1    1    2  501    0 -0.95437141580E+02  0.32337201379E+03  0.19715512156E+03  0.55905979041E+03  0.40000000000E+03 0. -1.
   -9000005    1    1    2    0  502  0.95437141580E+02 -0.32337201379E+03  0.43940892715E+03  0.68319683295E+03  0.40000000000E+03 0. -1.
<mgrwt>
<rscale>  2 0.52314215E+03</rscale>
<asrwt>0</asrwt>
<pdfrwt beam="1">  1       21 0.14452467E+00 0.52314215E+03</pdfrwt>
<pdfrwt beam="2">  1       21 0.46591737E-01 0.52314215E+03</pdfrwt>
<totfact> 0.11998299E+03</totfact>
</mgrwt>
</event>
<event>
 4    1  0.4962426E-002  0.6024554E+03  0.7818608E-02  0.9900325E-01
         21   -1    0    0  501  502  0.00000000000E+00  0.00000000000E+00  0.12655238049E+04  0.12655238049E+04  0.00000000000E+00 0. -1.
         21   -1    0    0  502  503 -0.00000000000E+00 -0.00000000000E+00 -0.28682741010E+03  0.28682741010E+03  0.00000000000E+00 0. -1.
    9000005    1    1    2  501    0 -0.19859497932E+03  0.40436681569E+03  0.49690729596E+03  0.78094132188E+03  0.40000000000E+03 0. -1.
   -9000005    1    1    2    0  503  0.19859497932E+03 -0.40436681569E+03  0.48178909881E+03  0.77140989310E+03  0.40000000000E+03 0. -1.
<mgrwt>
<rscale>  2 0.60245538E+03</rscale>
<asrwt>0</asrwt>
<pdfrwt beam="1">  1       21 0.19469597E+00 0.60245538E+03</pdfrwt>
<pdfrwt beam="2">  1       21 0.44127294E-01 0.60245538E+03</pdfrwt>
<totfact> 0.55700949E+02</totfact>
</mgrwt>
</event>
<event>
 4    1  0.4962426E-002  0.5692586E+03  0.7818608E-02  0.9971321E-01
         21   -1    0    0  501  502  0.00000000000E+00  0.00000000000E+00  0.32490189881E+03  0.32490189881E+03  0.00000000000E+00 0. -1.
         21   -1    0    0  502  503 -0.00000000000E+00 -0.00000000000E+00 -0.19345915326E+04  0.19345915326E+04  0.00000000000E+00 0. -1.
    9000005    1    1    2  501    0  0.76043725288E+02 -0.39783506130E+03 -0.18520174179E+02  0.56955981337E+03  0.40000000000E+03 0. -1.
   -9000005    1    1    2    0  503 -0.76043725288E+02  0.39783506130E+03 -0.15911694596E+04  0.16899336180E+04  0.40000000000E+03 0. -1.
<mgrwt>
<rscale>  2 0.56925863E+03</rscale>
<asrwt>0</asrwt>
<pdfrwt beam="1">  1       21 0.49984907E-01 0.56925863E+03</pdfrwt>
<pdfrwt beam="2">  1       21 0.29762947E+00 0.56925863E+03</pdfrwt>
<totfact> 0.97199780E+01</totfact>
</mgrwt>
</event>
<event>
 4    1  0.4962426E-002  0.4150870E+03  0.7818608E-02  0.1038677E+00
         21   -1    0    0  503  502  0.00000000000E+00  0.00000000000E+00  0.17007064253E+04  0.17007064253E+04  0.00000000000E+00 0.  1.
         21   -1    0    0  501  503 -0.00000000000E+00 -0.00000000000E+00 -0.36870418213E+03  0.36870418213E+03  0.00000000000E+00 0.  1.
    9000005    1    1    2  501    0 -0.86292880911E+02 -0.69647399240E+02 -0.21515784143E+03  0.46753622132E+03  0.40000000000E+03 0.  1.
   -9000005    1    1    2    0  502  0.86292880911E+02  0.69647399240E+02  0.15471600846E+04  0.16018743861E+04  0.40000000000E+03 0.  1.
<mgrwt>
<rscale>  2 0.41508700E+03</rscale>
<asrwt>0</asrwt>
<pdfrwt beam="1">  1       21 0.26164714E+00 0.41508700E+03</pdfrwt>
<pdfrwt beam="2">  1       21 0.56723721E-01 0.41508700E+03</pdfrwt>
<totfact> 0.13350927E+02</totfact>
</mgrwt>
</event>
<event>
 4    1  0.4962426E-002  0.4951493E+03  0.7818608E-02  0.1015053E+00
         21   -1    0    0  503  502  0.00000000000E+00  0.00000000000E+00  0.79076181872E+03  0.79076181872E+03  0.00000000000E+00 0. -1.
         21   -1    0    0  501  503 -0.00000000000E+00 -0.00000000000E+00 -0.56851514336E+03  0.56851514336E+03  0.00000000000E+00 0. -1.
    9000005    1    1    2  501    0 -0.17232373139E+03 -0.23553634859E+03 -0.34713563143E+03  0.60471149031E+03  0.40000000000E+03 0. -1.
   -9000005    1    1    2    0  502  0.17232373139E+03  0.23553634859E+03  0.56938230678E+03  0.75456547177E+03  0.40000000000E+03 0. -1.
<mgrwt>
<rscale>  2 0.49514931E+03</rscale>
<asrwt>0</asrwt>
<pdfrwt beam="1">  1       21 0.12165567E+00 0.49514931E+03</pdfrwt>
<pdfrwt beam="2">  1       21 0.87463867E-01 0.49514931E+03</pdfrwt>
<totfact> 0.46910421E+02</totfact>
</mgrwt>
</event>
<event>
 4    1  0.4962426E-002  0.5189070E+03  0.7818608E-02  0.1008958E+00
         21   -1    0    0  503  502  0.00000000000E+00  0.00000000000E+00  0.34786750379E+03  0.34786750379E+03  0.00000000000E+00 0. -1.
         21   -1    0    0  501  503 -0.00000000000E+00 -0.00000000000E+00 -0.13983828912E+04  0.13983828912E+04  0.00000000000E+00 0.  1.
    9000005    1    1    2  501    0 -0.32347488052E+03  0.68032692723E+02 -0.11086678343E+04  0.12240950995E+04  0.40000000000E+03 0.  1.
   -9000005    1    1    2    0  502  0.32347488052E+03 -0.68032692723E+02  0.58152446906E+02  0.52215529557E+03  0.40000000000E+03 0. -1.
<mgrwt>
<rscale>  2 0.51890697E+03</rscale>
<asrwt>0</asrwt>
<pdfrwt beam="1">  1       21 0.53518078E-01 0.51890697E+03</pdfrwt>
<pdfrwt beam="2">  1       21 0.21513583E+00 0.51890697E+03</pdfrwt>
<totfact> 0.27923495E+02</totfact>
</mgrwt>
</event>
<event>
 4    1  0.4962426E-002  0.4121354E+03  0.7818608E-02  0.1039657E+00
         21   -1    0    0  501  502  0.00000000000E+00  0.00000000000E+00  0.10349668303E+04  0.10349668303E+04  0.00000000000E+00 0. -1.
         21   -1    0    0  502  503 -0.00000000000E+00 -0.00000000000E+00 -0.17515174411E+03  0.17515174411E+03  0.00000000000E+00 0. -1.
    9000005    1    1    2  501    0 -0.24372608263E+02  0.96237003155E+02  0.58177792869E+03  0.71296643899E+03  0.40000000000E+03 0.  1.
   -9000005    1    1    2    0  503  0.24372608263E+02 -0.96237003155E+02  0.27803715752E+03  0.49715213544E+03  0.40000000000E+03 0.  1.
<mgrwt>
<rscale>  2 0.41213540E+03</rscale>
<asrwt>0</asrwt>
<pdfrwt beam="1">  1       21 0.15922566E+00 0.41213540E+03</pdfrwt>
<pdfrwt beam="2">  1       21 0.26946423E-01 0.41213540E+03</pdfrwt>
<totfact> 0.29224657E+03</totfact>
</mgrwt>
</event>
<event>
 4    1  0.4962426E-002  0.4456166E+03  0.7818608E-02  0.1029037E+00
         21   -1    0    0  503  502  0.00000000000E+00  0.00000000000E+00  0.22204531836E+03  0.22204531836E+03  0.00000000000E+00 0.  1.
         21   -1    0    0  501  503 -0.00000000000E+00 -0.00000000000E+00 -0.90327265497E+03  0.90327265497E+03  0.00000000000E+00 0.  1.
    9000005    1    1    2  501    0  0.17266013709E+03 -0.93609144146E+02 -0.39670529322E+03  0.59661485439E+03  0.40000000000E+03 0.  1.
   -9000005    1    1    2    0  502 -0.17266013709E+03  0.93609144146E+02 -0.28452204339E+03  0.52870311894E+03  0.40000000000E+03 0.  1.
<mgrwt>
<rscale>  2 0.44561665E+03</rscale>
<asrwt>0</asrwt>
<pdfrwt beam="1">  1       21 0.34160818E-01 0.44561665E+03</pdfrwt>
<pdfrwt beam="2">  1       21 0.13896502E+00 0.44561665E+03</pdfrwt>
<totfact> 0.26014988E+03</totfact>
</mgrwt>
</event>
<event>
 4    1  0.4962426E-002  0.4495492E+03  0.7818608E-02  0.1027857E+00
         21   -1    0    0  501  502  0.00000000000E+00  0.00000000000E+00  0.11558673125E+03  0.11558673125E+03  0.00000000000E+00 0.  1.
         21   -1    0    0  502  503 -0.00000000000E+00 -0.00000000000E+00 -0.25109977130E+04  0.25109977130E+04  0.00000000000E+00 0.  1.
    9000005    1    1    2  501    0  0.17511890341E+03  0.10690112570E+03 -0.47397068550E+03  0.65325545671E+03  0.40000000000E+03 0.  1.
   -9000005    1    1    2    0  503 -0.17511890341E+03 -0.10690112570E+03 -0.19214402962E+04  0.19733289875E+04  0.40000000000E+03 0.  1.
<mgrwt>
<rscale>  2 0.44954920E+03</rscale>
<asrwt>0</asrwt>
<pdfrwt beam="1">  1       21 0.17782573E-01 0.44954920E+03</pdfrwt>
<pdfrwt beam="2">  1       21 0.38630736E+00 0.44954920E+03</pdfrwt>
<totfact> 0.23319399E+02</totfact>
</mgrwt>
</event>
<event>
 4    1  0.4962426E-002  0.5832390E+03  0.7818608E-02  0.9940803E-01
         21   -1    0    0  501  502  0.00000000000E+00  0.00000000000E+00  0.28122271545E+03  0.28122271545E+03  0.00000000000E+00 0. -1.
         21   -1    0    0  502  503 -0.00000000000E+00 -0.00000000000E+00 -0.12991166834E+04  0.12991166834E+04  0.00000000000E+00 0.  1.
    9000005    1    1    2  501    0  0.41887299168E+03 -0.68652521277E+02 -0.30153121600E+03  0.65657354962E+03  0.40000000000E+03 0. -1.
   -9000005    1    1    2    0  503 -0.41887299168E+03  0.68652521277E+02 -0.71636275198E+03  0.92376584926E+03  0.40000000000E+03 0.  1.
<mgrwt>
<rscale>  2 0.58323902E+03</rscale>
<asrwt>0</asrwt>
<pdfrwt beam="1">  1       21 0.43265033E-01 0.58323902E+03</pdfrwt>
<pdfrwt beam="2">  1       21 0.19986411E+00 0.58323902E+03</pdfrwt>
<totfact> 0.53920058E+02</totfact>
</mgrwt>
</event>
<event>
 4    1  0.4962426E-002  0.5231505E+03  0.7818608E-02  0.1007907E+00
         21   -1    0    0  501  502  0.00000000000E+00  0.00000000000E+00  0.13167325303E+04  0.13167325303E+04  0.00000000000E+00 0.  1.
         21   -1    0    0  502  503 -0.00000000000E+00 -0.00000000000E+00 -0.37895750528E+03  0.37895750528E+03  0.00000000000E+00 0. -1.
    9000005    1    1    2  501    0 -0.26052960545E+03  0.21403440069E+03  0.10385955289E+04  0.11629131836E+04  0.40000000000E+03 0.  1.
   -9000005    1    1    2    0  503  0.26052960545E+03 -0.21403440069E+03 -0.10082050386E+03  0.53277685197E+03  0.40000000000E+03 0. -1.
<mgrwt>
<rscale>  2 0.52315046E+03</rscale>
<asrwt>0</asrwt>
<pdfrwt beam="1">  1       21 0.20257423E+00 0.52315046E+03</pdfrwt>
<pdfrwt beam="2">  1       21 0.58301155E-01 0.52315046E+03</pdfrwt>
<totfact> 0.27992665E+02</totfact>
</mgrwt>
</event>
<event>
 4    1  0.4962426E-002  0.5548665E+03  0.7818608E-02  0.1000374E+00
         21   -1    0    0  501  502  0.00000000000E+00  0.00000000000E+00  0.59965747076E+03  0.59965747076E+03  0.00000000000E+00 0. -1.
         21   -1    0    0  502  503 -0.00000000000E+00 -0.00000000000E+00 -0.84187646222E+03  0.84187646222E+03  0.00000000000E+00 0. -1.
    9000005    1    1    2  501    0  0.18286668461E+03  0.33828474275E+03  0.32909401379E+03  0.64511988144E+03  0.40000000000E+03 0. -1.
   -9000005    1    1    2    0  503 -0.18286668461E+03 -0.33828474275E+03 -0.57131300525E+03  0.79641405154E+03  0.40000000000E+03 0. -1.
<mgrwt>
<rscale>  2 0.55486646E+03</rscale>
<asrwt>0</asrwt>
<pdfrwt beam="1">  1       21 0.92254996E-01 0.55486646E+03</pdfrwt>
<pdfrwt beam="2">  1       21 0.12951946E+00 0.55486646E+03</pdfrwt>
<totfact> 0.34331594E+02</totfact>
</mgrwt>
</event>
<event>
 4    1  0.4962426E-002  0.5445582E+03  0.7818608E-02  0.1002761E+00
         21   -1    0    0  501  502  0.00000000000E+00  0.00000000000E+00  0.18729367777E+04  0.18729367777E+04  0.00000000000E+00 0. -1.
         21   -1    0    0  502  503 -0.00000000000E+00 -0.00000000000E+00 -0.28032614270E+03  0.28032614270E+03  0.00000000000E+00 0.  1.
    9000005    1    1    2  501    0  0.21657683947E+03  0.29939623055E+03  0.15065481210E+04  0.16019459639E+04  0.40000000000E+03 0. -1.
   -9000005    1    1    2    0  503 -0.21657683947E+03 -0.29939623055E+03  0.86062514019E+02  0.55131695655E+03  0.40000000000E+03 0.  1.
<mgrwt>
<rscale>  2 0.54455820E+03</rscale>
<asrwt>0</asrwt>
<pdfrwt beam="1">  1       21 0.28814411E+00 0.54455820E+03</pdfrwt>
<pdfrwt beam="2">  1       21 0.43127100E-01 0.54455820E+03</pdfrwt>
<totfact> 0.15349919E+02</totfact>
</mgrwt>
</event>
<event>
 4    1  0.4962426E-002  0.4199108E+03  0.7818608E-02  0.1037095E+00
         21   -1    0    0  501  502  0.00000000000E+00  0.00000000000E+00  0.16179241636E+03  0.16179241636E+03  0.00000000000E+00 0.  1.
         21   -1    0    0  502  503 -0.00000000000E+00 -0.00000000000E+00 -0.14260149130E+04  0.14260149130E+04  0.00000000000E+00 0.  1.
    9000005    1    1    2  501    0  0.12774420001E+03  0.25458205017E+01 -0.24663329637E+03  0.48698361853E+03  0.40000000000E+03 0.  1.
   -9000005    1    1    2    0  503 -0.12774420001E+03 -0.25458205017E+01 -0.10175892003E+04  0.11008237109E+04  0.40000000000E+03 0.  1.
<mgrwt>
<rscale>  2 0.41991078E+03</rscale>
<asrwt>0</asrwt>
<pdfrwt beam="1">  1       21 0.24891141E-01 0.41991078E+03</pdfrwt>
<pdfrwt beam="2">  1       21 0.21938691E+00 0.41991078E+03</pdfrwt>
<totfact> 0.13107359E+03</totfact>
</mgrwt>
</event>
<event>
 4    1  0.4962426E-002  0.4270757E+03  0.7818608E-02  0.1034788E+00
         21   -1    0    0  501  502  0.00000000000E+00  0.00000000000E+00  0.18795980736E+03  0.18795980736E+03  0.00000000000E+00 0. -1.
         21   -1    0    0  502  503 -0.00000000000E+00 -0.00000000000E+00 -0.97474667793E+03  0.97474667793E+03  0.00000000000E+00 0. -1.
    9000005    1    1    2  501    0  0.96280298496E+02 -0.11455915529E+03 -0.43227436988E+03  0.60766341571E+03  0.40000000000E+03 0. -1.
   -9000005    1    1    2    0  503 -0.96280298496E+02  0.11455915529E+03 -0.35451250069E+03  0.55504306958E+03  0.40000000000E+03 0. -1.
<mgrwt>
<rscale>  2 0.42707575E+03</rscale>
<asrwt>0</asrwt>
<pdfrwt beam="1">  1       21 0.28916893E-01 0.42707575E+03</pdfrwt>
<pdfrwt beam="2">  1       21 0.14996103E+00 0.42707575E+03</pdfrwt>
<totfact> 0.29794551E+03</totfact>
</mgrwt>
</event>
<event>
 4    1  0.4962426E-002  0.5399778E+03  0.7818608E-02  0.1003841E+00
         21   -1    0    0  501  502  0.00000000000E+00  0.00000000000E+00  0.12748488181E+04  0.12748488181E+04  0.00000000000E+00 0. -1.
         21   -1    0    0  502  503 -0.00000000000E+00 -0.00000000000E+00 -0.31528205780E+03  0.31528205780E+03  0.00000000000E+00 0. -1.
    9000005    1    1    2  501    0 -0.36270545846E+03 -0.45550293959E+01  0.89639525079E+03  0.10464704695E+04  0.40000000000E+03 0. -1.
   -9000005    1    1    2    0  503  0.36270545846E+03  0.45550293959E+01  0.63171509531E+02  0.54366040642E+03  0.40000000000E+03 0. -1.
<mgrwt>
<rscale>  2 0.53997778E+03</rscale>
<asrwt>0</asrwt>
<pdfrwt beam="1">  1       21 0.19613058E+00 0.53997778E+03</pdfrwt>
<pdfrwt beam="2">  1       21 0.48504933E-01 0.53997778E+03</pdfrwt>
<totfact> 0.45660265E+02</totfact>
</mgrwt>
</event>
<event>
 4    1  0.4962426E-002  0.4379305E+03  0.7818608E-02  0.1031384E+00
         21   -1    0    0  503  502  0.00000000000E+00  0.00000000000E+00  0.54238977741E+03  0.54238977741E+03  0.00000000000E+00 0.  1.
         21   -1    0    0  501  503 -0.00000000000E+00 -0.00000000000E+00 -0.38161345198E+03  0.38161345198E+03  0.00000000000E+00 0.  1.
    9000005    1    1    2  501    0  0.93132427455E+02 -0.15201794944E+03 -0.44810459294E+02  0.44021708651E+03  0.40000000000E+03 0.  1.
   -9000005    1    1    2    0  502 -0.93132427455E+02  0.15201794944E+03  0.20558678472E+03  0.48378614288E+03  0.40000000000E+03 0.  1.
<mgrwt>
<rscale>  2 0.43793048E+03</rscale>
<asrwt>0</asrwt>
<pdfrwt beam="1">  1       21 0.83444581E-01 0.43793048E+03</pdfrwt>
<pdfrwt beam="2">  1       21 0.58709762E-01 0.43793048E+03</pdfrwt>
<totfact> 0.29660259E+03</totfact>
</mgrwt>
</event>
<event>
 4    1  0.4962426E-002  0.4734707E+03  0.7818608E-02  0.1020945E+00
         21   -1    0    0  501  502  0.00000000000E+00  0.00000000000E+00  0.11296367927E+04  0.11296367927E+04  0.00000000000E+00 0.  1.
         21   -1    0    0  502  503 -0.00000000000E+00 -0.00000000000E+00 -0.20265146265E+03  0.20265146265E+03  0.00000000000E+00 0.  1.
    9000005    1    1    2  501    0 -0.25266926456E+03  0.18241602222E+02  0.36755682693E+03  0.59939347204E+03  0.40000000000E+03 0.  1.
   -9000005    1    1    2    0  503  0.25266926456E+03 -0.18241602222E+02  0.55942850317E+03  0.73289478335E+03  0.40000000000E+03 0.  1.
<mgrwt>
<rscale>  2 0.47347071E+03</rscale>
<asrwt>0</asrwt>
<pdfrwt beam="1">  1       21 0.17379027E+00 0.47347071E+03</pdfrwt>
<pdfrwt beam="2">  1       21 0.31177149E-01 0.47347071E+03</pdfrwt>
<totfact> 0.16682539E+03</totfact>
</mgrwt>
</event>
<event>
 4    1  0.4962426E-002  0.4584481E+03  0.7818608E-02  0.1025232E+00
         21   -1    0    0  503  502  0.00000000000E+00  0.00000000000E+00  0.67017064323E+03  0.67017064323E+03  0.00000000000E+00 0. -1.
         21   -1    0    0  501  503 -0.00000000000E+00 -0.00000000000E+00 -0.60176586697E+03  0.60176586697E+03  0.00000000000E+00 0. -1.
    9000005    1    1    2  501    0  0.13728768377E+03 -0.17699354646E+03 -0.40587868217E+03  0.61230068450E+03  0.40000000000E+03 0. -1.
   -9000005    1    1    2    0  502 -0.13728768377E+03  0.17699354646E+03  0.47428345843E+03  0.65963582569E+03  0.40000000000E+03 0. -1.
<mgrwt>
<rscale>  2 0.45844806E+03</rscale>
<asrwt>0</asrwt>
<pdfrwt beam="1">  1       21 0.10310318E+00 0.45844806E+03</pdfrwt>
<pdfrwt beam="2">  1       21 0.92579364E-01 0.45844806E+03</pdfrwt>
<totfact> 0.62951041E+02</totfact>
</mgrwt>
</event>
<event>
 4    1  0.4962426E-002  0.5223564E+03  0.7818608E-02  0.1008103E+00
         21   -1    0    0  503  502  0.00000000000E+00  0.00000000000E+00  0.34124380581E+03  0.34124380581E+03  0.00000000000E+00 0.  1.
         21   -1    0    0  501  503 -0.00000000000E+00 -0.00000000000E+00 -0.92486861757E+03  0.92486861757E+03  0.00000000000E+00 0.  1.
    9000005    1    1    2  501    0 -0.14154633403E+03  0.30466515772E+03 -0.52480128979E+03  0.74045433132E+03  0.40000000000E+03 0.  1.
   -9000005    1    1    2    0  502  0.14154633403E+03 -0.30466515772E+03 -0.58823521973E+02  0.52565809205E+03  0.40000000000E+03 0.  1.
<mgrwt>
<rscale>  2 0.52235641E+03</rscale>
<asrwt>0</asrwt>
<pdfrwt beam="1">  1       21 0.52499048E-01 0.52235641E+03</pdfrwt>
<pdfrwt beam="2">  1       21 0.14228748E+00 0.52235641E+03</pdfrwt>
<totfact> 0.97056801E+02</totfact>
</mgrwt>
</event>
<event>
 4    1  0.4962426E-002  0.4219296E+03  0.7818608E-02  0.1036440E+00
         21   -1    0    0  501  502  0.00000000000E+00  0.00000000000E+00  0.88264513957E+03  0.88264513957E+03  0.00000000000E+00 0.  1.
         21   -1    0    0  502  503 -0.00000000000E+00 -0.00000000000E+00 -0.25988141580E+03  0.25988141580E+03  0.00000000000E+00 0. -1.
    9000005    1    1    2  501    0 -0.10907233825E+03  0.78280585300E+02  0.58169151486E+03  0.71860256294E+03  0.40000000000E+03 0.  1.
   -9000005    1    1    2    0  503  0.10907233825E+03 -0.78280585300E+02  0.41072208911E+02  0.42392399242E+03  0.40000000000E+03 0. -1.
<mgrwt>
<rscale>  2 0.42192964E+03</rscale>
<asrwt>0</asrwt>
<pdfrwt beam="1">  1       21 0.13579156E+00 0.42192964E+03</pdfrwt>
<pdfrwt beam="2">  1       21 0.39981757E-01 0.42192964E+03</pdfrwt>
<totfact> 0.20259928E+03</totfact>
</mgrwt>
</event>
<event>
 4    1  0.4962426E-002  0.8082303E+03  0.7818608E-02  0.9548180E-01
         21   -1    0    0  503  502  0.00000000000E+00  0.00000000000E+00  0.76745023683E+03  0.76745023683E+03  0.00000000000E+00 0.  1.
         21   -1    0    0  501  503 -0.00000000000E+00 -0.00000000000E+00 -0.85133257016E+03  0.85133257016E+03  0.00000000000E+00 0. -1.
    9000005    1    1    2  501    0  0.70104786427E+03  0.42049411995E+02 -0.31012202191E+02  0.80882508476E+03  0.40000000000E+03 0. -1.
   -9000005    1    1    2    0  502 -0.70104786427E+03 -0.42049411995E+02 -0.52870131140E+02  0.80995772224E+03  0.40000000000E+03 0.  1.
<mgrwt>
<rscale>  2 0.80823033E+03</rscale>
<asrwt>0</asrwt>
<pdfrwt beam="1">  1       21 0.11806927E+00 0.80823033E+03</pdfrwt>
<pdfrwt beam="2">  1       21 0.13097424E+00 0.80823033E+03</pdfrwt>
<totfact> 0.16683572E+02</totfact>
</mgrwt>
</event>
<event>
 4    1  0.4962426E-002  0.5116499E+03  0.7818608E-02  0.1010782E+00
         21   -1    0    0  501  502  0.00000000000E+00  0.00000000000E+00  0.28278222690E+03  0.28278222690E+03  0.00000000000E+00 0.  1.
         21   -1    0    0  502  503 -0.00000000000E+00 -0.00000000000E+00 -0.96386984300E+03  0.96386984300E+03  0.00000000000E+00 0. -1.
    9000005    1    1    2  501    0  0.10120430912E+03 -0.30256129167E+03 -0.21658379736E+03  0.55560254561E+03  0.40000000000E+03 0.  1.
   -9000005    1    1    2    0  503 -0.10120430912E+03  0.30256129167E+03 -0.46450381874E+03  0.69104952430E+03  0.40000000000E+03 0. -1.
<mgrwt>
<rscale>  2 0.51164993E+03</rscale>
<asrwt>0</asrwt>
<pdfrwt beam="1">  1       21 0.43504958E-01 0.51164993E+03</pdfrwt>
<pdfrwt beam="2">  1       21 0.14828767E+00 0.51164993E+03</pdfrwt>
<totfact> 0.12978144E+03</totfact>
</mgrwt>
</event>
<event>
 4    1  0.4962426E-002  0.4179761E+03  0.7818608E-02  0.1037727E+00
         21   -1    0    0  503  502  0.00000000000E+00  0.00000000000E+00  0.31865745240E+03  0.31865745240E+03  0.00000000000E+00 0. -1.
         21   -1    0    0  501  503 -0.00000000000E+00 -0.00000000000E+00 -0.73604842801E+03  0.73604842801E+03  0.00000000000E+00 0. -1.
    9000005    1    1    2  501    0  0.58130552441E+02  0.10641816966E+03 -0.47507082305E+03  0.63276873728E+03  0.40000000000E+03 0. -1.
   -9000005    1    1    2    0  502 -0.58130552441E+02 -0.10641816966E+03  0.57679847436E+02  0.42193714314E+03  0.40000000000E+03 0. -1.
<mgrwt>
<rscale>  2 0.41797606E+03</rscale>
<asrwt>0</asrwt>
<pdfrwt beam="1">  1       21 0.49024224E-01 0.41797606E+03</pdfrwt>
<pdfrwt beam="2">  1       21 0.11323822E+00 0.41797606E+03</pdfrwt>
<totfact> 0.21094295E+03</totfact>
</mgrwt>
</event>
<event>
 4    1  0.4962426E-002  0.4562453E+03  0.7818608E-02  0.1025876E+00
         21   -1    0    0  503  502  0.00000000000E+00  0.00000000000E+00  0.53198701976E+03  0.53198701976E+03  0.00000000000E+00 0.  1.
         21   -1    0    0  501  503 -0.00000000000E+00 -0.00000000000E+00 -0.50081359860E+03  0.50081359860E+03  0.00000000000E+00 0. -1.
    9000005    1    1    2  501    0 -0.48713731031E+02 -0.21397844074E+03 -0.22590793626E+03  0.50911118270E+03  0.40000000000E+03 0. -1.
   -9000005    1    1    2    0  502  0.48713731031E+02  0.21397844074E+03  0.25708135741E+03  0.52368943566E+03  0.40000000000E+03 0.  1.
<mgrwt>
<rscale>  2 0.45624533E+03</rscale>
<asrwt>0</asrwt>
<pdfrwt beam="1">  1       21 0.81844157E-01 0.45624533E+03</pdfrwt>
<pdfrwt beam="2">  1       21 0.77048246E-01 0.45624533E+03</pdfrwt>
<totfact> 0.16779343E+03</totfact>
</mgrwt>
</event>
<event>
 4    1  0.4962426E-002  0.4286252E+03  0.7818608E-02  0.1034295E+00
         21   -1    0    0  501  502  0.00000000000E+00  0.00000000000E+00  0.34139959115E+03  0.34139959115E+03  0.00000000000E+00 0.  1.
         21   -1    0    0  502  503 -0.00000000000E+00 -0.00000000000E+00 -0.70659734853E+03  0.70659734853E+03  0.00000000000E+00 0.  1.
    9000005    1    1    2  501    0  0.10338686882E+03  0.11415229488E+03  0.73255863719E+02  0.43484021507E+03  0.40000000000E+03 0.  1.
   -9000005    1    1    2    0  503 -0.10338686882E+03 -0.11415229488E+03 -0.43845362110E+03  0.61315672461E+03  0.40000000000E+03 0.  1.
<mgrwt>
<rscale>  2 0.42862523E+03</rscale>
<asrwt>0</asrwt>
<pdfrwt beam="1">  1       21 0.52523014E-01 0.42862523E+03</pdfrwt>
<pdfrwt beam="2">  1       21 0.10870728E+00 0.42862523E+03</pdfrwt>
<totfact> 0.20070627E+03</totfact>
</mgrwt>
</event>
<event>
 4    1  0.4962426E-002  0.4343582E+03  0.7818608E-02  0.1032492E+00
         21   -1    0    0  503  502  0.00000000000E+00  0.00000000000E+00  0.10630828278E+04  0.10630828278E+04  0.00000000000E+00 0. -1.
         21   -1    0    0  501  503 -0.00000000000E+00 -0.00000000000E+00 -0.25401237496E+03  0.25401237496E+03  0.00000000000E+00 0. -1.
    9000005    1    1    2  501    0 -0.12671042211E+03  0.11230117565E+03  0.43037173229E+02  0.43648514683E+03  0.40000000000E+03 0. -1.
   -9000005    1    1    2    0  502  0.12671042211E+03 -0.11230117565E+03  0.76603327961E+03  0.88061005592E+03  0.40000000000E+03 0. -1.
<mgrwt>
<rscale>  2 0.43435825E+03</rscale>
<asrwt>0</asrwt>
<pdfrwt beam="1">  1       21 0.16355120E+00 0.43435825E+03</pdfrwt>
<pdfrwt beam="2">  1       21 0.39078827E-01 0.43435825E+03</pdfrwt>
<totfact> 0.12756184E+03</totfact>
</mgrwt>
</event>
<event>
 4    1  0.4962426E-002  0.6149518E+03  0.7818608E-02  0.9874862E-01
         21   -1    0    0  501  502  0.00000000000E+00  0.00000000000E+00  0.19539288874E+04  0.19539288874E+04  0.00000000000E+00 0.  1.
         21   -1    0    0  502  503 -0.00000000000E+00 -0.00000000000E+00 -0.24569061592E+03  0.24569061592E+03  0.00000000000E+00 0. -1.
    9000005    1    1    2  501    0 -0.37872371631E+03  0.27337531748E+03  0.13608158140E+04  0.14933135629E+04  0.40000000000E+03 0.  1.
   -9000005    1    1    2    0  503  0.37872371631E+03 -0.27337531748E+03  0.34742245745E+03  0.70630594040E+03  0.40000000000E+03 0. -1.
<mgrwt>
<rscale>  2 0.61495180E+03</rscale>
<asrwt>0</asrwt>
<pdfrwt beam="1">  1       21 0.30060443E+00 0.61495180E+03</pdfrwt>
<pdfrwt beam="2">  1       21 0.37798558E-01 0.61495180E+03</pdfrwt>
<totfact> 0.16397302E+02</totfact>
</mgrwt>
</event>
<event>
 4    1  0.4962426E-002  0.4443851E+03  0.7818608E-02  0.1029410E+00
         21   -1    0    0  501  502  0.00000000000E+00  0.00000000000E+00  0.45774739093E+03  0.45774739093E+03  0.00000000000E+00 0.  1.
         21   -1    0    0  502  503 -0.00000000000E+00 -0.00000000000E+00 -0.47641635017E+03  0.47641635017E+03  0.00000000000E+00 0.  1.
    9000005    1    1    2  501    0 -0.15723551689E+03 -0.11293837422E+03  0.13422208732E+03  0.46421293914E+03  0.40000000000E+03 0.  1.
   -9000005    1    1    2    0  503  0.15723551689E+03  0.11293837422E+03 -0.15289104657E+03  0.46995080196E+03  0.40000000000E+03 0.  1.
<mgrwt>
<rscale>  2 0.44438506E+03</rscale>
<asrwt>0</asrwt>
<pdfrwt beam="1">  1       21 0.70422675E-01 0.44438506E+03</pdfrwt>
<pdfrwt beam="2">  1       21 0.73294823E-01 0.44438506E+03</pdfrwt>
<totfact> 0.26635847E+03</totfact>
</mgrwt>
</event>
<event>
 4    1  0.4962426E-002  0.4327035E+03  0.7818608E-02  0.1033009E+00
         21   -1    0    0  503  502  0.00000000000E+00  0.00000000000E+00  0.39221837099E+03  0.39221837099E+03  0.00000000000E+00 0.  1.
         21   -1    0    0  501  503 -0.00000000000E+00 -0.00000000000E+00 -0.48845708342E+03  0.48845708342E+03  0.00000000000E+00 0.  1.
    9000005    1    1    2  501    0  0.19425686472E+02 -0.16387483985E+03 -0.11446760234E+03  0.44758815044E+03  0.40000000000E+03 0.  1.
   -9000005    1    1    2    0  502 -0.19425686472E+02  0.16387483985E+03  0.18228889918E+02  0.43308730397E+03  0.40000000000E+03 0.  1.
<mgrwt>
<rscale>  2 0.43270350E+03</rscale>
<asrwt>0</asrwt>
<pdfrwt beam="1">  1       21 0.60341288E-01 0.43270350E+03</pdfrwt>
<pdfrwt beam="2">  1       21 0.75147244E-01 0.43270350E+03</pdfrwt>
<totfact> 0.35624517E+03</totfact>
</mgrwt>
</event>
<event>
 4    1  0.4962426E-002  0.4313824E+03  0.7818608E-02  0.1033424E+00
         21   -1    0    0  503  502  0.00000000000E+00  0.00000000000E+00  0.56855646658E+03  0.56855646658E+03  0.00000000000E+00 0. -1.
         21   -1    0    0  501  503 -0.00000000000E+00 -0.00000000000E+00 -0.58704467112E+03  0.58704467112E+03  0.00000000000E+00 0.  1.
    9000005    1    1    2  501    0  0.96742358135E+02  0.12935113608E+03 -0.39358126278E+03  0.58394949325E+03  0.40000000000E+03 0.  1.
   -9000005    1    1    2    0  502 -0.96742358135E+02 -0.12935113608E+03  0.37509305823E+03  0.57165164444E+03  0.40000000000E+03 0. -1.
<mgrwt>
<rscale>  2 0.43138243E+03</rscale>
<asrwt>0</asrwt>
<pdfrwt beam="1">  1       21 0.87470225E-01 0.43138243E+03</pdfrwt>
<pdfrwt beam="2">  1       21 0.90314565E-01 0.43138243E+03</pdfrwt>
<totfact> 0.10020839E+03</totfact>
</mgrwt>
</event>
<event>
 4    1  0.4962426E-002  0.4277970E+03  0.7818608E-02  0.1034558E+00
         21   -1    0    0  503  502  0.00000000000E+00  0.00000000000E+00  0.13543227421E+04  0.13543227421E+04  0.00000000000E+00 0.  1.
         21   -1    0    0  501  503 -0.00000000000E+00 -0.00000000000E+00 -0.19738110708E+03  0.19738110708E+03  0.00000000000E+00 0.  1.
    9000005    1    1    2  501    0 -0.14824992091E+03  0.32127870122E+02  0.14276031554E+03  0.45098863265E+03  0.40000000000E+03 0.  1.
   -9000005    1    1    2    0  502  0.14824992091E+03 -0.32127870122E+02  0.10141813195E+04  0.11007152165E+04  0.40000000000E+03 0.  1.
<mgrwt>
<rscale>  2 0.42779696E+03</rscale>
<asrwt>0</asrwt>
<pdfrwt beam="1">  1       21 0.20835734E+00 0.42779696E+03</pdfrwt>
<pdfrwt beam="2">  1       21 0.30366325E-01 0.42779696E+03</pdfrwt>
<totfact> 0.10409292E+03</totfact>
</mgrwt>
</event>
<event>
 4    1  0.4962426E-002  0.5848348E+03  0.7818608E-02  0.9937378E-01
         21   -1    0    0  503  502  0.00000000000E+00  0.00000000000E+00  0.12640827279E+04  0.12640827279E+04  0.00000000000E+00 0. -1.
         21   -1    0    0  501  503 -0.00000000000E+00 -0.00000000000E+00 -0.28714123878E+03  0.28714123878E+03  0.00000000000E+00 0.  1.
    9000005    1    1    2  501    0 -0.40553053083E+03  0.13257725863E+03  0.30218390726E+03  0.65829085878E+03  0.40000000000E+03 0.  1.
   -9000005    1    1    2    0  502  0.40553053083E+03 -0.13257725863E+03  0.67475758189E+03  0.89293310794E+03  0.40000000000E+03 0. -1.
<mgrwt>
<rscale>  2 0.58483480E+03</rscale>
<asrwt>0</asrwt>
<pdfrwt beam="1">  1       21 0.19447426E+00 0.58483480E+03</pdfrwt>
<pdfrwt beam="2">  1       21 0.44175576E-01 0.58483480E+03</pdfrwt>
<totfact> 0.56121020E+02</totfact>
</mgrwt>
</event>
<event>
 4    1  0.4962426E-002  0.5316543E+03  0.7818608E-02  0.1005832E+00
         21   -1    0    0  501  502  0.00000000000E+00  0.00000000000E+00  0.15225862263E+04  0.15225862263E+04  0.00000000000E+00 0. -1.
         21   -1    0    0  502  503 -0.00000000000E+00 -0.00000000000E+00 -0.26851350340E+03  0.26851350340E+03  0.00000000000E+00 0. -1.
    9000005    1    1    2  501    0 -0.22477465581E+03  0.26857514758E+03  0.12951836651E+03  0.54720312779E+03  0.40000000000E+03 0. -1.
   -9000005    1    1    2    0  503  0.22477465581E+03 -0.26857514758E+03  0.11245543564E+04  0.12438966019E+04  0.40000000000E+03 0. -1.
<mgrwt>
<rscale>  2 0.53165426E+03</rscale>
<asrwt>0</asrwt>
<pdfrwt beam="1">  1       21 0.23424403E+00 0.53165426E+03</pdfrwt>
<pdfrwt beam="2">  1       21 0.41309771E-01 0.53165426E+03</pdfrwt>
<totfact> 0.36247856E+02</totfact>
</mgrwt>
</event>
<event>
 4    1  0.4962426E-002  0.5308679E+03  0.7818608E-02  0.1006022E+00
         21   -1    0    0  503  502  0.00000000000E+00  0.00000000000E+00  0.17083718513E+04  0.17083718513E+04  0.00000000000E+00 0.  1.
         21   -1    0    0  501  503 -0.00000000000E+00 -0.00000000000E+00 -0.22272624741E+03  0.22272624741E+03  0.00000000000E+00 0.  1.
    9000005    1    1    2  501    0 -0.27594791146E+03 -0.21371360864E+03  0.25111319189E+03  0.58726364735E+03  0.40000000000E+03 0.  1.
   -9000005    1    1    2    0  502  0.27594791146E+03  0.21371360864E+03  0.12345324120E+04  0.13438344513E+04  0.40000000000E+03 0.  1.
<mgrwt>
<rscale>  2 0.53086793E+03</rscale>
<asrwt>0</asrwt>
<pdfrwt beam="1">  1       21 0.26282643E+00 0.53086793E+03</pdfrwt>
<pdfrwt beam="2">  1       21 0.34265578E-01 0.53086793E+03</pdfrwt>
<totfact> 0.35369172E+02</totfact>
</mgrwt>
</event>
<event>
 4    1  0.4962426E-002  0.1117918E+04  0.7818608E-02  0.9187902E-01
         21   -1    0    0  503  502  0.00000000000E+00  0.00000000000E+00  0.13556240583E+04  0.13556240583E+04  0.00000000000E+00 0.  1.
         21   -1    0    0  501  503 -0.00000000000E+00 -0.00000000000E+00 -0.10517491348E+04  0.10517491348E+04  0.00000000000E+00 0. -1.
    9000005    1    1    2  501    0  0.10129678695E+04  0.25226301248E+03 -0.27101185665E+03  0.11502990735E+04  0.40000000000E+03 0. -1.
   -9000005    1    1    2    0  502 -0.10129678695E+04 -0.25226301248E+03  0.57488678015E+03  0.12570741196E+04  0.40000000000E+03 0.  1.
<mgrwt>
<rscale>  2 0.11179179E+04</rscale>
<asrwt>0</asrwt>
<pdfrwt beam="1">  1       21 0.20855755E+00 0.11179179E+04</pdfrwt>
<pdfrwt beam="2">  1       21 0.16180756E+00 0.11179179E+04</pdfrwt>
<totfact> 0.16897572E+01</totfact>
</mgrwt>
</event>
<event>
 4    1  0.4962426E-002  0.4466993E+03  0.7818608E-02  0.1028711E+00
         21   -1    0    0  503  502  0.00000000000E+00  0.00000000000E+00  0.66351117748E+03  0.66351117748E+03  0.00000000000E+00 0. -1.
         21   -1    0    0  501  503 -0.00000000000E+00 -0.00000000000E+00 -0.11993058711E+04  0.11993058711E+04  0.00000000000E+00 0. -1.
    9000005    1    1    2  501    0 -0.16459988257E+03 -0.11156695951E+03 -0.10741138073E+04  0.11632973734E+04  0.40000000000E+03 0. -1.
   -9000005    1    1    2    0  502  0.16459988257E+03  0.11156695951E+03  0.53831911372E+03  0.69951967520E+03  0.40000000000E+03 0. -1.
<mgrwt>
<rscale>  2 0.44669935E+03</rscale>
<asrwt>0</asrwt>
<pdfrwt beam="1">  1       21 0.10207864E+00 0.44669935E+03</pdfrwt>
<pdfrwt beam="2">  1       21 0.18450859E+00 0.44669935E+03</pdfrwt>
<totfact> 0.10623901E+02</totfact>
</mgrwt>
</event>
<event>
 4    1  0.4962426E-002  0.4404809E+03  0.7818608E-02  0.1030599E+00
         21   -1    0    0  501  502  0.00000000000E+00  0.00000000000E+00  0.18902397566E+04  0.18902397566E+04  0.00000000000E+00 0.  1.
         21   -1    0    0  502  503 -0.00000000000E+00 -0.00000000000E+00 -0.15249752432E+03  0.15249752432E+03  0.00000000000E+00 0.  1.
    9000005    1    1    2  501    0 -0.17522008602E+01  0.18444610548E+03  0.14528474071E+04  0.15181531624E+04  0.40000000000E+03 0.  1.
   -9000005    1    1    2    0  503  0.17522008602E+01 -0.18444610548E+03  0.28489482518E+03  0.52458411856E+03  0.40000000000E+03 0.  1.
<mgrwt>
<rscale>  2 0.44048091E+03</rscale>
<asrwt>0</asrwt>
<pdfrwt beam="1">  1       21 0.29080610E+00 0.44048091E+03</pdfrwt>
<pdfrwt beam="2">  1       21 0.23461159E-01 0.44048091E+03</pdfrwt>
<totfact> 0.53039486E+02</totfact>
</mgrwt>
</event>
<event>
 4    1  0.4962426E-002  0.4939625E+03  0.7818608E-02  0.1015367E+00
         21   -1    0    0  501  502  0.00000000000E+00  0.00000000000E+00  0.55748053118E+03  0.55748053118E+03  0.00000000000E+00 0. -1.
         21   -1    0    0  502  503 -0.00000000000E+00 -0.00000000000E+00 -0.47915862980E+03  0.47915862980E+03  0.00000000000E+00 0. -1.
    9000005    1    1    2  501    0 -0.21356179747E+03 -0.19593449962E+03 -0.11333622327E+03  0.50679785811E+03  0.40000000000E+03 0. -1.
   -9000005    1    1    2    0  503  0.21356179747E+03  0.19593449962E+03  0.19165812465E+03  0.52984130287E+03  0.40000000000E+03 0. -1.
<mgrwt>
<rscale>  2 0.49396252E+03</rscale>
<asrwt>0</asrwt>
<pdfrwt beam="1">  1       21 0.85766236E-01 0.49396252E+03</pdfrwt>
<pdfrwt beam="2">  1       21 0.73716712E-01 0.49396252E+03</pdfrwt>
<totfact> 0.16412848E+03</totfact>
</mgrwt>
</event>
<event>
 4    1  0.4962426E-002  0.4480720E+03  0.7818608E-02  0.1028299E+00
         21   -1    0    0  501  502  0.00000000000E+00  0.00000000000E+00  0.39311698592E+03  0.39311698592E+03  0.00000000000E+00 0. -1.
         21   -1    0    0  502  503 -0.00000000000E+00 -0.00000000000E+00 -0.68818622459E+03  0.68818622459E+03  0.00000000000E+00 0. -1.
    9000005    1    1    2  501    0 -0.94602002330E+02  0.17837879582E+03  0.12702417175E+03  0.46572918509E+03  0.40000000000E+03 0. -1.
   -9000005    1    1    2    0  503  0.94602002330E+02 -0.17837879582E+03 -0.42209341042E+03  0.61557402541E+03  0.40000000000E+03 0. -1.
<mgrwt>
<rscale>  2 0.44807202E+03</rscale>
<asrwt>0</asrwt>
<pdfrwt beam="1">  1       21 0.60479537E-01 0.44807202E+03</pdfrwt>
<pdfrwt beam="2">  1       21 0.10587480E+00 0.44807202E+03</pdfrwt>
<totfact> 0.15659735E+03</totfact>
</mgrwt>
</event>
<event>
 4    1  0.4962426E-002  0.5353789E+03  0.7818608E-02  0.1004936E+00
         21   -1    0    0  501  502  0.00000000000E+00  0.00000000000E+00  0.90151267840E+03  0.90151267840E+03  0.00000000000E+00 0.  1.
         21   -1    0    0  502  503 -0.00000000000E+00 -0.00000000000E+00 -0.41949109163E+03  0.41949109163E+03  0.00000000000E+00 0.  1.
    9000005    1    1    2  501    0  0.45994977795E+02 -0.35286689895E+03  0.56598309143E+03  0.77908115505E+03  0.40000000000E+03 0.  1.
   -9000005    1    1    2    0  503 -0.45994977795E+02  0.35286689895E+03 -0.83961504662E+02  0.54192261498E+03  0.40000000000E+03 0.  1.
<mgrwt>
<rscale>  2 0.53537892E+03</rscale>
<asrwt>0</asrwt>
<pdfrwt beam="1">  1       21 0.13869426E+00 0.53537892E+03</pdfrwt>
<pdfrwt beam="2">  1       21 0.64537092E-01 0.53537892E+03</pdfrwt>
<totfact> 0.65846743E+02</totfact>
</mgrwt>
</event>
<event>
 4    1  0.4962426E-002  0.4429050E+03  0.7818608E-02  0.1029859E+00
         21   -1    0    0  501  502  0.00000000000E+00  0.00000000000E+00  0.47142799408E+03  0.47142799408E+03  0.00000000000E+00 0.  1.
         21   -1    0    0  502  503 -0.00000000000E+00 -0.00000000000E+00 -0.42144584176E+03  0.42144584176E+03  0.00000000000E+00 0.  1.
    9000005    1    1    2  501    0  0.17933570607E+03 -0.63273609374E+02 -0.25252663343E+02  0.44362432544E+03  0.40000000000E+03 0.  1.
   -9000005    1    1    2    0  503 -0.17933570607E+03  0.63273609374E+02  0.75234815661E+02  0.44924951041E+03  0.40000000000E+03 0.  1.
<mgrwt>
<rscale>  2 0.44290501E+03</rscale>
<asrwt>0</asrwt>
<pdfrwt beam="1">  1       21 0.72527383E-01 0.44290501E+03</pdfrwt>
<pdfrwt beam="2">  1       21 0.64837822E-01 0.44290501E+03</pdfrwt>
<totfact> 0.32834964E+03</totfact>
</mgrwt>
</event>
<event>
 4    1  0.4962426E-002  0.4727058E+03  0.7818608E-02  0.1021159E+00
         21   -1    0    0  503  502  0.00000000000E+00  0.00000000000E+00  0.31227725915E+03  0.31227725915E+03  0.00000000000E+00 0. -1.
         21   -1    0    0  501  503 -0.00000000000E+00 -0.00000000000E+00 -0.79719815868E+03  0.79719815868E+03  0.00000000000E+00 0. -1.
    9000005    1    1    2  501    0 -0.18960273282E+03  0.16583607549E+03 -0.41999008706E+03  0.63233098410E+03  0.40000000000E+03 0. -1.
   -9000005    1    1    2    0  502  0.18960273282E+03 -0.16583607549E+03 -0.64930812474E+02  0.47714443373E+03  0.40000000000E+03 0. -1.
<mgrwt>
<rscale>  2 0.47270583E+03</rscale>
<asrwt>0</asrwt>
<pdfrwt beam="1">  1       21 0.48042656E-01 0.47270583E+03</pdfrwt>
<pdfrwt beam="2">  1       21 0.12264587E+00 0.47270583E+03</pdfrwt>
<totfact> 0.17621740E+03</totfact>
</mgrwt>
</event>
<event>
 4    1  0.4962426E-002  0.4923917E+03  0.7818608E-02  0.1015784E+00
         21   -1    0    0  501  502  0.00000000000E+00  0.00000000000E+00  0.12550952997E+04  0.12550952997E+04  0.00000000000E+00 0.  1.
         21   -1    0    0  502  503 -0.00000000000E+00 -0.00000000000E+00 -0.21104298269E+03  0.21104298269E+03  0.00000000000E+00 0.  1.
    9000005    1    1    2  501    0  0.27316643024E+03 -0.88485364215E+02  0.73534582634E+03  0.88497629494E+03  0.40000000000E+03 0.  1.
   -9000005    1    1    2    0  503 -0.27316643024E+03  0.88485364215E+02  0.30870649068E+03  0.58116198747E+03  0.40000000000E+03 0.  1.
<mgrwt>
<rscale>  2 0.49239167E+03</rscale>
<asrwt>0</asrwt>
<pdfrwt beam="1">  1       21 0.19309158E+00 0.49239167E+03</pdfrwt>
<pdfrwt beam="2">  1       21 0.32468152E-01 0.49239167E+03</pdfrwt>
<totfact> 0.11182078E+03</totfact>
</mgrwt>
</event>
<event>
 4    1  0.4962426E-002  0.4378403E+03  0.7818608E-02  0.1031412E+00
         21   -1    0    0  503  502  0.00000000000E+00  0.00000000000E+00  0.40727061758E+03  0.40727061758E+03  0.00000000000E+00 0.  1.
         21   -1    0    0  501  503 -0.00000000000E+00 -0.00000000000E+00 -0.48778748807E+03  0.48778748807E+03  0.00000000000E+00 0.  1.
    9000005    1    1    2  501    0  0.56779115937E+02  0.16876104059E+03 -0.12400874819E+03  0.45506299174E+03  0.40000000000E+03 0. -1.
   -9000005    1    1    2    0  502 -0.56779115937E+02 -0.16876104059E+03  0.43491877702E+02  0.43999511390E+03  0.40000000000E+03 0. -1.
<mgrwt>
<rscale>  2 0.43784033E+03</rscale>
<asrwt>0</asrwt>
<pdfrwt beam="1">  1       21 0.62657018E-01 0.43784033E+03</pdfrwt>
<pdfrwt beam="2">  1       21 0.75044229E-01 0.43784033E+03</pdfrwt>
<totfact> 0.32835027E+03</totfact>
</mgrwt>
</event>
<event>
 4    1  0.4962426E-002  0.6470767E+03  0.7818608E-02  0.9812280E-01
         21   -1    0    0  503  502  0.00000000000E+00  0.00000000000E+00  0.20380508405E+03  0.20380508405E+03  0.00000000000E+00 0.  1.
         21   -1    0    0  501  503 -0.00000000000E+00 -0.00000000000E+00 -0.29377554465E+04  0.29377554465E+04  0.00000000000E+00 0.  1.
    9000005    1    1    2  501    0 -0.26840964171E+03 -0.43204686350E+03 -0.22282901945E+04  0.23203416599E+04  0.40000000000E+03 0.  1.
   -9000005    1    1    2    0  502  0.26840964171E+03  0.43204686350E+03 -0.50566016802E+03  0.82121887067E+03  0.40000000000E+03 0.  1.
<mgrwt>
<rscale>  2 0.64707668E+03</rscale>
<asrwt>0</asrwt>
<pdfrwt beam="1">  1       21 0.31354629E-01 0.64707668E+03</pdfrwt>
<pdfrwt beam="2">  1       21 0.45196236E+00 0.64707668E+03</pdfrwt>
<totfact> 0.25540997E+01</totfact>
</mgrwt>
</event>
<event>
 4    1  0.4962426E-002  0.4268981E+03  0.7818608E-02  0.1034844E+00
         21   -1    0    0  501  502  0.00000000000E+00  0.00000000000E+00  0.46006584593E+03  0.46006584593E+03  0.00000000000E+00 0. -1.
         21   -1    0    0  502  503 -0.00000000000E+00 -0.00000000000E+00 -0.44797487308E+03  0.44797487308E+03  0.00000000000E+00 0. -1.
    9000005    1    1    2  501    0 -0.21700750717E+02 -0.14755035248E+03  0.16051276541E+03  0.45607716119E+03  0.40000000000E+03 0. -1.
   -9000005    1    1    2    0  503  0.21700750717E+02  0.14755035248E+03 -0.14842179255E+03  0.45196355782E+03  0.40000000000E+03 0. -1.
<mgrwt>
<rscale>  2 0.42689815E+03</rscale>
<asrwt>0</asrwt>
<pdfrwt beam="1">  1       21 0.70779361E-01 0.42689815E+03</pdfrwt>
<pdfrwt beam="2">  1       21 0.68919211E-01 0.42689815E+03</pdfrwt>
<totfact> 0.30453544E+03</totfact>
</mgrwt>
</event>
<event>
 4    1  0.4962426E-002  0.4467422E+03  0.7818608E-02  0.1028698E+00
         21   -1    0    0  503  502  0.00000000000E+00  0.00000000000E+00  0.49660522278E+03  0.49660522278E+03  0.00000000000E+00 0. -1.
         21   -1    0    0  501  503 -0.00000000000E+00 -0.00000000000E+00 -0.90783289000E+03  0.90783289000E+03  0.00000000000E+00 0.  1.
    9000005    1    1    2  501    0  0.16384983569E+03  0.11283547336E+03 -0.72984421153E+03  0.85571676728E+03  0.40000000000E+03 0.  1.
   -9000005    1    1    2    0  502 -0.16384983569E+03 -0.11283547336E+03  0.31861654431E+03  0.54872134550E+03  0.40000000000E+03 0. -1.
<mgrwt>
<rscale>  2 0.44674222E+03</rscale>
<asrwt>0</asrwt>
<pdfrwt beam="1">  1       21 0.76400805E-01 0.44674222E+03</pdfrwt>
<pdfrwt beam="2">  1       21 0.13966660E+00 0.44674222E+03</pdfrwt>
<totfact> 0.45807397E+02</totfact>
</mgrwt>
</event>
<event>
 4    1  0.4962426E-002  0.6871749E+03  0.7818608E-02  0.9739420E-01
         21   -1    0    0  503  502  0.00000000000E+00  0.00000000000E+00  0.93548364840E+03  0.93548364840E+03  0.00000000000E+00 0. -1.
         21   -1    0    0  501  503 -0.00000000000E+00 -0.00000000000E+00 -0.50822415729E+03  0.50822415729E+03  0.00000000000E+00 0. -1.
    9000005    1    1    2  501    0  0.54796713739E+02  0.55606349012E+03  0.15416730407E+03  0.70425623357E+03  0.40000000000E+03 0. -1.
   -9000005    1    1    2    0  502 -0.54796713739E+02 -0.55606349012E+03  0.27309218704E+03  0.73945157211E+03  0.40000000000E+03 0. -1.
<mgrwt>
<rscale>  2 0.68717486E+03</rscale>
<asrwt>0</asrwt>
<pdfrwt beam="1">  1       21 0.14392056E+00 0.68717486E+03</pdfrwt>
<pdfrwt beam="2">  1       21 0.78188332E-01 0.68717486E+03</pdfrwt>
<totfact> 0.36633226E+02</totfact>
</mgrwt>
</event>
<event>
 4    1  0.4962426E-002  0.6135529E+03  0.7818608E-02  0.9877680E-01
         21   -1    0    0  503  502  0.00000000000E+00  0.00000000000E+00  0.26613114423E+03  0.26613114423E+03  0.00000000000E+00 0. -1.
         21   -1    0    0  501  503 -0.00000000000E+00 -0.00000000000E+00 -0.16525743283E+04  0.16525743283E+04  0.00000000000E+00 0.  1.
    9000005    1    1    2  501    0  0.33552222386E+03 -0.32229178717E+03 -0.10573362362E+04  0.12224594371E+04  0.40000000000E+03 0.  1.
   -9000005    1    1    2    0  502 -0.33552222386E+03  0.32229178717E+03 -0.32910694779E+03  0.69624603544E+03  0.40000000000E+03 0.  1.
<mgrwt>
<rscale>  2 0.61355290E+03</rscale>
<asrwt>0</asrwt>
<pdfrwt beam="1">  1       21 0.40943254E-01 0.61355290E+03</pdfrwt>
<pdfrwt beam="2">  1       21 0.25424220E+00 0.61355290E+03</pdfrwt>
<totfact> 0.26753864E+02</totfact>
</mgrwt>
</event>
<event>
 4    1  0.4962426E-002  0.4603302E+03  0.7818608E-02  0.1024685E+00
         21   -1    0    0  501  502  0.00000000000E+00  0.00000000000E+00  0.20887072605E+03  0.20887072605E+03  0.00000000000E+00 0. -1.
         21   -1    0    0  502  503 -0.00000000000E+00 -0.00000000000E+00 -0.10249215921E+04  0.10249215921E+04  0.00000000000E+00 0. -1.
    9000005    1    1    2  501    0  0.18917951035E+03 -0.12694501223E+03 -0.34588457529E+03  0.57579515688E+03  0.40000000000E+03 0. -1.
   -9000005    1    1    2    0  503 -0.18917951035E+03  0.12694501223E+03 -0.47016629074E+03  0.65799716125E+03  0.40000000000E+03 0. -1.
<mgrwt>
<rscale>  2 0.46033023E+03</rscale>
<asrwt>0</asrwt>
<pdfrwt beam="1">  1       21 0.32133958E-01 0.46033023E+03</pdfrwt>
<pdfrwt beam="2">  1       21 0.15768024E+00 0.46033023E+03</pdfrwt>
<totfact> 0.20776506E+03</totfact>
</mgrwt>
</event>
<event>
 4    1  0.4962426E-002  0.5962099E+03  0.7818608E-02  0.9913301E-01
         21   -1    0    0  503  502  0.00000000000E+00  0.00000000000E+00  0.12088825144E+04  0.12088825144E+04  0.00000000000E+00 0. -1.
         21   -1    0    0  501  503 -0.00000000000E+00 -0.00000000000E+00 -0.30265405022E+03  0.30265405022E+03  0.00000000000E+00 0.  1.
    9000005    1    1    2  501    0 -0.42825559311E+03 -0.10983343893E+03  0.32565093677E+03  0.67934878373E+03  0.40000000000E+03 0.  1.
   -9000005    1    1    2    0  502  0.42825559311E+03  0.10983343893E+03  0.58057752744E+03  0.83218778092E+03  0.40000000000E+03 0. -1.
<mgrwt>
<rscale>  2 0.59620989E+03</rscale>
<asrwt>0</asrwt>
<pdfrwt beam="1">  1       21 0.18598192E+00 0.59620989E+03</pdfrwt>
<pdfrwt beam="2">  1       21 0.46562162E-01 0.59620989E+03</pdfrwt>
<totfact> 0.57256539E+02</totfact>
</mgrwt>
</event>
<event>
 4    1  0.4962426E-002  0.4794400E+03  0.7818608E-02  0.1019289E+00
         21   -1    0    0  503  502  0.00000000000E+00  0.00000000000E+00  0.84695766990E+03  0.84695766990E+03  0.00000000000E+00 0.  1.
         21   -1    0    0  501  503 -0.00000000000E+00 -0.00000000000E+00 -0.49554359475E+03  0.49554359475E+03  0.00000000000E+00 0.  1.
    9000005    1    1    2  501    0  0.10447597397E+03 -0.24279093678E+03 -0.27574209262E+03  0.55307899053E+03  0.40000000000E+03 0.  1.
   -9000005    1    1    2    0  502 -0.10447597397E+03  0.24279093678E+03  0.62715616776E+03  0.78942227412E+03  0.40000000000E+03 0.  1.
<mgrwt>
<rscale>  2 0.47943995E+03</rscale>
<asrwt>0</asrwt>
<pdfrwt beam="1">  1       21 0.13030118E+00 0.47943995E+03</pdfrwt>
<pdfrwt beam="2">  1       21 0.76237476E-01 0.47943995E+03</pdfrwt>
<totfact> 0.54433909E+02</totfact>
</mgrwt>
</event>
<event>
 4    1  0.4962426E-002  0.5080805E+03  0.7818608E-02  0.1011691E+00
         21   -1    0    0  501  502  0.00000000000E+00  0.00000000000E+00  0.83288330905E+03  0.83288330905E+03  0.00000000000E+00 0.  1.
         21   -1    0    0  502  503 -0.00000000000E+00 -0.00000000000E+00 -0.50552584134E+03  0.50552584134E+03  0.00000000000E+00 0.  1.
    9000005    1    1    2  501    0  0.27957267928E+03  0.14136782904E+03  0.57992792601E+03  0.77101371288E+03  0.40000000000E+03 0.  1.
   -9000005    1    1    2    0  503 -0.27957267928E+03 -0.14136782904E+03 -0.25257045830E+03  0.56739543750E+03  0.40000000000E+03 0.  1.
<mgrwt>
<rscale>  2 0.50808045E+03</rscale>
<asrwt>0</asrwt>
<pdfrwt beam="1">  1       21 0.12813589E+00 0.50808045E+03</pdfrwt>
<pdfrwt beam="2">  1       21 0.77773206E-01 0.50808045E+03</pdfrwt>
<totfact> 0.53677120E+02</totfact>
</mgrwt>
</event>
<event>
 4    1  0.4962426E-002  0.4570578E+03  0.7818608E-02  0.1025638E+00
         21   -1    0    0  503  502  0.00000000000E+00  0.00000000000E+00  0.71244903734E+03  0.71244903734E+03  0.00000000000E+00 0. -1.
         21   -1    0    0  501  503 -0.00000000000E+00 -0.00000000000E+00 -0.45584659490E+03  0.45584659490E+03  0.00000000000E+00 0. -1.
    9000005    1    1    2  501    0 -0.85100816517E+02  0.20410692977E+03  0.47721161359E+03  0.66078189435E+03  0.40000000000E+03 0. -1.
   -9000005    1    1    2    0  502  0.85100816517E+02 -0.20410692977E+03 -0.22060917115E+03  0.50751373789E+03  0.40000000000E+03 0. -1.
<mgrwt>
<rscale>  2 0.45705775E+03</rscale>
<asrwt>0</asrwt>
<pdfrwt beam="1">  1       21 0.10960754E+00 0.45705775E+03</pdfrwt>
<pdfrwt beam="2">  1       21 0.70130245E-01 0.45705775E+03</pdfrwt>
<totfact> 0.10304919E+03</totfact>
</mgrwt>
</event>
<event>
 4    1  0.4962426E-002  0.5403870E+03  0.7818608E-02  0.1003744E+00
         21   -1    0    0  503  502  0.00000000000E+00  0.00000000000E+00  0.84631454730E+03  0.84631454730E+03  0.00000000000E+00 0.  1.
         21   -1    0    0  501  503 -0.00000000000E+00 -0.00000000000E+00 -0.97503236017E+03  0.97503236017E+03  0.00000000000E+00 0. -1.
    9000005    1    1    2  501    0 -0.33497308479E+03 -0.14075209121E+03 -0.79637134852E+03  0.96240606994E+03  0.40000000000E+03 0. -1.
   -9000005    1    1    2    0  502  0.33497308479E+03  0.14075209121E+03  0.66765353565E+03  0.85894083753E+03  0.40000000000E+03 0.  1.
<mgrwt>
<rscale>  2 0.54038701E+03</rscale>
<asrwt>0</asrwt>
<pdfrwt beam="1">  1       21 0.13020224E+00 0.54038701E+03</pdfrwt>
<pdfrwt beam="2">  1       21 0.15000498E+00 0.54038701E+03</pdfrwt>
<totfact> 0.98696914E+01</totfact>
</mgrwt>
</event>
<event>
 4    1  0.4962426E-002  0.1035644E+04  0.7818608E-02  0.9270292E-01
         21   -1    0    0  503  502  0.00000000000E+00  0.00000000000E+00  0.20401171689E+04  0.20401171689E+04  0.00000000000E+00 0.  1.
         21   -1    0    0  501  503 -0.00000000000E+00 -0.00000000000E+00 -0.52622322444E+03  0.52622322444E+03  0.00000000000E+00 0. -1.
    9000005    1    1    2  501    0 -0.60762886948E+03  0.73712019001E+03  0.71782319874E+03  0.12600909341E+04  0.40000000000E+03 0.  1.
   -9000005    1    1    2    0  502  0.60762886948E+03 -0.73712019001E+03  0.79607074568E+03  0.13062494592E+04  0.40000000000E+03 0. -1.
<mgrwt>
<rscale>  2 0.10356443E+04</rscale>
<asrwt>0</asrwt>
<pdfrwt beam="1">  1       21 0.31386418E+00 0.10356443E+04</pdfrwt>
<pdfrwt beam="2">  1       21 0.80957420E-01 0.10356443E+04</pdfrwt>
<totfact> 0.22026342E+01</totfact>
</mgrwt>
</event>
<event>
 4    1  0.4962426E-002  0.4029702E+03  0.7818608E-02  0.1042756E+00
         21   -1    0    0  501  502  0.00000000000E+00  0.00000000000E+00  0.29696574444E+03  0.29696574444E+03  0.00000000000E+00 0.  1.
         21   -1    0    0  502  503 -0.00000000000E+00 -0.00000000000E+00 -0.90757387601E+03  0.90757387601E+03  0.00000000000E+00 0.  1.
    9000005    1    1    2  501    0  0.45392024683E+02 -0.18016189288E+02  0.74412225670E+02  0.40978311130E+03  0.40000000000E+03 0.  1.
   -9000005    1    1    2    0  503 -0.45392024683E+02  0.18016189288E+02 -0.68502035725E+03  0.79475650914E+03  0.40000000000E+03 0.  1.
<mgrwt>
<rscale>  2 0.40297025E+03</rscale>
<asrwt>0</asrwt>
<pdfrwt beam="1">  1       21 0.45687038E-01 0.40297025E+03</pdfrwt>
<pdfrwt beam="2">  1       21 0.13962675E+00 0.40297025E+03</pdfrwt>
<totfact> 0.14390236E+03</totfact>
</mgrwt>
</event>
<event>
 4    1  0.4962426E-002  0.4514714E+03  0.7818608E-02  0.1027284E+00
         21   -1    0    0  503  502  0.00000000000E+00  0.00000000000E+00  0.12269581270E+03  0.12269581270E+03  0.00000000000E+00 0. -1.
         21   -1    0    0  501  503 -0.00000000000E+00 -0.00000000000E+00 -0.19688619776E+04  0.19688619776E+04  0.00000000000E+00 0. -1.
    9000005    1    1    2  501    0  0.19781708871E+03  0.68518804712E+02 -0.50970702736E+03  0.68090210818E+03  0.40000000000E+03 0. -1.
   -9000005    1    1    2    0  502 -0.19781708871E+03 -0.68518804712E+02 -0.13364591376E+04  0.14106556821E+04  0.40000000000E+03 0. -1.
<mgrwt>
<rscale>  2 0.45147140E+03</rscale>
<asrwt>0</asrwt>
<pdfrwt beam="1">  1       21 0.18876280E-01 0.45147140E+03</pdfrwt>
<pdfrwt beam="2">  1       21 0.30290182E+00 0.45147140E+03</pdfrwt>
<totfact> 0.67582441E+02</totfact>
</mgrwt>
</event>
<event>
 4    1  0.4962426E-002  0.4140047E+03  0.7818608E-02  0.1039035E+00
         21   -1    0    0  501  502  0.00000000000E+00  0.00000000000E+00  0.90075408232E+03  0.90075408232E+03  0.00000000000E+00 0.  1.
         21   -1    0    0  502  503 -0.00000000000E+00 -0.00000000000E+00 -0.19084234738E+03  0.19084234738E+03  0.00000000000E+00 0.  1.
    9000005    1    1    2  501    0 -0.99925625703E+02  0.37612818733E+02  0.38445548787E+03  0.56498307670E+03  0.40000000000E+03 0.  1.
   -9000005    1    1    2    0  503  0.99925625703E+02 -0.37612818733E+02  0.32545624707E+03  0.52661335300E+03  0.40000000000E+03 0.  1.
<mgrwt>
<rscale>  2 0.41400466E+03</rscale>
<asrwt>0</asrwt>
<pdfrwt beam="1">  1       21 0.13857755E+00 0.41400466E+03</pdfrwt>
<pdfrwt beam="2">  1       21 0.29360361E-01 0.41400466E+03</pdfrwt>
<totfact> 0.35903518E+03</totfact>
</mgrwt>
</event>
<event>
 4    1  0.4962426E-002  0.4344590E+03  0.7818608E-02  0.1032461E+00
         21   -1    0    0  503  502  0.00000000000E+00  0.00000000000E+00  0.13106359764E+03  0.13106359764E+03  0.00000000000E+00 0. -1.
         21   -1    0    0  501  503 -0.00000000000E+00 -0.00000000000E+00 -0.14564962349E+04  0.14564962349E+04  0.00000000000E+00 0. -1.
    9000005    1    1    2  501    0  0.15439542917E+03  0.70118695315E+02 -0.74674267076E+03  0.86393240263E+03  0.40000000000E+03 0. -1.
   -9000005    1    1    2    0  502 -0.15439542917E+03 -0.70118695315E+02 -0.57868996647E+03  0.72362742988E+03  0.40000000000E+03 0. -1.
<mgrwt>
<rscale>  2 0.43445895E+03</rscale>
<asrwt>0</asrwt>
<pdfrwt beam="1">  1       21 0.20163631E-01 0.43445895E+03</pdfrwt>
<pdfrwt beam="2">  1       21 0.22407634E+00 0.43445895E+03</pdfrwt>
<totfact> 0.18219863E+03</totfact>
</mgrwt>
</event>
<event>
 4    1  0.4962426E-002  0.4125290E+03  0.7818608E-02  0.1039526E+00
         21   -1    0    0  501  502  0.00000000000E+00  0.00000000000E+00  0.59921885770E+03  0.59921885770E+03  0.00000000000E+00 0. -1.
         21   -1    0    0  502  503 -0.00000000000E+00 -0.00000000000E+00 -0.35405478815E+03  0.35405478815E+03  0.00000000000E+00 0. -1.
    9000005    1    1    2  501    0  0.93621150498E+02 -0.37619535211E+02  0.33459428419E+03  0.53116238973E+03  0.40000000000E+03 0. -1.
   -9000005    1    1    2    0  503 -0.93621150498E+02  0.37619535211E+02 -0.89430214637E+02  0.42211125612E+03  0.40000000000E+03 0. -1.
<mgrwt>
<rscale>  2 0.41252897E+03</rscale>
<asrwt>0</asrwt>
<pdfrwt beam="1">  1       21 0.92187516E-01 0.41252897E+03</pdfrwt>
<pdfrwt beam="2">  1       21 0.54469968E-01 0.41252897E+03</pdfrwt>
<totfact> 0.27865480E+03</totfact>
</mgrwt>
</event>
<event>
 4    1  0.4962426E-002  0.4140795E+03  0.7818608E-02  0.1039011E+00
         21   -1    0    0  503  502  0.00000000000E+00  0.00000000000E+00  0.50797593814E+03  0.50797593814E+03  0.00000000000E+00 0. -1.
         21   -1    0    0  501  503 -0.00000000000E+00 -0.00000000000E+00 -0.36015734523E+03  0.36015734523E+03  0.00000000000E+00 0. -1.
    9000005    1    1    2  501    0 -0.61418380007E+02 -0.87690648278E+02 -0.34867769850E+02  0.41554497780E+03  0.40000000000E+03 0. -1.
   -9000005    1    1    2    0  502  0.61418380007E+02  0.87690648278E+02  0.18268636277E+03  0.45258830557E+03  0.40000000000E+03 0. -1.
<mgrwt>
<rscale>  2 0.41407954E+03</rscale>
<asrwt>0</asrwt>
<pdfrwt beam="1">  1       21 0.78150145E-01 0.41407954E+03</pdfrwt>
<pdfrwt beam="2">  1       21 0.55408822E-01 0.41407954E+03</pdfrwt>
<totfact> 0.39473292E+03</totfact>
</mgrwt>
</event>
<event>
 4    1  0.4962426E-002  0.4082437E+03  0.7818608E-02  0.1040962E+00
         21   -1    0    0  503  502  0.00000000000E+00  0.00000000000E+00  0.23919722069E+03  0.23919722069E+03  0.00000000000E+00 0.  1.
         21   -1    0    0  501  503 -0.00000000000E+00 -0.00000000000E+00 -0.90637896719E+03  0.90637896719E+03  0.00000000000E+00 0.  1.
    9000005    1    1    2  501    0 -0.47800689799E+02 -0.66166695487E+02 -0.60904854465E+03  0.73321420286E+03  0.40000000000E+03 0.  1.
   -9000005    1    1    2    0  502  0.47800689799E+02  0.66166695487E+02 -0.58133201852E+02  0.41236198503E+03  0.40000000000E+03 0.  1.
<mgrwt>
<rscale>  2 0.40824372E+03</rscale>
<asrwt>0</asrwt>
<pdfrwt beam="1">  1       21 0.36799573E-01 0.40824372E+03</pdfrwt>
<pdfrwt beam="2">  1       21 0.13944292E+00 0.40824372E+03</pdfrwt>
<totfact> 0.22509353E+03</totfact>
</mgrwt>
</event>
<event>
 4    1  0.4962426E-002  0.4109710E+03  0.7818608E-02  0.1040046E+00
         21   -1    0    0  503  502  0.00000000000E+00  0.00000000000E+00  0.29468484809E+03  0.29468484809E+03  0.00000000000E+00 0.  1.
         21   -1    0    0  501  503 -0.00000000000E+00 -0.00000000000E+00 -0.57650806693E+03  0.57650806693E+03  0.00000000000E+00 0.  1.
    9000005    1    1    2  501    0  0.93546832853E+02 -0.12090748516E+02 -0.17418052849E+03  0.44635865920E+03  0.40000000000E+03 0.  1.
   -9000005    1    1    2    0  502 -0.93546832853E+02  0.12090748516E+02 -0.10764269034E+03  0.42483425582E+03  0.40000000000E+03 0.  1.
<mgrwt>
<rscale>  2 0.41097104E+03</rscale>
<asrwt>0</asrwt>
<pdfrwt beam="1">  1       21 0.45336131E-01 0.41097104E+03</pdfrwt>
<pdfrwt beam="2">  1       21 0.88693548E-01 0.41097104E+03</pdfrwt>
<totfact> 0.45094747E+03</totfact>
</mgrwt>
</event>
<event>
 4    1  0.4962426E-002  0.4168390E+03  0.7818608E-02  0.1038100E+00
         21   -1    0    0  503  502  0.00000000000E+00  0.00000000000E+00  0.66455138413E+03  0.66455138413E+03  0.00000000000E+00 0.  1.
         21   -1    0    0  501  503 -0.00000000000E+00 -0.00000000000E+00 -0.41516986193E+03  0.41516986193E+03  0.00000000000E+00 0.  1.
    9000005    1    1    2  501    0 -0.11619983981E+03 -0.15886357210E+02 -0.20379542575E+03  0.46399068382E+03  0.40000000000E+03 0.  1.
   -9000005    1    1    2    0  502  0.11619983981E+03  0.15886357210E+02  0.45317694795E+03  0.61573056223E+03  0.40000000000E+03 0.  1.
<mgrwt>
<rscale>  2 0.41683903E+03</rscale>
<asrwt>0</asrwt>
<pdfrwt beam="1">  1       21 0.10223867E+00 0.41683903E+03</pdfrwt>
<pdfrwt beam="2">  1       21 0.63872286E-01 0.41683903E+03</pdfrwt>
<totfact> 0.15322285E+03</totfact>
</mgrwt>
</event>
<event>
 4    1  0.4962426E-002  0.4306231E+03  0.7818608E-02  0.1033663E+00
         21   -1    0    0  503  502  0.00000000000E+00  0.00000000000E+00  0.28332888727E+03  0.28332888727E+03  0.00000000000E+00 0. -1.
         21   -1    0    0  501  503 -0.00000000000E+00 -0.00000000000E+00 -0.68470272351E+03  0.68470272351E+03  0.00000000000E+00 0. -1.
    9000005    1    1    2  501    0  0.14375465197E+03  0.69071249121E+02 -0.30235754207E+03  0.52617137956E+03  0.40000000000E+03 0. -1.
   -9000005    1    1    2    0  502 -0.14375465197E+03 -0.69071249121E+02 -0.99016294167E+02  0.44186023122E+03  0.40000000000E+03 0. -1.
<mgrwt>
<rscale>  2 0.43062308E+03</rscale>
<asrwt>0</asrwt>
<pdfrwt beam="1">  1       21 0.43589060E-01 0.43062308E+03</pdfrwt>
<pdfrwt beam="2">  1       21 0.10533888E+00 0.43062308E+03</pdfrwt>
<totfact> 0.32130887E+03</totfact>
</mgrwt>
</event>
<event>
 4    1  0.4962426E-002  0.4072692E+03  0.7818608E-02  0.1041291E+00
         21   -1    0    0  501  502  0.00000000000E+00  0.00000000000E+00  0.22511248592E+04  0.22511248592E+04  0.00000000000E+00 0.  1.
         21   -1    0    0  502  503 -0.00000000000E+00 -0.00000000000E+00 -0.73814594065E+02  0.73814594065E+02  0.00000000000E+00 0.  1.
    9000005    1    1    2  501    0 -0.68934879287E+02  0.33408911357E+02  0.11378586689E+04  0.12085489330E+04  0.40000000000E+03 0.  1.
   -9000005    1    1    2    0  503  0.68934879287E+02 -0.33408911357E+02  0.10394515962E+04  0.11163905203E+04  0.40000000000E+03 0.  1.
<mgrwt>
<rscale>  2 0.40726917E+03</rscale>
<asrwt>0</asrwt>
<pdfrwt beam="1">  1       21 0.34632685E+00 0.40726917E+03</pdfrwt>
<pdfrwt beam="2">  1       21 0.11356093E-01 0.40726917E+03</pdfrwt>
<totfact> 0.97078766E+02</totfact>
</mgrwt>
</event>
<event>
 4    1  0.4962426E-002  0.5183305E+03  0.7818608E-02  0.1009102E+00
         21   -1    0    0  503  502  0.00000000000E+00  0.00000000000E+00  0.69481714611E+03  0.69481714611E+03  0.00000000000E+00 0.  1.
         21   -1    0    0  501  503 -0.00000000000E+00 -0.00000000000E+00 -0.38723255213E+03  0.38723255213E+03  0.00000000000E+00 0. -1.
    9000005    1    1    2  501    0  0.24045359633E+02 -0.32876789358E+03  0.13321238239E+03  0.53517478078E+03  0.40000000000E+03 0. -1.
   -9000005    1    1    2    0  502 -0.24045359633E+02  0.32876789358E+03  0.17437221160E+03  0.54687491746E+03  0.40000000000E+03 0. -1.
<mgrwt>
<rscale>  2 0.51833050E+03</rscale>
<asrwt>0</asrwt>
<pdfrwt beam="1">  1       21 0.10689494E+00 0.51833050E+03</pdfrwt>
<pdfrwt beam="2">  1       21 0.59574239E-01 0.51833050E+03</pdfrwt>
<totfact> 0.15408719E+03</totfact>
</mgrwt>
</event>
<event>
 4    1  0.4962426E-002  0.4358710E+03  0.7818608E-02  0.1032021E+00
         21   -1    0    0  503  502  0.00000000000E+00  0.00000000000E+00  0.13640796696E+03  0.13640796696E+03  0.00000000000E+00 0.  1.
         21   -1    0    0  501  503 -0.00000000000E+00 -0.00000000000E+00 -0.16230997640E+04  0.16230997640E+04  0.00000000000E+00 0.  1.
    9000005    1    1    2  501    0 -0.16376880623E+03 -0.56243086978E+02 -0.10747618470E+04  0.11597829687E+04  0.40000000000E+03 0.  1.
   -9000005    1    1    2    0  502  0.16376880623E+03  0.56243086978E+02 -0.41192995007E+03  0.59972476228E+03  0.40000000000E+03 0.  1.
<mgrwt>
<rscale>  2 0.43587097E+03</rscale>
<asrwt>0</asrwt>
<pdfrwt beam="1">  1       21 0.20985841E-01 0.43587097E+03</pdfrwt>
<pdfrwt beam="2">  1       21 0.24970765E+00 0.43587097E+03</pdfrwt>
<totfact> 0.11682201E+03</totfact>
</mgrwt>
</event>
<event>
 4    1  0.4962426E-002  0.4445949E+03  0.7818608E-02  0.1029346E+00
         21   -1    0    0  501  502  0.00000000000E+00  0.00000000000E+00  0.34784760246E+03  0.34784760246E+03  0.00000000000E+00 0. -1.
         21   -1    0    0  502  503 -0.00000000000E+00 -0.00000000000E+00 -0.68458719734E+03  0.68458719734E+03  0.00000000000E+00 0. -1.
    9000005    1    1    2  501    0 -0.54684153736E+02 -0.18621038979E+03  0.44432407983E+02  0.44680969642E+03  0.40000000000E+03 0.  1.
   -9000005    1    1    2    0  503  0.54684153736E+02  0.18621038979E+03 -0.38117200286E+03  0.58562510337E+03  0.40000000000E+03 0.  1.
<mgrwt>
<rscale>  2 0.44459495E+03</rscale>
<asrwt>0</asrwt>
<pdfrwt beam="1">  1       21 0.53515016E-01 0.44459495E+03</pdfrwt>
<pdfrwt beam="2">  1       21 0.10532111E+00 0.44459495E+03</pdfrwt>
<totfact> 0.20717674E+03</totfact>
</mgrwt>
</event>
<event>
 4    1  0.4962426E-002  0.5435868E+03  0.7818608E-02  0.1002989E+00
         21   -1    0    0  503  502  0.00000000000E+00  0.00000000000E+00  0.32181675416E+03  0.32181675416E+03  0.00000000000E+00 0.  1.
         21   -1    0    0  501  503 -0.00000000000E+00 -0.00000000000E+00 -0.10479048825E+04  0.10479048825E+04  0.00000000000E+00 0. -1.
    9000005    1    1    2  501    0 -0.21502539497E+03 -0.29874852446E+03 -0.60400596555E+03  0.81259449159E+03  0.40000000000E+03 0. -1.
   -9000005    1    1    2    0  502  0.21502539497E+03  0.29874852446E+03 -0.12208216284E+03  0.55712714512E+03  0.40000000000E+03 0.  1.
<mgrwt>
<rscale>  2 0.54358679E+03</rscale>
<asrwt>0</asrwt>
<pdfrwt beam="1">  1       21 0.49510269E-01 0.54358679E+03</pdfrwt>
<pdfrwt beam="2">  1       21 0.16121614E+00 0.54358679E+03</pdfrwt>
<totfact> 0.77505417E+02</totfact>
</mgrwt>
</event>
<event>
 4    1  0.4962426E-002  0.4590448E+03  0.7818608E-02  0.1025059E+00
         21   -1    0    0  503  502  0.00000000000E+00  0.00000000000E+00  0.25261033523E+03  0.25261033523E+03  0.00000000000E+00 0. -1.
         21   -1    0    0  501  503 -0.00000000000E+00 -0.00000000000E+00 -0.11204161195E+04  0.11204161195E+04  0.00000000000E+00 0. -1.
    9000005    1    1    2  501    0  0.21209984322E+03 -0.75734798263E+02 -0.78089740968E+03  0.90582717314E+03  0.40000000000E+03 0. -1.
   -9000005    1    1    2    0  502 -0.21209984322E+03  0.75734798263E+02 -0.86908374610E+02  0.46719928161E+03  0.40000000000E+03 0. -1.
<mgrwt>
<rscale>  2 0.45904477E+03</rscale>
<asrwt>0</asrwt>
<pdfrwt beam="1">  1       21 0.38863128E-01 0.45904477E+03</pdfrwt>
<pdfrwt beam="2">  1       21 0.17237171E+00 0.45904477E+03</pdfrwt>
<totfact> 0.10999239E+03</totfact>
</mgrwt>
</event>
<event>
 4    1  0.4962426E-002  0.4437664E+03  0.7818608E-02  0.1029597E+00
         21   -1    0    0  503  502  0.00000000000E+00  0.00000000000E+00  0.90827624643E+03  0.90827624643E+03  0.00000000000E+00 0.  1.
         21   -1    0    0  501  503 -0.00000000000E+00 -0.00000000000E+00 -0.22150694250E+03  0.22150694250E+03  0.00000000000E+00 0.  1.
    9000005    1    1    2  501    0  0.18931253562E+03  0.33006211112E+02  0.26117733147E+03  0.51491964867E+03  0.40000000000E+03 0. -1.
   -9000005    1    1    2    0  502 -0.18931253562E+03 -0.33006211112E+02  0.42559197246E+03  0.61486354026E+03  0.40000000000E+03 0. -1.
<mgrwt>
<rscale>  2 0.44376643E+03</rscale>
<asrwt>0</asrwt>
<pdfrwt beam="1">  1       21 0.13973481E+00 0.44376643E+03</pdfrwt>
<pdfrwt beam="2">  1       21 0.34077992E-01 0.44376643E+03</pdfrwt>
<totfact> 0.25779951E+03</totfact>
</mgrwt>
</event>
<event>
 4    1  0.4962426E-002  0.4526707E+03  0.7818608E-02  0.1026929E+00
         21   -1    0    0  503  502  0.00000000000E+00  0.00000000000E+00  0.11358965254E+04  0.11358965254E+04  0.00000000000E+00 0. -1.
         21   -1    0    0  501  503 -0.00000000000E+00 -0.00000000000E+00 -0.18270610569E+03  0.18270610569E+03  0.00000000000E+00 0. -1.
    9000005    1    1    2  501    0 -0.20349728412E+03 -0.59157921230E+02  0.40245475956E+03  0.60570672589E+03  0.40000000000E+03 0.  1.
   -9000005    1    1    2    0  502  0.20349728412E+03  0.59157921230E+02  0.55073566016E+03  0.71289590521E+03  0.40000000000E+03 0.  1.
<mgrwt>
<rscale>  2 0.45267075E+03</rscale>
<asrwt>0</asrwt>
<pdfrwt beam="1">  1       21 0.17475331E+00 0.45267075E+03</pdfrwt>
<pdfrwt beam="2">  1       21 0.28108632E-01 0.45267075E+03</pdfrwt>
<totfact> 0.20337888E+03</totfact>
</mgrwt>
</event>
<event>
 4    1  0.4962426E-002  0.4546822E+03  0.7818608E-02  0.1026335E+00
         21   -1    0    0  503  502  0.00000000000E+00  0.00000000000E+00  0.62467734063E+03  0.62467734063E+03  0.00000000000E+00 0.  1.
         21   -1    0    0  501  503 -0.00000000000E+00 -0.00000000000E+00 -0.33137500497E+03  0.33137500497E+03  0.00000000000E+00 0.  1.
    9000005    1    1    2  501    0  0.19517370357E+03 -0.92968563887E+02  0.12949834153E+03  0.47276394627E+03  0.40000000000E+03 0. -1.
   -9000005    1    1    2    0  502 -0.19517370357E+03  0.92968563887E+02  0.16380399414E+03  0.48328839933E+03  0.40000000000E+03 0. -1.
<mgrwt>
<rscale>  2 0.45468223E+03</rscale>
<asrwt>0</asrwt>
<pdfrwt beam="1">  1       21 0.96104206E-01 0.45468223E+03</pdfrwt>
<pdfrwt beam="2">  1       21 0.50980770E-01 0.45468223E+03</pdfrwt>
<totfact> 0.28619650E+03</totfact>
</mgrwt>
</event>
<event>
 4    1  0.4962426E-002  0.4111806E+03  0.7818608E-02  0.1039976E+00
         21   -1    0    0  501  502  0.00000000000E+00  0.00000000000E+00  0.16071151437E+03  0.16071151437E+03  0.00000000000E+00 0. -1.
         21   -1    0    0  502  503 -0.00000000000E+00 -0.00000000000E+00 -0.12044501816E+04  0.12044501816E+04  0.00000000000E+00 0. -1.
    9000005    1    1    2  501    0 -0.86511261456E+02  0.39815265315E+02 -0.76470658816E+03  0.86824283451E+03  0.40000000000E+03 0.  1.
   -9000005    1    1    2    0  503  0.86511261456E+02 -0.39815265315E+02 -0.27903207904E+03  0.49691886143E+03  0.40000000000E+03 0.  1.
<mgrwt>
<rscale>  2 0.41118056E+03</rscale>
<asrwt>0</asrwt>
<pdfrwt beam="1">  1       21 0.24724847E-01 0.41118056E+03</pdfrwt>
<pdfrwt beam="2">  1       21 0.18530004E+00 0.41118056E+03</pdfrwt>
<totfact> 0.22422046E+03</totfact>
</mgrwt>
</event>
<event>
 4    1  0.4962426E-002  0.4213383E+03  0.7818608E-02  0.1036632E+00
         21   -1    0    0  501  502  0.00000000000E+00  0.00000000000E+00  0.34276692721E+03  0.34276692721E+03  0.00000000000E+00 0. -1.
         21   -1    0    0  502  503 -0.00000000000E+00 -0.00000000000E+00 -0.65809578196E+03  0.65809578196E+03  0.00000000000E+00 0. -1.
    9000005    1    1    2  501    0  0.25094749282E+02  0.12998532725E+03  0.73295199635E+02  0.42766589533E+03  0.40000000000E+03 0. -1.
   -9000005    1    1    2    0  503 -0.25094749282E+02 -0.12998532725E+03 -0.38862405438E+03  0.57319681383E+03  0.40000000000E+03 0. -1.
<mgrwt>
<rscale>  2 0.42133826E+03</rscale>
<asrwt>0</asrwt>
<pdfrwt beam="1">  1       21 0.52733374E-01 0.42133826E+03</pdfrwt>
<pdfrwt beam="2">  1       21 0.10124550E+00 0.42133826E+03</pdfrwt>
<totfact> 0.23766327E+03</totfact>
</mgrwt>
</event>
<event>
 4    1  0.4962426E-002  0.5759651E+03  0.7818608E-02  0.9956565E-01
         21   -1    0    0  503  502  0.00000000000E+00  0.00000000000E+00  0.66777028520E+03  0.66777028520E+03  0.00000000000E+00 0. -1.
         21   -1    0    0  501  503 -0.00000000000E+00 -0.00000000000E+00 -0.54953935222E+03  0.54953935222E+03  0.00000000000E+00 0. -1.
    9000005    1    1    2  501    0 -0.29594636999E+03 -0.29008884103E+03  0.24770433179E+03  0.62697147111E+03  0.40000000000E+03 0. -1.
   -9000005    1    1    2    0  502  0.29594636999E+03  0.29008884103E+03 -0.12947339881E+03  0.59033816631E+03  0.40000000000E+03 0. -1.
<mgrwt>
<rscale>  2 0.57596509E+03</rscale>
<asrwt>0</asrwt>
<pdfrwt beam="1">  1       21 0.10273389E+00 0.57596509E+03</pdfrwt>
<pdfrwt beam="2">  1       21 0.84544516E-01 0.57596509E+03</pdfrwt>
<totfact> 0.75345456E+02</totfact>
</mgrwt>
</event>
<event>
 4    1  0.4962426E-002  0.4192766E+03  0.7818608E-02  0.1037302E+00
         21   -1    0    0  503  502  0.00000000000E+00  0.00000000000E+00  0.17550823374E+04  0.17550823374E+04  0.00000000000E+00 0.  1.
         21   -1    0    0  501  503 -0.00000000000E+00 -0.00000000000E+00 -0.10024841307E+03  0.10024841307E+03  0.00000000000E+00 0.  1.
    9000005    1    1    2  501    0 -0.78691496560E+00 -0.12566732294E+03  0.85462251296E+03  0.95193095073E+03  0.40000000000E+03 0. -1.
   -9000005    1    1    2    0  502  0.78691496560E+00  0.12566732294E+03  0.80021141135E+03  0.90339979972E+03  0.40000000000E+03 0. -1.
<mgrwt>
<rscale>  2 0.41927663E+03</rscale>
<asrwt>0</asrwt>
<pdfrwt beam="1">  1       21 0.27001265E+00 0.41927663E+03</pdfrwt>
<pdfrwt beam="2">  1       21 0.15422834E-01 0.41927663E+03</pdfrwt>
<totfact> 0.15835432E+03</totfact>
</mgrwt>
</event>
<event>
 4    1  0.4962426E-002  0.4327347E+03  0.7818608E-02  0.1033000E+00
         21   -1    0    0  501  502  0.00000000000E+00  0.00000000000E+00  0.33444233416E+03  0.33444233416E+03  0.00000000000E+00 0.  1.
         21   -1    0    0  502  503 -0.00000000000E+00 -0.00000000000E+00 -0.10933476820E+04  0.10933476820E+04  0.00000000000E+00 0. -1.
    9000005    1    1    2  501    0  0.90073453935E+02  0.13836940325E+03  0.11919633837E+03  0.44885085044E+03  0.40000000000E+03 0.  1.
   -9000005    1    1    2    0  503 -0.90073453935E+02 -0.13836940325E+03 -0.87810168621E+03  0.97893916572E+03  0.40000000000E+03 0. -1.
<mgrwt>
<rscale>  2 0.43273470E+03</rscale>
<asrwt>0</asrwt>
<pdfrwt beam="1">  1       21 0.51452667E-01 0.43273470E+03</pdfrwt>
<pdfrwt beam="2">  1       21 0.16820733E+00 0.43273470E+03</pdfrwt>
<totfact> 0.66328909E+02</totfact>
</mgrwt>
</event>
<event>
 4    1  0.4962426E-002  0.5211224E+03  0.7818608E-02  0.1008408E+00
         21   -1    0    0  501  502  0.00000000000E+00  0.00000000000E+00  0.29555605749E+03  0.29555605749E+03  0.00000000000E+00 0. -1.
         21   -1    0    0  502  503 -0.00000000000E+00 -0.00000000000E+00 -0.14124191742E+04  0.14124191742E+04  0.00000000000E+00 0.  1.
    9000005    1    1    2  501    0  0.33240212983E+03  0.32823933994E+02 -0.53597793344E+02  0.52387146325E+03  0.40000000000E+03 0. -1.
   -9000005    1    1    2    0  503 -0.33240212983E+03 -0.32823933994E+02 -0.10632653234E+04  0.11841037684E+04  0.40000000000E+03 0.  1.
<mgrwt>
<rscale>  2 0.52112243E+03</rscale>
<asrwt>0</asrwt>
<pdfrwt beam="1">  1       21 0.45470162E-01 0.52112243E+03</pdfrwt>
<pdfrwt beam="2">  1       21 0.21729526E+00 0.52112243E+03</pdfrwt>
<totfact> 0.38219080E+02</totfact>
</mgrwt>
</event>
<event>
 4    1  0.4962426E-002  0.4361946E+03  0.7818608E-02  0.1031921E+00
         21   -1    0    0  501  502  0.00000000000E+00  0.00000000000E+00  0.46261521596E+03  0.46261521596E+03  0.00000000000E+00 0.  1.
         21   -1    0    0  502  503 -0.00000000000E+00 -0.00000000000E+00 -0.41131657915E+03  0.41131657915E+03  0.00000000000E+00 0.  1.
    9000005    1    1    2  501    0 -0.44564989487E+02 -0.16816579231E+03  0.21700923887E+02  0.43673413204E+03  0.40000000000E+03 0.  1.
   -9000005    1    1    2    0  503  0.44564989487E+02  0.16816579231E+03  0.29597712926E+02  0.43719766308E+03  0.40000000000E+03 0.  1.
<mgrwt>
<rscale>  2 0.43619465E+03</rscale>
<asrwt>0</asrwt>
<pdfrwt beam="1">  1       21 0.71171572E-01 0.43619465E+03</pdfrwt>
<pdfrwt beam="2">  1       21 0.63279474E-01 0.43619465E+03</pdfrwt>
<totfact> 0.36250181E+03</totfact>
</mgrwt>
</event>
<event>
 4    1  0.4962426E-002  0.4406065E+03  0.7818608E-02  0.1030561E+00
         21   -1    0    0  501  502  0.00000000000E+00  0.00000000000E+00  0.13310807983E+03  0.13310807983E+03  0.00000000000E+00 0.  1.
         21   -1    0    0  502  503 -0.00000000000E+00 -0.00000000000E+00 -0.14584693619E+04  0.14584693619E+04  0.00000000000E+00 0.  1.
    9000005    1    1    2  501    0  0.16987615342E+03 -0.72637026946E+02 -0.66249061507E+03  0.79563047971E+03  0.40000000000E+03 0.  1.
   -9000005    1    1    2    0  503 -0.16987615342E+03  0.72637026946E+02 -0.66287066699E+03  0.79594696202E+03  0.40000000000E+03 0.  1.
<mgrwt>
<rscale>  2 0.44060645E+03</rscale>
<asrwt>0</asrwt>
<pdfrwt beam="1">  1       21 0.20478165E-01 0.44060645E+03</pdfrwt>
<pdfrwt beam="2">  1       21 0.22437991E+00 0.44060645E+03</pdfrwt>
<totfact> 0.17562236E+03</totfact>
</mgrwt>
</event>
<event>
 4    1  0.4962426E-002  0.4907519E+03  0.7818608E-02  0.1016221E+00
         21   -1    0    0  501  502  0.00000000000E+00  0.00000000000E+00  0.81319951442E+03  0.81319951442E+03  0.00000000000E+00 0. -1.
         21   -1    0    0  502  503 -0.00000000000E+00 -0.00000000000E+00 -0.44359435770E+03  0.44359435770E+03  0.00000000000E+00 0. -1.
    9000005    1    1    2  501    0 -0.13187113123E+03  0.25188765285E+03  0.54707895100E+03  0.73493725142E+03  0.40000000000E+03 0. -1.
   -9000005    1    1    2    0  503  0.13187113123E+03 -0.25188765285E+03 -0.17747379428E+03  0.52185662070E+03  0.40000000000E+03 0. -1.
<mgrwt>
<rscale>  2 0.49075186E+03</rscale>
<asrwt>0</asrwt>
<pdfrwt beam="1">  1       21 0.12510762E+00 0.49075186E+03</pdfrwt>
<pdfrwt beam="2">  1       21 0.68245286E-01 0.49075186E+03</pdfrwt>
<totfact> 0.77393146E+02</totfact>
</mgrwt>
</event>
<event>
 4    1  0.4962426E-002  0.5380410E+03  0.7818608E-02  0.1004300E+00
         21   -1    0    0  501  502  0.00000000000E+00  0.00000000000E+00  0.66239716621E+03  0.66239716621E+03  0.00000000000E+00 0.  1.
         21   -1    0    0  502  503 -0.00000000000E+00 -0.00000000000E+00 -0.43717017834E+03  0.43717017834E+03  0.00000000000E+00 0.  1.
    9000005    1    1    2  501    0 -0.32707848412E+03 -0.15002584660E+03  0.10280352205E+03  0.54777427246E+03  0.40000000000E+03 0.  1.
   -9000005    1    1    2    0  503  0.32707848412E+03  0.15002584660E+03  0.12242346583E+03  0.55179307209E+03  0.40000000000E+03 0.  1.
<mgrwt>
<rscale>  2 0.53804097E+03</rscale>
<asrwt>0</asrwt>
<pdfrwt beam="1">  1       21 0.10190726E+00 0.53804097E+03</pdfrwt>
<pdfrwt beam="2">  1       21 0.67256950E-01 0.53804097E+03</pdfrwt>
<totfact> 0.13158632E+03</totfact>
</mgrwt>
</event>
<event>
 4    1  0.4962426E-002  0.4102039E+03  0.7818608E-02  0.1040303E+00
         21   -1    0    0  503  502  0.00000000000E+00  0.00000000000E+00  0.43361164195E+03  0.43361164195E+03  0.00000000000E+00 0.  1.
         21   -1    0    0  501  503 -0.00000000000E+00 -0.00000000000E+00 -0.63814918935E+03  0.63814918935E+03  0.00000000000E+00 0.  1.
    9000005    1    1    2  501    0  0.44570330736E+02 -0.79251254383E+02 -0.43773928476E+03  0.59990245634E+03  0.40000000000E+03 0.  1.
   -9000005    1    1    2    0  502 -0.44570330736E+02  0.79251254383E+02  0.23320173736E+03  0.47185837495E+03  0.40000000000E+03 0.  1.
<mgrwt>
<rscale>  2 0.41020394E+03</rscale>
<asrwt>0</asrwt>
<pdfrwt beam="1">  1       21 0.66709484E-01 0.41020394E+03</pdfrwt>
<pdfrwt beam="2">  1       21 0.98176797E-01 0.41020394E+03</pdfrwt>
<totfact> 0.15394895E+03</totfact>
</mgrwt>
</event>
<event>
 4    1  0.4962426E-002  0.4308081E+03  0.7818608E-02  0.1033605E+00
         21   -1    0    0  501  502  0.00000000000E+00  0.00000000000E+00  0.49776459496E+03  0.49776459496E+03  0.00000000000E+00 0. -1.
         21   -1    0    0  502  503 -0.00000000000E+00 -0.00000000000E+00 -0.37717255409E+03  0.37717255409E+03  0.00000000000E+00 0. -1.
    9000005    1    1    2  501    0 -0.25960355639E+02 -0.15786588552E+03  0.10708440512E+03  0.44391738837E+03  0.40000000000E+03 0.  1.
   -9000005    1    1    2    0  503  0.25960355639E+02  0.15786588552E+03  0.13507635747E+02  0.43101976068E+03  0.40000000000E+03 0.  1.
<mgrwt>
<rscale>  2 0.43080805E+03</rscale>
<asrwt>0</asrwt>
<pdfrwt beam="1">  1       21 0.76579169E-01 0.43080805E+03</pdfrwt>
<pdfrwt beam="2">  1       21 0.58026547E-01 0.43080805E+03</pdfrwt>
<totfact> 0.37190728E+03</totfact>
</mgrwt>
</event>
<event>
 4    1  0.4962426E-002  0.4186072E+03  0.7818608E-02  0.1037521E+00
         21   -1    0    0  501  502  0.00000000000E+00  0.00000000000E+00  0.24515137167E+03  0.24515137167E+03  0.00000000000E+00 0. -1.
         21   -1    0    0  502  503 -0.00000000000E+00 -0.00000000000E+00 -0.76712681051E+03  0.76712681051E+03  0.00000000000E+00 0. -1.
    9000005    1    1    2  501    0  0.12246714818E+03  0.15290791426E+02 -0.12878648915E+03  0.43797028492E+03  0.40000000000E+03 0.  1.
   -9000005    1    1    2    0  503 -0.12246714818E+03 -0.15290791426E+02 -0.39318894969E+03  0.57430789725E+03  0.40000000000E+03 0.  1.
<mgrwt>
<rscale>  2 0.41860723E+03</rscale>
<asrwt>0</asrwt>
<pdfrwt beam="1">  1       21 0.37715596E-01 0.41860723E+03</pdfrwt>
<pdfrwt beam="2">  1       21 0.11801951E+00 0.41860723E+03</pdfrwt>
<totfact> 0.32800490E+03</totfact>
</mgrwt>
</event>
<event>
 4    1  0.4962426E-002  0.4172719E+03  0.7818608E-02  0.1037958E+00
         21   -1    0    0  501  502  0.00000000000E+00  0.00000000000E+00  0.35689269958E+03  0.35689269958E+03  0.00000000000E+00 0.  1.
         21   -1    0    0  502  503 -0.00000000000E+00 -0.00000000000E+00 -0.52621905297E+03  0.52621905297E+03  0.00000000000E+00 0.  1.
    9000005    1    1    2  501    0  0.84179897723E+02 -0.83842547340E+02  0.34543925293E+02  0.41869930821E+03  0.40000000000E+03 0.  1.
   -9000005    1    1    2    0  503 -0.84179897723E+02  0.83842547340E+02 -0.20387027868E+03  0.46441244434E+03  0.40000000000E+03 0.  1.
<mgrwt>
<rscale>  2 0.41727189E+03</rscale>
<asrwt>0</asrwt>
<pdfrwt beam="1">  1       21 0.54906569E-01 0.41727189E+03</pdfrwt>
<pdfrwt beam="2">  1       21 0.80956777E-01 0.41727189E+03</pdfrwt>
<totfact> 0.37070261E+03</totfact>
</mgrwt>
</event>
<event>
 4    1  0.4962426E-002  0.4614091E+03  0.7818608E-02  0.1024373E+00
         21   -1    0    0  503  502  0.00000000000E+00  0.00000000000E+00  0.17904257826E+03  0.17904257826E+03  0.00000000000E+00 0. -1.
         21   -1    0    0  501  503 -0.00000000000E+00 -0.00000000000E+00 -0.12232262849E+04  0.12232262849E+04  0.00000000000E+00 0. -1.
    9000005    1    1    2  501    0 -0.37881688379E+02 -0.22685540383E+03 -0.63921228663E+03  0.78834684241E+03  0.40000000000E+03 0. -1.
   -9000005    1    1    2    0  502  0.37881688379E+02  0.22685540383E+03 -0.40497142005E+03  0.61392202080E+03  0.40000000000E+03 0. -1.
<mgrwt>
<rscale>  2 0.46140914E+03</rscale>
<asrwt>0</asrwt>
<pdfrwt beam="1">  1       21 0.27545012E-01 0.46140914E+03</pdfrwt>
<pdfrwt beam="2">  1       21 0.18818866E+00 0.46140914E+03</pdfrwt>
<totfact> 0.16970973E+03</totfact>
</mgrwt>
</event>
<event>
 4    1  0.4962426E-002  0.5702964E+03  0.7818608E-02  0.9969023E-01
         21   -1    0    0  501  502  0.00000000000E+00  0.00000000000E+00  0.41451907645E+03  0.41451907645E+03  0.00000000000E+00 0.  1.
         21   -1    0    0  502  503 -0.00000000000E+00 -0.00000000000E+00 -0.90375640276E+03  0.90375640276E+03  0.00000000000E+00 0.  1.
    9000005    1    1    2  501    0  0.31679296415E+03 -0.25471601374E+03 -0.52974457221E+01  0.57032104356E+03  0.40000000000E+03 0.  1.
   -9000005    1    1    2    0  503 -0.31679296415E+03  0.25471601374E+03 -0.48393988059E+03  0.74795443565E+03  0.40000000000E+03 0.  1.
<mgrwt>
<rscale>  2 0.57029644E+03</rscale>
<asrwt>0</asrwt>
<pdfrwt beam="1">  1       21 0.63772166E-01 0.57029644E+03</pdfrwt>
<pdfrwt beam="2">  1       21 0.13903944E+00 0.57029644E+03</pdfrwt>
<totfact> 0.66339915E+02</totfact>
</mgrwt>
</event>
<event>
 4    1  0.4962426E-002  0.4268812E+03  0.7818608E-02  0.1034850E+00
         21   -1    0    0  503  502  0.00000000000E+00  0.00000000000E+00  0.86115151823E+03  0.86115151823E+03  0.00000000000E+00 0.  1.
         21   -1    0    0  501  503 -0.00000000000E+00 -0.00000000000E+00 -0.21166547396E+03  0.21166547396E+03  0.00000000000E+00 0.  1.
    9000005    1    1    2  501    0  0.58275697562E+02  0.13722777550E+03  0.33349514642E+03  0.54170705365E+03  0.40000000000E+03 0. -1.
   -9000005    1    1    2    0  502 -0.58275697562E+02 -0.13722777550E+03  0.31599089785E+03  0.53110993854E+03  0.40000000000E+03 0. -1.
<mgrwt>
<rscale>  2 0.42688115E+03</rscale>
<asrwt>0</asrwt>
<pdfrwt beam="1">  1       21 0.13248485E+00 0.42688115E+03</pdfrwt>
<pdfrwt beam="2">  1       21 0.32563920E-01 0.42688115E+03</pdfrwt>
<totfact> 0.32702433E+03</totfact>
</mgrwt>
</event>
<event>
 4    1  0.4962426E-002  0.4568285E+03  0.7818608E-02  0.1025705E+00
         21   -1    0    0  503  502  0.00000000000E+00  0.00000000000E+00  0.18621230898E+04  0.18621230898E+04  0.00000000000E+00 0. -1.
         21   -1    0    0  501  503 -0.00000000000E+00 -0.00000000000E+00 -0.14084363906E+03  0.14084363906E+03  0.00000000000E+00 0. -1.
    9000005    1    1    2  501    0 -0.10199861500E+03 -0.19567451423E+03  0.40799662331E+03  0.61249773682E+03  0.40000000000E+03 0. -1.
   -9000005    1    1    2    0  502  0.10199861500E+03  0.19567451423E+03  0.13132828274E+04  0.13904689920E+04  0.40000000000E+03 0. -1.
<mgrwt>
<rscale>  2 0.45682845E+03</rscale>
<asrwt>0</asrwt>
<pdfrwt beam="1">  1       21 0.28648046E+00 0.45682845E+03</pdfrwt>
<pdfrwt beam="2">  1       21 0.21668253E-01 0.45682845E+03</pdfrwt>
<totfact> 0.65037626E+02</totfact>
</mgrwt>
</event>
<event>
 4    1  0.4962426E-002  0.4166148E+03  0.7818608E-02  0.1038174E+00
         21   -1    0    0  503  502  0.00000000000E+00  0.00000000000E+00  0.13545036523E+04  0.13545036523E+04  0.00000000000E+00 0. -1.
         21   -1    0    0  501  503 -0.00000000000E+00 -0.00000000000E+00 -0.15664549360E+03  0.15664549360E+03  0.00000000000E+00 0. -1.
    9000005    1    1    2  501    0  0.50969139278E+02 -0.10473788532E+03  0.27661991462E+03  0.50008644747E+03  0.40000000000E+03 0. -1.
   -9000005    1    1    2    0  502 -0.50969139278E+02  0.10473788532E+03  0.92123824408E+03  0.10110626984E+04  0.40000000000E+03 0. -1.
<mgrwt>
<rscale>  2 0.41661478E+03</rscale>
<asrwt>0</asrwt>
<pdfrwt beam="1">  1       21 0.20838517E+00 0.41661478E+03</pdfrwt>
<pdfrwt beam="2">  1       21 0.24099308E-01 0.41661478E+03</pdfrwt>
<totfact> 0.16459138E+03</totfact>
</mgrwt>
</event>
<event>
 4    1  0.4962426E-002  0.4965190E+03  0.7818608E-02  0.1014692E+00
         21   -1    0    0  503  502  0.00000000000E+00  0.00000000000E+00  0.38227179818E+03  0.38227179818E+03  0.00000000000E+00 0. -1.
         21   -1    0    0  501  503 -0.00000000000E+00 -0.00000000000E+00 -0.66620690619E+03  0.66620690619E+03  0.00000000000E+00 0.  1.
    9000005    1    1    2  501    0 -0.29343945272E+03  0.20600544011E+02 -0.23569747664E+03  0.54962204770E+03  0.40000000000E+03 0.  1.
   -9000005    1    1    2    0  502  0.29343945272E+03 -0.20600544011E+02 -0.48237631377E+02  0.49885665667E+03  0.40000000000E+03 0. -1.
<mgrwt>
<rscale>  2 0.49651898E+03</rscale>
<asrwt>0</asrwt>
<pdfrwt beam="1">  1       21 0.58811046E-01 0.49651898E+03</pdfrwt>
<pdfrwt beam="2">  1       21 0.10249337E+00 0.49651898E+03</pdfrwt>
<totfact> 0.17713399E+03</totfact>
</mgrwt>
</event>
<event>
 4    1  0.4962426E-002  0.5142664E+03  0.7818608E-02  0.1010121E+00
         21   -1    0    0  501  502  0.00000000000E+00  0.00000000000E+00  0.10570495898E+04  0.10570495898E+04  0.00000000000E+00 0. -1.
         21   -1    0    0  502  503 -0.00000000000E+00 -0.00000000000E+00 -0.26294505274E+03  0.26294505274E+03  0.00000000000E+00 0. -1.
    9000005    1    1    2  501    0 -0.20593086019E+03  0.24912333599E+03  0.25172652215E+03  0.57256981903E+03  0.40000000000E+03 0. -1.
   -9000005    1    1    2    0  503  0.20593086019E+03 -0.24912333599E+03  0.54237801487E+03  0.74742482347E+03  0.40000000000E+03 0. -1.
<mgrwt>
<rscale>  2 0.51426642E+03</rscale>
<asrwt>0</asrwt>
<pdfrwt beam="1">  1       21 0.16262301E+00 0.51426642E+03</pdfrwt>
<pdfrwt beam="2">  1       21 0.40453086E-01 0.51426642E+03</pdfrwt>
<totfact> 0.11686675E+03</totfact>
</mgrwt>
</event>
<event>
 4    1  0.4962426E-002  0.4894600E+03  0.7818608E-02  0.1016567E+00
         21   -1    0    0  501  502  0.00000000000E+00  0.00000000000E+00  0.49967108964E+03  0.49967108964E+03  0.00000000000E+00 0. -1.
         21   -1    0    0  502  503 -0.00000000000E+00 -0.00000000000E+00 -0.57279287798E+03  0.57279287798E+03  0.00000000000E+00 0. -1.
    9000005    1    1    2  501    0  0.24085865309E+03 -0.14682704791E+03  0.17989875763E+03  0.52147352355E+03  0.40000000000E+03 0. -1.
   -9000005    1    1    2    0  503 -0.24085865309E+03  0.14682704791E+03 -0.25302054597E+03  0.55099044406E+03  0.40000000000E+03 0. -1.
<mgrwt>
<rscale>  2 0.48945998E+03</rscale>
<asrwt>0</asrwt>
<pdfrwt beam="1">  1       21 0.76872476E-01 0.48945998E+03</pdfrwt>
<pdfrwt beam="2">  1       21 0.88121981E-01 0.48945998E+03</pdfrwt>
<totfact> 0.14012333E+03</totfact>
</mgrwt>
</event>
<event>
 4    1  0.4962426E-002  0.4435220E+03  0.7818608E-02  0.1029672E+00
         21   -1    0    0  501  502  0.00000000000E+00  0.00000000000E+00  0.50957438546E+03  0.50957438546E+03  0.00000000000E+00 0. -1.
         21   -1    0    0  502  503 -0.00000000000E+00 -0.00000000000E+00 -0.51806747419E+03  0.51806747419E+03  0.00000000000E+00 0. -1.
    9000005    1    1    2  501    0  0.17681858451E+03  0.73803262672E+02  0.25515040503E+03  0.51167710775E+03  0.40000000000E+03 0. -1.
   -9000005    1    1    2    0  503 -0.17681858451E+03 -0.73803262672E+02 -0.26364349375E+03  0.51596475190E+03  0.40000000000E+03 0. -1.
<mgrwt>
<rscale>  2 0.44352196E+03</rscale>
<asrwt>0</asrwt>
<pdfrwt beam="1">  1       21 0.78396060E-01 0.44352196E+03</pdfrwt>
<pdfrwt beam="2">  1       21 0.79702688E-01 0.44352196E+03</pdfrwt>
<totfact> 0.17228480E+03</totfact>
</mgrwt>
</event>
<event>
 4    1  0.4962426E-002  0.4673104E+03  0.7818608E-02  0.1022682E+00
         21   -1    0    0  501  502  0.00000000000E+00  0.00000000000E+00  0.23483838785E+03  0.23483838785E+03  0.00000000000E+00 0.  1.
         21   -1    0    0  502  503 -0.00000000000E+00 -0.00000000000E+00 -0.94818175253E+03  0.94818175253E+03  0.00000000000E+00 0.  1.
    9000005    1    1    2  501    0  0.21089842576E+03  0.11790206060E+03 -0.27456427738E+03  0.54200053902E+03  0.40000000000E+03 0.  1.
   -9000005    1    1    2    0  503 -0.21089842576E+03 -0.11790206060E+03 -0.43877908731E+03  0.64101960137E+03  0.40000000000E+03 0.  1.
<mgrwt>
<rscale>  2 0.46731043E+03</rscale>
<asrwt>0</asrwt>
<pdfrwt beam="1">  1       21 0.36128982E-01 0.46731043E+03</pdfrwt>
<pdfrwt beam="2">  1       21 0.14587412E+00 0.46731043E+03</pdfrwt>
<totfact> 0.20228528E+03</totfact>
</mgrwt>
</event>
<event>
 4    1  0.4962426E-002  0.4805139E+03  0.7818608E-02  0.1018994E+00
         21   -1    0    0  501  502  0.00000000000E+00  0.00000000000E+00  0.25823491555E+03  0.25823491555E+03  0.00000000000E+00 0.  1.
         21   -1    0    0  502  503 -0.00000000000E+00 -0.00000000000E+00 -0.10698653492E+04  0.10698653492E+04  0.00000000000E+00 0.  1.
    9000005    1    1    2  501    0  0.25959217076E+03 -0.59207630199E+02 -0.67495331830E+03  0.82852617368E+03  0.40000000000E+03 0.  1.
   -9000005    1    1    2    0  503 -0.25959217076E+03  0.59207630199E+02 -0.13667711534E+03  0.49957409105E+03  0.40000000000E+03 0.  1.
<mgrwt>
<rscale>  2 0.48051393E+03</rscale>
<asrwt>0</asrwt>
<pdfrwt beam="1">  1       21 0.39728449E-01 0.48051393E+03</pdfrwt>
<pdfrwt beam="2">  1       21 0.16459467E+00 0.48051393E+03</pdfrwt>
<totfact> 0.11879205E+03</totfact>
</mgrwt>
</event>
<event>
 4    1  0.4962426E-002  0.4211065E+03  0.7818608E-02  0.1036707E+00
         21   -1    0    0  503  502  0.00000000000E+00  0.00000000000E+00  0.34918810766E+03  0.34918810766E+03  0.00000000000E+00 0.  1.
         21   -1    0    0  501  503 -0.00000000000E+00 -0.00000000000E+00 -0.69350057984E+03  0.69350057984E+03  0.00000000000E+00 0.  1.
    9000005    1    1    2  501    0 -0.98070531450E+01  0.13128013751E+03 -0.44190817341E+03  0.61042074549E+03  0.40000000000E+03 0.  1.
   -9000005    1    1    2    0  502  0.98070531450E+01 -0.13128013751E+03  0.97595701221E+02  0.43226794201E+03  0.40000000000E+03 0.  1.
<mgrwt>
<rscale>  2 0.42110646E+03</rscale>
<asrwt>0</asrwt>
<pdfrwt beam="1">  1       21 0.53721247E-01 0.42110646E+03</pdfrwt>
<pdfrwt beam="2">  1       21 0.10669240E+00 0.42110646E+03</pdfrwt>
<totfact> 0.20087232E+03</totfact>
</mgrwt>
</event>
<event>
 4    1  0.4962426E-002  0.4836937E+03  0.7818608E-02  0.1018125E+00
         21   -1    0    0  501  502  0.00000000000E+00  0.00000000000E+00  0.39054646806E+03  0.39054646806E+03  0.00000000000E+00 0.  1.
         21   -1    0    0  502  503 -0.00000000000E+00 -0.00000000000E+00 -0.60360718644E+03  0.60360718644E+03  0.00000000000E+00 0.  1.
    9000005    1    1    2  501    0  0.23052819720E+03 -0.14427873261E+03 -0.14968823617E+03  0.50632615026E+03  0.40000000000E+03 0.  1.
   -9000005    1    1    2    0  503 -0.23052819720E+03  0.14427873261E+03 -0.63372482215E+02  0.48782750424E+03  0.40000000000E+03 0.  1.
<mgrwt>
<rscale>  2 0.48369371E+03</rscale>
<asrwt>0</asrwt>
<pdfrwt beam="1">  1       21 0.60084073E-01 0.48369371E+03</pdfrwt>
<pdfrwt beam="2">  1       21 0.92862643E-01 0.48369371E+03</pdfrwt>
<totfact> 0.21554910E+03</totfact>
</mgrwt>
</event>
<event>
 4    1  0.4962426E-002  0.4015096E+03  0.7818608E-02  0.1043258E+00
         21   -1    0    0  503  502  0.00000000000E+00  0.00000000000E+00  0.71818970651E+03  0.71818970651E+03  0.00000000000E+00 0.  1.
         21   -1    0    0  501  503 -0.00000000000E+00 -0.00000000000E+00 -0.30453537607E+03  0.30453537607E+03  0.00000000000E+00 0.  1.
    9000005    1    1    2  501    0 -0.22800072760E+02  0.26270396570E+02 -0.55377378954E+02  0.40531053669E+03  0.40000000000E+03 0.  1.
   -9000005    1    1    2    0  502  0.22800072760E+02 -0.26270396570E+02  0.46903170940E+03  0.61741454589E+03  0.40000000000E+03 0.  1.
<mgrwt>
<rscale>  2 0.40150962E+03</rscale>
<asrwt>0</asrwt>
<pdfrwt beam="1">  1       21 0.11049072E+00 0.40150962E+03</pdfrwt>
<pdfrwt beam="2">  1       21 0.46851597E-01 0.40150962E+03</pdfrwt>
<totfact> 0.24839195E+03</totfact>
</mgrwt>
</event>
<event>
 4    1  0.4962426E-002  0.4461721E+03  0.7818608E-02  0.1028870E+00
         21   -1    0    0  501  502  0.00000000000E+00  0.00000000000E+00  0.14369377554E+04  0.14369377554E+04  0.00000000000E+00 0.  1.
         21   -1    0    0  502  503 -0.00000000000E+00 -0.00000000000E+00 -0.16720941939E+03  0.16720941939E+03  0.00000000000E+00 0. -1.
    9000005    1    1    2  501    0 -0.19707779617E+03 -0.15161714640E+02  0.96699824444E+03  0.10649672014E+04  0.40000000000E+03 0.  1.
   -9000005    1    1    2    0  503  0.19707779617E+03  0.15161714640E+02  0.30273009154E+03  0.53917997335E+03  0.40000000000E+03 0. -1.
<mgrwt>
<rscale>  2 0.44617209E+03</rscale>
<asrwt>0</asrwt>
<pdfrwt beam="1">  1       21 0.22106734E+00 0.44617209E+03</pdfrwt>
<pdfrwt beam="2">  1       21 0.25724527E-01 0.44617209E+03</pdfrwt>
<totfact> 0.11843255E+03</totfact>
</mgrwt>
</event>
<event>
 4    1  0.4962426E-002  0.7155523E+03  0.7818608E-02  0.9690999E-01
         21   -1    0    0  501  502  0.00000000000E+00  0.00000000000E+00  0.22830780569E+03  0.22830780569E+03  0.00000000000E+00 0. -1.
         21   -1    0    0  502  503 -0.00000000000E+00 -0.00000000000E+00 -0.22656390081E+04  0.22656390081E+04  0.00000000000E+00 0. -1.
    9000005    1    1    2  501    0  0.58643853102E+03  0.90027633773E+02 -0.89306373592E+03  0.11443679312E+04  0.40000000000E+03 0. -1.
   -9000005    1    1    2    0  503 -0.58643853102E+03 -0.90027633773E+02 -0.11442674665E+04  0.13495788826E+04  0.40000000000E+03 0. -1.
<mgrwt>
<rscale>  2 0.71555232E+03</rscale>
<asrwt>0</asrwt>
<pdfrwt beam="1">  1       21 0.35124277E-01 0.71555232E+03</pdfrwt>
<pdfrwt beam="2">  1       21 0.34855985E+00 0.71555232E+03</pdfrwt>
<totfact> 0.92583405E+01</totfact>
</mgrwt>
</event>
<event>
 4    1  0.4962426E-002  0.4243018E+03  0.7818608E-02  0.1035675E+00
         21   -1    0    0  503  502  0.00000000000E+00  0.00000000000E+00  0.14527059462E+04  0.14527059462E+04  0.00000000000E+00 0.  1.
         21   -1    0    0  501  503 -0.00000000000E+00 -0.00000000000E+00 -0.14345721608E+03  0.14345721608E+03  0.00000000000E+00 0.  1.
    9000005    1    1    2  501    0 -0.70811393801E+02 -0.12254687145E+03  0.36016831485E+03  0.55655476300E+03  0.40000000000E+03 0.  1.
   -9000005    1    1    2    0  502  0.70811393801E+02  0.12254687145E+03  0.94908041525E+03  0.10396083993E+04  0.40000000000E+03 0.  1.
<mgrwt>
<rscale>  2 0.42430177E+03</rscale>
<asrwt>0</asrwt>
<pdfrwt beam="1">  1       21 0.22349321E+00 0.42430177E+03</pdfrwt>
<pdfrwt beam="2">  1       21 0.22070342E-01 0.42430177E+03</pdfrwt>
<totfact> 0.15535271E+03</totfact>
</mgrwt>
</event>
<event>
 4    1  0.4962426E-002  0.4322576E+03  0.7818608E-02  0.1033149E+00
         21   -1    0    0  501  502  0.00000000000E+00  0.00000000000E+00  0.78243370210E+03  0.78243370210E+03  0.00000000000E+00 0. -1.
         21   -1    0    0  502  503 -0.00000000000E+00 -0.00000000000E+00 -0.29219738698E+03  0.29219738698E+03  0.00000000000E+00 0. -1.
    9000005    1    1    2  501    0  0.63171825878E+02  0.15118180639E+03  0.47480901375E+03  0.64209829287E+03  0.40000000000E+03 0. -1.
   -9000005    1    1    2    0  503 -0.63171825878E+02 -0.15118180639E+03  0.15427301366E+02  0.43253279621E+03  0.40000000000E+03 0. -1.
<mgrwt>
<rscale>  2 0.43225758E+03</rscale>
<asrwt>0</asrwt>
<pdfrwt beam="1">  1       21 0.12037442E+00 0.43225758E+03</pdfrwt>
<pdfrwt beam="2">  1       21 0.44953444E-01 0.43225758E+03</pdfrwt>
<totfact> 0.21591581E+03</totfact>
</mgrwt>
</event>
<event>
 4    1  0.4962426E-002  0.5655727E+03  0.7818608E-02  0.9979524E-01
         21   -1    0    0  503  502  0.00000000000E+00  0.00000000000E+00  0.92800966669E+03  0.92800966669E+03  0.00000000000E+00 0.  1.
         21   -1    0    0  501  503 -0.00000000000E+00 -0.00000000000E+00 -0.72065887467E+03  0.72065887467E+03  0.00000000000E+00 0. -1.
    9000005    1    1    2  501    0  0.24005224745E+03 -0.31976141505E+03 -0.49173502109E+03  0.74945031525E+03  0.40000000000E+03 0. -1.
   -9000005    1    1    2    0  502 -0.24005224745E+03  0.31976141505E+03  0.69908581312E+03  0.89921822611E+03  0.40000000000E+03 0.  1.
<mgrwt>
<rscale>  2 0.56557267E+03</rscale>
<asrwt>0</asrwt>
<pdfrwt beam="1">  1       21 0.14277072E+00 0.56557267E+03</pdfrwt>
<pdfrwt beam="2">  1       21 0.11087060E+00 0.56557267E+03</pdfrwt>
<totfact> 0.16833624E+02</totfact>
</mgrwt>
</event>
<event>
 4    1  0.4962426E-002  0.4527378E+03  0.7818608E-02  0.1026909E+00
         21   -1    0    0  503  502  0.00000000000E+00  0.00000000000E+00  0.14412387776E+03  0.14412387776E+03  0.00000000000E+00 0. -1.
         21   -1    0    0  501  503 -0.00000000000E+00 -0.00000000000E+00 -0.16677521612E+04  0.16677521612E+04  0.00000000000E+00 0. -1.
    9000005    1    1    2  501    0  0.21113471559E+03 -0.19841399570E+02 -0.11094410474E+04  0.11982616521E+04  0.40000000000E+03 0. -1.
   -9000005    1    1    2    0  502 -0.21113471559E+03  0.19841399570E+02 -0.41418723604E+03  0.61361438686E+03  0.40000000000E+03 0. -1.
<mgrwt>
<rscale>  2 0.45273784E+03</rscale>
<asrwt>0</asrwt>
<pdfrwt beam="1">  1       21 0.22172905E-01 0.45273784E+03</pdfrwt>
<pdfrwt beam="2">  1       21 0.25657725E+00 0.45273784E+03</pdfrwt>
<totfact> 0.94616765E+02</totfact>
</mgrwt>
</event>
<event>
 4    1  0.4962426E-002  0.4700183E+03  0.7818608E-02  0.1021915E+00
         21   -1    0    0  501  502  0.00000000000E+00  0.00000000000E+00  0.26540361065E+04  0.26540361065E+04  0.00000000000E+00 0. -1.
         21   -1    0    0  502  503 -0.00000000000E+00 -0.00000000000E+00 -0.97264122304E+02  0.97264122304E+02  0.00000000000E+00 0. -1.
    9000005    1    1    2  501    0 -0.18838319082E+03  0.15946472859E+03  0.18007787472E+04  0.18611075527E+04  0.40000000000E+03 0. -1.
   -9000005    1    1    2    0  503  0.18838319082E+03 -0.15946472859E+03  0.75599323698E+03  0.89019267611E+03  0.40000000000E+03 0. -1.
<mgrwt>
<rscale>  2 0.47001833E+03</rscale>
<asrwt>0</asrwt>
<pdfrwt beam="1">  1       21 0.40831319E+00 0.47001833E+03</pdfrwt>
<pdfrwt beam="2">  1       21 0.14963713E-01 0.47001833E+03</pdfrwt>
<totfact> 0.22966327E+02</totfact>
</mgrwt>
</event>
<event>
 4    1  0.4962426E-002  0.5356399E+03  0.7818608E-02  0.1004873E+00
         21   -1    0    0  503  502  0.00000000000E+00  0.00000000000E+00  0.13024246164E+03  0.13024246164E+03  0.00000000000E+00 0. -1.
         21   -1    0    0  501  503 -0.00000000000E+00 -0.00000000000E+00 -0.22094884098E+04  0.22094884098E+04  0.00000000000E+00 0. -1.
    9000005    1    1    2  501    0  0.26814993879E+03  0.23453306652E+03 -0.97570461441E+03  0.11130631804E+04  0.40000000000E+03 0. -1.
   -9000005    1    1    2    0  502 -0.26814993879E+03 -0.23453306652E+03 -0.11035413337E+04  0.12266676910E+04  0.40000000000E+03 0. -1.
<mgrwt>
<rscale>  2 0.53563994E+03</rscale>
<asrwt>0</asrwt>
<pdfrwt beam="1">  1       21 0.20037302E-01 0.53563994E+03</pdfrwt>
<pdfrwt beam="2">  1       21 0.33992129E+00 0.53563994E+03</pdfrwt>
<totfact> 0.34393788E+02</totfact>
</mgrwt>
</event>
<event>
 4    1  0.4962426E-002  0.5018042E+03  0.7818608E-02  0.1013309E+00
         21   -1    0    0  503  502  0.00000000000E+00  0.00000000000E+00  0.63986108951E+03  0.63986108951E+03  0.00000000000E+00 0.  1.
         21   -1    0    0  501  503 -0.00000000000E+00 -0.00000000000E+00 -0.96002314414E+03  0.96002314414E+03  0.00000000000E+00 0.  1.
    9000005    1    1    2  501    0  0.30072670545E+03  0.37025577573E+02 -0.77456887295E+03  0.92291082111E+03  0.40000000000E+03 0.  1.
   -9000005    1    1    2    0  502 -0.30072670545E+03 -0.37025577573E+02  0.45440681832E+03  0.67697341255E+03  0.40000000000E+03 0.  1.
<mgrwt>
<rscale>  2 0.50180419E+03</rscale>
<asrwt>0</asrwt>
<pdfrwt beam="1">  1       21 0.98440168E-01 0.50180419E+03</pdfrwt>
<pdfrwt beam="2">  1       21 0.14769587E+00 0.50180419E+03</pdfrwt>
<totfact> 0.21163347E+02</totfact>
</mgrwt>
</event>
<event>
 4    1  0.4962426E-002  0.5783407E+03  0.7818608E-02  0.9951390E-01
         21   -1    0    0  503  502  0.00000000000E+00  0.00000000000E+00  0.12672271373E+04  0.12672271373E+04  0.00000000000E+00 0.  1.
         21   -1    0    0  501  503 -0.00000000000E+00 -0.00000000000E+00 -0.26490555160E+03  0.26490555160E+03  0.00000000000E+00 0.  1.
    9000005    1    1    2  501    0 -0.26536264513E+03  0.32258432929E+03  0.45502565415E+03  0.73588472526E+03  0.40000000000E+03 0.  1.
   -9000005    1    1    2    0  502  0.26536264513E+03 -0.32258432929E+03  0.54729593156E+03  0.79624796366E+03  0.40000000000E+03 0.  1.
<mgrwt>
<rscale>  2 0.57834072E+03</rscale>
<asrwt>0</asrwt>
<pdfrwt beam="1">  1       21 0.19495802E+00 0.57834072E+03</pdfrwt>
<pdfrwt beam="2">  1       21 0.40754701E-01 0.57834072E+03</pdfrwt>
<totfact> 0.66065786E+02</totfact>
</mgrwt>
</event>
<event>
 4    1  0.4962426E-002  0.4457537E+03  0.7818608E-02  0.1028996E+00
         21   -1    0    0  503  502  0.00000000000E+00  0.00000000000E+00  0.16902180453E+03  0.16902180453E+03  0.00000000000E+00 0. -1.
         21   -1    0    0  501  503 -0.00000000000E+00 -0.00000000000E+00 -0.11998314206E+04  0.11998314206E+04  0.00000000000E+00 0. -1.
    9000005    1    1    2  501    0 -0.12871857796E+02 -0.19629238401E+03 -0.41807284297E+03  0.61113115350E+03  0.40000000000E+03 0. -1.
   -9000005    1    1    2    0  502  0.12871857796E+02  0.19629238401E+03 -0.61273677312E+03  0.75772207166E+03  0.40000000000E+03 0. -1.
<mgrwt>
<rscale>  2 0.44575373E+03</rscale>
<asrwt>0</asrwt>
<pdfrwt beam="1">  1       21 0.26003354E-01 0.44575373E+03</pdfrwt>
<pdfrwt beam="2">  1       21 0.18458945E+00 0.44575373E+03</pdfrwt>
<totfact> 0.20252196E+03</totfact>
</mgrwt>
</event>
<event>
 4    1  0.4962426E-002  0.4271335E+03  0.7818608E-02  0.1034769E+00
         21   -1    0    0  503  502  0.00000000000E+00  0.00000000000E+00  0.83686758877E+03  0.83686758877E+03  0.00000000000E+00 0. -1.
         21   -1    0    0  501  503 -0.00000000000E+00 -0.00000000000E+00 -0.36628140047E+03  0.36628140047E+03  0.00000000000E+00 0. -1.
    9000005    1    1    2  501    0 -0.11628368327E+03 -0.94451524557E+02 -0.14745680272E+03  0.45186999696E+03  0.40000000000E+03 0. -1.
   -9000005    1    1    2    0  502  0.11628368327E+03  0.94451524557E+02  0.61804299102E+03  0.75127899227E+03  0.40000000000E+03 0. -1.
<mgrwt>
<rscale>  2 0.42713345E+03</rscale>
<asrwt>0</asrwt>
<pdfrwt beam="1">  1       21 0.12874886E+00 0.42713345E+03</pdfrwt>
<pdfrwt beam="2">  1       21 0.56350985E-01 0.42713345E+03</pdfrwt>
<totfact> 0.11257880E+03</totfact>
</mgrwt>
</event>
<event>
 4    1  0.4962426E-002  0.4522899E+03  0.7818608E-02  0.1027041E+00
         21   -1    0    0  503  502  0.00000000000E+00  0.00000000000E+00  0.14235036333E+04  0.14235036333E+04  0.00000000000E+00 0.  1.
         21   -1    0    0  501  503 -0.00000000000E+00 -0.00000000000E+00 -0.18924744420E+03  0.18924744420E+03  0.00000000000E+00 0. -1.
    9000005    1    1    2  501    0  0.20857971068E+03 -0.32568010623E+02  0.10126997857E+04  0.11091109173E+04  0.40000000000E+03 0.  1.
   -9000005    1    1    2    0  502 -0.20857971068E+03  0.32568010623E+02  0.22155640337E+03  0.50364016013E+03  0.40000000000E+03 0. -1.
<mgrwt>
<rscale>  2 0.45228992E+03</rscale>
<asrwt>0</asrwt>
<pdfrwt beam="1">  1       21 0.21900055E+00 0.45228992E+03</pdfrwt>
<pdfrwt beam="2">  1       21 0.29114992E-01 0.45228992E+03</pdfrwt>
<totfact> 0.95441416E+02</totfact>
</mgrwt>
</event>
<event>
 4    1  0.4962426E-002  0.4133527E+03  0.7818608E-02  0.1039252E+00
         21   -1    0    0  501  502  0.00000000000E+00  0.00000000000E+00  0.52971265142E+03  0.52971265142E+03  0.00000000000E+00 0. -1.
         21   -1    0    0  502  503 -0.00000000000E+00 -0.00000000000E+00 -0.49963100082E+03  0.49963100082E+03  0.00000000000E+00 0. -1.
    9000005    1    1    2  501    0  0.10320643972E+03  0.14453190723E+02  0.32144020001E+03  0.52362607470E+03  0.40000000000E+03 0. -1.
   -9000005    1    1    2    0  503 -0.10320643972E+03 -0.14453190723E+02 -0.29135854941E+03  0.50571757754E+03  0.40000000000E+03 0. -1.
<mgrwt>
<rscale>  2 0.41335271E+03</rscale>
<asrwt>0</asrwt>
<pdfrwt beam="1">  1       21 0.81494254E-01 0.41335271E+03</pdfrwt>
<pdfrwt beam="2">  1       21 0.76866308E-01 0.41335271E+03</pdfrwt>
<totfact> 0.17330842E+03</totfact>
</mgrwt>
</event>
<event>
 4    1  0.4962426E-002  0.4248206E+03  0.7818608E-02  0.1035509E+00
         21   -1    0    0  503  502  0.00000000000E+00  0.00000000000E+00  0.41572000672E+03  0.41572000672E+03  0.00000000000E+00 0. -1.
         21   -1    0    0  501  503 -0.00000000000E+00 -0.00000000000E+00 -0.45180425445E+03  0.45180425445E+03  0.00000000000E+00 0.  1.
    9000005    1    1    2  501    0  0.13566983086E+03 -0.45456214266E+02 -0.10385726336E+03  0.43733156938E+03  0.40000000000E+03 0.  1.
   -9000005    1    1    2    0  502 -0.13566983086E+03  0.45456214266E+02  0.67773015635E+02  0.43019269179E+03  0.40000000000E+03 0. -1.
<mgrwt>
<rscale>  2 0.42482063E+03</rscale>
<asrwt>0</asrwt>
<pdfrwt beam="1">  1       21 0.63956924E-01 0.42482063E+03</pdfrwt>
<pdfrwt beam="2">  1       21 0.69508347E-01 0.42482063E+03</pdfrwt>
<totfact> 0.37494940E+03</totfact>
</mgrwt>
</event>
<event>
 4    1  0.4962426E-002  0.4114006E+03  0.7818608E-02  0.1039902E+00
         21   -1    0    0  503  502  0.00000000000E+00  0.00000000000E+00  0.38742562867E+03  0.38742562867E+03  0.00000000000E+00 0. -1.
         21   -1    0    0  501  503 -0.00000000000E+00 -0.00000000000E+00 -0.56541838982E+03  0.56541838982E+03  0.00000000000E+00 0. -1.
    9000005    1    1    2  501    0 -0.86617497952E+02  0.41807352300E+02 -0.31617028110E+03  0.51885845113E+03  0.40000000000E+03 0. -1.
   -9000005    1    1    2    0  502  0.86617497952E+02 -0.41807352300E+02  0.13817751995E+03  0.43398556736E+03  0.40000000000E+03 0. -1.
<mgrwt>
<rscale>  2 0.41140059E+03</rscale>
<asrwt>0</asrwt>
<pdfrwt beam="1">  1       21 0.59603943E-01 0.41140059E+03</pdfrwt>
<pdfrwt beam="2">  1       21 0.86987444E-01 0.41140059E+03</pdfrwt>
<totfact> 0.26301799E+03</totfact>
</mgrwt>
</event>
<event>
 4    1  0.4962426E-002  0.4627213E+03  0.7818608E-02  0.1023995E+00
         21   -1    0    0  501  502  0.00000000000E+00  0.00000000000E+00  0.43166328383E+03  0.43166328383E+03  0.00000000000E+00 0. -1.
         21   -1    0    0  502  503 -0.00000000000E+00 -0.00000000000E+00 -0.64455315330E+03  0.64455315330E+03  0.00000000000E+00 0.  1.
    9000005    1    1    2  501    0  0.52735307661E+02 -0.22656113920E+03  0.15187680929E+03  0.48700875523E+03  0.40000000000E+03 0. -1.
   -9000005    1    1    2    0  503 -0.52735307661E+02  0.22656113920E+03 -0.36476667876E+03  0.58920768189E+03  0.40000000000E+03 0.  1.
<mgrwt>
<rscale>  2 0.46272126E+03</rscale>
<asrwt>0</asrwt>
<pdfrwt beam="1">  1       21 0.66409736E-01 0.46272126E+03</pdfrwt>
<pdfrwt beam="2">  1       21 0.99162024E-01 0.46272126E+03</pdfrwt>
<totfact> 0.14861481E+03</totfact>
</mgrwt>
</event>
<event>
 4    1  0.4962426E-002  0.4030686E+03  0.7818608E-02  0.1042722E+00
         21   -1    0    0  501  502  0.00000000000E+00  0.00000000000E+00  0.12399950051E+04  0.12399950051E+04  0.00000000000E+00 0. -1.
         21   -1    0    0  502  503 -0.00000000000E+00 -0.00000000000E+00 -0.23510600504E+03  0.23510600504E+03  0.00000000000E+00 0. -1.
    9000005    1    1    2  501    0  0.33637830368E+01  0.49527408049E+02  0.99318946110E+03  0.10718626707E+04  0.40000000000E+03 0. -1.
   -9000005    1    1    2    0  503 -0.33637830368E+01 -0.49527408049E+02  0.11699538965E+02  0.40323833944E+03  0.40000000000E+03 0. -1.
<mgrwt>
<rscale>  2 0.40306858E+03</rscale>
<asrwt>0</asrwt>
<pdfrwt beam="1">  1       21 0.19076846E+00 0.40306858E+03</pdfrwt>
<pdfrwt beam="2">  1       21 0.36170155E-01 0.40306858E+03</pdfrwt>
<totfact> 0.97145839E+02</totfact>
</mgrwt>
</event>
<event>
 4    1  0.4962426E-002  0.5083804E+03  0.7818608E-02  0.1011614E+00
         21   -1    0    0  501  502  0.00000000000E+00  0.00000000000E+00  0.69546567314E+03  0.69546567314E+03  0.00000000000E+00 0.  1.
         21   -1    0    0  502  503 -0.00000000000E+00 -0.00000000000E+00 -0.39281467127E+03  0.39281467127E+03  0.00000000000E+00 0.  1.
    9000005    1    1    2  501    0 -0.10137788916E+03 -0.29693956508E+03  0.24937369295E+02  0.50899160514E+03  0.40000000000E+03 0. -1.
   -9000005    1    1    2    0  503  0.10137788916E+03  0.29693956508E+03  0.27771363257E+03  0.57928873926E+03  0.40000000000E+03 0. -1.
<mgrwt>
<rscale>  2 0.50838035E+03</rscale>
<asrwt>0</asrwt>
<pdfrwt beam="1">  1       21 0.10699472E+00 0.50838035E+03</pdfrwt>
<pdfrwt beam="2">  1       21 0.60433027E-01 0.50838035E+03</pdfrwt>
<totfact> 0.14947120E+03</totfact>
</mgrwt>
</event>
<event>
 4    1  0.4962426E-002  0.4180347E+03  0.7818608E-02  0.1037708E+00
         21   -1    0    0  501  502  0.00000000000E+00  0.00000000000E+00  0.27669465111E+03  0.27669465111E+03  0.00000000000E+00 0. -1.
         21   -1    0    0  502  503 -0.00000000000E+00 -0.00000000000E+00 -0.72943790440E+03  0.72943790440E+03  0.00000000000E+00 0. -1.
    9000005    1    1    2  501    0  0.10939977960E+03 -0.52769960773E+02 -0.42106287308E+02  0.42014987798E+03  0.40000000000E+03 0. -1.
   -9000005    1    1    2    0  503 -0.10939977960E+03  0.52769960773E+02 -0.41063696598E+03  0.58598267753E+03  0.40000000000E+03 0. -1.
<mgrwt>
<rscale>  2 0.41803466E+03</rscale>
<asrwt>0</asrwt>
<pdfrwt beam="1">  1       21 0.42568408E-01 0.41803466E+03</pdfrwt>
<pdfrwt beam="2">  1       21 0.11222122E+00 0.41803466E+03</pdfrwt>
<totfact> 0.29002678E+03</totfact>
</mgrwt>
</event>
<event>
 4    1  0.4962426E-002  0.4945891E+03  0.7818608E-02  0.1015201E+00
         21   -1    0    0  501  502  0.00000000000E+00  0.00000000000E+00  0.77949498485E+03  0.77949498485E+03  0.00000000000E+00 0. -1.
         21   -1    0    0  502  503 -0.00000000000E+00 -0.00000000000E+00 -0.36703217851E+03  0.36703217851E+03  0.00000000000E+00 0. -1.
    9000005    1    1    2  501    0  0.47032924444E+02  0.28706500506E+03 -0.12052621229E+02  0.49473596877E+03  0.40000000000E+03 0. -1.
   -9000005    1    1    2    0  503 -0.47032924444E+02 -0.28706500506E+03  0.42451542756E+03  0.65179119460E+03  0.40000000000E+03 0. -1.
<mgrwt>
<rscale>  2 0.49458914E+03</rscale>
<asrwt>0</asrwt>
<pdfrwt beam="1">  1       21 0.11992231E+00 0.49458914E+03</pdfrwt>
<pdfrwt beam="2">  1       21 0.56466489E-01 0.49458914E+03</pdfrwt>
<totfact> 0.13093061E+03</totfact>
</mgrwt>
</event>
<event>
 4    1  0.4962426E-002  0.5140929E+03  0.7818608E-02  0.1010165E+00
         21   -1    0    0  501  502  0.00000000000E+00  0.00000000000E+00  0.29383831793E+03  0.29383831793E+03  0.00000000000E+00 0.  1.
         21   -1    0    0  502  503 -0.00000000000E+00 -0.00000000000E+00 -0.90452212094E+03  0.90452212094E+03  0.00000000000E+00 0.  1.
    9000005    1    1    2  501    0  0.32006318250E+03  0.43024493865E+02 -0.35023049077E+03  0.62205541918E+03  0.40000000000E+03 0.  1.
   -9000005    1    1    2    0  503 -0.32006318250E+03 -0.43024493865E+02 -0.26045331223E+03  0.57630501969E+03  0.40000000000E+03 0.  1.
<mgrwt>
<rscale>  2 0.51409294E+03</rscale>
<asrwt>0</asrwt>
<pdfrwt beam="1">  1       21 0.45205895E-01 0.51409294E+03</pdfrwt>
<pdfrwt beam="2">  1       21 0.13915725E+00 0.51409294E+03</pdfrwt>
<totfact> 0.14198815E+03</totfact>
</mgrwt>
</event>
<event>
 4    1  0.4962426E-002  0.4130514E+03  0.7818608E-02  0.1039352E+00
         21   -1    0    0  501  502  0.00000000000E+00  0.00000000000E+00  0.32577690547E+03  0.32577690547E+03  0.00000000000E+00 0. -1.
         21   -1    0    0  502  503 -0.00000000000E+00 -0.00000000000E+00 -0.22015035122E+04  0.22015035122E+04  0.00000000000E+00 0. -1.
    9000005    1    1    2  501    0  0.39923666652E+02  0.94960632142E+02  0.16528392541E+03  0.44489346681E+03  0.40000000000E+03 0. -1.
   -9000005    1    1    2    0  503 -0.39923666652E+02 -0.94960632142E+02 -0.20410105321E+04  0.20823869508E+04  0.40000000000E+03 0. -1.
<mgrwt>
<rscale>  2 0.41305135E+03</rscale>
<asrwt>0</asrwt>
<pdfrwt beam="1">  1       21 0.50119523E-01 0.41305135E+03</pdfrwt>
<pdfrwt beam="2">  1       21 0.33869285E+00 0.41305135E+03</pdfrwt>
<totfact> 0.59979698E+01</totfact>
</mgrwt>
</event>
<event>
 4    1  0.4962426E-002  0.4845860E+03  0.7818608E-02  0.1017882E+00
         21   -1    0    0  501  502  0.00000000000E+00  0.00000000000E+00  0.19822152355E+04  0.19822152355E+04  0.00000000000E+00 0.  1.
         21   -1    0    0  502  503 -0.00000000000E+00 -0.00000000000E+00 -0.70368348639E+03  0.70368348639E+03  0.00000000000E+00 0.  1.
    9000005    1    1    2  501    0  0.26360453692E+03  0.73049525619E+02  0.18639663597E+04  0.19259268354E+04  0.40000000000E+03 0.  1.
   -9000005    1    1    2    0  503 -0.26360453692E+03 -0.73049525619E+02 -0.58543461057E+03  0.75997188654E+03  0.40000000000E+03 0.  1.
<mgrwt>
<rscale>  2 0.48458599E+03</rscale>
<asrwt>0</asrwt>
<pdfrwt beam="1">  1       21 0.30495619E+00 0.48458599E+03</pdfrwt>
<pdfrwt beam="2">  1       21 0.10825900E+00 0.48458599E+03</pdfrwt>
<totfact> 0.15697720E+01</totfact>
</mgrwt>
</event>
<event>
 4    1  0.4962426E-002  0.5351645E+03  0.7818608E-02  0.1004987E+00
         21   -1    0    0  501  502  0.00000000000E+00  0.00000000000E+00  0.86431841822E+03  0.86431841822E+03  0.00000000000E+00 0. -1.
         21   -1    0    0  502  503 -0.00000000000E+00 -0.00000000000E+00 -0.33147049648E+03  0.33147049648E+03  0.00000000000E+00 0. -1.
    9000005    1    1    2  501    0 -0.62089119058E+02 -0.35006560910E+03  0.27731520272E+03  0.60274763462E+03  0.40000000000E+03 0. -1.
   -9000005    1    1    2    0  503  0.62089119058E+02  0.35006560910E+03  0.25553271903E+03  0.59304128008E+03  0.40000000000E+03 0. -1.
<mgrwt>
<rscale>  2 0.53516445E+03</rscale>
<asrwt>0</asrwt>
<pdfrwt beam="1">  1       21 0.13297206E+00 0.53516445E+03</pdfrwt>
<pdfrwt beam="2">  1       21 0.50995461E-01 0.53516445E+03</pdfrwt>
<totfact> 0.12309514E+03</totfact>
</mgrwt>
</event>
<event>
 4    1  0.4962426E-002  0.4966691E+03  0.7818608E-02  0.1014652E+00
         21   -1    0    0  501  502  0.00000000000E+00  0.00000000000E+00  0.61952898465E+03  0.61952898465E+03  0.00000000000E+00 0. -1.
         21   -1    0    0  502  503 -0.00000000000E+00 -0.00000000000E+00 -0.74761122410E+03  0.74761122410E+03  0.00000000000E+00 0. -1.
    9000005    1    1    2  501    0 -0.28485085294E+03 -0.74432289698E+02  0.40329559144E+03  0.63978708040E+03  0.40000000000E+03 0. -1.
   -9000005    1    1    2    0  503  0.28485085294E+03  0.74432289698E+02 -0.53137783089E+03  0.72735312836E+03  0.40000000000E+03 0. -1.
<mgrwt>
<rscale>  2 0.49666908E+03</rscale>
<asrwt>0</asrwt>
<pdfrwt beam="1">  1       21 0.95312152E-01 0.49666908E+03</pdfrwt>
<pdfrwt beam="2">  1       21 0.11501711E+00 0.49666908E+03</pdfrwt>
<totfact> 0.44041961E+02</totfact>
</mgrwt>
</event>
<event>
 4    1  0.4962426E-002  0.6060682E+03  0.7818608E-02  0.9892896E-01
         21   -1    0    0  503  502  0.00000000000E+00  0.00000000000E+00  0.66248544257E+03  0.66248544257E+03  0.00000000000E+00 0.  1.
         21   -1    0    0  501  503 -0.00000000000E+00 -0.00000000000E+00 -0.14609071157E+04  0.14609071157E+04  0.00000000000E+00 0.  1.
    9000005    1    1    2  501    0  0.40766258532E+03  0.20280503364E+03 -0.12355093378E+04  0.13761547838E+04  0.40000000000E+03 0.  1.
   -9000005    1    1    2    0  502 -0.40766258532E+03 -0.20280503364E+03  0.43708766462E+03  0.74723777454E+03  0.40000000000E+03 0.  1.
<mgrwt>
<rscale>  2 0.60606820E+03</rscale>
<asrwt>0</asrwt>
<pdfrwt beam="1">  1       21 0.10192084E+00 0.60606820E+03</pdfrwt>
<pdfrwt beam="2">  1       21 0.22475494E+00 0.60606820E+03</pdfrwt>
<totfact> 0.53108171E+01</totfact>
</mgrwt>
</event>
<event>
 4    1  0.4962426E-002  0.5738617E+03  0.7818608E-02  0.9961169E-01
         21   -1    0    0  503  502  0.00000000000E+00  0.00000000000E+00  0.98617973244E+03  0.98617973244E+03  0.00000000000E+00 0. -1.
         21   -1    0    0  501  503 -0.00000000000E+00 -0.00000000000E+00 -0.37839177540E+03  0.37839177540E+03  0.00000000000E+00 0. -1.
    9000005    1    1    2  501    0  0.36318774023E+03 -0.19342174344E+03  0.70022408053E+02  0.57811801833E+03  0.40000000000E+03 0. -1.
   -9000005    1    1    2    0  502 -0.36318774023E+03  0.19342174344E+03  0.53776554898E+03  0.78645348951E+03  0.40000000000E+03 0. -1.
<mgrwt>
<rscale>  2 0.57386175E+03</rscale>
<asrwt>0</asrwt>
<pdfrwt beam="1">  1       21 0.15171996E+00 0.57386175E+03</pdfrwt>
<pdfrwt beam="2">  1       21 0.58214120E-01 0.57386175E+03</pdfrwt>
<totfact> 0.63967520E+02</totfact>
</mgrwt>
</event>
<event>
 4    1  0.4962426E-002  0.4036891E+03  0.7818608E-02  0.1042510E+00
         21   -1    0    0  503  502  0.00000000000E+00  0.00000000000E+00  0.28915583689E+03  0.28915583689E+03  0.00000000000E+00 0. -1.
         21   -1    0    0  501  503 -0.00000000000E+00 -0.00000000000E+00 -0.56506052915E+03  0.56506052915E+03  0.00000000000E+00 0. -1.
    9000005    1    1    2  501    0 -0.33143548248E+02 -0.43202250490E+02 -0.15975131386E+03  0.43414906601E+03  0.40000000000E+03 0.  1.
   -9000005    1    1    2    0  502  0.33143548248E+02  0.43202250490E+02 -0.11615337841E+03  0.42006730003E+03  0.40000000000E+03 0.  1.
<mgrwt>
<rscale>  2 0.40368915E+03</rscale>
<asrwt>0</asrwt>
<pdfrwt beam="1">  1       21 0.44485514E-01 0.40368915E+03</pdfrwt>
<pdfrwt beam="2">  1       21 0.86932387E-01 0.40368915E+03</pdfrwt>
<totfact> 0.49313659E+03</totfact>
</mgrwt>
</event>
<event>
 4    1  0.4962426E-002  0.4035088E+03  0.7818608E-02  0.1042571E+00
         21   -1    0    0  503  502  0.00000000000E+00  0.00000000000E+00  0.32400029122E+03  0.32400029122E+03  0.00000000000E+00 0.  1.
         21   -1    0    0  501  503 -0.00000000000E+00 -0.00000000000E+00 -0.51154653490E+03  0.51154653490E+03  0.00000000000E+00 0.  1.
    9000005    1    1    2  501    0  0.54421474384E+01  0.52817990152E+02 -0.38303409743E+02  0.40532272111E+03  0.40000000000E+03 0. -1.
   -9000005    1    1    2    0  502 -0.54421474384E+01 -0.52817990152E+02 -0.14924283394E+03  0.43022410501E+03  0.40000000000E+03 0. -1.
<mgrwt>
<rscale>  2 0.40350881E+03</rscale>
<asrwt>0</asrwt>
<pdfrwt beam="1">  1       21 0.49846199E-01 0.40350881E+03</pdfrwt>
<pdfrwt beam="2">  1       21 0.78699467E-01 0.40350881E+03</pdfrwt>
<totfact> 0.48899967E+03</totfact>
</mgrwt>
</event>
<event>
 4    1  0.4962426E-002  0.4095003E+03  0.7818608E-02  0.1040539E+00
         21   -1    0    0  503  502  0.00000000000E+00  0.00000000000E+00  0.42994490997E+03  0.42994490997E+03  0.00000000000E+00 0. -1.
         21   -1    0    0  501  503 -0.00000000000E+00 -0.00000000000E+00 -0.78370628294E+03  0.78370628294E+03  0.00000000000E+00 0.  1.
    9000005    1    1    2  501    0 -0.30728737514E+02 -0.82135682269E+02 -0.60696934635E+03  0.73219007984E+03  0.40000000000E+03 0.  1.
   -9000005    1    1    2    0  502  0.30728737514E+02  0.82135682269E+02  0.25320797338E+03  0.48146111306E+03  0.40000000000E+03 0. -1.
<mgrwt>
<rscale>  2 0.40950034E+03</rscale>
<asrwt>0</asrwt>
<pdfrwt beam="1">  1       21 0.66145372E-01 0.40950034E+03</pdfrwt>
<pdfrwt beam="2">  1       21 0.12057020E+00 0.40950034E+03</pdfrwt>
<totfact> 0.94453505E+02</totfact>
</mgrwt>
</event>
<event>
 4    1  0.4962426E-002  0.4249609E+03  0.7818608E-02  0.1035464E+00
         21   -1    0    0  503  502  0.00000000000E+00  0.00000000000E+00  0.24051886365E+03  0.24051886365E+03  0.00000000000E+00 0.  1.
         21   -1    0    0  501  503 -0.00000000000E+00 -0.00000000000E+00 -0.76280617831E+03  0.76280617831E+03  0.00000000000E+00 0.  1.
    9000005    1    1    2  501    0 -0.33821569444E+02 -0.13945569726E+03 -0.19831807426E+03  0.46895825895E+03  0.40000000000E+03 0.  1.
   -9000005    1    1    2    0  502  0.33821569444E+02  0.13945569726E+03 -0.32396924041E+03  0.53436678301E+03  0.40000000000E+03 0.  1.
<mgrwt>
<rscale>  2 0.42496093E+03</rscale>
<asrwt>0</asrwt>
<pdfrwt beam="1">  1       21 0.37002902E-01 0.42496093E+03</pdfrwt>
<pdfrwt beam="2">  1       21 0.11735480E+00 0.42496093E+03</pdfrwt>
<totfact> 0.34503607E+03</totfact>
</mgrwt>
</event>
<event>
 4    1  0.4962426E-002  0.4118352E+03  0.7818608E-02  0.1039757E+00
         21   -1    0    0  503  502  0.00000000000E+00  0.00000000000E+00  0.29852431287E+03  0.29852431287E+03  0.00000000000E+00 0.  1.
         21   -1    0    0  501  503 -0.00000000000E+00 -0.00000000000E+00 -0.56941412141E+03  0.56941412141E+03  0.00000000000E+00 0. -1.
    9000005    1    1    2  501    0  0.91314822105E+02 -0.35635201417E+02 -0.15584690087E+03  0.44033682656E+03  0.40000000000E+03 0. -1.
   -9000005    1    1    2    0  502 -0.91314822105E+02  0.35635201417E+02 -0.11504290767E+03  0.42760160772E+03  0.40000000000E+03 0. -1.
<mgrwt>
<rscale>  2 0.41183524E+03</rscale>
<asrwt>0</asrwt>
<pdfrwt beam="1">  1       21 0.45926818E-01 0.41183524E+03</pdfrwt>
<pdfrwt beam="2">  1       21 0.87602171E-01 0.41183524E+03</pdfrwt>
<totfact> 0.45171265E+03</totfact>
</mgrwt>
</event>
<event>
 4    1  0.4962426E-002  0.4792541E+03  0.7818608E-02  0.1019340E+00
         21   -1    0    0  501  502  0.00000000000E+00  0.00000000000E+00  0.18115638988E+04  0.18115638988E+04  0.00000000000E+00 0. -1.
         21   -1    0    0  502  503 -0.00000000000E+00 -0.00000000000E+00 -0.51704632420E+03  0.51704632420E+03  0.00000000000E+00 0. -1.
    9000005    1    1    2  501    0  0.24394253057E+03 -0.10087889446E+03  0.16587874206E+04  0.17266326234E+04  0.40000000000E+03 0. -1.
   -9000005    1    1    2    0  503 -0.24394253057E+03  0.10087889446E+03 -0.36426984606E+03  0.60197759951E+03  0.40000000000E+03 0. -1.
<mgrwt>
<rscale>  2 0.47925412E+03</rscale>
<asrwt>0</asrwt>
<pdfrwt beam="1">  1       21 0.27870213E+00 0.47925412E+03</pdfrwt>
<pdfrwt beam="2">  1       21 0.79545590E-01 0.47925412E+03</pdfrwt>
<totfact> 0.47434162E+01</totfact>
</mgrwt>
</event>
<event>
 4    1  0.4962426E-002  0.6916398E+03  0.7818608E-02  0.9731637E-01
         21   -1    0    0  501  502  0.00000000000E+00  0.00000000000E+00  0.35001056929E+03  0.35001056929E+03  0.00000000000E+00 0. -1.
         21   -1    0    0  502  503 -0.00000000000E+00 -0.00000000000E+00 -0.15616984936E+04  0.15616984936E+04  0.00000000000E+00 0.  1.
    9000005    1    1    2  501    0  0.55985454755E+03 -0.70203639925E+02 -0.26809887209E+03  0.74178343921E+03  0.40000000000E+03 0.  1.
   -9000005    1    1    2    0  503 -0.55985454755E+03  0.70203639925E+02 -0.94358905221E+03  0.11699256237E+04  0.40000000000E+03 0.  1.
<mgrwt>
<rscale>  2 0.69163984E+03</rscale>
<asrwt>0</asrwt>
<pdfrwt beam="1">  1       21 0.53847781E-01 0.69163984E+03</pdfrwt>
<pdfrwt beam="2">  1       21 0.24026130E+00 0.69163984E+03</pdfrwt>
<totfact> 0.17757635E+02</totfact>
</mgrwt>
</event>
<event>
 4    1  0.4962426E-002  0.4024511E+03  0.7818608E-02  0.1042934E+00
         21   -1    0    0  501  502  0.00000000000E+00  0.00000000000E+00  0.81114872496E+03  0.81114872496E+03  0.00000000000E+00 0.  1.
         21   -1    0    0  502  503 -0.00000000000E+00 -0.00000000000E+00 -0.21858174449E+03  0.21858174449E+03  0.00000000000E+00 0.  1.
    9000005    1    1    2  501    0  0.31783410517E+02 -0.30930615019E+02  0.14486317405E+03  0.42772915183E+03  0.40000000000E+03 0.  1.
   -9000005    1    1    2    0  503 -0.31783410517E+02  0.30930615019E+02  0.44770380642E+03  0.60200131762E+03  0.40000000000E+03 0.  1.
<mgrwt>
<rscale>  2 0.40245110E+03</rscale>
<asrwt>0</asrwt>
<pdfrwt beam="1">  1       21 0.12479211E+00 0.40245110E+03</pdfrwt>
<pdfrwt beam="2">  1       21 0.33627961E-01 0.40245110E+03</pdfrwt>
<totfact> 0.36124455E+03</totfact>
</mgrwt>
</event>
<event>
 4    1  0.4962426E-002  0.4506410E+03  0.7818608E-02  0.1027531E+00
         21   -1    0    0  503  502  0.00000000000E+00  0.00000000000E+00  0.78890432890E+03  0.78890432890E+03  0.00000000000E+00 0. -1.
         21   -1    0    0  501  503 -0.00000000000E+00 -0.00000000000E+00 -0.31234393385E+03  0.31234393385E+03  0.00000000000E+00 0. -1.
    9000005    1    1    2  501    0  0.72626704389E+02  0.19442912073E+03  0.73760658947E+01  0.45070137289E+03  0.40000000000E+03 0. -1.
   -9000005    1    1    2    0  502 -0.72626704389E+02 -0.19442912073E+03  0.46918432916E+03  0.65054688986E+03  0.40000000000E+03 0. -1.
<mgrwt>
<rscale>  2 0.45064101E+03</rscale>
<asrwt>0</asrwt>
<pdfrwt beam="1">  1       21 0.12136990E+00 0.45064101E+03</pdfrwt>
<pdfrwt beam="2">  1       21 0.48052913E-01 0.45064101E+03</pdfrwt>
<totfact> 0.18244159E+03</totfact>
</mgrwt>
</event>
<event>
 4    1  0.4962426E-002  0.4291386E+03  0.7818608E-02  0.1034132E+00
         21   -1    0    0  501  502  0.00000000000E+00  0.00000000000E+00  0.91660236716E+03  0.91660236716E+03  0.00000000000E+00 0. -1.
         21   -1    0    0  502  503 -0.00000000000E+00 -0.00000000000E+00 -0.24879181918E+03  0.24879181918E+03  0.00000000000E+00 0. -1.
    9000005    1    1    2  501    0 -0.27599166271E+02  0.15296475514E+03  0.58951869896E+03  0.72917228878E+03  0.40000000000E+03 0. -1.
   -9000005    1    1    2    0  503  0.27599166271E+02 -0.15296475514E+03  0.78291849010E+02  0.43622189756E+03  0.40000000000E+03 0. -1.
<mgrwt>
<rscale>  2 0.42913859E+03</rscale>
<asrwt>0</asrwt>
<pdfrwt beam="1">  1       21 0.14101575E+00 0.42913859E+03</pdfrwt>
<pdfrwt beam="2">  1       21 0.38275665E-01 0.42913859E+03</pdfrwt>
<totfact> 0.19990434E+03</totfact>
</mgrwt>
</event>
<event>
 4    1  0.4962426E-002  0.4535752E+03  0.7818608E-02  0.1026661E+00
         21   -1    0    0  501  502  0.00000000000E+00  0.00000000000E+00  0.17184902656E+03  0.17184902656E+03  0.00000000000E+00 0. -1.
         21   -1    0    0  502  503 -0.00000000000E+00 -0.00000000000E+00 -0.12721462143E+04  0.12721462143E+04  0.00000000000E+00 0.  1.
    9000005    1    1    2  501    0  0.57010958957E+02  0.20610734139E+03 -0.72544093320E+03  0.85556708281E+03  0.40000000000E+03 0.  1.
   -9000005    1    1    2    0  503 -0.57010958957E+02 -0.20610734139E+03 -0.37485625454E+03  0.58842815805E+03  0.40000000000E+03 0.  1.
<mgrwt>
<rscale>  2 0.45357523E+03</rscale>
<asrwt>0</asrwt>
<pdfrwt beam="1">  1       21 0.26438313E-01 0.45357523E+03</pdfrwt>
<pdfrwt beam="2">  1       21 0.19571479E+00 0.45357523E+03</pdfrwt>
<totfact> 0.16399819E+03</totfact>
</mgrwt>
</event>
<event>
 4    1  0.4962426E-002  0.4079651E+03  0.7818608E-02  0.1041056E+00
         21   -1    0    0  503  502  0.00000000000E+00  0.00000000000E+00  0.68520202677E+03  0.68520202677E+03  0.00000000000E+00 0.  1.
         21   -1    0    0  501  503 -0.00000000000E+00 -0.00000000000E+00 -0.37461531310E+03  0.37461531310E+03  0.00000000000E+00 0.  1.
    9000005    1    1    2  501    0  0.49536373291E+02  0.63100450150E+02 -0.15892136166E+03  0.43782589951E+03  0.40000000000E+03 0. -1.
   -9000005    1    1    2    0  502 -0.49536373291E+02 -0.63100450150E+02  0.46950807533E+03  0.62199144037E+03  0.40000000000E+03 0. -1.
<mgrwt>
<rscale>  2 0.40796510E+03</rscale>
<asrwt>0</asrwt>
<pdfrwt beam="1">  1       21 0.10541570E+00 0.40796510E+03</pdfrwt>
<pdfrwt beam="2">  1       21 0.57633125E-01 0.40796510E+03</pdfrwt>
<totfact> 0.17874642E+03</totfact>
</mgrwt>
</event>
<event>
 4    1  0.4962426E-002  0.4064123E+03  0.7818608E-02  0.1041582E+00
         21   -1    0    0  503  502  0.00000000000E+00  0.00000000000E+00  0.23134292010E+03  0.23134292010E+03  0.00000000000E+00 0. -1.
         21   -1    0    0  501  503 -0.00000000000E+00 -0.00000000000E+00 -0.71660953852E+03  0.71660953852E+03  0.00000000000E+00 0. -1.
    9000005    1    1    2  501    0 -0.30033305658E+02 -0.65337344577E+02 -0.21384527013E+03  0.45923933586E+03  0.40000000000E+03 0. -1.
   -9000005    1    1    2    0  502  0.30033305658E+02  0.65337344577E+02 -0.27142134829E+03  0.48871312276E+03  0.40000000000E+03 0. -1.
<mgrwt>
<rscale>  2 0.40641231E+03</rscale>
<asrwt>0</asrwt>
<pdfrwt beam="1">  1       21 0.35591218E-01 0.40641231E+03</pdfrwt>
<pdfrwt beam="2">  1       21 0.11024762E+00 0.40641231E+03</pdfrwt>
<totfact> 0.43930892E+03</totfact>
</mgrwt>
</event>
<event>
 4    1  0.4962426E-002  0.4919423E+03  0.7818608E-02  0.1015904E+00
         21   -1    0    0  503  502  0.00000000000E+00  0.00000000000E+00  0.15082273336E+04  0.15082273336E+04  0.00000000000E+00 0. -1.
         21   -1    0    0  501  503 -0.00000000000E+00 -0.00000000000E+00 -0.34116842183E+03  0.34116842183E+03  0.00000000000E+00 0. -1.
    9000005    1    1    2  501    0 -0.27866779023E+03  0.65965556207E+02 -0.89458058843E+02  0.50000993611E+03  0.40000000000E+03 0. -1.
   -9000005    1    1    2    0  502  0.27866779023E+03 -0.65965556207E+02  0.12565169706E+04  0.13493858193E+04  0.40000000000E+03 0. -1.
<mgrwt>
<rscale>  2 0.49194226E+03</rscale>
<asrwt>0</asrwt>
<pdfrwt beam="1">  1       21 0.23203497E+00 0.49194226E+03</pdfrwt>
<pdfrwt beam="2">  1       21 0.52487450E-01 0.49194226E+03</pdfrwt>
<totfact> 0.22996187E+02</totfact>
</mgrwt>
</event>
<event>
 4    1  0.4962426E-002  0.4231536E+03  0.7818608E-02  0.1036045E+00
         21   -1    0    0  501  502  0.00000000000E+00  0.00000000000E+00  0.17439791303E+03  0.17439791303E+03  0.00000000000E+00 0. -1.
         21   -1    0    0  502  503 -0.00000000000E+00 -0.00000000000E+00 -0.13956647016E+04  0.13956647016E+04  0.00000000000E+00 0. -1.
    9000005    1    1    2  501    0  0.90701108233E+02 -0.10407817361E+03 -0.20701286446E+03  0.47107672762E+03  0.40000000000E+03 0.  1.
   -9000005    1    1    2    0  503 -0.90701108233E+02  0.10407817361E+03 -0.10142539241E+04  0.10989858870E+04  0.40000000000E+03 0.  1.
<mgrwt>
<rscale>  2 0.42315359E+03</rscale>
<asrwt>0</asrwt>
<pdfrwt beam="1">  1       21 0.26830449E-01 0.42315359E+03</pdfrwt>
<pdfrwt beam="2">  1       21 0.21471764E+00 0.42315359E+03</pdfrwt>
<totfact> 0.12112688E+03</totfact>
</mgrwt>
</event>
<event>
 4    1  0.4962426E-002  0.5891910E+03  0.7818608E-02  0.9928089E-01
         21   -1    0    0  503  502  0.00000000000E+00  0.00000000000E+00  0.48803140060E+03  0.48803140060E+03  0.00000000000E+00 0.  1.
         21   -1    0    0  501  503 -0.00000000000E+00 -0.00000000000E+00 -0.15398189756E+04  0.15398189756E+04  0.00000000000E+00 0. -1.
    9000005    1    1    2  501    0 -0.41591255752E+03 -0.11900741457E+03 -0.12696272495E+04  0.13996783105E+04  0.40000000000E+03 0. -1.
   -9000005    1    1    2    0  502  0.41591255752E+03  0.11900741457E+03  0.21783967456E+03  0.62817206563E+03  0.40000000000E+03 0.  1.
<mgrwt>
<rscale>  2 0.58919099E+03</rscale>
<asrwt>0</asrwt>
<pdfrwt beam="1">  1       21 0.75081754E-01 0.58919099E+03</pdfrwt>
<pdfrwt beam="2">  1       21 0.23689523E+00 0.58919099E+03</pdfrwt>
<totfact> 0.92489201E+01</totfact>
</mgrwt>
</event>
<event>
 4    1  0.4962426E-002  0.4130698E+03  0.7818608E-02  0.1039346E+00
         21   -1    0    0  503  502  0.00000000000E+00  0.00000000000E+00  0.14514002398E+04  0.14514002398E+04  0.00000000000E+00 0.  1.
         21   -1    0    0  501  503 -0.00000000000E+00 -0.00000000000E+00 -0.12317193277E+03  0.12317193277E+03  0.00000000000E+00 0.  1.
    9000005    1    1    2  501    0 -0.10282020005E+03  0.73943061251E+01  0.49606690530E+03  0.64553004874E+03  0.40000000000E+03 0.  1.
   -9000005    1    1    2    0  502  0.10282020005E+03 -0.73943061251E+01  0.83216140174E+03  0.92904212383E+03  0.40000000000E+03 0.  1.
<mgrwt>
<rscale>  2 0.41306981E+03</rscale>
<asrwt>0</asrwt>
<pdfrwt beam="1">  1       21 0.22329233E+00 0.41306981E+03</pdfrwt>
<pdfrwt beam="2">  1       21 0.18949529E-01 0.41306981E+03</pdfrwt>
<totfact> 0.20943362E+03</totfact>
</mgrwt>
</event>
<event>
 4    1  0.4962426E-002  0.4697398E+03  0.7818608E-02  0.1021994E+00
         21   -1    0    0  503  502  0.00000000000E+00  0.00000000000E+00  0.14192899666E+04  0.14192899666E+04  0.00000000000E+00 0. -1.
         21   -1    0    0  501  503 -0.00000000000E+00 -0.00000000000E+00 -0.29439602793E+03  0.29439602793E+03  0.00000000000E+00 0. -1.
    9000005    1    1    2  501    0 -0.18847917602E+03 -0.15852787160E+03 -0.26164564465E+02  0.47046792696E+03  0.40000000000E+03 0. -1.
   -9000005    1    1    2    0  502  0.18847917602E+03  0.15852787160E+03  0.11510585032E+04  0.12432180676E+04  0.40000000000E+03 0. -1.
<mgrwt>
<rscale>  2 0.46973981E+03</rscale>
<asrwt>0</asrwt>
<pdfrwt beam="1">  1       21 0.21835230E+00 0.46973981E+03</pdfrwt>
<pdfrwt beam="2">  1       21 0.45291697E-01 0.46973981E+03</pdfrwt>
<totfact> 0.38855640E+02</totfact>
</mgrwt>
</event>
<event>
 4    1  0.4962426E-002  0.5153407E+03  0.7818608E-02  0.1009851E+00
         21   -1    0    0  501  502  0.00000000000E+00  0.00000000000E+00  0.58703337728E+03  0.58703337728E+03  0.00000000000E+00 0.  1.
         21   -1    0    0  502  503 -0.00000000000E+00 -0.00000000000E+00 -0.46953475561E+03  0.46953475561E+03  0.00000000000E+00 0. -1.
    9000005    1    1    2  501    0 -0.32342049453E+03 -0.31228512902E+02 -0.42158891858E+02  0.51706228683E+03  0.40000000000E+03 0.  1.
   -9000005    1    1    2    0  503  0.32342049453E+03  0.31228512902E+02  0.15965751352E+03  0.53950584605E+03  0.40000000000E+03 0. -1.
<mgrwt>
<rscale>  2 0.51534070E+03</rscale>
<asrwt>0</asrwt>
<pdfrwt beam="1">  1       21 0.90312827E-01 0.51534070E+03</pdfrwt>
<pdfrwt beam="2">  1       21 0.72236116E-01 0.51534070E+03</pdfrwt>
<totfact> 0.15102763E+03</totfact>
</mgrwt>
</event>
<event>
 4    1  0.4962426E-002  0.4637776E+03  0.7818608E-02  0.1023691E+00
         21   -1    0    0  501  502  0.00000000000E+00  0.00000000000E+00  0.11153571203E+04  0.11153571203E+04  0.00000000000E+00 0.  1.
         21   -1    0    0  502  503 -0.00000000000E+00 -0.00000000000E+00 -0.19375128049E+03  0.19375128049E+03  0.00000000000E+00 0. -1.
    9000005    1    1    2  501    0  0.12892440154E+03 -0.19613290106E+03  0.50560117708E+03  0.68609195190E+03  0.40000000000E+03 0. -1.
   -9000005    1    1    2    0  503 -0.12892440154E+03  0.19613290106E+03  0.41600466276E+03  0.62301644892E+03  0.40000000000E+03 0.  1.
<mgrwt>
<rscale>  2 0.46377755E+03</rscale>
<asrwt>0</asrwt>
<pdfrwt beam="1">  1       21 0.17159340E+00 0.46377755E+03</pdfrwt>
<pdfrwt beam="2">  1       21 0.29807890E-01 0.46377755E+03</pdfrwt>
<totfact> 0.18995914E+03</totfact>
</mgrwt>
</event>
<event>
 4    1  0.4962426E-002  0.4449298E+03  0.7818608E-02  0.1029245E+00
         21   -1    0    0  503  502  0.00000000000E+00  0.00000000000E+00  0.38514194708E+03  0.38514194708E+03  0.00000000000E+00 0.  1.
         21   -1    0    0  501  503 -0.00000000000E+00 -0.00000000000E+00 -0.55870101563E+03  0.55870101563E+03  0.00000000000E+00 0. -1.
    9000005    1    1    2  501    0 -0.19234007111E+03  0.31109351605E+02  0.46709192244E+02  0.44737483540E+03  0.40000000000E+03 0.  1.
   -9000005    1    1    2    0  502  0.19234007111E+03 -0.31109351605E+02 -0.22026826080E+03  0.49646812730E+03  0.40000000000E+03 0.  1.
<mgrwt>
<rscale>  2 0.44492976E+03</rscale>
<asrwt>0</asrwt>
<pdfrwt beam="1">  1       21 0.59252607E-01 0.44492976E+03</pdfrwt>
<pdfrwt beam="2">  1       21 0.85954002E-01 0.44492976E+03</pdfrwt>
<totfact> 0.27055909E+03</totfact>
</mgrwt>
</event>
<event>
 4    1  0.4962426E-002  0.4392663E+03  0.7818608E-02  0.1030972E+00
         21   -1    0    0  503  502  0.00000000000E+00  0.00000000000E+00  0.18282819272E+03  0.18282819272E+03  0.00000000000E+00 0.  1.
         21   -1    0    0  501  503 -0.00000000000E+00 -0.00000000000E+00 -0.16965919570E+04  0.16965919570E+04  0.00000000000E+00 0.  1.
    9000005    1    1    2  501    0  0.10854264786E+03 -0.14551061270E+03 -0.13345826889E+04  0.14050145189E+04  0.40000000000E+03 0. -1.
   -9000005    1    1    2    0  502 -0.10854264786E+03  0.14551061270E+03 -0.17918107544E+03  0.47440563088E+03  0.40000000000E+03 0. -1.
<mgrwt>
<rscale>  2 0.43926626E+03</rscale>
<asrwt>0</asrwt>
<pdfrwt beam="1">  1       21 0.28127415E-01 0.43926626E+03</pdfrwt>
<pdfrwt beam="2">  1       21 0.26101414E+00 0.43926626E+03</pdfrwt>
<totfact> 0.56362009E+02</totfact>
</mgrwt>
</event>
<event>
 4    1  0.4962426E-002  0.4616525E+03  0.7818608E-02  0.1024303E+00
         21   -1    0    0  503  502  0.00000000000E+00  0.00000000000E+00  0.76225779041E+03  0.76225779041E+03  0.00000000000E+00 0.  1.
         21   -1    0    0  501  503 -0.00000000000E+00 -0.00000000000E+00 -0.31525018314E+03  0.31525018314E+03  0.00000000000E+00 0.  1.
    9000005    1    1    2  501    0 -0.21875112865E+03 -0.72601582093E+02  0.42316600229E+02  0.46358789961E+03  0.40000000000E+03 0.  1.
   -9000005    1    1    2    0  502  0.21875112865E+03  0.72601582093E+02  0.40469100704E+03  0.61392007394E+03  0.40000000000E+03 0.  1.
<mgrwt>
<rscale>  2 0.46165252E+03</rscale>
<asrwt>0</asrwt>
<pdfrwt beam="1">  1       21 0.11727043E+00 0.46165252E+03</pdfrwt>
<pdfrwt beam="2">  1       21 0.48500028E-01 0.46165252E+03</pdfrwt>
<totfact> 0.19438641E+03</totfact>
</mgrwt>
</event>
<event>
 4    1  0.4962426E-002  0.5414543E+03  0.7818608E-02  0.1003492E+00
         21   -1    0    0  501  502  0.00000000000E+00  0.00000000000E+00  0.77517249571E+03  0.77517249571E+03  0.00000000000E+00 0. -1.
         21   -1    0    0  502  503 -0.00000000000E+00 -0.00000000000E+00 -0.49692715737E+03  0.49692715737E+03  0.00000000000E+00 0. -1.
    9000005    1    1    2  501    0  0.30227611732E+03  0.20445504621E+03  0.45001782706E+03  0.70405167544E+03  0.40000000000E+03 0. -1.
   -9000005    1    1    2    0  503 -0.30227611732E+03 -0.20445504621E+03 -0.17177248872E+03  0.56804797764E+03  0.40000000000E+03 0. -1.
<mgrwt>
<rscale>  2 0.54145426E+03</rscale>
<asrwt>0</asrwt>
<pdfrwt beam="1">  1       21 0.11925731E+00 0.54145426E+03</pdfrwt>
<pdfrwt beam="2">  1       21 0.76450331E-01 0.54145426E+03</pdfrwt>
<totfact> 0.66354965E+02</totfact>
</mgrwt>
</event>
<event>
 4    1  0.4962426E-002  0.4350698E+03  0.7818608E-02  0.1032270E+00
         21   -1    0    0  501  502  0.00000000000E+00  0.00000000000E+00  0.79217556179E+03  0.79217556179E+03  0.00000000000E+00 0. -1.
         21   -1    0    0  502  503 -0.00000000000E+00 -0.00000000000E+00 -0.26850647993E+03  0.26850647993E+03  0.00000000000E+00 0. -1.
    9000005    1    1    2  501    0 -0.16716079181E+03 -0.36647183400E+02  0.43780788430E+03  0.61722077891E+03  0.40000000000E+03 0. -1.
   -9000005    1    1    2    0  503  0.16716079181E+03  0.36647183400E+02  0.85861197565E+02  0.44346126281E+03  0.40000000000E+03 0. -1.
<mgrwt>
<rscale>  2 0.43506982E+03</rscale>
<asrwt>0</asrwt>
<pdfrwt beam="1">  1       21 0.12187316E+00 0.43506982E+03</pdfrwt>
<pdfrwt beam="2">  1       21 0.41308690E-01 0.43506982E+03</pdfrwt>
<totfact> 0.24917210E+03</totfact>
</mgrwt>
</event>
<event>
 4    1  0.4962426E-002  0.5378218E+03  0.7818608E-02  0.1004353E+00
         21   -1    0    0  503  502  0.00000000000E+00  0.00000000000E+00  0.27087454409E+03  0.27087454409E+03  0.00000000000E+00 0. -1.
         21   -1    0    0  501  503 -0.00000000000E+00 -0.00000000000E+00 -0.16657866061E+04  0.16657866061E+04  0.00000000000E+00 0. -1.
    9000005    1    1    2  501    0 -0.35423978446E+03 -0.61371505305E+02 -0.12776096445E+04  0.13861957619E+04  0.40000000000E+03 0. -1.
   -9000005    1    1    2    0  502  0.35423978446E+03  0.61371505305E+02 -0.11730241751E+03  0.55046538830E+03  0.40000000000E+03 0. -1.
<mgrwt>
<rscale>  2 0.53782180E+03</rscale>
<asrwt>0</asrwt>
<pdfrwt beam="1">  1       21 0.41673007E-01 0.53782180E+03</pdfrwt>
<pdfrwt beam="2">  1       21 0.25627486E+00 0.53782180E+03</pdfrwt>
<totfact> 0.25885919E+02</totfact>
</mgrwt>
</event>
<event>
 4    1  0.4962426E-002  0.4047898E+03  0.7818608E-02  0.1042134E+00
         21   -1    0    0  503  502  0.00000000000E+00  0.00000000000E+00  0.22117412066E+03  0.22117412066E+03  0.00000000000E+00 0.  1.
         21   -1    0    0  501  503 -0.00000000000E+00 -0.00000000000E+00 -0.83020092001E+03  0.83020092001E+03  0.00000000000E+00 0.  1.
    9000005    1    1    2  501    0  0.45550050387E+02  0.42189360067E+02 -0.13204535920E+03  0.42578248682E+03  0.40000000000E+03 0. -1.
   -9000005    1    1    2    0  502 -0.45550050387E+02 -0.42189360067E+02 -0.47698144015E+03  0.62559255385E+03  0.40000000000E+03 0. -1.
<mgrwt>
<rscale>  2 0.40478976E+03</rscale>
<asrwt>0</asrwt>
<pdfrwt beam="1">  1       21 0.34026788E-01 0.40478976E+03</pdfrwt>
<pdfrwt beam="2">  1       21 0.12772322E+00 0.40478976E+03</pdfrwt>
<totfact> 0.33203681E+03</totfact>
</mgrwt>
</event>
<event>
 4    1  0.4962426E-002  0.4420123E+03  0.7818608E-02  0.1030131E+00
         21   -1    0    0  503  502  0.00000000000E+00  0.00000000000E+00  0.72920350273E+03  0.72920350273E+03  0.00000000000E+00 0.  1.
         21   -1    0    0  501  503 -0.00000000000E+00 -0.00000000000E+00 -0.31958681261E+03  0.31958681261E+03  0.00000000000E+00 0. -1.
    9000005    1    1    2  501    0 -0.18759947696E+03 -0.13465563862E+02 -0.60212442319E+01  0.44205332320E+03  0.40000000000E+03 0. -1.
   -9000005    1    1    2    0  502  0.18759947696E+03  0.13465563862E+02  0.41563793434E+03  0.60673699214E+03  0.40000000000E+03 0.  1.
<mgrwt>
<rscale>  2 0.44201231E+03</rscale>
<asrwt>0</asrwt>
<pdfrwt beam="1">  1       21 0.11218515E+00 0.44201231E+03</pdfrwt>
<pdfrwt beam="2">  1       21 0.49167202E-01 0.44201231E+03</pdfrwt>
<totfact> 0.21254941E+03</totfact>
</mgrwt>
</event>
<event>
 4    1  0.4962426E-002  0.4945375E+03  0.7818608E-02  0.1015215E+00
         21   -1    0    0  501  502  0.00000000000E+00  0.00000000000E+00  0.74020858454E+03  0.74020858454E+03  0.00000000000E+00 0. -1.
         21   -1    0    0  502  503 -0.00000000000E+00 -0.00000000000E+00 -0.33540484596E+03  0.33540484596E+03  0.00000000000E+00 0. -1.
    9000005    1    1    2  501    0  0.28326602419E+03 -0.65784892399E+02  0.13672724666E+03  0.51309027715E+03  0.40000000000E+03 0. -1.
   -9000005    1    1    2    0  503 -0.28326602419E+03  0.65784892399E+02  0.26807649192E+03  0.56252315334E+03  0.40000000000E+03 0. -1.
<mgrwt>
<rscale>  2 0.49453745E+03</rscale>
<asrwt>0</asrwt>
<pdfrwt beam="1">  1       21 0.11387824E+00 0.49453745E+03</pdfrwt>
<pdfrwt beam="2">  1       21 0.51600746E-01 0.49453745E+03</pdfrwt>
<totfact> 0.18117400E+03</totfact>
</mgrwt>
</event>
<event>
 4    1  0.4962426E-002  0.4884892E+03  0.7818608E-02  0.1016828E+00
         21   -1    0    0  503  502  0.00000000000E+00  0.00000000000E+00  0.16696412189E+03  0.16696412189E+03  0.00000000000E+00 0. -1.
         21   -1    0    0  501  503 -0.00000000000E+00 -0.00000000000E+00 -0.14394022634E+04  0.14394022634E+04  0.00000000000E+00 0. -1.
    9000005    1    1    2  501    0 -0.15414146873E+03 -0.23422661377E+03 -0.70390647126E+03  0.85679987119E+03  0.40000000000E+03 0. -1.
   -9000005    1    1    2    0  502  0.15414146873E+03  0.23422661377E+03 -0.56853167025E+03  0.74956651410E+03  0.40000000000E+03 0. -1.
<mgrwt>
<rscale>  2 0.48848920E+03</rscale>
<asrwt>0</asrwt>
<pdfrwt beam="1">  1       21 0.25686789E-01 0.48848920E+03</pdfrwt>
<pdfrwt beam="2">  1       21 0.22144650E+00 0.48848920E+03</pdfrwt>
<totfact> 0.11586816E+03</totfact>
</mgrwt>
</event>
<event>
 4    1  0.4962426E-002  0.4683484E+03  0.7818608E-02  0.1022387E+00
         21   -1    0    0  501  502  0.00000000000E+00  0.00000000000E+00  0.24828721204E+03  0.24828721204E+03  0.00000000000E+00 0.  1.
         21   -1    0    0  502  503 -0.00000000000E+00 -0.00000000000E+00 -0.11897385254E+04  0.11897385254E+04  0.00000000000E+00 0. -1.
    9000005    1    1    2  501    0 -0.43950540817E+00 -0.24361868675E+03 -0.83554145466E+03  0.95785164830E+03  0.40000000000E+03 0. -1.
   -9000005    1    1    2    0  503  0.43950540817E+00  0.24361868675E+03 -0.10590985869E+03  0.48017408912E+03  0.40000000000E+03 0.  1.
<mgrwt>
<rscale>  2 0.46834844E+03</rscale>
<asrwt>0</asrwt>
<pdfrwt beam="1">  1       21 0.38198033E-01 0.46834844E+03</pdfrwt>
<pdfrwt beam="2">  1       21 0.18303670E+00 0.46834844E+03</pdfrwt>
<totfact> 0.95309279E+02</totfact>
</mgrwt>
</event>
<event>
 4    1  0.4962426E-002  0.4583269E+03  0.7818608E-02  0.1025268E+00
         21   -1    0    0  501  502  0.00000000000E+00  0.00000000000E+00  0.65086192414E+03  0.65086192414E+03  0.00000000000E+00 0. -1.
         21   -1    0    0  502  503 -0.00000000000E+00 -0.00000000000E+00 -0.99393403878E+03  0.99393403878E+03  0.00000000000E+00 0.  1.
    9000005    1    1    2  501    0  0.41604613743E+02 -0.21984686704E+03  0.50427470904E+03  0.68143713651E+03  0.40000000000E+03 0. -1.
   -9000005    1    1    2    0  503 -0.41604613743E+02  0.21984686704E+03 -0.84734682367E+03  0.96335882641E+03  0.40000000000E+03 0.  1.
<mgrwt>
<rscale>  2 0.45832695E+03</rscale>
<asrwt>0</asrwt>
<pdfrwt beam="1">  1       21 0.10013260E+00 0.45832695E+03</pdfrwt>
<pdfrwt beam="2">  1       21 0.15291293E+00 0.45832695E+03</pdfrwt>
<totfact> 0.18866322E+02</totfact>
</mgrwt>
</event>
<event>
 4    1  0.4962426E-002  0.4883269E+03  0.7818608E-02  0.1016871E+00
         21   -1    0    0  501  502  0.00000000000E+00  0.00000000000E+00  0.38000913043E+03  0.38000913043E+03  0.00000000000E+00 0. -1.
         21   -1    0    0  502  503 -0.00000000000E+00 -0.00000000000E+00 -0.65702613822E+03  0.65702613822E+03  0.00000000000E+00 0.  1.
    9000005    1    1    2  501    0 -0.20431778068E+03 -0.19161784625E+03 -0.28625181257E+02  0.48916516179E+03  0.40000000000E+03 0. -1.
   -9000005    1    1    2    0  503  0.20431778068E+03  0.19161784625E+03 -0.24839182654E+03  0.54787010686E+03  0.40000000000E+03 0.  1.
<mgrwt>
<rscale>  2 0.48832689E+03</rscale>
<asrwt>0</asrwt>
<pdfrwt beam="1">  1       21 0.58462944E-01 0.48832689E+03</pdfrwt>
<pdfrwt beam="2">  1       21 0.10108094E+00 0.48832689E+03</pdfrwt>
<totfact> 0.18619262E+03</totfact>
</mgrwt>
</event>
<event>
 4    1  0.4962426E-002  0.4108485E+03  0.7818608E-02  0.1040087E+00
         21   -1    0    0  503  502  0.00000000000E+00  0.00000000000E+00  0.19258300141E+04  0.19258300141E+04  0.00000000000E+00 0.  1.
         21   -1    0    0  501  503 -0.00000000000E+00 -0.00000000000E+00 -0.29999216146E+03  0.29999216146E+03  0.00000000000E+00 0.  1.
    9000005    1    1    2  501    0 -0.57731272537E+02 -0.73916035553E+02 -0.12340252016E+03  0.42898095776E+03  0.40000000000E+03 0.  1.
   -9000005    1    1    2    0  502  0.57731272537E+02  0.73916035553E+02  0.17492403728E+04  0.17968412178E+04  0.40000000000E+03 0.  1.
<mgrwt>
<rscale>  2 0.41084849E+03</rscale>
<asrwt>0</asrwt>
<pdfrwt beam="1">  1       21 0.29628153E+00 0.41084849E+03</pdfrwt>
<pdfrwt beam="2">  1       21 0.46152641E-01 0.41084849E+03</pdfrwt>
<totfact> 0.12863950E+02</totfact>
</mgrwt>
</event>
<event>
 4    1  0.4962426E-002  0.4302273E+03  0.7818608E-02  0.1033788E+00
         21   -1    0    0  501  502  0.00000000000E+00  0.00000000000E+00  0.13009937102E+04  0.13009937102E+04  0.00000000000E+00 0. -1.
         21   -1    0    0  502  503 -0.00000000000E+00 -0.00000000000E+00 -0.14299628295E+03  0.14299628295E+03  0.00000000000E+00 0.  1.
    9000005    1    1    2  501    0 -0.31150613879E+02  0.15532269660E+03  0.63036820063E+03  0.76319038856E+03  0.40000000000E+03 0. -1.
   -9000005    1    1    2    0  503  0.31150613879E+02 -0.15532269660E+03  0.52762922662E+03  0.68079960459E+03  0.40000000000E+03 0. -1.
<mgrwt>
<rscale>  2 0.43022727E+03</rscale>
<asrwt>0</asrwt>
<pdfrwt beam="1">  1       21 0.20015287E+00 0.43022727E+03</pdfrwt>
<pdfrwt beam="2">  1       21 0.21999429E-01 0.43022727E+03</pdfrwt>
<totfact> 0.22090768E+03</totfact>
</mgrwt>
</event>
<event>
 4    1  0.4962426E-002  0.4022243E+03  0.7818608E-02  0.1043012E+00
         21   -1    0    0  503  502  0.00000000000E+00  0.00000000000E+00  0.11863843925E+04  0.11863843925E+04  0.00000000000E+00 0.  1.
         21   -1    0    0  501  503 -0.00000000000E+00 -0.00000000000E+00 -0.17468227174E+03  0.17468227174E+03  0.00000000000E+00 0.  1.
    9000005    1    1    2  501    0  0.40618166451E+02 -0.11599829022E+02  0.82456975965E+03  0.91744192187E+03  0.40000000000E+03 0.  1.
   -9000005    1    1    2    0  502 -0.40618166451E+02  0.11599829022E+02  0.18713236113E+03  0.44362474239E+03  0.40000000000E+03 0.  1.
<mgrwt>
<rscale>  2 0.40222430E+03</rscale>
<asrwt>0</asrwt>
<pdfrwt beam="1">  1       21 0.18252067E+00 0.40222430E+03</pdfrwt>
<pdfrwt beam="2">  1       21 0.26874196E-01 0.40222430E+03</pdfrwt>
<totfact> 0.20009997E+03</totfact>
</mgrwt>
</event>
<event>
 4    1  0.4962426E-002  0.4399711E+03  0.7818608E-02  0.1030756E+00
         21   -1    0    0  503  502  0.00000000000E+00  0.00000000000E+00  0.79355509274E+03  0.79355509274E+03  0.00000000000E+00 0. -1.
         21   -1    0    0  501  503 -0.00000000000E+00 -0.00000000000E+00 -0.26457956105E+03  0.26457956105E+03  0.00000000000E+00 0. -1.
    9000005    1    1    2  501    0  0.14227503128E+03  0.11546608872E+03  0.11669529327E+03  0.45518391189E+03  0.40000000000E+03 0. -1.
   -9000005    1    1    2    0  502 -0.14227503128E+03 -0.11546608872E+03  0.41228023842E+03  0.60295074191E+03  0.40000000000E+03 0. -1.
<mgrwt>
<rscale>  2 0.43997114E+03</rscale>
<asrwt>0</asrwt>
<pdfrwt beam="1">  1       21 0.12208540E+00 0.43997114E+03</pdfrwt>
<pdfrwt beam="2">  1       21 0.40704548E-01 0.43997114E+03</pdfrwt>
<totfact> 0.25525614E+03</totfact>
</mgrwt>
</event>
<event>
 4    1  0.4962426E-002  0.4008149E+03  0.7818608E-02  0.1043498E+00
         21   -1    0    0  501  502  0.00000000000E+00  0.00000000000E+00  0.29830987558E+03  0.29830987558E+03  0.00000000000E+00 0. -1.
         21   -1    0    0  502  503 -0.00000000000E+00 -0.00000000000E+00 -0.10596347150E+04  0.10596347150E+04  0.00000000000E+00 0. -1.
    9000005    1    1    2  501    0  0.72214968318E+01 -0.24504083154E+02  0.95473758755E+02  0.41202892947E+03  0.40000000000E+03 0. -1.
   -9000005    1    1    2    0  503 -0.72214968318E+01  0.24504083154E+02 -0.85679859819E+03  0.94591566113E+03  0.40000000000E+03 0. -1.
<mgrwt>
<rscale>  2 0.40081492E+03</rscale>
<asrwt>0</asrwt>
<pdfrwt beam="1">  1       21 0.45893827E-01 0.40081492E+03</pdfrwt>
<pdfrwt beam="2">  1       21 0.16302073E+00 0.40081492E+03</pdfrwt>
<totfact> 0.93693391E+02</totfact>
</mgrwt>
</event>
<event>
 4    1  0.4962426E-002  0.4437488E+03  0.7818608E-02  0.1029603E+00
         21   -1    0    0  503  502  0.00000000000E+00  0.00000000000E+00  0.82473376187E+03  0.82473376187E+03  0.00000000000E+00 0.  1.
         21   -1    0    0  501  503 -0.00000000000E+00 -0.00000000000E+00 -0.24993628475E+03  0.24993628475E+03  0.00000000000E+00 0.  1.
    9000005    1    1    2  501    0 -0.28836433098E+02 -0.18995112182E+03  0.17376948240E+03  0.47655933688E+03  0.40000000000E+03 0.  1.
   -9000005    1    1    2    0  502  0.28836433098E+02  0.18995112182E+03  0.40102799472E+03  0.59811070974E+03  0.40000000000E+03 0.  1.
<mgrwt>
<rscale>  2 0.44374877E+03</rscale>
<asrwt>0</asrwt>
<pdfrwt beam="1">  1       21 0.12688212E+00 0.44374877E+03</pdfrwt>
<pdfrwt beam="2">  1       21 0.38451736E-01 0.44374877E+03</pdfrwt>
<totfact> 0.25954792E+03</totfact>
</mgrwt>
</event>
<event>
 4    1  0.4962426E-002  0.5302335E+03  0.7818608E-02  0.1006176E+00
         21   -1    0    0  501  502  0.00000000000E+00  0.00000000000E+00  0.45659169386E+03  0.45659169386E+03  0.00000000000E+00 0.  1.
         21   -1    0    0  502  503 -0.00000000000E+00 -0.00000000000E+00 -0.73762985189E+03  0.73762985189E+03  0.00000000000E+00 0. -1.
    9000005    1    1    2  501    0  0.17117064400E+03 -0.30306461241E+03  0.10219607330E+03  0.53999220926E+03  0.40000000000E+03 0.  1.
   -9000005    1    1    2    0  503 -0.17117064400E+03  0.30306461241E+03 -0.38323423133E+03  0.65422933649E+03  0.40000000000E+03 0. -1.
<mgrwt>
<rscale>  2 0.53023349E+03</rscale>
<asrwt>0</asrwt>
<pdfrwt beam="1">  1       21 0.70244877E-01 0.53023349E+03</pdfrwt>
<pdfrwt beam="2">  1       21 0.11348151E+00 0.53023349E+03</pdfrwt>
<totfact> 0.91584667E+02</totfact>
</mgrwt>
</event>
<event>
 4    1  0.4962426E-002  0.6943392E+03  0.7818608E-02  0.9726962E-01
         21   -1    0    0  501  502  0.00000000000E+00  0.00000000000E+00  0.18743917501E+04  0.18743917501E+04  0.00000000000E+00 0.  1.
         21   -1    0    0  502  503 -0.00000000000E+00 -0.00000000000E+00 -0.39583288535E+03  0.39583288535E+03  0.00000000000E+00 0. -1.
    9000005    1    1    2  501    0 -0.36483540066E+03 -0.43474366634E+03  0.67533784850E+02  0.69761575175E+03  0.40000000000E+03 0. -1.
   -9000005    1    1    2    0  503  0.36483540066E+03  0.43474366634E+03  0.14110250799E+04  0.15726088837E+04  0.40000000000E+03 0.  1.
<mgrwt>
<rscale>  2 0.69433920E+03</rscale>
<asrwt>0</asrwt>
<pdfrwt beam="1">  1       21 0.28836796E+00 0.69433920E+03</pdfrwt>
<pdfrwt beam="2">  1       21 0.60897368E-01 0.69433920E+03</pdfrwt>
<totfact> 0.68119915E+01</totfact>
</mgrwt>
</event>
<event>
 4    1  0.4962426E-002  0.5008922E+03  0.7818608E-02  0.1013546E+00
         21   -1    0    0  503  502  0.00000000000E+00  0.00000000000E+00  0.30710767029E+03  0.30710767029E+03  0.00000000000E+00 0.  1.
         21   -1    0    0  501  503 -0.00000000000E+00 -0.00000000000E+00 -0.29231368836E+04  0.29231368836E+04  0.00000000000E+00 0. -1.
    9000005    1    1    2  501    0 -0.16360402563E+03 -0.25323246161E+03 -0.26789873832E+04  0.27254112270E+04  0.40000000000E+03 0. -1.
   -9000005    1    1    2    0  502  0.16360402563E+03  0.25323246161E+03  0.62958169882E+02  0.50483332692E+03  0.40000000000E+03 0.  1.
<mgrwt>
<rscale>  2 0.50089216E+03</rscale>
<asrwt>0</asrwt>
<pdfrwt beam="1">  1       21 0.47247330E-01 0.50089216E+03</pdfrwt>
<pdfrwt beam="2">  1       21 0.44971340E+00 0.50089216E+03</pdfrwt>
<totfact> 0.12408544E+01</totfact>
</mgrwt>
</event>
<event>
 4    1  0.4962426E-002  0.4739219E+03  0.7818608E-02  0.1020819E+00
         21   -1    0    0  503  502  0.00000000000E+00  0.00000000000E+00  0.30179738505E+04  0.30179738505E+04  0.00000000000E+00 0. -1.
         21   -1    0    0  501  503 -0.00000000000E+00 -0.00000000000E+00 -0.15106108878E+03  0.15106108878E+03  0.00000000000E+00 0. -1.
    9000005    1    1    2  501    0 -0.25416835086E+03  0.67507247144E+00  0.30483717684E+03  0.56349597220E+03  0.40000000000E+03 0. -1.
   -9000005    1    1    2    0  502  0.25416835086E+03 -0.67507247144E+00  0.25620755849E+04  0.26055389671E+04  0.40000000000E+03 0. -1.
<mgrwt>
<rscale>  2 0.47392194E+03</rscale>
<asrwt>0</asrwt>
<pdfrwt beam="1">  1       21 0.46430363E+00 0.47392194E+03</pdfrwt>
<pdfrwt beam="2">  1       21 0.23240170E-01 0.47392194E+03</pdfrwt>
<totfact> 0.42078016E+01</totfact>
</mgrwt>
</event>
<event>
 4    1  0.4962426E-002  0.4671191E+03  0.7818608E-02  0.1022736E+00
         21   -1    0    0  503  502  0.00000000000E+00  0.00000000000E+00  0.22634718307E+03  0.22634718307E+03  0.00000000000E+00 0.  1.
         21   -1    0    0  501  503 -0.00000000000E+00 -0.00000000000E+00 -0.10876660294E+04  0.10876660294E+04  0.00000000000E+00 0.  1.
    9000005    1    1    2  501    0  0.22094163716E+03 -0.96876598951E+02 -0.65219055461E+03  0.80221742811E+03  0.40000000000E+03 0.  1.
   -9000005    1    1    2    0  502 -0.22094163716E+03  0.96876598951E+02 -0.20912829168E+03  0.51179578431E+03  0.40000000000E+03 0.  1.
<mgrwt>
<rscale>  2 0.46711913E+03</rscale>
<asrwt>0</asrwt>
<pdfrwt beam="1">  1       21 0.34822644E-01 0.46711913E+03</pdfrwt>
<pdfrwt beam="2">  1       21 0.16733323E+00 0.46711913E+03</pdfrwt>
<totfact> 0.14919365E+03</totfact>
</mgrwt>
</event>
<event>
 4    1  0.4962426E-002  0.6509167E+03  0.7818608E-02  0.9805060E-01
         21   -1    0    0  501  502  0.00000000000E+00  0.00000000000E+00  0.29165804750E+04  0.29165804750E+04  0.00000000000E+00 0.  1.
         21   -1    0    0  502  503 -0.00000000000E+00 -0.00000000000E+00 -0.97659694453E+03  0.97659694453E+03  0.00000000000E+00 0. -1.
    9000005    1    1    2  501    0  0.38958426503E+03 -0.33453955700E+03  0.27659753428E+04  0.28415334261E+04  0.40000000000E+03 0.  1.
   -9000005    1    1    2    0  503 -0.38958426503E+03  0.33453955700E+03 -0.82599181236E+03  0.10516439934E+04  0.40000000000E+03 0. -1.
<mgrwt>
<rscale>  2 0.65091675E+03</rscale>
<asrwt>0</asrwt>
<pdfrwt beam="1">  1       21 0.44870469E+00 0.65091675E+03</pdfrwt>
<pdfrwt beam="2">  1       21 0.15024568E+00 0.65091675E+03</pdfrwt>
<totfact> 0.73035307E-01</totfact>
</mgrwt>
</event>
<event>
 4    1  0.4962426E-002  0.4253906E+03  0.7818608E-02  0.1035326E+00
         21   -1    0    0  503  502  0.00000000000E+00  0.00000000000E+00  0.13285405861E+03  0.13285405861E+03  0.00000000000E+00 0. -1.
         21   -1    0    0  501  503 -0.00000000000E+00 -0.00000000000E+00 -0.14661670590E+04  0.14661670590E+04  0.00000000000E+00 0. -1.
    9000005    1    1    2  501    0  0.39209980243E+02  0.13935472336E+03 -0.87968698320E+03  0.97714192924E+03  0.40000000000E+03 0. -1.
   -9000005    1    1    2    0  502 -0.39209980243E+02 -0.13935472336E+03 -0.45362601723E+03  0.62187918841E+03  0.40000000000E+03 0. -1.
<mgrwt>
<rscale>  2 0.42539060E+03</rscale>
<asrwt>0</asrwt>
<pdfrwt beam="1">  1       21 0.20439086E-01 0.42539060E+03</pdfrwt>
<pdfrwt beam="2">  1       21 0.22556417E+00 0.42539060E+03</pdfrwt>
<totfact> 0.17448605E+03</totfact>
</mgrwt>
</event>
<event>
 4    1  0.4962426E-002  0.6439929E+03  0.7818608E-02  0.9818117E-01
         21   -1    0    0  501  502  0.00000000000E+00  0.00000000000E+00  0.81553885824E+03  0.81553885824E+03  0.00000000000E+00 0.  1.
         21   -1    0    0  502  503 -0.00000000000E+00 -0.00000000000E+00 -0.54755568935E+03  0.54755568935E+03  0.00000000000E+00 0. -1.
    9000005    1    1    2  501    0  0.39633452924E+03 -0.31248322491E+03  0.31594128021E+03  0.71731842124E+03  0.40000000000E+03 0. -1.
   -9000005    1    1    2    0  503 -0.39633452924E+03  0.31248322491E+03 -0.47958111314E+02  0.64577612635E+03  0.40000000000E+03 0. -1.
<mgrwt>
<rscale>  2 0.64399288E+03</rscale>
<asrwt>0</asrwt>
<pdfrwt beam="1">  1       21 0.12546752E+00 0.64399288E+03</pdfrwt>
<pdfrwt beam="2">  1       21 0.84239337E-01 0.64399288E+03</pdfrwt>
<totfact> 0.44886430E+02</totfact>
</mgrwt>
</event>
<event>
 4    1  0.4962426E-002  0.4922147E+03  0.7818608E-02  0.1015831E+00
         21   -1    0    0  503  502  0.00000000000E+00  0.00000000000E+00  0.10327740159E+04  0.10327740159E+04  0.00000000000E+00 0.  1.
         21   -1    0    0  501  503 -0.00000000000E+00 -0.00000000000E+00 -0.55659523327E+03  0.55659523327E+03  0.00000000000E+00 0.  1.
    9000005    1    1    2  501    0 -0.25985077132E+03 -0.12146145233E+03 -0.36635811471E+03  0.61359072350E+03  0.40000000000E+03 0.  1.
   -9000005    1    1    2    0  502  0.25985077132E+03  0.12146145233E+03  0.84253689732E+03  0.97577852564E+03  0.40000000000E+03 0.  1.
<mgrwt>
<rscale>  2 0.49221470E+03</rscale>
<asrwt>0</asrwt>
<pdfrwt beam="1">  1       21 0.15888831E+00 0.49221470E+03</pdfrwt>
<pdfrwt beam="2">  1       21 0.85630036E-01 0.49221470E+03</pdfrwt>
<totfact> 0.24251252E+02</totfact>
</mgrwt>
</event>
<event>
 4    1  0.4962426E-002  0.4153633E+03  0.7818608E-02  0.1038586E+00
         21   -1    0    0  503  502  0.00000000000E+00  0.00000000000E+00  0.46275320756E+03  0.46275320756E+03  0.00000000000E+00 0. -1.
         21   -1    0    0  501  503 -0.00000000000E+00 -0.00000000000E+00 -0.11271214514E+04  0.11271214514E+04  0.00000000000E+00 0. -1.
    9000005    1    1    2  501    0 -0.28371404125E+02 -0.10826713051E+03 -0.98249063483E+03  0.10666839062E+04  0.40000000000E+03 0. -1.
   -9000005    1    1    2    0  502  0.28371404125E+02  0.10826713051E+03  0.31812239102E+03  0.52319075277E+03  0.40000000000E+03 0. -1.
<mgrwt>
<rscale>  2 0.41536334E+03</rscale>
<asrwt>0</asrwt>
<pdfrwt beam="1">  1       21 0.71192802E-01 0.41536334E+03</pdfrwt>
<pdfrwt beam="2">  1       21 0.17340330E+00 0.41536334E+03</pdfrwt>
<totfact> 0.30110013E+02</totfact>
</mgrwt>
</event>
<event>
 4    1  0.4962426E-002  0.4025963E+03  0.7818608E-02  0.1042884E+00
         21   -1    0    0  501  502  0.00000000000E+00  0.00000000000E+00  0.23950002522E+04  0.23950002522E+04  0.00000000000E+00 0. -1.
         21   -1    0    0  502  503 -0.00000000000E+00 -0.00000000000E+00 -0.23848821838E+03  0.23848821838E+03  0.00000000000E+00 0. -1.
    9000005    1    1    2  501    0  0.49807011916E+01  0.45375579549E+02  0.21926213154E+04  0.22292761120E+04  0.40000000000E+03 0. -1.
   -9000005    1    1    2    0  503 -0.49807011916E+01 -0.45375579549E+02 -0.36109281620E+02  0.40421235857E+03  0.40000000000E+03 0. -1.
<mgrwt>
<rscale>  2 0.40259626E+03</rscale>
<asrwt>0</asrwt>
<pdfrwt beam="1">  1       21 0.36846156E+00 0.40259626E+03</pdfrwt>
<pdfrwt beam="2">  1       21 0.36690497E-01 0.40259626E+03</pdfrwt>
<totfact> 0.75918408E+01</totfact>
</mgrwt>
</event>
<event>
 4    1  0.4962426E-002  0.4733543E+03  0.7818608E-02  0.1020978E+00
         21   -1    0    0  503  502  0.00000000000E+00  0.00000000000E+00  0.21445497837E+03  0.21445497837E+03  0.00000000000E+00 0. -1.
         21   -1    0    0  501  503 -0.00000000000E+00 -0.00000000000E+00 -0.11776015210E+04  0.11776015210E+04  0.00000000000E+00 0.  1.
    9000005    1    1    2  501    0  0.42050369552E+02 -0.24959178790E+03 -0.71530410074E+03  0.85774369756E+03  0.40000000000E+03 0.  1.
   -9000005    1    1    2    0  502 -0.42050369552E+02  0.24959178790E+03 -0.24784244189E+03  0.53431280180E+03  0.40000000000E+03 0. -1.
<mgrwt>
<rscale>  2 0.47335430E+03</rscale>
<asrwt>0</asrwt>
<pdfrwt beam="1">  1       21 0.32993074E-01 0.47335430E+03</pdfrwt>
<pdfrwt beam="2">  1       21 0.18116946E+00 0.47335430E+03</pdfrwt>
<totfact> 0.13195267E+03</totfact>
</mgrwt>
</event>
<event>
 4    1  0.4962426E-002  0.4517220E+03  0.7818608E-02  0.1027210E+00
         21   -1    0    0  503  502  0.00000000000E+00  0.00000000000E+00  0.31380938297E+03  0.31380938297E+03  0.00000000000E+00 0. -1.
         21   -1    0    0  501  503 -0.00000000000E+00 -0.00000000000E+00 -0.93487379669E+03  0.93487379669E+03  0.00000000000E+00 0. -1.
    9000005    1    1    2  501    0  0.55460192859E+02 -0.20242759812E+03 -0.65502942373E+03  0.79568606336E+03  0.40000000000E+03 0. -1.
   -9000005    1    1    2    0  502 -0.55460192859E+02  0.20242759812E+03  0.33965010008E+02  0.45299711630E+03  0.40000000000E+03 0. -1.
<mgrwt>
<rscale>  2 0.45172200E+03</rscale>
<asrwt>0</asrwt>
<pdfrwt beam="1">  1       21 0.48278368E-01 0.45172200E+03</pdfrwt>
<pdfrwt beam="2">  1       21 0.14382673E+00 0.45172200E+03</pdfrwt>
<totfact> 0.11589702E+03</totfact>
</mgrwt>
</event>
<event>
 4    1  0.4962426E-002  0.4420447E+03  0.7818608E-02  0.1030121E+00
         21   -1    0    0  503  502  0.00000000000E+00  0.00000000000E+00  0.36075777409E+03  0.36075777409E+03  0.00000000000E+00 0.  1.
         21   -1    0    0  501  503 -0.00000000000E+00 -0.00000000000E+00 -0.55178389954E+03  0.55178389954E+03  0.00000000000E+00 0.  1.
    9000005    1    1    2  501    0  0.88585398655E+02  0.16600041537E+03 -0.15735487073E+03  0.46921643844E+03  0.40000000000E+03 0.  1.
   -9000005    1    1    2    0  502 -0.88585398655E+02 -0.16600041537E+03 -0.33671254715E+02  0.44332523519E+03  0.40000000000E+03 0.  1.
<mgrwt>
<rscale>  2 0.44204469E+03</rscale>
<asrwt>0</asrwt>
<pdfrwt beam="1">  1       21 0.55501196E-01 0.44204469E+03</pdfrwt>
<pdfrwt beam="2">  1       21 0.84889831E-01 0.44204469E+03</pdfrwt>
<totfact> 0.32146107E+03</totfact>
</mgrwt>
</event>
<event>
 4    1  0.4962426E-002  0.4133108E+03  0.7818608E-02  0.1039266E+00
         21   -1    0    0  503  502  0.00000000000E+00  0.00000000000E+00  0.35106260379E+03  0.35106260379E+03  0.00000000000E+00 0.  1.
         21   -1    0    0  501  503 -0.00000000000E+00 -0.00000000000E+00 -0.60323352694E+03  0.60323352694E+03  0.00000000000E+00 0.  1.
    9000005    1    1    2  501    0 -0.10352104766E+03  0.10451175117E+02 -0.33589665391E+03  0.53259027073E+03  0.40000000000E+03 0.  1.
   -9000005    1    1    2    0  502  0.10352104766E+03 -0.10451175117E+02  0.83725730754E+02  0.42170586000E+03  0.40000000000E+03 0.  1.
<mgrwt>
<rscale>  2 0.41331082E+03</rscale>
<asrwt>0</asrwt>
<pdfrwt beam="1">  1       21 0.54009632E-01 0.41331082E+03</pdfrwt>
<pdfrwt beam="2">  1       21 0.92805157E-01 0.41331082E+03</pdfrwt>
<totfact> 0.27923108E+03</totfact>
</mgrwt>
</event>
<event>
 4    1  0.4962426E-002  0.4591318E+03  0.7818608E-02  0.1025033E+00
         21   -1    0    0  501  502  0.00000000000E+00  0.00000000000E+00  0.28912415447E+03  0.28912415447E+03  0.00000000000E+00 0. -1.
         21   -1    0    0  502  503 -0.00000000000E+00 -0.00000000000E+00 -0.73712478152E+03  0.73712478152E+03  0.00000000000E+00 0. -1.
    9000005    1    1    2  501    0 -0.21437380602E+03  0.69612568200E+02 -0.17048015332E+03  0.48976067731E+03  0.40000000000E+03 0. -1.
   -9000005    1    1    2    0  503  0.21437380602E+03 -0.69612568200E+02 -0.27752047374E+03  0.53648825868E+03  0.40000000000E+03 0. -1.
<mgrwt>
<rscale>  2 0.45913183E+03</rscale>
<asrwt>0</asrwt>
<pdfrwt beam="1">  1       21 0.44480639E-01 0.45913183E+03</pdfrwt>
<pdfrwt beam="2">  1       21 0.11340381E+00 0.45913183E+03</pdfrwt>
<totfact> 0.25388104E+03</totfact>
</mgrwt>
</event>
<event>
 4    1  0.4962426E-002  0.4729750E+03  0.7818608E-02  0.1021084E+00
         21   -1    0    0  503  502  0.00000000000E+00  0.00000000000E+00  0.20423639665E+03  0.20423639665E+03  0.00000000000E+00 0. -1.
         21   -1    0    0  501  503 -0.00000000000E+00 -0.00000000000E+00 -0.16229391430E+04  0.16229391430E+04  0.00000000000E+00 0. -1.
    9000005    1    1    2  501    0 -0.15893787293E+03 -0.19607176251E+03 -0.12302546229E+04  0.13180409025E+04  0.40000000000E+03 0. -1.
   -9000005    1    1    2    0  502  0.15893787293E+03  0.19607176251E+03 -0.18844812345E+03  0.50913463714E+03  0.40000000000E+03 0. -1.
<mgrwt>
<rscale>  2 0.47297503E+03</rscale>
<asrwt>0</asrwt>
<pdfrwt beam="1">  1       21 0.31420985E-01 0.47297503E+03</pdfrwt>
<pdfrwt beam="2">  1       21 0.24968294E+00 0.47297503E+03</pdfrwt>
<totfact> 0.52136381E+02</totfact>
</mgrwt>
</event>
<event>
 4    1  0.4962426E-002  0.4203108E+03  0.7818608E-02  0.1036965E+00
         21   -1    0    0  501  502  0.00000000000E+00  0.00000000000E+00  0.94482284254E+03  0.94482284254E+03  0.00000000000E+00 0. -1.
         21   -1    0    0  502  503 -0.00000000000E+00 -0.00000000000E+00 -0.50096068957E+03  0.50096068957E+03  0.00000000000E+00 0.  1.
    9000005    1    1    2  501    0  0.46810100519E+02  0.12029126440E+03  0.79423173019E+03  0.89859068271E+03  0.40000000000E+03 0. -1.
   -9000005    1    1    2    0  503 -0.46810100519E+02 -0.12029126440E+03 -0.35036957722E+03  0.54719284941E+03  0.40000000000E+03 0.  1.
<mgrwt>
<rscale>  2 0.42031081E+03</rscale>
<asrwt>0</asrwt>
<pdfrwt beam="1">  1       21 0.14535736E+00 0.42031081E+03</pdfrwt>
<pdfrwt beam="2">  1       21 0.77070876E-01 0.42031081E+03</pdfrwt>
<totfact> 0.40876406E+02</totfact>
</mgrwt>
</event>
<event>
 4    1  0.4962426E-002  0.4096576E+03  0.7818608E-02  0.1040486E+00
         21   -1    0    0  501  502  0.00000000000E+00  0.00000000000E+00  0.19087693069E+03  0.19087693069E+03  0.00000000000E+00 0.  1.
         21   -1    0    0  502  503 -0.00000000000E+00 -0.00000000000E+00 -0.17989773188E+04  0.17989773188E+04  0.00000000000E+00 0.  1.
    9000005    1    1    2  501    0  0.55159025047E+02  0.69114587744E+02 -0.92641208557E+02  0.42000206881E+03  0.40000000000E+03 0.  1.
   -9000005    1    1    2    0  503 -0.55159025047E+02 -0.69114587744E+02 -0.15154591796E+04  0.15698521807E+04  0.40000000000E+03 0.  1.
<mgrwt>
<rscale>  2 0.40965759E+03</rscale>
<asrwt>0</asrwt>
<pdfrwt beam="1">  1       21 0.29365683E-01 0.40965759E+03</pdfrwt>
<pdfrwt beam="2">  1       21 0.27676573E+00 0.40965759E+03</pdfrwt>
<totfact> 0.42292121E+02</totfact>
</mgrwt>
</event>
<event>
 4    1  0.4962426E-002  0.4143931E+03  0.7818608E-02  0.1038907E+00
         21   -1    0    0  503  502  0.00000000000E+00  0.00000000000E+00  0.14944627231E+04  0.14944627231E+04  0.00000000000E+00 0. -1.
         21   -1    0    0  501  503 -0.00000000000E+00 -0.00000000000E+00 -0.30435644437E+03  0.30435644437E+03  0.00000000000E+00 0. -1.
    9000005    1    1    2  501    0 -0.65648272068E+02  0.86092594243E+02 -0.11454900673E+03  0.42993383834E+03  0.40000000000E+03 0. -1.
   -9000005    1    1    2    0  502  0.65648272068E+02 -0.86092594243E+02  0.13046552854E+04  0.13688853291E+04  0.40000000000E+03 0. -1.
<mgrwt>
<rscale>  2 0.41439309E+03</rscale>
<asrwt>0</asrwt>
<pdfrwt beam="1">  1       21 0.22991734E+00 0.41439309E+03</pdfrwt>
<pdfrwt beam="2">  1       21 0.46824069E-01 0.41439309E+03</pdfrwt>
<totfact> 0.31522206E+02</totfact>
</mgrwt>
</event>
<event>
 4    1  0.4962426E-002  0.4770117E+03  0.7818608E-02  0.1019960E+00
         21   -1    0    0  501  502  0.00000000000E+00  0.00000000000E+00  0.27746869454E+03  0.27746869454E+03  0.00000000000E+00 0.  1.
         21   -1    0    0  502  503 -0.00000000000E+00 -0.00000000000E+00 -0.82011527070E+03  0.82011527070E+03  0.00000000000E+00 0.  1.
    9000005    1    1    2  501    0 -0.19146262947E+03  0.17573332495E+03 -0.26669664438E+03  0.54650456549E+03  0.40000000000E+03 0.  1.
   -9000005    1    1    2    0  503  0.19146262947E+03 -0.17573332495E+03 -0.27594993177E+03  0.55107939975E+03  0.40000000000E+03 0.  1.
<mgrwt>
<rscale>  2 0.47701168E+03</rscale>
<asrwt>0</asrwt>
<pdfrwt beam="1">  1       21 0.42687493E-01 0.47701168E+03</pdfrwt>
<pdfrwt beam="2">  1       21 0.12617158E+00 0.47701168E+03</pdfrwt>
<totfact> 0.20962087E+03</totfact>
</mgrwt>
</event>
<event>
 4    1  0.4962426E-002  0.6169549E+03  0.7818608E-02  0.9870841E-01
         21   -1    0    0  503  502  0.00000000000E+00  0.00000000000E+00  0.96987567620E+03  0.96987567620E+03  0.00000000000E+00 0. -1.
         21   -1    0    0  501  503 -0.00000000000E+00 -0.00000000000E+00 -0.39260925894E+03  0.39260925894E+03  0.00000000000E+00 0.  1.
    9000005    1    1    2  501    0  0.23210766010E+03  0.40836185346E+03  0.27516633754E+03  0.67553673665E+03  0.40000000000E+03 0. -1.
   -9000005    1    1    2    0  502 -0.23210766010E+03 -0.40836185346E+03  0.30210007972E+03  0.68694819849E+03  0.40000000000E+03 0.  1.
<mgrwt>
<rscale>  2 0.61695492E+03</rscale>
<asrwt>0</asrwt>
<pdfrwt beam="1">  1       21 0.14921164E+00 0.61695492E+03</pdfrwt>
<pdfrwt beam="2">  1       21 0.60401425E-01 0.61695492E+03</pdfrwt>
<totfact> 0.60857215E+02</totfact>
</mgrwt>
</event>
<event>
 4    1  0.4962426E-002  0.4440631E+03  0.7818608E-02  0.1029507E+00
         21   -1    0    0  501  502  0.00000000000E+00  0.00000000000E+00  0.67056209487E+03  0.67056209487E+03  0.00000000000E+00 0.  1.
         21   -1    0    0  502  503 -0.00000000000E+00 -0.00000000000E+00 -0.97640865185E+03  0.97640865185E+03  0.00000000000E+00 0.  1.
    9000005    1    1    2  501    0 -0.14519051396E+03 -0.12693219255E+03  0.53547555806E+03  0.69564800016E+03  0.40000000000E+03 0.  1.
   -9000005    1    1    2    0  503  0.14519051396E+03  0.12693219255E+03 -0.84132211504E+03  0.95132274655E+03  0.40000000000E+03 0.  1.
<mgrwt>
<rscale>  2 0.44406313E+03</rscale>
<asrwt>0</asrwt>
<pdfrwt beam="1">  1       21 0.10316340E+00 0.44406313E+03</pdfrwt>
<pdfrwt beam="2">  1       21 0.15021672E+00 0.44406313E+03</pdfrwt>
<totfact> 0.18546709E+02</totfact>
</mgrwt>
</event>
<event>
 4    1  0.4962426E-002  0.4045990E+03  0.7818608E-02  0.1042199E+00
         21   -1    0    0  501  502  0.00000000000E+00  0.00000000000E+00  0.16606864709E+03  0.16606864709E+03  0.00000000000E+00 0. -1.
         21   -1    0    0  502  503 -0.00000000000E+00 -0.00000000000E+00 -0.10007408658E+04  0.10007408658E+04  0.00000000000E+00 0. -1.
    9000005    1    1    2  501    0  0.32762053848E+02 -0.51254197576E+02 -0.34590596297E+03  0.53230750526E+03  0.40000000000E+03 0. -1.
   -9000005    1    1    2    0  503 -0.32762053848E+02  0.51254197576E+02 -0.48876625579E+03  0.63450200767E+03  0.40000000000E+03 0. -1.
<mgrwt>
<rscale>  2 0.40459899E+03</rscale>
<asrwt>0</asrwt>
<pdfrwt beam="1">  1       21 0.25549022E-01 0.40459899E+03</pdfrwt>
<pdfrwt beam="2">  1       21 0.15396014E+00 0.40459899E+03</pdfrwt>
<totfact> 0.35684886E+03</totfact>
</mgrwt>
</event>
<event>
 4    1  0.4962426E-002  0.4269972E+03  0.7818608E-02  0.1034813E+00
         21   -1    0    0  503  502  0.00000000000E+00  0.00000000000E+00  0.65928486667E+03  0.65928486667E+03  0.00000000000E+00 0.  1.
         21   -1    0    0  501  503 -0.00000000000E+00 -0.00000000000E+00 -0.30540064347E+03  0.30540064347E+03  0.00000000000E+00 0. -1.
    9000005    1    1    2  501    0  0.14563167054E+03  0.33437318933E+02  0.28696288997E+02  0.42796041261E+03  0.40000000000E+03 0. -1.
   -9000005    1    1    2    0  502 -0.14563167054E+03 -0.33437318933E+02  0.32518793421E+03  0.53672509753E+03  0.40000000000E+03 0. -1.
<mgrwt>
<rscale>  2 0.42699723E+03</rscale>
<asrwt>0</asrwt>
<pdfrwt beam="1">  1       21 0.10142844E+00 0.42699723E+03</pdfrwt>
<pdfrwt beam="2">  1       21 0.46984715E-01 0.42699723E+03</pdfrwt>
<totfact> 0.30167342E+03</totfact>
</mgrwt>
</event>
<event>
 4    1  0.4962426E-002  0.4129308E+03  0.7818608E-02  0.1039392E+00
         21   -1    0    0  501  502  0.00000000000E+00  0.00000000000E+00  0.63698661266E+03  0.63698661266E+03  0.00000000000E+00 0. -1.
         21   -1    0    0  502  503 -0.00000000000E+00 -0.00000000000E+00 -0.44154224082E+03  0.44154224082E+03  0.00000000000E+00 0. -1.
    9000005    1    1    2  501    0 -0.53324416876E+02 -0.87569097147E+02  0.43610779166E+03  0.60058458701E+03  0.40000000000E+03 0. -1.
   -9000005    1    1    2    0  503  0.53324416876E+02  0.87569097147E+02 -0.24066341982E+03  0.47794426647E+03  0.40000000000E+03 0. -1.
<mgrwt>
<rscale>  2 0.41293079E+03</rscale>
<asrwt>0</asrwt>
<pdfrwt beam="1">  1       21 0.97997941E-01 0.41293079E+03</pdfrwt>
<pdfrwt beam="2">  1       21 0.67929575E-01 0.41293079E+03</pdfrwt>
<totfact> 0.14832535E+03</totfact>
</mgrwt>
</event>
<event>
 4    1  0.4962426E-002  0.4732228E+03  0.7818608E-02  0.1021015E+00
         21   -1    0    0  501  502  0.00000000000E+00  0.00000000000E+00  0.84822941606E+03  0.84822941606E+03  0.00000000000E+00 0. -1.
         21   -1    0    0  502  503 -0.00000000000E+00 -0.00000000000E+00 -0.29506148296E+03  0.29506148296E+03  0.00000000000E+00 0. -1.
    9000005    1    1    2  501    0  0.14927122829E+03 -0.20410278727E+03  0.46203171410E+03  0.66137217374E+03  0.40000000000E+03 0. -1.
   -9000005    1    1    2    0  503 -0.14927122829E+03  0.20410278727E+03  0.91136218997E+02  0.48191872528E+03  0.40000000000E+03 0. -1.
<mgrwt>
<rscale>  2 0.47322283E+03</rscale>
<asrwt>0</asrwt>
<pdfrwt beam="1">  1       21 0.13049683E+00 0.47322283E+03</pdfrwt>
<pdfrwt beam="2">  1       21 0.45394075E-01 0.47322283E+03</pdfrwt>
<totfact> 0.16915818E+03</totfact>
</mgrwt>
</event>
<event>
 4    1  0.4962426E-002  0.4651493E+03  0.7818608E-02  0.1023298E+00
         21   -1    0    0  503  502  0.00000000000E+00  0.00000000000E+00  0.46164742584E+03  0.46164742584E+03  0.00000000000E+00 0.  1.
         21   -1    0    0  501  503 -0.00000000000E+00 -0.00000000000E+00 -0.54435369520E+03  0.54435369520E+03  0.00000000000E+00 0.  1.
    9000005    1    1    2  501    0 -0.18188517349E+03  0.15258321628E+03 -0.22889876459E+03  0.51841923060E+03  0.40000000000E+03 0.  1.
   -9000005    1    1    2    0  502  0.18188517349E+03 -0.15258321628E+03  0.14619249523E+03  0.48758189044E+03  0.40000000000E+03 0.  1.
<mgrwt>
<rscale>  2 0.46514928E+03</rscale>
<asrwt>0</asrwt>
<pdfrwt beam="1">  1       21 0.71022681E-01 0.46514928E+03</pdfrwt>
<pdfrwt beam="2">  1       21 0.83746722E-01 0.46514928E+03</pdfrwt>
<totfact> 0.19081492E+03</totfact>
</mgrwt>
</event>
<event>
 4    1  0.4962426E-002  0.4011316E+03  0.7818608E-02  0.1043389E+00
         21   -1    0    0  503  502  0.00000000000E+00  0.00000000000E+00  0.29847792254E+03  0.29847792254E+03  0.00000000000E+00 0. -1.
         21   -1    0    0  501  503 -0.00000000000E+00 -0.00000000000E+00 -0.56667477102E+03  0.56667477102E+03  0.00000000000E+00 0. -1.
    9000005    1    1    2  501    0  0.19095061207E+02 -0.23279768679E+02 -0.38659017130E+02  0.40299018424E+03  0.40000000000E+03 0. -1.
   -9000005    1    1    2    0  502 -0.19095061207E+02  0.23279768679E+02 -0.22953783135E+03  0.46216250931E+03  0.40000000000E+03 0. -1.
<mgrwt>
<rscale>  2 0.40113161E+03</rscale>
<asrwt>0</asrwt>
<pdfrwt beam="1">  1       21 0.45919680E-01 0.40113161E+03</pdfrwt>
<pdfrwt beam="2">  1       21 0.87180734E-01 0.40113161E+03</pdfrwt>
<totfact> 0.45884743E+03</totfact>
</mgrwt>
</event>
<event>
 4    1  0.4962426E-002  0.6014443E+03  0.7818608E-02  0.9902414E-01
         21   -1    0    0  503  502  0.00000000000E+00  0.00000000000E+00  0.45569867580E+03  0.45569867580E+03  0.00000000000E+00 0. -1.
         21   -1    0    0  501  503 -0.00000000000E+00 -0.00000000000E+00 -0.82164278348E+03  0.82164278348E+03  0.00000000000E+00 0. -1.
    9000005    1    1    2  501    0  0.43988661076E+03  0.90747317534E+02 -0.30053291754E+03  0.67235060831E+03  0.40000000000E+03 0. -1.
   -9000005    1    1    2    0  502 -0.43988661076E+03 -0.90747317534E+02 -0.65411190130E+02  0.60499085097E+03  0.40000000000E+03 0. -1.
<mgrwt>
<rscale>  2 0.60144435E+03</rscale>
<asrwt>0</asrwt>
<pdfrwt beam="1">  1       21 0.70107489E-01 0.60144435E+03</pdfrwt>
<pdfrwt beam="2">  1       21 0.12640658E+00 0.60144435E+03</pdfrwt>
<totfact> 0.68184480E+02</totfact>
</mgrwt>
</event>
<event>
 4    1  0.4962426E-002  0.4250280E+03  0.7818608E-02  0.1035442E+00
         21   -1    0    0  501  502  0.00000000000E+00  0.00000000000E+00  0.17890642901E+03  0.17890642901E+03  0.00000000000E+00 0. -1.
         21   -1    0    0  502  503 -0.00000000000E+00 -0.00000000000E+00 -0.10885295971E+04  0.10885295971E+04  0.00000000000E+00 0. -1.
    9000005    1    1    2  501    0  0.13297685407E+03  0.54460380358E+02 -0.28431587029E+03  0.51135534694E+03  0.40000000000E+03 0.  1.
   -9000005    1    1    2    0  503 -0.13297685407E+03 -0.54460380358E+02 -0.62530729785E+03  0.75608067922E+03  0.40000000000E+03 0.  1.
<mgrwt>
<rscale>  2 0.42502797E+03</rscale>
<asrwt>0</asrwt>
<pdfrwt beam="1">  1       21 0.27524066E-01 0.42502797E+03</pdfrwt>
<pdfrwt beam="2">  1       21 0.16746609E+00 0.42502797E+03</pdfrwt>
<totfact> 0.24210505E+03</totfact>
</mgrwt>
</event>
<event>
 4    1  0.4962426E-002  0.5438760E+03  0.7818608E-02  0.1002921E+00
         21   -1    0    0  503  502  0.00000000000E+00  0.00000000000E+00  0.36226798398E+03  0.36226798398E+03  0.00000000000E+00 0. -1.
         21   -1    0    0  501  503 -0.00000000000E+00 -0.00000000000E+00 -0.89947514930E+03  0.89947514930E+03  0.00000000000E+00 0.  1.
    9000005    1    1    2  501    0  0.13537754189E+03  0.34274481445E+03 -0.46018498956E+03  0.71244039140E+03  0.40000000000E+03 0. -1.
   -9000005    1    1    2    0  502 -0.13537754189E+03 -0.34274481445E+03 -0.77022175760E+02  0.54930274188E+03  0.40000000000E+03 0.  1.
<mgrwt>
<rscale>  2 0.54387598E+03</rscale>
<asrwt>0</asrwt>
<pdfrwt beam="1">  1       21 0.55733537E-01 0.54387598E+03</pdfrwt>
<pdfrwt beam="2">  1       21 0.13838079E+00 0.54387598E+03</pdfrwt>
<totfact> 0.91198047E+02</totfact>
</mgrwt>
</event>
<event>
 4    1  0.4962426E-002  0.4724164E+03  0.7818608E-02  0.1021240E+00
         21   -1    0    0  501  502  0.00000000000E+00  0.00000000000E+00  0.34204783921E+03  0.34204783921E+03  0.00000000000E+00 0. -1.
         21   -1    0    0  502  503 -0.00000000000E+00 -0.00000000000E+00 -0.77727702858E+03  0.77727702858E+03  0.00000000000E+00 0.  1.
    9000005    1    1    2  501    0 -0.61329508075E+02  0.24375391512E+03  0.66449917842E+01  0.47246315794E+03  0.40000000000E+03 0.  1.
   -9000005    1    1    2    0  503  0.61329508075E+02 -0.24375391512E+03 -0.44187418116E+03  0.64686170985E+03  0.40000000000E+03 0. -1.
<mgrwt>
<rscale>  2 0.47241643E+03</rscale>
<asrwt>0</asrwt>
<pdfrwt beam="1">  1       21 0.52622744E-01 0.47241643E+03</pdfrwt>
<pdfrwt beam="2">  1       21 0.11958108E+00 0.47241643E+03</pdfrwt>
<totfact> 0.15484860E+03</totfact>
</mgrwt>
</event>
<event>
 4    1  0.4962426E-002  0.5721369E+03  0.7818608E-02  0.9964961E-01
         21   -1    0    0  503  502  0.00000000000E+00  0.00000000000E+00  0.58886650727E+03  0.58886650727E+03  0.00000000000E+00 0.  1.
         21   -1    0    0  501  503 -0.00000000000E+00 -0.00000000000E+00 -0.57789475564E+03  0.57789475564E+03  0.00000000000E+00 0. -1.
    9000005    1    1    2  501    0  0.40585054768E+03 -0.51244121373E+02 -0.10837098879E+03  0.58230996749E+03  0.40000000000E+03 0.  1.
   -9000005    1    1    2    0  502 -0.40585054768E+03  0.51244121373E+02  0.11934274041E+03  0.58445129542E+03  0.40000000000E+03 0. -1.
<mgrwt>
<rscale>  2 0.57213690E+03</rscale>
<asrwt>0</asrwt>
<pdfrwt beam="1">  1       21 0.90594848E-01 0.57213690E+03</pdfrwt>
<pdfrwt beam="2">  1       21 0.88906885E-01 0.57213690E+03</pdfrwt>
<totfact> 0.90839561E+02</totfact>
</mgrwt>
</event>
<event>
 4    1  0.4962426E-002  0.4012134E+03  0.7818608E-02  0.1043360E+00
         21   -1    0    0  503  502  0.00000000000E+00  0.00000000000E+00  0.24810917030E+03  0.24810917030E+03  0.00000000000E+00 0. -1.
         21   -1    0    0  501  503 -0.00000000000E+00 -0.00000000000E+00 -0.75266906014E+03  0.75266906014E+03  0.00000000000E+00 0. -1.
    9000005    1    1    2  501    0  0.21286210393E+02 -0.22782936106E+02 -0.43817074416E+03  0.59410922057E+03  0.40000000000E+03 0. -1.
   -9000005    1    1    2    0  502 -0.21286210393E+02  0.22782936106E+02 -0.66389145683E+02  0.40666900988E+03  0.40000000000E+03 0. -1.
<mgrwt>
<rscale>  2 0.40121337E+03</rscale>
<asrwt>0</asrwt>
<pdfrwt beam="1">  1       21 0.38170642E-01 0.40121337E+03</pdfrwt>
<pdfrwt beam="2">  1       21 0.11579524E+00 0.40121337E+03</pdfrwt>
<totfact> 0.33800227E+03</totfact>
</mgrwt>
</event>
<event>
 4    1  0.4962426E-002  0.4421842E+03  0.7818608E-02  0.1030079E+00
         21   -1    0    0  501  502  0.00000000000E+00  0.00000000000E+00  0.66013117179E+03  0.66013117179E+03  0.00000000000E+00 0. -1.
         21   -1    0    0  502  503 -0.00000000000E+00 -0.00000000000E+00 -0.31149740231E+03  0.31149740231E+03  0.00000000000E+00 0. -1.
    9000005    1    1    2  501    0 -0.18717247097E+03  0.22210742992E+02  0.28199760541E+03  0.52445161879E+03  0.40000000000E+03 0. -1.
   -9000005    1    1    2    0  503  0.18717247097E+03 -0.22210742992E+02  0.66636164069E+02  0.44717695531E+03  0.40000000000E+03 0. -1.
<mgrwt>
<rscale>  2 0.44218418E+03</rscale>
<asrwt>0</asrwt>
<pdfrwt beam="1">  1       21 0.10155864E+00 0.44218418E+03</pdfrwt>
<pdfrwt beam="2">  1       21 0.47922678E-01 0.44218418E+03</pdfrwt>
<totfact> 0.28682734E+03</totfact>
</mgrwt>
</event>
<event>
 4    1  0.4962426E-002  0.5085894E+03  0.7818608E-02  0.1011561E+00
         21   -1    0    0  501  502  0.00000000000E+00  0.00000000000E+00  0.47794900618E+03  0.47794900618E+03  0.00000000000E+00 0. -1.
         21   -1    0    0  502  503 -0.00000000000E+00 -0.00000000000E+00 -0.15406422786E+04  0.15406422786E+04  0.00000000000E+00 0. -1.
    9000005    1    1    2  501    0  0.26563758260E+03 -0.16763023618E+03  0.28157300163E+03  0.58133172683E+03  0.40000000000E+03 0. -1.
   -9000005    1    1    2    0  503 -0.26563758260E+03  0.16763023618E+03 -0.13442662741E+04  0.14372595580E+04  0.40000000000E+03 0. -1.
<mgrwt>
<rscale>  2 0.50858944E+03</rscale>
<asrwt>0</asrwt>
<pdfrwt beam="1">  1       21 0.73530616E-01 0.50858944E+03</pdfrwt>
<pdfrwt beam="2">  1       21 0.23702189E+00 0.50858944E+03</pdfrwt>
<totfact> 0.10068318E+02</totfact>
</mgrwt>
</event>
<event>
 4    1  0.4962426E-002  0.5891765E+03  0.7818608E-02  0.9928119E-01
         21   -1    0    0  503  502  0.00000000000E+00  0.00000000000E+00  0.21061425980E+04  0.21061425980E+04  0.00000000000E+00 0. -1.
         21   -1    0    0  501  503 -0.00000000000E+00 -0.00000000000E+00 -0.37115168260E+03  0.37115168260E+03  0.00000000000E+00 0. -1.
    9000005    1    1    2  501    0 -0.19382189524E+03 -0.38673251719E+03 -0.56048505094E+02  0.59183646546E+03  0.40000000000E+03 0. -1.
   -9000005    1    1    2    0  502  0.19382189524E+03  0.38673251719E+03  0.17910394205E+04  0.18854578152E+04  0.40000000000E+03 0. -1.
<mgrwt>
<rscale>  2 0.58917652E+03</rscale>
<asrwt>0</asrwt>
<pdfrwt beam="1">  1       21 0.32402193E+00 0.58917652E+03</pdfrwt>
<pdfrwt beam="2">  1       21 0.57100260E-01 0.58917652E+03</pdfrwt>
<totfact> 0.49839986E+01</totfact>
</mgrwt>
</event>
<event>
 4    1  0.4962426E-002  0.4545792E+03  0.7818608E-02  0.1026365E+00
         21   -1    0    0  501  502  0.00000000000E+00  0.00000000000E+00  0.11759054901E+04  0.11759054901E+04  0.00000000000E+00 0. -1.
         21   -1    0    0  502  503 -0.00000000000E+00 -0.00000000000E+00 -0.20022501079E+03  0.20022501079E+03  0.00000000000E+00 0. -1.
    9000005    1    1    2  501    0  0.11012580526E+03 -0.18578100334E+03  0.72850153283E+03  0.85869479882E+03  0.40000000000E+03 0. -1.
   -9000005    1    1    2    0  503 -0.11012580526E+03  0.18578100334E+03  0.24717894648E+03  0.51743570206E+03  0.40000000000E+03 0. -1.
<mgrwt>
<rscale>  2 0.45457923E+03</rscale>
<asrwt>0</asrwt>
<pdfrwt beam="1">  1       21 0.18090853E+00 0.45457923E+03</pdfrwt>
<pdfrwt beam="2">  1       21 0.30803848E-01 0.45457923E+03</pdfrwt>
<totfact> 0.15324185E+03</totfact>
</mgrwt>
</event>
<event>
 4    1  0.4962426E-002  0.4176661E+03  0.7818608E-02  0.1037829E+00
         21   -1    0    0  501  502  0.00000000000E+00  0.00000000000E+00  0.53146954277E+03  0.53146954277E+03  0.00000000000E+00 0.  1.
         21   -1    0    0  502  503 -0.00000000000E+00 -0.00000000000E+00 -0.33880085462E+03  0.33880085462E+03  0.00000000000E+00 0.  1.
    9000005    1    1    2  501    0 -0.11928474013E+03  0.14700524625E+02  0.19478003389E+02  0.41812001539E+03  0.40000000000E+03 0.  1.
   -9000005    1    1    2    0  503  0.11928474013E+03 -0.14700524625E+02  0.17319068476E+03  0.45215038200E+03  0.40000000000E+03 0.  1.
<mgrwt>
<rscale>  2 0.41766608E+03</rscale>
<asrwt>0</asrwt>
<pdfrwt beam="1">  1       21 0.81764544E-01 0.41766608E+03</pdfrwt>
<pdfrwt beam="2">  1       21 0.52123209E-01 0.41766608E+03</pdfrwt>
<totfact> 0.40501065E+03</totfact>
</mgrwt>
</event>
<event>
 4    1  0.4962426E-002  0.4265237E+03  0.7818608E-02  0.1034964E+00
         21   -1    0    0  501  502  0.00000000000E+00  0.00000000000E+00  0.21928929576E+03  0.21928929576E+03  0.00000000000E+00 0.  1.
         21   -1    0    0  502  503 -0.00000000000E+00 -0.00000000000E+00 -0.23923076147E+04  0.23923076147E+04  0.00000000000E+00 0.  1.
    9000005    1    1    2  501    0  0.14171576704E+03  0.42885166447E+02 -0.31135034260E+02  0.42765860974E+03  0.40000000000E+03 0.  1.
   -9000005    1    1    2    0  503 -0.14171576704E+03 -0.42885166447E+02 -0.21418832847E+04  0.21839383008E+04  0.40000000000E+03 0.  1.
<mgrwt>
<rscale>  2 0.42652373E+03</rscale>
<asrwt>0</asrwt>
<pdfrwt beam="1">  1       21 0.33736816E-01 0.42652373E+03</pdfrwt>
<pdfrwt beam="2">  1       21 0.36804731E+00 0.42652373E+03</pdfrwt>
<totfact> 0.88855953E+01</totfact>
</mgrwt>
</event>
<event>
 4    1  0.4962426E-002  0.4252180E+03  0.7818608E-02  0.1035381E+00
         21   -1    0    0  501  502  0.00000000000E+00  0.00000000000E+00  0.32403679385E+03  0.32403679385E+03  0.00000000000E+00 0. -1.
         21   -1    0    0  502  503 -0.00000000000E+00 -0.00000000000E+00 -0.14186544554E+04  0.14186544554E+04  0.00000000000E+00 0. -1.
    9000005    1    1    2  501    0  0.87547232958E+02 -0.11465534404E+03  0.13137614942E+03  0.44505062471E+03  0.40000000000E+03 0. -1.
   -9000005    1    1    2    0  503 -0.87547232958E+02  0.11465534404E+03 -0.12259938110E+04  0.12976406245E+04  0.40000000000E+03 0. -1.
<mgrwt>
<rscale>  2 0.42521802E+03</rscale>
<asrwt>0</asrwt>
<pdfrwt beam="1">  1       21 0.49851814E-01 0.42521802E+03</pdfrwt>
<pdfrwt beam="2">  1       21 0.21825453E+00 0.42521802E+03</pdfrwt>
<totfact> 0.32529910E+02</totfact>
</mgrwt>
</event>
<event>
 4    1  0.4962426E-002  0.4296334E+03  0.7818608E-02  0.1033976E+00
         21   -1    0    0  501  502  0.00000000000E+00  0.00000000000E+00  0.30100037205E+03  0.30100037205E+03  0.00000000000E+00 0.  1.
         21   -1    0    0  502  503 -0.00000000000E+00 -0.00000000000E+00 -0.10245079959E+04  0.10245079959E+04  0.00000000000E+00 0.  1.
    9000005    1    1    2  501    0 -0.96910075823E+02 -0.12326123925E+03  0.58158166216E+02  0.43355192099E+03  0.40000000000E+03 0.  1.
   -9000005    1    1    2    0  503  0.96910075823E+02  0.12326123925E+03 -0.78166579007E+03  0.89195644696E+03  0.40000000000E+03 0.  1.
<mgrwt>
<rscale>  2 0.42963344E+03</rscale>
<asrwt>0</asrwt>
<pdfrwt beam="1">  1       21 0.46307750E-01 0.42963344E+03</pdfrwt>
<pdfrwt beam="2">  1       21 0.15761661E+00 0.42963344E+03</pdfrwt>
<totfact> 0.99606579E+02</totfact>
</mgrwt>
</event>
<event>
 4    1  0.4962426E-002  0.6976367E+03  0.7818608E-02  0.9721282E-01
         21   -1    0    0  503  502  0.00000000000E+00  0.00000000000E+00  0.23870614798E+04  0.23870614798E+04  0.00000000000E+00 0. -1.
         21   -1    0    0  501  503 -0.00000000000E+00 -0.00000000000E+00 -0.27322330191E+03  0.27322330191E+03  0.00000000000E+00 0. -1.
    9000005    1    1    2  501    0 -0.46377481098E+03  0.33408071787E+03  0.17269756635E+04  0.18625632724E+04  0.40000000000E+03 0. -1.
   -9000005    1    1    2    0  502  0.46377481098E+03 -0.33408071787E+03  0.38686251434E+03  0.79772150927E+03  0.40000000000E+03 0. -1.
<mgrwt>
<rscale>  2 0.69763673E+03</rscale>
<asrwt>0</asrwt>
<pdfrwt beam="1">  1       21 0.36724021E+00 0.69763673E+03</pdfrwt>
<pdfrwt beam="2">  1       21 0.42034356E-01 0.69763673E+03</pdfrwt>
<totfact> 0.49128664E+01</totfact>
</mgrwt>
</event>
<event>
 4    1  0.4962426E-002  0.5833406E+03  0.7818608E-02  0.9940585E-01
         21   -1    0    0  501  502  0.00000000000E+00  0.00000000000E+00  0.12881617865E+04  0.12881617865E+04  0.00000000000E+00 0.  1.
         21   -1    0    0  502  503 -0.00000000000E+00 -0.00000000000E+00 -0.31009470211E+03  0.31009470211E+03  0.00000000000E+00 0. -1.
    9000005    1    1    2  501    0 -0.36343346686E+03 -0.21955043185E+03  0.79658636933E+03  0.98733789594E+03  0.40000000000E+03 0.  1.
   -9000005    1    1    2    0  503  0.36343346686E+03  0.21955043185E+03  0.18148071509E+03  0.61091859270E+03  0.40000000000E+03 0. -1.
<mgrwt>
<rscale>  2 0.58334062E+03</rscale>
<asrwt>0</asrwt>
<pdfrwt beam="1">  1       21 0.19817873E+00 0.58334062E+03</pdfrwt>
<pdfrwt beam="2">  1       21 0.47706878E-01 0.58334062E+03</pdfrwt>
<totfact> 0.45039772E+02</totfact>
</mgrwt>
</event>
<event>
 4    1  0.4962426E-002  0.5451656E+03  0.7818608E-02  0.1002619E+00
         21   -1    0    0  501  502  0.00000000000E+00  0.00000000000E+00  0.70817107156E+03  0.70817107156E+03  0.00000000000E+00 0. -1.
         21   -1    0    0  502  503 -0.00000000000E+00 -0.00000000000E+00 -0.53927586999E+03  0.53927586999E+03  0.00000000000E+00 0.  1.
    9000005    1    1    2  501    0  0.30950774707E+03  0.20349563376E+03  0.37817466061E+03  0.66349196859E+03  0.40000000000E+03 0. -1.
   -9000005    1    1    2    0  503 -0.30950774707E+03 -0.20349563376E+03 -0.20927945904E+03  0.58395497295E+03  0.40000000000E+03 0.  1.
<mgrwt>
<rscale>  2 0.54516559E+03</rscale>
<asrwt>0</asrwt>
<pdfrwt beam="1">  1       21 0.10894940E+00 0.54516559E+03</pdfrwt>
<pdfrwt beam="2">  1       21 0.82965518E-01 0.54516559E+03</pdfrwt>
<totfact> 0.68799567E+02</totfact>
</mgrwt>
</event>
<event>
 4    1  0.4962426E-002  0.4100126E+03  0.7818608E-02  0.1040367E+00
         21   -1    0    0  501  502  0.00000000000E+00  0.00000000000E+00  0.19739750797E+04  0.19739750797E+04  0.00000000000E+00 0.  1.
         21   -1    0    0  502  503 -0.00000000000E+00 -0.00000000000E+00 -0.10436728704E+03  0.10436728704E+03  0.00000000000E+00 0. -1.
    9000005    1    1    2  501    0 -0.66022846952E+02 -0.61247873361E+02  0.13805628805E+04  0.14401611665E+04  0.40000000000E+03 0.  1.
   -9000005    1    1    2    0  503  0.66022846952E+02  0.61247873361E+02  0.48904491214E+03  0.63818120028E+03  0.40000000000E+03 0. -1.
<mgrwt>
<rscale>  2 0.41001258E+03</rscale>
<asrwt>0</asrwt>
<pdfrwt beam="1">  1       21 0.30368845E+00 0.41001258E+03</pdfrwt>
<pdfrwt beam="2">  1       21 0.16056507E-01 0.41001258E+03</pdfrwt>
<totfact> 0.92743209E+02</totfact>
</mgrwt>
</event>
<event>
 4    1  0.4962426E-002  0.4010747E+03  0.7818608E-02  0.1043408E+00
         21   -1    0    0  501  502  0.00000000000E+00  0.00000000000E+00  0.36196117239E+03  0.36196117239E+03  0.00000000000E+00 0.  1.
         21   -1    0    0  502  503 -0.00000000000E+00 -0.00000000000E+00 -0.72744963618E+03  0.72744963618E+03  0.00000000000E+00 0.  1.
    9000005    1    1    2  501    0 -0.14205299998E+02 -0.25673232415E+02  0.15702195604E+03  0.43071661227E+03  0.40000000000E+03 0.  1.
   -9000005    1    1    2    0  503  0.14205299998E+02  0.25673232415E+02 -0.52251041982E+03  0.65869419630E+03  0.40000000000E+03 0.  1.
<mgrwt>
<rscale>  2 0.40107469E+03</rscale>
<asrwt>0</asrwt>
<pdfrwt beam="1">  1       21 0.55686335E-01 0.40107469E+03</pdfrwt>
<pdfrwt beam="2">  1       21 0.11191533E+00 0.40107469E+03</pdfrwt>
<totfact> 0.16661154E+03</totfact>
</mgrwt>
</event>
<event>
 4    1  0.4962426E-002  0.5992860E+03  0.7818608E-02  0.9906888E-01
         21   -1    0    0  501  502  0.00000000000E+00  0.00000000000E+00  0.34192267175E+04  0.34192267175E+04  0.00000000000E+00 0.  1.
         21   -1    0    0  502  503 -0.00000000000E+00 -0.00000000000E+00 -0.28138884050E+03  0.28138884050E+03  0.00000000000E+00 0.  1.
    9000005    1    1    2  501    0  0.17455171126E+03 -0.41070114454E+03  0.30337283085E+04  0.30923536635E+04  0.40000000000E+03 0.  1.
   -9000005    1    1    2    0  503 -0.17455171126E+03  0.41070114454E+03  0.10410956841E+03  0.60826189447E+03  0.40000000000E+03 0.  1.
<mgrwt>
<rscale>  2 0.59928602E+03</rscale>
<asrwt>0</asrwt>
<pdfrwt beam="1">  1       21 0.52603485E+00 0.59928602E+03</pdfrwt>
<pdfrwt beam="2">  1       21 0.43290593E-01 0.59928602E+03</pdfrwt>
<totfact> 0.40387671E+00</totfact>
</mgrwt>
</event>
<event>
 4    1  0.4962426E-002  0.5842322E+03  0.7818608E-02  0.9938670E-01
         21   -1    0    0  503  502  0.00000000000E+00  0.00000000000E+00  0.33349093434E+03  0.33349093434E+03  0.00000000000E+00 0. -1.
         21   -1    0    0  501  503 -0.00000000000E+00 -0.00000000000E+00 -0.10417196267E+04  0.10417196267E+04  0.00000000000E+00 0. -1.
    9000005    1    1    2  501    0  0.37591757685E+03  0.20003301778E+03 -0.44505538438E+03  0.73443960129E+03  0.40000000000E+03 0. -1.
   -9000005    1    1    2    0  502 -0.37591757685E+03 -0.20003301778E+03 -0.26317330794E+03  0.64077095970E+03  0.40000000000E+03 0. -1.
<mgrwt>
<rscale>  2 0.58423217E+03</rscale>
<asrwt>0</asrwt>
<pdfrwt beam="1">  1       21 0.51306299E-01 0.58423217E+03</pdfrwt>
<pdfrwt beam="2">  1       21 0.16026455E+00 0.58423217E+03</pdfrwt>
<totfact> 0.71978708E+02</totfact>
</mgrwt>
</event>
<event>
 4    1  0.4962426E-002  0.4024798E+03  0.7818608E-02  0.1042924E+00
         21   -1    0    0  503  502  0.00000000000E+00  0.00000000000E+00  0.14339427731E+03  0.14339427731E+03  0.00000000000E+00 0.  1.
         21   -1    0    0  501  503 -0.00000000000E+00 -0.00000000000E+00 -0.11962449288E+04  0.11962449288E+04  0.00000000000E+00 0.  1.
    9000005    1    1    2  501    0 -0.29137100547E+02  0.33778598572E+02 -0.68442759306E+03  0.79399691089E+03  0.40000000000E+03 0.  1.
   -9000005    1    1    2    0  502  0.29137100547E+02 -0.33778598572E+02 -0.36842305840E+03  0.54564229520E+03  0.40000000000E+03 0.  1.
<mgrwt>
<rscale>  2 0.40247977E+03</rscale>
<asrwt>0</asrwt>
<pdfrwt beam="1">  1       21 0.22060657E-01 0.40247977E+03</pdfrwt>
<pdfrwt beam="2">  1       21 0.18403769E+00 0.40247977E+03</pdfrwt>
<totfact> 0.28616979E+03</totfact>
</mgrwt>
</event>
<event>
 4    1  0.4962426E-002  0.8397742E+03  0.7818608E-02  0.9504165E-01
         21   -1    0    0  501  502  0.00000000000E+00  0.00000000000E+00  0.87960162509E+03  0.87960162509E+03  0.00000000000E+00 0. -1.
         21   -1    0    0  502  503 -0.00000000000E+00 -0.00000000000E+00 -0.15245500801E+04  0.15245500801E+04  0.00000000000E+00 0.  1.
    9000005    1    1    2  501    0 -0.45783015891E+03  0.57932057600E+03  0.50522025400E+03  0.98003484083E+03  0.40000000000E+03 0.  1.
   -9000005    1    1    2    0  503  0.45783015891E+03 -0.57932057600E+03 -0.11501687090E+04  0.14241168644E+04  0.40000000000E+03 0. -1.
<mgrwt>
<rscale>  2 0.83977425E+03</rscale>
<asrwt>0</asrwt>
<pdfrwt beam="1">  1       21 0.13532333E+00 0.83977425E+03</pdfrwt>
<pdfrwt beam="2">  1       21 0.23454616E+00 0.83977425E+03</pdfrwt>
<totfact> 0.20295554E+01</totfact>
</mgrwt>
</event>
<event>
 4    1  0.4962426E-002  0.4100539E+03  0.7818608E-02  0.1040353E+00
         21   -1    0    0  503  502  0.00000000000E+00  0.00000000000E+00  0.10177805251E+04  0.10177805251E+04  0.00000000000E+00 0. -1.
         21   -1    0    0  501  503 -0.00000000000E+00 -0.00000000000E+00 -0.17055902891E+03  0.17055902891E+03  0.00000000000E+00 0. -1.
    9000005    1    1    2  501    0 -0.28970803134E+01  0.90198698217E+02  0.52886584794E+03  0.66921094085E+03  0.40000000000E+03 0.  1.
   -9000005    1    1    2    0  502  0.28970803134E+01 -0.90198698217E+02  0.31835564825E+03  0.51912861317E+03  0.40000000000E+03 0.  1.
<mgrwt>
<rscale>  2 0.41005390E+03</rscale>
<asrwt>0</asrwt>
<pdfrwt beam="1">  1       21 0.15658162E+00 0.41005390E+03</pdfrwt>
<pdfrwt beam="2">  1       21 0.26239851E-01 0.41005390E+03</pdfrwt>
<totfact> 0.32269460E+03</totfact>
</mgrwt>
</event>
<event>
 4    1  0.4962426E-002  0.5031640E+03  0.7818608E-02  0.1012956E+00
         21   -1    0    0  503  502  0.00000000000E+00  0.00000000000E+00  0.59774939678E+03  0.59774939678E+03  0.00000000000E+00 0.  1.
         21   -1    0    0  501  503 -0.00000000000E+00 -0.00000000000E+00 -0.43175357925E+03  0.43175357925E+03  0.00000000000E+00 0. -1.
    9000005    1    1    2  501    0 -0.80810068040E+02  0.29435303051E+03  0.12023048780E+02  0.50330758723E+03  0.40000000000E+03 0. -1.
   -9000005    1    1    2    0  502  0.80810068040E+02 -0.29435303051E+03  0.15397276875E+03  0.52619538879E+03  0.40000000000E+03 0. -1.
<mgrwt>
<rscale>  2 0.50316396E+03</rscale>
<asrwt>0</asrwt>
<pdfrwt beam="1">  1       21 0.91961446E-01 0.50316396E+03</pdfrwt>
<pdfrwt beam="2">  1       21 0.66423628E-01 0.50316396E+03</pdfrwt>
<totfact> 0.17548131E+03</totfact>
</mgrwt>
</event>
<event>
 4    1  0.4962426E-002  0.5306008E+03  0.7818608E-02  0.1006087E+00
         21   -1    0    0  501  502  0.00000000000E+00  0.00000000000E+00  0.55106762565E+03  0.55106762565E+03  0.00000000000E+00 0.  1.
         21   -1    0    0  502  503 -0.00000000000E+00 -0.00000000000E+00 -0.55174742795E+03  0.55174742795E+03  0.00000000000E+00 0. -1.
    9000005    1    1    2  501    0 -0.38546795639E+02 -0.34648430313E+03 -0.15038298118E+03  0.55150001704E+03  0.40000000000E+03 0. -1.
   -9000005    1    1    2    0  503  0.38546795639E+02  0.34648430313E+03  0.14970317889E+03  0.55131503656E+03  0.40000000000E+03 0. -1.
<mgrwt>
<rscale>  2 0.53060082E+03</rscale>
<asrwt>0</asrwt>
<pdfrwt beam="1">  1       21 0.84779634E-01 0.53060082E+03</pdfrwt>
<pdfrwt beam="2">  1       21 0.84884220E-01 0.53060082E+03</pdfrwt>
<totfact> 0.12020409E+03</totfact>
</mgrwt>
</event>
<event>
 4    1  0.4962426E-002  0.4711689E+03  0.7818608E-02  0.1021591E+00
         21   -1    0    0  501  502  0.00000000000E+00  0.00000000000E+00  0.21673619800E+03  0.21673619800E+03  0.00000000000E+00 0.  1.
         21   -1    0    0  502  503 -0.00000000000E+00 -0.00000000000E+00 -0.10467441381E+04  0.10467441381E+04  0.00000000000E+00 0. -1.
    9000005    1    1    2  501    0 -0.21871899704E+03  0.11900484493E+03 -0.32247201546E+03  0.57095389791E+03  0.40000000000E+03 0. -1.
   -9000005    1    1    2    0  503  0.21871899704E+03 -0.11900484493E+03 -0.50753592460E+03  0.69252643816E+03  0.40000000000E+03 0. -1.
<mgrwt>
<rscale>  2 0.47116892E+03</rscale>
<asrwt>0</asrwt>
<pdfrwt beam="1">  1       21 0.33344031E-01 0.47116892E+03</pdfrwt>
<pdfrwt beam="2">  1       21 0.16103756E+00 0.47116892E+03</pdfrwt>
<totfact> 0.18112986E+03</totfact>
</mgrwt>
</event>
<event>
 4    1  0.4962426E-002  0.5283078E+03  0.7818608E-02  0.1006643E+00
         21   -1    0    0  501  502  0.00000000000E+00  0.00000000000E+00  0.45283086647E+03  0.45283086647E+03  0.00000000000E+00 0. -1.
         21   -1    0    0  502  503 -0.00000000000E+00 -0.00000000000E+00 -0.63818492045E+03  0.63818492045E+03  0.00000000000E+00 0.  1.
    9000005    1    1    2  501    0 -0.34462682177E+03 -0.18478922625E+02  0.81910904232E+01  0.52837128123E+03  0.40000000000E+03 0. -1.
   -9000005    1    1    2    0  503  0.34462682177E+03  0.18478922625E+02 -0.19354514440E+03  0.56264450569E+03  0.40000000000E+03 0.  1.
<mgrwt>
<rscale>  2 0.52830779E+03</rscale>
<asrwt>0</asrwt>
<pdfrwt beam="1">  1       21 0.69666287E-01 0.52830779E+03</pdfrwt>
<pdfrwt beam="2">  1       21 0.98182296E-01 0.52830779E+03</pdfrwt>
<totfact> 0.13356204E+03</totfact>
</mgrwt>
</event>
<event>
 4    1  0.4962426E-002  0.5200540E+03  0.7818608E-02  0.1008673E+00
         21   -1    0    0  503  502  0.00000000000E+00  0.00000000000E+00  0.34612028791E+03  0.34612028791E+03  0.00000000000E+00 0.  1.
         21   -1    0    0  501  503 -0.00000000000E+00 -0.00000000000E+00 -0.89321211582E+03  0.89321211582E+03  0.00000000000E+00 0.  1.
    9000005    1    1    2  501    0  0.37853771535E+02  0.33018672767E+03 -0.49279477116E+03  0.71645158220E+03  0.40000000000E+03 0.  1.
   -9000005    1    1    2    0  502 -0.37853771535E+02 -0.33018672767E+03 -0.54297056752E+02  0.52288082153E+03  0.40000000000E+03 0.  1.
<mgrwt>
<rscale>  2 0.52005402E+03</rscale>
<asrwt>0</asrwt>
<pdfrwt beam="1">  1       21 0.53249275E-01 0.52005402E+03</pdfrwt>
<pdfrwt beam="2">  1       21 0.13741725E+00 0.52005402E+03</pdfrwt>
<totfact> 0.10341093E+03</totfact>
</mgrwt>
</event>
<event>
 4    1  0.4962426E-002  0.5536517E+03  0.7818608E-02  0.1000652E+00
         21   -1    0    0  503  502  0.00000000000E+00  0.00000000000E+00  0.11722575696E+04  0.11722575696E+04  0.00000000000E+00 0.  1.
         21   -1    0    0  501  503 -0.00000000000E+00 -0.00000000000E+00 -0.34403925856E+03  0.34403925856E+03  0.00000000000E+00 0. -1.
    9000005    1    1    2  501    0  0.34717420058E+02 -0.38121501143E+03  0.42732539920E+02  0.55529834698E+03  0.40000000000E+03 0. -1.
   -9000005    1    1    2    0  502 -0.34717420058E+02  0.38121501143E+03  0.78548577115E+03  0.96099848120E+03  0.40000000000E+03 0.  1.
<mgrwt>
<rscale>  2 0.55365168E+03</rscale>
<asrwt>0</asrwt>
<pdfrwt beam="1">  1       21 0.18034732E+00 0.55365168E+03</pdfrwt>
<pdfrwt beam="2">  1       21 0.52929117E-01 0.55365168E+03</pdfrwt>
<totfact> 0.48468944E+02</totfact>
</mgrwt>
</event>
<event>
 4    1  0.4962426E-002  0.4760550E+03  0.7818608E-02  0.1020225E+00
         21   -1    0    0  503  502  0.00000000000E+00  0.00000000000E+00  0.37624027274E+03  0.37624027274E+03  0.00000000000E+00 0. -1.
         21   -1    0    0  501  503 -0.00000000000E+00 -0.00000000000E+00 -0.67481898321E+03  0.67481898321E+03  0.00000000000E+00 0. -1.
    9000005    1    1    2  501    0 -0.17667990661E+03  0.18818232452E+03 -0.32150763961E+03  0.57445238183E+03  0.40000000000E+03 0. -1.
   -9000005    1    1    2    0  502  0.17667990661E+03 -0.18818232452E+03  0.22928929146E+02  0.47660687412E+03  0.40000000000E+03 0. -1.
<mgrwt>
<rscale>  2 0.47605501E+03</rscale>
<asrwt>0</asrwt>
<pdfrwt beam="1">  1       21 0.57883120E-01 0.47605501E+03</pdfrwt>
<pdfrwt beam="2">  1       21 0.10381830E+00 0.47605501E+03</pdfrwt>
<totfact> 0.17900049E+03</totfact>
</mgrwt>
</event>
<event>
 4    1  0.4962426E-002  0.6925711E+03  0.7818608E-02  0.9730022E-01
         21   -1    0    0  501  502  0.00000000000E+00  0.00000000000E+00  0.17969454360E+04  0.17969454360E+04  0.00000000000E+00 0.  1.
         21   -1    0    0  502  503 -0.00000000000E+00 -0.00000000000E+00 -0.61712872486E+03  0.61712872486E+03  0.00000000000E+00 0.  1.
    9000005    1    1    2  501    0 -0.55341581238E+03  0.11569633386E+03  0.14991752344E+04  0.16514179018E+04  0.40000000000E+03 0.  1.
   -9000005    1    1    2    0  503  0.55341581238E+03 -0.11569633386E+03 -0.31935852325E+03  0.76265625903E+03  0.40000000000E+03 0.  1.
<mgrwt>
<rscale>  2 0.69257108E+03</rscale>
<asrwt>0</asrwt>
<pdfrwt beam="1">  1       21 0.27645314E+00 0.69257108E+03</pdfrwt>
<pdfrwt beam="2">  1       21 0.94942881E-01 0.69257108E+03</pdfrwt>
<totfact> 0.28875438E+01</totfact>
</mgrwt>
</event>
<event>
 4    1  0.4962426E-002  0.4209903E+03  0.7818608E-02  0.1036744E+00
         21   -1    0    0  503  502  0.00000000000E+00  0.00000000000E+00  0.18954496827E+03  0.18954496827E+03  0.00000000000E+00 0.  1.
         21   -1    0    0  501  503 -0.00000000000E+00 -0.00000000000E+00 -0.10915844323E+04  0.10915844323E+04  0.00000000000E+00 0.  1.
    9000005    1    1    2  501    0  0.41871149137E+02 -0.12441728409E+03 -0.69359573256E+03  0.81136175282E+03  0.40000000000E+03 0.  1.
   -9000005    1    1    2    0  502 -0.41871149137E+02  0.12441728409E+03 -0.20844373150E+03  0.46976764779E+03  0.40000000000E+03 0.  1.
<mgrwt>
<rscale>  2 0.42099032E+03</rscale>
<asrwt>0</asrwt>
<pdfrwt beam="1">  1       21 0.29160765E-01 0.42099032E+03</pdfrwt>
<pdfrwt beam="2">  1       21 0.16793606E+00 0.42099032E+03</pdfrwt>
<totfact> 0.21470793E+03</totfact>
</mgrwt>
</event>
<event>
 4    1  0.4962426E-002  0.4236774E+03  0.7818608E-02  0.1035876E+00
         21   -1    0    0  501  502  0.00000000000E+00  0.00000000000E+00  0.16354213779E+04  0.16354213779E+04  0.00000000000E+00 0. -1.
         21   -1    0    0  502  503 -0.00000000000E+00 -0.00000000000E+00 -0.21082201769E+03  0.21082201769E+03  0.00000000000E+00 0. -1.
    9000005    1    1    2  501    0 -0.13826725109E+03  0.19614266229E+02  0.13514406603E+04  0.14162960179E+04  0.40000000000E+03 0. -1.
   -9000005    1    1    2    0  503  0.13826725109E+03 -0.19614266229E+02  0.73158699917E+02  0.42994737764E+03  0.40000000000E+03 0. -1.
<mgrwt>
<rscale>  2 0.42367742E+03</rscale>
<asrwt>0</asrwt>
<pdfrwt beam="1">  1       21 0.25160328E+00 0.42367742E+03</pdfrwt>
<pdfrwt beam="2">  1       21 0.32434158E-01 0.42367742E+03</pdfrwt>
<totfact> 0.48884323E+02</totfact>
</mgrwt>
</event>
<event>
 4    1  0.4962426E-002  0.4295747E+03  0.7818608E-02  0.1033994E+00
         21   -1    0    0  503  502  0.00000000000E+00  0.00000000000E+00  0.85713420348E+03  0.85713420348E+03  0.00000000000E+00 0. -1.
         21   -1    0    0  501  503 -0.00000000000E+00 -0.00000000000E+00 -0.51708234981E+03  0.51708234981E+03  0.00000000000E+00 0. -1.
    9000005    1    1    2  501    0 -0.15611028526E+03  0.12805430659E+02 -0.35489970091E+03  0.55721467849E+03  0.40000000000E+03 0. -1.
   -9000005    1    1    2    0  502  0.15611028526E+03 -0.12805430659E+02  0.69495155458E+03  0.81700187480E+03  0.40000000000E+03 0. -1.
<mgrwt>
<rscale>  2 0.42957467E+03</rscale>
<asrwt>0</asrwt>
<pdfrwt beam="1">  1       21 0.13186680E+00 0.42957467E+03</pdfrwt>
<pdfrwt beam="2">  1       21 0.79551131E-01 0.42957467E+03</pdfrwt>
<totfact> 0.48943471E+02</totfact>
</mgrwt>
</event>
<event>
 4    1  0.4962426E-002  0.5269558E+03  0.7818608E-02  0.1006973E+00
         21   -1    0    0  503  502  0.00000000000E+00  0.00000000000E+00  0.22341510352E+03  0.22341510352E+03  0.00000000000E+00 0.  1.
         21   -1    0    0  501  503 -0.00000000000E+00 -0.00000000000E+00 -0.13029164442E+04  0.13029164442E+04  0.00000000000E+00 0.  1.
    9000005    1    1    2  501    0 -0.32747420464E+03  0.10219127035E+03 -0.70354517387E+03  0.87900979637E+03  0.40000000000E+03 0.  1.
   -9000005    1    1    2    0  502  0.32747420464E+03 -0.10219127035E+03 -0.37595616686E+03  0.64732175140E+03  0.40000000000E+03 0.  1.
<mgrwt>
<rscale>  2 0.52695580E+03</rscale>
<asrwt>0</asrwt>
<pdfrwt beam="1">  1       21 0.34371554E-01 0.52695580E+03</pdfrwt>
<pdfrwt beam="2">  1       21 0.20044868E+00 0.52695580E+03</pdfrwt>
<totfact> 0.87684043E+02</totfact>
</mgrwt>
</event>
<event>
 4    1  0.4962426E-002  0.4739884E+03  0.7818608E-02  0.1020801E+00
         21   -1    0    0  503  502  0.00000000000E+00  0.00000000000E+00  0.35059769870E+03  0.35059769870E+03  0.00000000000E+00 0. -1.
         21   -1    0    0  501  503 -0.00000000000E+00 -0.00000000000E+00 -0.17566155781E+04  0.17566155781E+04  0.00000000000E+00 0.  1.
    9000005    1    1    2  501    0 -0.25298695087E+03  0.25740941104E+02 -0.15427303762E+04  0.16139027254E+04  0.40000000000E+03 0.  1.
   -9000005    1    1    2    0  502  0.25298695087E+03 -0.25740941104E+02  0.13671249680E+03  0.49331055142E+03  0.40000000000E+03 0. -1.
<mgrwt>
<rscale>  2 0.47398839E+03</rscale>
<asrwt>0</asrwt>
<pdfrwt beam="1">  1       21 0.53938108E-01 0.47398839E+03</pdfrwt>
<pdfrwt beam="2">  1       21 0.27024855E+00 0.47398839E+03</pdfrwt>
<totfact> 0.12731585E+02</totfact>
</mgrwt>
</event>
<event>
 4    1  0.4962426E-002  0.4145253E+03  0.7818608E-02  0.1038863E+00
         21   -1    0    0  501  502  0.00000000000E+00  0.00000000000E+00  0.14192889922E+04  0.14192889922E+04  0.00000000000E+00 0.  1.
         21   -1    0    0  502  503 -0.00000000000E+00 -0.00000000000E+00 -0.13064333047E+03  0.13064333047E+03  0.00000000000E+00 0.  1.
    9000005    1    1    2  501    0  0.76898569760E+02  0.76927535818E+02  0.85412207650E+03  0.94939757603E+03  0.40000000000E+03 0.  1.
   -9000005    1    1    2    0  503 -0.76898569760E+02 -0.76927535818E+02  0.43452358518E+03  0.60053474661E+03  0.40000000000E+03 0.  1.
<mgrwt>
<rscale>  2 0.41452531E+03</rscale>
<asrwt>0</asrwt>
<pdfrwt beam="1">  1       21 0.21835214E+00 0.41452531E+03</pdfrwt>
<pdfrwt beam="2">  1       21 0.20098975E-01 0.41452531E+03</pdfrwt>
<totfact> 0.20122632E+03</totfact>
</mgrwt>
</event>
<event>
 4    1  0.4962426E-002  0.5321556E+03  0.7818608E-02  0.1005711E+00
         21   -1    0    0  503  502  0.00000000000E+00  0.00000000000E+00  0.53298633720E+03  0.53298633720E+03  0.00000000000E+00 0. -1.
         21   -1    0    0  501  503 -0.00000000000E+00 -0.00000000000E+00 -0.56041977857E+03  0.56041977857E+03  0.00000000000E+00 0.  1.
    9000005    1    1    2  501    0 -0.30641616912E+03  0.17116859807E+03  0.11084770021E+03  0.54357775001E+03  0.40000000000E+03 0. -1.
   -9000005    1    1    2    0  502  0.30641616912E+03 -0.17116859807E+03 -0.13828114158E+03  0.54982836575E+03  0.40000000000E+03 0.  1.
<mgrwt>
<rscale>  2 0.53215558E+03</rscale>
<asrwt>0</asrwt>
<pdfrwt beam="1">  1       21 0.81997898E-01 0.53215558E+03</pdfrwt>
<pdfrwt beam="2">  1       21 0.86218427E-01 0.53215558E+03</pdfrwt>
<totfact> 0.12521573E+03</totfact>
</mgrwt>
</event>
<event>
 4    1  0.4962426E-002  0.4259454E+03  0.7818608E-02  0.1035149E+00
         21   -1    0    0  503  502  0.00000000000E+00  0.00000000000E+00  0.70960092756E+03  0.70960092756E+03  0.00000000000E+00 0.  1.
         21   -1    0    0  501  503 -0.00000000000E+00 -0.00000000000E+00 -0.36786939119E+03  0.36786939119E+03  0.00000000000E+00 0.  1.
    9000005    1    1    2  501    0  0.14638330638E+03  0.11739701117E+01 -0.12664862043E+03  0.44437520593E+03  0.40000000000E+03 0.  1.
   -9000005    1    1    2    0  502 -0.14638330638E+03 -0.11739701117E+01  0.46838015680E+03  0.63309511282E+03  0.40000000000E+03 0.  1.
<mgrwt>
<rscale>  2 0.42594536E+03</rscale>
<asrwt>0</asrwt>
<pdfrwt beam="1">  1       21 0.10916937E+00 0.42594536E+03</pdfrwt>
<pdfrwt beam="2">  1       21 0.56595291E-01 0.42594536E+03</pdfrwt>
<totfact> 0.16929331E+03</totfact>
</mgrwt>
</event>
<event>
 4    1  0.4962426E-002  0.4181382E+03  0.7818608E-02  0.1037674E+00
         21   -1    0    0  503  502  0.00000000000E+00  0.00000000000E+00  0.42284502843E+03  0.42284502843E+03  0.00000000000E+00 0.  1.
         21   -1    0    0  501  503 -0.00000000000E+00 -0.00000000000E+00 -0.62961728701E+03  0.62961728701E+03  0.00000000000E+00 0.  1.
    9000005    1    1    2  501    0  0.94111600122E+02  0.77347154006E+02 -0.41170439326E+03  0.58680497862E+03  0.40000000000E+03 0. -1.
   -9000005    1    1    2    0  502 -0.94111600122E+02 -0.77347154006E+02  0.20493213467E+03  0.46565733682E+03  0.40000000000E+03 0. -1.
<mgrwt>
<rscale>  2 0.41813823E+03</rscale>
<asrwt>0</asrwt>
<pdfrwt beam="1">  1       21 0.65053082E-01 0.41813823E+03</pdfrwt>
<pdfrwt beam="2">  1       21 0.96864197E-01 0.41813823E+03</pdfrwt>
<totfact> 0.16759935E+03</totfact>
</mgrwt>
</event>
<event>
 4    1  0.4962426E-002  0.4272914E+03  0.7818608E-02  0.1034719E+00
         21   -1    0    0  503  502  0.00000000000E+00  0.00000000000E+00  0.32238860452E+03  0.32238860452E+03  0.00000000000E+00 0. -1.
         21   -1    0    0  501  503 -0.00000000000E+00 -0.00000000000E+00 -0.89969214482E+03  0.89969214482E+03  0.00000000000E+00 0. -1.
    9000005    1    1    2  501    0 -0.12735282508E+02  0.14971889017E+03 -0.66059949105E+03  0.78674622406E+03  0.40000000000E+03 0. -1.
   -9000005    1    1    2    0  502  0.12735282508E+02 -0.14971889017E+03  0.83295950748E+02  0.43533452528E+03  0.40000000000E+03 0. -1.
<mgrwt>
<rscale>  2 0.42729139E+03</rscale>
<asrwt>0</asrwt>
<pdfrwt beam="1">  1       21 0.49598246E-01 0.42729139E+03</pdfrwt>
<pdfrwt beam="2">  1       21 0.13841418E+00 0.42729139E+03</pdfrwt>
<totfact> 0.12251358E+03</totfact>
</mgrwt>
</event>
<event>
 4    1  0.4962426E-002  0.4924382E+03  0.7818608E-02  0.1015772E+00
         21   -1    0    0  501  502  0.00000000000E+00  0.00000000000E+00  0.12227285865E+04  0.12227285865E+04  0.00000000000E+00 0.  1.
         21   -1    0    0  502  503 -0.00000000000E+00 -0.00000000000E+00 -0.34552658294E+03  0.34552658294E+03  0.00000000000E+00 0. -1.
    9000005    1    1    2  501    0  0.89667135321E+02  0.27286485173E+03  0.95040647189E+03  0.10704054766E+04  0.40000000000E+03 0.  1.
   -9000005    1    1    2    0  503 -0.89667135321E+02 -0.27286485173E+03 -0.73204468359E+02  0.49784969283E+03  0.40000000000E+03 0. -1.
<mgrwt>
<rscale>  2 0.49243824E+03</rscale>
<asrwt>0</asrwt>
<pdfrwt beam="1">  1       21 0.18811209E+00 0.49243824E+03</pdfrwt>
<pdfrwt beam="2">  1       21 0.53157936E-01 0.49243824E+03</pdfrwt>
<totfact> 0.43451346E+02</totfact>
</mgrwt>
</event>
<event>
 4    1  0.4962426E-002  0.4544181E+03  0.7818608E-02  0.1026413E+00
         21   -1    0    0  501  502  0.00000000000E+00  0.00000000000E+00  0.57160643900E+03  0.57160643900E+03  0.00000000000E+00 0.  1.
         21   -1    0    0  502  503 -0.00000000000E+00 -0.00000000000E+00 -0.38919462665E+03  0.38919462665E+03  0.00000000000E+00 0.  1.
    9000005    1    1    2  501    0  0.21556431513E+03 -0.52766432801E+01  0.21992072690E+03  0.50483754124E+03  0.40000000000E+03 0.  1.
   -9000005    1    1    2    0  503 -0.21556431513E+03  0.52766432801E+01 -0.37508914550E+02  0.45596352441E+03  0.40000000000E+03 0.  1.
<mgrwt>
<rscale>  2 0.45441811E+03</rscale>
<asrwt>0</asrwt>
<pdfrwt beam="1">  1       21 0.87939453E-01 0.45441811E+03</pdfrwt>
<pdfrwt beam="2">  1       21 0.59876096E-01 0.45441811E+03</pdfrwt>
<totfact> 0.24974668E+03</totfact>
</mgrwt>
</event>
<event>
 4    1  0.4962426E-002  0.5984966E+03  0.7818608E-02  0.9908530E-01
         21   -1    0    0  501  502  0.00000000000E+00  0.00000000000E+00  0.25701730694E+03  0.25701730694E+03  0.00000000000E+00 0. -1.
         21   -1    0    0  502  503 -0.00000000000E+00 -0.00000000000E+00 -0.20885130198E+04  0.20885130198E+04  0.00000000000E+00 0. -1.
    9000005    1    1    2  501    0 -0.18154387295E+03  0.40649725642E+03 -0.23929936237E+03  0.64456371455E+03  0.40000000000E+03 0. -1.
   -9000005    1    1    2    0  503  0.18154387295E+03 -0.40649725642E+03 -0.15921963505E+04  0.17009666122E+04  0.40000000000E+03 0. -1.
<mgrwt>
<rscale>  2 0.59849661E+03</rscale>
<asrwt>0</asrwt>
<pdfrwt beam="1">  1       21 0.39541124E-01 0.59849661E+03</pdfrwt>
<pdfrwt beam="2">  1       21 0.32130970E+00 0.59849661E+03</pdfrwt>
<totfact> 0.11252694E+02</totfact>
</mgrwt>
</event>
<event>
 4    1  0.4962426E-002  0.5221083E+03  0.7818608E-02  0.1008164E+00
         21   -1    0    0  503  502  0.00000000000E+00  0.00000000000E+00  0.48756897811E+03  0.48756897811E+03  0.00000000000E+00 0. -1.
         21   -1    0    0  501  503 -0.00000000000E+00 -0.00000000000E+00 -0.94216312816E+03  0.94216312816E+03  0.00000000000E+00 0. -1.
    9000005    1    1    2  501    0 -0.16166744597E+03 -0.29404211021E+03 -0.68312394798E+03  0.85979965921E+03  0.40000000000E+03 0. -1.
   -9000005    1    1    2    0  502  0.16166744597E+03  0.29404211021E+03  0.22852979793E+03  0.56993244706E+03  0.40000000000E+03 0. -1.
<mgrwt>
<rscale>  2 0.52210835E+03</rscale>
<asrwt>0</asrwt>
<pdfrwt beam="1">  1       21 0.75010612E-01 0.52210835E+03</pdfrwt>
<pdfrwt beam="2">  1       21 0.14494817E+00 0.52210835E+03</pdfrwt>
<totfact> 0.41861024E+02</totfact>
</mgrwt>
</event>
<event>
 4    1  0.4962426E-002  0.4164400E+03  0.7818608E-02  0.1038231E+00
         21   -1    0    0  503  502  0.00000000000E+00  0.00000000000E+00  0.88044391651E+03  0.88044391651E+03  0.00000000000E+00 0.  1.
         21   -1    0    0  501  503 -0.00000000000E+00 -0.00000000000E+00 -0.23698265243E+03  0.23698265243E+03  0.00000000000E+00 0.  1.
    9000005    1    1    2  501    0 -0.76411081282E+02  0.87083939373E+02  0.92157096026E+02  0.42651517697E+03  0.40000000000E+03 0.  1.
   -9000005    1    1    2    0  502  0.76411081282E+02 -0.87083939373E+02  0.55130416805E+03  0.69091139197E+03  0.40000000000E+03 0.  1.
<mgrwt>
<rscale>  2 0.41643999E+03</rscale>
<asrwt>0</asrwt>
<pdfrwt beam="1">  1       21 0.13545291E+00 0.41643999E+03</pdfrwt>
<pdfrwt beam="2">  1       21 0.36458870E-01 0.41643999E+03</pdfrwt>
<totfact> 0.24677955E+03</totfact>
</mgrwt>
</event>
<event>
 4    1  0.4962426E-002  0.5203734E+03  0.7818608E-02  0.1008594E+00
         21   -1    0    0  503  502  0.00000000000E+00  0.00000000000E+00  0.20068689634E+03  0.20068689634E+03  0.00000000000E+00 0. -1.
         21   -1    0    0  501  503 -0.00000000000E+00 -0.00000000000E+00 -0.16000599713E+04  0.16000599713E+04  0.00000000000E+00 0. -1.
    9000005    1    1    2  501    0  0.25778810450E+03  0.21055573347E+03 -0.10561186032E+04  0.11773593027E+04  0.40000000000E+03 0. -1.
   -9000005    1    1    2    0  502 -0.25778810450E+03 -0.21055573347E+03 -0.34325447183E+03  0.62338756497E+03  0.40000000000E+03 0. -1.
<mgrwt>
<rscale>  2 0.52037335E+03</rscale>
<asrwt>0</asrwt>
<pdfrwt beam="1">  1       21 0.30874908E-01 0.52037335E+03</pdfrwt>
<pdfrwt beam="2">  1       21 0.24616307E+00 0.52037335E+03</pdfrwt>
<totfact> 0.55518664E+02</totfact>
</mgrwt>
</event>
<event>
 4    1  0.4962426E-002  0.5484324E+03  0.7818608E-02  0.1001857E+00
         21   -1    0    0  501  502  0.00000000000E+00  0.00000000000E+00  0.23179851503E+03  0.23179851503E+03  0.00000000000E+00 0. -1.
         21   -1    0    0  502  503 -0.00000000000E+00 -0.00000000000E+00 -0.13609656517E+04  0.13609656517E+04  0.00000000000E+00 0.  1.
    9000005    1    1    2  501    0 -0.51063143552E+02 -0.37171312334E+03 -0.73644522331E+03  0.91822091984E+03  0.40000000000E+03 0.  1.
   -9000005    1    1    2    0  503  0.51063143552E+02  0.37171312334E+03 -0.39272191334E+03  0.67454324688E+03  0.40000000000E+03 0. -1.
<mgrwt>
<rscale>  2 0.54843239E+03</rscale>
<asrwt>0</asrwt>
<pdfrwt beam="1">  1       21 0.35661309E-01 0.54843239E+03</pdfrwt>
<pdfrwt beam="2">  1       21 0.20937934E+00 0.54843239E+03</pdfrwt>
<totfact> 0.70387990E+02</totfact>
</mgrwt>
</event>
<event>
 4    1  0.4962426E-002  0.4363207E+03  0.7818608E-02  0.1031882E+00
         21   -1    0    0  501  502  0.00000000000E+00  0.00000000000E+00  0.81246025953E+02  0.81246025953E+02  0.00000000000E+00 0. -1.
         21   -1    0    0  502  503 -0.00000000000E+00 -0.00000000000E+00 -0.23499145565E+04  0.23499145565E+04  0.00000000000E+00 0. -1.
    9000005    1    1    2  501    0  0.13746631189E+03 -0.10713889259E+03 -0.11993098030E+04  0.12762130437E+04  0.40000000000E+03 0. -1.
   -9000005    1    1    2    0  503 -0.13746631189E+03  0.10713889259E+03 -0.10693587275E+04  0.11549475388E+04  0.40000000000E+03 0. -1.
<mgrwt>
<rscale>  2 0.43632067E+03</rscale>
<asrwt>0</asrwt>
<pdfrwt beam="1">  1       21 0.12499389E-01 0.43632067E+03</pdfrwt>
<pdfrwt beam="2">  1       21 0.36152529E+00 0.43632067E+03</pdfrwt>
<totfact> 0.64597359E+02</totfact>
</mgrwt>
</event>
<event>
 4    1  0.4962426E-002  0.4284287E+03  0.7818608E-02  0.1034357E+00
         21   -1    0    0  501  502  0.00000000000E+00  0.00000000000E+00  0.84827770205E+03  0.84827770205E+03  0.00000000000E+00 0.  1.
         21   -1    0    0  502  503 -0.00000000000E+00 -0.00000000000E+00 -0.25705258650E+03  0.25705258650E+03  0.00000000000E+00 0. -1.
    9000005    1    1    2  501    0  0.11404169298E+03 -0.10269208888E+03  0.51544747375E+03  0.67025164756E+03  0.40000000000E+03 0.  1.
   -9000005    1    1    2    0  503 -0.11404169298E+03  0.10269208888E+03  0.75777641797E+02  0.43507864100E+03  0.40000000000E+03 0. -1.
<mgrwt>
<rscale>  2 0.42842873E+03</rscale>
<asrwt>0</asrwt>
<pdfrwt beam="1">  1       21 0.13050426E+00 0.42842873E+03</pdfrwt>
<pdfrwt beam="2">  1       21 0.39546552E-01 0.42842873E+03</pdfrwt>
<totfact> 0.22918561E+03</totfact>
</mgrwt>
</event>
<event>
 4    1  0.4962426E-002  0.4387493E+03  0.7818608E-02  0.1031131E+00
         21   -1    0    0  503  502  0.00000000000E+00  0.00000000000E+00  0.85514800498E+03  0.85514800498E+03  0.00000000000E+00 0. -1.
         21   -1    0    0  501  503 -0.00000000000E+00 -0.00000000000E+00 -0.49726144184E+03  0.49726144184E+03  0.00000000000E+00 0. -1.
    9000005    1    1    2  501    0 -0.16468147730E+03 -0.73355021062E+02 -0.32131288598E+03  0.54382250669E+03  0.40000000000E+03 0. -1.
   -9000005    1    1    2    0  502  0.16468147730E+03  0.73355021062E+02  0.67919944912E+03  0.80858694014E+03  0.40000000000E+03 0. -1.
<mgrwt>
<rscale>  2 0.43874930E+03</rscale>
<asrwt>0</asrwt>
<pdfrwt beam="1">  1       21 0.13156123E+00 0.43874930E+03</pdfrwt>
<pdfrwt beam="2">  1       21 0.76501760E-01 0.43874930E+03</pdfrwt>
<totfact> 0.53631823E+02</totfact>
</mgrwt>
</event>
<event>
 4    1  0.4962426E-002  0.6022530E+03  0.7818608E-02  0.9900743E-01
         21   -1    0    0  501  502  0.00000000000E+00  0.00000000000E+00  0.10290926335E+04  0.10290926335E+04  0.00000000000E+00 0.  1.
         21   -1    0    0  502  503 -0.00000000000E+00 -0.00000000000E+00 -0.43920025414E+03  0.43920025414E+03  0.00000000000E+00 0.  1.
    9000005    1    1    2  501    0  0.45019357682E+03  0.58677155946E+01 -0.31321939639E+02  0.60306695367E+03  0.40000000000E+03 0.  1.
   -9000005    1    1    2    0  503 -0.45019357682E+03 -0.58677155946E+01  0.62121431902E+03  0.86522593399E+03  0.40000000000E+03 0.  1.
<mgrwt>
<rscale>  2 0.60225301E+03</rscale>
<asrwt>0</asrwt>
<pdfrwt beam="1">  1       21 0.15832194E+00 0.60225301E+03</pdfrwt>
<pdfrwt beam="2">  1       21 0.67569270E-01 0.60225301E+03</pdfrwt>
<totfact> 0.40412282E+02</totfact>
</mgrwt>
</event>
<event>
 4    1  0.4962426E-002  0.4295658E+03  0.7818608E-02  0.1033997E+00
         21   -1    0    0  501  502  0.00000000000E+00  0.00000000000E+00  0.73044063283E+03  0.73044063283E+03  0.00000000000E+00 0.  1.
         21   -1    0    0  502  503 -0.00000000000E+00 -0.00000000000E+00 -0.25888000547E+03  0.25888000547E+03  0.00000000000E+00 0.  1.
    9000005    1    1    2  501    0 -0.87983378640E+02 -0.12955948450E+03  0.31267761635E+03  0.53131349193E+03  0.40000000000E+03 0. -1.
   -9000005    1    1    2    0  503  0.87983378640E+02  0.12955948450E+03  0.15888301100E+03  0.45800714637E+03  0.40000000000E+03 0. -1.
<mgrwt>
<rscale>  2 0.42956575E+03</rscale>
<asrwt>0</asrwt>
<pdfrwt beam="1">  1       21 0.11237548E+00 0.42956575E+03</pdfrwt>
<pdfrwt beam="2">  1       21 0.39827693E-01 0.42956575E+03</pdfrwt>
<totfact> 0.33019450E+03</totfact>
</mgrwt>
</event>
<event>
 4    1  0.4962426E-002  0.4209595E+03  0.7818608E-02  0.1036754E+00
         21   -1    0    0  503  502  0.00000000000E+00  0.00000000000E+00  0.24403395932E+03  0.24403395932E+03  0.00000000000E+00 0.  1.
         21   -1    0    0  501  503 -0.00000000000E+00 -0.00000000000E+00 -0.75356538737E+03  0.75356538737E+03  0.00000000000E+00 0.  1.
    9000005    1    1    2  501    0  0.78274896926E+02 -0.10526142908E+03 -0.34989379264E+03  0.54738706056E+03  0.40000000000E+03 0.  1.
   -9000005    1    1    2    0  502 -0.78274896926E+02  0.10526142908E+03 -0.15963763541E+03  0.45021228613E+03  0.40000000000E+03 0.  1.
<mgrwt>
<rscale>  2 0.42095953E+03</rscale>
<asrwt>0</asrwt>
<pdfrwt beam="1">  1       21 0.37543686E-01 0.42095953E+03</pdfrwt>
<pdfrwt beam="2">  1       21 0.11593314E+00 0.42095953E+03</pdfrwt>
<totfact> 0.34588736E+03</totfact>
</mgrwt>
</event>
<event>
 4    1  0.4962426E-002  0.4632049E+03  0.7818608E-02  0.1023856E+00
         21   -1    0    0  503  502  0.00000000000E+00  0.00000000000E+00  0.24455644680E+03  0.24455644680E+03  0.00000000000E+00 0.  1.
         21   -1    0    0  501  503 -0.00000000000E+00 -0.00000000000E+00 -0.10417049756E+04  0.10417049756E+04  0.00000000000E+00 0.  1.
    9000005    1    1    2  501    0 -0.10131236796E+03 -0.21046269617E+03 -0.65404063486E+03  0.80145361340E+03  0.40000000000E+03 0. -1.
   -9000005    1    1    2    0  502  0.10131236796E+03  0.21046269617E+03 -0.14310789395E+03  0.48480780902E+03  0.40000000000E+03 0. -1.
<mgrwt>
<rscale>  2 0.46320486E+03</rscale>
<asrwt>0</asrwt>
<pdfrwt beam="1">  1       21 0.37624069E-01 0.46320486E+03</pdfrwt>
<pdfrwt beam="2">  1       21 0.16026230E+00 0.46320486E+03</pdfrwt>
<totfact> 0.14415796E+03</totfact>
</mgrwt>
</event>
<event>
 4    1  0.4962426E-002  0.4799407E+03  0.7818608E-02  0.1019151E+00
         21   -1    0    0  503  502  0.00000000000E+00  0.00000000000E+00  0.16823438957E+03  0.16823438957E+03  0.00000000000E+00 0.  1.
         21   -1    0    0  501  503 -0.00000000000E+00 -0.00000000000E+00 -0.14395722464E+04  0.14395722464E+04  0.00000000000E+00 0.  1.
    9000005    1    1    2  501    0  0.83231616130E+02  0.25182448169E+03 -0.45790192515E+03  0.66333795652E+03  0.40000000000E+03 0.  1.
   -9000005    1    1    2    0  502 -0.83231616130E+02 -0.25182448169E+03 -0.81343593170E+03  0.94446867946E+03  0.40000000000E+03 0.  1.
<mgrwt>
<rscale>  2 0.47994070E+03</rscale>
<asrwt>0</asrwt>
<pdfrwt beam="1">  1       21 0.25882213E-01 0.47994070E+03</pdfrwt>
<pdfrwt beam="2">  1       21 0.22147266E+00 0.47994070E+03</pdfrwt>
<totfact> 0.11455008E+03</totfact>
</mgrwt>
</event>
<event>
 4    1  0.4962426E-002  0.4767866E+03  0.7818608E-02  0.1020022E+00
         21   -1    0    0  501  502  0.00000000000E+00  0.00000000000E+00  0.67626761065E+03  0.67626761065E+03  0.00000000000E+00 0. -1.
         21   -1    0    0  502  503 -0.00000000000E+00 -0.00000000000E+00 -0.33680028750E+03  0.33680028750E+03  0.00000000000E+00 0. -1.
    9000005    1    1    2  501    0  0.23619363099E+03 -0.10741508884E+03  0.19203974527E+03  0.51400845946E+03  0.40000000000E+03 0. -1.
   -9000005    1    1    2    0  503 -0.23619363099E+03  0.10741508884E+03  0.14742757787E+03  0.49905943869E+03  0.40000000000E+03 0. -1.
<mgrwt>
<rscale>  2 0.47678657E+03</rscale>
<asrwt>0</asrwt>
<pdfrwt beam="1">  1       21 0.10404117E+00 0.47678657E+03</pdfrwt>
<pdfrwt beam="2">  1       21 0.51815429E-01 0.47678657E+03</pdfrwt>
<totfact> 0.22612295E+03</totfact>
</mgrwt>
</event>
<event>
 4    1  0.4962426E-002  0.4956579E+03  0.7818608E-02  0.1014919E+00
         21   -1    0    0  503  502  0.00000000000E+00  0.00000000000E+00  0.29815020608E+04  0.29815020608E+04  0.00000000000E+00 0.  1.
         21   -1    0    0  501  503 -0.00000000000E+00 -0.00000000000E+00 -0.91408881172E+02  0.91408881172E+02  0.00000000000E+00 0.  1.
    9000005    1    1    2  501    0  0.26391209607E+03  0.12659844213E+03  0.19273865082E+04  0.19900993724E+04  0.40000000000E+03 0.  1.
   -9000005    1    1    2    0  502 -0.26391209607E+03 -0.12659844213E+03  0.96270667140E+03  0.10828115696E+04  0.40000000000E+03 0.  1.
<mgrwt>
<rscale>  2 0.49565791E+03</rscale>
<asrwt>0</asrwt>
<pdfrwt beam="1">  1       21 0.45869255E+00 0.49565791E+03</pdfrwt>
<pdfrwt beam="2">  1       21 0.14062907E-01 0.49565791E+03</pdfrwt>
<totfact> 0.11700994E+02</totfact>
</mgrwt>
</event>
<event>
 4    1  0.4962426E-002  0.4103645E+03  0.7818608E-02  0.1040249E+00
         21   -1    0    0  501  502  0.00000000000E+00  0.00000000000E+00  0.23950905542E+04  0.23950905542E+04  0.00000000000E+00 0.  1.
         21   -1    0    0  502  503 -0.00000000000E+00 -0.00000000000E+00 -0.73359433736E+02  0.73359433736E+02  0.00000000000E+00 0.  1.
    9000005    1    1    2  501    0 -0.20105870880E+02 -0.89413391174E+02  0.14125002376E+04  0.14709030974E+04  0.40000000000E+03 0.  1.
   -9000005    1    1    2    0  503  0.20105870880E+02  0.89413391174E+02  0.90923088282E+03  0.99754689055E+03  0.40000000000E+03 0.  1.
<mgrwt>
<rscale>  2 0.41036447E+03</rscale>
<asrwt>0</asrwt>
<pdfrwt beam="1">  1       21 0.36847541E+00 0.41036447E+03</pdfrwt>
<pdfrwt beam="2">  1       21 0.11286069E-01 0.41036447E+03</pdfrwt>
<totfact> 0.71599497E+02</totfact>
</mgrwt>
</event>
<event>
 4    1  0.4962426E-002  0.5597539E+03  0.7818608E-02  0.9992612E-01
         21   -1    0    0  503  502  0.00000000000E+00  0.00000000000E+00  0.92807110494E+03  0.92807110494E+03  0.00000000000E+00 0. -1.
         21   -1    0    0  501  503 -0.00000000000E+00 -0.00000000000E+00 -0.34383324258E+03  0.34383324258E+03  0.00000000000E+00 0. -1.
    9000005    1    1    2  501    0 -0.27061432754E+03  0.28300593749E+03  0.37768851968E+03  0.67525779730E+03  0.40000000000E+03 0. -1.
   -9000005    1    1    2    0  502  0.27061432754E+03 -0.28300593749E+03  0.20654934268E+03  0.59664655022E+03  0.40000000000E+03 0. -1.
<mgrwt>
<rscale>  2 0.55975394E+03</rscale>
<asrwt>0</asrwt>
<pdfrwt beam="1">  1       21 0.14278017E+00 0.55975394E+03</pdfrwt>
<pdfrwt beam="2">  1       21 0.52897422E-01 0.55975394E+03</pdfrwt>
<totfact> 0.93374147E+02</totfact>
</mgrwt>
</event>
<event>
 4    1  0.4962426E-002  0.4126027E+03  0.7818608E-02  0.1039501E+00
         21   -1    0    0  501  502  0.00000000000E+00  0.00000000000E+00  0.51918211540E+03  0.51918211540E+03  0.00000000000E+00 0.  1.
         21   -1    0    0  502  503 -0.00000000000E+00 -0.00000000000E+00 -0.47464656512E+03  0.47464656512E+03  0.00000000000E+00 0. -1.
    9000005    1    1    2  501    0  0.19660251475E+02 -0.99269637623E+02  0.29856529985E+03  0.50929581259E+03  0.40000000000E+03 0.  1.
   -9000005    1    1    2    0  503 -0.19660251475E+02  0.99269637623E+02 -0.25402974957E+03  0.48453286793E+03  0.40000000000E+03 0.  1.
<mgrwt>
<rscale>  2 0.41260270E+03</rscale>
<asrwt>0</asrwt>
<pdfrwt beam="1">  1       21 0.79874172E-01 0.41260270E+03</pdfrwt>
<pdfrwt beam="2">  1       21 0.73022549E-01 0.41260270E+03</pdfrwt>
<totfact> 0.20408106E+03</totfact>
</mgrwt>
</event>
<event>
 4    1  0.4962426E-002  0.4942242E+03  0.7818608E-02  0.1015298E+00
         21   -1    0    0  503  502  0.00000000000E+00  0.00000000000E+00  0.54851162846E+03  0.54851162846E+03  0.00000000000E+00 0.  1.
         21   -1    0    0  501  503 -0.00000000000E+00 -0.00000000000E+00 -0.14845880570E+04  0.14845880570E+04  0.00000000000E+00 0.  1.
    9000005    1    1    2  501    0  0.12819532189E+03  0.26042958343E+03 -0.13185720888E+04  0.14081512567E+04  0.40000000000E+03 0.  1.
   -9000005    1    1    2    0  502 -0.12819532189E+03 -0.26042958343E+03  0.38249566025E+03  0.62494842874E+03  0.40000000000E+03 0.  1.
<mgrwt>
<rscale>  2 0.49422425E+03</rscale>
<asrwt>0</asrwt>
<pdfrwt beam="1">  1       21 0.84386404E-01 0.49422425E+03</pdfrwt>
<pdfrwt beam="2">  1       21 0.22839816E+00 0.49422425E+03</pdfrwt>
<totfact> 0.83646858E+01</totfact>
</mgrwt>
</event>
<event>
 4    1  0.4962426E-002  0.5782218E+03  0.7818608E-02  0.9951648E-01
         21   -1    0    0  503  502  0.00000000000E+00  0.00000000000E+00  0.21196153872E+04  0.21196153872E+04  0.00000000000E+00 0.  1.
         21   -1    0    0  501  503 -0.00000000000E+00 -0.00000000000E+00 -0.22303213536E+03  0.22303213536E+03  0.00000000000E+00 0. -1.
    9000005    1    1    2  501    0 -0.41114603186E+03 -0.72796831781E+02  0.31451569974E+03  0.65822531371E+03  0.40000000000E+03 0. -1.
   -9000005    1    1    2    0  502  0.41114603186E+03  0.72796831781E+02  0.15820675521E+04  0.16844222088E+04  0.40000000000E+03 0.  1.
<mgrwt>
<rscale>  2 0.57822179E+03</rscale>
<asrwt>0</asrwt>
<pdfrwt beam="1">  1       21 0.32609466E+00 0.57822179E+03</pdfrwt>
<pdfrwt beam="2">  1       21 0.34312638E-01 0.57822179E+03</pdfrwt>
<totfact> 0.14206151E+02</totfact>
</mgrwt>
</event>
<event>
 4    1  0.4962426E-002  0.4070144E+03  0.7818608E-02  0.1041378E+00
         21   -1    0    0  501  502  0.00000000000E+00  0.00000000000E+00  0.56449531764E+03  0.56449531764E+03  0.00000000000E+00 0. -1.
         21   -1    0    0  502  503 -0.00000000000E+00 -0.00000000000E+00 -0.31612893190E+03  0.31612893190E+03  0.00000000000E+00 0. -1.
    9000005    1    1    2  501    0 -0.47562705407E+02  0.58296921715E+02  0.24207322300E+03  0.47356117590E+03  0.40000000000E+03 0. -1.
   -9000005    1    1    2    0  503  0.47562705407E+02 -0.58296921715E+02  0.62931627426E+01  0.40706307364E+03  0.40000000000E+03 0. -1.
<mgrwt>
<rscale>  2 0.40701442E+03</rscale>
<asrwt>0</asrwt>
<pdfrwt beam="1">  1       21 0.86845434E-01 0.40701442E+03</pdfrwt>
<pdfrwt beam="2">  1       21 0.48635220E-01 0.40701442E+03</pdfrwt>
<totfact> 0.40935406E+03</totfact>
</mgrwt>
</event>
<event>
 4    1  0.4962426E-002  0.4709222E+03  0.7818608E-02  0.1021660E+00
         21   -1    0    0  501  502  0.00000000000E+00  0.00000000000E+00  0.12705929744E+04  0.12705929744E+04  0.00000000000E+00 0.  1.
         21   -1    0    0  502  503 -0.00000000000E+00 -0.00000000000E+00 -0.20304886293E+03  0.20304886293E+03  0.00000000000E+00 0.  1.
    9000005    1    1    2  501    0 -0.23408623436E+03 -0.83494562441E+02  0.80986871361E+03  0.93683245053E+03  0.40000000000E+03 0.  1.
   -9000005    1    1    2    0  503  0.23408623436E+03  0.83494562441E+02  0.25767539783E+03  0.53680938677E+03  0.40000000000E+03 0.  1.
<mgrwt>
<rscale>  2 0.47092219E+03</rscale>
<asrwt>0</asrwt>
<pdfrwt beam="1">  1       21 0.19547584E+00 0.47092219E+03</pdfrwt>
<pdfrwt beam="2">  1       21 0.31238287E-01 0.47092219E+03</pdfrwt>
<totfact> 0.11745690E+03</totfact>
</mgrwt>
</event>
<event>
 4    1  0.4962426E-002  0.4229553E+03  0.7818608E-02  0.1036109E+00
         21   -1    0    0  503  502  0.00000000000E+00  0.00000000000E+00  0.58150805197E+03  0.58150805197E+03  0.00000000000E+00 0.  1.
         21   -1    0    0  501  503 -0.00000000000E+00 -0.00000000000E+00 -0.43440436270E+03  0.43440436270E+03  0.00000000000E+00 0.  1.
    9000005    1    1    2  501    0  0.51577219789E+02  0.12740098236E+03  0.34795513229E+03  0.54768968768E+03  0.40000000000E+03 0.  1.
   -9000005    1    1    2    0  502 -0.51577219789E+02 -0.12740098236E+03 -0.20085144302E+03  0.46822272699E+03  0.40000000000E+03 0.  1.
<mgrwt>
<rscale>  2 0.42295534E+03</rscale>
<asrwt>0</asrwt>
<pdfrwt beam="1">  1       21 0.89462777E-01 0.42295534E+03</pdfrwt>
<pdfrwt beam="2">  1       21 0.66831440E-01 0.42295534E+03</pdfrwt>
<totfact> 0.19036904E+03</totfact>
</mgrwt>
</event>
<event>
 4    1  0.4962426E-002  0.5459426E+03  0.7818608E-02  0.1002437E+00
         21   -1    0    0  503  502  0.00000000000E+00  0.00000000000E+00  0.13381511054E+04  0.13381511054E+04  0.00000000000E+00 0. -1.
         21   -1    0    0  501  503 -0.00000000000E+00 -0.00000000000E+00 -0.22281852280E+03  0.22281852280E+03  0.00000000000E+00 0.  1.
    9000005    1    1    2  501    0  0.36374757065E+03  0.75769390282E+02  0.54256950467E+03  0.76969796872E+03  0.40000000000E+03 0. -1.
   -9000005    1    1    2    0  502 -0.36374757065E+03 -0.75769390282E+02  0.57276307798E+03  0.79127165952E+03  0.40000000000E+03 0. -1.
<mgrwt>
<rscale>  2 0.54594258E+03</rscale>
<asrwt>0</asrwt>
<pdfrwt beam="1">  1       21 0.20586940E+00 0.54594258E+03</pdfrwt>
<pdfrwt beam="2">  1       21 0.34279774E-01 0.54594258E+03</pdfrwt>
<totfact> 0.80528393E+02</totfact>
</mgrwt>
</event>
<event>
 4    1  0.4962426E-002  0.4695492E+03  0.7818608E-02  0.1022048E+00
         21   -1    0    0  503  502  0.00000000000E+00  0.00000000000E+00  0.73044783882E+03  0.73044783882E+03  0.00000000000E+00 0. -1.
         21   -1    0    0  501  503 -0.00000000000E+00 -0.00000000000E+00 -0.36856027587E+03  0.36856027587E+03  0.00000000000E+00 0. -1.
    9000005    1    1    2  501    0  0.13323780522E+03 -0.20669819982E+03 -0.52861382860E+02  0.47251538001E+03  0.40000000000E+03 0. -1.
   -9000005    1    1    2    0  502 -0.13323780522E+03  0.20669819982E+03  0.41474894582E+03  0.62649273468E+03  0.40000000000E+03 0. -1.
<mgrwt>
<rscale>  2 0.46954921E+03</rscale>
<asrwt>0</asrwt>
<pdfrwt beam="1">  1       21 0.11237659E+00 0.46954921E+03</pdfrwt>
<pdfrwt beam="2">  1       21 0.56701581E-01 0.46954921E+03</pdfrwt>
<totfact> 0.15423716E+03</totfact>
</mgrwt>
</event>
<event>
 4    1  0.4962426E-002  0.4575970E+03  0.7818608E-02  0.1025480E+00
         21   -1    0    0  501  502  0.00000000000E+00  0.00000000000E+00  0.41027756911E+04  0.41027756911E+04  0.00000000000E+00 0.  1.
         21   -1    0    0  502  503 -0.00000000000E+00 -0.00000000000E+00 -0.52201635924E+02  0.52201635924E+02  0.00000000000E+00 0.  1.
    9000005    1    1    2  501    0  0.21442173788E+03  0.58466413056E+02  0.23355408535E+04  0.23799466552E+04  0.40000000000E+03 0.  1.
   -9000005    1    1    2    0  503 -0.21442173788E+03 -0.58466413056E+02  0.17150332016E+04  0.17750306718E+04  0.40000000000E+03 0.  1.
<mgrwt>
<rscale>  2 0.45759699E+03</rscale>
<asrwt>0</asrwt>
<pdfrwt beam="1">  1       21 0.63119601E+00 0.45759699E+03</pdfrwt>
<pdfrwt beam="2">  1       21 0.80310242E-02 0.45759699E+03</pdfrwt>
<totfact> 0.17044147E+01</totfact>
</mgrwt>
</event>
<event>
 4    1  0.4962426E-002  0.5627069E+03  0.7818608E-02  0.9985948E-01
         21   -1    0    0  501  502  0.00000000000E+00  0.00000000000E+00  0.31540593421E+03  0.31540593421E+03  0.00000000000E+00 0.  1.
         21   -1    0    0  502  503 -0.00000000000E+00 -0.00000000000E+00 -0.13266130530E+04  0.13266130530E+04  0.00000000000E+00 0. -1.
    9000005    1    1    2  501    0  0.29018624462E+03  0.26913006824E+03 -0.10067552845E+03  0.57164203154E+03  0.40000000000E+03 0.  1.
   -9000005    1    1    2    0  503 -0.29018624462E+03 -0.26913006824E+03 -0.91053159038E+03  0.10703769557E+04  0.40000000000E+03 0. -1.
<mgrwt>
<rscale>  2 0.56270690E+03</rscale>
<asrwt>0</asrwt>
<pdfrwt beam="1">  1       21 0.48523990E-01 0.56270690E+03</pdfrwt>
<pdfrwt beam="2">  1       21 0.20409431E+00 0.56270690E+03</pdfrwt>
<totfact> 0.39962910E+02</totfact>
</mgrwt>
</event>
<event>
 4    1  0.4962426E-002  0.5292265E+03  0.7818608E-02  0.1006420E+00
         21   -1    0    0  503  502  0.00000000000E+00  0.00000000000E+00  0.24326030176E+03  0.24326030176E+03  0.00000000000E+00 0. -1.
         21   -1    0    0  501  503 -0.00000000000E+00 -0.00000000000E+00 -0.11883554424E+04  0.11883554424E+04  0.00000000000E+00 0. -1.
    9000005    1    1    2  501    0  0.31749261384E+03  0.13884937742E+03 -0.59884213283E+03  0.79918246321E+03  0.40000000000E+03 0. -1.
   -9000005    1    1    2    0  502 -0.31749261384E+03 -0.13884937742E+03 -0.34625300783E+03  0.63243328098E+03  0.40000000000E+03 0. -1.
<mgrwt>
<rscale>  2 0.52922652E+03</rscale>
<asrwt>0</asrwt>
<pdfrwt beam="1">  1       21 0.37424662E-01 0.52922652E+03</pdfrwt>
<pdfrwt beam="2">  1       21 0.18282392E+00 0.52922652E+03</pdfrwt>
<totfact> 0.97314624E+02</totfact>
</mgrwt>
</event>
<event>
 4    1  0.4962426E-002  0.4967128E+03  0.7818608E-02  0.1014641E+00
         21   -1    0    0  501  502  0.00000000000E+00  0.00000000000E+00  0.35056758038E+03  0.35056758038E+03  0.00000000000E+00 0. -1.
         21   -1    0    0  502  503 -0.00000000000E+00 -0.00000000000E+00 -0.17810247179E+04  0.17810247179E+04  0.00000000000E+00 0. -1.
    9000005    1    1    2  501    0  0.23871655798E+03 -0.17244701960E+03  0.11365917331E+03  0.50955076028E+03  0.40000000000E+03 0. -1.
   -9000005    1    1    2    0  503 -0.23871655798E+03  0.17244701960E+03 -0.15441163108E+04  0.16220415380E+04  0.40000000000E+03 0. -1.
<mgrwt>
<rscale>  2 0.49671276E+03</rscale>
<asrwt>0</asrwt>
<pdfrwt beam="1">  1       21 0.53933473E-01 0.49671276E+03</pdfrwt>
<pdfrwt beam="2">  1       21 0.27400381E+00 0.49671276E+03</pdfrwt>
<totfact> 0.11926410E+02</totfact>
</mgrwt>
</event>
<event>
 4    1  0.4962426E-002  0.4328690E+03  0.7818608E-02  0.1032957E+00
         21   -1    0    0  503  502  0.00000000000E+00  0.00000000000E+00  0.68493802241E+03  0.68493802241E+03  0.00000000000E+00 0. -1.
         21   -1    0    0  501  503 -0.00000000000E+00 -0.00000000000E+00 -0.61822456683E+03  0.61822456683E+03  0.00000000000E+00 0. -1.
    9000005    1    1    2  501    0 -0.16500936480E+03 -0.12143187219E+02 -0.45315152147E+03  0.62667523397E+03  0.40000000000E+03 0. -1.
   -9000005    1    1    2    0  502  0.16500936480E+03  0.12143187219E+02  0.51986497705E+03  0.67648735527E+03  0.40000000000E+03 0. -1.
<mgrwt>
<rscale>  2 0.43286897E+03</rscale>
<asrwt>0</asrwt>
<pdfrwt beam="1">  1       21 0.10537508E+00 0.43286897E+03</pdfrwt>
<pdfrwt beam="2">  1       21 0.95111471E-01 0.43286897E+03</pdfrwt>
<totfact> 0.56585067E+02</totfact>
</mgrwt>
</event>
<event>
 4    1  0.4962426E-002  0.1092033E+04  0.7818608E-02  0.9212992E-01
         21   -1    0    0  501  502  0.00000000000E+00  0.00000000000E+00  0.13310933394E+04  0.13310933394E+04  0.00000000000E+00 0.  1.
         21   -1    0    0  502  503 -0.00000000000E+00 -0.00000000000E+00 -0.97156017539E+03  0.97156017539E+03  0.00000000000E+00 0. -1.
    9000005    1    1    2  501    0  0.55190322583E+03  0.85319301910E+03  0.50104241891E+03  0.12014903262E+04  0.40000000000E+03 0.  1.
   -9000005    1    1    2    0  503 -0.55190322583E+03 -0.85319301910E+03 -0.14150925491E+03  0.11011631885E+04  0.40000000000E+03 0. -1.
<mgrwt>
<rscale>  2 0.10920327E+04</rscale>
<asrwt>0</asrwt>
<pdfrwt beam="1">  1       21 0.20478359E+00 0.10920327E+04</pdfrwt>
<pdfrwt beam="2">  1       21 0.14947080E+00 0.10920327E+04</pdfrwt>
<totfact> 0.22589838E+01</totfact>
</mgrwt>
</event>
<event>
 4    1  0.4962426E-002  0.4096906E+03  0.7818608E-02  0.1040475E+00
         21   -1    0    0  503  502  0.00000000000E+00  0.00000000000E+00  0.10925311269E+04  0.10925311269E+04  0.00000000000E+00 0.  1.
         21   -1    0    0  501  503 -0.00000000000E+00 -0.00000000000E+00 -0.15638625656E+03  0.15638625656E+03  0.00000000000E+00 0.  1.
    9000005    1    1    2  501    0 -0.58127891671E+02  0.66839909909E+02  0.38518253464E+03  0.56232731602E+03  0.40000000000E+03 0.  1.
   -9000005    1    1    2    0  502  0.58127891671E+02 -0.66839909909E+02  0.55096233566E+03  0.68659006741E+03  0.40000000000E+03 0.  1.
<mgrwt>
<rscale>  2 0.40969065E+03</rscale>
<asrwt>0</asrwt>
<pdfrwt beam="1">  1       21 0.16808171E+00 0.40969065E+03</pdfrwt>
<pdfrwt beam="2">  1       21 0.24059425E-01 0.40969065E+03</pdfrwt>
<totfact> 0.31344669E+03</totfact>
</mgrwt>
</event>
<event>
 4    1  0.4962426E-002  0.4959153E+03  0.7818608E-02  0.1014851E+00
         21   -1    0    0  503  502  0.00000000000E+00  0.00000000000E+00  0.15929625254E+03  0.15929625254E+03  0.00000000000E+00 0.  1.
         21   -1    0    0  501  503 -0.00000000000E+00 -0.00000000000E+00 -0.31687956102E+04  0.31687956102E+04  0.00000000000E+00 0.  1.
    9000005    1    1    2  501    0 -0.18129660780E+03 -0.23035511435E+03 -0.26963636341E+04  0.27415887340E+04  0.40000000000E+03 0.  1.
   -9000005    1    1    2    0  502  0.18129660780E+03  0.23035511435E+03 -0.31313572352E+03  0.58650312876E+03  0.40000000000E+03 0.  1.
<mgrwt>
<rscale>  2 0.49591525E+03</rscale>
<asrwt>0</asrwt>
<pdfrwt beam="1">  1       21 0.24507117E-01 0.49591525E+03</pdfrwt>
<pdfrwt beam="2">  1       21 0.48750699E+00 0.49591525E+03</pdfrwt>
<totfact> 0.25751319E+01</totfact>
</mgrwt>
</event>
<event>
 4    1  0.4962426E-002  0.6519828E+03  0.7818608E-02  0.9803066E-01
         21   -1    0    0  503  502  0.00000000000E+00  0.00000000000E+00  0.75168442749E+03  0.75168442749E+03  0.00000000000E+00 0. -1.
         21   -1    0    0  501  503 -0.00000000000E+00 -0.00000000000E+00 -0.56811560050E+03  0.56811560050E+03  0.00000000000E+00 0. -1.
    9000005    1    1    2  501    0  0.36011740359E+03 -0.36796327658E+03  0.13651516386E+03  0.66612154089E+03  0.40000000000E+03 0. -1.
   -9000005    1    1    2    0  502 -0.36011740359E+03  0.36796327658E+03  0.47053663139E+02  0.65367848710E+03  0.40000000000E+03 0. -1.
<mgrwt>
<rscale>  2 0.65198276E+03</rscale>
<asrwt>0</asrwt>
<pdfrwt beam="1">  1       21 0.11564376E+00 0.65198276E+03</pdfrwt>
<pdfrwt beam="2">  1       21 0.87402400E-01 0.65198276E+03</pdfrwt>
<totfact> 0.50602861E+02</totfact>
</mgrwt>
</event>
<event>
 4    1  0.4962426E-002  0.7757715E+03  0.7818608E-02  0.9595765E-01
         21   -1    0    0  503  502  0.00000000000E+00  0.00000000000E+00  0.11518830280E+04  0.11518830280E+04  0.00000000000E+00 0. -1.
         21   -1    0    0  501  503 -0.00000000000E+00 -0.00000000000E+00 -0.66175590328E+03  0.66175590328E+03  0.00000000000E+00 0. -1.
    9000005    1    1    2  501    0  0.58179461066E+03 -0.32145983377E+03 -0.17097105858E+03  0.79438812717E+03  0.40000000000E+03 0. -1.
   -9000005    1    1    2    0  502 -0.58179461066E+03  0.32145983377E+03  0.66109818327E+03  0.10192508041E+04  0.40000000000E+03 0. -1.
<mgrwt>
<rscale>  2 0.77577148E+03</rscale>
<asrwt>0</asrwt>
<pdfrwt beam="1">  1       21 0.17721277E+00 0.77577148E+03</pdfrwt>
<pdfrwt beam="2">  1       21 0.10180860E+00 0.77577148E+03</pdfrwt>
<totfact> 0.10518353E+02</totfact>
</mgrwt>
</event>
<event>
 4    1  0.4962426E-002  0.4692114E+03  0.7818608E-02  0.1022143E+00
         21   -1    0    0  503  502  0.00000000000E+00  0.00000000000E+00  0.68028593987E+03  0.68028593987E+03  0.00000000000E+00 0.  1.
         21   -1    0    0  501  503 -0.00000000000E+00 -0.00000000000E+00 -0.37830957869E+03  0.37830957869E+03  0.00000000000E+00 0.  1.
    9000005    1    1    2  501    0 -0.89644954730E+02 -0.22830496266E+03 -0.50244309478E+02  0.47189391236E+03  0.40000000000E+03 0.  1.
   -9000005    1    1    2    0  502  0.89644954730E+02  0.22830496266E+03  0.35222067065E+03  0.58670160620E+03  0.40000000000E+03 0.  1.
<mgrwt>
<rscale>  2 0.46921144E+03</rscale>
<asrwt>0</asrwt>
<pdfrwt beam="1">  1       21 0.10465938E+00 0.46921144E+03</pdfrwt>
<pdfrwt beam="2">  1       21 0.58201474E-01 0.46921144E+03</pdfrwt>
<totfact> 0.17383046E+03</totfact>
</mgrwt>
</event>
<event>
 4    1  0.4962426E-002  0.4974326E+03  0.7818608E-02  0.1014451E+00
         21   -1    0    0  503  502  0.00000000000E+00  0.00000000000E+00  0.43172170137E+03  0.43172170137E+03  0.00000000000E+00 0. -1.
         21   -1    0    0  501  503 -0.00000000000E+00 -0.00000000000E+00 -0.96082206497E+03  0.96082206497E+03  0.00000000000E+00 0.  1.
    9000005    1    1    2  501    0 -0.27396637107E+03 -0.11127265179E+03 -0.70682516548E+03  0.86431533023E+03  0.40000000000E+03 0.  1.
   -9000005    1    1    2    0  502  0.27396637107E+03  0.11127265179E+03  0.17772480188E+03  0.52822843611E+03  0.40000000000E+03 0. -1.
<mgrwt>
<rscale>  2 0.49743258E+03</rscale>
<asrwt>0</asrwt>
<pdfrwt beam="1">  1       21 0.66418724E-01 0.49743258E+03</pdfrwt>
<pdfrwt beam="2">  1       21 0.14781878E+00 0.49743258E+03</pdfrwt>
<totfact> 0.52791824E+02</totfact>
</mgrwt>
</event>
<event>
 4    1  0.4962426E-002  0.4371791E+03  0.7818608E-02  0.1031616E+00
         21   -1    0    0  501  502  0.00000000000E+00  0.00000000000E+00  0.56014607627E+03  0.56014607627E+03  0.00000000000E+00 0.  1.
         21   -1    0    0  502  503 -0.00000000000E+00 -0.00000000000E+00 -0.48116486905E+03  0.48116486905E+03  0.00000000000E+00 0.  1.
    9000005    1    1    2  501    0 -0.13593838897E+03  0.11245594152E+03  0.32029418050E+03  0.54195382316E+03  0.40000000000E+03 0.  1.
   -9000005    1    1    2    0  503  0.13593838897E+03 -0.11245594152E+03 -0.24131297327E+03  0.49935712216E+03  0.40000000000E+03 0.  1.
<mgrwt>
<rscale>  2 0.43717912E+03</rscale>
<asrwt>0</asrwt>
<pdfrwt beam="1">  1       21 0.86176319E-01 0.43717912E+03</pdfrwt>
<pdfrwt beam="2">  1       21 0.74025365E-01 0.43717912E+03</pdfrwt>
<totfact> 0.16421474E+03</totfact>
</mgrwt>
</event>
<event>
 4    1  0.4962426E-002  0.5959226E+03  0.7818608E-02  0.9913902E-01
         21   -1    0    0  503  502  0.00000000000E+00  0.00000000000E+00  0.63982763713E+03  0.63982763713E+03  0.00000000000E+00 0.  1.
         21   -1    0    0  501  503 -0.00000000000E+00 -0.00000000000E+00 -0.56524071057E+03  0.56524071057E+03  0.00000000000E+00 0. -1.
    9000005    1    1    2  501    0  0.21422914987E+03  0.38630247100E+03  0.11827508902E+03  0.60754647924E+03  0.40000000000E+03 0.  1.
   -9000005    1    1    2    0  502 -0.21422914987E+03 -0.38630247100E+03 -0.43688162462E+02  0.59752186846E+03  0.40000000000E+03 0. -1.
<mgrwt>
<rscale>  2 0.59592259E+03</rscale>
<asrwt>0</asrwt>
<pdfrwt beam="1">  1       21 0.98435021E-01 0.59592259E+03</pdfrwt>
<pdfrwt beam="2">  1       21 0.86960109E-01 0.59592259E+03</pdfrwt>
<totfact> 0.77785905E+02</totfact>
</mgrwt>
</event>
<event>
 4    1  0.4962426E-002  0.5594475E+03  0.7818608E-02  0.9993306E-01
         21   -1    0    0  501  502  0.00000000000E+00  0.00000000000E+00  0.60567571241E+03  0.60567571241E+03  0.00000000000E+00 0.  1.
         21   -1    0    0  502  503 -0.00000000000E+00 -0.00000000000E+00 -0.11440367047E+04  0.11440367047E+04  0.00000000000E+00 0.  1.
    9000005    1    1    2  501    0  0.22957371282E+03  0.31666611781E+03  0.37863382281E+03  0.67553319057E+03  0.40000000000E+03 0.  1.
   -9000005    1    1    2    0  503 -0.22957371282E+03 -0.31666611781E+03 -0.91699481510E+03  0.10741792265E+04  0.40000000000E+03 0.  1.
<mgrwt>
<rscale>  2 0.55944751E+03</rscale>
<asrwt>0</asrwt>
<pdfrwt beam="1">  1       21 0.93180879E-01 0.55944751E+03</pdfrwt>
<pdfrwt beam="2">  1       21 0.17600565E+00 0.55944751E+03</pdfrwt>
<totfact> 0.14395172E+02</totfact>
</mgrwt>
</event>
<event>
 4    1  0.4962426E-002  0.4459867E+03  0.7818608E-02  0.1028926E+00
         21   -1    0    0  501  502  0.00000000000E+00  0.00000000000E+00  0.11819255682E+04  0.11819255682E+04  0.00000000000E+00 0.  1.
         21   -1    0    0  502  503 -0.00000000000E+00 -0.00000000000E+00 -0.32035190491E+03  0.32035190491E+03  0.00000000000E+00 0.  1.
    9000005    1    1    2  501    0 -0.25376407349E+02  0.19560211474E+03  0.94829744385E+03  0.10479371123E+04  0.40000000000E+03 0.  1.
   -9000005    1    1    2    0  503  0.25376407349E+02 -0.19560211474E+03 -0.86723780558E+02  0.45434036081E+03  0.40000000000E+03 0.  1.
<mgrwt>
<rscale>  2 0.44598671E+03</rscale>
<asrwt>0</asrwt>
<pdfrwt beam="1">  1       21 0.18183470E+00 0.44598671E+03</pdfrwt>
<pdfrwt beam="2">  1       21 0.49284909E-01 0.44598671E+03</pdfrwt>
<totfact> 0.57707229E+02</totfact>
</mgrwt>
</event>
<event>
 4    1  0.4962426E-002  0.4822225E+03  0.7818608E-02  0.1018526E+00
         21   -1    0    0  501  502  0.00000000000E+00  0.00000000000E+00  0.88696356421E+03  0.88696356421E+03  0.00000000000E+00 0. -1.
         21   -1    0    0  502  503 -0.00000000000E+00 -0.00000000000E+00 -0.50868844270E+03  0.50868844270E+03  0.00000000000E+00 0. -1.
    9000005    1    1    2  501    0  0.15839961026E+03  0.21782579657E+03  0.67492095740E+03  0.82949190046E+03  0.40000000000E+03 0. -1.
   -9000005    1    1    2    0  503 -0.15839961026E+03 -0.21782579657E+03 -0.29664583590E+03  0.56616010645E+03  0.40000000000E+03 0. -1.
<mgrwt>
<rscale>  2 0.48222247E+03</rscale>
<asrwt>0</asrwt>
<pdfrwt beam="1">  1       21 0.13645593E+00 0.48222247E+03</pdfrwt>
<pdfrwt beam="2">  1       21 0.78259761E-01 0.48222247E+03</pdfrwt>
<totfact> 0.45373245E+02</totfact>
</mgrwt>
</event>
<event>
 4    1  0.4962426E-002  0.4582383E+03  0.7818608E-02  0.1025293E+00
         21   -1    0    0  501  502  0.00000000000E+00  0.00000000000E+00  0.22079222933E+03  0.22079222933E+03  0.00000000000E+00 0. -1.
         21   -1    0    0  502  503 -0.00000000000E+00 -0.00000000000E+00 -0.10902799566E+04  0.10902799566E+04  0.00000000000E+00 0.  1.
    9000005    1    1    2  501    0  0.10918678137E+03 -0.19509127222E+03 -0.20047815881E+03  0.50017381967E+03  0.40000000000E+03 0. -1.
   -9000005    1    1    2    0  503 -0.10918678137E+03  0.19509127222E+03 -0.66900956847E+03  0.81089836628E+03  0.40000000000E+03 0.  1.
<mgrwt>
<rscale>  2 0.45823832E+03</rscale>
<asrwt>0</asrwt>
<pdfrwt beam="1">  1       21 0.33968035E-01 0.45823832E+03</pdfrwt>
<pdfrwt beam="2">  1       21 0.16773538E+00 0.45823832E+03</pdfrwt>
<totfact> 0.15637818E+03</totfact>
</mgrwt>
</event>
<event>
 4    1  0.4962426E-002  0.4720932E+03  0.7818608E-02  0.1021331E+00
         21   -1    0    0  503  502  0.00000000000E+00  0.00000000000E+00  0.13804024669E+04  0.13804024669E+04  0.00000000000E+00 0.  1.
         21   -1    0    0  501  503 -0.00000000000E+00 -0.00000000000E+00 -0.18582961834E+03  0.18582961834E+03  0.00000000000E+00 0.  1.
    9000005    1    1    2  501    0  0.14770986534E+03  0.20261737728E+03  0.31366227350E+03  0.56679451983E+03  0.40000000000E+03 0.  1.
   -9000005    1    1    2    0  502 -0.14770986534E+03 -0.20261737728E+03  0.88091057501E+03  0.99943756536E+03  0.40000000000E+03 0.  1.
<mgrwt>
<rscale>  2 0.47209322E+03</rscale>
<asrwt>0</asrwt>
<pdfrwt beam="1">  1       21 0.21236960E+00 0.47209322E+03</pdfrwt>
<pdfrwt beam="2">  1       21 0.28589173E-01 0.47209322E+03</pdfrwt>
<totfact> 0.10821094E+03</totfact>
</mgrwt>
</event>
<event>
 4    1  0.4962426E-002  0.4076827E+03  0.7818608E-02  0.1041151E+00
         21   -1    0    0  501  502  0.00000000000E+00  0.00000000000E+00  0.11169004404E+04  0.11169004404E+04  0.00000000000E+00 0. -1.
         21   -1    0    0  502  503 -0.00000000000E+00 -0.00000000000E+00 -0.29178973344E+03  0.29178973344E+03  0.00000000000E+00 0. -1.
    9000005    1    1    2  501    0 -0.59424999959E+02  0.51709342074E+02  0.90560286547E+03  0.99313732013E+03  0.40000000000E+03 0. -1.
   -9000005    1    1    2    0  503  0.59424999959E+02 -0.51709342074E+02 -0.80492158488E+02  0.41555285375E+03  0.40000000000E+03 0. -1.
<mgrwt>
<rscale>  2 0.40768270E+03</rscale>
<asrwt>0</asrwt>
<pdfrwt beam="1">  1       21 0.17183084E+00 0.40768270E+03</pdfrwt>
<pdfrwt beam="2">  1       21 0.44890729E-01 0.40768270E+03</pdfrwt>
<totfact> 0.84298867E+02</totfact>
</mgrwt>
</event>
<event>
 4    1  0.4962426E-002  0.4625156E+03  0.7818608E-02  0.1024054E+00
         21   -1    0    0  501  502  0.00000000000E+00  0.00000000000E+00  0.26842269386E+03  0.26842269386E+03  0.00000000000E+00 0. -1.
         21   -1    0    0  502  503 -0.00000000000E+00 -0.00000000000E+00 -0.88285745667E+03  0.88285745667E+03  0.00000000000E+00 0. -1.
    9000005    1    1    2  501    0  0.15343925463E+03 -0.17429027095E+03 -0.12765741999E+03  0.47980946248E+03  0.40000000000E+03 0. -1.
   -9000005    1    1    2    0  503 -0.15343925463E+03  0.17429027095E+03 -0.48677734283E+03  0.67147068805E+03  0.40000000000E+03 0. -1.
<mgrwt>
<rscale>  2 0.46251563E+03</rscale>
<asrwt>0</asrwt>
<pdfrwt beam="1">  1       21 0.41295799E-01 0.46251563E+03</pdfrwt>
<pdfrwt beam="2">  1       21 0.13582422E+00 0.46251563E+03</pdfrwt>
<totfact> 0.18636368E+03</totfact>
</mgrwt>
</event>
<event>
 4    1  0.4962426E-002  0.4121360E+03  0.7818608E-02  0.1039657E+00
         21   -1    0    0  503  502  0.00000000000E+00  0.00000000000E+00  0.13602025092E+03  0.13602025092E+03  0.00000000000E+00 0. -1.
         21   -1    0    0  501  503 -0.00000000000E+00 -0.00000000000E+00 -0.14159998862E+04  0.14159998862E+04  0.00000000000E+00 0. -1.
    9000005    1    1    2  501    0 -0.93901816077E+02  0.32226141633E+02 -0.90668253153E+03  0.99595646906E+03  0.40000000000E+03 0. -1.
   -9000005    1    1    2    0  502  0.93901816077E+02 -0.32226141633E+02 -0.37329710374E+03  0.55606366805E+03  0.40000000000E+03 0. -1.
<mgrwt>
<rscale>  2 0.41213599E+03</rscale>
<asrwt>0</asrwt>
<pdfrwt beam="1">  1       21 0.20926192E-01 0.41213599E+03</pdfrwt>
<pdfrwt beam="2">  1       21 0.21784614E+00 0.41213599E+03</pdfrwt>
<totfact> 0.18795354E+03</totfact>
</mgrwt>
</event>
<event>
 4    1  0.4962426E-002  0.6091557E+03  0.7818608E-02  0.9886591E-01
         21   -1    0    0  501  502  0.00000000000E+00  0.00000000000E+00  0.89222895632E+03  0.89222895632E+03  0.00000000000E+00 0. -1.
         21   -1    0    0  502  503 -0.00000000000E+00 -0.00000000000E+00 -0.45696362525E+03  0.45696362525E+03  0.00000000000E+00 0.  1.
    9000005    1    1    2  501    0 -0.45874151287E+03 -0.25037337878E+02  0.41987660064E+03  0.73984255331E+03  0.40000000000E+03 0. -1.
   -9000005    1    1    2    0  503  0.45874151287E+03  0.25037337878E+02  0.15388730428E+02  0.60935002826E+03  0.40000000000E+03 0.  1.
<mgrwt>
<rscale>  2 0.60915568E+03</rscale>
<asrwt>0</asrwt>
<pdfrwt beam="1">  1       21 0.13726599E+00 0.60915568E+03</pdfrwt>
<pdfrwt beam="2">  1       21 0.70302096E-01 0.60915568E+03</pdfrwt>
<totfact> 0.54432513E+02</totfact>
</mgrwt>
</event>
<event>
 4    1  0.4962426E-002  0.7537604E+03  0.7818608E-02  0.9629469E-01
         21   -1    0    0  501  502  0.00000000000E+00  0.00000000000E+00  0.18090808739E+04  0.18090808739E+04  0.00000000000E+00 0.  1.
         21   -1    0    0  502  503 -0.00000000000E+00 -0.00000000000E+00 -0.34214722029E+03  0.34214722029E+03  0.00000000000E+00 0. -1.
    9000005    1    1    2  501    0  0.15333675907E+03 -0.62019560828E+03  0.10416624699E+04  0.12857742630E+04  0.40000000000E+03 0.  1.
   -9000005    1    1    2    0  503 -0.15333675907E+03  0.62019560828E+03  0.42527118369E+03  0.86545383117E+03  0.40000000000E+03 0. -1.
<mgrwt>
<rscale>  2 0.75376041E+03</rscale>
<asrwt>0</asrwt>
<pdfrwt beam="1">  1       21 0.27832013E+00 0.75376041E+03</pdfrwt>
<pdfrwt beam="2">  1       21 0.52638035E-01 0.75376041E+03</pdfrwt>
<totfact> 0.10571178E+02</totfact>
</mgrwt>
</event>
<event>
 4    1  0.4962426E-002  0.5149982E+03  0.7818608E-02  0.1009937E+00
         21   -1    0    0  501  502  0.00000000000E+00  0.00000000000E+00  0.24657268207E+04  0.24657268207E+04  0.00000000000E+00 0. -1.
         21   -1    0    0  502  503 -0.00000000000E+00 -0.00000000000E+00 -0.10769422549E+03  0.10769422549E+03  0.00000000000E+00 0. -1.
    9000005    1    1    2  501    0  0.31472044809E+03  0.78575952764E+02  0.11342516966E+04  0.12456925993E+04  0.40000000000E+03 0.  1.
   -9000005    1    1    2    0  503 -0.31472044809E+03 -0.78575952764E+02  0.12237808986E+04  0.13277284469E+04  0.40000000000E+03 0.  1.
<mgrwt>
<rscale>  2 0.51499819E+03</rscale>
<asrwt>0</asrwt>
<pdfrwt beam="1">  1       21 0.37934255E+00 0.51499819E+03</pdfrwt>
<pdfrwt beam="2">  1       21 0.16568344E-01 0.51499819E+03</pdfrwt>
<totfact> 0.28324984E+02</totfact>
</mgrwt>
</event>
<event>
 4    1  0.4962426E-002  0.4271538E+03  0.7818608E-02  0.1034763E+00
         21   -1    0    0  503  502  0.00000000000E+00  0.00000000000E+00  0.41591550153E+03  0.41591550153E+03  0.00000000000E+00 0. -1.
         21   -1    0    0  501  503 -0.00000000000E+00 -0.00000000000E+00 -0.46826192626E+03  0.46826192626E+03  0.00000000000E+00 0. -1.
    9000005    1    1    2  501    0 -0.92597351952E+02  0.11783916965E+03 -0.13726015088E+03  0.44866545277E+03  0.40000000000E+03 0. -1.
   -9000005    1    1    2    0  502  0.92597351952E+02 -0.11783916965E+03  0.84913726157E+02  0.43551197502E+03  0.40000000000E+03 0. -1.
<mgrwt>
<rscale>  2 0.42715377E+03</rscale>
<asrwt>0</asrwt>
<pdfrwt beam="1">  1       21 0.63987001E-01 0.42715377E+03</pdfrwt>
<pdfrwt beam="2">  1       21 0.72040296E-01 0.42715377E+03</pdfrwt>
<totfact> 0.34525186E+03</totfact>
</mgrwt>
</event>
<event>
 4    1  0.4962426E-002  0.4727361E+03  0.7818608E-02  0.1021151E+00
         21   -1    0    0  501  502  0.00000000000E+00  0.00000000000E+00  0.46086044174E+03  0.46086044174E+03  0.00000000000E+00 0.  1.
         21   -1    0    0  502  503 -0.00000000000E+00 -0.00000000000E+00 -0.52876881678E+03  0.52876881678E+03  0.00000000000E+00 0.  1.
    9000005    1    1    2  501    0 -0.19332970855E+03  0.16156441733E+03  0.10854073407E+03  0.48503662553E+03  0.40000000000E+03 0.  1.
   -9000005    1    1    2    0  503  0.19332970855E+03 -0.16156441733E+03 -0.17644910912E+03  0.50459263299E+03  0.40000000000E+03 0.  1.
<mgrwt>
<rscale>  2 0.47273612E+03</rscale>
<asrwt>0</asrwt>
<pdfrwt beam="1">  1       21 0.70901607E-01 0.47273612E+03</pdfrwt>
<pdfrwt beam="2">  1       21 0.81349048E-01 0.47273612E+03</pdfrwt>
<totfact> 0.20438921E+03</totfact>
</mgrwt>
</event>
<event>
 4    1  0.4962426E-002  0.4296672E+03  0.7818608E-02  0.1033965E+00
         21   -1    0    0  503  502  0.00000000000E+00  0.00000000000E+00  0.56465342109E+03  0.56465342109E+03  0.00000000000E+00 0.  1.
         21   -1    0    0  501  503 -0.00000000000E+00 -0.00000000000E+00 -0.33112134600E+03  0.33112134600E+03  0.00000000000E+00 0.  1.
    9000005    1    1    2  501    0  0.84921977357E+02  0.13191721933E+03  0.16703165590E+03  0.46099183189E+03  0.40000000000E+03 0.  1.
   -9000005    1    1    2    0  502 -0.84921977357E+02 -0.13191721933E+03  0.66500419190E+02  0.43478293521E+03  0.40000000000E+03 0.  1.
<mgrwt>
<rscale>  2 0.42966719E+03</rscale>
<asrwt>0</asrwt>
<pdfrwt beam="1">  1       21 0.86869757E-01 0.42966719E+03</pdfrwt>
<pdfrwt beam="2">  1       21 0.50941746E-01 0.42966719E+03</pdfrwt>
<totfact> 0.36769102E+03</totfact>
</mgrwt>
</event>
<event>
 4    1  0.4962426E-002  0.4040862E+03  0.7818608E-02  0.1042374E+00
         21   -1    0    0  501  502  0.00000000000E+00  0.00000000000E+00  0.64098531109E+03  0.64098531109E+03  0.00000000000E+00 0. -1.
         21   -1    0    0  502  503 -0.00000000000E+00 -0.00000000000E+00 -0.25617317149E+03  0.25617317149E+03  0.00000000000E+00 0. -1.
    9000005    1    1    2  501    0 -0.10838644290E+02 -0.56286681762E+02  0.22593878240E+03  0.46296220164E+03  0.40000000000E+03 0.  1.
   -9000005    1    1    2    0  503  0.10838644290E+02  0.56286681762E+02  0.15887335720E+03  0.43419628094E+03  0.40000000000E+03 0.  1.
<mgrwt>
<rscale>  2 0.40408621E+03</rscale>
<asrwt>0</asrwt>
<pdfrwt beam="1">  1       21 0.98613124E-01 0.40408621E+03</pdfrwt>
<pdfrwt beam="2">  1       21 0.39411257E-01 0.40408621E+03</pdfrwt>
<totfact> 0.46944446E+03</totfact>
</mgrwt>
</event>
<event>
 4    1  0.4962426E-002  0.4613621E+03  0.7818608E-02  0.1024387E+00
         21   -1    0    0  501  502  0.00000000000E+00  0.00000000000E+00  0.55819733283E+03  0.55819733283E+03  0.00000000000E+00 0. -1.
         21   -1    0    0  502  503 -0.00000000000E+00 -0.00000000000E+00 -0.38133161738E+03  0.38133161738E+03  0.00000000000E+00 0. -1.
    9000005    1    1    2  501    0 -0.67701105691E+02  0.21970796522E+03  0.90271850468E+02  0.47011066429E+03  0.40000000000E+03 0. -1.
   -9000005    1    1    2    0  503  0.67701105691E+02 -0.21970796522E+03  0.86593864979E+02  0.46941828591E+03  0.40000000000E+03 0. -1.
<mgrwt>
<rscale>  2 0.46136215E+03</rscale>
<asrwt>0</asrwt>
<pdfrwt beam="1">  1       21 0.85876513E-01 0.46136215E+03</pdfrwt>
<pdfrwt beam="2">  1       21 0.58666402E-01 0.46136215E+03</pdfrwt>
<totfact> 0.27546654E+03</totfact>
</mgrwt>
</event>
<event>
 4    1  0.4962426E-002  0.4051133E+03  0.7818608E-02  0.1042023E+00
         21   -1    0    0  501  502  0.00000000000E+00  0.00000000000E+00  0.59287128667E+03  0.59287128667E+03  0.00000000000E+00 0.  1.
         21   -1    0    0  502  503 -0.00000000000E+00 -0.00000000000E+00 -0.30867246992E+03  0.30867246992E+03  0.00000000000E+00 0.  1.
    9000005    1    1    2  501    0  0.53801144042E+02  0.34960654917E+02  0.28691000379E+03  0.49642135406E+03  0.40000000000E+03 0. -1.
   -9000005    1    1    2    0  503 -0.53801144042E+02 -0.34960654917E+02 -0.27111870441E+01  0.40512240253E+03  0.40000000000E+03 0. -1.
<mgrwt>
<rscale>  2 0.40511333E+03</rscale>
<asrwt>0</asrwt>
<pdfrwt beam="1">  1       21 0.91210967E-01 0.40511333E+03</pdfrwt>
<pdfrwt beam="2">  1       21 0.47488072E-01 0.40511333E+03</pdfrwt>
<totfact> 0.38378950E+03</totfact>
</mgrwt>
</event>
<event>
 4    1  0.4962426E-002  0.4046312E+03  0.7818608E-02  0.1042188E+00
         21   -1    0    0  503  502  0.00000000000E+00  0.00000000000E+00  0.12148120997E+03  0.12148120997E+03  0.00000000000E+00 0. -1.
         21   -1    0    0  501  503 -0.00000000000E+00 -0.00000000000E+00 -0.26008103199E+04  0.26008103199E+04  0.00000000000E+00 0. -1.
    9000005    1    1    2  501    0 -0.36837435011E+02 -0.48676427339E+02 -0.21844564438E+04  0.22216157062E+04  0.40000000000E+03 0. -1.
   -9000005    1    1    2    0  502  0.36837435011E+02  0.48676427339E+02 -0.29487266619E+03  0.50067582372E+03  0.40000000000E+03 0. -1.
<mgrwt>
<rscale>  2 0.40463118E+03</rscale>
<asrwt>0</asrwt>
<pdfrwt beam="1">  1       21 0.18689416E-01 0.40463118E+03</pdfrwt>
<pdfrwt beam="2">  1       21 0.40012468E+00 0.40463118E+03</pdfrwt>
<totfact> 0.17899330E+02</totfact>
</mgrwt>
</event>
<event>
 4    1  0.4962426E-002  0.4211034E+03  0.7818608E-02  0.1036708E+00
         21   -1    0    0  503  502  0.00000000000E+00  0.00000000000E+00  0.57741163090E+03  0.57741163090E+03  0.00000000000E+00 0. -1.
         21   -1    0    0  501  503 -0.00000000000E+00 -0.00000000000E+00 -0.70801635356E+03  0.70801635356E+03  0.00000000000E+00 0. -1.
    9000005    1    1    2  501    0 -0.88800297146E+02 -0.97172838168E+02 -0.54893807219E+03  0.69185335177E+03  0.40000000000E+03 0. -1.
   -9000005    1    1    2    0  502  0.88800297146E+02  0.97172838168E+02  0.41833334953E+03  0.59357463269E+03  0.40000000000E+03 0. -1.
<mgrwt>
<rscale>  2 0.42110338E+03</rscale>
<asrwt>0</asrwt>
<pdfrwt beam="1">  1       21 0.88832559E-01 0.42110338E+03</pdfrwt>
<pdfrwt beam="2">  1       21 0.10892559E+00 0.42110338E+03</pdfrwt>
<totfact> 0.61668572E+02</totfact>
</mgrwt>
</event>
<event>
 4    1  0.4962426E-002  0.4643415E+03  0.7818608E-02  0.1023530E+00
         21   -1    0    0  501  502  0.00000000000E+00  0.00000000000E+00  0.25701651039E+03  0.25701651039E+03  0.00000000000E+00 0.  1.
         21   -1    0    0  502  503 -0.00000000000E+00 -0.00000000000E+00 -0.10166316386E+04  0.10166316386E+04  0.00000000000E+00 0. -1.
    9000005    1    1    2  501    0  0.22559394292E+03 -0.68704879931E+02 -0.11354426909E+03  0.47802226795E+03  0.40000000000E+03 0.  1.
   -9000005    1    1    2    0  503 -0.22559394292E+03  0.68704879931E+02 -0.64607085915E+03  0.79562588109E+03  0.40000000000E+03 0.  1.
<mgrwt>
<rscale>  2 0.46434146E+03</rscale>
<asrwt>0</asrwt>
<pdfrwt beam="1">  1       21 0.39541002E-01 0.46434146E+03</pdfrwt>
<pdfrwt beam="2">  1       21 0.15640486E+00 0.46434146E+03</pdfrwt>
<totfact> 0.13925163E+03</totfact>
</mgrwt>
</event>
<event>
 4    1  0.4962426E-002  0.4161019E+03  0.7818608E-02  0.1038343E+00
         21   -1    0    0  503  502  0.00000000000E+00  0.00000000000E+00  0.23785470792E+03  0.23785470792E+03  0.00000000000E+00 0. -1.
         21   -1    0    0  501  503 -0.00000000000E+00 -0.00000000000E+00 -0.97629890198E+03  0.97629890198E+03  0.00000000000E+00 0. -1.
    9000005    1    1    2  501    0  0.10804201995E+03 -0.38310852398E+02 -0.67542105463E+03  0.79330599426E+03  0.40000000000E+03 0. -1.
   -9000005    1    1    2    0  502 -0.10804201995E+03  0.38310852398E+02 -0.63023139424E+02  0.42084761564E+03  0.40000000000E+03 0. -1.
<mgrwt>
<rscale>  2 0.41610191E+03</rscale>
<asrwt>0</asrwt>
<pdfrwt beam="1">  1       21 0.36593031E-01 0.41610191E+03</pdfrwt>
<pdfrwt beam="2">  1       21 0.15019983E+00 0.41610191E+03</pdfrwt>
<totfact> 0.18594683E+03</totfact>
</mgrwt>
</event>
<event>
 4    1  0.4962426E-002  0.4443735E+03  0.7818608E-02  0.1029413E+00
         21   -1    0    0  503  502  0.00000000000E+00  0.00000000000E+00  0.26892831956E+03  0.26892831956E+03  0.00000000000E+00 0. -1.
         21   -1    0    0  501  503 -0.00000000000E+00 -0.00000000000E+00 -0.10768718834E+04  0.10768718834E+04  0.00000000000E+00 0. -1.
    9000005    1    1    2  501    0  0.43271721966E+02  0.18866736550E+03 -0.78351318565E+03  0.90075564324E+03  0.40000000000E+03 0. -1.
   -9000005    1    1    2    0  502 -0.43271721966E+02 -0.18866736550E+03 -0.24430378139E+02  0.44504455968E+03  0.40000000000E+03 0. -1.
<mgrwt>
<rscale>  2 0.44437351E+03</rscale>
<asrwt>0</asrwt>
<pdfrwt beam="1">  1       21 0.41373587E-01 0.44437351E+03</pdfrwt>
<pdfrwt beam="2">  1       21 0.16567260E+00 0.44437351E+03</pdfrwt>
<totfact> 0.10889327E+03</totfact>
</mgrwt>
</event>
<event>
 4    1  0.4962426E-002  0.4274859E+03  0.7818608E-02  0.1034657E+00
         21   -1    0    0  503  502  0.00000000000E+00  0.00000000000E+00  0.35924344365E+03  0.35924344365E+03  0.00000000000E+00 0.  1.
         21   -1    0    0  501  503 -0.00000000000E+00 -0.00000000000E+00 -0.74892306837E+03  0.74892306837E+03  0.00000000000E+00 0.  1.
    9000005    1    1    2  501    0 -0.14438285475E+03  0.43563913058E+02 -0.50865294611E+03  0.66443362562E+03  0.40000000000E+03 0.  1.
   -9000005    1    1    2    0  502  0.14438285475E+03 -0.43563913058E+02  0.11897332140E+03  0.44373288640E+03  0.40000000000E+03 0.  1.
<mgrwt>
<rscale>  2 0.42748593E+03</rscale>
<asrwt>0</asrwt>
<pdfrwt beam="1">  1       21 0.55268223E-01 0.42748593E+03</pdfrwt>
<pdfrwt beam="2">  1       21 0.11521893E+00 0.42748593E+03</pdfrwt>
<totfact> 0.15574330E+03</totfact>
</mgrwt>
</event>
<event>
 4    1  0.4962426E-002  0.5857494E+03  0.7818608E-02  0.9935421E-01
         21   -1    0    0  501  502  0.00000000000E+00  0.00000000000E+00  0.75687934604E+03  0.75687934604E+03  0.00000000000E+00 0. -1.
         21   -1    0    0  502  503 -0.00000000000E+00 -0.00000000000E+00 -0.56234800352E+03  0.56234800352E+03  0.00000000000E+00 0. -1.
    9000005    1    1    2  501    0  0.26907955207E+03  0.33271399764E+03  0.38771625005E+03  0.70244309387E+03  0.40000000000E+03 0. -1.
   -9000005    1    1    2    0  503 -0.26907955207E+03 -0.33271399764E+03 -0.19318490753E+03  0.61678425569E+03  0.40000000000E+03 0. -1.
<mgrwt>
<rscale>  2 0.58574944E+03</rscale>
<asrwt>0</asrwt>
<pdfrwt beam="1">  1       21 0.11644298E+00 0.58574944E+03</pdfrwt>
<pdfrwt beam="2">  1       21 0.86515077E-01 0.58574944E+03</pdfrwt>
<totfact> 0.52029225E+02</totfact>
</mgrwt>
</event>
<event>
 4    1  0.4962426E-002  0.4634599E+03  0.7818608E-02  0.1023782E+00
         21   -1    0    0  501  502  0.00000000000E+00  0.00000000000E+00  0.19335212147E+03  0.19335212147E+03  0.00000000000E+00 0.  1.
         21   -1    0    0  502  503 -0.00000000000E+00 -0.00000000000E+00 -0.11306820953E+04  0.11306820953E+04  0.00000000000E+00 0.  1.
    9000005    1    1    2  501    0  0.29618852941E+02 -0.23220216894E+03 -0.38110195411E+03  0.60002818528E+03  0.40000000000E+03 0.  1.
   -9000005    1    1    2    0  503 -0.29618852941E+02  0.23220216894E+03 -0.55622801970E+03  0.72400603147E+03  0.40000000000E+03 0.  1.
<mgrwt>
<rscale>  2 0.46345995E+03</rscale>
<asrwt>0</asrwt>
<pdfrwt beam="1">  1       21 0.29746481E-01 0.46345995E+03</pdfrwt>
<pdfrwt beam="2">  1       21 0.17395109E+00 0.46345995E+03</pdfrwt>
<totfact> 0.18343806E+03</totfact>
</mgrwt>
</event>
<event>
 4    1  0.4962426E-002  0.4628871E+03  0.7818608E-02  0.1023947E+00
         21   -1    0    0  501  502  0.00000000000E+00  0.00000000000E+00  0.84835701626E+03  0.84835701626E+03  0.00000000000E+00 0.  1.
         21   -1    0    0  502  503 -0.00000000000E+00 -0.00000000000E+00 -0.27149407607E+03  0.27149407607E+03  0.00000000000E+00 0.  1.
    9000005    1    1    2  501    0 -0.21480029003E+03 -0.90140672048E+02  0.43628286250E+03  0.63608744797E+03  0.40000000000E+03 0.  1.
   -9000005    1    1    2    0  503  0.21480029003E+03  0.90140672048E+02  0.14058007768E+03  0.48376364435E+03  0.40000000000E+03 0.  1.
<mgrwt>
<rscale>  2 0.46288714E+03</rscale>
<asrwt>0</asrwt>
<pdfrwt beam="1">  1       21 0.13051646E+00 0.46288714E+03</pdfrwt>
<pdfrwt beam="2">  1       21 0.41768320E-01 0.46288714E+03</pdfrwt>
<totfact> 0.20195913E+03</totfact>
</mgrwt>
</event>
<event>
 4    1  0.4962426E-002  0.4913891E+03  0.7818608E-02  0.1016051E+00
         21   -1    0    0  503  502  0.00000000000E+00  0.00000000000E+00  0.48315433132E+03  0.48315433132E+03  0.00000000000E+00 0. -1.
         21   -1    0    0  501  503 -0.00000000000E+00 -0.00000000000E+00 -0.62630439407E+03  0.62630439407E+03  0.00000000000E+00 0. -1.
    9000005    1    1    2  501    0  0.57480045908E+02 -0.27956977137E+03  0.17777117343E+03  0.52255698526E+03  0.40000000000E+03 0. -1.
   -9000005    1    1    2    0  502 -0.57480045908E+02  0.27956977137E+03 -0.32092123618E+03  0.58690174013E+03  0.40000000000E+03 0. -1.
<mgrwt>
<rscale>  2 0.49138906E+03</rscale>
<asrwt>0</asrwt>
<pdfrwt beam="1">  1       21 0.74331435E-01 0.49138906E+03</pdfrwt>
<pdfrwt beam="2">  1       21 0.96354522E-01 0.49138906E+03</pdfrwt>
<totfact> 0.12219942E+03</totfact>
</mgrwt>
</event>
<event>
 4    1  0.4962426E-002  0.5077823E+03  0.7818608E-02  0.1011767E+00
         21   -1    0    0  503  502  0.00000000000E+00  0.00000000000E+00  0.13677941409E+03  0.13677941409E+03  0.00000000000E+00 0. -1.
         21   -1    0    0  501  503 -0.00000000000E+00 -0.00000000000E+00 -0.18916939682E+04  0.18916939682E+04  0.00000000000E+00 0.  1.
    9000005    1    1    2  501    0  0.16917552219E+03 -0.26310173789E+03 -0.81757679240E+03  0.96243165641E+03  0.40000000000E+03 0.  1.
   -9000005    1    1    2    0  502 -0.16917552219E+03  0.26310173789E+03 -0.93733776172E+03  0.10660417259E+04  0.40000000000E+03 0. -1.
<mgrwt>
<rscale>  2 0.50778232E+03</rscale>
<asrwt>0</asrwt>
<pdfrwt beam="1">  1       21 0.21042988E-01 0.50778232E+03</pdfrwt>
<pdfrwt beam="2">  1       21 0.29102982E+00 0.50778232E+03</pdfrwt>
<totfact> 0.62913709E+02</totfact>
</mgrwt>
</event>
<event>
 4    1  0.4962426E-002  0.4358753E+03  0.7818608E-02  0.1032020E+00
         21   -1    0    0  501  502  0.00000000000E+00  0.00000000000E+00  0.10234836885E+04  0.10234836885E+04  0.00000000000E+00 0.  1.
         21   -1    0    0  502  503 -0.00000000000E+00 -0.00000000000E+00 -0.32844977681E+03  0.32844977681E+03  0.00000000000E+00 0.  1.
    9000005    1    1    2  501    0 -0.15425774223E+03 -0.78688253467E+02  0.79326347541E+03  0.90512663959E+03  0.40000000000E+03 0. -1.
   -9000005    1    1    2    0  503  0.15425774223E+03  0.78688253467E+02 -0.98229563775E+02  0.44680682568E+03  0.40000000000E+03 0. -1.
<mgrwt>
<rscale>  2 0.43587532E+03</rscale>
<asrwt>0</asrwt>
<pdfrwt beam="1">  1       21 0.15745903E+00 0.43587532E+03</pdfrwt>
<pdfrwt beam="2">  1       21 0.50530735E-01 0.43587532E+03</pdfrwt>
<totfact> 0.82812194E+02</totfact>
</mgrwt>
</event>
<event>
 4    1  0.4962426E-002  0.5385179E+03  0.7818608E-02  0.1004187E+00
         21   -1    0    0  503  502  0.00000000000E+00  0.00000000000E+00  0.17658760416E+04  0.17658760416E+04  0.00000000000E+00 0.  1.
         21   -1    0    0  501  503 -0.00000000000E+00 -0.00000000000E+00 -0.45349299339E+03  0.45349299339E+03  0.00000000000E+00 0. -1.
    9000005    1    1    2  501    0 -0.19068947227E+03  0.30600497366E+03 -0.23007471110E+03  0.58560728430E+03  0.40000000000E+03 0. -1.
   -9000005    1    1    2    0  502  0.19068947227E+03 -0.30600497366E+03  0.15424577593E+04  0.16337617507E+04  0.40000000000E+03 0.  1.
<mgrwt>
<rscale>  2 0.53851789E+03</rscale>
<asrwt>0</asrwt>
<pdfrwt beam="1">  1       21 0.27167323E+00 0.53851789E+03</pdfrwt>
<pdfrwt beam="2">  1       21 0.69768154E-01 0.53851789E+03</pdfrwt>
<totfact> 0.68274591E+01</totfact>
</mgrwt>
</event>
<event>
 4    1  0.4962426E-002  0.4045578E+03  0.7818608E-02  0.1042213E+00
         21   -1    0    0  501  502  0.00000000000E+00  0.00000000000E+00  0.23903354456E+03  0.23903354456E+03  0.00000000000E+00 0.  1.
         21   -1    0    0  502  503 -0.00000000000E+00 -0.00000000000E+00 -0.22151445694E+04  0.22151445694E+04  0.00000000000E+00 0.  1.
    9000005    1    1    2  501    0 -0.23277104514E+02  0.55903220788E+02  0.31905137591E+02  0.40581391240E+03  0.40000000000E+03 0.  1.
   -9000005    1    1    2    0  503  0.23277104514E+02 -0.55903220788E+02 -0.20080161624E+04  0.20483642015E+04  0.40000000000E+03 0.  1.
<mgrwt>
<rscale>  2 0.40455778E+03</rscale>
<asrwt>0</asrwt>
<pdfrwt beam="1">  1       21 0.36774391E-01 0.40455778E+03</pdfrwt>
<pdfrwt beam="2">  1       21 0.34079148E+00 0.40455778E+03</pdfrwt>
<totfact> 0.11151922E+02</totfact>
</mgrwt>
</event>
<event>
 4    1  0.4962426E-002  0.4382640E+03  0.7818608E-02  0.1031281E+00
         21   -1    0    0  503  502  0.00000000000E+00  0.00000000000E+00  0.86136068058E+03  0.86136068058E+03  0.00000000000E+00 0.  1.
         21   -1    0    0  501  503 -0.00000000000E+00 -0.00000000000E+00 -0.39330761003E+03  0.39330761003E+03  0.00000000000E+00 0. -1.
    9000005    1    1    2  501    0  0.60398757336E+02  0.16860392661E+03 -0.17879450566E+03  0.47333156371E+03  0.40000000000E+03 0. -1.
   -9000005    1    1    2    0  502 -0.60398757336E+02 -0.16860392661E+03  0.64684757621E+03  0.78133672690E+03  0.40000000000E+03 0.  1.
<mgrwt>
<rscale>  2 0.43826395E+03</rscale>
<asrwt>0</asrwt>
<pdfrwt beam="1">  1       21 0.13251703E+00 0.43826395E+03</pdfrwt>
<pdfrwt beam="2">  1       21 0.60508863E-01 0.43826395E+03</pdfrwt>
<totfact> 0.89013840E+02</totfact>
</mgrwt>
</event>
<event>
 4    1  0.4962426E-002  0.5105919E+03  0.7818608E-02  0.1011051E+00
         21   -1    0    0  501  502  0.00000000000E+00  0.00000000000E+00  0.36962721492E+03  0.36962721492E+03  0.00000000000E+00 0.  1.
         21   -1    0    0  502  503 -0.00000000000E+00 -0.00000000000E+00 -0.97914538491E+03  0.97914538491E+03  0.00000000000E+00 0. -1.
    9000005    1    1    2  501    0  0.86080376270E+02  0.30544114139E+03  0.51876674973E+02  0.51322052905E+03  0.40000000000E+03 0.  1.
   -9000005    1    1    2    0  503 -0.86080376270E+02 -0.30544114139E+03 -0.66139484496E+03  0.83555207078E+03  0.40000000000E+03 0. -1.
<mgrwt>
<rscale>  2 0.51059193E+03</rscale>
<asrwt>0</asrwt>
<pdfrwt beam="1">  1       21 0.56865726E-01 0.51059193E+03</pdfrwt>
<pdfrwt beam="2">  1       21 0.15063775E+00 0.51059193E+03</pdfrwt>
<totfact> 0.70273865E+02</totfact>
</mgrwt>
</event>
<event>
 4    1  0.4962426E-002  0.4152781E+03  0.7818608E-02  0.1038614E+00
         21   -1    0    0  501  502  0.00000000000E+00  0.00000000000E+00  0.26583969296E+03  0.26583969296E+03  0.00000000000E+00 0.  1.
         21   -1    0    0  502  503 -0.00000000000E+00 -0.00000000000E+00 -0.64875096322E+03  0.64875096322E+03  0.00000000000E+00 0.  1.
    9000005    1    1    2  501    0  0.93874948056E+02  0.60360666778E+02 -0.19453904202E+03  0.45858625670E+03  0.40000000000E+03 0.  1.
   -9000005    1    1    2    0  503 -0.93874948056E+02 -0.60360666778E+02 -0.18837222825E+03  0.45600439948E+03  0.40000000000E+03 0.  1.
<mgrwt>
<rscale>  2 0.41527812E+03</rscale>
<asrwt>0</asrwt>
<pdfrwt beam="1">  1       21 0.40898414E-01 0.41527812E+03</pdfrwt>
<pdfrwt beam="2">  1       21 0.99807841E-01 0.41527812E+03</pdfrwt>
<totfact> 0.42075853E+03</totfact>
</mgrwt>
</event>
<event>
 4    1  0.4962426E-002  0.6044661E+03  0.7818608E-02  0.9896183E-01
         21   -1    0    0  501  502  0.00000000000E+00  0.00000000000E+00  0.14789509584E+04  0.14789509584E+04  0.00000000000E+00 0. -1.
         21   -1    0    0  502  503 -0.00000000000E+00 -0.00000000000E+00 -0.30483444744E+03  0.30483444744E+03  0.00000000000E+00 0. -1.
    9000005    1    1    2  501    0  0.39754908832E+03  0.21756382798E+03  0.97536482000E+03  0.11474823872E+04  0.40000000000E+03 0. -1.
   -9000005    1    1    2    0  503 -0.39754908832E+03 -0.21756382798E+03  0.19875169096E+03  0.63630301864E+03  0.40000000000E+03 0. -1.
<mgrwt>
<rscale>  2 0.60446613E+03</rscale>
<asrwt>0</asrwt>
<pdfrwt beam="1">  1       21 0.22753091E+00 0.60446613E+03</pdfrwt>
<pdfrwt beam="2">  1       21 0.46897608E-01 0.60446613E+03</pdfrwt>
<totfact> 0.29724840E+02</totfact>
</mgrwt>
</event>
<event>
 4    1  0.4962426E-002  0.4380915E+03  0.7818608E-02  0.1031334E+00
         21   -1    0    0  503  502  0.00000000000E+00  0.00000000000E+00  0.10011012666E+04  0.10011012666E+04  0.00000000000E+00 0. -1.
         21   -1    0    0  501  503 -0.00000000000E+00 -0.00000000000E+00 -0.45354797504E+03  0.45354797504E+03  0.00000000000E+00 0. -1.
    9000005    1    1    2  501    0  0.12412815509E+03  0.12851590010E+03 -0.27884831235E+03  0.51930772839E+03  0.40000000000E+03 0. -1.
   -9000005    1    1    2    0  502 -0.12412815509E+03 -0.12851590010E+03  0.82640160396E+03  0.93534151329E+03  0.40000000000E+03 0. -1.
<mgrwt>
<rscale>  2 0.43809147E+03</rscale>
<asrwt>0</asrwt>
<pdfrwt beam="1">  1       21 0.15401558E+00 0.43809147E+03</pdfrwt>
<pdfrwt beam="2">  1       21 0.69776612E-01 0.43809147E+03</pdfrwt>
<totfact> 0.43408164E+02</totfact>
</mgrwt>
</event>
<event>
 4    1  0.4962426E-002  0.4132169E+03  0.7818608E-02  0.1039297E+00
         21   -1    0    0  503  502  0.00000000000E+00  0.00000000000E+00  0.12249526612E+04  0.12249526612E+04  0.00000000000E+00 0. -1.
         21   -1    0    0  501  503 -0.00000000000E+00 -0.00000000000E+00 -0.13970951669E+03  0.13970951669E+03  0.00000000000E+00 0. -1.
    9000005    1    1    2  501    0 -0.55322541752E+02  0.87679144318E+02  0.51007685598E+03  0.65645000951E+03  0.40000000000E+03 0. -1.
   -9000005    1    1    2    0  502  0.55322541752E+02 -0.87679144318E+02  0.57516628848E+03  0.70821216833E+03  0.40000000000E+03 0. -1.
<mgrwt>
<rscale>  2 0.41321691E+03</rscale>
<asrwt>0</asrwt>
<pdfrwt beam="1">  1       21 0.18845425E+00 0.41321691E+03</pdfrwt>
<pdfrwt beam="2">  1       21 0.21493773E-01 0.41321691E+03</pdfrwt>
<totfact> 0.27910490E+03</totfact>
</mgrwt>
</event>
<event>
 4    1  0.4962426E-002  0.4579309E+03  0.7818608E-02  0.1025383E+00
         21   -1    0    0  501  502  0.00000000000E+00  0.00000000000E+00  0.19623978368E+04  0.19623978368E+04  0.00000000000E+00 0. -1.
         21   -1    0    0  502  503 -0.00000000000E+00 -0.00000000000E+00 -0.23242160569E+03  0.23242160569E+03  0.00000000000E+00 0. -1.
    9000005    1    1    2  501    0 -0.21396270149E+03  0.62615168024E+02  0.16715913997E+04  0.17331816132E+04  0.40000000000E+03 0. -1.
   -9000005    1    1    2    0  503  0.21396270149E+03 -0.62615168024E+02  0.58384831443E+02  0.46163782930E+03  0.40000000000E+03 0. -1.
<mgrwt>
<rscale>  2 0.45793089E+03</rscale>
<asrwt>0</asrwt>
<pdfrwt beam="1">  1       21 0.30190735E+00 0.45793089E+03</pdfrwt>
<pdfrwt beam="2">  1       21 0.35757171E-01 0.45793089E+03</pdfrwt>
<totfact> 0.19551030E+02</totfact>
</mgrwt>
</event>
<event>
 4    1  0.4962426E-002  0.4301160E+03  0.7818608E-02  0.1033823E+00
         21   -1    0    0  501  502  0.00000000000E+00  0.00000000000E+00  0.68110206897E+03  0.68110206897E+03  0.00000000000E+00 0.  1.
         21   -1    0    0  502  503 -0.00000000000E+00 -0.00000000000E+00 -0.27290050695E+03  0.27290050695E+03  0.00000000000E+00 0.  1.
    9000005    1    1    2  501    0 -0.85496123129E+02  0.13300451536E+03  0.23679687901E+03  0.49099139513E+03  0.40000000000E+03 0.  1.
   -9000005    1    1    2    0  503  0.85496123129E+02 -0.13300451536E+03  0.17140468301E+03  0.46301118079E+03  0.40000000000E+03 0.  1.
<mgrwt>
<rscale>  2 0.43011602E+03</rscale>
<asrwt>0</asrwt>
<pdfrwt beam="1">  1       21 0.10478493E+00 0.43011602E+03</pdfrwt>
<pdfrwt beam="2">  1       21 0.41984694E-01 0.43011602E+03</pdfrwt>
<totfact> 0.35194572E+03</totfact>
</mgrwt>
</event>
<event>
 4    1  0.4962426E-002  0.4962728E+03  0.7818608E-02  0.1014756E+00
         21   -1    0    0  503  502  0.00000000000E+00  0.00000000000E+00  0.71612336917E+03  0.71612336917E+03  0.00000000000E+00 0. -1.
         21   -1    0    0  501  503 -0.00000000000E+00 -0.00000000000E+00 -0.43050563488E+03  0.43050563488E+03  0.00000000000E+00 0. -1.
    9000005    1    1    2  501    0 -0.24657683500E+03  0.15964516275E+03 -0.11431060003E+03  0.50926773590E+03  0.40000000000E+03 0. -1.
   -9000005    1    1    2    0  502  0.24657683500E+03 -0.15964516275E+03  0.39992833432E+03  0.63736126815E+03  0.40000000000E+03 0. -1.
<mgrwt>
<rscale>  2 0.49627282E+03</rscale>
<asrwt>0</asrwt>
<pdfrwt beam="1">  1       21 0.11017283E+00 0.49627282E+03</pdfrwt>
<pdfrwt beam="2">  1       21 0.66231636E-01 0.49627282E+03</pdfrwt>
<totfact> 0.11392102E+03</totfact>
</mgrwt>
</event>
<event>
 4    1  0.4962426E-002  0.4115899E+03  0.7818608E-02  0.1039839E+00
         21   -1    0    0  503  502  0.00000000000E+00  0.00000000000E+00  0.94576585696E+03  0.94576585696E+03  0.00000000000E+00 0. -1.
         21   -1    0    0  501  503 -0.00000000000E+00 -0.00000000000E+00 -0.40004278896E+03  0.40004278896E+03  0.00000000000E+00 0. -1.
    9000005    1    1    2  501    0  0.91046202426E+02  0.33419251545E+02 -0.22719562610E+03  0.47013201324E+03  0.40000000000E+03 0. -1.
   -9000005    1    1    2    0  502 -0.91046202426E+02 -0.33419251545E+02  0.77291869409E+03  0.87567663268E+03  0.40000000000E+03 0. -1.
<mgrwt>
<rscale>  2 0.41158991E+03</rscale>
<asrwt>0</asrwt>
<pdfrwt beam="1">  1       21 0.14550244E+00 0.41158991E+03</pdfrwt>
<pdfrwt beam="2">  1       21 0.61545045E-01 0.41158991E+03</pdfrwt>
<totfact> 0.67796149E+02</totfact>
</mgrwt>
</event>
<event>
 4    1  0.4962426E-002  0.4349982E+03  0.7818608E-02  0.1032293E+00
         21   -1    0    0  503  502  0.00000000000E+00  0.00000000000E+00  0.37418706052E+03  0.37418706052E+03  0.00000000000E+00 0.  1.
         21   -1    0    0  501  503 -0.00000000000E+00 -0.00000000000E+00 -0.50719056684E+03  0.50719056684E+03  0.00000000000E+00 0.  1.
    9000005    1    1    2  501    0 -0.12810119222E+03 -0.11319696240E+03 -0.42548779834E+02  0.43707421156E+03  0.40000000000E+03 0.  1.
   -9000005    1    1    2    0  502  0.12810119222E+03  0.11319696240E+03 -0.90454726488E+02  0.44430341579E+03  0.40000000000E+03 0.  1.
<mgrwt>
<rscale>  2 0.43499824E+03</rscale>
<asrwt>0</asrwt>
<pdfrwt beam="1">  1       21 0.57567240E-01 0.43499824E+03</pdfrwt>
<pdfrwt beam="2">  1       21 0.78029318E-01 0.43499824E+03</pdfrwt>
<totfact> 0.36192611E+03</totfact>
</mgrwt>
</event>
<event>
 4    1  0.4962426E-002  0.6104910E+03  0.7818608E-02  0.9883877E-01
         21   -1    0    0  501  502  0.00000000000E+00  0.00000000000E+00  0.38821252249E+03  0.38821252249E+03  0.00000000000E+00 0.  1.
         21   -1    0    0  502  503 -0.00000000000E+00 -0.00000000000E+00 -0.96346445108E+03  0.96346445108E+03  0.00000000000E+00 0.  1.
    9000005    1    1    2  501    0  0.43456102792E+03 -0.15445363730E+03 -0.32792323178E+03  0.69298835416E+03  0.40000000000E+03 0.  1.
   -9000005    1    1    2    0  503 -0.43456102792E+03  0.15445363730E+03 -0.24732869681E+03  0.65868861940E+03  0.40000000000E+03 0.  1.
<mgrwt>
<rscale>  2 0.61049096E+03</rscale>
<asrwt>0</asrwt>
<pdfrwt beam="1">  1       21 0.59725004E-01 0.61049096E+03</pdfrwt>
<pdfrwt beam="2">  1       21 0.14822530E+00 0.61049096E+03</pdfrwt>
<totfact> 0.63662241E+02</totfact>
</mgrwt>
</event>
<event>
 4    1  0.4962426E-002  0.4260074E+03  0.7818608E-02  0.1035129E+00
         21   -1    0    0  503  502  0.00000000000E+00  0.00000000000E+00  0.17741467662E+03  0.17741467662E+03  0.00000000000E+00 0.  1.
         21   -1    0    0  501  503 -0.00000000000E+00 -0.00000000000E+00 -0.11426167908E+04  0.11426167908E+04  0.00000000000E+00 0. -1.
    9000005    1    1    2  501    0 -0.83941756904E+02 -0.12015021918E+03 -0.69621629372E+03  0.81621040263E+03  0.40000000000E+03 0. -1.
   -9000005    1    1    2    0  502  0.83941756904E+02  0.12015021918E+03 -0.26898582048E+03  0.50382106480E+03  0.40000000000E+03 0.  1.
<mgrwt>
<rscale>  2 0.42600739E+03</rscale>
<asrwt>0</asrwt>
<pdfrwt beam="1">  1       21 0.27294566E-01 0.42600739E+03</pdfrwt>
<pdfrwt beam="2">  1       21 0.17578719E+00 0.42600739E+03</pdfrwt>
<totfact> 0.21422313E+03</totfact>
</mgrwt>
</event>
<event>
 4    1  0.4962426E-002  0.4143261E+03  0.7818608E-02  0.1038929E+00
         21   -1    0    0  503  502  0.00000000000E+00  0.00000000000E+00  0.21475174300E+04  0.21475174300E+04  0.00000000000E+00 0. -1.
         21   -1    0    0  501  503 -0.00000000000E+00 -0.00000000000E+00 -0.83302174712E+02  0.83302174712E+02  0.00000000000E+00 0. -1.
    9000005    1    1    2  501    0 -0.10777994438E+03 -0.70412475933E+01  0.80792071698E+03  0.90796584765E+03  0.40000000000E+03 0.  1.
   -9000005    1    1    2    0  502  0.10777994438E+03  0.70412475933E+01  0.12562945383E+04  0.13228537570E+04  0.40000000000E+03 0.  1.
<mgrwt>
<rscale>  2 0.41432607E+03</rscale>
<asrwt>0</asrwt>
<pdfrwt beam="1">  1       21 0.33038726E+00 0.41432607E+03</pdfrwt>
<pdfrwt beam="2">  1       21 0.12815721E-01 0.41432607E+03</pdfrwt>
<totfact> 0.96909745E+02</totfact>
</mgrwt>
</event>
<event>
 4    1  0.4962426E-002  0.5015336E+03  0.7818608E-02  0.1013379E+00
         21   -1    0    0  501  502  0.00000000000E+00  0.00000000000E+00  0.67610275436E+03  0.67610275436E+03  0.00000000000E+00 0.  1.
         21   -1    0    0  502  503 -0.00000000000E+00 -0.00000000000E+00 -0.44056304101E+03  0.44056304101E+03  0.00000000000E+00 0.  1.
    9000005    1    1    2  501    0  0.30176282818E+03 -0.21797673929E+02  0.33796803151E+03  0.60477957421E+03  0.40000000000E+03 0.  1.
   -9000005    1    1    2    0  503 -0.30176282818E+03  0.21797673929E+02 -0.10242831816E+03  0.51188622117E+03  0.40000000000E+03 0.  1.
<mgrwt>
<rscale>  2 0.50153359E+03</rscale>
<asrwt>0</asrwt>
<pdfrwt beam="1">  1       21 0.10401581E+00 0.50153359E+03</pdfrwt>
<pdfrwt beam="2">  1       21 0.67778929E-01 0.50153359E+03</pdfrwt>
<totfact> 0.12450350E+03</totfact>
</mgrwt>
</event>
<event>
 4    1  0.4962426E-002  0.4090728E+03  0.7818608E-02  0.1040683E+00
         21   -1    0    0  503  502  0.00000000000E+00  0.00000000000E+00  0.78748198755E+03  0.78748198755E+03  0.00000000000E+00 0.  1.
         21   -1    0    0  501  503 -0.00000000000E+00 -0.00000000000E+00 -0.63651523900E+03  0.63651523900E+03  0.00000000000E+00 0.  1.
    9000005    1    1    2  501    0 -0.79919953589E+02  0.30876214964E+02 -0.50563562706E+03  0.65039059571E+03  0.40000000000E+03 0.  1.
   -9000005    1    1    2    0  502  0.79919953589E+02 -0.30876214964E+02  0.65660237560E+03  0.77360663084E+03  0.40000000000E+03 0.  1.
<mgrwt>
<rscale>  2 0.40907278E+03</rscale>
<asrwt>0</asrwt>
<pdfrwt beam="1">  1       21 0.12115108E+00 0.40907278E+03</pdfrwt>
<pdfrwt beam="2">  1       21 0.97925421E-01 0.40907278E+03</pdfrwt>
<totfact> 0.37693903E+02</totfact>
</mgrwt>
</event>
<event>
 4    1  0.4962426E-002  0.4696505E+03  0.7818608E-02  0.1022019E+00
         21   -1    0    0  503  502  0.00000000000E+00  0.00000000000E+00  0.62989879973E+03  0.62989879973E+03  0.00000000000E+00 0. -1.
         21   -1    0    0  501  503 -0.00000000000E+00 -0.00000000000E+00 -0.35198398740E+03  0.35198398740E+03  0.00000000000E+00 0.  1.
    9000005    1    1    2  501    0  0.24411064097E+03  0.31330715053E+02  0.10371271703E+03  0.48096563954E+03  0.40000000000E+03 0.  1.
   -9000005    1    1    2    0  502 -0.24411064097E+03 -0.31330715053E+02  0.17420209530E+03  0.50091714759E+03  0.40000000000E+03 0. -1.
<mgrwt>
<rscale>  2 0.46965053E+03</rscale>
<asrwt>0</asrwt>
<pdfrwt beam="1">  1       21 0.96907508E-01 0.46965053E+03</pdfrwt>
<pdfrwt beam="2">  1       21 0.54151383E-01 0.46965053E+03</pdfrwt>
<totfact> 0.24516818E+03</totfact>
</mgrwt>
</event>
<event>
 4    1  0.4962426E-002  0.5160317E+03  0.7818608E-02  0.1009677E+00
         21   -1    0    0  503  502  0.00000000000E+00  0.00000000000E+00  0.51484574250E+03  0.51484574250E+03  0.00000000000E+00 0. -1.
         21   -1    0    0  501  503 -0.00000000000E+00 -0.00000000000E+00 -0.52627612671E+03  0.52627612671E+03  0.00000000000E+00 0.  1.
    9000005    1    1    2  501    0 -0.32591840535E+03 -0.81212500150E+01 -0.74000063125E+02  0.52131062812E+03  0.40000000000E+03 0.  1.
   -9000005    1    1    2    0  502  0.32591840535E+03  0.81212500150E+01  0.62569678923E+02  0.51981124109E+03  0.40000000000E+03 0.  1.
<mgrwt>
<rscale>  2 0.51603174E+03</rscale>
<asrwt>0</asrwt>
<pdfrwt beam="1">  1       21 0.79207038E-01 0.51603174E+03</pdfrwt>
<pdfrwt beam="2">  1       21 0.80965558E-01 0.51603174E+03</pdfrwt>
<totfact> 0.15804577E+03</totfact>
</mgrwt>
</event>
<event>
 4    1  0.4962426E-002  0.4050155E+03  0.7818608E-02  0.1042057E+00
         21   -1    0    0  503  502  0.00000000000E+00  0.00000000000E+00  0.11585157519E+04  0.11585157519E+04  0.00000000000E+00 0.  1.
         21   -1    0    0  501  503 -0.00000000000E+00 -0.00000000000E+00 -0.90703681833E+03  0.90703681833E+03  0.00000000000E+00 0.  1.
    9000005    1    1    2  501    0  0.53475575984E+02  0.34320372649E+02 -0.82300773238E+03  0.91726727444E+03  0.40000000000E+03 0.  1.
   -9000005    1    1    2    0  502 -0.53475575984E+02 -0.34320372649E+02  0.10744866659E+04  0.11482852957E+04  0.40000000000E+03 0.  1.
<mgrwt>
<rscale>  2 0.40501546E+03</rscale>
<asrwt>0</asrwt>
<pdfrwt beam="1">  1       21 0.17823319E+00 0.40501546E+03</pdfrwt>
<pdfrwt beam="2">  1       21 0.13954413E+00 0.40501546E+03</pdfrwt>
<totfact> 0.54611656E+01</totfact>
</mgrwt>
</event>
<event>
 4    1  0.4962426E-002  0.4009761E+03  0.7818608E-02  0.1043442E+00
         21   -1    0    0  501  502  0.00000000000E+00  0.00000000000E+00  0.33334192626E+04  0.33334192626E+04  0.00000000000E+00 0.  1.
         21   -1    0    0  502  503 -0.00000000000E+00 -0.00000000000E+00 -0.80109867269E+02  0.80109867269E+02  0.00000000000E+00 0.  1.
    9000005    1    1    2  501    0  0.27934296571E+02  0.12294245917E+01  0.27032843421E+04  0.27328607851E+04  0.40000000000E+03 0.  1.
   -9000005    1    1    2    0  503 -0.27934296571E+02 -0.12294245917E+01  0.55002505323E+03  0.68066834478E+03  0.40000000000E+03 0.  1.
<mgrwt>
<rscale>  2 0.40097610E+03</rscale>
<asrwt>0</asrwt>
<pdfrwt beam="1">  1       21 0.51283363E+00 0.40097610E+03</pdfrwt>
<pdfrwt beam="2">  1       21 0.12324598E-01 0.40097610E+03</pdfrwt>
<totfact> 0.66440702E+01</totfact>
</mgrwt>
</event>
<event>
 4    1  0.4962426E-002  0.5155044E+03  0.7818608E-02  0.1009809E+00
         21   -1    0    0  503  502  0.00000000000E+00  0.00000000000E+00  0.36549200559E+03  0.36549200559E+03  0.00000000000E+00 0.  1.
         21   -1    0    0  501  503 -0.00000000000E+00 -0.00000000000E+00 -0.87271948820E+03  0.87271948820E+03  0.00000000000E+00 0.  1.
    9000005    1    1    2  501    0  0.10807099188E+03 -0.30670090132E+03 -0.50651758184E+03  0.72270660912E+03  0.40000000000E+03 0.  1.
   -9000005    1    1    2    0  502 -0.10807099188E+03  0.30670090132E+03 -0.70990076384E+00  0.51550488467E+03  0.40000000000E+03 0.  1.
<mgrwt>
<rscale>  2 0.51550440E+03</rscale>
<asrwt>0</asrwt>
<pdfrwt beam="1">  1       21 0.56229541E-01 0.51550440E+03</pdfrwt>
<pdfrwt beam="2">  1       21 0.13426453E+00 0.51550440E+03</pdfrwt>
<totfact> 0.97879119E+02</totfact>
</mgrwt>
</event>
<event>
 4    1  0.4962426E-002  0.4463376E+03  0.7818608E-02  0.1028820E+00
         21   -1    0    0  503  502  0.00000000000E+00  0.00000000000E+00  0.84038635698E+03  0.84038635698E+03  0.00000000000E+00 0.  1.
         21   -1    0    0  501  503 -0.00000000000E+00 -0.00000000000E+00 -0.68652761551E+03  0.68652761551E+03  0.00000000000E+00 0.  1.
    9000005    1    1    2  501    0  0.28212538628E+02 -0.19601364292E+03 -0.54081311239E+03  0.70121046632E+03  0.40000000000E+03 0. -1.
   -9000005    1    1    2    0  502 -0.28212538628E+02  0.19601364292E+03  0.69467185387E+03  0.82570350617E+03  0.40000000000E+03 0. -1.
<mgrwt>
<rscale>  2 0.44633765E+03</rscale>
<asrwt>0</asrwt>
<pdfrwt beam="1">  1       21 0.12929021E+00 0.44633765E+03</pdfrwt>
<pdfrwt beam="2">  1       21 0.10561963E+00 0.44633765E+03</pdfrwt>
<totfact> 0.26028607E+02</totfact>
</mgrwt>
</event>
<event>
 4    1  0.4962426E-002  0.4012941E+03  0.7818608E-02  0.1043332E+00
         21   -1    0    0  501  502  0.00000000000E+00  0.00000000000E+00  0.35471579960E+03  0.35471579960E+03  0.00000000000E+00 0. -1.
         21   -1    0    0  502  503 -0.00000000000E+00 -0.00000000000E+00 -0.46558864702E+03  0.46558864702E+03  0.00000000000E+00 0. -1.
    9000005    1    1    2  501    0  0.20518999576E+02 -0.24818505105E+02  0.93032756325E+01  0.40140196621E+03  0.40000000000E+03 0. -1.
   -9000005    1    1    2    0  503 -0.20518999576E+02  0.24818505105E+02 -0.12017612306E+03  0.41890248041E+03  0.40000000000E+03 0. -1.
<mgrwt>
<rscale>  2 0.40129414E+03</rscale>
<asrwt>0</asrwt>
<pdfrwt beam="1">  1       21 0.54571662E-01 0.40129414E+03</pdfrwt>
<pdfrwt beam="2">  1       21 0.71629022E-01 0.40129414E+03</pdfrwt>
<totfact> 0.49968936E+03</totfact>
</mgrwt>
</event>
<event>
 4    1  0.4962426E-002  0.4163757E+03  0.7818608E-02  0.1038252E+00
         21   -1    0    0  503  502  0.00000000000E+00  0.00000000000E+00  0.29124685850E+04  0.29124685850E+04  0.00000000000E+00 0.  1.
         21   -1    0    0  501  503 -0.00000000000E+00 -0.00000000000E+00 -0.84927117719E+02  0.84927117719E+02  0.00000000000E+00 0.  1.
    9000005    1    1    2  501    0  0.24039940657E+02 -0.11309640559E+03  0.22333935611E+04  0.22718748897E+04  0.40000000000E+03 0.  1.
   -9000005    1    1    2    0  502 -0.24039940657E+02  0.11309640559E+03  0.59414790620E+03  0.72552081304E+03  0.40000000000E+03 0.  1.
<mgrwt>
<rscale>  2 0.41637569E+03</rscale>
<asrwt>0</asrwt>
<pdfrwt beam="1">  1       21 0.44807201E+00 0.41637569E+03</pdfrwt>
<pdfrwt beam="2">  1       21 0.13065713E-01 0.41637569E+03</pdfrwt>
<totfact> 0.16712628E+02</totfact>
</mgrwt>
</event>
<event>
 4    1  0.4962426E-002  0.5339198E+03  0.7818608E-02  0.1005286E+00
         21   -1    0    0  501  502  0.00000000000E+00  0.00000000000E+00  0.54186615225E+03  0.54186615225E+03  0.00000000000E+00 0.  1.
         21   -1    0    0  502  503 -0.00000000000E+00 -0.00000000000E+00 -0.56499151503E+03  0.56499151503E+03  0.00000000000E+00 0.  1.
    9000005    1    1    2  501    0 -0.16837837033E+03 -0.31099686305E+03  0.13365666744E+03  0.55039479392E+03  0.40000000000E+03 0.  1.
   -9000005    1    1    2    0  503  0.16837837033E+03  0.31099686305E+03 -0.15678203023E+03  0.55646287336E+03  0.40000000000E+03 0.  1.
<mgrwt>
<rscale>  2 0.53391977E+03</rscale>
<asrwt>0</asrwt>
<pdfrwt beam="1">  1       21 0.83364024E-01 0.53391977E+03</pdfrwt>
<pdfrwt beam="2">  1       21 0.86921771E-01 0.53391977E+03</pdfrwt>
<totfact> 0.11811963E+03</totfact>
</mgrwt>
</event>
<event>
 4    1  0.4962426E-002  0.4048166E+03  0.7818608E-02  0.1042124E+00
         21   -1    0    0  503  502  0.00000000000E+00  0.00000000000E+00  0.68197844582E+03  0.68197844582E+03  0.00000000000E+00 0. -1.
         21   -1    0    0  501  503 -0.00000000000E+00 -0.00000000000E+00 -0.30567641833E+03  0.30567641833E+03  0.00000000000E+00 0. -1.
    9000005    1    1    2  501    0 -0.59850030207E+02 -0.17160210764E+02 -0.40234752631E+02  0.40681117766E+03  0.40000000000E+03 0. -1.
   -9000005    1    1    2    0  502  0.59850030207E+02  0.17160210764E+02  0.41653678012E+03  0.58084368649E+03  0.40000000000E+03 0. -1.
<mgrwt>
<rscale>  2 0.40481662E+03</rscale>
<asrwt>0</asrwt>
<pdfrwt beam="1">  1       21 0.10491976E+00 0.40481662E+03</pdfrwt>
<pdfrwt beam="2">  1       21 0.47027141E-01 0.40481662E+03</pdfrwt>
<totfact> 0.27957775E+03</totfact>
</mgrwt>
</event>
<event>
 4    1  0.4962426E-002  0.4219647E+03  0.7818608E-02  0.1036429E+00
         21   -1    0    0  503  502  0.00000000000E+00  0.00000000000E+00  0.82281279604E+03  0.82281279604E+03  0.00000000000E+00 0. -1.
         21   -1    0    0  501  503 -0.00000000000E+00 -0.00000000000E+00 -0.22798283927E+03  0.22798283927E+03  0.00000000000E+00 0.  1.
    9000005    1    1    2  501    0  0.74667143764E+02  0.11170969130E+03  0.17897439141E+03  0.45835147024E+03  0.40000000000E+03 0.  1.
   -9000005    1    1    2    0  502 -0.74667143764E+02 -0.11170969130E+03  0.41585556536E+03  0.59244416507E+03  0.40000000000E+03 0. -1.
<mgrwt>
<rscale>  2 0.42196473E+03</rscale>
<asrwt>0</asrwt>
<pdfrwt beam="1">  1       21 0.12658658E+00 0.42196473E+03</pdfrwt>
<pdfrwt beam="2">  1       21 0.35074283E-01 0.42196473E+03</pdfrwt>
<totfact> 0.31744614E+03</totfact>
</mgrwt>
</event>
<event>
 4    1  0.4962426E-002  0.5057975E+03  0.7818608E-02  0.1012277E+00
         21   -1    0    0  503  502  0.00000000000E+00  0.00000000000E+00  0.55635984662E+03  0.55635984662E+03  0.00000000000E+00 0.  1.
         21   -1    0    0  501  503 -0.00000000000E+00 -0.00000000000E+00 -0.62261311970E+03  0.62261311970E+03  0.00000000000E+00 0. -1.
    9000005    1    1    2  501    0 -0.21000762084E+03  0.22743768529E+03  0.26829125917E+03  0.57254807767E+03  0.40000000000E+03 0.  1.
   -9000005    1    1    2    0  502  0.21000762084E+03 -0.22743768529E+03 -0.33454453225E+03  0.60642488864E+03  0.40000000000E+03 0. -1.
<mgrwt>
<rscale>  2 0.50579749E+03</rscale>
<asrwt>0</asrwt>
<pdfrwt beam="1">  1       21 0.85593823E-01 0.50579749E+03</pdfrwt>
<pdfrwt beam="2">  1       21 0.95786633E-01 0.50579749E+03</pdfrwt>
<totfact> 0.88946568E+02</totfact>
</mgrwt>
</event>
<event>
 4    1  0.4962426E-002  0.4028674E+03  0.7818608E-02  0.1042791E+00
         21   -1    0    0  501  502  0.00000000000E+00  0.00000000000E+00  0.19566362304E+04  0.19566362304E+04  0.00000000000E+00 0. -1.
         21   -1    0    0  502  503 -0.00000000000E+00 -0.00000000000E+00 -0.14751448203E+03  0.14751448203E+03  0.00000000000E+00 0. -1.
    9000005    1    1    2  501    0 -0.38982534236E+02  0.27972672967E+02  0.16005906906E+04  0.16505128497E+04  0.40000000000E+03 0. -1.
   -9000005    1    1    2    0  503  0.38982534236E+02 -0.27972672967E+02  0.20853105782E+03  0.45363786271E+03  0.40000000000E+03 0. -1.
<mgrwt>
<rscale>  2 0.40286736E+03</rscale>
<asrwt>0</asrwt>
<pdfrwt beam="1">  1       21 0.30102094E+00 0.40286736E+03</pdfrwt>
<pdfrwt beam="2">  1       21 0.22694537E-01 0.40286736E+03</pdfrwt>
<totfact> 0.50238430E+02</totfact>
</mgrwt>
</event>
<event>
 4    1  0.4962426E-002  0.5841334E+03  0.7818608E-02  0.9938882E-01
         21   -1    0    0  501  502  0.00000000000E+00  0.00000000000E+00  0.12941048852E+04  0.12941048852E+04  0.00000000000E+00 0. -1.
         21   -1    0    0  502  503 -0.00000000000E+00 -0.00000000000E+00 -0.31409098783E+03  0.31409098783E+03  0.00000000000E+00 0. -1.
    9000005    1    1    2  501    0 -0.16867367015E+03 -0.39084658424E+03  0.81219006453E+03  0.10004321868E+04  0.40000000000E+03 0. -1.
   -9000005    1    1    2    0  503  0.16867367015E+03  0.39084658424E+03  0.16782383280E+03  0.60776368621E+03  0.40000000000E+03 0. -1.
<mgrwt>
<rscale>  2 0.58413343E+03</rscale>
<asrwt>0</asrwt>
<pdfrwt beam="1">  1       21 0.19909306E+00 0.58413343E+03</pdfrwt>
<pdfrwt beam="2">  1       21 0.48321691E-01 0.58413343E+03</pdfrwt>
<totfact> 0.43197130E+02</totfact>
</mgrwt>
</event>
<event>
 4    1  0.4962426E-002  0.5743619E+03  0.7818608E-02  0.9960072E-01
         21   -1    0    0  501  502  0.00000000000E+00  0.00000000000E+00  0.20811687491E+04  0.20811687491E+04  0.00000000000E+00 0.  1.
         21   -1    0    0  502  503 -0.00000000000E+00 -0.00000000000E+00 -0.26339558785E+03  0.26339558785E+03  0.00000000000E+00 0.  1.
    9000005    1    1    2  501    0 -0.26401695640E+03  0.31652281636E+03  0.16486285520E+04  0.17458143512E+04  0.40000000000E+03 0.  1.
   -9000005    1    1    2    0  503  0.26401695640E+03 -0.31652281636E+03  0.16914460925E+03  0.59874998571E+03  0.40000000000E+03 0.  1.
<mgrwt>
<rscale>  2 0.57436195E+03</rscale>
<asrwt>0</asrwt>
<pdfrwt beam="1">  1       21 0.32017980E+00 0.57436195E+03</pdfrwt>
<pdfrwt beam="2">  1       21 0.40522400E-01 0.57436195E+03</pdfrwt>
<totfact> 0.10997382E+02</totfact>
</mgrwt>
</event>
<event>
 4    1  0.4962426E-002  0.4040294E+03  0.7818608E-02  0.1042393E+00
         21   -1    0    0  501  502  0.00000000000E+00  0.00000000000E+00  0.35793635805E+03  0.35793635805E+03  0.00000000000E+00 0. -1.
         21   -1    0    0  502  503 -0.00000000000E+00 -0.00000000000E+00 -0.17656006633E+04  0.17656006633E+04  0.00000000000E+00 0. -1.
    9000005    1    1    2  501    0 -0.16419245306E+02  0.54499290129E+02  0.21058299973E+03  0.45561492954E+03  0.40000000000E+03 0. -1.
   -9000005    1    1    2    0  503  0.16419245306E+02 -0.54499290129E+02 -0.16182473050E+04  0.16679220918E+04  0.40000000000E+03 0. -1.
<mgrwt>
<rscale>  2 0.40402941E+03</rscale>
<asrwt>0</asrwt>
<pdfrwt beam="1">  1       21 0.55067132E-01 0.40402941E+03</pdfrwt>
<pdfrwt beam="2">  1       21 0.27163087E+00 0.40402941E+03</pdfrwt>
<totfact> 0.12481686E+02</totfact>
</mgrwt>
</event>
<event>
 4    1  0.4962426E-002  0.4529719E+03  0.7818608E-02  0.1026839E+00
         21   -1    0    0  503  502  0.00000000000E+00  0.00000000000E+00  0.78814962194E+03  0.78814962194E+03  0.00000000000E+00 0.  1.
         21   -1    0    0  501  503 -0.00000000000E+00 -0.00000000000E+00 -0.52434086821E+03  0.52434086821E+03  0.00000000000E+00 0. -1.
    9000005    1    1    2  501    0 -0.99521208048E+02  0.18782712948E+03 -0.33375195310E+03  0.56264897371E+03  0.40000000000E+03 0. -1.
   -9000005    1    1    2    0  502  0.99521208048E+02 -0.18782712948E+03  0.59756070684E+03  0.74984151644E+03  0.40000000000E+03 0.  1.
<mgrwt>
<rscale>  2 0.45297185E+03</rscale>
<asrwt>0</asrwt>
<pdfrwt beam="1">  1       21 0.12125379E+00 0.45297185E+03</pdfrwt>
<pdfrwt beam="2">  1       21 0.80667826E-01 0.45297185E+03</pdfrwt>
<totfact> 0.58201285E+02</totfact>
</mgrwt>
</event>
<event>
 4    1  0.4962426E-002  0.7185487E+03  0.7818608E-02  0.9686027E-01
         21   -1    0    0  503  502  0.00000000000E+00  0.00000000000E+00  0.89835762283E+03  0.89835762283E+03  0.00000000000E+00 0. -1.
         21   -1    0    0  501  503 -0.00000000000E+00 -0.00000000000E+00 -0.66856974806E+03  0.66856974806E+03  0.00000000000E+00 0.  1.
    9000005    1    1    2  501    0 -0.55013819506E+03 -0.23164684063E+03  0.40841613260E+03  0.82650833620E+03  0.40000000000E+03 0. -1.
   -9000005    1    1    2    0  502  0.55013819506E+03  0.23164684063E+03 -0.17862825783E+03  0.74041903469E+03  0.40000000000E+03 0.  1.
<mgrwt>
<rscale>  2 0.71854874E+03</rscale>
<asrwt>0</asrwt>
<pdfrwt beam="1">  1       21 0.13820887E+00 0.71854874E+03</pdfrwt>
<pdfrwt beam="2">  1       21 0.10285688E+00 0.71854874E+03</pdfrwt>
<totfact> 0.20992161E+02</totfact>
</mgrwt>
</event>
<event>
 4    1  0.4962426E-002  0.4290443E+03  0.7818608E-02  0.1034162E+00
         21   -1    0    0  501  502  0.00000000000E+00  0.00000000000E+00  0.52368391276E+03  0.52368391276E+03  0.00000000000E+00 0.  1.
         21   -1    0    0  502  503 -0.00000000000E+00 -0.00000000000E+00 -0.36853635221E+03  0.36853635221E+03  0.00000000000E+00 0. -1.
    9000005    1    1    2  501    0 -0.14823639547E+03 -0.45879739403E+02 -0.18320079445E+02  0.42943521600E+03  0.40000000000E+03 0. -1.
   -9000005    1    1    2    0  503  0.14823639547E+03  0.45879739403E+02  0.17346764000E+03  0.46278504898E+03  0.40000000000E+03 0.  1.
<mgrwt>
<rscale>  2 0.42904426E+03</rscale>
<asrwt>0</asrwt>
<pdfrwt beam="1">  1       21 0.80566756E-01 0.42904426E+03</pdfrwt>
<pdfrwt beam="2">  1       21 0.56697900E-01 0.42904426E+03</pdfrwt>
<totfact> 0.34823782E+03</totfact>
</mgrwt>
</event>
<event>
 4    1  0.4962426E-002  0.4805582E+03  0.7818608E-02  0.1018982E+00
         21   -1    0    0  503  502  0.00000000000E+00  0.00000000000E+00  0.89954165048E+03  0.89954165048E+03  0.00000000000E+00 0.  1.
         21   -1    0    0  501  503 -0.00000000000E+00 -0.00000000000E+00 -0.34581218997E+03  0.34581218997E+03  0.00000000000E+00 0.  1.
    9000005    1    1    2  501    0 -0.11394941497E+03 -0.24073166407E+03 -0.39178527122E+02  0.48215263169E+03  0.40000000000E+03 0.  1.
   -9000005    1    1    2    0  502  0.11394941497E+03  0.24073166407E+03  0.59290798763E+03  0.76320120876E+03  0.40000000000E+03 0.  1.
<mgrwt>
<rscale>  2 0.48055822E+03</rscale>
<asrwt>0</asrwt>
<pdfrwt beam="1">  1       21 0.13839102E+00 0.48055822E+03</pdfrwt>
<pdfrwt beam="2">  1       21 0.53201876E-01 0.48055822E+03</pdfrwt>
<totfact> 0.10320148E+03</totfact>
</mgrwt>
</event>
<event>
 4    1  0.4962426E-002  0.5279283E+03  0.7818608E-02  0.1006736E+00
         21   -1    0    0  501  502  0.00000000000E+00  0.00000000000E+00  0.23933485057E+03  0.23933485057E+03  0.00000000000E+00 0. -1.
         21   -1    0    0  502  503 -0.00000000000E+00 -0.00000000000E+00 -0.12140476790E+04  0.12140476790E+04  0.00000000000E+00 0. -1.
    9000005    1    1    2  501    0  0.34428640901E+03 -0.13234395715E+02 -0.63414476238E+03  0.82513505581E+03  0.40000000000E+03 0. -1.
   -9000005    1    1    2    0  503 -0.34428640901E+03  0.13234395715E+02 -0.34056806603E+03  0.62824747374E+03  0.40000000000E+03 0. -1.
<mgrwt>
<rscale>  2 0.52792829E+03</rscale>
<asrwt>0</asrwt>
<pdfrwt beam="1">  1       21 0.36820746E-01 0.52792829E+03</pdfrwt>
<pdfrwt beam="2">  1       21 0.18677657E+00 0.52792829E+03</pdfrwt>
<totfact> 0.94455228E+02</totfact>
</mgrwt>
</event>
<event>
 4    1  0.4962426E-002  0.9510192E+03  0.7818608E-02  0.9363960E-01
         21   -1    0    0  503  502  0.00000000000E+00  0.00000000000E+00  0.22759044990E+04  0.22759044990E+04  0.00000000000E+00 0. -1.
         21   -1    0    0  501  503 -0.00000000000E+00 -0.00000000000E+00 -0.69266551464E+03  0.69266551464E+03  0.00000000000E+00 0.  1.
    9000005    1    1    2  501    0  0.28485613186E+03 -0.81442890896E+03 -0.17747056490E+03  0.96743643978E+03  0.40000000000E+03 0.  1.
   -9000005    1    1    2    0  502 -0.28485613186E+03  0.81442890896E+03  0.17607095492E+04  0.20011335738E+04  0.40000000000E+03 0. -1.
<mgrwt>
<rscale>  2 0.95101917E+03</rscale>
<asrwt>0</asrwt>
<pdfrwt beam="1">  1       21 0.35013915E+00 0.95101917E+03</pdfrwt>
<pdfrwt beam="2">  1       21 0.10656393E+00 0.95101917E+03</pdfrwt>
<totfact> 0.68701044E+00</totfact>
</mgrwt>
</event>
<event>
 4    1  0.4962426E-002  0.4236392E+03  0.7818608E-02  0.1035888E+00
         21   -1    0    0  503  502  0.00000000000E+00  0.00000000000E+00  0.26808382033E+03  0.26808382033E+03  0.00000000000E+00 0. -1.
         21   -1    0    0  501  503 -0.00000000000E+00 -0.00000000000E+00 -0.10921162282E+04  0.10921162282E+04  0.00000000000E+00 0. -1.
    9000005    1    1    2  501    0  0.56957093608E+02  0.12738144591E+03 -0.83510779539E+03  0.93641613250E+03  0.40000000000E+03 0. -1.
   -9000005    1    1    2    0  502 -0.56957093608E+02 -0.12738144591E+03  0.11075387522E+02  0.42378391603E+03  0.40000000000E+03 0. -1.
<mgrwt>
<rscale>  2 0.42363917E+03</rscale>
<asrwt>0</asrwt>
<pdfrwt beam="1">  1       21 0.41243664E-01 0.42363917E+03</pdfrwt>
<pdfrwt beam="2">  1       21 0.16801788E+00 0.42363917E+03</pdfrwt>
<totfact> 0.10632553E+03</totfact>
</mgrwt>
</event>
<event>
 4    1  0.4962426E-002  0.4917100E+03  0.7818608E-02  0.1015966E+00
         21   -1    0    0  501  502  0.00000000000E+00  0.00000000000E+00  0.82402262172E+03  0.82402262172E+03  0.00000000000E+00 0. -1.
         21   -1    0    0  502  503 -0.00000000000E+00 -0.00000000000E+00 -0.61722851839E+03  0.61722851839E+03  0.00000000000E+00 0. -1.
    9000005    1    1    2  501    0 -0.40726778776E+02 -0.28305491554E+03  0.62535517722E+03  0.79551734953E+03  0.40000000000E+03 0. -1.
   -9000005    1    1    2    0  503  0.40726778776E+02  0.28305491554E+03 -0.41856107389E+03  0.64573379058E+03  0.40000000000E+03 0. -1.
<mgrwt>
<rscale>  2 0.49171003E+03</rscale>
<asrwt>0</asrwt>
<pdfrwt beam="1">  1       21 0.12677271E+00 0.49171003E+03</pdfrwt>
<pdfrwt beam="2">  1       21 0.94958233E-01 0.49171003E+03</pdfrwt>
<totfact> 0.34739684E+02</totfact>
</mgrwt>
</event>
<event>
 4    1  0.4962426E-002  0.4136219E+03  0.7818608E-02  0.1039162E+00
         21   -1    0    0  501  502  0.00000000000E+00  0.00000000000E+00  0.49188706471E+03  0.49188706471E+03  0.00000000000E+00 0.  1.
         21   -1    0    0  502  503 -0.00000000000E+00 -0.00000000000E+00 -0.34813123285E+03  0.34813123285E+03  0.00000000000E+00 0.  1.
    9000005    1    1    2  501    0  0.90061962138E+02  0.54515313212E+02  0.59112883720E+02  0.41782461562E+03  0.40000000000E+03 0. -1.
   -9000005    1    1    2    0  503 -0.90061962138E+02 -0.54515313212E+02  0.84642948138E+02  0.42219368194E+03  0.40000000000E+03 0. -1.
<mgrwt>
<rscale>  2 0.41362190E+03</rscale>
<asrwt>0</asrwt>
<pdfrwt beam="1">  1       21 0.75674933E-01 0.41362190E+03</pdfrwt>
<pdfrwt beam="2">  1       21 0.53558651E-01 0.41362190E+03</pdfrwt>
<totfact> 0.45717815E+03</totfact>
</mgrwt>
</event>
<event>
 4    1  0.4962426E-002  0.5253420E+03  0.7818608E-02  0.1007368E+00
         21   -1    0    0  503  502  0.00000000000E+00  0.00000000000E+00  0.16049409583E+03  0.16049409583E+03  0.00000000000E+00 0. -1.
         21   -1    0    0  501  503 -0.00000000000E+00 -0.00000000000E+00 -0.19859507709E+04  0.19859507709E+04  0.00000000000E+00 0.  1.
    9000005    1    1    2  501    0  0.30307523861E+02 -0.33921323962E+03 -0.51968540098E+03  0.73895675376E+03  0.40000000000E+03 0. -1.
   -9000005    1    1    2    0  502 -0.30307523861E+02  0.33921323962E+03 -0.13057712741E+04  0.14074881130E+04  0.40000000000E+03 0.  1.
<mgrwt>
<rscale>  2 0.52534195E+03</rscale>
<asrwt>0</asrwt>
<pdfrwt beam="1">  1       21 0.24691399E-01 0.52534195E+03</pdfrwt>
<pdfrwt beam="2">  1       21 0.30553090E+00 0.52534195E+03</pdfrwt>
<totfact> 0.37419026E+02</totfact>
</mgrwt>
</event>
<event>
 4    1  0.4962426E-002  0.6481125E+03  0.7818608E-02  0.9810327E-01
         21   -1    0    0  503  502  0.00000000000E+00  0.00000000000E+00  0.60592985013E+03  0.60592985013E+03  0.00000000000E+00 0.  1.
         21   -1    0    0  501  503 -0.00000000000E+00 -0.00000000000E+00 -0.69334673815E+03  0.69334673815E+03  0.00000000000E+00 0.  1.
    9000005    1    1    2  501    0 -0.50946169332E+03  0.22329165456E+02 -0.52074649258E+02  0.65020118247E+03  0.40000000000E+03 0.  1.
   -9000005    1    1    2    0  502  0.50946169332E+03 -0.22329165456E+02 -0.35342238767E+02  0.64907540581E+03  0.40000000000E+03 0.  1.
<mgrwt>
<rscale>  2 0.64811250E+03</rscale>
<asrwt>0</asrwt>
<pdfrwt beam="1">  1       21 0.93219977E-01 0.64811250E+03</pdfrwt>
<pdfrwt beam="2">  1       21 0.10666873E+00 0.64811250E+03</pdfrwt>
<totfact> 0.53189098E+02</totfact>
</mgrwt>
</event>
<event>
 4    1  0.4962426E-002  0.4257943E+03  0.7818608E-02  0.1035197E+00
         21   -1    0    0  501  502  0.00000000000E+00  0.00000000000E+00  0.16587074822E+04  0.16587074822E+04  0.00000000000E+00 0. -1.
         21   -1    0    0  502  503 -0.00000000000E+00 -0.00000000000E+00 -0.16001671861E+03  0.16001671861E+03  0.00000000000E+00 0.  1.
    9000005    1    1    2  501    0  0.93063939025E+02  0.11242735832E+03  0.12612855561E+04  0.13312182622E+04  0.40000000000E+03 0. -1.
   -9000005    1    1    2    0  503 -0.93063939025E+02 -0.11242735832E+03  0.23740520754E+03  0.48750593865E+03  0.40000000000E+03 0.  1.
<mgrwt>
<rscale>  2 0.42579433E+03</rscale>
<asrwt>0</asrwt>
<pdfrwt beam="1">  1       21 0.25518575E+00 0.42579433E+03</pdfrwt>
<pdfrwt beam="2">  1       21 0.24617958E-01 0.42579433E+03</pdfrwt>
<totfact> 0.79946395E+02</totfact>
</mgrwt>
</event>
<event>
 4    1  0.4962426E-002  0.4023820E+03  0.7818608E-02  0.1042958E+00
         21   -1    0    0  501  502  0.00000000000E+00  0.00000000000E+00  0.32833323606E+03  0.32833323606E+03  0.00000000000E+00 0. -1.
         21   -1    0    0  502  503 -0.00000000000E+00 -0.00000000000E+00 -0.50791548437E+03  0.50791548437E+03  0.00000000000E+00 0. -1.
    9000005    1    1    2  501    0 -0.40042642054E+02  0.17545968134E+02 -0.18454285819E+02  0.40280495881E+03  0.40000000000E+03 0.  1.
   -9000005    1    1    2    0  503  0.40042642054E+02 -0.17545968134E+02 -0.16112796250E+03  0.43344376161E+03  0.40000000000E+03 0.  1.
<mgrwt>
<rscale>  2 0.40238200E+03</rscale>
<asrwt>0</asrwt>
<pdfrwt beam="1">  1       21 0.50512806E-01 0.40238200E+03</pdfrwt>
<pdfrwt beam="2">  1       21 0.78140844E-01 0.40238200E+03</pdfrwt>
<totfact> 0.48343982E+03</totfact>
</mgrwt>
</event>
<event>
 4    1  0.4962426E-002  0.4336625E+03  0.7818608E-02  0.1032709E+00
         21   -1    0    0  503  502  0.00000000000E+00  0.00000000000E+00  0.72283557575E+03  0.72283557575E+03  0.00000000000E+00 0. -1.
         21   -1    0    0  501  503 -0.00000000000E+00 -0.00000000000E+00 -0.27309289643E+03  0.27309289643E+03  0.00000000000E+00 0. -1.
    9000005    1    1    2  501    0  0.16730142232E+03 -0.85664304530E+01  0.11656528988E+03  0.44905524877E+03  0.40000000000E+03 0. -1.
   -9000005    1    1    2    0  502 -0.16730142232E+03  0.85664304530E+01  0.33317738944E+03  0.54687322341E+03  0.40000000000E+03 0. -1.
<mgrwt>
<rscale>  2 0.43366248E+03</rscale>
<asrwt>0</asrwt>
<pdfrwt beam="1">  1       21 0.11120547E+00 0.43366248E+03</pdfrwt>
<pdfrwt beam="2">  1       21 0.42014292E-01 0.43366248E+03</pdfrwt>
<totfact> 0.30301487E+03</totfact>
</mgrwt>
</event>
<event>
 4    1  0.4962426E-002  0.6470074E+03  0.7818608E-02  0.9812411E-01
         21   -1    0    0  501  502  0.00000000000E+00  0.00000000000E+00  0.10045932413E+04  0.10045932413E+04  0.00000000000E+00 0.  1.
         21   -1    0    0  502  503 -0.00000000000E+00 -0.00000000000E+00 -0.43653002875E+03  0.43653002875E+03  0.00000000000E+00 0.  1.
    9000005    1    1    2  501    0 -0.49837298791E+03  0.10120773048E+03  0.43759058091E+03  0.78109164398E+03  0.40000000000E+03 0.  1.
   -9000005    1    1    2    0  503  0.49837298791E+03 -0.10120773048E+03  0.13047263161E+03  0.66003162605E+03  0.40000000000E+03 0.  1.
<mgrwt>
<rscale>  2 0.64700745E+03</rscale>
<asrwt>0</asrwt>
<pdfrwt beam="1">  1       21 0.15455281E+00 0.64700745E+03</pdfrwt>
<pdfrwt beam="2">  1       21 0.67158466E-01 0.64700745E+03</pdfrwt>
<totfact> 0.43183680E+02</totfact>
</mgrwt>
</event>
<event>
 4    1  0.4962426E-002  0.4409779E+03  0.7818608E-02  0.1030447E+00
         21   -1    0    0  501  502  0.00000000000E+00  0.00000000000E+00  0.20649401432E+04  0.20649401432E+04  0.00000000000E+00 0.  1.
         21   -1    0    0  502  503 -0.00000000000E+00 -0.00000000000E+00 -0.98706372525E+02  0.98706372525E+02  0.00000000000E+00 0.  1.
    9000005    1    1    2  501    0  0.13405872960E+03 -0.12841265030E+03  0.12149608152E+04  0.12925135722E+04  0.40000000000E+03 0.  1.
   -9000005    1    1    2    0  503 -0.13405872960E+03  0.12841265030E+03  0.75127295544E+03  0.87113294354E+03  0.40000000000E+03 0.  1.
<mgrwt>
<rscale>  2 0.44097795E+03</rscale>
<asrwt>0</asrwt>
<pdfrwt beam="1">  1       21 0.31768307E+00 0.44097795E+03</pdfrwt>
<pdfrwt beam="2">  1       21 0.15185597E-01 0.44097795E+03</pdfrwt>
<totfact> 0.83267084E+02</totfact>
</mgrwt>
</event>
<event>
 4    1  0.4962426E-002  0.4350532E+03  0.7818608E-02  0.1032275E+00
         21   -1    0    0  501  502  0.00000000000E+00  0.00000000000E+00  0.79025275597E+03  0.79025275597E+03  0.00000000000E+00 0. -1.
         21   -1    0    0  502  503 -0.00000000000E+00 -0.00000000000E+00 -0.24769279120E+03  0.24769279120E+03  0.00000000000E+00 0. -1.
    9000005    1    1    2  501    0  0.15464446090E+03 -0.73187071833E+02  0.36562345243E+03  0.56828845294E+03  0.40000000000E+03 0. -1.
   -9000005    1    1    2    0  503 -0.15464446090E+03  0.73187071833E+02  0.17693651234E+03  0.46965709424E+03  0.40000000000E+03 0. -1.
<mgrwt>
<rscale>  2 0.43505317E+03</rscale>
<asrwt>0</asrwt>
<pdfrwt beam="1">  1       21 0.12157735E+00 0.43505317E+03</pdfrwt>
<pdfrwt beam="2">  1       21 0.38106584E-01 0.43505317E+03</pdfrwt>
<totfact> 0.29597345E+03</totfact>
</mgrwt>
</event>
<event>
 4    1  0.4962426E-002  0.4726965E+03  0.7818608E-02  0.1021162E+00
         21   -1    0    0  501  502  0.00000000000E+00  0.00000000000E+00  0.20212230862E+03  0.20212230862E+03  0.00000000000E+00 0. -1.
         21   -1    0    0  502  503 -0.00000000000E+00 -0.00000000000E+00 -0.13695986881E+04  0.13695986881E+04  0.00000000000E+00 0. -1.
    9000005    1    1    2  501    0 -0.62896315798E+02  0.24389764831E+03 -0.23863496970E+03  0.52951738230E+03  0.40000000000E+03 0. -1.
   -9000005    1    1    2    0  503  0.62896315798E+02 -0.24389764831E+03 -0.92884140979E+03  0.10422036144E+04  0.40000000000E+03 0. -1.
<mgrwt>
<rscale>  2 0.47269653E+03</rscale>
<asrwt>0</asrwt>
<pdfrwt beam="1">  1       21 0.31095741E-01 0.47269653E+03</pdfrwt>
<pdfrwt beam="2">  1       21 0.21070748E+00 0.47269653E+03</pdfrwt>
<totfact> 0.93851860E+02</totfact>
</mgrwt>
</event>
<event>
 4    1  0.4962426E-002  0.4080362E+03  0.7818608E-02  0.1041032E+00
         21   -1    0    0  501  502  0.00000000000E+00  0.00000000000E+00  0.13969237275E+04  0.13969237275E+04  0.00000000000E+00 0.  1.
         21   -1    0    0  502  503 -0.00000000000E+00 -0.00000000000E+00 -0.31540565879E+03  0.31540565879E+03  0.00000000000E+00 0. -1.
    9000005    1    1    2  501    0 -0.33072047282E+02 -0.73483137315E+02  0.12160547679E+04  0.12826857489E+04  0.40000000000E+03 0.  1.
   -9000005    1    1    2    0  503  0.33072047282E+02  0.73483137315E+02 -0.13453669917E+03  0.42964363745E+03  0.40000000000E+03 0. -1.
<mgrwt>
<rscale>  2 0.40803619E+03</rscale>
<asrwt>0</asrwt>
<pdfrwt beam="1">  1       21 0.21491134E+00 0.40803619E+03</pdfrwt>
<pdfrwt beam="2">  1       21 0.48523949E-01 0.40803619E+03</pdfrwt>
<totfact> 0.36539385E+02</totfact>
</mgrwt>
</event>
<event>
 4    1  0.4962426E-002  0.5420602E+03  0.7818608E-02  0.1003349E+00
         21   -1    0    0  503  502  0.00000000000E+00  0.00000000000E+00  0.11504015486E+04  0.11504015486E+04  0.00000000000E+00 0. -1.
         21   -1    0    0  501  503 -0.00000000000E+00 -0.00000000000E+00 -0.26016597322E+03  0.26016597322E+03  0.00000000000E+00 0.  1.
    9000005    1    1    2  501    0  0.28881600358E+03  0.22453182589E+03  0.34980454621E+03  0.64512978951E+03  0.40000000000E+03 0. -1.
   -9000005    1    1    2    0  502 -0.28881600358E+03 -0.22453182589E+03  0.54043102918E+03  0.76543773232E+03  0.40000000000E+03 0.  1.
<mgrwt>
<rscale>  2 0.54206017E+03</rscale>
<asrwt>0</asrwt>
<pdfrwt beam="1">  1       21 0.17698485E+00 0.54206017E+03</pdfrwt>
<pdfrwt beam="2">  1       21 0.40025535E-01 0.54206017E+03</pdfrwt>
<totfact> 0.92797255E+02</totfact>
</mgrwt>
</event>
<event>
 4    1  0.4962426E-002  0.5003834E+03  0.7818608E-02  0.1013679E+00
         21   -1    0    0  503  502  0.00000000000E+00  0.00000000000E+00  0.88466358506E+03  0.88466358506E+03  0.00000000000E+00 0. -1.
         21   -1    0    0  501  503 -0.00000000000E+00 -0.00000000000E+00 -0.72006983961E+03  0.72006983961E+03  0.00000000000E+00 0. -1.
    9000005    1    1    2  501    0  0.22423063046E+03  0.20026023514E+03 -0.54280050567E+03  0.73825193963E+03  0.40000000000E+03 0. -1.
   -9000005    1    1    2    0  502 -0.22423063046E+03 -0.20026023514E+03  0.70739425111E+03  0.86648148504E+03  0.40000000000E+03 0. -1.
<mgrwt>
<rscale>  2 0.50038339E+03</rscale>
<asrwt>0</asrwt>
<pdfrwt beam="1">  1       21 0.13610209E+00 0.50038339E+03</pdfrwt>
<pdfrwt beam="2">  1       21 0.11077997E+00 0.50038339E+03</pdfrwt>
<totfact> 0.19709320E+02</totfact>
</mgrwt>
</event>
<event>
 4    1  0.4962426E-002  0.5526302E+03  0.7818608E-02  0.1000887E+00
         21   -1    0    0  501  502  0.00000000000E+00  0.00000000000E+00  0.29110206464E+03  0.29110206464E+03  0.00000000000E+00 0. -1.
         21   -1    0    0  502  503 -0.00000000000E+00 -0.00000000000E+00 -0.11343379921E+04  0.11343379921E+04  0.00000000000E+00 0. -1.
    9000005    1    1    2  501    0  0.37717931110E+03  0.55999151969E+02 -0.22626459559E+03  0.59715643257E+03  0.40000000000E+03 0.  1.
   -9000005    1    1    2    0  503 -0.37717931110E+03 -0.55999151969E+02 -0.61697133192E+03  0.82828362422E+03  0.40000000000E+03 0.  1.
<mgrwt>
<rscale>  2 0.55263020E+03</rscale>
<asrwt>0</asrwt>
<pdfrwt beam="1">  1       21 0.44784933E-01 0.55263020E+03</pdfrwt>
<pdfrwt beam="2">  1       21 0.17451354E+00 0.55263020E+03</pdfrwt>
<totfact> 0.76188973E+02</totfact>
</mgrwt>
</event>
<event>
 4    1  0.4962426E-002  0.5560318E+03  0.7818608E-02  0.1000107E+00
         21   -1    0    0  501  502  0.00000000000E+00  0.00000000000E+00  0.72991471016E+03  0.72991471016E+03  0.00000000000E+00 0.  1.
         21   -1    0    0  502  503 -0.00000000000E+00 -0.00000000000E+00 -0.52066072057E+03  0.52066072057E+03  0.00000000000E+00 0. -1.
    9000005    1    1    2  501    0  0.78785942332E+01 -0.38614672300E+03  0.37464149770E+03  0.67046820636E+03  0.40000000000E+03 0. -1.
   -9000005    1    1    2    0  503 -0.78785942332E+01  0.38614672300E+03 -0.16538750811E+03  0.58010722438E+03  0.40000000000E+03 0. -1.
<mgrwt>
<rscale>  2 0.55603180E+03</rscale>
<asrwt>0</asrwt>
<pdfrwt beam="1">  1       21 0.11229457E+00 0.55603180E+03</pdfrwt>
<pdfrwt beam="2">  1       21 0.80101649E-01 0.55603180E+03</pdfrwt>
<totfact> 0.68973705E+02</totfact>
</mgrwt>
</event>
<event>
 4    1  0.4962426E-002  0.4469825E+03  0.7818608E-02  0.1028626E+00
         21   -1    0    0  503  502  0.00000000000E+00  0.00000000000E+00  0.25783703132E+03  0.25783703132E+03  0.00000000000E+00 0.  1.
         21   -1    0    0  501  503 -0.00000000000E+00 -0.00000000000E+00 -0.79746143064E+03  0.79746143064E+03  0.00000000000E+00 0.  1.
    9000005    1    1    2  501    0 -0.19911673205E+03  0.12078004771E+02 -0.35859811964E+03  0.57304970342E+03  0.40000000000E+03 0.  1.
   -9000005    1    1    2    0  502  0.19911673205E+03 -0.12078004771E+02 -0.18102627967E+03  0.48224875854E+03  0.40000000000E+03 0.  1.
<mgrwt>
<rscale>  2 0.44698250E+03</rscale>
<asrwt>0</asrwt>
<pdfrwt beam="1">  1       21 0.39667236E-01 0.44698250E+03</pdfrwt>
<pdfrwt beam="2">  1       21 0.12268637E+00 0.44698250E+03</pdfrwt>
<totfact> 0.26514534E+03</totfact>
</mgrwt>
</event>
<event>
 4    1  0.4962426E-002  0.5894339E+03  0.7818608E-02  0.9927573E-01
         21   -1    0    0  501  502  0.00000000000E+00  0.00000000000E+00  0.44169865494E+03  0.44169865494E+03  0.00000000000E+00 0. -1.
         21   -1    0    0  502  503 -0.00000000000E+00 -0.00000000000E+00 -0.83451001053E+03  0.83451001053E+03  0.00000000000E+00 0.  1.
    9000005    1    1    2  501    0 -0.14642527554E+03  0.40742112281E+03 -0.43483886831E+02  0.59103568508E+03  0.40000000000E+03 0. -1.
   -9000005    1    1    2    0  503  0.14642527554E+03 -0.40742112281E+03 -0.34932746875E+03  0.68517298039E+03  0.40000000000E+03 0.  1.
<mgrwt>
<rscale>  2 0.58943391E+03</rscale>
<asrwt>0</asrwt>
<pdfrwt beam="1">  1       21 0.67953640E-01 0.58943391E+03</pdfrwt>
<pdfrwt beam="2">  1       21 0.12838615E+00 0.58943391E+03</pdfrwt>
<totfact> 0.70539401E+02</totfact>
</mgrwt>
</event>
<event>
 4    1  0.4962426E-002  0.4792877E+03  0.7818608E-02  0.1019331E+00
         21   -1    0    0  503  502  0.00000000000E+00  0.00000000000E+00  0.22768231657E+04  0.22768231657E+04  0.00000000000E+00 0. -1.
         21   -1    0    0  501  503 -0.00000000000E+00 -0.00000000000E+00 -0.10570424245E+03  0.10570424245E+03  0.00000000000E+00 0. -1.
    9000005    1    1    2  501    0  0.19355336681E+03  0.17959350034E+03  0.83142339432E+03  0.95967785834E+03  0.40000000000E+03 0. -1.
   -9000005    1    1    2    0  502 -0.19355336681E+03 -0.17959350034E+03  0.13396955289E+04  0.14228495498E+04  0.40000000000E+03 0. -1.
<mgrwt>
<rscale>  2 0.47928773E+03</rscale>
<asrwt>0</asrwt>
<pdfrwt beam="1">  1       21 0.35028045E+00 0.47928773E+03</pdfrwt>
<pdfrwt beam="2">  1       21 0.16262193E-01 0.47928773E+03</pdfrwt>
<totfact> 0.45411472E+02</totfact>
</mgrwt>
</event>
<event>
 4    1  0.4962426E-002  0.4167843E+03  0.7818608E-02  0.1038118E+00
         21   -1    0    0  503  502  0.00000000000E+00  0.00000000000E+00  0.60675003578E+03  0.60675003578E+03  0.00000000000E+00 0. -1.
         21   -1    0    0  501  503 -0.00000000000E+00 -0.00000000000E+00 -0.37802405108E+03  0.37802405108E+03  0.00000000000E+00 0.  1.
    9000005    1    1    2  501    0 -0.98638624811E+02  0.63083579296E+02 -0.12818732873E+03  0.43605172575E+03  0.40000000000E+03 0.  1.
   -9000005    1    1    2    0  502  0.98638624811E+02 -0.63083579296E+02  0.35691331343E+03  0.54872236111E+03  0.40000000000E+03 0. -1.
<mgrwt>
<rscale>  2 0.41678426E+03</rscale>
<asrwt>0</asrwt>
<pdfrwt beam="1">  1       21 0.93346160E-01 0.41678426E+03</pdfrwt>
<pdfrwt beam="2">  1       21 0.58157546E-01 0.41678426E+03</pdfrwt>
<totfact> 0.23436333E+03</totfact>
</mgrwt>
</event>
<event>
 4    1  0.4962426E-002  0.4066350E+03  0.7818608E-02  0.1041506E+00
         21   -1    0    0  501  502  0.00000000000E+00  0.00000000000E+00  0.10557196172E+03  0.10557196172E+03  0.00000000000E+00 0. -1.
         21   -1    0    0  502  503 -0.00000000000E+00 -0.00000000000E+00 -0.20162745029E+04  0.20162745029E+04  0.00000000000E+00 0. -1.
    9000005    1    1    2  501    0 -0.62906219435E+02 -0.37347182690E+02 -0.14565703324E+04  0.15122662259E+04  0.40000000000E+03 0. -1.
   -9000005    1    1    2    0  503  0.62906219435E+02  0.37347182690E+02 -0.45413220875E+03  0.60958023879E+03  0.40000000000E+03 0. -1.
<mgrwt>
<rscale>  2 0.40663498E+03</rscale>
<asrwt>0</asrwt>
<pdfrwt beam="1">  1       21 0.16241840E-01 0.40663498E+03</pdfrwt>
<pdfrwt beam="2">  1       21 0.31019609E+00 0.40663498E+03</pdfrwt>
<totfact> 0.83161411E+02</totfact>
</mgrwt>
</event>
<event>
 4    1  0.4962426E-002  0.4497080E+03  0.7818608E-02  0.1027809E+00
         21   -1    0    0  501  502  0.00000000000E+00  0.00000000000E+00  0.72244729084E+03  0.72244729084E+03  0.00000000000E+00 0.  1.
         21   -1    0    0  502  503 -0.00000000000E+00 -0.00000000000E+00 -0.28971440012E+03  0.28971440012E+03  0.00000000000E+00 0.  1.
    9000005    1    1    2  501    0  0.19216449417E+03 -0.72870444994E+02  0.30935325009E+03  0.54583580673E+03  0.40000000000E+03 0.  1.
   -9000005    1    1    2    0  503 -0.19216449417E+03  0.72870444994E+02  0.12337964063E+03  0.46632588422E+03  0.40000000000E+03 0.  1.
<mgrwt>
<rscale>  2 0.44970801E+03</rscale>
<asrwt>0</asrwt>
<pdfrwt beam="1">  1       21 0.11114574E+00 0.44970801E+03</pdfrwt>
<pdfrwt beam="2">  1       21 0.44571446E-01 0.44970801E+03</pdfrwt>
<totfact> 0.26670355E+03</totfact>
</mgrwt>
</event>
<event>
 4    1  0.4962426E-002  0.4596035E+03  0.7818608E-02  0.1024896E+00
         21   -1    0    0  503  502  0.00000000000E+00  0.00000000000E+00  0.51585679028E+03  0.51585679028E+03  0.00000000000E+00 0. -1.
         21   -1    0    0  501  503 -0.00000000000E+00 -0.00000000000E+00 -0.41177449329E+03  0.41177449329E+03  0.00000000000E+00 0. -1.
    9000005    1    1    2  501    0  0.21994018993E+03 -0.53494762451E+02  0.17452812793E+02  0.45993475345E+03  0.40000000000E+03 0. -1.
   -9000005    1    1    2    0  502 -0.21994018993E+03  0.53494762451E+02  0.86629484193E+02  0.46769653012E+03  0.40000000000E+03 0. -1.
<mgrwt>
<rscale>  2 0.45960350E+03</rscale>
<asrwt>0</asrwt>
<pdfrwt beam="1">  1       21 0.79362583E-01 0.45960350E+03</pdfrwt>
<pdfrwt beam="2">  1       21 0.63349922E-01 0.45960350E+03</pdfrwt>
<totfact> 0.27970364E+03</totfact>
</mgrwt>
</event>
<event>
 4    1  0.4962426E-002  0.4657187E+03  0.7818608E-02  0.1023136E+00
         21   -1    0    0  503  502  0.00000000000E+00  0.00000000000E+00  0.12542731329E+04  0.12542731329E+04  0.00000000000E+00 0. -1.
         21   -1    0    0  501  503 -0.00000000000E+00 -0.00000000000E+00 -0.35446323024E+03  0.35446323024E+03  0.00000000000E+00 0. -1.
    9000005    1    1    2  501    0 -0.10674247234E+03 -0.21330724547E+03 -0.12573976598E+03  0.48239447045E+03  0.40000000000E+03 0. -1.
   -9000005    1    1    2    0  502  0.10674247234E+03  0.21330724547E+03  0.10255496687E+04  0.11263418927E+04  0.40000000000E+03 0. -1.
<mgrwt>
<rscale>  2 0.46571873E+03</rscale>
<asrwt>0</asrwt>
<pdfrwt beam="1">  1       21 0.19296510E+00 0.46571873E+03</pdfrwt>
<pdfrwt beam="2">  1       21 0.54532805E-01 0.46571873E+03</pdfrwt>
<totfact> 0.38577430E+02</totfact>
</mgrwt>
</event>
<event>
 4    1  0.4962426E-002  0.4040811E+03  0.7818608E-02  0.1042376E+00
         21   -1    0    0  503  502  0.00000000000E+00  0.00000000000E+00  0.30846518337E+03  0.30846518337E+03  0.00000000000E+00 0. -1.
         21   -1    0    0  501  503 -0.00000000000E+00 -0.00000000000E+00 -0.53135628808E+03  0.53135628808E+03  0.00000000000E+00 0. -1.
    9000005    1    1    2  501    0  0.52241334295E+02 -0.23502782985E+02 -0.85549331925E+02  0.41303780216E+03  0.40000000000E+03 0. -1.
   -9000005    1    1    2    0  502 -0.52241334295E+02  0.23502782985E+02 -0.13734177279E+03  0.42678366929E+03  0.40000000000E+03 0. -1.
<mgrwt>
<rscale>  2 0.40408110E+03</rscale>
<asrwt>0</asrwt>
<pdfrwt beam="1">  1       21 0.47456182E-01 0.40408110E+03</pdfrwt>
<pdfrwt beam="2">  1       21 0.81747121E-01 0.40408110E+03</pdfrwt>
<totfact> 0.49690815E+03</totfact>
</mgrwt>
</event>
<event>
 4    1  0.4962426E-002  0.4343587E+03  0.7818608E-02  0.1032492E+00
         21   -1    0    0  501  502  0.00000000000E+00  0.00000000000E+00  0.26346874717E+03  0.26346874717E+03  0.00000000000E+00 0. -1.
         21   -1    0    0  502  503 -0.00000000000E+00 -0.00000000000E+00 -0.10581804078E+04  0.10581804078E+04  0.00000000000E+00 0.  1.
    9000005    1    1    2  501    0  0.16343809604E+03  0.44220644357E+02 -0.21625342503E+02  0.43489669125E+03  0.40000000000E+03 0. -1.
   -9000005    1    1    2    0  503 -0.16343809604E+03 -0.44220644357E+02 -0.77308631813E+03  0.88675246371E+03  0.40000000000E+03 0.  1.
<mgrwt>
<rscale>  2 0.43435870E+03</rscale>
<asrwt>0</asrwt>
<pdfrwt beam="1">  1       21 0.40533652E-01 0.43435870E+03</pdfrwt>
<pdfrwt beam="2">  1       21 0.16279699E+00 0.43435870E+03</pdfrwt>
<totfact> 0.11986328E+03</totfact>
</mgrwt>
</event>
<event>
 4    1  0.4962426E-002  0.4059770E+03  0.7818608E-02  0.1041729E+00
         21   -1    0    0  501  502  0.00000000000E+00  0.00000000000E+00  0.17844908590E+03  0.17844908590E+03  0.00000000000E+00 0. -1.
         21   -1    0    0  502  503 -0.00000000000E+00 -0.00000000000E+00 -0.94015112923E+03  0.94015112923E+03  0.00000000000E+00 0. -1.
    9000005    1    1    2  501    0 -0.10736540876E+01  0.69398373338E+02 -0.30666295821E+03  0.50878232762E+03  0.40000000000E+03 0. -1.
   -9000005    1    1    2    0  503  0.10736540876E+01 -0.69398373338E+02 -0.45503908511E+03  0.60981788752E+03  0.40000000000E+03 0. -1.
<mgrwt>
<rscale>  2 0.40597695E+03</rscale>
<asrwt>0</asrwt>
<pdfrwt beam="1">  1       21 0.27453705E-01 0.40597695E+03</pdfrwt>
<pdfrwt beam="2">  1       21 0.14463864E+00 0.40597695E+03</pdfrwt>
<totfact> 0.36686339E+03</totfact>
</mgrwt>
</event>
<event>
 4    1  0.4962426E-002  0.4718283E+03  0.7818608E-02  0.1021405E+00
         21   -1    0    0  501  502  0.00000000000E+00  0.00000000000E+00  0.33720166121E+03  0.33720166121E+03  0.00000000000E+00 0.  1.
         21   -1    0    0  502  503 -0.00000000000E+00 -0.00000000000E+00 -0.91157208260E+03  0.91157208260E+03  0.00000000000E+00 0. -1.
    9000005    1    1    2  501    0  0.12859542270E+03 -0.21467458666E+03  0.40693431733E+02  0.47357989430E+03  0.40000000000E+03 0.  1.
   -9000005    1    1    2    0  503 -0.12859542270E+03  0.21467458666E+03 -0.61506385313E+03  0.77519384951E+03  0.40000000000E+03 0. -1.
<mgrwt>
<rscale>  2 0.47182832E+03</rscale>
<asrwt>0</asrwt>
<pdfrwt beam="1">  1       21 0.51877178E-01 0.47182832E+03</pdfrwt>
<pdfrwt beam="2">  1       21 0.14024186E+00 0.47182832E+03</pdfrwt>
<totfact> 0.10552126E+03</totfact>
</mgrwt>
</event>
<event>
 4    1  0.4962426E-002  0.4400959E+03  0.7818608E-02  0.1030717E+00
         21   -1    0    0  503  502  0.00000000000E+00  0.00000000000E+00  0.53133988753E+03  0.53133988753E+03  0.00000000000E+00 0. -1.
         21   -1    0    0  501  503 -0.00000000000E+00 -0.00000000000E+00 -0.44504419723E+03  0.44504419723E+03  0.00000000000E+00 0. -1.
    9000005    1    1    2  501    0 -0.17310720894E+03 -0.60977871403E+02 -0.16451095641E+03  0.46983854819E+03  0.40000000000E+03 0. -1.
   -9000005    1    1    2    0  502  0.17310720894E+03  0.60977871403E+02  0.25080664671E+03  0.50654553657E+03  0.40000000000E+03 0. -1.
<mgrwt>
<rscale>  2 0.44009591E+03</rscale>
<asrwt>0</asrwt>
<pdfrwt beam="1">  1       21 0.81744598E-01 0.44009591E+03</pdfrwt>
<pdfrwt beam="2">  1       21 0.68468338E-01 0.44009591E+03</pdfrwt>
<totfact> 0.22126337E+03</totfact>
</mgrwt>
</event>
<event>
 4    1  0.4962426E-002  0.4495547E+03  0.7818608E-02  0.1027855E+00
         21   -1    0    0  501  502  0.00000000000E+00  0.00000000000E+00  0.21665849047E+03  0.21665849047E+03  0.00000000000E+00 0.  1.
         21   -1    0    0  502  503 -0.00000000000E+00 -0.00000000000E+00 -0.10256609660E+04  0.10256609660E+04  0.00000000000E+00 0. -1.
    9000005    1    1    2  501    0  0.12587686573E+03  0.16203225387E+03 -0.21759934726E+03  0.49944860852E+03  0.40000000000E+03 0.  1.
   -9000005    1    1    2    0  503 -0.12587686573E+03 -0.16203225387E+03 -0.59140312827E+03  0.74287084796E+03  0.40000000000E+03 0. -1.
<mgrwt>
<rscale>  2 0.44955471E+03</rscale>
<asrwt>0</asrwt>
<pdfrwt beam="1">  1       21 0.33332075E-01 0.44955471E+03</pdfrwt>
<pdfrwt beam="2">  1       21 0.15779400E+00 0.44955471E+03</pdfrwt>
<totfact> 0.19348182E+03</totfact>
</mgrwt>
</event>
<event>
 4    1  0.4962426E-002  0.4541482E+03  0.7818608E-02  0.1026492E+00
         21   -1    0    0  503  502  0.00000000000E+00  0.00000000000E+00  0.14852683809E+04  0.14852683809E+04  0.00000000000E+00 0.  1.
         21   -1    0    0  501  503 -0.00000000000E+00 -0.00000000000E+00 -0.20377654768E+03  0.20377654768E+03  0.00000000000E+00 0. -1.
    9000005    1    1    2  501    0 -0.10499946847E+03 -0.18768505116E+03  0.16409783268E+03  0.48288576858E+03  0.40000000000E+03 0. -1.
   -9000005    1    1    2    0  502  0.10499946847E+03  0.18768505116E+03  0.11173940005E+04  0.12061591600E+04  0.40000000000E+03 0.  1.
<mgrwt>
<rscale>  2 0.45414818E+03</rscale>
<asrwt>0</asrwt>
<pdfrwt beam="1">  1       21 0.22850282E+00 0.45414818E+03</pdfrwt>
<pdfrwt beam="2">  1       21 0.31350239E-01 0.45414818E+03</pdfrwt>
<totfact> 0.71627985E+02</totfact>
</mgrwt>
</event>
<event>
 4    1  0.4962426E-002  0.4118121E+03  0.7818608E-02  0.1039765E+00
         21   -1    0    0  503  502  0.00000000000E+00  0.00000000000E+00  0.21888212516E+03  0.21888212516E+03  0.00000000000E+00 0.  1.
         21   -1    0    0  501  503 -0.00000000000E+00 -0.00000000000E+00 -0.78215135307E+03  0.78215135307E+03  0.00000000000E+00 0.  1.
    9000005    1    1    2  501    0  0.83351251580E+00 -0.97920783955E+02 -0.33016913396E+03  0.52782651666E+03  0.40000000000E+03 0.  1.
   -9000005    1    1    2    0  502 -0.83351251580E+00  0.97920783955E+02 -0.23310009396E+03  0.47320696157E+03  0.40000000000E+03 0.  1.
<mgrwt>
<rscale>  2 0.41181206E+03</rscale>
<asrwt>0</asrwt>
<pdfrwt beam="1">  1       21 0.33674173E-01 0.41181206E+03</pdfrwt>
<pdfrwt beam="2">  1       21 0.12033098E+00 0.41181206E+03</pdfrwt>
<totfact> 0.39386062E+03</totfact>
</mgrwt>
</event>
<event>
 4    1  0.4962426E-002  0.4848766E+03  0.7818608E-02  0.1017803E+00
         21   -1    0    0  503  502  0.00000000000E+00  0.00000000000E+00  0.20242901123E+04  0.20242901123E+04  0.00000000000E+00 0. -1.
         21   -1    0    0  501  503 -0.00000000000E+00 -0.00000000000E+00 -0.24787869994E+03  0.24787869994E+03  0.00000000000E+00 0. -1.
    9000005    1    1    2  501    0 -0.77783944256E+02  0.26278316842E+03  0.59988604600E+02  0.48857340111E+03  0.40000000000E+03 0. -1.
   -9000005    1    1    2    0  502  0.77783944256E+02 -0.26278316842E+03  0.17164228078E+04  0.17835954111E+04  0.40000000000E+03 0. -1.
<mgrwt>
<rscale>  2 0.48487662E+03</rscale>
<asrwt>0</asrwt>
<pdfrwt beam="1">  1       21 0.31142924E+00 0.48487662E+03</pdfrwt>
<pdfrwt beam="2">  1       21 0.38135186E-01 0.48487662E+03</pdfrwt>
<totfact> 0.14779889E+02</totfact>
</mgrwt>
</event>
<event>
 4    1  0.4962426E-002  0.4492764E+03  0.7818608E-02  0.1027938E+00
         21   -1    0    0  503  502  0.00000000000E+00  0.00000000000E+00  0.15490024350E+03  0.15490024350E+03  0.00000000000E+00 0. -1.
         21   -1    0    0  501  503 -0.00000000000E+00 -0.00000000000E+00 -0.18217815648E+04  0.18217815648E+04  0.00000000000E+00 0. -1.
    9000005    1    1    2  501    0  0.10641745272E+03  0.17471293779E+03 -0.13608069053E+04  0.14330543320E+04  0.40000000000E+03 0. -1.
   -9000005    1    1    2    0  502 -0.10641745272E+03 -0.17471293779E+03 -0.30607441599E+03  0.54362747631E+03  0.40000000000E+03 0. -1.
<mgrwt>
<rscale>  2 0.44927640E+03</rscale>
<asrwt>0</asrwt>
<pdfrwt beam="1">  1       21 0.23830806E-01 0.44927640E+03</pdfrwt>
<pdfrwt beam="2">  1       21 0.28027410E+00 0.44927640E+03</pdfrwt>
<totfact> 0.59252249E+02</totfact>
</mgrwt>
</event>
<event>
 4    1  0.4962426E-002  0.4197742E+03  0.7818608E-02  0.1037140E+00
         21   -1    0    0  501  502  0.00000000000E+00  0.00000000000E+00  0.32490483107E+03  0.32490483107E+03  0.00000000000E+00 0. -1.
         21   -1    0    0  502  503 -0.00000000000E+00 -0.00000000000E+00 -0.60595831262E+03  0.60595831262E+03  0.00000000000E+00 0. -1.
    9000005    1    1    2  501    0 -0.82496274530E+02  0.96978013634E+02 -0.29132972797E+03  0.51096318932E+03  0.40000000000E+03 0.  1.
   -9000005    1    1    2    0  503  0.82496274530E+02 -0.96978013634E+02  0.10276246431E+02  0.41989995437E+03  0.40000000000E+03 0.  1.
<mgrwt>
<rscale>  2 0.41977419E+03</rscale>
<asrwt>0</asrwt>
<pdfrwt beam="1">  1       21 0.49985359E-01 0.41977419E+03</pdfrwt>
<pdfrwt beam="2">  1       21 0.93224355E-01 0.41977419E+03</pdfrwt>
<totfact> 0.32513375E+03</totfact>
</mgrwt>
</event>
<event>
 4    1  0.4962426E-002  0.6147088E+03  0.7818608E-02  0.9875351E-01
         21   -1    0    0  503  502  0.00000000000E+00  0.00000000000E+00  0.22168008050E+03  0.22168008050E+03  0.00000000000E+00 0.  1.
         21   -1    0    0  501  503 -0.00000000000E+00 -0.00000000000E+00 -0.20271395920E+04  0.20271395920E+04  0.00000000000E+00 0. -1.
    9000005    1    1    2  501    0 -0.44493530213E+03 -0.14106565696E+03 -0.13512700054E+04  0.14845193061E+04  0.40000000000E+03 0. -1.
   -9000005    1    1    2    0  502  0.44493530213E+03  0.14106565696E+03 -0.45418950609E+03  0.76430036641E+03  0.40000000000E+03 0.  1.
<mgrwt>
<rscale>  2 0.61470883E+03</rscale>
<asrwt>0</asrwt>
<pdfrwt beam="1">  1       21 0.34104627E-01 0.61470883E+03</pdfrwt>
<pdfrwt beam="2">  1       21 0.31186763E+00 0.61470883E+03</pdfrwt>
<totfact> 0.17273079E+02</totfact>
</mgrwt>
</event>
<event>
 4    1  0.4962426E-002  0.4532088E+03  0.7818608E-02  0.1026769E+00
         21   -1    0    0  503  502  0.00000000000E+00  0.00000000000E+00  0.71505363796E+03  0.71505363796E+03  0.00000000000E+00 0.  1.
         21   -1    0    0  501  503 -0.00000000000E+00 -0.00000000000E+00 -0.29122923761E+03  0.29122923761E+03  0.00000000000E+00 0. -1.
    9000005    1    1    2  501    0  0.15287742883E+03 -0.14841387168E+03  0.27073513641E+03  0.52791637561E+03  0.40000000000E+03 0.  1.
   -9000005    1    1    2    0  502 -0.15287742883E+03  0.14841387168E+03  0.15308926393E+03  0.47836649996E+03  0.40000000000E+03 0. -1.
<mgrwt>
<rscale>  2 0.45320877E+03</rscale>
<asrwt>0</asrwt>
<pdfrwt beam="1">  1       21 0.11000825E+00 0.45320877E+03</pdfrwt>
<pdfrwt beam="2">  1       21 0.44804498E-01 0.45320877E+03</pdfrwt>
<totfact> 0.27029020E+03</totfact>
</mgrwt>
</event>
<event>
 4    1  0.4962426E-002  0.5192136E+03  0.7818608E-02  0.1008882E+00
         21   -1    0    0  501  502  0.00000000000E+00  0.00000000000E+00  0.40369081976E+03  0.40369081976E+03  0.00000000000E+00 0. -1.
         21   -1    0    0  502  503 -0.00000000000E+00 -0.00000000000E+00 -0.70088728949E+03  0.70088728949E+03  0.00000000000E+00 0. -1.
    9000005    1    1    2  501    0  0.25698482855E+03 -0.20866604120E+03 -0.28591498876E+02  0.52000018525E+03  0.40000000000E+03 0. -1.
   -9000005    1    1    2    0  503 -0.25698482855E+03  0.20866604120E+03 -0.26860497085E+03  0.58457792399E+03  0.40000000000E+03 0. -1.
<mgrwt>
<rscale>  2 0.51921356E+03</rscale>
<asrwt>0</asrwt>
<pdfrwt beam="1">  1       21 0.62106280E-01 0.51921356E+03</pdfrwt>
<pdfrwt beam="2">  1       21 0.10782881E+00 0.51921356E+03</pdfrwt>
<totfact> 0.13753891E+03</totfact>
</mgrwt>
</event>
<event>
 4    1  0.4962426E-002  0.5763221E+03  0.7818608E-02  0.9955785E-01
         21   -1    0    0  501  502  0.00000000000E+00  0.00000000000E+00  0.81713351873E+03  0.81713351873E+03  0.00000000000E+00 0. -1.
         21   -1    0    0  502  503 -0.00000000000E+00 -0.00000000000E+00 -0.61944292372E+03  0.61944292372E+03  0.00000000000E+00 0.  1.
    9000005    1    1    2  501    0  0.28161088714E+03 -0.30470068591E+03  0.52000967933E+03  0.77624562243E+03  0.40000000000E+03 0. -1.
   -9000005    1    1    2    0  503 -0.28161088714E+03  0.30470068591E+03 -0.32231908432E+03  0.66033082002E+03  0.40000000000E+03 0.  1.
<mgrwt>
<rscale>  2 0.57632213E+03</rscale>
<asrwt>0</asrwt>
<pdfrwt beam="1">  1       21 0.12571285E+00 0.57632213E+03</pdfrwt>
<pdfrwt beam="2">  1       21 0.95298911E-01 0.57632213E+03</pdfrwt>
<totfact> 0.34042645E+02</totfact>
</mgrwt>
</event>
<event>
 4    1  0.4962426E-002  0.4123058E+03  0.7818608E-02  0.1039600E+00
         21   -1    0    0  503  502  0.00000000000E+00  0.00000000000E+00  0.39020116515E+03  0.39020116515E+03  0.00000000000E+00 0. -1.
         21   -1    0    0  501  503 -0.00000000000E+00 -0.00000000000E+00 -0.67910117171E+03  0.67910117171E+03  0.00000000000E+00 0. -1.
    9000005    1    1    2  501    0  0.70454319794E+02 -0.70938588281E+02 -0.46455900260E+03  0.62113699084E+03  0.40000000000E+03 0. -1.
   -9000005    1    1    2    0  502 -0.70454319794E+02  0.70938588281E+02  0.17565899605E+03  0.44816534602E+03  0.40000000000E+03 0. -1.
<mgrwt>
<rscale>  2 0.41230583E+03</rscale>
<asrwt>0</asrwt>
<pdfrwt beam="1">  1       21 0.60030950E-01 0.41230583E+03</pdfrwt>
<pdfrwt beam="2">  1       21 0.10447710E+00 0.41230583E+03</pdfrwt>
<totfact> 0.16686903E+03</totfact>
</mgrwt>
</event>
<event>
 4    1  0.4962426E-002  0.4591497E+03  0.7818608E-02  0.1025028E+00
         21   -1    0    0  501  502  0.00000000000E+00  0.00000000000E+00  0.58429140861E+03  0.58429140861E+03  0.00000000000E+00 0.  1.
         21   -1    0    0  502  503 -0.00000000000E+00 -0.00000000000E+00 -0.42515246996E+03  0.42515246996E+03  0.00000000000E+00 0. -1.
    9000005    1    1    2  501    0 -0.10460237738E+03  0.19969178022E+03  0.27591773488E+03  0.53567626498E+03  0.40000000000E+03 0.  1.
   -9000005    1    1    2    0  503  0.10460237738E+03 -0.19969178022E+03 -0.11677879623E+03  0.47376761359E+03  0.40000000000E+03 0.  1.
<mgrwt>
<rscale>  2 0.45914972E+03</rscale>
<asrwt>0</asrwt>
<pdfrwt beam="1">  1       21 0.89890986E-01 0.45914972E+03</pdfrwt>
<pdfrwt beam="2">  1       21 0.65408072E-01 0.45914972E+03</pdfrwt>
<totfact> 0.19474447E+03</totfact>
</mgrwt>
</event>
<event>
 4    1  0.4962426E-002  0.7098339E+03  0.7818608E-02  0.9700561E-01
         21   -1    0    0  503  502  0.00000000000E+00  0.00000000000E+00  0.56332897880E+03  0.56332897880E+03  0.00000000000E+00 0.  1.
         21   -1    0    0  501  503 -0.00000000000E+00 -0.00000000000E+00 -0.15260436945E+04  0.15260436945E+04  0.00000000000E+00 0. -1.
    9000005    1    1    2  501    0  0.27809040534E+03 -0.51626529562E+03 -0.11534430736E+04  0.13543614928E+04  0.40000000000E+03 0. -1.
   -9000005    1    1    2    0  502 -0.27809040534E+03  0.51626529562E+03  0.19072835792E+03  0.73501118054E+03  0.40000000000E+03 0.  1.
<mgrwt>
<rscale>  2 0.70983387E+03</rscale>
<asrwt>0</asrwt>
<pdfrwt beam="1">  1       21 0.86665996E-01 0.70983387E+03</pdfrwt>
<pdfrwt beam="2">  1       21 0.23477596E+00 0.70983387E+03</pdfrwt>
<totfact> 0.64968725E+01</totfact>
</mgrwt>
</event>
<event>
 4    1  0.4962426E-002  0.6120877E+03  0.7818608E-02  0.9880641E-01
         21   -1    0    0  503  502  0.00000000000E+00  0.00000000000E+00  0.47905833619E+03  0.47905833619E+03  0.00000000000E+00 0.  1.
         21   -1    0    0  501  503 -0.00000000000E+00 -0.00000000000E+00 -0.12107693006E+04  0.12107693006E+04  0.00000000000E+00 0. -1.
    9000005    1    1    2  501    0  0.18746750012E+03 -0.42368296963E+03 -0.86861958881E+03  0.10626153172E+04  0.40000000000E+03 0. -1.
   -9000005    1    1    2    0  502 -0.18746750012E+03  0.42368296963E+03  0.13690862441E+03  0.62721231955E+03  0.40000000000E+03 0.  1.
<mgrwt>
<rscale>  2 0.61208768E+03</rscale>
<asrwt>0</asrwt>
<pdfrwt beam="1">  1       21 0.73701283E-01 0.61208768E+03</pdfrwt>
<pdfrwt beam="2">  1       21 0.18627220E+00 0.61208768E+03</pdfrwt>
<totfact> 0.20644207E+02</totfact>
</mgrwt>
</event>
<event>
 4    1  0.4962426E-002  0.7945299E+03  0.7818608E-02  0.9567969E-01
         21   -1    0    0  501  502  0.00000000000E+00  0.00000000000E+00  0.58370943536E+03  0.58370943536E+03  0.00000000000E+00 0.  1.
         21   -1    0    0  502  503 -0.00000000000E+00 -0.00000000000E+00 -0.12311845328E+04  0.12311845328E+04  0.00000000000E+00 0. -1.
    9000005    1    1    2  501    0  0.51876455115E+03  0.44962333264E+03 -0.73218847709E+01  0.79456366062E+03  0.40000000000E+03 0.  1.
   -9000005    1    1    2    0  503 -0.51876455115E+03 -0.44962333264E+03 -0.64015321267E+03  0.10203303075E+04  0.40000000000E+03 0.  1.
<mgrwt>
<rscale>  2 0.79452992E+03</rscale>
<asrwt>0</asrwt>
<pdfrwt beam="1">  1       21 0.89801452E-01 0.79452992E+03</pdfrwt>
<pdfrwt beam="2">  1       21 0.18941300E+00 0.79452992E+03</pdfrwt>
<totfact> 0.11623464E+02</totfact>
</mgrwt>
</event>
<event>
 4    1  0.4962426E-002  0.4572439E+03  0.7818608E-02  0.1025584E+00
         21   -1    0    0  501  502  0.00000000000E+00  0.00000000000E+00  0.99676248330E+03  0.99676248330E+03  0.00000000000E+00 0. -1.
         21   -1    0    0  502  503 -0.00000000000E+00 -0.00000000000E+00 -0.21958387113E+03  0.21958387113E+03  0.00000000000E+00 0. -1.
    9000005    1    1    2  501    0 -0.19291931531E+03  0.10887682586E+03  0.51728530664E+03  0.69040286347E+03  0.40000000000E+03 0. -1.
   -9000005    1    1    2    0  503  0.19291931531E+03 -0.10887682586E+03  0.25989330553E+03  0.52594349096E+03  0.40000000000E+03 0. -1.
<mgrwt>
<rscale>  2 0.45724395E+03</rscale>
<asrwt>0</asrwt>
<pdfrwt beam="1">  1       21 0.15334807E+00 0.45724395E+03</pdfrwt>
<pdfrwt beam="2">  1       21 0.33782135E-01 0.45724395E+03</pdfrwt>
<totfact> 0.20313338E+03</totfact>
</mgrwt>
</event>
<event>
 4    1  0.4962426E-002  0.4117260E+03  0.7818608E-02  0.1039793E+00
         21   -1    0    0  501  502  0.00000000000E+00  0.00000000000E+00  0.11480297402E+03  0.11480297402E+03  0.00000000000E+00 0. -1.
         21   -1    0    0  502  503 -0.00000000000E+00 -0.00000000000E+00 -0.15013417638E+04  0.15013417638E+04  0.00000000000E+00 0. -1.
    9000005    1    1    2  501    0 -0.57611759033E+02  0.78734882286E+02 -0.58953838697E+03  0.71907844230E+03  0.40000000000E+03 0.  1.
   -9000005    1    1    2    0  503  0.57611759033E+02 -0.78734882286E+02 -0.79700040279E+03  0.89706629550E+03  0.40000000000E+03 0.  1.
<mgrwt>
<rscale>  2 0.41172600E+03</rscale>
<asrwt>0</asrwt>
<pdfrwt beam="1">  1       21 0.17661996E-01 0.41172600E+03</pdfrwt>
<pdfrwt beam="2">  1       21 0.23097565E+00 0.41172600E+03</pdfrwt>
<totfact> 0.21405549E+03</totfact>
</mgrwt>
</event>
<event>
 4    1  0.4962426E-002  0.6855823E+03  0.7818608E-02  0.9742211E-01
         21   -1    0    0  501  502  0.00000000000E+00  0.00000000000E+00  0.96154592737E+03  0.96154592737E+03  0.00000000000E+00 0.  1.
         21   -1    0    0  502  503 -0.00000000000E+00 -0.00000000000E+00 -0.86911731437E+03  0.86911731437E+03  0.00000000000E+00 0. -1.
    9000005    1    1    2  501    0  0.41624864800E+03 -0.36981090235E+03  0.65169569583E+03  0.94590185560E+03  0.40000000000E+03 0.  1.
   -9000005    1    1    2    0  503 -0.41624864800E+03  0.36981090235E+03 -0.55926708284E+03  0.88476138614E+03  0.40000000000E+03 0. -1.
<mgrwt>
<rscale>  2 0.68558226E+03</rscale>
<asrwt>0</asrwt>
<pdfrwt beam="1">  1       21 0.14793014E+00 0.68558226E+03</pdfrwt>
<pdfrwt beam="2">  1       21 0.13371036E+00 0.68558226E+03</pdfrwt>
<totfact> 0.90210002E+01</totfact>
</mgrwt>
</event>
<event>
 4    1  0.4962426E-002  0.6183670E+03  0.7818608E-02  0.9868016E-01
         21   -1    0    0  503  502  0.00000000000E+00  0.00000000000E+00  0.20079258047E+03  0.20079258047E+03  0.00000000000E+00 0.  1.
         21   -1    0    0  501  503 -0.00000000000E+00 -0.00000000000E+00 -0.21218573511E+04  0.21218573511E+04  0.00000000000E+00 0.  1.
    9000005    1    1    2  501    0  0.36106778683E+03  0.30332795483E+03 -0.58870585381E+03  0.85378707953E+03  0.40000000000E+03 0.  1.
   -9000005    1    1    2    0  502 -0.36106778683E+03 -0.30332795483E+03 -0.13323589169E+04  0.14688628521E+04  0.40000000000E+03 0.  1.
<mgrwt>
<rscale>  2 0.61836704E+03</rscale>
<asrwt>0</asrwt>
<pdfrwt beam="1">  1       21 0.30891166E-01 0.61836704E+03</pdfrwt>
<pdfrwt beam="2">  1       21 0.32643959E+00 0.61836704E+03</pdfrwt>
<totfact> 0.17150885E+02</totfact>
</mgrwt>
</event>
<event>
 4    1  0.4962426E-002  0.4107921E+03  0.7818608E-02  0.1040106E+00
         21   -1    0    0  501  502  0.00000000000E+00  0.00000000000E+00  0.37756518666E+03  0.37756518666E+03  0.00000000000E+00 0. -1.
         21   -1    0    0  502  503 -0.00000000000E+00 -0.00000000000E+00 -0.54368519316E+03  0.54368519316E+03  0.00000000000E+00 0. -1.
    9000005    1    1    2  501    0 -0.79900030001E+02 -0.48642791712E+02 -0.27736402255E+03  0.49566211978E+03  0.40000000000E+03 0. -1.
   -9000005    1    1    2    0  503  0.79900030001E+02  0.48642791712E+02  0.11124401605E+03  0.42558826004E+03  0.40000000000E+03 0. -1.
<mgrwt>
<rscale>  2 0.41079208E+03</rscale>
<asrwt>0</asrwt>
<pdfrwt beam="1">  1       21 0.58086952E-01 0.41079208E+03</pdfrwt>
<pdfrwt beam="2">  1       21 0.83643876E-01 0.41079208E+03</pdfrwt>
<totfact> 0.30498056E+03</totfact>
</mgrwt>
</event>
<event>
 4    1  0.4962426E-002  0.6325236E+03  0.7818608E-02  0.9840137E-01
         21   -1    0    0  503  502  0.00000000000E+00  0.00000000000E+00  0.35156019553E+03  0.35156019553E+03  0.00000000000E+00 0. -1.
         21   -1    0    0  501  503 -0.00000000000E+00 -0.00000000000E+00 -0.13061568877E+04  0.13061568877E+04  0.00000000000E+00 0.  1.
    9000005    1    1    2  501    0 -0.17063351262E+03 -0.45931497777E+03 -0.17992547245E+03  0.65761631676E+03  0.40000000000E+03 0.  1.
   -9000005    1    1    2    0  502  0.17063351262E+03  0.45931497777E+03 -0.77467121977E+03  0.10001007665E+04  0.40000000000E+03 0. -1.
<mgrwt>
<rscale>  2 0.63252355E+03</rscale>
<asrwt>0</asrwt>
<pdfrwt beam="1">  1       21 0.54086184E-01 0.63252355E+03</pdfrwt>
<pdfrwt beam="2">  1       21 0.20094721E+00 0.63252355E+03</pdfrwt>
<totfact> 0.32373434E+02</totfact>
</mgrwt>
</event>
<event>
 4    1  0.4962426E-002  0.4829901E+03  0.7818608E-02  0.1018317E+00
         21   -1    0    0  501  502  0.00000000000E+00  0.00000000000E+00  0.10440172786E+04  0.10440172786E+04  0.00000000000E+00 0.  1.
         21   -1    0    0  502  503 -0.00000000000E+00 -0.00000000000E+00 -0.26930288968E+03  0.26930288968E+03  0.00000000000E+00 0.  1.
    9000005    1    1    2  501    0  0.18491654338E+03  0.19770000477E+03  0.11638060384E+03  0.49681371242E+03  0.40000000000E+03 0.  1.
   -9000005    1    1    2    0  503 -0.18491654338E+03 -0.19770000477E+03  0.65833378513E+03  0.81650645591E+03  0.40000000000E+03 0.  1.
<mgrwt>
<rscale>  2 0.48299008E+03</rscale>
<asrwt>0</asrwt>
<pdfrwt beam="1">  1       21 0.16061804E+00 0.48299008E+03</pdfrwt>
<pdfrwt beam="2">  1       21 0.41431215E-01 0.48299008E+03</pdfrwt>
<totfact> 0.11654734E+03</totfact>
</mgrwt>
</event>
<event>
 4    1  0.4962426E-002  0.5510932E+03  0.7818608E-02  0.1001241E+00
         21   -1    0    0  501  502  0.00000000000E+00  0.00000000000E+00  0.93078789924E+03  0.93078789924E+03  0.00000000000E+00 0.  1.
         21   -1    0    0  502  503 -0.00000000000E+00 -0.00000000000E+00 -0.36200098426E+03  0.36200098426E+03  0.00000000000E+00 0. -1.
    9000005    1    1    2  501    0 -0.37882173612E+03 -0.14064217862E+02  0.48742509933E+03  0.73572205176E+03  0.40000000000E+03 0. -1.
   -9000005    1    1    2    0  503  0.37882173612E+03  0.14064217862E+02  0.81361815643E+02  0.55706683174E+03  0.40000000000E+03 0.  1.
<mgrwt>
<rscale>  2 0.55109320E+03</rscale>
<asrwt>0</asrwt>
<pdfrwt beam="1">  1       21 0.14319814E+00 0.55109320E+03</pdfrwt>
<pdfrwt beam="2">  1       21 0.55692459E-01 0.55109320E+03</pdfrwt>
<totfact> 0.83120687E+02</totfact>
</mgrwt>
</event>
<event>
 4    1  0.4962426E-002  0.4706018E+03  0.7818608E-02  0.1021751E+00
         21   -1    0    0  503  502  0.00000000000E+00  0.00000000000E+00  0.78526331131E+03  0.78526331131E+03  0.00000000000E+00 0. -1.
         21   -1    0    0  501  503 -0.00000000000E+00 -0.00000000000E+00 -0.28292959359E+03  0.28292959359E+03  0.00000000000E+00 0.  1.
    9000005    1    1    2  501    0 -0.24452199568E+03 -0.40926915473E+02  0.22101222160E+03  0.51991578249E+03  0.40000000000E+03 0. -1.
   -9000005    1    1    2    0  502  0.24452199568E+03  0.40926915473E+02  0.28132149613E+03  0.54827712242E+03  0.40000000000E+03 0. -1.
<mgrwt>
<rscale>  2 0.47060176E+03</rscale>
<asrwt>0</asrwt>
<pdfrwt beam="1">  1       21 0.12080974E+00 0.47060176E+03</pdfrwt>
<pdfrwt beam="2">  1       21 0.43527630E-01 0.47060176E+03</pdfrwt>
<totfact> 0.22554970E+03</totfact>
</mgrwt>
</event>
<event>
 4    1  0.4962426E-002  0.5427355E+03  0.7818608E-02  0.1003189E+00
         21   -1    0    0  503  502  0.00000000000E+00  0.00000000000E+00  0.63808631245E+03  0.63808631245E+03  0.00000000000E+00 0.  1.
         21   -1    0    0  501  503 -0.00000000000E+00 -0.00000000000E+00 -0.66790340945E+03  0.66790340945E+03  0.00000000000E+00 0.  1.
    9000005    1    1    2  501    0 -0.52947525805E+02  0.36298544141E+03 -0.37779530081E+03  0.66127994108E+03  0.40000000000E+03 0.  1.
   -9000005    1    1    2    0  502  0.52947525805E+02 -0.36298544141E+03  0.34797820381E+03  0.64470978082E+03  0.40000000000E+03 0.  1.
<mgrwt>
<rscale>  2 0.54273554E+03</rscale>
<asrwt>0</asrwt>
<pdfrwt beam="1">  1       21 0.98167125E-01 0.54273554E+03</pdfrwt>
<pdfrwt beam="2">  1       21 0.10275437E+00 0.54273554E+03</pdfrwt>
<totfact> 0.53322423E+02</totfact>
</mgrwt>
</event>
<event>
 4    1  0.4962426E-002  0.4084575E+03  0.7818608E-02  0.1040890E+00
         21   -1    0    0  503  502  0.00000000000E+00  0.00000000000E+00  0.13995434721E+04  0.13995434721E+04  0.00000000000E+00 0. -1.
         21   -1    0    0  501  503 -0.00000000000E+00 -0.00000000000E+00 -0.16209512987E+03  0.16209512987E+03  0.00000000000E+00 0. -1.
    9000005    1    1    2  501    0  0.81614131329E+02 -0.13292613730E+02  0.21709410211E+03  0.46256611331E+03  0.40000000000E+03 0. -1.
   -9000005    1    1    2    0  502 -0.81614131329E+02  0.13292613730E+02  0.10203542401E+04  0.10990724887E+04  0.40000000000E+03 0. -1.
<mgrwt>
<rscale>  2 0.40845754E+03</rscale>
<asrwt>0</asrwt>
<pdfrwt beam="1">  1       21 0.21531437E+00 0.40845754E+03</pdfrwt>
<pdfrwt beam="2">  1       21 0.24937713E-01 0.40845754E+03</pdfrwt>
<totfact> 0.13947160E+03</totfact>
</mgrwt>
</event>
<event>
 4    1  0.4962426E-002  0.4888784E+03  0.7818608E-02  0.1016723E+00
         21   -1    0    0  503  502  0.00000000000E+00  0.00000000000E+00  0.64078469525E+03  0.64078469525E+03  0.00000000000E+00 0.  1.
         21   -1    0    0  501  503 -0.00000000000E+00 -0.00000000000E+00 -0.37389780861E+03  0.37389780861E+03  0.00000000000E+00 0. -1.
    9000005    1    1    2  501    0 -0.36599582570E+02  0.27868009418E+03  0.10835533509E+03  0.50074245174E+03  0.40000000000E+03 0. -1.
   -9000005    1    1    2    0  502  0.36599582570E+02 -0.27868009418E+03  0.15853155155E+03  0.51394005212E+03  0.40000000000E+03 0.  1.
<mgrwt>
<rscale>  2 0.48887844E+03</rscale>
<asrwt>0</asrwt>
<pdfrwt beam="1">  1       21 0.98582260E-01 0.48887844E+03</pdfrwt>
<pdfrwt beam="2">  1       21 0.57522740E-01 0.48887844E+03</pdfrwt>
<totfact> 0.20498234E+03</totfact>
</mgrwt>
</event>
<event>
 4    1  0.4962426E-002  0.4054553E+03  0.7818608E-02  0.1041907E+00
         21   -1    0    0  503  502  0.00000000000E+00  0.00000000000E+00  0.41401399240E+03  0.41401399240E+03  0.00000000000E+00 0. -1.
         21   -1    0    0  501  503 -0.00000000000E+00 -0.00000000000E+00 -0.75695891026E+03  0.75695891026E+03  0.00000000000E+00 0. -1.
    9000005    1    1    2  501    0  0.28176507370E+02 -0.60000901376E+02 -0.57517618771E+03  0.70371988081E+03  0.40000000000E+03 0. -1.
   -9000005    1    1    2    0  502 -0.28176507370E+02  0.60000901376E+02  0.23223126984E+03  0.46725302185E+03  0.40000000000E+03 0. -1.
<mgrwt>
<rscale>  2 0.40545533E+03</rscale>
<asrwt>0</asrwt>
<pdfrwt beam="1">  1       21 0.63694460E-01 0.40545533E+03</pdfrwt>
<pdfrwt beam="2">  1       21 0.11645522E+00 0.40545533E+03</pdfrwt>
<totfact> 0.11231105E+03</totfact>
</mgrwt>
</event>
<event>
 4    1  0.4962426E-002  0.5490324E+03  0.7818608E-02  0.1001718E+00
         21   -1    0    0  503  502  0.00000000000E+00  0.00000000000E+00  0.20521124957E+04  0.20521124957E+04  0.00000000000E+00 0.  1.
         21   -1    0    0  501  503 -0.00000000000E+00 -0.00000000000E+00 -0.14705962873E+03  0.14705962873E+03  0.00000000000E+00 0. -1.
    9000005    1    1    2  501    0  0.34571020656E+03 -0.14805769927E+03  0.98977340003E+03  0.11318515860E+04  0.40000000000E+03 0. -1.
   -9000005    1    1    2    0  502 -0.34571020656E+03  0.14805769927E+03  0.91527946694E+03  0.10673205385E+04  0.40000000000E+03 0.  1.
<mgrwt>
<rscale>  2 0.54903245E+03</rscale>
<asrwt>0</asrwt>
<pdfrwt beam="1">  1       21 0.31570959E+00 0.54903245E+03</pdfrwt>
<pdfrwt beam="2">  1       21 0.22624560E-01 0.54903245E+03</pdfrwt>
<totfact> 0.38025098E+02</totfact>
</mgrwt>
</event>
<event>
 4    1  0.4962426E-002  0.8974959E+03  0.7818608E-02  0.9428717E-01
         21   -1    0    0  501  502  0.00000000000E+00  0.00000000000E+00  0.85044644980E+03  0.85044644980E+03  0.00000000000E+00 0.  1.
         21   -1    0    0  502  503 -0.00000000000E+00 -0.00000000000E+00 -0.10290736615E+04  0.10290736615E+04  0.00000000000E+00 0. -1.
    9000005    1    1    2  501    0 -0.23289184663E+03 -0.76893445435E+03  0.17584348815E+03  0.91455986116E+03  0.40000000000E+03 0.  1.
   -9000005    1    1    2    0  503  0.23289184663E+03  0.76893445435E+03 -0.35447069986E+03  0.96496025015E+03  0.40000000000E+03 0. -1.
<mgrwt>
<rscale>  2 0.89749585E+03</rscale>
<asrwt>0</asrwt>
<pdfrwt beam="1">  1       21 0.13083791E+00 0.89749585E+03</pdfrwt>
<pdfrwt beam="2">  1       21 0.15831903E+00 0.89749585E+03</pdfrwt>
<totfact> 0.74097067E+01</totfact>
</mgrwt>
</event>
<event>
 4    1  0.4962426E-002  0.4539897E+03  0.7818608E-02  0.1026539E+00
         21   -1    0    0  501  502  0.00000000000E+00  0.00000000000E+00  0.63348873987E+03  0.63348873987E+03  0.00000000000E+00 0. -1.
         21   -1    0    0  502  503 -0.00000000000E+00 -0.00000000000E+00 -0.41874163690E+03  0.41874163690E+03  0.00000000000E+00 0. -1.
    9000005    1    1    2  501    0 -0.12614280066E+03 -0.17376617373E+03  0.35583420361E+03  0.57682291022E+03  0.40000000000E+03 0.  1.
   -9000005    1    1    2    0  503  0.12614280066E+03  0.17376617373E+03 -0.14108710064E+03  0.47540746655E+03  0.40000000000E+03 0.  1.
<mgrwt>
<rscale>  2 0.45398975E+03</rscale>
<asrwt>0</asrwt>
<pdfrwt beam="1">  1       21 0.97459806E-01 0.45398975E+03</pdfrwt>
<pdfrwt beam="2">  1       21 0.64421790E-01 0.45398975E+03</pdfrwt>
<totfact> 0.16636586E+03</totfact>
</mgrwt>
</event>
<event>
 4    1  0.4962426E-002  0.4020817E+03  0.7818608E-02  0.1043061E+00
         21   -1    0    0  501  502  0.00000000000E+00  0.00000000000E+00  0.98840167238E+03  0.98840167238E+03  0.00000000000E+00 0. -1.
         21   -1    0    0  502  503 -0.00000000000E+00 -0.00000000000E+00 -0.42345481410E+03  0.42345481410E+03  0.00000000000E+00 0. -1.
    9000005    1    1    2  501    0 -0.57192550035E+01  0.40459689604E+02 -0.27055842590E+03  0.48463549002E+03  0.40000000000E+03 0. -1.
   -9000005    1    1    2    0  503  0.57192550035E+01 -0.40459689604E+02  0.83550528419E+03  0.92722099646E+03  0.40000000000E+03 0. -1.
<mgrwt>
<rscale>  2 0.40208170E+03</rscale>
<asrwt>0</asrwt>
<pdfrwt beam="1">  1       21 0.15206180E+00 0.40208170E+03</pdfrwt>
<pdfrwt beam="2">  1       21 0.65146895E-01 0.40208170E+03</pdfrwt>
<totfact> 0.53347299E+02</totfact>
</mgrwt>
</event>
<event>
 4    1  0.4962426E-002  0.5819775E+03  0.7818608E-02  0.9943519E-01
         21   -1    0    0  501  502  0.00000000000E+00  0.00000000000E+00  0.10650124887E+04  0.10650124887E+04  0.00000000000E+00 0. -1.
         21   -1    0    0  502  503 -0.00000000000E+00 -0.00000000000E+00 -0.66268931441E+03  0.66268931441E+03  0.00000000000E+00 0. -1.
    9000005    1    1    2  501    0  0.90586116811E+02 -0.41290673299E+03  0.82415522666E+03  0.10089249984E+04  0.40000000000E+03 0. -1.
   -9000005    1    1    2    0  503 -0.90586116811E+02  0.41290673299E+03 -0.42183205233E+03  0.71877680478E+03  0.40000000000E+03 0. -1.
<mgrwt>
<rscale>  2 0.58197750E+03</rscale>
<asrwt>0</asrwt>
<pdfrwt beam="1">  1       21 0.16384808E+00 0.58197750E+03</pdfrwt>
<pdfrwt beam="2">  1       21 0.10195220E+00 0.58197750E+03</pdfrwt>
<totfact> 0.14077958E+02</totfact>
</mgrwt>
</event>
<event>
 4    1  0.4962426E-002  0.7128319E+03  0.7818608E-02  0.9695536E-01
         21   -1    0    0  501  502  0.00000000000E+00  0.00000000000E+00  0.55039550164E+03  0.55039550164E+03  0.00000000000E+00 0. -1.
         21   -1    0    0  502  503 -0.00000000000E+00 -0.00000000000E+00 -0.93307736897E+03  0.93307736897E+03  0.00000000000E+00 0.  1.
    9000005    1    1    2  501    0  0.11598984103E+03  0.57851159052E+03 -0.11505498714E+03  0.72205744485E+03  0.40000000000E+03 0. -1.
   -9000005    1    1    2    0  503 -0.11598984103E+03 -0.57851159052E+03 -0.26762688019E+03  0.76141542576E+03  0.40000000000E+03 0.  1.
<mgrwt>
<rscale>  2 0.71283189E+03</rscale>
<asrwt>0</asrwt>
<pdfrwt beam="1">  1       21 0.84676232E-01 0.71283189E+03</pdfrwt>
<pdfrwt beam="2">  1       21 0.14355036E+00 0.71283189E+03</pdfrwt>
<totfact> 0.30371609E+02</totfact>
</mgrwt>
</event>
<event>
 4    1  0.4962426E-002  0.5138486E+03  0.7818608E-02  0.1010226E+00
         21   -1    0    0  503  502  0.00000000000E+00  0.00000000000E+00  0.15161089057E+04  0.15161089057E+04  0.00000000000E+00 0.  1.
         21   -1    0    0  501  503 -0.00000000000E+00 -0.00000000000E+00 -0.49677382348E+03  0.49677382348E+03  0.00000000000E+00 0. -1.
    9000005    1    1    2  501    0 -0.16991245731E+03 -0.27417168156E+03 -0.30139231979E+03  0.59571611070E+03  0.40000000000E+03 0. -1.
   -9000005    1    1    2    0  502  0.16991245731E+03  0.27417168156E+03  0.13207274020E+04  0.14171666185E+04  0.40000000000E+03 0.  1.
<mgrwt>
<rscale>  2 0.51384857E+03</rscale>
<asrwt>0</asrwt>
<pdfrwt beam="1">  1       21 0.23324752E+00 0.51384857E+03</pdfrwt>
<pdfrwt beam="2">  1       21 0.76426743E-01 0.51384857E+03</pdfrwt>
<totfact> 0.97079843E+01</totfact>
</mgrwt>
</event>
<event>
 4    1  0.4962426E-002  0.4940642E+03  0.7818608E-02  0.1015340E+00
         21   -1    0    0  503  502  0.00000000000E+00  0.00000000000E+00  0.22333996374E+03  0.22333996374E+03  0.00000000000E+00 0. -1.
         21   -1    0    0  501  503 -0.00000000000E+00 -0.00000000000E+00 -0.10992560069E+04  0.10992560069E+04  0.00000000000E+00 0. -1.
    9000005    1    1    2  501    0 -0.23566506439E+03 -0.16900125217E+03 -0.48804444223E+03  0.69446873465E+03  0.40000000000E+03 0. -1.
   -9000005    1    1    2    0  502  0.23566506439E+03  0.16900125217E+03 -0.38787160095E+03  0.62812723602E+03  0.40000000000E+03 0. -1.
<mgrwt>
<rscale>  2 0.49406421E+03</rscale>
<asrwt>0</asrwt>
<pdfrwt beam="1">  1       21 0.34359994E-01 0.49406421E+03</pdfrwt>
<pdfrwt beam="2">  1       21 0.16911631E+00 0.49406421E+03</pdfrwt>
<totfact> 0.14715580E+03</totfact>
</mgrwt>
</event>
<event>
 4    1  0.4962426E-002  0.4723823E+03  0.7818608E-02  0.1021250E+00
         21   -1    0    0  503  502  0.00000000000E+00  0.00000000000E+00  0.50998639742E+03  0.50998639742E+03  0.00000000000E+00 0.  1.
         21   -1    0    0  501  503 -0.00000000000E+00 -0.00000000000E+00 -0.69407380121E+03  0.69407380121E+03  0.00000000000E+00 0. -1.
    9000005    1    1    2  501    0  0.19406288486E+03 -0.15963917166E+03 -0.45804139581E+03  0.65798707334E+03  0.40000000000E+03 0. -1.
   -9000005    1    1    2    0  502 -0.19406288486E+03  0.15963917166E+03  0.27395399203E+03  0.54607312528E+03  0.40000000000E+03 0.  1.
<mgrwt>
<rscale>  2 0.47238233E+03</rscale>
<asrwt>0</asrwt>
<pdfrwt beam="1">  1       21 0.78459446E-01 0.47238233E+03</pdfrwt>
<pdfrwt beam="2">  1       21 0.10678058E+00 0.47238233E+03</pdfrwt>
<totfact> 0.84605939E+02</totfact>
</mgrwt>
</event>
<event>
 4    1  0.4962426E-002  0.8767393E+03  0.7818608E-02  0.9455135E-01
         21   -1    0    0  501  502  0.00000000000E+00  0.00000000000E+00  0.98649302002E+03  0.98649302002E+03  0.00000000000E+00 0. -1.
         21   -1    0    0  502  503 -0.00000000000E+00 -0.00000000000E+00 -0.78382086298E+03  0.78382086298E+03  0.00000000000E+00 0. -1.
    9000005    1    1    2  501    0 -0.20931038908E+03  0.75157233866E+03  0.16932561447E+03  0.89294063796E+03  0.40000000000E+03 0. -1.
   -9000005    1    1    2    0  503  0.20931038908E+03 -0.75157233866E+03  0.33346542569E+02  0.87737324504E+03  0.40000000000E+03 0. -1.
<mgrwt>
<rscale>  2 0.87673931E+03</rscale>
<asrwt>0</asrwt>
<pdfrwt beam="1">  1       21 0.15176816E+00 0.87673931E+03</pdfrwt>
<pdfrwt beam="2">  1       21 0.12058783E+00 0.87673931E+03</pdfrwt>
<totfact> 0.10393841E+02</totfact>
</mgrwt>
</event>
<event>
 4    1  0.4962426E-002  0.4981773E+03  0.7818608E-02  0.1014256E+00
         21   -1    0    0  503  502  0.00000000000E+00  0.00000000000E+00  0.26351391397E+03  0.26351391397E+03  0.00000000000E+00 0. -1.
         21   -1    0    0  501  503 -0.00000000000E+00 -0.00000000000E+00 -0.98226752639E+03  0.98226752639E+03  0.00000000000E+00 0. -1.
    9000005    1    1    2  501    0 -0.25589197095E+03  0.15066504896E+03 -0.48578756354E+03  0.69582340767E+03  0.40000000000E+03 0. -1.
   -9000005    1    1    2    0  502  0.25589197095E+03 -0.15066504896E+03 -0.23296604888E+03  0.54995803268E+03  0.40000000000E+03 0. -1.
<mgrwt>
<rscale>  2 0.49817734E+03</rscale>
<asrwt>0</asrwt>
<pdfrwt beam="1">  1       21 0.40540602E-01 0.49817734E+03</pdfrwt>
<pdfrwt beam="2">  1       21 0.15111808E+00 0.49817734E+03</pdfrwt>
<totfact> 0.14345009E+03</totfact>
</mgrwt>
</event>
<event>
 4    1  0.4962426E-002  0.6127198E+03  0.7818608E-02  0.9879362E-01
         21   -1    0    0  503  502  0.00000000000E+00  0.00000000000E+00  0.74859992589E+03  0.74859992589E+03  0.00000000000E+00 0. -1.
         21   -1    0    0  501  503 -0.00000000000E+00 -0.00000000000E+00 -0.55338251347E+03  0.55338251347E+03  0.00000000000E+00 0. -1.
    9000005    1    1    2  501    0 -0.45458587321E+03  0.93687151470E+02 -0.10171438951E+03  0.62110499556E+03  0.40000000000E+03 0. -1.
   -9000005    1    1    2    0  502  0.45458587321E+03 -0.93687151470E+02  0.29693180193E+03  0.68087744380E+03  0.40000000000E+03 0. -1.
<mgrwt>
<rscale>  2 0.61271984E+03</rscale>
<asrwt>0</asrwt>
<pdfrwt beam="1">  1       21 0.11516922E+00 0.61271984E+03</pdfrwt>
<pdfrwt beam="2">  1       21 0.85135771E-01 0.61271984E+03</pdfrwt>
<totfact> 0.55074085E+02</totfact>
</mgrwt>
</event>
<event>
 4    1  0.4962426E-002  0.4942421E+03  0.7818608E-02  0.1015293E+00
         21   -1    0    0  503  502  0.00000000000E+00  0.00000000000E+00  0.12682597730E+04  0.12682597730E+04  0.00000000000E+00 0. -1.
         21   -1    0    0  501  503 -0.00000000000E+00 -0.00000000000E+00 -0.21329508061E+03  0.21329508061E+03  0.00000000000E+00 0.  1.
    9000005    1    1    2  501    0  0.21617541047E+03  0.19376124483E+03  0.29677500756E+03  0.57649859775E+03  0.40000000000E+03 0.  1.
   -9000005    1    1    2    0  502 -0.21617541047E+03 -0.19376124483E+03  0.75818968481E+03  0.90505625584E+03  0.40000000000E+03 0. -1.
<mgrwt>
<rscale>  2 0.49424207E+03</rscale>
<asrwt>0</asrwt>
<pdfrwt beam="1">  1       21 0.19511688E+00 0.49424207E+03</pdfrwt>
<pdfrwt beam="2">  1       21 0.32814629E-01 0.49424207E+03</pdfrwt>
<totfact> 0.10596058E+03</totfact>
</mgrwt>
</event>
<event>
 4    1  0.4962426E-002  0.6023274E+03  0.7818608E-02  0.9900589E-01
         21   -1    0    0  503  502  0.00000000000E+00  0.00000000000E+00  0.44767317441E+03  0.44767317441E+03  0.00000000000E+00 0.  1.
         21   -1    0    0  501  503 -0.00000000000E+00 -0.00000000000E+00 -0.98926446612E+03  0.98926446612E+03  0.00000000000E+00 0.  1.
    9000005    1    1    2  501    0  0.40444055170E+03 -0.19805577454E+03 -0.57628997624E+03  0.83361165203E+03  0.40000000000E+03 0.  1.
   -9000005    1    1    2    0  502 -0.40444055170E+03  0.19805577454E+03  0.34698684533E+02  0.60332598850E+03  0.40000000000E+03 0.  1.
<mgrwt>
<rscale>  2 0.60232736E+03</rscale>
<asrwt>0</asrwt>
<pdfrwt beam="1">  1       21 0.68872797E-01 0.60232736E+03</pdfrwt>
<pdfrwt beam="2">  1       21 0.15219453E+00 0.60232736E+03</pdfrwt>
<totfact> 0.43193289E+02</totfact>
</mgrwt>
</event>
<event>
 4    1  0.4962426E-002  0.4365937E+03  0.7818608E-02  0.1031797E+00
         21   -1    0    0  503  502  0.00000000000E+00  0.00000000000E+00  0.45906268819E+03  0.45906268819E+03  0.00000000000E+00 0. -1.
         21   -1    0    0  501  503 -0.00000000000E+00 -0.00000000000E+00 -0.45606300127E+03  0.45606300127E+03  0.00000000000E+00 0. -1.
    9000005    1    1    2  501    0 -0.70155007956E+02 -0.16028819376E+03  0.13842200596E+03  0.45801166135E+03  0.40000000000E+03 0. -1.
   -9000005    1    1    2    0  502  0.70155007956E+02  0.16028819376E+03 -0.13542231905E+03  0.45711402811E+03  0.40000000000E+03 0. -1.
<mgrwt>
<rscale>  2 0.43659367E+03</rscale>
<asrwt>0</asrwt>
<pdfrwt beam="1">  1       21 0.70625029E-01 0.43659367E+03</pdfrwt>
<pdfrwt beam="2">  1       21 0.70163539E-01 0.43659367E+03</pdfrwt>
<totfact> 0.29292901E+03</totfact>
</mgrwt>
</event>
<event>
 4    1  0.4962426E-002  0.4373958E+03  0.7818608E-02  0.1031549E+00
         21   -1    0    0  503  502  0.00000000000E+00  0.00000000000E+00  0.13880354706E+04  0.13880354706E+04  0.00000000000E+00 0.  1.
         21   -1    0    0  501  503 -0.00000000000E+00 -0.00000000000E+00 -0.13881052318E+03  0.13881052318E+03  0.00000000000E+00 0.  1.
    9000005    1    1    2  501    0 -0.10839721543E+03 -0.13987554305E+03  0.56050148258E+03  0.71096908219E+03  0.40000000000E+03 0.  1.
   -9000005    1    1    2    0  502  0.10839721543E+03  0.13987554305E+03  0.68872346486E+03  0.81587691162E+03  0.40000000000E+03 0.  1.
<mgrwt>
<rscale>  2 0.43739584E+03</rscale>
<asrwt>0</asrwt>
<pdfrwt beam="1">  1       21 0.21354391E+00 0.43739584E+03</pdfrwt>
<pdfrwt beam="2">  1       21 0.21355466E-01 0.43739584E+03</pdfrwt>
<totfact> 0.19044879E+03</totfact>
</mgrwt>
</event>
<event>
 4    1  0.4962426E-002  0.4090488E+03  0.7818608E-02  0.1040691E+00
         21   -1    0    0  501  502  0.00000000000E+00  0.00000000000E+00  0.76535842643E+03  0.76535842643E+03  0.00000000000E+00 0. -1.
         21   -1    0    0  502  503 -0.00000000000E+00 -0.00000000000E+00 -0.22159358605E+03  0.22159358605E+03  0.00000000000E+00 0. -1.
    9000005    1    1    2  501    0 -0.35260410919E+02 -0.77959366033E+02  0.32906843497E+03  0.52498285136E+03  0.40000000000E+03 0. -1.
   -9000005    1    1    2    0  503  0.35260410919E+02  0.77959366033E+02  0.21469640541E+03  0.46196916112E+03  0.40000000000E+03 0. -1.
<mgrwt>
<rscale>  2 0.40904885E+03</rscale>
<asrwt>0</asrwt>
<pdfrwt beam="1">  1       21 0.11774745E+00 0.40904885E+03</pdfrwt>
<pdfrwt beam="2">  1       21 0.34091321E-01 0.40904885E+03</pdfrwt>
<totfact> 0.40634339E+03</totfact>
</mgrwt>
</event>
<event>
 4    1  0.4962426E-002  0.4766402E+03  0.7818608E-02  0.1020063E+00
         21   -1    0    0  503  502  0.00000000000E+00  0.00000000000E+00  0.37580012218E+03  0.37580012218E+03  0.00000000000E+00 0. -1.
         21   -1    0    0  501  503 -0.00000000000E+00 -0.00000000000E+00 -0.93395411192E+03  0.93395411192E+03  0.00000000000E+00 0.  1.
    9000005    1    1    2  501    0  0.24044231476E+03  0.96816147201E+02 -0.66800456470E+03  0.82061926101E+03  0.40000000000E+03 0. -1.
   -9000005    1    1    2    0  502 -0.24044231476E+03 -0.96816147201E+02  0.10985057495E+03  0.48913497309E+03  0.40000000000E+03 0. -1.
<mgrwt>
<rscale>  2 0.47664019E+03</rscale>
<asrwt>0</asrwt>
<pdfrwt beam="1">  1       21 0.57815404E-01 0.47664019E+03</pdfrwt>
<pdfrwt beam="2">  1       21 0.14368525E+00 0.47664019E+03</pdfrwt>
<totfact> 0.78092378E+02</totfact>
</mgrwt>
</event>
<event>
 4    1  0.4962426E-002  0.5448940E+03  0.7818608E-02  0.1002683E+00
         21   -1    0    0  503  502  0.00000000000E+00  0.00000000000E+00  0.12218712187E+04  0.12218712187E+04  0.00000000000E+00 0.  1.
         21   -1    0    0  501  503 -0.00000000000E+00 -0.00000000000E+00 -0.36105196260E+03  0.36105196260E+03  0.00000000000E+00 0. -1.
    9000005    1    1    2  501    0  0.31972080161E+03 -0.18624728565E+03 -0.22164286288E+02  0.54534456812E+03  0.40000000000E+03 0. -1.
   -9000005    1    1    2    0  502 -0.31972080161E+03  0.18624728565E+03  0.88298354234E+03  0.10375786131E+04  0.40000000000E+03 0.  1.
<mgrwt>
<rscale>  2 0.54489397E+03</rscale>
<asrwt>0</asrwt>
<pdfrwt beam="1">  1       21 0.18798019E+00 0.54489397E+03</pdfrwt>
<pdfrwt beam="2">  1       21 0.55546456E-01 0.54489397E+03</pdfrwt>
<totfact> 0.38734534E+02</totfact>
</mgrwt>
</event>
<event>
 4    1  0.4962426E-002  0.4765211E+03  0.7818608E-02  0.1020096E+00
         21   -1    0    0  501  502  0.00000000000E+00  0.00000000000E+00  0.48665498864E+03  0.48665498864E+03  0.00000000000E+00 0.  1.
         21   -1    0    0  502  503 -0.00000000000E+00 -0.00000000000E+00 -0.46856473139E+03  0.46856473139E+03  0.00000000000E+00 0.  1.
    9000005    1    1    2  501    0 -0.12398158382E+03  0.22737840836E+03 -0.21895680565E+02  0.47702389305E+03  0.40000000000E+03 0.  1.
   -9000005    1    1    2    0  503  0.12398158382E+03 -0.22737840836E+03  0.39985937816E+02  0.47819582698E+03  0.40000000000E+03 0.  1.
<mgrwt>
<rscale>  2 0.47652112E+03</rscale>
<asrwt>0</asrwt>
<pdfrwt beam="1">  1       21 0.74869999E-01 0.47652112E+03</pdfrwt>
<pdfrwt beam="2">  1       21 0.72086881E-01 0.47652112E+03</pdfrwt>
<totfact> 0.23798677E+03</totfact>
</mgrwt>
</event>
<event>
 4    1  0.4962426E-002  0.5959999E+03  0.7818608E-02  0.9913740E-01
         21   -1    0    0  501  502  0.00000000000E+00  0.00000000000E+00  0.12413688901E+04  0.12413688901E+04  0.00000000000E+00 0.  1.
         21   -1    0    0  502  503 -0.00000000000E+00 -0.00000000000E+00 -0.33750715665E+03  0.33750715665E+03  0.00000000000E+00 0.  1.
    9000005    1    1    2  501    0  0.40286001416E+03  0.18143795055E+03  0.75988293097E+03  0.96573184150E+03  0.40000000000E+03 0.  1.
   -9000005    1    1    2    0  503 -0.40286001416E+03 -0.18143795055E+03  0.14397880251E+03  0.61314420529E+03  0.40000000000E+03 0.  1.
<mgrwt>
<rscale>  2 0.59599993E+03</rscale>
<asrwt>0</asrwt>
<pdfrwt beam="1">  1       21 0.19097983E+00 0.59599993E+03</pdfrwt>
<pdfrwt beam="2">  1       21 0.51924179E-01 0.59599993E+03</pdfrwt>
<totfact> 0.41889795E+02</totfact>
</mgrwt>
</event>
<event>
 4    1  0.4962426E-002  0.4137313E+03  0.7818608E-02  0.1039126E+00
         21   -1    0    0  501  502  0.00000000000E+00  0.00000000000E+00  0.79375125850E+03  0.79375125850E+03  0.00000000000E+00 0. -1.
         21   -1    0    0  502  503 -0.00000000000E+00 -0.00000000000E+00 -0.23496874276E+03  0.23496874276E+03  0.00000000000E+00 0. -1.
    9000005    1    1    2  501    0  0.10564124001E+03  0.36738139361E+01  0.13191033115E+03  0.43425096887E+03  0.40000000000E+03 0. -1.
   -9000005    1    1    2    0  503 -0.10564124001E+03 -0.36738139361E+01  0.42687218459E+03  0.59446903239E+03  0.40000000000E+03 0. -1.
<mgrwt>
<rscale>  2 0.41373128E+03</rscale>
<asrwt>0</asrwt>
<pdfrwt beam="1">  1       21 0.12211558E+00 0.41373128E+03</pdfrwt>
<pdfrwt beam="2">  1       21 0.36149038E-01 0.41373128E+03</pdfrwt>
<totfact> 0.32850438E+03</totfact>
</mgrwt>
</event>
<event>
 4    1  0.4962426E-002  0.4114577E+03  0.7818608E-02  0.1039883E+00
         21   -1    0    0  501  502  0.00000000000E+00  0.00000000000E+00  0.65850594508E+03  0.65850594508E+03  0.00000000000E+00 0.  1.
         21   -1    0    0  502  503 -0.00000000000E+00 -0.00000000000E+00 -0.50295076010E+03  0.50295076010E+03  0.00000000000E+00 0.  1.
    9000005    1    1    2  501    0  0.51995777203E+02 -0.81202906911E+02  0.48380185125E+03  0.63510763199E+03  0.40000000000E+03 0.  1.
   -9000005    1    1    2    0  503 -0.51995777203E+02  0.81202906911E+02 -0.32824666627E+03  0.52634907320E+03  0.40000000000E+03 0.  1.
<mgrwt>
<rscale>  2 0.41145774E+03</rscale>
<asrwt>0</asrwt>
<pdfrwt beam="1">  1       21 0.10130861E+00 0.41145774E+03</pdfrwt>
<pdfrwt beam="2">  1       21 0.77377040E-01 0.41145774E+03</pdfrwt>
<totfact> 0.10200254E+03</totfact>
</mgrwt>
</event>
<event>
 4    1  0.4962426E-002  0.4005937E+03  0.7818608E-02  0.1043574E+00
         21   -1    0    0  503  502  0.00000000000E+00  0.00000000000E+00  0.80538457825E+03  0.80538457825E+03  0.00000000000E+00 0. -1.
         21   -1    0    0  501  503 -0.00000000000E+00 -0.00000000000E+00 -0.20956417442E+03  0.20956417442E+03  0.00000000000E+00 0. -1.
    9000005    1    1    2  501    0 -0.16110143917E+02  0.14690330673E+02  0.41047649866E+03  0.57355583730E+03  0.40000000000E+03 0. -1.
   -9000005    1    1    2    0  502  0.16110143917E+02 -0.14690330673E+02  0.18534390517E+03  0.44139291537E+03  0.40000000000E+03 0. -1.
<mgrwt>
<rscale>  2 0.40059374E+03</rscale>
<asrwt>0</asrwt>
<pdfrwt beam="1">  1       21 0.12390532E+00 0.40059374E+03</pdfrwt>
<pdfrwt beam="2">  1       21 0.32240643E-01 0.40059374E+03</pdfrwt>
<totfact> 0.40061101E+03</totfact>
</mgrwt>
</event>
<event>
 4    1  0.4962426E-002  0.6338196E+03  0.7818608E-02  0.9837623E-01
         21   -1    0    0  503  502  0.00000000000E+00  0.00000000000E+00  0.96883376033E+03  0.96883376033E+03  0.00000000000E+00 0. -1.
         21   -1    0    0  501  503 -0.00000000000E+00 -0.00000000000E+00 -0.62688793780E+03  0.62688793780E+03  0.00000000000E+00 0.  1.
    9000005    1    1    2  501    0  0.46391686260E+03 -0.16281415026E+03 -0.29326788337E+03  0.69837909072E+03  0.40000000000E+03 0.  1.
   -9000005    1    1    2    0  502 -0.46391686260E+03  0.16281415026E+03  0.63521370590E+03  0.89734260742E+03  0.40000000000E+03 0. -1.
<mgrwt>
<rscale>  2 0.63381961E+03</rscale>
<asrwt>0</asrwt>
<pdfrwt beam="1">  1       21 0.14905135E+00 0.63381961E+03</pdfrwt>
<pdfrwt beam="2">  1       21 0.96444298E-01 0.63381961E+03</pdfrwt>
<totfact> 0.20587647E+02</totfact>
</mgrwt>
</event>
<event>
 4    1  0.4962426E-002  0.4085408E+03  0.7818608E-02  0.1040862E+00
         21   -1    0    0  501  502  0.00000000000E+00  0.00000000000E+00  0.55917160921E+03  0.55917160921E+03  0.00000000000E+00 0. -1.
         21   -1    0    0  502  503 -0.00000000000E+00 -0.00000000000E+00 -0.42183483965E+03  0.42183483965E+03  0.00000000000E+00 0. -1.
    9000005    1    1    2  501    0 -0.69392372534E+02  0.45719442480E+02  0.33390657925E+03  0.52763545413E+03  0.40000000000E+03 0. -1.
   -9000005    1    1    2    0  503  0.69392372534E+02 -0.45719442480E+02 -0.19656980968E+03  0.45337099473E+03  0.40000000000E+03 0. -1.
<mgrwt>
<rscale>  2 0.40854078E+03</rscale>
<asrwt>0</asrwt>
<pdfrwt beam="1">  1       21 0.86026402E-01 0.40854078E+03</pdfrwt>
<pdfrwt beam="2">  1       21 0.64897667E-01 0.40854078E+03</pdfrwt>
<totfact> 0.22411195E+03</totfact>
</mgrwt>
</event>
<event>
 4    1  0.4962426E-002  0.4004423E+03  0.7818608E-02  0.1043627E+00
         21   -1    0    0  501  502  0.00000000000E+00  0.00000000000E+00  0.10031922114E+04  0.10031922114E+04  0.00000000000E+00 0. -1.
         21   -1    0    0  502  503 -0.00000000000E+00 -0.00000000000E+00 -0.36320717866E+03  0.36320717866E+03  0.00000000000E+00 0. -1.
    9000005    1    1    2  501    0  0.14370017646E+02 -0.12145217415E+02  0.83121139231E+03  0.92264098241E+03  0.40000000000E+03 0. -1.
   -9000005    1    1    2    0  503 -0.14370017646E+02  0.12145217415E+02 -0.19122635961E+03  0.44375840761E+03  0.40000000000E+03 0. -1.
<mgrwt>
<rscale>  2 0.40044226E+03</rscale>
<asrwt>0</asrwt>
<pdfrwt beam="1">  1       21 0.15433726E+00 0.40044226E+03</pdfrwt>
<pdfrwt beam="2">  1       21 0.55878028E-01 0.40044226E+03</pdfrwt>
<totfact> 0.71742219E+02</totfact>
</mgrwt>
</event>
<event>
 4    1  0.4962426E-002  0.4627320E+03  0.7818608E-02  0.1023992E+00
         21   -1    0    0  503  502  0.00000000000E+00  0.00000000000E+00  0.27336467184E+03  0.27336467184E+03  0.00000000000E+00 0. -1.
         21   -1    0    0  501  503 -0.00000000000E+00 -0.00000000000E+00 -0.23715895274E+04  0.23715895274E+04  0.00000000000E+00 0. -1.
    9000005    1    1    2  501    0 -0.21028932920E+03  0.99495152259E+02 -0.21313835373E+04  0.21810356876E+04  0.40000000000E+03 0. -1.
   -9000005    1    1    2    0  502  0.21028932920E+03 -0.99495152259E+02  0.33158681756E+02  0.46391851167E+03  0.40000000000E+03 0. -1.
<mgrwt>
<rscale>  2 0.46273198E+03</rscale>
<asrwt>0</asrwt>
<pdfrwt beam="1">  1       21 0.42056103E-01 0.46273198E+03</pdfrwt>
<pdfrwt beam="2">  1       21 0.36485993E+00 0.46273198E+03</pdfrwt>
<totfact> 0.57772727E+01</totfact>
</mgrwt>
</event>
<event>
 4    1  0.4962426E-002  0.5012757E+03  0.7818608E-02  0.1013446E+00
         21   -1    0    0  503  502  0.00000000000E+00  0.00000000000E+00  0.10962806928E+04  0.10962806928E+04  0.00000000000E+00 0.  1.
         21   -1    0    0  501  503 -0.00000000000E+00 -0.00000000000E+00 -0.82630920842E+03  0.82630920842E+03  0.00000000000E+00 0.  1.
    9000005    1    1    2  501    0 -0.97736132738E+02 -0.28587589119E+03 -0.68217780379E+03  0.84654824599E+03  0.40000000000E+03 0.  1.
   -9000005    1    1    2    0  502  0.97736132738E+02  0.28587589119E+03  0.95214928821E+03  0.10760416553E+04  0.40000000000E+03 0.  1.
<mgrwt>
<rscale>  2 0.50127575E+03</rscale>
<asrwt>0</asrwt>
<pdfrwt beam="1">  1       21 0.16865857E+00 0.50127575E+03</pdfrwt>
<pdfrwt beam="2">  1       21 0.12712449E+00 0.50127575E+03</pdfrwt>
<totfact> 0.77150254E+01</totfact>
</mgrwt>
</event>
<event>
 4    1  0.4962426E-002  0.5506086E+03  0.7818608E-02  0.1001353E+00
         21   -1    0    0  501  502  0.00000000000E+00  0.00000000000E+00  0.83030955061E+03  0.83030955061E+03  0.00000000000E+00 0.  1.
         21   -1    0    0  502  503 -0.00000000000E+00 -0.00000000000E+00 -0.36513315968E+03  0.36513315968E+03  0.00000000000E+00 0. -1.
    9000005    1    1    2  501    0  0.14077624943E+03  0.35121492935E+03  0.23050835968E+03  0.59691203949E+03  0.40000000000E+03 0. -1.
   -9000005    1    1    2    0  503 -0.14077624943E+03 -0.35121492935E+03  0.23466803124E+03  0.59853067080E+03  0.40000000000E+03 0.  1.
<mgrwt>
<rscale>  2 0.55060864E+03</rscale>
<asrwt>0</asrwt>
<pdfrwt beam="1">  1       21 0.12773993E+00 0.55060864E+03</pdfrwt>
<pdfrwt beam="2">  1       21 0.56174333E-01 0.55060864E+03</pdfrwt>
<totfact> 0.11036505E+03</totfact>
</mgrwt>
</event>
<event>
 4    1  0.4962426E-002  0.4756634E+03  0.7818608E-02  0.1020334E+00
         21   -1    0    0  501  502  0.00000000000E+00  0.00000000000E+00  0.75722816682E+03  0.75722816682E+03  0.00000000000E+00 0. -1.
         21   -1    0    0  502  503 -0.00000000000E+00 -0.00000000000E+00 -0.38950333802E+03  0.38950333802E+03  0.00000000000E+00 0.  1.
    9000005    1    1    2  501    0  0.24934136309E+03 -0.63910683146E+02 -0.92832201149E+02  0.48463750199E+03  0.40000000000E+03 0.  1.
   -9000005    1    1    2    0  503 -0.24934136309E+03  0.63910683146E+02  0.46055702994E+03  0.66209400284E+03  0.40000000000E+03 0. -1.
<mgrwt>
<rscale>  2 0.47566342E+03</rscale>
<asrwt>0</asrwt>
<pdfrwt beam="1">  1       21 0.11649664E+00 0.47566342E+03</pdfrwt>
<pdfrwt beam="2">  1       21 0.59923590E-01 0.47566342E+03</pdfrwt>
<totfact> 0.12463571E+03</totfact>
</mgrwt>
</event>
<event>
 4    1  0.4962426E-002  0.4351375E+03  0.7818608E-02  0.1032249E+00
         21   -1    0    0  501  502  0.00000000000E+00  0.00000000000E+00  0.58061062104E+03  0.58061062104E+03  0.00000000000E+00 0.  1.
         21   -1    0    0  502  503 -0.00000000000E+00 -0.00000000000E+00 -0.32752521502E+03  0.32752521502E+03  0.00000000000E+00 0.  1.
    9000005    1    1    2  501    0 -0.29760894282E+01 -0.17127704934E+03  0.15635842594E+03  0.46237716434E+03  0.40000000000E+03 0.  1.
   -9000005    1    1    2    0  503  0.29760894282E+01  0.17127704934E+03  0.96726980080E+02  0.44575867172E+03  0.40000000000E+03 0.  1.
<mgrwt>
<rscale>  2 0.43513755E+03</rscale>
<asrwt>0</asrwt>
<pdfrwt beam="1">  1       21 0.89324711E-01 0.43513755E+03</pdfrwt>
<pdfrwt beam="2">  1       21 0.50388494E-01 0.43513755E+03</pdfrwt>
<totfact> 0.35174020E+03</totfact>
</mgrwt>
</event>
<event>
 4    1  0.4962426E-002  0.4729728E+03  0.7818608E-02  0.1021085E+00
         21   -1    0    0  503  502  0.00000000000E+00  0.00000000000E+00  0.13838867159E+04  0.13838867159E+04  0.00000000000E+00 0. -1.
         21   -1    0    0  501  503 -0.00000000000E+00 -0.00000000000E+00 -0.27614877505E+03  0.27614877505E+03  0.00000000000E+00 0. -1.
    9000005    1    1    2  501    0  0.23037202251E+02  0.25134144598E+03  0.19404241548E+02  0.47337063676E+03  0.40000000000E+03 0. -1.
   -9000005    1    1    2    0  502 -0.23037202251E+02 -0.25134144598E+03  0.10883336993E+04  0.11866648542E+04  0.40000000000E+03 0. -1.
<mgrwt>
<rscale>  2 0.47297276E+03</rscale>
<asrwt>0</asrwt>
<pdfrwt beam="1">  1       21 0.21290564E+00 0.47297276E+03</pdfrwt>
<pdfrwt beam="2">  1       21 0.42484428E-01 0.47297276E+03</pdfrwt>
<totfact> 0.48087752E+02</totfact>
</mgrwt>
</event>
<event>
 4    1  0.4962426E-002  0.4009768E+03  0.7818608E-02  0.1043442E+00
         21   -1    0    0  503  502  0.00000000000E+00  0.00000000000E+00  0.24758174337E+03  0.24758174337E+03  0.00000000000E+00 0. -1.
         21   -1    0    0  501  503 -0.00000000000E+00 -0.00000000000E+00 -0.10732651663E+04  0.10732651663E+04  0.00000000000E+00 0. -1.
    9000005    1    1    2  501    0 -0.20558654607E+02  0.18965898541E+02 -0.82786941177E+03  0.91986418918E+03  0.40000000000E+03 0. -1.
   -9000005    1    1    2    0  502  0.20558654607E+02 -0.18965898541E+02  0.21859888296E+01  0.40098272049E+03  0.40000000000E+03 0. -1.
<mgrwt>
<rscale>  2 0.40097676E+03</rscale>
<asrwt>0</asrwt>
<pdfrwt beam="1">  1       21 0.38089499E-01 0.40097676E+03</pdfrwt>
<pdfrwt beam="2">  1       21 0.16511772E+00 0.40097676E+03</pdfrwt>
<totfact> 0.13290484E+03</totfact>
</mgrwt>
</event>
<event>
 4    1  0.4962426E-002  0.4094709E+03  0.7818608E-02  0.1040549E+00
         21   -1    0    0  503  502  0.00000000000E+00  0.00000000000E+00  0.27304293436E+03  0.27304293436E+03  0.00000000000E+00 0. -1.
         21   -1    0    0  501  503 -0.00000000000E+00 -0.00000000000E+00 -0.82533259027E+03  0.82533259027E+03  0.00000000000E+00 0.  1.
    9000005    1    1    2  501    0  0.42442953288E+02  0.76583541638E+02 -0.55400195266E+03  0.68890101371E+03  0.40000000000E+03 0.  1.
   -9000005    1    1    2    0  502 -0.42442953288E+02 -0.76583541638E+02  0.17122967471E+01  0.40947451092E+03  0.40000000000E+03 0. -1.
<mgrwt>
<rscale>  2 0.40947093E+03</rscale>
<asrwt>0</asrwt>
<pdfrwt beam="1">  1       21 0.42006607E-01 0.40947093E+03</pdfrwt>
<pdfrwt beam="2">  1       21 0.12697424E+00 0.40947093E+03</pdfrwt>
<totfact> 0.21889584E+03</totfact>
</mgrwt>
</event>
<event>
 4    1  0.4962426E-002  0.5213207E+03  0.7818608E-02  0.1008359E+00
         21   -1    0    0  501  502  0.00000000000E+00  0.00000000000E+00  0.34796603214E+03  0.34796603214E+03  0.00000000000E+00 0. -1.
         21   -1    0    0  502  503 -0.00000000000E+00 -0.00000000000E+00 -0.33734429287E+04  0.33734429287E+04  0.00000000000E+00 0.  1.
    9000005    1    1    2  501    0  0.19368340981E+03  0.27251051479E+03  0.11840443859E+03  0.53459784416E+03  0.40000000000E+03 0. -1.
   -9000005    1    1    2    0  503 -0.19368340981E+03 -0.27251051479E+03 -0.31438813351E+04  0.31868111167E+04  0.40000000000E+03 0.  1.
<mgrwt>
<rscale>  2 0.52132067E+03</rscale>
<asrwt>0</asrwt>
<pdfrwt beam="1">  1       21 0.53533236E-01 0.52132067E+03</pdfrwt>
<pdfrwt beam="2">  1       21 0.51899122E+00 0.52132067E+03</pdfrwt>
<totfact> 0.30500852E+00</totfact>
</mgrwt>
</event>
<event>
 4    1  0.4962426E-002  0.4182862E+03  0.7818608E-02  0.1037626E+00
         21   -1    0    0  503  502  0.00000000000E+00  0.00000000000E+00  0.67939994092E+03  0.67939994092E+03  0.00000000000E+00 0.  1.
         21   -1    0    0  501  503 -0.00000000000E+00 -0.00000000000E+00 -0.43542812915E+03  0.43542812915E+03  0.00000000000E+00 0.  1.
    9000005    1    1    2  501    0 -0.10969485609E+03 -0.54132739164E+02 -0.23430926324E+03  0.47944149356E+03  0.40000000000E+03 0.  1.
   -9000005    1    1    2    0  502  0.10969485609E+03  0.54132739164E+02  0.47828107501E+03  0.63538657652E+03  0.40000000000E+03 0.  1.
<mgrwt>
<rscale>  2 0.41828616E+03</rscale>
<asrwt>0</asrwt>
<pdfrwt beam="1">  1       21 0.10452307E+00 0.41828616E+03</pdfrwt>
<pdfrwt beam="2">  1       21 0.66988943E-01 0.41828616E+03</pdfrwt>
<totfact> 0.13049792E+03</totfact>
</mgrwt>
</event>
<event>
 4    1  0.4962426E-002  0.4725043E+03  0.7818608E-02  0.1021216E+00
         21   -1    0    0  501  502  0.00000000000E+00  0.00000000000E+00  0.22435985609E+03  0.22435985609E+03  0.00000000000E+00 0. -1.
         21   -1    0    0  502  503 -0.00000000000E+00 -0.00000000000E+00 -0.10289521807E+04  0.10289521807E+04  0.00000000000E+00 0. -1.
    9000005    1    1    2  501    0 -0.25118094780E+03  0.12978855808E+02 -0.28863033786E+03  0.55368564291E+03  0.40000000000E+03 0. -1.
   -9000005    1    1    2    0  503  0.25118094780E+03 -0.12978855808E+02 -0.51596198674E+03  0.69962639387E+03  0.40000000000E+03 0. -1.
<mgrwt>
<rscale>  2 0.47250431E+03</rscale>
<asrwt>0</asrwt>
<pdfrwt beam="1">  1       21 0.34516900E-01 0.47250431E+03</pdfrwt>
<pdfrwt beam="2">  1       21 0.15830034E+00 0.47250431E+03</pdfrwt>
<totfact> 0.17710627E+03</totfact>
</mgrwt>
</event>
<event>
 4    1  0.4962426E-002  0.4191892E+03  0.7818608E-02  0.1037331E+00
         21   -1    0    0  503  502  0.00000000000E+00  0.00000000000E+00  0.48886331814E+03  0.48886331814E+03  0.00000000000E+00 0. -1.
         21   -1    0    0  501  503 -0.00000000000E+00 -0.00000000000E+00 -0.78802560583E+03  0.78802560583E+03  0.00000000000E+00 0. -1.
    9000005    1    1    2  501    0 -0.11862601105E+03 -0.40588882380E+02 -0.62041653513E+03  0.74875647906E+03  0.40000000000E+03 0. -1.
   -9000005    1    1    2    0  502  0.11862601105E+03  0.40588882380E+02  0.32125424743E+03  0.52813244491E+03  0.40000000000E+03 0. -1.
<mgrwt>
<rscale>  2 0.41918920E+03</rscale>
<asrwt>0</asrwt>
<pdfrwt beam="1">  1       21 0.75209743E-01 0.41918920E+03</pdfrwt>
<pdfrwt beam="2">  1       21 0.12123471E+00 0.41918920E+03</pdfrwt>
<totfact> 0.69445776E+02</totfact>
</mgrwt>
</event>
<event>
 4    1  0.4962426E-002  0.4499005E+03  0.7818608E-02  0.1027752E+00
         21   -1    0    0  503  502  0.00000000000E+00  0.00000000000E+00  0.97874683469E+03  0.97874683469E+03  0.00000000000E+00 0.  1.
         21   -1    0    0  501  503 -0.00000000000E+00 -0.00000000000E+00 -0.21031032757E+03  0.21031032757E+03  0.00000000000E+00 0.  1.
    9000005    1    1    2  501    0  0.13449031798E+03  0.15595785413E+03  0.30747172978E+03  0.54493060339E+03  0.40000000000E+03 0.  1.
   -9000005    1    1    2    0  502 -0.13449031798E+03 -0.15595785413E+03  0.46096477734E+03  0.64412655887E+03  0.40000000000E+03 0.  1.
<mgrwt>
<rscale>  2 0.44990054E+03</rscale>
<asrwt>0</asrwt>
<pdfrwt beam="1">  1       21 0.15057643E+00 0.44990054E+03</pdfrwt>
<pdfrwt beam="2">  1       21 0.32355436E-01 0.44990054E+03</pdfrwt>
<totfact> 0.23350268E+03</totfact>
</mgrwt>
</event>
<event>
 4    1  0.4962426E-002  0.4168231E+03  0.7818608E-02  0.1038105E+00
         21   -1    0    0  501  502  0.00000000000E+00  0.00000000000E+00  0.10101463710E+04  0.10101463710E+04  0.00000000000E+00 0. -1.
         21   -1    0    0  502  503 -0.00000000000E+00 -0.00000000000E+00 -0.27917665138E+03  0.27917665138E+03  0.00000000000E+00 0. -1.
    9000005    1    1    2  501    0 -0.67934762007E+02 -0.95532226098E+02  0.76492304795E+03  0.87111928425E+03  0.40000000000E+03 0. -1.
   -9000005    1    1    2    0  503  0.67934762007E+02  0.95532226098E+02 -0.33953328292E+02  0.41820373816E+03  0.40000000000E+03 0. -1.
<mgrwt>
<rscale>  2 0.41682315E+03</rscale>
<asrwt>0</asrwt>
<pdfrwt beam="1">  1       21 0.15540713E+00 0.41682315E+03</pdfrwt>
<pdfrwt beam="2">  1       21 0.42950255E-01 0.41682315E+03</pdfrwt>
<totfact> 0.12190597E+03</totfact>
</mgrwt>
</event>
<event>
 4    1  0.4962426E-002  0.4167136E+03  0.7818608E-02  0.1038141E+00
         21   -1    0    0  501  502  0.00000000000E+00  0.00000000000E+00  0.11191869442E+04  0.11191869442E+04  0.00000000000E+00 0. -1.
         21   -1    0    0  502  503 -0.00000000000E+00 -0.00000000000E+00 -0.27029989501E+03  0.27029989501E+03  0.00000000000E+00 0. -1.
    9000005    1    1    2  501    0 -0.10141707803E+03 -0.58007204110E+02  0.87788277855E+03  0.97176562623E+03  0.40000000000E+03 0. -1.
   -9000005    1    1    2    0  503  0.10141707803E+03  0.58007204110E+02 -0.28995729377E+02  0.41772121297E+03  0.40000000000E+03 0. -1.
<mgrwt>
<rscale>  2 0.41671364E+03</rscale>
<asrwt>0</asrwt>
<pdfrwt beam="1">  1       21 0.17218260E+00 0.41671364E+03</pdfrwt>
<pdfrwt beam="2">  1       21 0.41584600E-01 0.41671364E+03</pdfrwt>
<totfact> 0.97825438E+02</totfact>
</mgrwt>
</event>
<event>
 4    1  0.4962426E-002  0.5108814E+03  0.7818608E-02  0.1010977E+00
         21   -1    0    0  503  502  0.00000000000E+00  0.00000000000E+00  0.35051871133E+03  0.35051871133E+03  0.00000000000E+00 0. -1.
         21   -1    0    0  501  503 -0.00000000000E+00 -0.00000000000E+00 -0.74468951015E+03  0.74468951015E+03  0.00000000000E+00 0.  1.
    9000005    1    1    2  501    0 -0.12557837963E+02 -0.31755638648E+03 -0.19142909794E+03  0.54556838016E+03  0.40000000000E+03 0.  1.
   -9000005    1    1    2    0  502  0.12557837963E+02  0.31755638648E+03 -0.20274170088E+03  0.54963984132E+03  0.40000000000E+03 0. -1.
<mgrwt>
<rscale>  2 0.51088135E+03</rscale>
<asrwt>0</asrwt>
<pdfrwt beam="1">  1       21 0.53925956E-01 0.51088135E+03</pdfrwt>
<pdfrwt beam="2">  1       21 0.11456762E+00 0.51088135E+03</pdfrwt>
<totfact> 0.16141932E+03</totfact>
</mgrwt>
</event>
<event>
 4    1  0.4962426E-002  0.5804174E+03  0.7818608E-02  0.9946888E-01
         21   -1    0    0  501  502  0.00000000000E+00  0.00000000000E+00  0.53261384358E+03  0.53261384358E+03  0.00000000000E+00 0. -1.
         21   -1    0    0  502  503 -0.00000000000E+00 -0.00000000000E+00 -0.67980818434E+03  0.67980818434E+03  0.00000000000E+00 0. -1.
    9000005    1    1    2  501    0  0.41154865295E+03 -0.86672497014E+02  0.86301804741E+02  0.58679844664E+03  0.40000000000E+03 0. -1.
   -9000005    1    1    2    0  503 -0.41154865295E+03  0.86672497014E+02 -0.23349614550E+03  0.62562358127E+03  0.40000000000E+03 0. -1.
<mgrwt>
<rscale>  2 0.58041745E+03</rscale>
<asrwt>0</asrwt>
<pdfrwt beam="1">  1       21 0.81940592E-01 0.58041745E+03</pdfrwt>
<pdfrwt beam="2">  1       21 0.10458587E+00 0.58041745E+03</pdfrwt>
<totfact> 0.77461323E+02</totfact>
</mgrwt>
</event>
<event>
 4    1  0.4962426E-002  0.4435406E+03  0.7818608E-02  0.1029666E+00
         21   -1    0    0  503  502  0.00000000000E+00  0.00000000000E+00  0.25613943438E+04  0.25613943438E+04  0.00000000000E+00 0. -1.
         21   -1    0    0  501  503 -0.00000000000E+00 -0.00000000000E+00 -0.19930615695E+03  0.19930615695E+03  0.00000000000E+00 0.  1.
    9000005    1    1    2  501    0 -0.19081200068E+03 -0.17861558903E+02  0.98865882847E+02  0.45442570095E+03  0.40000000000E+03 0.  1.
   -9000005    1    1    2    0  502  0.19081200068E+03  0.17861558903E+02  0.22632223040E+04  0.23062747998E+04  0.40000000000E+03 0. -1.
<mgrwt>
<rscale>  2 0.44354059E+03</rscale>
<asrwt>0</asrwt>
<pdfrwt beam="1">  1       21 0.39406065E+00 0.44354059E+03</pdfrwt>
<pdfrwt beam="2">  1       21 0.30662487E-01 0.44354059E+03</pdfrwt>
<totfact> 0.72903361E+01</totfact>
</mgrwt>
</event>
<event>
 4    1  0.4962426E-002  0.4624797E+03  0.7818608E-02  0.1024064E+00
         21   -1    0    0  503  502  0.00000000000E+00  0.00000000000E+00  0.86101996744E+03  0.86101996744E+03  0.00000000000E+00 0.  1.
         21   -1    0    0  501  503 -0.00000000000E+00 -0.00000000000E+00 -0.35299931183E+03  0.35299931183E+03  0.00000000000E+00 0. -1.
    9000005    1    1    2  501    0 -0.13108468810E+03  0.19158363890E+03 -0.76396227859E+02  0.46874712776E+03  0.40000000000E+03 0. -1.
   -9000005    1    1    2    0  502  0.13108468810E+03 -0.19158363890E+03  0.58441688347E+03  0.74527215152E+03  0.40000000000E+03 0.  1.
<mgrwt>
<rscale>  2 0.46247971E+03</rscale>
<asrwt>0</asrwt>
<pdfrwt beam="1">  1       21 0.13246461E+00 0.46247971E+03</pdfrwt>
<pdfrwt beam="2">  1       21 0.54307587E-01 0.46247971E+03</pdfrwt>
<totfact> 0.11157697E+03</totfact>
</mgrwt>
</event>
<event>
 4    1  0.4962426E-002  0.4374290E+03  0.7818608E-02  0.1031539E+00
         21   -1    0    0  503  502  0.00000000000E+00  0.00000000000E+00  0.12152749854E+04  0.12152749854E+04  0.00000000000E+00 0.  1.
         21   -1    0    0  501  503 -0.00000000000E+00 -0.00000000000E+00 -0.17311131728E+03  0.17311131728E+03  0.00000000000E+00 0.  1.
    9000005    1    1    2  501    0  0.14600743179E+03 -0.10012989939E+03  0.31227641152E+03  0.53745764864E+03  0.40000000000E+03 0.  1.
   -9000005    1    1    2    0  502 -0.14600743179E+03  0.10012989939E+03  0.72988725657E+03  0.85092865399E+03  0.40000000000E+03 0.  1.
<mgrwt>
<rscale>  2 0.43742904E+03</rscale>
<asrwt>0</asrwt>
<pdfrwt beam="1">  1       21 0.18696538E+00 0.43742904E+03</pdfrwt>
<pdfrwt beam="2">  1       21 0.26632511E-01 0.43742904E+03</pdfrwt>
<totfact> 0.18675580E+03</totfact>
</mgrwt>
</event>
<event>
 4    1  0.4962426E-002  0.4536176E+03  0.7818608E-02  0.1026649E+00
         21   -1    0    0  503  502  0.00000000000E+00  0.00000000000E+00  0.12610114758E+04  0.12610114758E+04  0.00000000000E+00 0.  1.
         21   -1    0    0  501  503 -0.00000000000E+00 -0.00000000000E+00 -0.17229540250E+03  0.17229540250E+03  0.00000000000E+00 0.  1.
    9000005    1    1    2  501    0  0.42020221429E+02  0.20976940815E+03  0.37949777941E+03  0.59142832886E+03  0.40000000000E+03 0.  1.
   -9000005    1    1    2    0  502 -0.42020221429E+02 -0.20976940815E+03  0.70921829391E+03  0.84187854945E+03  0.40000000000E+03 0.  1.
<mgrwt>
<rscale>  2 0.45361757E+03</rscale>
<asrwt>0</asrwt>
<pdfrwt beam="1">  1       21 0.19400176E+00 0.45361757E+03</pdfrwt>
<pdfrwt beam="2">  1       21 0.26506986E-01 0.45361757E+03</pdfrwt>
<totfact> 0.16757637E+03</totfact>
</mgrwt>
</event>
<event>
 4    1  0.4962426E-002  0.6705151E+03  0.7818608E-02  0.9769028E-01
         21   -1    0    0  501  502  0.00000000000E+00  0.00000000000E+00  0.21816502042E+04  0.21816502042E+04  0.00000000000E+00 0. -1.
         21   -1    0    0  502  503 -0.00000000000E+00 -0.00000000000E+00 -0.20766130215E+03  0.20766130215E+03  0.00000000000E+00 0. -1.
    9000005    1    1    2  501    0 -0.34894552245E+03 -0.40966750398E+03  0.88268441284E+03  0.11084774306E+04  0.40000000000E+03 0. -1.
   -9000005    1    1    2    0  503  0.34894552245E+03  0.40966750398E+03  0.10913044892E+04  0.12808340758E+04  0.40000000000E+03 0. -1.
<mgrwt>
<rscale>  2 0.67051506E+03</rscale>
<asrwt>0</asrwt>
<pdfrwt beam="1">  1       21 0.33563848E+00 0.67051506E+03</pdfrwt>
<pdfrwt beam="2">  1       21 0.31947894E-01 0.67051506E+03</pdfrwt>
<totfact> 0.13757476E+02</totfact>
</mgrwt>
</event>
<event>
 4    1  0.4962426E-002  0.4388003E+03  0.7818608E-02  0.1031116E+00
         21   -1    0    0  503  502  0.00000000000E+00  0.00000000000E+00  0.21582774594E+03  0.21582774594E+03  0.00000000000E+00 0.  1.
         21   -1    0    0  501  503 -0.00000000000E+00 -0.00000000000E+00 -0.12082902746E+04  0.12082902746E+04  0.00000000000E+00 0.  1.
    9000005    1    1    2  501    0  0.10779974304E+03 -0.14465448921E+03 -0.86047008198E+03  0.96589568165E+03  0.40000000000E+03 0.  1.
   -9000005    1    1    2    0  502 -0.10779974304E+03  0.14465448921E+03 -0.13199244663E+03  0.45822233884E+03  0.40000000000E+03 0.  1.
<mgrwt>
<rscale>  2 0.43880030E+03</rscale>
<asrwt>0</asrwt>
<pdfrwt beam="1">  1       21 0.33204268E-01 0.43880030E+03</pdfrwt>
<pdfrwt beam="2">  1       21 0.18589081E+00 0.43880030E+03</pdfrwt>
<totfact> 0.12257551E+03</totfact>
</mgrwt>
</event>
<event>
 4    1  0.4962426E-002  0.4062205E+03  0.7818608E-02  0.1041647E+00
         21   -1    0    0  503  502  0.00000000000E+00  0.00000000000E+00  0.11974077589E+04  0.11974077589E+04  0.00000000000E+00 0. -1.
         21   -1    0    0  501  503 -0.00000000000E+00 -0.00000000000E+00 -0.13791209197E+03  0.13791209197E+03  0.00000000000E+00 0. -1.
    9000005    1    1    2  501    0  0.69461036776E+02 -0.13794768076E+02  0.51160958867E+03  0.65326832349E+03  0.40000000000E+03 0. -1.
   -9000005    1    1    2    0  502 -0.69461036776E+02  0.13794768076E+02  0.54788607824E+03  0.68205152737E+03  0.40000000000E+03 0. -1.
<mgrwt>
<rscale>  2 0.40622055E+03</rscale>
<asrwt>0</asrwt>
<pdfrwt beam="1">  1       21 0.18421657E+00 0.40622055E+03</pdfrwt>
<pdfrwt beam="2">  1       21 0.21217246E-01 0.40622055E+03</pdfrwt>
<totfact> 0.30693197E+03</totfact>
</mgrwt>
</event>
<event>
 4    1  0.4962426E-002  0.4328819E+03  0.7818608E-02  0.1032953E+00
         21   -1    0    0  501  502  0.00000000000E+00  0.00000000000E+00  0.15901744328E+04  0.15901744328E+04  0.00000000000E+00 0.  1.
         21   -1    0    0  502  503 -0.00000000000E+00 -0.00000000000E+00 -0.72346702976E+03  0.72346702976E+03  0.00000000000E+00 0.  1.
    9000005    1    1    2  501    0  0.11456291857E+03 -0.11942380203E+03  0.14917765136E+04  0.15533138360E+04  0.40000000000E+03 0.  1.
   -9000005    1    1    2    0  503 -0.11456291857E+03  0.11942380203E+03 -0.62506911050E+03  0.76032762656E+03  0.40000000000E+03 0.  1.
<mgrwt>
<rscale>  2 0.43288186E+03</rscale>
<asrwt>0</asrwt>
<pdfrwt beam="1">  1       21 0.24464222E+00 0.43288186E+03</pdfrwt>
<pdfrwt beam="2">  1       21 0.11130262E+00 0.43288186E+03</pdfrwt>
<totfact> 0.35257867E+01</totfact>
</mgrwt>
</event>
<event>
 4    1  0.4962426E-002  0.4873493E+03  0.7818608E-02  0.1017135E+00
         21   -1    0    0  501  502  0.00000000000E+00  0.00000000000E+00  0.30261640566E+03  0.30261640566E+03  0.00000000000E+00 0.  1.
         21   -1    0    0  502  503 -0.00000000000E+00 -0.00000000000E+00 -0.79007602490E+03  0.79007602490E+03  0.00000000000E+00 0.  1.
    9000005    1    1    2  501    0  0.18217340400E+03 -0.21052836292E+03 -0.19930742769E+03  0.52652900343E+03  0.40000000000E+03 0. -1.
   -9000005    1    1    2    0  503 -0.18217340400E+03  0.21052836292E+03 -0.28815219155E+03  0.56616342713E+03  0.40000000000E+03 0. -1.
<mgrwt>
<rscale>  2 0.48734930E+03</rscale>
<asrwt>0</asrwt>
<pdfrwt beam="1">  1       21 0.46556371E-01 0.48734930E+03</pdfrwt>
<pdfrwt beam="2">  1       21 0.12155016E+00 0.48734930E+03</pdfrwt>
<totfact> 0.19166645E+03</totfact>
</mgrwt>
</event>
<event>
 4    1  0.4962426E-002  0.4330223E+03  0.7818608E-02  0.1032909E+00
         21   -1    0    0  501  502  0.00000000000E+00  0.00000000000E+00  0.39172284625E+03  0.39172284625E+03  0.00000000000E+00 0. -1.
         21   -1    0    0  502  503 -0.00000000000E+00 -0.00000000000E+00 -0.77797496603E+03  0.77797496603E+03  0.00000000000E+00 0. -1.
    9000005    1    1    2  501    0  0.14546348483E+03  0.79678589604E+02  0.16962903430E+03  0.46506162209E+03  0.40000000000E+03 0. -1.
   -9000005    1    1    2    0  503 -0.14546348483E+03 -0.79678589604E+02 -0.55588115409E+03  0.70463619019E+03  0.40000000000E+03 0. -1.
<mgrwt>
<rscale>  2 0.43302229E+03</rscale>
<asrwt>0</asrwt>
<pdfrwt beam="1">  1       21 0.60265054E-01 0.43302229E+03</pdfrwt>
<pdfrwt beam="2">  1       21 0.11968846E+00 0.43302229E+03</pdfrwt>
<totfact> 0.11697248E+03</totfact>
</mgrwt>
</event>
<event>
 4    1  0.4962426E-002  0.8695885E+03  0.7818608E-02  0.9464417E-01
         21   -1    0    0  503  502  0.00000000000E+00  0.00000000000E+00  0.50842291574E+03  0.50842291574E+03  0.00000000000E+00 0.  1.
         21   -1    0    0  501  503 -0.00000000000E+00 -0.00000000000E+00 -0.14954470548E+04  0.14954470548E+04  0.00000000000E+00 0. -1.
    9000005    1    1    2  501    0 -0.40090656346E+03 -0.65989248860E+03 -0.41961974626E+03  0.96553865826E+03  0.40000000000E+03 0.  1.
   -9000005    1    1    2    0  502  0.40090656346E+03  0.65989248860E+03 -0.56740439281E+03  0.10383313123E+04  0.40000000000E+03 0. -1.
<mgrwt>
<rscale>  2 0.86958851E+03</rscale>
<asrwt>0</asrwt>
<pdfrwt beam="1">  1       21 0.78218911E-01 0.86958851E+03</pdfrwt>
<pdfrwt beam="2">  1       21 0.23006878E+00 0.86958851E+03</pdfrwt>
<totfact> 0.84145989E+01</totfact>
</mgrwt>
</event>
<event>
 4    1  0.4962426E-002  0.5489421E+03  0.7818608E-02  0.1001739E+00
         21   -1    0    0  501  502  0.00000000000E+00  0.00000000000E+00  0.14410627731E+04  0.14410627731E+04  0.00000000000E+00 0.  1.
         21   -1    0    0  502  503 -0.00000000000E+00 -0.00000000000E+00 -0.21023825979E+03  0.21023825979E+03  0.00000000000E+00 0. -1.
    9000005    1    1    2  501    0 -0.12679555040E+03 -0.35392131695E+03  0.67595685421E+03  0.87077843275E+03  0.40000000000E+03 0.  1.
   -9000005    1    1    2    0  503  0.12679555040E+03  0.35392131695E+03  0.55486765910E+03  0.78052260012E+03  0.40000000000E+03 0. -1.
<mgrwt>
<rscale>  2 0.54894208E+03</rscale>
<asrwt>0</asrwt>
<pdfrwt beam="1">  1       21 0.22170196E+00 0.54894208E+03</pdfrwt>
<pdfrwt beam="2">  1       21 0.32344348E-01 0.54894208E+03</pdfrwt>
<totfact> 0.71297065E+02</totfact>
</mgrwt>
</event>
<event>
 4    1  0.4962426E-002  0.4901000E+03  0.7818608E-02  0.1016396E+00
         21   -1    0    0  501  502  0.00000000000E+00  0.00000000000E+00  0.47400852421E+03  0.47400852421E+03  0.00000000000E+00 0. -1.
         21   -1    0    0  502  503 -0.00000000000E+00 -0.00000000000E+00 -0.94994503023E+03  0.94994503023E+03  0.00000000000E+00 0. -1.
    9000005    1    1    2  501    0  0.16451717117E+03 -0.23050399139E+03  0.24834942614E+03  0.54943191309E+03  0.40000000000E+03 0. -1.
   -9000005    1    1    2    0  503 -0.16451717117E+03  0.23050399139E+03 -0.72428593216E+03  0.87452164134E+03  0.40000000000E+03 0. -1.
<mgrwt>
<rscale>  2 0.49009998E+03</rscale>
<asrwt>0</asrwt>
<pdfrwt beam="1">  1       21 0.72924389E-01 0.49009998E+03</pdfrwt>
<pdfrwt beam="2">  1       21 0.14614539E+00 0.49009998E+03</pdfrwt>
<totfact> 0.44238386E+02</totfact>
</mgrwt>
</event>
<event>
 4    1  0.4962426E-002  0.4739998E+03  0.7818608E-02  0.1020797E+00
         21   -1    0    0  503  502  0.00000000000E+00  0.00000000000E+00  0.22554742746E+04  0.22554742746E+04  0.00000000000E+00 0.  1.
         21   -1    0    0  501  503 -0.00000000000E+00 -0.00000000000E+00 -0.10232755284E+03  0.10232755284E+03  0.00000000000E+00 0.  1.
    9000005    1    1    2  501    0 -0.14411003810E+03  0.20954258977E+03  0.88458003200E+03  0.10035724354E+04  0.40000000000E+03 0.  1.
   -9000005    1    1    2    0  502  0.14411003810E+03 -0.20954258977E+03  0.12685666897E+04  0.13542293921E+04  0.40000000000E+03 0.  1.
<mgrwt>
<rscale>  2 0.47399979E+03</rscale>
<asrwt>0</asrwt>
<pdfrwt beam="1">  1       21 0.34699601E+00 0.47399979E+03</pdfrwt>
<pdfrwt beam="2">  1       21 0.15742702E-01 0.47399979E+03</pdfrwt>
<totfact> 0.50699968E+02</totfact>
</mgrwt>
</event>
<event>
 4    1  0.4962426E-002  0.4020410E+03  0.7818608E-02  0.1043075E+00
         21   -1    0    0  501  502  0.00000000000E+00  0.00000000000E+00  0.72637018964E+02  0.72637018964E+02  0.00000000000E+00 0.  1.
         21   -1    0    0  502  503 -0.00000000000E+00 -0.00000000000E+00 -0.27265144489E+04  0.27265144489E+04  0.00000000000E+00 0.  1.
    9000005    1    1    2  501    0  0.12620886827E+02 -0.38441037668E+02 -0.72684764340E+03  0.83062897667E+03  0.40000000000E+03 0.  1.
   -9000005    1    1    2    0  503 -0.12620886827E+02  0.38441037668E+02 -0.19270297866E+04  0.19685224912E+04  0.40000000000E+03 0.  1.
<mgrwt>
<rscale>  2 0.40204104E+03</rscale>
<asrwt>0</asrwt>
<pdfrwt beam="1">  1       21 0.11174925E-01 0.40204104E+03</pdfrwt>
<pdfrwt beam="2">  1       21 0.41946378E+00 0.40204104E+03</pdfrwt>
<totfact> 0.34759963E+02</totfact>
</mgrwt>
</event>
<event>
 4    1  0.4962426E-002  0.5191388E+03  0.7818608E-02  0.1008901E+00
         21   -1    0    0  501  502  0.00000000000E+00  0.00000000000E+00  0.11076690056E+04  0.11076690056E+04  0.00000000000E+00 0. -1.
         21   -1    0    0  502  503 -0.00000000000E+00 -0.00000000000E+00 -0.25143479649E+03  0.25143479649E+03  0.00000000000E+00 0.  1.
    9000005    1    1    2  501    0 -0.10958146447E+03 -0.31224509938E+03  0.55028602381E+03  0.75651821356E+03  0.40000000000E+03 0. -1.
   -9000005    1    1    2    0  503  0.10958146447E+03  0.31224509938E+03  0.30594818535E+03  0.60258558858E+03  0.40000000000E+03 0.  1.
<mgrwt>
<rscale>  2 0.51913881E+03</rscale>
<asrwt>0</asrwt>
<pdfrwt beam="1">  1       21 0.17041061E+00 0.51913881E+03</pdfrwt>
<pdfrwt beam="2">  1       21 0.38682277E-01 0.51913881E+03</pdfrwt>
<totfact> 0.11202876E+03</totfact>
</mgrwt>
</event>
<event>
 4    1  0.4962426E-002  0.4031388E+03  0.7818608E-02  0.1042698E+00
         21   -1    0    0  501  502  0.00000000000E+00  0.00000000000E+00  0.37119119505E+04  0.37119119505E+04  0.00000000000E+00 0.  1.
         21   -1    0    0  502  503 -0.00000000000E+00 -0.00000000000E+00 -0.50750090782E+02  0.50750090782E+02  0.00000000000E+00 0.  1.
    9000005    1    1    2  501    0 -0.46293775197E+02  0.19435947241E+02  0.25276147086E+04  0.25595618736E+04  0.40000000000E+03 0.  1.
   -9000005    1    1    2    0  503  0.46293775197E+02 -0.19435947241E+02  0.11335471511E+04  0.12031001677E+04  0.40000000000E+03 0.  1.
<mgrwt>
<rscale>  2 0.40313877E+03</rscale>
<asrwt>0</asrwt>
<pdfrwt beam="1">  1       21 0.57106316E+00 0.40313877E+03</pdfrwt>
<pdfrwt beam="2">  1       21 0.78077092E-02 0.40313877E+03</pdfrwt>
<totfact> 0.55516684E+01</totfact>
</mgrwt>
</event>
<event>
 4    1  0.4962426E-002  0.6062467E+03  0.7818608E-02  0.9892530E-01
         21   -1    0    0  503  502  0.00000000000E+00  0.00000000000E+00  0.13381342683E+04  0.13381342683E+04  0.00000000000E+00 0. -1.
         21   -1    0    0  501  503 -0.00000000000E+00 -0.00000000000E+00 -0.30524360557E+03  0.30524360557E+03  0.00000000000E+00 0. -1.
    9000005    1    1    2  501    0  0.44287299500E+03  0.10676404721E+03  0.25636226278E+03  0.65822234940E+03  0.40000000000E+03 0.  1.
   -9000005    1    1    2    0  502 -0.44287299500E+03 -0.10676404721E+03  0.77652839993E+03  0.98515552446E+03  0.40000000000E+03 0.  1.
<mgrwt>
<rscale>  2 0.60624669E+03</rscale>
<asrwt>0</asrwt>
<pdfrwt beam="1">  1       21 0.20586681E+00 0.60624669E+03</pdfrwt>
<pdfrwt beam="2">  1       21 0.46960555E-01 0.60624669E+03</pdfrwt>
<totfact> 0.41005425E+02</totfact>
</mgrwt>
</event>
<event>
 4    1  0.4962426E-002  0.4397143E+03  0.7818608E-02  0.1030834E+00
         21   -1    0    0  501  502  0.00000000000E+00  0.00000000000E+00  0.15875227529E+03  0.15875227529E+03  0.00000000000E+00 0.  1.
         21   -1    0    0  502  503 -0.00000000000E+00 -0.00000000000E+00 -0.27396347232E+04  0.27396347232E+04  0.00000000000E+00 0.  1.
    9000005    1    1    2  501    0 -0.11357525115E+03  0.14300118157E+03 -0.21038671399E+03  0.48745383887E+03  0.40000000000E+03 0.  1.
   -9000005    1    1    2    0  503  0.11357525115E+03 -0.14300118157E+03 -0.23704957339E+04  0.24109331596E+04  0.40000000000E+03 0.  1.
<mgrwt>
<rscale>  2 0.43971431E+03</rscale>
<asrwt>0</asrwt>
<pdfrwt beam="1">  1       21 0.24423428E-01 0.43971431E+03</pdfrwt>
<pdfrwt beam="2">  1       21 0.42148225E+00 0.43971431E+03</pdfrwt>
<totfact> 0.76009298E+01</totfact>
</mgrwt>
</event>
<event>
 4    1  0.4962426E-002  0.4261275E+03  0.7818608E-02  0.1035090E+00
         21   -1    0    0  503  502  0.00000000000E+00  0.00000000000E+00  0.85647625671E+03  0.85647625671E+03  0.00000000000E+00 0. -1.
         21   -1    0    0  501  503 -0.00000000000E+00 -0.00000000000E+00 -0.46440670875E+03  0.46440670875E+03  0.00000000000E+00 0. -1.
    9000005    1    1    2  501    0 -0.12980924993E+03 -0.68805758080E+02 -0.29084730370E+03  0.51592327703E+03  0.40000000000E+03 0. -1.
   -9000005    1    1    2    0  502  0.12980924993E+03  0.68805758080E+02  0.68291685167E+03  0.80495968843E+03  0.40000000000E+03 0. -1.
<mgrwt>
<rscale>  2 0.42612753E+03</rscale>
<asrwt>0</asrwt>
<pdfrwt beam="1">  1       21 0.13176558E+00 0.42612753E+03</pdfrwt>
<pdfrwt beam="2">  1       21 0.71447186E-01 0.42612753E+03</pdfrwt>
<totfact> 0.62762497E+02</totfact>
</mgrwt>
</event>
<event>
 4    1  0.4962426E-002  0.4131554E+03  0.7818608E-02  0.1039317E+00
         21   -1    0    0  503  502  0.00000000000E+00  0.00000000000E+00  0.36186706698E+03  0.36186706698E+03  0.00000000000E+00 0.  1.
         21   -1    0    0  501  503 -0.00000000000E+00 -0.00000000000E+00 -0.54069331117E+03  0.54069331117E+03  0.00000000000E+00 0.  1.
    9000005    1    1    2  501    0 -0.37260026120E+02 -0.96483462499E+02 -0.25060146122E+03  0.48321678411E+03  0.40000000000E+03 0.  1.
   -9000005    1    1    2    0  502  0.37260026120E+02  0.96483462499E+02  0.71775217019E+02  0.41934359404E+03  0.40000000000E+03 0.  1.
<mgrwt>
<rscale>  2 0.41315538E+03</rscale>
<asrwt>0</asrwt>
<pdfrwt beam="1">  1       21 0.55671857E-01 0.41315538E+03</pdfrwt>
<pdfrwt beam="2">  1       21 0.83183586E-01 0.41315538E+03</pdfrwt>
<totfact> 0.33838925E+03</totfact>
</mgrwt>
</event>
<event>
 4    1  0.4962426E-002  0.4609271E+03  0.7818608E-02  0.1024513E+00
         21   -1    0    0  501  502  0.00000000000E+00  0.00000000000E+00  0.49693717993E+03  0.49693717993E+03  0.00000000000E+00 0.  1.
         21   -1    0    0  502  503 -0.00000000000E+00 -0.00000000000E+00 -0.96585191289E+03  0.96585191289E+03  0.00000000000E+00 0. -1.
    9000005    1    1    2  501    0  0.92605660380E+02  0.20947070770E+03  0.31157565684E+03  0.55635705770E+03  0.40000000000E+03 0.  1.
   -9000005    1    1    2    0  503 -0.92605660380E+02 -0.20947070770E+03 -0.78049038979E+03  0.90643203511E+03  0.40000000000E+03 0. -1.
<mgrwt>
<rscale>  2 0.46092709E+03</rscale>
<asrwt>0</asrwt>
<pdfrwt beam="1">  1       21 0.76451874E-01 0.46092709E+03</pdfrwt>
<pdfrwt beam="2">  1       21 0.14859260E+00 0.46092709E+03</pdfrwt>
<totfact> 0.38473627E+02</totfact>
</mgrwt>
</event>
<event>
 4    1  0.4962426E-002  0.4470182E+03  0.7818608E-02  0.1028615E+00
         21   -1    0    0  501  502  0.00000000000E+00  0.00000000000E+00  0.94834981511E+03  0.94834981511E+03  0.00000000000E+00 0.  1.
         21   -1    0    0  502  503 -0.00000000000E+00 -0.00000000000E+00 -0.21630643199E+03  0.21630643199E+03  0.00000000000E+00 0.  1.
    9000005    1    1    2  501    0  0.19768426697E+03 -0.27317439375E+02  0.45970217249E+03  0.64121088519E+03  0.40000000000E+03 0.  1.
   -9000005    1    1    2    0  503 -0.19768426697E+03  0.27317439375E+02  0.27234121063E+03  0.52344536191E+03  0.40000000000E+03 0.  1.
<mgrwt>
<rscale>  2 0.44701825E+03</rscale>
<asrwt>0</asrwt>
<pdfrwt beam="1">  1       21 0.14589997E+00 0.44701825E+03</pdfrwt>
<pdfrwt beam="2">  1       21 0.33277913E-01 0.44701825E+03</pdfrwt>
<totfact> 0.24062085E+03</totfact>
</mgrwt>
</event>
<event>
 4    1  0.4962426E-002  0.4860879E+03  0.7818608E-02  0.1017475E+00
         21   -1    0    0  503  502  0.00000000000E+00  0.00000000000E+00  0.73585776638E+03  0.73585776638E+03  0.00000000000E+00 0. -1.
         21   -1    0    0  501  503 -0.00000000000E+00 -0.00000000000E+00 -0.32186061408E+03  0.32186061408E+03  0.00000000000E+00 0. -1.
    9000005    1    1    2  501    0 -0.55559156511E+02 -0.27054511496E+03  0.18123319062E+03  0.51877446784E+03  0.40000000000E+03 0. -1.
   -9000005    1    1    2    0  502  0.55559156511E+02  0.27054511496E+03  0.23276396167E+03  0.53894391262E+03  0.40000000000E+03 0. -1.
<mgrwt>
<rscale>  2 0.48608793E+03</rscale>
<asrwt>0</asrwt>
<pdfrwt beam="1">  1       21 0.11320889E+00 0.48608793E+03</pdfrwt>
<pdfrwt beam="2">  1       21 0.49517018E-01 0.48608793E+03</pdfrwt>
<totfact> 0.20137863E+03</totfact>
</mgrwt>
</event>
<event>
 4    1  0.4962426E-002  0.4032741E+03  0.7818608E-02  0.1042652E+00
         21   -1    0    0  501  502  0.00000000000E+00  0.00000000000E+00  0.10128542630E+04  0.10128542630E+04  0.00000000000E+00 0. -1.
         21   -1    0    0  502  503 -0.00000000000E+00 -0.00000000000E+00 -0.16908910660E+03  0.16908910660E+03  0.00000000000E+00 0. -1.
    9000005    1    1    2  501    0  0.20968172554E+02 -0.46801043892E+02  0.55456295689E+03  0.68568948885E+03  0.40000000000E+03 0.  1.
   -9000005    1    1    2    0  503 -0.20968172554E+02  0.46801043892E+02  0.28920219956E+03  0.49625388079E+03  0.40000000000E+03 0.  1.
<mgrwt>
<rscale>  2 0.40327410E+03</rscale>
<asrwt>0</asrwt>
<pdfrwt beam="1">  1       21 0.15582373E+00 0.40327410E+03</pdfrwt>
<pdfrwt beam="2">  1       21 0.26013709E-01 0.40327410E+03</pdfrwt>
<totfact> 0.33356536E+03</totfact>
</mgrwt>
</event>
<event>
 4    1  0.4962426E-002  0.4073478E+03  0.7818608E-02  0.1041265E+00
         21   -1    0    0  503  502  0.00000000000E+00  0.00000000000E+00  0.19783893822E+04  0.19783893822E+04  0.00000000000E+00 0. -1.
         21   -1    0    0  501  503 -0.00000000000E+00 -0.00000000000E+00 -0.90678348637E+02  0.90678348637E+02  0.00000000000E+00 0. -1.
    9000005    1    1    2  501    0  0.65571365056E+01 -0.76741334268E+02  0.66043071990E+03  0.77595165069E+03  0.40000000000E+03 0. -1.
   -9000005    1    1    2    0  502 -0.65571365056E+01  0.76741334268E+02  0.12272803137E+04  0.12931160801E+04  0.40000000000E+03 0. -1.
<mgrwt>
<rscale>  2 0.40734780E+03</rscale>
<asrwt>0</asrwt>
<pdfrwt beam="1">  1       21 0.30436756E+00 0.40734780E+03</pdfrwt>
<pdfrwt beam="2">  1       21 0.13950517E-01 0.40734780E+03</pdfrwt>
<totfact> 0.11938758E+03</totfact>
</mgrwt>
</event>
<event>
 4    1  0.4962426E-002  0.5942930E+03  0.7818608E-02  0.9917317E-01
         21   -1    0    0  501  502  0.00000000000E+00  0.00000000000E+00  0.92905669818E+03  0.92905669818E+03  0.00000000000E+00 0.  1.
         21   -1    0    0  502  503 -0.00000000000E+00 -0.00000000000E+00 -0.68946258436E+03  0.68946258436E+03  0.00000000000E+00 0. -1.
    9000005    1    1    2  501    0  0.29905213020E+03 -0.32210561987E+03  0.66183392783E+03  0.88949893477E+03  0.40000000000E+03 0.  1.
   -9000005    1    1    2    0  503 -0.29905213020E+03  0.32210561987E+03 -0.42223981400E+03  0.72902034777E+03  0.40000000000E+03 0. -1.
<mgrwt>
<rscale>  2 0.59429303E+03</rscale>
<asrwt>0</asrwt>
<pdfrwt beam="1">  1       21 0.14293180E+00 0.59429303E+03</pdfrwt>
<pdfrwt beam="2">  1       21 0.10607117E+00 0.59429303E+03</pdfrwt>
<totfact> 0.18526635E+02</totfact>
</mgrwt>
</event>
<event>
 4    1  0.4962426E-002  0.6393687E+03  0.7818608E-02  0.9826935E-01
         21   -1    0    0  501  502  0.00000000000E+00  0.00000000000E+00  0.63236247619E+03  0.63236247619E+03  0.00000000000E+00 0.  1.
         21   -1    0    0  502  503 -0.00000000000E+00 -0.00000000000E+00 -0.64645287616E+03  0.64645287616E+03  0.00000000000E+00 0. -1.
    9000005    1    1    2  501    0  0.15733842652E+03 -0.47332535467E+03 -0.65258628439E+01  0.63940195395E+03  0.40000000000E+03 0.  1.
   -9000005    1    1    2    0  503 -0.15733842652E+03  0.47332535467E+03 -0.75645371313E+01  0.63941339840E+03  0.40000000000E+03 0.  1.
<mgrwt>
<rscale>  2 0.63936865E+03</rscale>
<asrwt>0</asrwt>
<pdfrwt beam="1">  1       21 0.97286535E-01 0.63936865E+03</pdfrwt>
<pdfrwt beam="2">  1       21 0.99454289E-01 0.63936865E+03</pdfrwt>
<totfact> 0.57191071E+02</totfact>
</mgrwt>
</event>
<event>
 4    1  0.4962426E-002  0.4420251E+03  0.7818608E-02  0.1030127E+00
         21   -1    0    0  503  502  0.00000000000E+00  0.00000000000E+00  0.10894913711E+04  0.10894913711E+04  0.00000000000E+00 0.  1.
         21   -1    0    0  501  503 -0.00000000000E+00 -0.00000000000E+00 -0.25410098464E+03  0.25410098464E+03  0.00000000000E+00 0. -1.
    9000005    1    1    2  501    0 -0.90490062261E+02 -0.16491748978E+03  0.53293601118E+02  0.44522627699E+03  0.40000000000E+03 0. -1.
   -9000005    1    1    2    0  502  0.90490062261E+02  0.16491748978E+03  0.78209678538E+03  0.89836607878E+03  0.40000000000E+03 0.  1.
<mgrwt>
<rscale>  2 0.44202515E+03</rscale>
<asrwt>0</asrwt>
<pdfrwt beam="1">  1       21 0.16761405E+00 0.44202515E+03</pdfrwt>
<pdfrwt beam="2">  1       21 0.39092460E-01 0.44202515E+03</pdfrwt>
<totfact> 0.11855731E+03</totfact>
</mgrwt>
</event>
<event>
 4    1  0.4962426E-002  0.7301768E+03  0.7818608E-02  0.9666974E-01
         21   -1    0    0  503  502  0.00000000000E+00  0.00000000000E+00  0.52737876122E+03  0.52737876122E+03  0.00000000000E+00 0. -1.
         21   -1    0    0  501  503 -0.00000000000E+00 -0.00000000000E+00 -0.14884842457E+04  0.14884842457E+04  0.00000000000E+00 0.  1.
    9000005    1    1    2  501    0 -0.11747334814E+03 -0.59946490452E+03 -0.10514489950E+04  0.12801184118E+04  0.40000000000E+03 0.  1.
   -9000005    1    1    2    0  502  0.11747334814E+03  0.59946490452E+03  0.90343510523E+02  0.73574459506E+03  0.40000000000E+03 0. -1.
<mgrwt>
<rscale>  2 0.73017680E+03</rscale>
<asrwt>0</asrwt>
<pdfrwt beam="1">  1       21 0.81135196E-01 0.73017680E+03</pdfrwt>
<pdfrwt beam="2">  1       21 0.22899757E+00 0.73017680E+03</pdfrwt>
<totfact> 0.82055190E+01</totfact>
</mgrwt>
</event>
<event>
 4    1  0.4962426E-002  0.4224087E+03  0.7818608E-02  0.1036285E+00
         21   -1    0    0  501  502  0.00000000000E+00  0.00000000000E+00  0.33501828175E+03  0.33501828175E+03  0.00000000000E+00 0.  1.
         21   -1    0    0  502  503 -0.00000000000E+00 -0.00000000000E+00 -0.77841000528E+03  0.77841000528E+03  0.00000000000E+00 0. -1.
    9000005    1    1    2  501    0 -0.13438975769E+03 -0.19197402155E+02  0.91151156276E+02  0.43213155464E+03  0.40000000000E+03 0.  1.
   -9000005    1    1    2    0  503  0.13438975769E+03  0.19197402155E+02 -0.53454287980E+03  0.68129673239E+03  0.40000000000E+03 0. -1.
<mgrwt>
<rscale>  2 0.42240874E+03</rscale>
<asrwt>0</asrwt>
<pdfrwt beam="1">  1       21 0.51541274E-01 0.42240874E+03</pdfrwt>
<pdfrwt beam="2">  1       21 0.11975539E+00 0.42240874E+03</pdfrwt>
<totfact> 0.16451913E+03</totfact>
</mgrwt>
</event>
<event>
 4    1  0.4962426E-002  0.4192293E+03  0.7818608E-02  0.1037317E+00
         21   -1    0    0  501  502  0.00000000000E+00  0.00000000000E+00  0.11584304720E+03  0.11584304720E+03  0.00000000000E+00 0. -1.
         21   -1    0    0  502  503 -0.00000000000E+00 -0.00000000000E+00 -0.15764392551E+04  0.15764392551E+04  0.00000000000E+00 0.  1.
    9000005    1    1    2  501    0 -0.82487290694E+02  0.94599434674E+02 -0.56622731834E+03  0.70453288227E+03  0.40000000000E+03 0. -1.
   -9000005    1    1    2    0  503  0.82487290694E+02 -0.94599434674E+02 -0.89436888952E+03  0.98774942000E+03  0.40000000000E+03 0.  1.
<mgrwt>
<rscale>  2 0.41922930E+03</rscale>
<asrwt>0</asrwt>
<pdfrwt beam="1">  1       21 0.17822007E-01 0.41922930E+03</pdfrwt>
<pdfrwt beam="2">  1       21 0.24252912E+00 0.41922930E+03</pdfrwt>
<totfact> 0.17774315E+03</totfact>
</mgrwt>
</event>
<event>
 4    1  0.4962426E-002  0.5895475E+03  0.7818608E-02  0.9927332E-01
         21   -1    0    0  501  502  0.00000000000E+00  0.00000000000E+00  0.70689912612E+03  0.70689912612E+03  0.00000000000E+00 0. -1.
         21   -1    0    0  502  503 -0.00000000000E+00 -0.00000000000E+00 -0.49572595959E+03  0.49572595959E+03  0.00000000000E+00 0. -1.
    9000005    1    1    2  501    0  0.40539992050E+03 -0.15237160049E+03  0.51244144488E+02  0.59177036300E+03  0.40000000000E+03 0. -1.
   -9000005    1    1    2    0  503 -0.40539992050E+03  0.15237160049E+03  0.15992902204E+03  0.61085472272E+03  0.40000000000E+03 0. -1.
<mgrwt>
<rscale>  2 0.58954745E+03</rscale>
<asrwt>0</asrwt>
<pdfrwt beam="1">  1       21 0.10875371E+00 0.58954745E+03</pdfrwt>
<pdfrwt beam="2">  1       21 0.76265532E-01 0.58954745E+03</pdfrwt>
<totfact> 0.82776183E+02</totfact>
</mgrwt>
</event>
<event>
 4    1  0.4962426E-002  0.5862675E+03  0.7818608E-02  0.9934313E-01
         21   -1    0    0  501  502  0.00000000000E+00  0.00000000000E+00  0.33185263834E+03  0.33185263834E+03  0.00000000000E+00 0.  1.
         21   -1    0    0  502  503 -0.00000000000E+00 -0.00000000000E+00 -0.10850986943E+04  0.10850986943E+04  0.00000000000E+00 0. -1.
    9000005    1    1    2  501    0  0.14874902665E+03  0.40197422510E+03 -0.22550420658E+03  0.62814146318E+03  0.40000000000E+03 0.  1.
   -9000005    1    1    2    0  503 -0.14874902665E+03 -0.40197422510E+03 -0.52774184936E+03  0.78880986945E+03  0.40000000000E+03 0. -1.
<mgrwt>
<rscale>  2 0.58626747E+03</rscale>
<asrwt>0</asrwt>
<pdfrwt beam="1">  1       21 0.51054253E-01 0.58626747E+03</pdfrwt>
<pdfrwt beam="2">  1       21 0.16693826E+00 0.58626747E+03</pdfrwt>
<totfact> 0.64754422E+02</totfact>
</mgrwt>
</event>
<event>
 4    1  0.4962426E-002  0.4075571E+03  0.7818608E-02  0.1041194E+00
         21   -1    0    0  503  502  0.00000000000E+00  0.00000000000E+00  0.11098645746E+03  0.11098645746E+03  0.00000000000E+00 0. -1.
         21   -1    0    0  501  503 -0.00000000000E+00 -0.00000000000E+00 -0.17731723622E+04  0.17731723622E+04  0.00000000000E+00 0. -1.
    9000005    1    1    2  501    0 -0.68056389207E+01  0.77823157035E+02 -0.12031533065E+04  0.12703073012E+04  0.40000000000E+03 0. -1.
   -9000005    1    1    2    0  502  0.68056389207E+01 -0.77823157035E+02 -0.45903259825E+03  0.61385151849E+03  0.40000000000E+03 0. -1.
<mgrwt>
<rscale>  2 0.40755706E+03</rscale>
<asrwt>0</asrwt>
<pdfrwt beam="1">  1       21 0.17074841E-01 0.40755706E+03</pdfrwt>
<pdfrwt beam="2">  1       21 0.27279573E+00 0.40755706E+03</pdfrwt>
<totfact> 0.12683468E+03</totfact>
</mgrwt>
</event>
<event>
 4    1  0.4962426E-002  0.4985804E+03  0.7818608E-02  0.1014150E+00
         21   -1    0    0  501  502  0.00000000000E+00  0.00000000000E+00  0.24297539908E+03  0.24297539908E+03  0.00000000000E+00 0. -1.
         21   -1    0    0  502  503 -0.00000000000E+00 -0.00000000000E+00 -0.13973048148E+04  0.13973048148E+04  0.00000000000E+00 0. -1.
    9000005    1    1    2  501    0 -0.25712813515E+03  0.14989186257E+03 -0.15273015804E+03  0.52144889446E+03  0.40000000000E+03 0. -1.
   -9000005    1    1    2    0  503  0.25712813515E+03 -0.14989186257E+03 -0.10015992577E+04  0.11188313194E+04  0.40000000000E+03 0. -1.
<mgrwt>
<rscale>  2 0.49858043E+03</rscale>
<asrwt>0</asrwt>
<pdfrwt beam="1">  1       21 0.37380830E-01 0.49858043E+03</pdfrwt>
<pdfrwt beam="2">  1       21 0.21496997E+00 0.49858043E+03</pdfrwt>
<totfact> 0.59993676E+02</totfact>
</mgrwt>
</event>
<event>
 4    1  0.4962426E-002  0.5895305E+03  0.7818608E-02  0.9927368E-01
         21   -1    0    0  501  502  0.00000000000E+00  0.00000000000E+00  0.28879448664E+03  0.28879448664E+03  0.00000000000E+00 0. -1.
         21   -1    0    0  502  503 -0.00000000000E+00 -0.00000000000E+00 -0.12058211955E+04  0.12058211955E+04  0.00000000000E+00 0.  1.
    9000005    1    1    2  501    0  0.89805113745E+02  0.42365221255E+03 -0.49173878786E+03  0.76769342262E+03  0.40000000000E+03 0.  1.
   -9000005    1    1    2    0  503 -0.89805113745E+02 -0.42365221255E+03 -0.42528792104E+03  0.72692225955E+03  0.40000000000E+03 0. -1.
<mgrwt>
<rscale>  2 0.58953045E+03</rscale>
<asrwt>0</asrwt>
<pdfrwt beam="1">  1       21 0.44429921E-01 0.58953045E+03</pdfrwt>
<pdfrwt beam="2">  1       21 0.18551095E+00 0.58953045E+03</pdfrwt>
<totfact> 0.63843491E+02</totfact>
</mgrwt>
</event>
<event>
 4    1  0.4962426E-002  0.4962318E+03  0.7818608E-02  0.1014767E+00
         21   -1    0    0  501  502  0.00000000000E+00  0.00000000000E+00  0.46010414717E+03  0.46010414717E+03  0.00000000000E+00 0. -1.
         21   -1    0    0  502  503 -0.00000000000E+00 -0.00000000000E+00 -0.56560799393E+03  0.56560799393E+03  0.00000000000E+00 0.  1.
    9000005    1    1    2  501    0  0.27575163671E+03 -0.10102983342E+03  0.66169125674E+02  0.50062395626E+03  0.40000000000E+03 0. -1.
   -9000005    1    1    2    0  503 -0.27575163671E+03  0.10102983342E+03 -0.17167297244E+03  0.52508818484E+03  0.40000000000E+03 0.  1.
<mgrwt>
<rscale>  2 0.49623179E+03</rscale>
<asrwt>0</asrwt>
<pdfrwt beam="1">  1       21 0.70785253E-01 0.49623179E+03</pdfrwt>
<pdfrwt beam="2">  1       21 0.87016615E-01 0.49623179E+03</pdfrwt>
<totfact> 0.17380404E+03</totfact>
</mgrwt>
</event>
<event>
 4    1  0.4962426E-002  0.4448949E+03  0.7818608E-02  0.1029255E+00
         21   -1    0    0  501  502  0.00000000000E+00  0.00000000000E+00  0.12646950272E+04  0.12646950272E+04  0.00000000000E+00 0. -1.
         21   -1    0    0  502  503 -0.00000000000E+00 -0.00000000000E+00 -0.16011201345E+03  0.16011201345E+03  0.00000000000E+00 0.  1.
    9000005    1    1    2  501    0  0.10274864990E+03 -0.16545150062E+03  0.65921409597E+03  0.79529535924E+03  0.40000000000E+03 0. -1.
   -9000005    1    1    2    0  503 -0.10274864990E+03  0.16545150062E+03  0.44536891783E+03  0.62951168145E+03  0.40000000000E+03 0.  1.
<mgrwt>
<rscale>  2 0.44489491E+03</rscale>
<asrwt>0</asrwt>
<pdfrwt beam="1">  1       21 0.19456846E+00 0.44489491E+03</pdfrwt>
<pdfrwt beam="2">  1       21 0.24632618E-01 0.44489491E+03</pdfrwt>
<totfact> 0.19235994E+03</totfact>
</mgrwt>
</event>
<event>
 4    1  0.4962426E-002  0.4092078E+03  0.7818608E-02  0.1040637E+00
         21   -1    0    0  501  502  0.00000000000E+00  0.00000000000E+00  0.15148942919E+04  0.15148942919E+04  0.00000000000E+00 0.  1.
         21   -1    0    0  502  503 -0.00000000000E+00 -0.00000000000E+00 -0.11887847205E+03  0.11887847205E+03  0.00000000000E+00 0.  1.
    9000005    1    1    2  501    0 -0.67896379989E+02 -0.53302181293E+02  0.48161369291E+03  0.63198321983E+03  0.40000000000E+03 0.  1.
   -9000005    1    1    2    0  503  0.67896379989E+02  0.53302181293E+02  0.91440212697E+03  0.10017895441E+04  0.40000000000E+03 0.  1.
<mgrwt>
<rscale>  2 0.40920782E+03</rscale>
<asrwt>0</asrwt>
<pdfrwt beam="1">  1       21 0.23306065E+00 0.40920782E+03</pdfrwt>
<pdfrwt beam="2">  1       21 0.18288997E-01 0.40920782E+03</pdfrwt>
<totfact> 0.19477998E+03</totfact>
</mgrwt>
</event>
<event>
 4    1  0.4962426E-002  0.5019510E+03  0.7818608E-02  0.1013271E+00
         21   -1    0    0  501  502  0.00000000000E+00  0.00000000000E+00  0.21239227164E+04  0.21239227164E+04  0.00000000000E+00 0. -1.
         21   -1    0    0  502  503 -0.00000000000E+00 -0.00000000000E+00 -0.13345861115E+03  0.13345861115E+03  0.00000000000E+00 0.  1.
    9000005    1    1    2  501    0 -0.13228251805E+03 -0.27286656574E+03  0.13714972876E+04  0.14604655550E+04  0.40000000000E+03 0. -1.
   -9000005    1    1    2    0  503  0.13228251805E+03  0.27286656574E+03  0.61896681764E+03  0.79691577260E+03  0.40000000000E+03 0.  1.
<mgrwt>
<rscale>  2 0.50195102E+03</rscale>
<asrwt>0</asrwt>
<pdfrwt beam="1">  1       21 0.32675732E+00 0.50195102E+03</pdfrwt>
<pdfrwt beam="2">  1       21 0.20532096E-01 0.50195102E+03</pdfrwt>
<totfact> 0.40189744E+02</totfact>
</mgrwt>
</event>
<event>
 4    1  0.4962426E-002  0.1007891E+04  0.7818608E-02  0.9299933E-01
         21   -1    0    0  503  502  0.00000000000E+00  0.00000000000E+00  0.30713623722E+04  0.30713623722E+04  0.00000000000E+00 0. -1.
         21   -1    0    0  501  503 -0.00000000000E+00 -0.00000000000E+00 -0.42778966398E+03  0.42778966398E+03  0.00000000000E+00 0.  1.
    9000005    1    1    2  501    0  0.14180246747E+03 -0.91418580068E+03  0.48849048843E+03  0.11200297207E+04  0.40000000000E+03 0.  1.
   -9000005    1    1    2    0  502 -0.14180246747E+03  0.91418580068E+03  0.21550822197E+04  0.23791223154E+04  0.40000000000E+03 0. -1.
<mgrwt>
<rscale>  2 0.10078907E+04</rscale>
<asrwt>0</asrwt>
<pdfrwt beam="1">  1       21 0.47251728E+00 0.10078907E+04</pdfrwt>
<pdfrwt beam="2">  1       21 0.65813796E-01 0.10078907E+04</pdfrwt>
<totfact> 0.32692859E+00</totfact>
</mgrwt>
</event>
<event>
 4    1  0.4962426E-002  0.4555359E+03  0.7818608E-02  0.1026084E+00
         21   -1    0    0  501  502  0.00000000000E+00  0.00000000000E+00  0.15367330140E+04  0.15367330140E+04  0.00000000000E+00 0. -1.
         21   -1    0    0  502  503 -0.00000000000E+00 -0.00000000000E+00 -0.18531974967E+03  0.18531974967E+03  0.00000000000E+00 0.  1.
    9000005    1    1    2  501    0 -0.21317037450E+03  0.45512285293E+02  0.22719563688E+03  0.50904895058E+03  0.40000000000E+03 0.  1.
   -9000005    1    1    2    0  503  0.21317037450E+03 -0.45512285293E+02  0.11242176275E+04  0.12130038131E+04  0.40000000000E+03 0. -1.
<mgrwt>
<rscale>  2 0.45553592E+03</rscale>
<asrwt>0</asrwt>
<pdfrwt beam="1">  1       21 0.23642045E+00 0.45553592E+03</pdfrwt>
<pdfrwt beam="2">  1       21 0.28510732E-01 0.45553592E+03</pdfrwt>
<totfact> 0.77090703E+02</totfact>
</mgrwt>
</event>
<event>
 4    1  0.4962426E-002  0.4255856E+03  0.7818608E-02  0.1035264E+00
         21   -1    0    0  503  502  0.00000000000E+00  0.00000000000E+00  0.26977331789E+03  0.26977331789E+03  0.00000000000E+00 0.  1.
         21   -1    0    0  501  503 -0.00000000000E+00 -0.00000000000E+00 -0.83905592494E+03  0.83905592494E+03  0.00000000000E+00 0.  1.
    9000005    1    1    2  501    0  0.22485604867E+02  0.14358781022E+03 -0.53247585201E+03  0.68165504080E+03  0.40000000000E+03 0.  1.
   -9000005    1    1    2    0  502 -0.22485604867E+02 -0.14358781022E+03 -0.36806755043E+02  0.42717420204E+03  0.40000000000E+03 0.  1.
<mgrwt>
<rscale>  2 0.42558555E+03</rscale>
<asrwt>0</asrwt>
<pdfrwt beam="1">  1       21 0.41503589E-01 0.42558555E+03</pdfrwt>
<pdfrwt beam="2">  1       21 0.12908552E+00 0.42558555E+03</pdfrwt>
<totfact> 0.21365754E+03</totfact>
</mgrwt>
</event>
<event>
 4    1  0.4962426E-002  0.4108115E+03  0.7818608E-02  0.1040099E+00
         21   -1    0    0  501  502  0.00000000000E+00  0.00000000000E+00  0.11205595627E+04  0.11205595627E+04  0.00000000000E+00 0.  1.
         21   -1    0    0  502  503 -0.00000000000E+00 -0.00000000000E+00 -0.28957916509E+03  0.28957916509E+03  0.00000000000E+00 0.  1.
    9000005    1    1    2  501    0 -0.81234894995E+02  0.46550764656E+02  0.90392810005E+03  0.99290084697E+03  0.40000000000E+03 0.  1.
   -9000005    1    1    2    0  503  0.81234894995E+02 -0.46550764656E+02 -0.72947702481E+02  0.41723788077E+03  0.40000000000E+03 0.  1.
<mgrwt>
<rscale>  2 0.41081149E+03</rscale>
<asrwt>0</asrwt>
<pdfrwt beam="1">  1       21 0.17239378E+00 0.41081149E+03</pdfrwt>
<pdfrwt beam="2">  1       21 0.44550641E-01 0.41081149E+03</pdfrwt>
<totfact> 0.84721109E+02</totfact>
</mgrwt>
</event>
<event>
 4    1  0.4962426E-002  0.5079765E+03  0.7818608E-02  0.1011718E+00
         21   -1    0    0  501  502  0.00000000000E+00  0.00000000000E+00  0.15185091513E+04  0.15185091513E+04  0.00000000000E+00 0. -1.
         21   -1    0    0  502  503 -0.00000000000E+00 -0.00000000000E+00 -0.36356089281E+03  0.36356089281E+03  0.00000000000E+00 0. -1.
    9000005    1    1    2  501    0 -0.30227752508E+03 -0.81660465379E+02  0.12642335462E+04  0.13624707678E+04  0.40000000000E+03 0. -1.
   -9000005    1    1    2    0  503  0.30227752508E+03  0.81660465379E+02 -0.10928528776E+03  0.51959927626E+03  0.40000000000E+03 0. -1.
<mgrwt>
<rscale>  2 0.50797651E+03</rscale>
<asrwt>0</asrwt>
<pdfrwt beam="1">  1       21 0.23361679E+00 0.50797651E+03</pdfrwt>
<pdfrwt beam="2">  1       21 0.55932446E-01 0.50797651E+03</pdfrwt>
<totfact> 0.19439310E+02</totfact>
</mgrwt>
</event>
<event>
 4    1  0.4962426E-002  0.4034489E+03  0.7818608E-02  0.1042592E+00
         21   -1    0    0  501  502  0.00000000000E+00  0.00000000000E+00  0.15102055634E+04  0.15102055634E+04  0.00000000000E+00 0. -1.
         21   -1    0    0  502  503 -0.00000000000E+00 -0.00000000000E+00 -0.22896808369E+03  0.22896808369E+03  0.00000000000E+00 0. -1.
    9000005    1    1    2  501    0 -0.48348513456E+02  0.20820018953E+02  0.12732550784E+04  0.13356457414E+04  0.40000000000E+03 0. -1.
   -9000005    1    1    2    0  503  0.48348513456E+02 -0.20820018953E+02  0.79824013416E+01  0.40352790569E+03  0.40000000000E+03 0. -1.
<mgrwt>
<rscale>  2 0.40344895E+03</rscale>
<asrwt>0</asrwt>
<pdfrwt beam="1">  1       21 0.23233931E+00 0.40344895E+03</pdfrwt>
<pdfrwt beam="2">  1       21 0.35225860E-01 0.40344895E+03</pdfrwt>
<totfact> 0.55074934E+02</totfact>
</mgrwt>
</event>
<event>
 4    1  0.4962426E-002  0.4787011E+03  0.7818608E-02  0.1019493E+00
         21   -1    0    0  501  502  0.00000000000E+00  0.00000000000E+00  0.32498120342E+03  0.32498120342E+03  0.00000000000E+00 0. -1.
         21   -1    0    0  502  503 -0.00000000000E+00 -0.00000000000E+00 -0.13964812755E+04  0.13964812755E+04  0.00000000000E+00 0.  1.
    9000005    1    1    2  501    0 -0.25499476240E+03  0.64283610857E+02  0.69867859569E+02  0.48377291086E+03  0.40000000000E+03 0. -1.
   -9000005    1    1    2    0  503  0.25499476240E+03 -0.64283610857E+02 -0.11413679316E+04  0.12376895680E+04  0.40000000000E+03 0.  1.
<mgrwt>
<rscale>  2 0.47870107E+03</rscale>
<asrwt>0</asrwt>
<pdfrwt beam="1">  1       21 0.49997107E-01 0.47870107E+03</pdfrwt>
<pdfrwt beam="2">  1       21 0.21484328E+00 0.47870107E+03</pdfrwt>
<totfact> 0.33067994E+02</totfact>
</mgrwt>
</event>
<event>
 4    1  0.4962426E-002  0.4208198E+03  0.7818608E-02  0.1036800E+00
         21   -1    0    0  501  502  0.00000000000E+00  0.00000000000E+00  0.11603892540E+03  0.11603892540E+03  0.00000000000E+00 0. -1.
         21   -1    0    0  502  503 -0.00000000000E+00 -0.00000000000E+00 -0.16151526657E+04  0.16151526657E+04  0.00000000000E+00 0. -1.
    9000005    1    1    2  501    0 -0.41115453236E+02 -0.12409206815E+03 -0.95278466251E+03  0.10415795385E+04  0.40000000000E+03 0. -1.
   -9000005    1    1    2    0  503  0.41115453236E+02  0.12409206815E+03 -0.54632907774E+03  0.68961205257E+03  0.40000000000E+03 0. -1.
<mgrwt>
<rscale>  2 0.42081982E+03</rscale>
<asrwt>0</asrwt>
<pdfrwt beam="1">  1       21 0.17852141E-01 0.42081982E+03</pdfrwt>
<pdfrwt beam="2">  1       21 0.24848504E+00 0.42081982E+03</pdfrwt>
<totfact> 0.16272368E+03</totfact>
</mgrwt>
</event>
<event>
 4    1  0.4962426E-002  0.4286835E+03  0.7818608E-02  0.1034277E+00
         21   -1    0    0  503  502  0.00000000000E+00  0.00000000000E+00  0.37954678181E+03  0.37954678181E+03  0.00000000000E+00 0. -1.
         21   -1    0    0  501  503 -0.00000000000E+00 -0.00000000000E+00 -0.73760224897E+03  0.73760224897E+03  0.00000000000E+00 0.  1.
    9000005    1    1    2  501    0 -0.87665168600E+02  0.12682410699E+03 -0.50643708035E+03  0.66351190815E+03  0.40000000000E+03 0.  1.
   -9000005    1    1    2    0  502  0.87665168600E+02 -0.12682410699E+03  0.14838161319E+03  0.45363712263E+03  0.40000000000E+03 0. -1.
<mgrwt>
<rscale>  2 0.42868349E+03</rscale>
<asrwt>0</asrwt>
<pdfrwt beam="1">  1       21 0.58391813E-01 0.42868349E+03</pdfrwt>
<pdfrwt beam="2">  1       21 0.11347727E+00 0.42868349E+03</pdfrwt>
<totfact> 0.14352392E+03</totfact>
</mgrwt>
</event>
<event>
 4    1  0.4962426E-002  0.4178853E+03  0.7818608E-02  0.1037757E+00
         21   -1    0    0  503  502  0.00000000000E+00  0.00000000000E+00  0.10332899255E+04  0.10332899255E+04  0.00000000000E+00 0.  1.
         21   -1    0    0  501  503 -0.00000000000E+00 -0.00000000000E+00 -0.25778660029E+03  0.25778660029E+03  0.00000000000E+00 0.  1.
    9000005    1    1    2  501    0 -0.10791649088E+03 -0.54609265462E+02  0.89076223106E+01  0.41798024668E+03  0.40000000000E+03 0.  1.
   -9000005    1    1    2    0  502  0.10791649088E+03  0.54609265462E+02  0.76659570287E+03  0.87309627907E+03  0.40000000000E+03 0.  1.
<mgrwt>
<rscale>  2 0.41788532E+03</rscale>
<asrwt>0</asrwt>
<pdfrwt beam="1">  1       21 0.15896768E+00 0.41788532E+03</pdfrwt>
<pdfrwt beam="2">  1       21 0.39659477E-01 0.41788532E+03</pdfrwt>
<totfact> 0.13495078E+03</totfact>
</mgrwt>
</event>
<event>
 4    1  0.4962426E-002  0.4641098E+03  0.7818608E-02  0.1023596E+00
         21   -1    0    0  503  502  0.00000000000E+00  0.00000000000E+00  0.21333176981E+04  0.21333176981E+04  0.00000000000E+00 0. -1.
         21   -1    0    0  501  503 -0.00000000000E+00 -0.00000000000E+00 -0.12776589283E+03  0.12776589283E+03  0.00000000000E+00 0. -1.
    9000005    1    1    2  501    0  0.16763255663E+03  0.16521871276E+03  0.48501960231E+03  0.67129867549E+03  0.40000000000E+03 0. -1.
   -9000005    1    1    2    0  502 -0.16763255663E+03 -0.16521871276E+03  0.15205322029E+04  0.15897849154E+04  0.40000000000E+03 0. -1.
<mgrwt>
<rscale>  2 0.46410979E+03</rscale>
<asrwt>0</asrwt>
<pdfrwt beam="1">  1       21 0.32820270E+00 0.46410979E+03</pdfrwt>
<pdfrwt beam="2">  1       21 0.19656293E-01 0.46410979E+03</pdfrwt>
<totfact> 0.43715406E+02</totfact>
</mgrwt>
</event>
<event>
 4    1  0.4962426E-002  0.4270246E+03  0.7818608E-02  0.1034804E+00
         21   -1    0    0  503  502  0.00000000000E+00  0.00000000000E+00  0.39521597480E+03  0.39521597480E+03  0.00000000000E+00 0.  1.
         21   -1    0    0  501  503 -0.00000000000E+00 -0.00000000000E+00 -0.98598883472E+03  0.98598883472E+03  0.00000000000E+00 0.  1.
    9000005    1    1    2  501    0  0.10880398588E+03  0.10252660862E+03 -0.79912403391E+03  0.90606248923E+03  0.40000000000E+03 0.  1.
   -9000005    1    1    2    0  502 -0.10880398588E+03 -0.10252660862E+03  0.20835117400E+03  0.47514232029E+03  0.40000000000E+03 0.  1.
<mgrwt>
<rscale>  2 0.42702460E+03</rscale>
<asrwt>0</asrwt>
<pdfrwt beam="1">  1       21 0.60802458E-01 0.42702460E+03</pdfrwt>
<pdfrwt beam="2">  1       21 0.15169059E+00 0.42702460E+03</pdfrwt>
<totfact> 0.61759053E+02</totfact>
</mgrwt>
</event>
<event>
 4    1  0.4962426E-002  0.4688668E+03  0.7818608E-02  0.1022241E+00
         21   -1    0    0  503  502  0.00000000000E+00  0.00000000000E+00  0.33968876540E+03  0.33968876540E+03  0.00000000000E+00 0.  1.
         21   -1    0    0  501  503 -0.00000000000E+00 -0.00000000000E+00 -0.10742176472E+04  0.10742176472E+04  0.00000000000E+00 0.  1.
    9000005    1    1    2  501    0 -0.24344874408E+03  0.23848408287E+02 -0.81300607821E+03  0.93851740569E+03  0.40000000000E+03 0.  1.
   -9000005    1    1    2    0  502  0.24344874408E+03 -0.23848408287E+02  0.78477196377E+02  0.47538900694E+03  0.40000000000E+03 0.  1.
<mgrwt>
<rscale>  2 0.46886676E+03</rscale>
<asrwt>0</asrwt>
<pdfrwt beam="1">  1       21 0.52259810E-01 0.46886676E+03</pdfrwt>
<pdfrwt beam="2">  1       21 0.16526425E+00 0.46886676E+03</pdfrwt>
<totfact> 0.66332746E+02</totfact>
</mgrwt>
</event>
<event>
 4    1  0.4962426E-002  0.4602557E+03  0.7818608E-02  0.1024707E+00
         21   -1    0    0  503  502  0.00000000000E+00  0.00000000000E+00  0.17788715277E+03  0.17788715277E+03  0.00000000000E+00 0. -1.
         21   -1    0    0  501  503 -0.00000000000E+00 -0.00000000000E+00 -0.17222511489E+04  0.17222511489E+04  0.00000000000E+00 0. -1.
    9000005    1    1    2  501    0  0.22663827262E+03 -0.21689497244E+02 -0.12999242154E+04  0.13789990234E+04  0.40000000000E+03 0. -1.
   -9000005    1    1    2    0  502 -0.22663827262E+03  0.21689497244E+02 -0.24443978077E+03  0.52113927825E+03  0.40000000000E+03 0. -1.
<mgrwt>
<rscale>  2 0.46025573E+03</rscale>
<asrwt>0</asrwt>
<pdfrwt beam="1">  1       21 0.27367254E-01 0.46025573E+03</pdfrwt>
<pdfrwt beam="2">  1       21 0.26496171E+00 0.46025573E+03</pdfrwt>
<totfact> 0.55661793E+02</totfact>
</mgrwt>
</event>
<event>
 4    1  0.4962426E-002  0.5149880E+03  0.7818608E-02  0.1009939E+00
         21   -1    0    0  503  502  0.00000000000E+00  0.00000000000E+00  0.17310460501E+03  0.17310460501E+03  0.00000000000E+00 0. -1.
         21   -1    0    0  501  503 -0.00000000000E+00 -0.00000000000E+00 -0.15707599421E+04  0.15707599421E+04  0.00000000000E+00 0. -1.
    9000005    1    1    2  501    0  0.19067353635E+03 -0.26240467414E+03 -0.56202662054E+03  0.76229032046E+03  0.40000000000E+03 0. -1.
   -9000005    1    1    2    0  502 -0.19067353635E+03  0.26240467414E+03 -0.83562871652E+03  0.98157422661E+03  0.40000000000E+03 0. -1.
<mgrwt>
<rscale>  2 0.51498797E+03</rscale>
<asrwt>0</asrwt>
<pdfrwt beam="1">  1       21 0.26631478E-01 0.51498797E+03</pdfrwt>
<pdfrwt beam="2">  1       21 0.24165537E+00 0.51498797E+03</pdfrwt>
<totfact> 0.79572429E+02</totfact>
</mgrwt>
</event>
<event>
 4    1  0.4962426E-002  0.4495175E+03  0.7818608E-02  0.1027866E+00
         21   -1    0    0  503  502  0.00000000000E+00  0.00000000000E+00  0.57230290005E+03  0.57230290005E+03  0.00000000000E+00 0. -1.
         21   -1    0    0  501  503 -0.00000000000E+00 -0.00000000000E+00 -0.37954366888E+03  0.37954366888E+03  0.00000000000E+00 0. -1.
    9000005    1    1    2  501    0 -0.20443301184E+03 -0.16525896180E+02 -0.29301630349E+02  0.45047147203E+03  0.40000000000E+03 0. -1.
   -9000005    1    1    2    0  502  0.20443301184E+03  0.16525896180E+02  0.22206086152E+03  0.50137509690E+03  0.40000000000E+03 0. -1.
<mgrwt>
<rscale>  2 0.44951748E+03</rscale>
<asrwt>0</asrwt>
<pdfrwt beam="1">  1       21 0.88046600E-01 0.44951748E+03</pdfrwt>
<pdfrwt beam="2">  1       21 0.58391334E-01 0.44951748E+03</pdfrwt>
<totfact> 0.26355355E+03</totfact>
</mgrwt>
</event>
<event>
 4    1  0.4962426E-002  0.4232027E+03  0.7818608E-02  0.1036029E+00
         21   -1    0    0  501  502  0.00000000000E+00  0.00000000000E+00  0.20009553578E+04  0.20009553578E+04  0.00000000000E+00 0.  1.
         21   -1    0    0  502  503 -0.00000000000E+00 -0.00000000000E+00 -0.65172420361E+03  0.65172420361E+03  0.00000000000E+00 0.  1.
    9000005    1    1    2  501    0  0.11848951517E+03  0.71138837035E+02  0.19065135629E+04  0.19529194722E+04  0.40000000000E+03 0.  1.
   -9000005    1    1    2    0  503 -0.11848951517E+03 -0.71138837035E+02 -0.55728240873E+03  0.69976008919E+03  0.40000000000E+03 0.  1.
<mgrwt>
<rscale>  2 0.42320267E+03</rscale>
<asrwt>0</asrwt>
<pdfrwt beam="1">  1       21 0.30783928E+00 0.42320267E+03</pdfrwt>
<pdfrwt beam="2">  1       21 0.10026526E+00 0.42320267E+03</pdfrwt>
<totfact> 0.19056782E+01</totfact>
</mgrwt>
</event>
<event>
 4    1  0.4962426E-002  0.5122000E+03  0.7818608E-02  0.1010643E+00
         21   -1    0    0  501  502  0.00000000000E+00  0.00000000000E+00  0.10407188018E+04  0.10407188018E+04  0.00000000000E+00 0. -1.
         21   -1    0    0  502  503 -0.00000000000E+00 -0.00000000000E+00 -0.32832819501E+03  0.32832819501E+03  0.00000000000E+00 0. -1.
    9000005    1    1    2  501    0  0.14449978988E+02 -0.31959348500E+03  0.68606088930E+03  0.85617074312E+03  0.40000000000E+03 0. -1.
   -9000005    1    1    2    0  503 -0.14449978988E+02  0.31959348500E+03  0.26329717465E+02  0.51287625366E+03  0.40000000000E+03 0. -1.
<mgrwt>
<rscale>  2 0.51219996E+03</rscale>
<asrwt>0</asrwt>
<pdfrwt beam="1">  1       21 0.16011058E+00 0.51219996E+03</pdfrwt>
<pdfrwt beam="2">  1       21 0.50512030E-01 0.51219996E+03</pdfrwt>
<totfact> 0.76603526E+02</totfact>
</mgrwt>
</event>
<event>
 4    1  0.4962426E-002  0.4574961E+03  0.7818608E-02  0.1025510E+00
         21   -1    0    0  501  502  0.00000000000E+00  0.00000000000E+00  0.16241278269E+04  0.16241278269E+04  0.00000000000E+00 0.  1.
         21   -1    0    0  502  503 -0.00000000000E+00 -0.00000000000E+00 -0.30772853456E+03  0.30772853456E+03  0.00000000000E+00 0.  1.
    9000005    1    1    2  501    0 -0.19424477836E+03 -0.10757172529E+03  0.13946013287E+04  0.14677246254E+04  0.40000000000E+03 0.  1.
   -9000005    1    1    2    0  503  0.19424477836E+03  0.10757172529E+03 -0.78202036295E+02  0.46413173613E+03  0.40000000000E+03 0.  1.
<mgrwt>
<rscale>  2 0.45749613E+03</rscale>
<asrwt>0</asrwt>
<pdfrwt beam="1">  1       21 0.24986581E+00 0.45749613E+03</pdfrwt>
<pdfrwt beam="2">  1       21 0.47342853E-01 0.45749613E+03</pdfrwt>
<totfact> 0.22602520E+02</totfact>
</mgrwt>
</event>
<event>
 4    1  0.4962426E-002  0.4439205E+03  0.7818608E-02  0.1029551E+00
         21   -1    0    0  503  502  0.00000000000E+00  0.00000000000E+00  0.50491634625E+03  0.50491634625E+03  0.00000000000E+00 0.  1.
         21   -1    0    0  501  503 -0.00000000000E+00 -0.00000000000E+00 -0.56439377318E+03  0.56439377318E+03  0.00000000000E+00 0. -1.
    9000005    1    1    2  501    0  0.18201513828E+03  0.62736878196E+02 -0.32668824892E+03  0.55117205883E+03  0.40000000000E+03 0. -1.
   -9000005    1    1    2    0  502 -0.18201513828E+03 -0.62736878196E+02  0.26721082199E+03  0.51813806060E+03  0.40000000000E+03 0.  1.
<mgrwt>
<rscale>  2 0.44392052E+03</rscale>
<asrwt>0</asrwt>
<pdfrwt beam="1">  1       21 0.77679438E-01 0.44392052E+03</pdfrwt>
<pdfrwt beam="2">  1       21 0.86829811E-01 0.44392052E+03</pdfrwt>
<totfact> 0.14412401E+03</totfact>
</mgrwt>
</event>
<event>
 4    1  0.4962426E-002  0.4695473E+03  0.7818608E-02  0.1022048E+00
         21   -1    0    0  503  502  0.00000000000E+00  0.00000000000E+00  0.20400000490E+03  0.20400000490E+03  0.00000000000E+00 0.  1.
         21   -1    0    0  501  503 -0.00000000000E+00 -0.00000000000E+00 -0.14240466977E+04  0.14240466977E+04  0.00000000000E+00 0.  1.
    9000005    1    1    2  501    0 -0.30273110619E+02 -0.24404542070E+03 -0.21035060682E+03  0.51451142493E+03  0.40000000000E+03 0.  1.
   -9000005    1    1    2    0  502  0.30273110619E+02  0.24404542070E+03 -0.10096960860E+04  0.11135352777E+04  0.40000000000E+03 0.  1.
<mgrwt>
<rscale>  2 0.46954726E+03</rscale>
<asrwt>0</asrwt>
<pdfrwt beam="1">  1       21 0.31384617E-01 0.46954726E+03</pdfrwt>
<pdfrwt beam="2">  1       21 0.21908410E+00 0.46954726E+03</pdfrwt>
<totfact> 0.81435805E+02</totfact>
</mgrwt>
</event>
<event>
 4    1  0.4962426E-002  0.4150608E+03  0.7818608E-02  0.1038686E+00
         21   -1    0    0  501  502  0.00000000000E+00  0.00000000000E+00  0.97310672752E+03  0.97310672752E+03  0.00000000000E+00 0.  1.
         21   -1    0    0  502  503 -0.00000000000E+00 -0.00000000000E+00 -0.25917825909E+03  0.25917825909E+03  0.00000000000E+00 0. -1.
    9000005    1    1    2  501    0 -0.24263494588E+00  0.11079444999E+03  0.70383181749E+03  0.81710139905E+03  0.40000000000E+03 0. -1.
   -9000005    1    1    2    0  503  0.24263494588E+00 -0.11079444999E+03  0.10096650936E+02  0.41518358756E+03  0.40000000000E+03 0. -1.
<mgrwt>
<rscale>  2 0.41506080E+03</rscale>
<asrwt>0</asrwt>
<pdfrwt beam="1">  1       21 0.14970873E+00 0.41506080E+03</pdfrwt>
<pdfrwt beam="2">  1       21 0.39873579E-01 0.41506080E+03</pdfrwt>
<totfact> 0.15749036E+03</totfact>
</mgrwt>
</event>
<event>
 4    1  0.4962426E-002  0.6129234E+03  0.7818608E-02  0.9878951E-01
         21   -1    0    0  503  502  0.00000000000E+00  0.00000000000E+00  0.45646247217E+03  0.45646247217E+03  0.00000000000E+00 0.  1.
         21   -1    0    0  501  503 -0.00000000000E+00 -0.00000000000E+00 -0.82352091998E+03  0.82352091998E+03  0.00000000000E+00 0. -1.
    9000005    1    1    2  501    0 -0.26420187884E+03 -0.38193245647E+03 -0.19940662768E+03  0.64454482951E+03  0.40000000000E+03 0. -1.
   -9000005    1    1    2    0  502  0.26420187884E+03  0.38193245647E+03 -0.16765182013E+03  0.63543856263E+03  0.40000000000E+03 0. -1.
<mgrwt>
<rscale>  2 0.61292335E+03</rscale>
<asrwt>0</asrwt>
<pdfrwt beam="1">  1       21 0.70224997E-01 0.61292335E+03</pdfrwt>
<pdfrwt beam="2">  1       21 0.12669552E+00 0.61292335E+03</pdfrwt>
<totfact> 0.67281806E+02</totfact>
</mgrwt>
</event>
<event>
 4    1  0.4962426E-002  0.4002971E+03  0.7818608E-02  0.1043677E+00
         21   -1    0    0  503  502  0.00000000000E+00  0.00000000000E+00  0.34496473371E+03  0.34496473371E+03  0.00000000000E+00 0. -1.
         21   -1    0    0  501  503 -0.00000000000E+00 -0.00000000000E+00 -0.46479581048E+03  0.46479581048E+03  0.00000000000E+00 0. -1.
    9000005    1    1    2  501    0  0.11120099541E+02 -0.10683338683E+02 -0.49785388635E+02  0.40338117861E+03  0.40000000000E+03 0. -1.
   -9000005    1    1    2    0  502 -0.11120099541E+02  0.10683338683E+02 -0.70045688136E+02  0.40637936558E+03  0.40000000000E+03 0. -1.
<mgrwt>
<rscale>  2 0.40029713E+03</rscale>
<asrwt>0</asrwt>
<pdfrwt beam="1">  1       21 0.53071497E-01 0.40029713E+03</pdfrwt>
<pdfrwt beam="2">  1       21 0.71507048E-01 0.40029713E+03</pdfrwt>
<totfact> 0.53273064E+03</totfact>
</mgrwt>
</event>
<event>
 4    1  0.4962426E-002  0.4247422E+03  0.7818608E-02  0.1035534E+00
         21   -1    0    0  503  502  0.00000000000E+00  0.00000000000E+00  0.73302156609E+03  0.73302156609E+03  0.00000000000E+00 0.  1.
         21   -1    0    0  501  503 -0.00000000000E+00 -0.00000000000E+00 -0.24617095867E+03  0.24617095867E+03  0.00000000000E+00 0.  1.
    9000005    1    1    2  501    0 -0.80641388825E+02  0.11791057624E+03  0.23589531673E+03  0.48585238297E+03  0.40000000000E+03 0.  1.
   -9000005    1    1    2    0  502  0.80641388825E+02 -0.11791057624E+03  0.25095529069E+03  0.49334014180E+03  0.40000000000E+03 0.  1.
<mgrwt>
<rscale>  2 0.42474220E+03</rscale>
<asrwt>0</asrwt>
<pdfrwt beam="1">  1       21 0.11277255E+00 0.42474220E+03</pdfrwt>
<pdfrwt beam="2">  1       21 0.37872455E-01 0.42474220E+03</pdfrwt>
<totfact> 0.36352204E+03</totfact>
</mgrwt>
</event>
<event>
 4    1  0.4962426E-002  0.4193627E+03  0.7818608E-02  0.1037274E+00
         21   -1    0    0  503  502  0.00000000000E+00  0.00000000000E+00  0.13026423030E+04  0.13026423030E+04  0.00000000000E+00 0. -1.
         21   -1    0    0  501  503 -0.00000000000E+00 -0.00000000000E+00 -0.15541192726E+03  0.15541192726E+03  0.00000000000E+00 0. -1.
    9000005    1    1    2  501    0 -0.61809698465E+02 -0.10974790206E+03  0.30945006624E+03  0.52117596292E+03  0.40000000000E+03 0. -1.
   -9000005    1    1    2    0  502  0.61809698465E+02  0.10974790206E+03  0.83778030948E+03  0.93687826733E+03  0.40000000000E+03 0. -1.
<mgrwt>
<rscale>  2 0.41936266E+03</rscale>
<asrwt>0</asrwt>
<pdfrwt beam="1">  1       21 0.20040650E+00 0.41936266E+03</pdfrwt>
<pdfrwt beam="2">  1       21 0.23909528E-01 0.41936266E+03</pdfrwt>
<totfact> 0.18835540E+03</totfact>
</mgrwt>
</event>
<event>
 4    1  0.4962426E-002  0.4101090E+03  0.7818608E-02  0.1040334E+00
         21   -1    0    0  503  502  0.00000000000E+00  0.00000000000E+00  0.17445162247E+04  0.17445162247E+04  0.00000000000E+00 0.  1.
         21   -1    0    0  501  503 -0.00000000000E+00 -0.00000000000E+00 -0.14539866292E+03  0.14539866292E+03  0.00000000000E+00 0.  1.
    9000005    1    1    2  501    0  0.11656420952E+02 -0.89741475008E+02  0.25105664300E+03  0.48085220441E+03  0.40000000000E+03 0.  1.
   -9000005    1    1    2    0  502 -0.11656420952E+02  0.89741475008E+02  0.13480609188E+04  0.14090626832E+04  0.40000000000E+03 0.  1.
<mgrwt>
<rscale>  2 0.41010902E+03</rscale>
<asrwt>0</asrwt>
<pdfrwt beam="1">  1       21 0.26838710E+00 0.41010902E+03</pdfrwt>
<pdfrwt beam="2">  1       21 0.22369026E-01 0.41010902E+03</pdfrwt>
<totfact> 0.80693009E+02</totfact>
</mgrwt>
</event>
<event>
 4    1  0.4962426E-002  0.4184154E+03  0.7818608E-02  0.1037583E+00
         21   -1    0    0  501  502  0.00000000000E+00  0.00000000000E+00  0.15068726930E+03  0.15068726930E+03  0.00000000000E+00 0. -1.
         21   -1    0    0  502  503 -0.00000000000E+00 -0.00000000000E+00 -0.20250110011E+04  0.20250110011E+04  0.00000000000E+00 0. -1.
    9000005    1    1    2  501    0 -0.11439257088E+03  0.44562465778E+02 -0.22691644006E+03  0.47598586575E+03  0.40000000000E+03 0. -1.
   -9000005    1    1    2    0  503  0.11439257088E+03 -0.44562465778E+02 -0.16474072917E+04  0.16997124046E+04  0.40000000000E+03 0. -1.
<mgrwt>
<rscale>  2 0.41841543E+03</rscale>
<asrwt>0</asrwt>
<pdfrwt beam="1">  1       21 0.23182659E-01 0.41841543E+03</pdfrwt>
<pdfrwt beam="2">  1       21 0.31154013E+00 0.41841543E+03</pdfrwt>
<totfact> 0.41293647E+02</totfact>
</mgrwt>
</event>
<event>
 4    1  0.4962426E-002  0.4442243E+03  0.7818608E-02  0.1029459E+00
         21   -1    0    0  501  502  0.00000000000E+00  0.00000000000E+00  0.12223831394E+03  0.12223831394E+03  0.00000000000E+00 0. -1.
         21   -1    0    0  502  503 -0.00000000000E+00 -0.00000000000E+00 -0.16473496383E+04  0.16473496383E+04  0.00000000000E+00 0. -1.
    9000005    1    1    2  501    0 -0.11974814411E+03  0.15164292577E+03 -0.63732344129E+03  0.77686315640E+03  0.40000000000E+03 0. -1.
   -9000005    1    1    2    0  503  0.11974814411E+03 -0.15164292577E+03 -0.88778788312E+03  0.99272479589E+03  0.40000000000E+03 0. -1.
<mgrwt>
<rscale>  2 0.44422426E+03</rscale>
<asrwt>0</asrwt>
<pdfrwt beam="1">  1       21 0.18805895E-01 0.44422426E+03</pdfrwt>
<pdfrwt beam="2">  1       21 0.25343839E+00 0.44422426E+03</pdfrwt>
<totfact> 0.13596455E+03</totfact>
</mgrwt>
</event>
<event>
 4    1  0.4962426E-002  0.4278186E+03  0.7818608E-02  0.1034551E+00
         21   -1    0    0  501  502  0.00000000000E+00  0.00000000000E+00  0.83680900339E+03  0.83680900339E+03  0.00000000000E+00 0. -1.
         21   -1    0    0  502  503 -0.00000000000E+00 -0.00000000000E+00 -0.21874221381E+03  0.21874221381E+03  0.00000000000E+00 0.  1.
    9000005    1    1    2  501    0  0.51064163477E+02 -0.14290265083E+03  0.31408018894E+03  0.53073070524E+03  0.40000000000E+03 0.  1.
   -9000005    1    1    2    0  503 -0.51064163477E+02  0.14290265083E+03  0.30398660065E+03  0.52482051196E+03  0.40000000000E+03 0.  1.
<mgrwt>
<rscale>  2 0.42781856E+03</rscale>
<asrwt>0</asrwt>
<pdfrwt beam="1">  1       21 0.12873984E+00 0.42781856E+03</pdfrwt>
<pdfrwt beam="2">  1       21 0.33652649E-01 0.42781856E+03</pdfrwt>
<totfact> 0.32963928E+03</totfact>
</mgrwt>
</event>
<event>
 4    1  0.4962426E-002  0.4185632E+03  0.7818608E-02  0.1037535E+00
         21   -1    0    0  501  502  0.00000000000E+00  0.00000000000E+00  0.33315108530E+03  0.33315108530E+03  0.00000000000E+00 0.  1.
         21   -1    0    0  502  503 -0.00000000000E+00 -0.00000000000E+00 -0.66914073595E+03  0.66914073595E+03  0.00000000000E+00 0.  1.
    9000005    1    1    2  501    0  0.46411523071E+02  0.11419756088E+03  0.63894028864E+02  0.42341180818E+03  0.40000000000E+03 0.  1.
   -9000005    1    1    2    0  503 -0.46411523071E+02 -0.11419756088E+03 -0.39988367952E+03  0.57888001307E+03  0.40000000000E+03 0.  1.
<mgrwt>
<rscale>  2 0.41856315E+03</rscale>
<asrwt>0</asrwt>
<pdfrwt beam="1">  1       21 0.51254014E-01 0.41856315E+03</pdfrwt>
<pdfrwt beam="2">  1       21 0.10294473E+00 0.41856315E+03</pdfrwt>
<totfact> 0.24276252E+03</totfact>
</mgrwt>
</event>
<event>
 4    1  0.4962426E-002  0.4189354E+03  0.7818608E-02  0.1037413E+00
         21   -1    0    0  503  502  0.00000000000E+00  0.00000000000E+00  0.31719706515E+03  0.31719706515E+03  0.00000000000E+00 0. -1.
         21   -1    0    0  501  503 -0.00000000000E+00 -0.00000000000E+00 -0.58838347799E+03  0.58838347799E+03  0.00000000000E+00 0.  1.
    9000005    1    1    2  501    0  0.10319584383E+03 -0.69695710259E+02 -0.24614969984E+03  0.48589767333E+03  0.40000000000E+03 0.  1.
   -9000005    1    1    2    0  502 -0.10319584383E+03  0.69695710259E+02 -0.25036713001E+02  0.41968286981E+03  0.40000000000E+03 0. -1.
<mgrwt>
<rscale>  2 0.41893541E+03</rscale>
<asrwt>0</asrwt>
<pdfrwt beam="1">  1       21 0.48799549E-01 0.41893541E+03</pdfrwt>
<pdfrwt beam="2">  1       21 0.90520534E-01 0.41893541E+03</pdfrwt>
<totfact> 0.36699461E+03</totfact>
</mgrwt>
</event>
<event>
 4    1  0.4962426E-002  0.4878555E+03  0.7818608E-02  0.1016998E+00
         21   -1    0    0  501  502  0.00000000000E+00  0.00000000000E+00  0.68406216801E+03  0.68406216801E+03  0.00000000000E+00 0. -1.
         21   -1    0    0  502  503 -0.00000000000E+00 -0.00000000000E+00 -0.74678828467E+03  0.74678828467E+03  0.00000000000E+00 0. -1.
    9000005    1    1    2  501    0  0.26218491927E+03  0.96239369254E+02  0.49148685464E+03  0.69250435116E+03  0.40000000000E+03 0. -1.
   -9000005    1    1    2    0  503 -0.26218491927E+03 -0.96239369254E+02 -0.55421297130E+03  0.73834610153E+03  0.40000000000E+03 0. -1.
<mgrwt>
<rscale>  2 0.48785546E+03</rscale>
<asrwt>0</asrwt>
<pdfrwt beam="1">  1       21 0.10524033E+00 0.48785546E+03</pdfrwt>
<pdfrwt beam="2">  1       21 0.11489050E+00 0.48785546E+03</pdfrwt>
<totfact> 0.34818813E+02</totfact>
</mgrwt>
</event>
<event>
 4    1  0.4962426E-002  0.4251340E+03  0.7818608E-02  0.1035408E+00
         21   -1    0    0  503  502  0.00000000000E+00  0.00000000000E+00  0.38652022072E+03  0.38652022072E+03  0.00000000000E+00 0.  1.
         21   -1    0    0  501  503 -0.00000000000E+00 -0.00000000000E+00 -0.51409702096E+03  0.51409702096E+03  0.00000000000E+00 0.  1.
    9000005    1    1    2  501    0 -0.26797279042E+02  0.14149510967E+03 -0.19920591723E+03  0.46949116891E+03  0.40000000000E+03 0.  1.
   -9000005    1    1    2    0  502  0.26797279042E+02 -0.14149510967E+03  0.71629116998E+02  0.43112607277E+03  0.40000000000E+03 0.  1.
<mgrwt>
<rscale>  2 0.42513405E+03</rscale>
<asrwt>0</asrwt>
<pdfrwt beam="1">  1       21 0.59464650E-01 0.42513405E+03</pdfrwt>
<pdfrwt beam="2">  1       21 0.79091849E-01 0.42513405E+03</pdfrwt>
<totfact> 0.32806360E+03</totfact>
</mgrwt>
</event>
<event>
 4    1  0.4962426E-002  0.4134988E+03  0.7818608E-02  0.1039203E+00
         21   -1    0    0  503  502  0.00000000000E+00  0.00000000000E+00  0.96097490879E+03  0.96097490879E+03  0.00000000000E+00 0.  1.
         21   -1    0    0  501  503 -0.00000000000E+00 -0.00000000000E+00 -0.32661621289E+03  0.32661621289E+03  0.00000000000E+00 0.  1.
    9000005    1    1    2  501    0  0.10406455604E+03 -0.12321654870E+02 -0.11720290441E+03  0.42978805917E+03  0.40000000000E+03 0.  1.
   -9000005    1    1    2    0  502 -0.10406455604E+03  0.12321654870E+02  0.75156160031E+03  0.85780306251E+03  0.40000000000E+03 0.  1.
<mgrwt>
<rscale>  2 0.41349880E+03</rscale>
<asrwt>0</asrwt>
<pdfrwt beam="1">  1       21 0.14784229E+00 0.41349880E+03</pdfrwt>
<pdfrwt beam="2">  1       21 0.50248648E-01 0.41349880E+03</pdfrwt>
<totfact> 0.10054764E+03</totfact>
</mgrwt>
</event>
<event>
 4    1  0.4962426E-002  0.4892625E+03  0.7818608E-02  0.1016620E+00
         21   -1    0    0  503  502  0.00000000000E+00  0.00000000000E+00  0.58917966970E+03  0.58917966970E+03  0.00000000000E+00 0. -1.
         21   -1    0    0  501  503 -0.00000000000E+00 -0.00000000000E+00 -0.43656525657E+03  0.43656525657E+03  0.00000000000E+00 0. -1.
    9000005    1    1    2  501    0 -0.26642130623E+03  0.91637596569E+02 -0.58753581294E+02  0.49277758150E+03  0.40000000000E+03 0. -1.
   -9000005    1    1    2    0  502  0.26642130623E+03 -0.91637596569E+02  0.21136799443E+03  0.53296734477E+03  0.40000000000E+03 0. -1.
<mgrwt>
<rscale>  2 0.48926247E+03</rscale>
<asrwt>0</asrwt>
<pdfrwt beam="1">  1       21 0.90643026E-01 0.48926247E+03</pdfrwt>
<pdfrwt beam="2">  1       21 0.67163886E-01 0.48926247E+03</pdfrwt>
<totfact> 0.17801868E+03</totfact>
</mgrwt>
</event>
<event>
 4    1  0.4962426E-002  0.4569346E+03  0.7818608E-02  0.1025674E+00
         21   -1    0    0  501  502  0.00000000000E+00  0.00000000000E+00  0.65553640670E+03  0.65553640670E+03  0.00000000000E+00 0. -1.
         21   -1    0    0  502  503 -0.00000000000E+00 -0.00000000000E+00 -0.33614468662E+03  0.33614468662E+03  0.00000000000E+00 0.  1.
    9000005    1    1    2  501    0 -0.32156812657E+02  0.21852963136E+03  0.27329334375E+03  0.53242700168E+03  0.40000000000E+03 0. -1.
   -9000005    1    1    2    0  503  0.32156812657E+02 -0.21852963136E+03  0.46098376336E+02  0.45925409164E+03  0.40000000000E+03 0. -1.
<mgrwt>
<rscale>  2 0.45693463E+03</rscale>
<asrwt>0</asrwt>
<pdfrwt beam="1">  1       21 0.10085175E+00 0.45693463E+03</pdfrwt>
<pdfrwt beam="2">  1       21 0.51714567E-01 0.45693463E+03</pdfrwt>
<totfact> 0.24682576E+03</totfact>
</mgrwt>
</event>
<event>
 4    1  0.4962426E-002  0.4231548E+03  0.7818608E-02  0.1036044E+00
         21   -1    0    0  501  502  0.00000000000E+00  0.00000000000E+00  0.14747176209E+04  0.14747176209E+04  0.00000000000E+00 0. -1.
         21   -1    0    0  502  503 -0.00000000000E+00 -0.00000000000E+00 -0.39035445657E+03  0.39035445657E+03  0.00000000000E+00 0. -1.
    9000005    1    1    2  501    0  0.12685470027E+03  0.54478040651E+02  0.13162144636E+04  0.13825630134E+04  0.40000000000E+03 0. -1.
   -9000005    1    1    2    0  503 -0.12685470027E+03 -0.54478040651E+02 -0.23185129929E+03  0.48250906404E+03  0.40000000000E+03 0. -1.
<mgrwt>
<rscale>  2 0.42315478E+03</rscale>
<asrwt>0</asrwt>
<pdfrwt beam="1">  1       21 0.22687963E+00 0.42315478E+03</pdfrwt>
<pdfrwt beam="2">  1       21 0.60054533E-01 0.42315478E+03</pdfrwt>
<totfact> 0.19220702E+02</totfact>
</mgrwt>
</event>
<event>
 4    1  0.4962426E-002  0.4011898E+03  0.7818608E-02  0.1043368E+00
         21   -1    0    0  503  502  0.00000000000E+00  0.00000000000E+00  0.67837323849E+03  0.67837323849E+03  0.00000000000E+00 0.  1.
         21   -1    0    0  501  503 -0.00000000000E+00 -0.00000000000E+00 -0.25288643479E+03  0.25288643479E+03  0.00000000000E+00 0.  1.
    9000005    1    1    2  501    0 -0.17682983965E+02  0.25309772475E+02  0.97010180763E+02  0.41275204140E+03  0.40000000000E+03 0.  1.
   -9000005    1    1    2    0  502  0.17682983965E+02 -0.25309772475E+02  0.32847662294E+03  0.51850763188E+03  0.40000000000E+03 0.  1.
<mgrwt>
<rscale>  2 0.40118982E+03</rscale>
<asrwt>0</asrwt>
<pdfrwt beam="1">  1       21 0.10436511E+00 0.40118982E+03</pdfrwt>
<pdfrwt beam="2">  1       21 0.38905606E-01 0.40118982E+03</pdfrwt>
<totfact> 0.42036930E+03</totfact>
</mgrwt>
</event>
<event>
 4    1  0.4962426E-002  0.4186230E+03  0.7818608E-02  0.1037515E+00
         21   -1    0    0  503  502  0.00000000000E+00  0.00000000000E+00  0.34230958724E+03  0.34230958724E+03  0.00000000000E+00 0. -1.
         21   -1    0    0  501  503 -0.00000000000E+00 -0.00000000000E+00 -0.59152132896E+03  0.59152132896E+03  0.00000000000E+00 0. -1.
    9000005    1    1    2  501    0  0.31958644903E+02 -0.11926397780E+03 -0.29585662158E+03  0.51261719823E+03  0.40000000000E+03 0. -1.
   -9000005    1    1    2    0  502 -0.31958644903E+02  0.11926397780E+03  0.46644879867E+02  0.42121371797E+03  0.40000000000E+03 0. -1.
<mgrwt>
<rscale>  2 0.41862304E+03</rscale>
<asrwt>0</asrwt>
<pdfrwt beam="1">  1       21 0.52663013E-01 0.41862304E+03</pdfrwt>
<pdfrwt beam="2">  1       21 0.91003281E-01 0.41862304E+03</pdfrwt>
<totfact> 0.30818546E+03</totfact>
</mgrwt>
</event>
<event>
 4    1  0.4962426E-002  0.4224738E+03  0.7818608E-02  0.1036264E+00
         21   -1    0    0  501  502  0.00000000000E+00  0.00000000000E+00  0.11350939168E+04  0.11350939168E+04  0.00000000000E+00 0.  1.
         21   -1    0    0  502  503 -0.00000000000E+00 -0.00000000000E+00 -0.22908381509E+03  0.22908381509E+03  0.00000000000E+00 0.  1.
    9000005    1    1    2  501    0 -0.57549057719E+02  0.12317542018E+03  0.83497866355E+03  0.93577424989E+03  0.40000000000E+03 0.  1.
   -9000005    1    1    2    0  503  0.57549057719E+02 -0.12317542018E+03  0.71031438158E+02  0.42840348200E+03  0.40000000000E+03 0.  1.
<mgrwt>
<rscale>  2 0.42247376E+03</rscale>
<asrwt>0</asrwt>
<pdfrwt beam="1">  1       21 0.17462983E+00 0.42247376E+03</pdfrwt>
<pdfrwt beam="2">  1       21 0.35243665E-01 0.42247376E+03</pdfrwt>
<totfact> 0.13141391E+03</totfact>
</mgrwt>
</event>
<event>
 4    1  0.4962426E-002  0.4070013E+03  0.7818608E-02  0.1041382E+00
         21   -1    0    0  503  502  0.00000000000E+00  0.00000000000E+00  0.38695137919E+03  0.38695137919E+03  0.00000000000E+00 0. -1.
         21   -1    0    0  501  503 -0.00000000000E+00 -0.00000000000E+00 -0.46342188812E+03  0.46342188812E+03  0.00000000000E+00 0.  1.
    9000005    1    1    2  501    0  0.57991477042E+01 -0.74942661673E+02 -0.15563698259E+03  0.43574407971E+03  0.40000000000E+03 0.  1.
   -9000005    1    1    2    0  502 -0.57991477042E+01  0.74942661673E+02  0.79166473662E+02  0.41462918759E+03  0.40000000000E+03 0. -1.
<mgrwt>
<rscale>  2 0.40700127E+03</rscale>
<asrwt>0</asrwt>
<pdfrwt beam="1">  1       21 0.59530982E-01 0.40700127E+03</pdfrwt>
<pdfrwt beam="2">  1       21 0.71295675E-01 0.40700127E+03</pdfrwt>
<totfact> 0.41732415E+03</totfact>
</mgrwt>
</event>
<event>
 4    1  0.4962426E-002  0.6644213E+03  0.7818608E-02  0.9780089E-01
         21   -1    0    0  503  502  0.00000000000E+00  0.00000000000E+00  0.26104313953E+03  0.26104313953E+03  0.00000000000E+00 0.  1.
         21   -1    0    0  501  503 -0.00000000000E+00 -0.00000000000E+00 -0.16931105689E+04  0.16931105689E+04  0.00000000000E+00 0. -1.
    9000005    1    1    2  501    0 -0.52515773360E+03 -0.75266703298E+02 -0.74952158382E+03  0.10016178545E+04  0.40000000000E+03 0. -1.
   -9000005    1    1    2    0  502  0.52515773360E+03  0.75266703298E+02 -0.68254584552E+03  0.95253585393E+03  0.40000000000E+03 0.  1.
<mgrwt>
<rscale>  2 0.66442134E+03</rscale>
<asrwt>0</asrwt>
<pdfrwt beam="1">  1       21 0.40160484E-01 0.66442134E+03</pdfrwt>
<pdfrwt beam="2">  1       21 0.26047855E+00 0.66442134E+03</pdfrwt>
<totfact> 0.24987946E+02</totfact>
</mgrwt>
</event>
<event>
 4    1  0.4962426E-002  0.9760798E+03  0.7818608E-02  0.9335176E-01
         21   -1    0    0  501  502  0.00000000000E+00  0.00000000000E+00  0.12450779762E+04  0.12450779762E+04  0.00000000000E+00 0. -1.
         21   -1    0    0  502  503 -0.00000000000E+00 -0.00000000000E+00 -0.76520207351E+03  0.76520207351E+03  0.00000000000E+00 0.  1.
    9000005    1    1    2  501    0 -0.16032118493E+03  0.87580189651E+03  0.24209919127E+03  0.10056559365E+04  0.40000000000E+03 0. -1.
   -9000005    1    1    2    0  503  0.16032118493E+03 -0.87580189651E+03  0.23777671142E+03  0.10046241132E+04  0.40000000000E+03 0.  1.
<mgrwt>
<rscale>  2 0.97607983E+03</rscale>
<asrwt>0</asrwt>
<pdfrwt beam="1">  1       21 0.19155046E+00 0.97607983E+03</pdfrwt>
<pdfrwt beam="2">  1       21 0.11772340E+00 0.97607983E+03</pdfrwt>
<totfact> 0.54483460E+01</totfact>
</mgrwt>
</event>
<event>
 4    1  0.4962426E-002  0.4209841E+03  0.7818608E-02  0.1036747E+00
         21   -1    0    0  501  502  0.00000000000E+00  0.00000000000E+00  0.38433071498E+03  0.38433071498E+03  0.00000000000E+00 0. -1.
         21   -1    0    0  502  503 -0.00000000000E+00 -0.00000000000E+00 -0.50439829584E+03  0.50439829584E+03  0.00000000000E+00 0. -1.
    9000005    1    1    2  501    0  0.12990599388E+03 -0.18762209719E+02  0.70109635810E+02  0.42678208584E+03  0.40000000000E+03 0. -1.
   -9000005    1    1    2    0  503 -0.12990599388E+03  0.18762209719E+02 -0.19017721666E+03  0.46194692498E+03  0.40000000000E+03 0. -1.
<mgrwt>
<rscale>  2 0.42098407E+03</rscale>
<asrwt>0</asrwt>
<pdfrwt beam="1">  1       21 0.59127803E-01 0.42098407E+03</pdfrwt>
<pdfrwt beam="2">  1       21 0.77599737E-01 0.42098407E+03</pdfrwt>
<totfact> 0.34754712E+03</totfact>
</mgrwt>
</event>
<event>
 4    1  0.4962426E-002  0.4401421E+03  0.7818608E-02  0.1030703E+00
         21   -1    0    0  501  502  0.00000000000E+00  0.00000000000E+00  0.67171362206E+03  0.67171362206E+03  0.00000000000E+00 0. -1.
         21   -1    0    0  502  503 -0.00000000000E+00 -0.00000000000E+00 -0.31957037608E+03  0.31957037608E+03  0.00000000000E+00 0. -1.
    9000005    1    1    2  501    0 -0.13652608506E+03 -0.12282374328E+03  0.33085576270E+03  0.55062744168E+03  0.40000000000E+03 0.  1.
   -9000005    1    1    2    0  503  0.13652608506E+03  0.12282374328E+03  0.21287483282E+02  0.44065655647E+03  0.40000000000E+03 0.  1.
<mgrwt>
<rscale>  2 0.44014207E+03</rscale>
<asrwt>0</asrwt>
<pdfrwt beam="1">  1       21 0.10334056E+00 0.44014207E+03</pdfrwt>
<pdfrwt beam="2">  1       21 0.49164673E-01 0.44014207E+03</pdfrwt>
<totfact> 0.26057521E+03</totfact>
</mgrwt>
</event>
<event>
 4    1  0.4962426E-002  0.4594832E+03  0.7818608E-02  0.1024931E+00
         21   -1    0    0  501  502  0.00000000000E+00  0.00000000000E+00  0.23410749228E+03  0.23410749228E+03  0.00000000000E+00 0.  1.
         21   -1    0    0  502  503 -0.00000000000E+00 -0.00000000000E+00 -0.12091990685E+04  0.12091990685E+04  0.00000000000E+00 0. -1.
    9000005    1    1    2  501    0 -0.75641052337E+01  0.22598146905E+03 -0.12370554480E+03  0.47584440930E+03  0.40000000000E+03 0.  1.
   -9000005    1    1    2    0  503  0.75641052337E+01 -0.22598146905E+03 -0.85138603137E+03  0.96746215143E+03  0.40000000000E+03 0. -1.
<mgrwt>
<rscale>  2 0.45948323E+03</rscale>
<asrwt>0</asrwt>
<pdfrwt beam="1">  1       21 0.36016537E-01 0.45948323E+03</pdfrwt>
<pdfrwt beam="2">  1       21 0.18603063E+00 0.45948323E+03</pdfrwt>
<totfact> 0.10282209E+03</totfact>
</mgrwt>
</event>
<event>
 4    1  0.4962426E-002  0.4200396E+03  0.7818608E-02  0.1037053E+00
         21   -1    0    0  503  502  0.00000000000E+00  0.00000000000E+00  0.25155268534E+03  0.25155268534E+03  0.00000000000E+00 0. -1.
         21   -1    0    0  501  503 -0.00000000000E+00 -0.00000000000E+00 -0.70180497222E+03  0.70180497222E+03  0.00000000000E+00 0. -1.
    9000005    1    1    2  501    0 -0.84910609073E+02  0.96038929403E+02 -0.21335589353E+03  0.47111996858E+03  0.40000000000E+03 0. -1.
   -9000005    1    1    2    0  502  0.84910609073E+02 -0.96038929403E+02 -0.23689639335E+03  0.48223768898E+03  0.40000000000E+03 0. -1.
<mgrwt>
<rscale>  2 0.42003963E+03</rscale>
<asrwt>0</asrwt>
<pdfrwt beam="1">  1       21 0.38700414E-01 0.42003963E+03</pdfrwt>
<pdfrwt beam="2">  1       21 0.10796999E+00 0.42003963E+03</pdfrwt>
<totfact> 0.38809244E+03</totfact>
</mgrwt>
</event>
<event>
 4    1  0.4962426E-002  0.4200304E+03  0.7818608E-02  0.1037056E+00
         21   -1    0    0  501  502  0.00000000000E+00  0.00000000000E+00  0.76103688705E+03  0.76103688705E+03  0.00000000000E+00 0. -1.
         21   -1    0    0  502  503 -0.00000000000E+00 -0.00000000000E+00 -0.30977722704E+03  0.30977722704E+03  0.00000000000E+00 0. -1.
    9000005    1    1    2  501    0 -0.57235675937E+02 -0.11467191727E+03 -0.42954219877E+02  0.42222107505E+03  0.40000000000E+03 0. -1.
   -9000005    1    1    2    0  503  0.57235675937E+02  0.11467191727E+03  0.49421387989E+03  0.64859303904E+03  0.40000000000E+03 0. -1.
<mgrwt>
<rscale>  2 0.42003044E+03</rscale>
<asrwt>0</asrwt>
<pdfrwt beam="1">  1       21 0.11708260E+00 0.42003044E+03</pdfrwt>
<pdfrwt beam="2">  1       21 0.47658035E-01 0.42003044E+03</pdfrwt>
<totfact> 0.20584686E+03</totfact>
</mgrwt>
</event>
<event>
 4    1  0.4962426E-002  0.4644977E+03  0.7818608E-02  0.1023485E+00
         21   -1    0    0  503  502  0.00000000000E+00  0.00000000000E+00  0.21221420878E+03  0.21221420878E+03  0.00000000000E+00 0. -1.
         21   -1    0    0  501  503 -0.00000000000E+00 -0.00000000000E+00 -0.11404005649E+04  0.11404005649E+04  0.00000000000E+00 0.  1.
    9000005    1    1    2  501    0 -0.23545938210E+03 -0.17803198397E+02 -0.68683521322E+03  0.82915661043E+03  0.40000000000E+03 0. -1.
   -9000005    1    1    2    0  502  0.23545938210E+03  0.17803198397E+02 -0.24135114290E+03  0.52345816325E+03  0.40000000000E+03 0.  1.
<mgrwt>
<rscale>  2 0.46449766E+03</rscale>
<asrwt>0</asrwt>
<pdfrwt beam="1">  1       21 0.32648340E-01 0.46449766E+03</pdfrwt>
<pdfrwt beam="2">  1       21 0.17544624E+00 0.46449766E+03</pdfrwt>
<totfact> 0.14853496E+03</totfact>
</mgrwt>
</event>
<event>
 4    1  0.4962426E-002  0.5626336E+03  0.7818608E-02  0.9986113E-01
         21   -1    0    0  503  502  0.00000000000E+00  0.00000000000E+00  0.59735597902E+03  0.59735597902E+03  0.00000000000E+00 0.  1.
         21   -1    0    0  501  503 -0.00000000000E+00 -0.00000000000E+00 -0.54908973960E+03  0.54908973960E+03  0.00000000000E+00 0. -1.
    9000005    1    1    2  501    0  0.35174150378E+03 -0.18120290574E+03 -0.82945277934E+02  0.56871477707E+03  0.40000000000E+03 0. -1.
   -9000005    1    1    2    0  502 -0.35174150378E+03  0.18120290574E+03  0.13121151736E+03  0.57773094155E+03  0.40000000000E+03 0.  1.
<mgrwt>
<rscale>  2 0.56263361E+03</rscale>
<asrwt>0</asrwt>
<pdfrwt beam="1">  1       21 0.91900920E-01 0.56263361E+03</pdfrwt>
<pdfrwt beam="2">  1       21 0.84475344E-01 0.56263361E+03</pdfrwt>
<totfact> 0.99364782E+02</totfact>
</mgrwt>
</event>
<event>
 4    1  0.4962426E-002  0.4233866E+03  0.7818608E-02  0.1035970E+00
         21   -1    0    0  501  502  0.00000000000E+00  0.00000000000E+00  0.33551195401E+03  0.33551195401E+03  0.00000000000E+00 0.  1.
         21   -1    0    0  502  503 -0.00000000000E+00 -0.00000000000E+00 -0.57601287949E+03  0.57601287949E+03  0.00000000000E+00 0.  1.
    9000005    1    1    2  501    0 -0.11142390793E+03  0.82709993628E+02  0.24309001366E+01  0.42339359889E+03  0.40000000000E+03 0.  1.
   -9000005    1    1    2    0  503  0.11142390793E+03 -0.82709993628E+02 -0.24293182562E+03  0.48813123461E+03  0.40000000000E+03 0.  1.
<mgrwt>
<rscale>  2 0.42338662E+03</rscale>
<asrwt>0</asrwt>
<pdfrwt beam="1">  1       21 0.51617223E-01 0.42338662E+03</pdfrwt>
<pdfrwt beam="2">  1       21 0.88617367E-01 0.42338662E+03</pdfrwt>
<totfact> 0.34192266E+03</totfact>
</mgrwt>
</event>
<event>
 4    1  0.4962426E-002  0.5872649E+03  0.7818608E-02  0.9932185E-01
         21   -1    0    0  503  502  0.00000000000E+00  0.00000000000E+00  0.22049790080E+04  0.22049790080E+04  0.00000000000E+00 0. -1.
         21   -1    0    0  501  503 -0.00000000000E+00 -0.00000000000E+00 -0.16601727914E+03  0.16601727914E+03  0.00000000000E+00 0.  1.
    9000005    1    1    2  501    0  0.24139044192E+03 -0.35582394475E+03  0.73429234534E+03  0.94024745335E+03  0.40000000000E+03 0. -1.
   -9000005    1    1    2    0  502 -0.24139044192E+03  0.35582394475E+03  0.13046693835E+04  0.14307488338E+04  0.40000000000E+03 0.  1.
<mgrwt>
<rscale>  2 0.58726487E+03</rscale>
<asrwt>0</asrwt>
<pdfrwt beam="1">  1       21 0.33922752E+00 0.58726487E+03</pdfrwt>
<pdfrwt beam="2">  1       21 0.25541122E-01 0.58726487E+03</pdfrwt>
<totfact> 0.21168974E+02</totfact>
</mgrwt>
</event>
<event>
 4    1  0.4962426E-002  0.7632245E+03  0.7818608E-02  0.9614829E-01
         21   -1    0    0  503  502  0.00000000000E+00  0.00000000000E+00  0.26116049799E+03  0.26116049799E+03  0.00000000000E+00 0.  1.
         21   -1    0    0  501  503 -0.00000000000E+00 -0.00000000000E+00 -0.22795232558E+04  0.22795232558E+04  0.00000000000E+00 0.  1.
    9000005    1    1    2  501    0 -0.33217250170E+03 -0.55872456762E+03 -0.82283772960E+03  0.11223072853E+04  0.40000000000E+03 0.  1.
   -9000005    1    1    2    0  502  0.33217250170E+03  0.55872456762E+03 -0.11955250282E+04  0.14183764685E+04  0.40000000000E+03 0.  1.
<mgrwt>
<rscale>  2 0.76322455E+03</rscale>
<asrwt>0</asrwt>
<pdfrwt beam="1">  1       21 0.40178536E-01 0.76322455E+03</pdfrwt>
<pdfrwt beam="2">  1       21 0.35069590E+00 0.76322455E+03</pdfrwt>
<totfact> 0.66788645E+01</totfact>
</mgrwt>
</event>
<event>
 4    1  0.4962426E-002  0.4662646E+03  0.7818608E-02  0.1022980E+00
         21   -1    0    0  501  502  0.00000000000E+00  0.00000000000E+00  0.11409863843E+04  0.11409863843E+04  0.00000000000E+00 0. -1.
         21   -1    0    0  502  503 -0.00000000000E+00 -0.00000000000E+00 -0.24772331234E+03  0.24772331234E+03  0.00000000000E+00 0. -1.
    9000005    1    1    2  501    0 -0.12917583224E+03  0.20178269019E+03  0.78023893106E+03  0.90894193392E+03  0.40000000000E+03 0. -1.
   -9000005    1    1    2    0  503  0.12917583224E+03 -0.20178269019E+03  0.11302414087E+03  0.47976776269E+03  0.40000000000E+03 0. -1.
<mgrwt>
<rscale>  2 0.46626457E+03</rscale>
<asrwt>0</asrwt>
<pdfrwt beam="1">  1       21 0.17553636E+00 0.46626457E+03</pdfrwt>
<pdfrwt beam="2">  1       21 0.38111280E-01 0.46626457E+03</pdfrwt>
<totfact> 0.10830326E+03</totfact>
</mgrwt>
</event>
<event>
 4    1  0.4962426E-002  0.4913261E+03  0.7818608E-02  0.1016068E+00
         21   -1    0    0  503  502  0.00000000000E+00  0.00000000000E+00  0.14695038690E+04  0.14695038690E+04  0.00000000000E+00 0.  1.
         21   -1    0    0  501  503 -0.00000000000E+00 -0.00000000000E+00 -0.26738970958E+03  0.26738970958E+03  0.00000000000E+00 0. -1.
    9000005    1    1    2  501    0  0.71718192014E+02  0.27614821501E+03  0.61753622240E+02  0.49519172608E+03  0.40000000000E+03 0.  1.
   -9000005    1    1    2    0  502 -0.71718192014E+02 -0.27614821501E+03  0.11403605372E+04  0.12417018525E+04  0.40000000000E+03 0.  1.
<mgrwt>
<rscale>  2 0.49132610E+03</rscale>
<asrwt>0</asrwt>
<pdfrwt beam="1">  1       21 0.22607751E+00 0.49132610E+03</pdfrwt>
<pdfrwt beam="2">  1       21 0.41136879E-01 0.49132610E+03</pdfrwt>
<totfact> 0.41943324E+02</totfact>
</mgrwt>
</event>
<event>
 4    1  0.4962426E-002  0.4749471E+03  0.7818608E-02  0.1020533E+00
         21   -1    0    0  501  502  0.00000000000E+00  0.00000000000E+00  0.16473114861E+04  0.16473114861E+04  0.00000000000E+00 0.  1.
         21   -1    0    0  502  503 -0.00000000000E+00 -0.00000000000E+00 -0.25136896006E+03  0.25136896006E+03  0.00000000000E+00 0.  1.
    9000005    1    1    2  501    0 -0.21498523555E+03  0.13912625085E+03  0.13385069473E+04  0.14202730770E+04  0.40000000000E+03 0.  1.
   -9000005    1    1    2    0  503  0.21498523555E+03 -0.13912625085E+03  0.57435578712E+02  0.47840736918E+03  0.40000000000E+03 0.  1.
<mgrwt>
<rscale>  2 0.47494712E+03</rscale>
<asrwt>0</asrwt>
<pdfrwt beam="1">  1       21 0.25343253E+00 0.47494712E+03</pdfrwt>
<pdfrwt beam="2">  1       21 0.38672149E-01 0.47494712E+03</pdfrwt>
<totfact> 0.32434105E+02</totfact>
</mgrwt>
</event>
<event>
 4    1  0.4962426E-002  0.4480353E+03  0.7818608E-02  0.1028310E+00
         21   -1    0    0  503  502  0.00000000000E+00  0.00000000000E+00  0.50879270429E+03  0.50879270429E+03  0.00000000000E+00 0. -1.
         21   -1    0    0  501  503 -0.00000000000E+00 -0.00000000000E+00 -0.43053987455E+03  0.43053987455E+03  0.00000000000E+00 0. -1.
    9000005    1    1    2  501    0  0.19676447748E+03 -0.44936943925E+02 -0.96696956244E+02  0.45835127345E+03  0.40000000000E+03 0. -1.
   -9000005    1    1    2    0  502 -0.19676447748E+03  0.44936943925E+02  0.17494978598E+03  0.48098130540E+03  0.40000000000E+03 0. -1.
<mgrwt>
<rscale>  2 0.44803525E+03</rscale>
<asrwt>0</asrwt>
<pdfrwt beam="1">  1       21 0.78275801E-01 0.44803525E+03</pdfrwt>
<pdfrwt beam="2">  1       21 0.66236904E-01 0.44803525E+03</pdfrwt>
<totfact> 0.26259880E+03</totfact>
</mgrwt>
</event>
<event>
 4    1  0.4962426E-002  0.5170757E+03  0.7818608E-02  0.1009416E+00
         21   -1    0    0  503  502  0.00000000000E+00  0.00000000000E+00  0.39608294640E+03  0.39608294640E+03  0.00000000000E+00 0. -1.
         21   -1    0    0  501  503 -0.00000000000E+00 -0.00000000000E+00 -0.74018868094E+03  0.74018868094E+03  0.00000000000E+00 0. -1.
    9000005    1    1    2  501    0  0.14302231087E+02 -0.32735712734E+03 -0.34061979773E+03  0.61918421269E+03  0.40000000000E+03 0. -1.
   -9000005    1    1    2    0  502 -0.14302231087E+02  0.32735712734E+03 -0.34859368119E+01  0.51708741465E+03  0.40000000000E+03 0. -1.
<mgrwt>
<rscale>  2 0.51707566E+03</rscale>
<asrwt>0</asrwt>
<pdfrwt beam="1">  1       21 0.60935839E-01 0.51707566E+03</pdfrwt>
<pdfrwt beam="2">  1       21 0.11387518E+00 0.51707566E+03</pdfrwt>
<totfact> 0.12528204E+03</totfact>
</mgrwt>
</event>
<event>
 4    1  0.4962426E-002  0.4515489E+03  0.7818608E-02  0.1027261E+00
         21   -1    0    0  503  502  0.00000000000E+00  0.00000000000E+00  0.12942674584E+04  0.12942674584E+04  0.00000000000E+00 0. -1.
         21   -1    0    0  501  503 -0.00000000000E+00 -0.00000000000E+00 -0.26296329357E+03  0.26296329357E+03  0.00000000000E+00 0.  1.
    9000005    1    1    2  501    0  0.63586686276E+02  0.19963244877E+03  0.22651194259E+02  0.45211664189E+03  0.40000000000E+03 0.  1.
   -9000005    1    1    2    0  502 -0.63586686276E+02 -0.19963244877E+03  0.10086529706E+04  0.11051141101E+04  0.40000000000E+03 0. -1.
<mgrwt>
<rscale>  2 0.45154887E+03</rscale>
<asrwt>0</asrwt>
<pdfrwt beam="1">  1       21 0.19911807E+00 0.45154887E+03</pdfrwt>
<pdfrwt beam="2">  1       21 0.40455892E-01 0.45154887E+03</pdfrwt>
<totfact> 0.66269542E+02</totfact>
</mgrwt>
</event>
<event>
 4    1  0.4962426E-002  0.4519145E+03  0.7818608E-02  0.1027153E+00
         21   -1    0    0  503  502  0.00000000000E+00  0.00000000000E+00  0.73757184270E+03  0.73757184270E+03  0.00000000000E+00 0. -1.
         21   -1    0    0  501  503 -0.00000000000E+00 -0.00000000000E+00 -0.30995959840E+03  0.30995959840E+03  0.00000000000E+00 0. -1.
    9000005    1    1    2  501    0  0.12030820716E+03  0.17248964292E+03  0.42727885122E+02  0.45392996573E+03  0.40000000000E+03 0. -1.
   -9000005    1    1    2    0  502 -0.12030820716E+03 -0.17248964292E+03  0.38488435918E+03  0.59360147537E+03  0.40000000000E+03 0. -1.
<mgrwt>
<rscale>  2 0.45191453E+03</rscale>
<asrwt>0</asrwt>
<pdfrwt beam="1">  1       21 0.11347259E+00 0.45191453E+03</pdfrwt>
<pdfrwt beam="2">  1       21 0.47686092E-01 0.45191453E+03</pdfrwt>
<totfact> 0.21958184E+03</totfact>
</mgrwt>
</event>
<event>
 4    1  0.4962426E-002  0.4625546E+03  0.7818608E-02  0.1024043E+00
         21   -1    0    0  501  502  0.00000000000E+00  0.00000000000E+00  0.19654052635E+03  0.19654052635E+03  0.00000000000E+00 0.  1.
         21   -1    0    0  502  503 -0.00000000000E+00 -0.00000000000E+00 -0.12175969280E+04  0.12175969280E+04  0.00000000000E+00 0.  1.
    9000005    1    1    2  501    0 -0.12363917947E+03  0.19664714910E+03 -0.28039665767E+03  0.54090575296E+03  0.40000000000E+03 0.  1.
   -9000005    1    1    2    0  503  0.12363917947E+03 -0.19664714910E+03 -0.74065974398E+03  0.87323170139E+03  0.40000000000E+03 0.  1.
<mgrwt>
<rscale>  2 0.46255459E+03</rscale>
<asrwt>0</asrwt>
<pdfrwt beam="1">  1       21 0.30237004E-01 0.46255459E+03</pdfrwt>
<pdfrwt beam="2">  1       21 0.18732260E+00 0.46255459E+03</pdfrwt>
<totfact> 0.14299078E+03</totfact>
</mgrwt>
</event>
<event>
 4    1  0.4962426E-002  0.5125115E+03  0.7818608E-02  0.1010564E+00
         21   -1    0    0  503  502  0.00000000000E+00  0.00000000000E+00  0.12293570534E+04  0.12293570534E+04  0.00000000000E+00 0.  1.
         21   -1    0    0  501  503 -0.00000000000E+00 -0.00000000000E+00 -0.23080613408E+03  0.23080613408E+03  0.00000000000E+00 0.  1.
    9000005    1    1    2  501    0  0.89039734088E+01 -0.32029473496E+03  0.30030250272E+03  0.59401144023E+03  0.40000000000E+03 0.  1.
   -9000005    1    1    2    0  502 -0.89039734088E+01  0.32029473496E+03  0.69824841660E+03  0.86615174725E+03  0.40000000000E+03 0.  1.
<mgrwt>
<rscale>  2 0.51251146E+03</rscale>
<asrwt>0</asrwt>
<pdfrwt beam="1">  1       21 0.18913185E+00 0.51251146E+03</pdfrwt>
<pdfrwt beam="2">  1       21 0.35508637E-01 0.51251146E+03</pdfrwt>
<totfact> 0.98542436E+02</totfact>
</mgrwt>
</event>
<event>
 4    1  0.4962426E-002  0.5044825E+03  0.7818608E-02  0.1012616E+00
         21   -1    0    0  501  502  0.00000000000E+00  0.00000000000E+00  0.14487936318E+04  0.14487936318E+04  0.00000000000E+00 0.  1.
         21   -1    0    0  502  503 -0.00000000000E+00 -0.00000000000E+00 -0.20896898642E+03  0.20896898642E+03  0.00000000000E+00 0.  1.
    9000005    1    1    2  501    0 -0.23379428458E+03 -0.19960661913E+03  0.95081362336E+03  0.10763591948E+04  0.40000000000E+03 0.  1.
   -9000005    1    1    2    0  503  0.23379428458E+03  0.19960661913E+03  0.28901102205E+03  0.58140342342E+03  0.40000000000E+03 0.  1.
<mgrwt>
<rscale>  2 0.50448248E+03</rscale>
<asrwt>0</asrwt>
<pdfrwt beam="1">  1       21 0.22289132E+00 0.50448248E+03</pdfrwt>
<pdfrwt beam="2">  1       21 0.32149076E-01 0.50448248E+03</pdfrwt>
<totfact> 0.72221077E+02</totfact>
</mgrwt>
</event>
<event>
 4    1  0.4962426E-002  0.4484610E+03  0.7818608E-02  0.1028182E+00
         21   -1    0    0  503  502  0.00000000000E+00  0.00000000000E+00  0.23835994357E+03  0.23835994357E+03  0.00000000000E+00 0.  1.
         21   -1    0    0  501  503 -0.00000000000E+00 -0.00000000000E+00 -0.84541556651E+03  0.84541556651E+03  0.00000000000E+00 0.  1.
    9000005    1    1    2  501    0  0.17606433531E+03 -0.10059150461E+03 -0.27950889081E+03  0.52843402711E+03  0.40000000000E+03 0.  1.
   -9000005    1    1    2    0  502 -0.17606433531E+03  0.10059150461E+03 -0.32754673213E+03  0.55534148296E+03  0.40000000000E+03 0.  1.
<mgrwt>
<rscale>  2 0.44846104E+03</rscale>
<asrwt>0</asrwt>
<pdfrwt beam="1">  1       21 0.36670761E-01 0.44846104E+03</pdfrwt>
<pdfrwt beam="2">  1       21 0.13006393E+00 0.44846104E+03</pdfrwt>
<totfact> 0.26771075E+03</totfact>
</mgrwt>
</event>
<event>
 4    1  0.4962426E-002  0.4057035E+03  0.7818608E-02  0.1041822E+00
         21   -1    0    0  503  502  0.00000000000E+00  0.00000000000E+00  0.57237430025E+03  0.57237430025E+03  0.00000000000E+00 0. -1.
         21   -1    0    0  501  503 -0.00000000000E+00 -0.00000000000E+00 -0.41474086033E+03  0.41474086033E+03  0.00000000000E+00 0. -1.
    9000005    1    1    2  501    0 -0.73202360601E+01  0.67392325175E+02 -0.19448997960E+03  0.44991295104E+03  0.40000000000E+03 0. -1.
   -9000005    1    1    2    0  502  0.73202360601E+01 -0.67392325175E+02  0.35212341952E+03  0.53720220953E+03  0.40000000000E+03 0. -1.
<mgrwt>
<rscale>  2 0.40570348E+03</rscale>
<asrwt>0</asrwt>
<pdfrwt beam="1">  1       21 0.88057584E-01 0.40570348E+03</pdfrwt>
<pdfrwt beam="2">  1       21 0.63806286E-01 0.40570348E+03</pdfrwt>
<totfact> 0.22055060E+03</totfact>
</mgrwt>
</event>
<event>
 4    1  0.4962426E-002  0.4250717E+03  0.7818608E-02  0.1035428E+00
         21   -1    0    0  503  502  0.00000000000E+00  0.00000000000E+00  0.19196205319E+04  0.19196205319E+04  0.00000000000E+00 0. -1.
         21   -1    0    0  501  503 -0.00000000000E+00 -0.00000000000E+00 -0.23783487423E+03  0.23783487423E+03  0.00000000000E+00 0. -1.
    9000005    1    1    2  501    0  0.12572975158E+03 -0.69842395522E+02  0.23677208238E+01  0.42507827132E+03  0.40000000000E+03 0. -1.
   -9000005    1    1    2    0  502 -0.12572975158E+03  0.69842395522E+02  0.16794179368E+04  0.17323771348E+04  0.40000000000E+03 0. -1.
<mgrwt>
<rscale>  2 0.42507168E+03</rscale>
<asrwt>0</asrwt>
<pdfrwt beam="1">  1       21 0.29532623E+00 0.42507168E+03</pdfrwt>
<pdfrwt beam="2">  1       21 0.36589982E-01 0.42507168E+03</pdfrwt>
<totfact> 0.20856646E+02</totfact>
</mgrwt>
</event>
<event>
 4    1  0.4962426E-002  0.4575604E+03  0.7818608E-02  0.1025491E+00
         21   -1    0    0  503  502  0.00000000000E+00  0.00000000000E+00  0.22550912659E+03  0.22550912659E+03  0.00000000000E+00 0. -1.
         21   -1    0    0  501  503 -0.00000000000E+00 -0.00000000000E+00 -0.92846035851E+03  0.92846035851E+03  0.00000000000E+00 0. -1.
    9000005    1    1    2  501    0 -0.18077312241E+03  0.12916096100E+03 -0.35632807362E+03  0.57994066221E+03  0.40000000000E+03 0. -1.
   -9000005    1    1    2    0  502  0.18077312241E+03 -0.12916096100E+03 -0.34662315831E+03  0.57402882289E+03  0.40000000000E+03 0. -1.
<mgrwt>
<rscale>  2 0.45756035E+03</rscale>
<asrwt>0</asrwt>
<pdfrwt beam="1">  1       21 0.34693712E-01 0.45756035E+03</pdfrwt>
<pdfrwt beam="2">  1       21 0.14284005E+00 0.45756035E+03</pdfrwt>
<totfact> 0.23324313E+03</totfact>
</mgrwt>
</event>
<event>
 4    1  0.4962426E-002  0.4007992E+03  0.7818608E-02  0.1043503E+00
         21   -1    0    0  503  502  0.00000000000E+00  0.00000000000E+00  0.82290873683E+03  0.82290873683E+03  0.00000000000E+00 0.  1.
         21   -1    0    0  501  503 -0.00000000000E+00 -0.00000000000E+00 -0.22436441562E+03  0.22436441562E+03  0.00000000000E+00 0.  1.
    9000005    1    1    2  501    0 -0.22578237761E+02  0.11411715289E+02  0.11051421140E+03  0.41575641305E+03  0.40000000000E+03 0.  1.
   -9000005    1    1    2    0  502  0.22578237761E+02 -0.11411715289E+02  0.48803010980E+03  0.63151673940E+03  0.40000000000E+03 0.  1.
<mgrwt>
<rscale>  2 0.40079921E+03</rscale>
<asrwt>0</asrwt>
<pdfrwt beam="1">  1       21 0.12660134E+00 0.40079921E+03</pdfrwt>
<pdfrwt beam="2">  1       21 0.34517603E-01 0.40079921E+03</pdfrwt>
<totfact> 0.33054918E+03</totfact>
</mgrwt>
</event>
<event>
 4    1  0.4962426E-002  0.5336221E+03  0.7818608E-02  0.1005357E+00
         21   -1    0    0  503  502  0.00000000000E+00  0.00000000000E+00  0.14345200507E+04  0.14345200507E+04  0.00000000000E+00 0. -1.
         21   -1    0    0  501  503 -0.00000000000E+00 -0.00000000000E+00 -0.11872034892E+04  0.11872034892E+04  0.00000000000E+00 0. -1.
    9000005    1    1    2  501    0  0.24281862507E+03 -0.25649890905E+03 -0.10726064434E+04  0.11980138386E+04  0.40000000000E+03 0. -1.
   -9000005    1    1    2    0  502 -0.24281862507E+03  0.25649890905E+03  0.13199230049E+04  0.14237097014E+04  0.40000000000E+03 0. -1.
<mgrwt>
<rscale>  2 0.53362213E+03</rscale>
<asrwt>0</asrwt>
<pdfrwt beam="1">  1       21 0.22069539E+00 0.53362213E+03</pdfrwt>
<pdfrwt beam="2">  1       21 0.18264669E+00 0.53362213E+03</pdfrwt>
<totfact> 0.12320917E+01</totfact>
</mgrwt>
</event>
<event>
 4    1  0.4962426E-002  0.4262168E+03  0.7818608E-02  0.1035062E+00
         21   -1    0    0  501  502  0.00000000000E+00  0.00000000000E+00  0.27764870429E+04  0.27764870429E+04  0.00000000000E+00 0.  1.
         21   -1    0    0  502  503 -0.00000000000E+00 -0.00000000000E+00 -0.81648679659E+02  0.81648679659E+02  0.00000000000E+00 0.  1.
    9000005    1    1    2  501    0  0.13465640360E+03 -0.59400616589E+02  0.19843745512E+04  0.20296312817E+04  0.40000000000E+03 0.  1.
   -9000005    1    1    2    0  503 -0.13465640360E+03  0.59400616589E+02  0.71046381209E+03  0.82850444089E+03  0.40000000000E+03 0.  1.
<mgrwt>
<rscale>  2 0.42621682E+03</rscale>
<asrwt>0</asrwt>
<pdfrwt beam="1">  1       21 0.42715178E+00 0.42621682E+03</pdfrwt>
<pdfrwt beam="2">  1       21 0.12561337E-01 0.42621682E+03</pdfrwt>
<totfact> 0.24589637E+02</totfact>
</mgrwt>
</event>
<event>
 4    1  0.4962426E-002  0.4578290E+03  0.7818608E-02  0.1025413E+00
         21   -1    0    0  503  502  0.00000000000E+00  0.00000000000E+00  0.55546548121E+03  0.55546548121E+03  0.00000000000E+00 0. -1.
         21   -1    0    0  501  503 -0.00000000000E+00 -0.00000000000E+00 -0.38543392756E+03  0.38543392756E+03  0.00000000000E+00 0. -1.
    9000005    1    1    2  501    0  0.15925229509E+03 -0.15571146418E+03  0.16902665289E+02  0.45814086661E+03  0.40000000000E+03 0. -1.
   -9000005    1    1    2    0  502 -0.15925229509E+03  0.15571146418E+03  0.15312888836E+03  0.48275854215E+03  0.40000000000E+03 0. -1.
<mgrwt>
<rscale>  2 0.45782896E+03</rscale>
<asrwt>0</asrwt>
<pdfrwt beam="1">  1       21 0.85456228E-01 0.45782896E+03</pdfrwt>
<pdfrwt beam="2">  1       21 0.59297527E-01 0.45782896E+03</pdfrwt>
<totfact> 0.27254902E+03</totfact>
</mgrwt>
</event>
<event>
 4    1  0.4962426E-002  0.4127477E+03  0.7818608E-02  0.1039453E+00
         21   -1    0    0  503  502  0.00000000000E+00  0.00000000000E+00  0.47464018185E+03  0.47464018185E+03  0.00000000000E+00 0. -1.
         21   -1    0    0  501  503 -0.00000000000E+00 -0.00000000000E+00 -0.39192427462E+03  0.39192427462E+03  0.00000000000E+00 0. -1.
    9000005    1    1    2  501    0  0.21891215258E+02 -0.99405547257E+02 -0.84365297147E+02  0.42128160593E+03  0.40000000000E+03 0. -1.
   -9000005    1    1    2    0  502 -0.21891215258E+02  0.99405547257E+02  0.16708120437E+03  0.44528285054E+03  0.40000000000E+03 0. -1.
<mgrwt>
<rscale>  2 0.41274773E+03</rscale>
<asrwt>0</asrwt>
<pdfrwt beam="1">  1       21 0.73021567E-01 0.41274773E+03</pdfrwt>
<pdfrwt beam="2">  1       21 0.60296042E-01 0.41274773E+03</pdfrwt>
<totfact> 0.38365282E+03</totfact>
</mgrwt>
</event>
<event>
 4    1  0.4962426E-002  0.4216637E+03  0.7818608E-02  0.1036526E+00
         21   -1    0    0  501  502  0.00000000000E+00  0.00000000000E+00  0.63267105742E+03  0.63267105742E+03  0.00000000000E+00 0. -1.
         21   -1    0    0  502  503 -0.00000000000E+00 -0.00000000000E+00 -0.28792966933E+03  0.28792966933E+03  0.00000000000E+00 0. -1.
    9000005    1    1    2  501    0 -0.84951715938E+02  0.10287594506E+03  0.24361941664E+03  0.48698118473E+03  0.40000000000E+03 0. -1.
   -9000005    1    1    2    0  503  0.84951715938E+02 -0.10287594506E+03  0.10112197144E+03  0.43361954202E+03  0.40000000000E+03 0. -1.
<mgrwt>
<rscale>  2 0.42166367E+03</rscale>
<asrwt>0</asrwt>
<pdfrwt beam="1">  1       21 0.97334009E-01 0.42166367E+03</pdfrwt>
<pdfrwt beam="2">  1       21 0.44296872E-01 0.42166367E+03</pdfrwt>
<totfact> 0.37789054E+03</totfact>
</mgrwt>
</event>
<event>
 4    1  0.4962426E-002  0.4584050E+03  0.7818608E-02  0.1025245E+00
         21   -1    0    0  503  502  0.00000000000E+00  0.00000000000E+00  0.23974340637E+03  0.23974340637E+03  0.00000000000E+00 0.  1.
         21   -1    0    0  501  503 -0.00000000000E+00 -0.00000000000E+00 -0.11065551432E+04  0.11065551432E+04  0.00000000000E+00 0. -1.
    9000005    1    1    2  501    0  0.82199014821E+02  0.20827507431E+03 -0.74033667106E+03  0.87076608290E+03  0.40000000000E+03 0. -1.
   -9000005    1    1    2    0  502 -0.82199014821E+02 -0.20827507431E+03 -0.12647506581E+03  0.47553246670E+03  0.40000000000E+03 0.  1.
<mgrwt>
<rscale>  2 0.45840504E+03</rscale>
<asrwt>0</asrwt>
<pdfrwt beam="1">  1       21 0.36883601E-01 0.45840504E+03</pdfrwt>
<pdfrwt beam="2">  1       21 0.17023925E+00 0.45840504E+03</pdfrwt>
<totfact> 0.12686753E+03</totfact>
</mgrwt>
</event>
<event>
 4    1  0.4962426E-002  0.4129437E+03  0.7818608E-02  0.1039388E+00
         21   -1    0    0  501  502  0.00000000000E+00  0.00000000000E+00  0.34319834903E+03  0.34319834903E+03  0.00000000000E+00 0. -1.
         21   -1    0    0  502  503 -0.00000000000E+00 -0.00000000000E+00 -0.55774208134E+03  0.55774208134E+03  0.00000000000E+00 0. -1.
    9000005    1    1    2  501    0 -0.76625399600E+02 -0.68198631026E+02  0.41555913719E+02  0.41502939547E+03  0.40000000000E+03 0. -1.
   -9000005    1    1    2    0  503  0.76625399600E+02  0.68198631026E+02 -0.25609964603E+03  0.48591103490E+03  0.40000000000E+03 0. -1.
<mgrwt>
<rscale>  2 0.41294371E+03</rscale>
<asrwt>0</asrwt>
<pdfrwt beam="1">  1       21 0.52799747E-01 0.41294371E+03</pdfrwt>
<pdfrwt beam="2">  1       21 0.85806473E-01 0.41294371E+03</pdfrwt>
<totfact> 0.35274626E+03</totfact>
</mgrwt>
</event>
<event>
 4    1  0.4962426E-002  0.4079901E+03  0.7818608E-02  0.1041048E+00
         21   -1    0    0  503  502  0.00000000000E+00  0.00000000000E+00  0.85051304021E+03  0.85051304021E+03  0.00000000000E+00 0. -1.
         21   -1    0    0  501  503 -0.00000000000E+00 -0.00000000000E+00 -0.31469997180E+03  0.31469997180E+03  0.00000000000E+00 0. -1.
    9000005    1    1    2  501    0 -0.50532337554E+02 -0.62469090067E+02  0.62614966643E+03  0.74734149432E+03  0.40000000000E+03 0. -1.
   -9000005    1    1    2    0  502  0.50532337554E+02  0.62469090067E+02 -0.90336598025E+02  0.41787151769E+03  0.40000000000E+03 0. -1.
<mgrwt>
<rscale>  2 0.40799008E+03</rscale>
<asrwt>0</asrwt>
<pdfrwt beam="1">  1       21 0.13084816E+00 0.40799008E+03</pdfrwt>
<pdfrwt beam="2">  1       21 0.48415381E-01 0.40799008E+03</pdfrwt>
<totfact> 0.15061368E+03</totfact>
</mgrwt>
</event>
<event>
 4    1  0.4962426E-002  0.4852515E+03  0.7818608E-02  0.1017702E+00
         21   -1    0    0  501  502  0.00000000000E+00  0.00000000000E+00  0.95581556506E+03  0.95581556506E+03  0.00000000000E+00 0.  1.
         21   -1    0    0  502  503 -0.00000000000E+00 -0.00000000000E+00 -0.34895340701E+03  0.34895340701E+03  0.00000000000E+00 0.  1.
    9000005    1    1    2  501    0 -0.24954458789E+03  0.11487607416E+03  0.65717767629E+03  0.81691585367E+03  0.40000000000E+03 0.  1.
   -9000005    1    1    2    0  503  0.24954458789E+03 -0.11487607416E+03 -0.50315518244E+02  0.48785311840E+03  0.40000000000E+03 0.  1.
<mgrwt>
<rscale>  2 0.48525150E+03</rscale>
<asrwt>0</asrwt>
<pdfrwt beam="1">  1       21 0.14704855E+00 0.48525150E+03</pdfrwt>
<pdfrwt beam="2">  1       21 0.53685140E-01 0.48525150E+03</pdfrwt>
<totfact> 0.85845175E+02</totfact>
</mgrwt>
</event>
<event>
 4    1  0.4962426E-002  0.4232314E+03  0.7818608E-02  0.1036020E+00
         21   -1    0    0  501  502  0.00000000000E+00  0.00000000000E+00  0.18714703728E+03  0.18714703728E+03  0.00000000000E+00 0.  1.
         21   -1    0    0  502  503 -0.00000000000E+00 -0.00000000000E+00 -0.10504320808E+04  0.10504320808E+04  0.00000000000E+00 0.  1.
    9000005    1    1    2  501    0  0.82908036512E+02 -0.11068446118E+03 -0.24722790404E+03  0.49014939457E+03  0.40000000000E+03 0.  1.
   -9000005    1    1    2    0  503 -0.82908036512E+02  0.11068446118E+03 -0.61605713949E+03  0.74742972351E+03  0.40000000000E+03 0.  1.
<mgrwt>
<rscale>  2 0.42323137E+03</rscale>
<asrwt>0</asrwt>
<pdfrwt beam="1">  1       21 0.28791851E-01 0.42323137E+03</pdfrwt>
<pdfrwt beam="2">  1       21 0.16160494E+00 0.42323137E+03</pdfrwt>
<totfact> 0.24504055E+03</totfact>
</mgrwt>
</event>
<event>
 4    1  0.4962426E-002  0.4114309E+03  0.7818608E-02  0.1039892E+00
         21   -1    0    0  503  502  0.00000000000E+00  0.00000000000E+00  0.99013382649E+02  0.99013382649E+02  0.00000000000E+00 0.  1.
         21   -1    0    0  501  503 -0.00000000000E+00 -0.00000000000E+00 -0.17198450552E+04  0.17198450552E+04  0.00000000000E+00 0.  1.
    9000005    1    1    2  501    0  0.62428498913E+02 -0.73335479778E+02 -0.74029861110E+03  0.84694595085E+03  0.40000000000E+03 0. -1.
   -9000005    1    1    2    0  502 -0.62428498913E+02  0.73335479778E+02 -0.88053306146E+03  0.97191248700E+03  0.40000000000E+03 0. -1.
<mgrwt>
<rscale>  2 0.41143093E+03</rscale>
<asrwt>0</asrwt>
<pdfrwt beam="1">  1       21 0.15232829E-01 0.41143093E+03</pdfrwt>
<pdfrwt beam="2">  1       21 0.26459153E+00 0.41143093E+03</pdfrwt>
<totfact> 0.17544875E+03</totfact>
</mgrwt>
</event>
<event>
 4    1  0.4962426E-002  0.4318831E+03  0.7818608E-02  0.1033267E+00
         21   -1    0    0  501  502  0.00000000000E+00  0.00000000000E+00  0.10166302950E+03  0.10166302950E+03  0.00000000000E+00 0. -1.
         21   -1    0    0  502  503 -0.00000000000E+00 -0.00000000000E+00 -0.18431189167E+04  0.18431189167E+04  0.00000000000E+00 0.  1.
    9000005    1    1    2  501    0  0.66334752410E+02 -0.14873700660E+03 -0.80507926852E+03  0.91360583684E+03  0.40000000000E+03 0.  1.
   -9000005    1    1    2    0  503 -0.66334752410E+02  0.14873700660E+03 -0.93637661870E+03  0.10311761094E+04  0.40000000000E+03 0.  1.
<mgrwt>
<rscale>  2 0.43188308E+03</rscale>
<asrwt>0</asrwt>
<pdfrwt beam="1">  1       21 0.15640466E-01 0.43188308E+03</pdfrwt>
<pdfrwt beam="2">  1       21 0.28355675E+00 0.43188308E+03</pdfrwt>
<totfact> 0.12703058E+03</totfact>
</mgrwt>
</event>
<event>
 4    1  0.4962426E-002  0.7478360E+03  0.7818608E-02  0.9638751E-01
         21   -1    0    0  503  502  0.00000000000E+00  0.00000000000E+00  0.17357033151E+04  0.17357033151E+04  0.00000000000E+00 0.  1.
         21   -1    0    0  501  503 -0.00000000000E+00 -0.00000000000E+00 -0.32456513909E+03  0.32456513909E+03  0.00000000000E+00 0. -1.
    9000005    1    1    2  501    0 -0.22817277185E+03  0.58923325498E+03  0.79334482861E+03  0.10902544014E+04  0.40000000000E+03 0.  1.
   -9000005    1    1    2    0  502  0.22817277185E+03 -0.58923325498E+03  0.61779334737E+03  0.97001405281E+03  0.40000000000E+03 0.  1.
<mgrwt>
<rscale>  2 0.74783597E+03</rscale>
<asrwt>0</asrwt>
<pdfrwt beam="1">  1       21 0.26703127E+00 0.74783597E+03</pdfrwt>
<pdfrwt beam="2">  1       21 0.49933099E-01 0.74783597E+03</pdfrwt>
<totfact> 0.13940436E+02</totfact>
</mgrwt>
</event>
<event>
 4    1  0.4962426E-002  0.4043391E+03  0.7818608E-02  0.1042287E+00
         21   -1    0    0  503  502  0.00000000000E+00  0.00000000000E+00  0.27162195532E+03  0.27162195532E+03  0.00000000000E+00 0. -1.
         21   -1    0    0  501  503 -0.00000000000E+00 -0.00000000000E+00 -0.73457437322E+03  0.73457437322E+03  0.00000000000E+00 0. -1.
    9000005    1    1    2  501    0 -0.34520020630E+02  0.47942736843E+02 -0.44528376438E+03  0.60147133653E+03  0.40000000000E+03 0. -1.
   -9000005    1    1    2    0  502  0.34520020630E+02 -0.47942736843E+02 -0.17668653523E+02  0.40472499201E+03  0.40000000000E+03 0. -1.
<mgrwt>
<rscale>  2 0.40433914E+03</rscale>
<asrwt>0</asrwt>
<pdfrwt beam="1">  1       21 0.41787993E-01 0.40433914E+03</pdfrwt>
<pdfrwt beam="2">  1       21 0.11301144E+00 0.40433914E+03</pdfrwt>
<totfact> 0.29777273E+03</totfact>
</mgrwt>
</event>
<event>
 4    1  0.4962426E-002  0.5144294E+03  0.7818608E-02  0.1010080E+00
         21   -1    0    0  501  502  0.00000000000E+00  0.00000000000E+00  0.51283290868E+03  0.51283290868E+03  0.00000000000E+00 0.  1.
         21   -1    0    0  502  503 -0.00000000000E+00 -0.00000000000E+00 -0.84278913368E+03  0.84278913368E+03  0.00000000000E+00 0.  1.
    9000005    1    1    2  501    0  0.15287043218E+03  0.28507593159E+03 -0.58702664597E+03  0.78053695549E+03  0.40000000000E+03 0.  1.
   -9000005    1    1    2    0  503 -0.15287043218E+03 -0.28507593159E+03  0.25707042098E+03  0.57508508687E+03  0.40000000000E+03 0.  1.
<mgrwt>
<rscale>  2 0.51442945E+03</rscale>
<asrwt>0</asrwt>
<pdfrwt beam="1">  1       21 0.78897371E-01 0.51442945E+03</pdfrwt>
<pdfrwt beam="2">  1       21 0.12965987E+00 0.51442945E+03</pdfrwt>
<totfact> 0.50232214E+02</totfact>
</mgrwt>
</event>
<event>
 4    1  0.4962426E-002  0.5062729E+03  0.7818608E-02  0.1012154E+00
         21   -1    0    0  503  502  0.00000000000E+00  0.00000000000E+00  0.10951984400E+04  0.10951984400E+04  0.00000000000E+00 0.  1.
         21   -1    0    0  501  503 -0.00000000000E+00 -0.00000000000E+00 -0.44529656732E+03  0.44529656732E+03  0.00000000000E+00 0.  1.
    9000005    1    1    2  501    0 -0.21233072857E+02  0.30961493741E+03 -0.20558918698E+03  0.54642398067E+03  0.40000000000E+03 0.  1.
   -9000005    1    1    2    0  502  0.21233072857E+02 -0.30961493741E+03  0.85549105965E+03  0.99407102663E+03  0.40000000000E+03 0.  1.
<mgrwt>
<rscale>  2 0.50627290E+03</rscale>
<asrwt>0</asrwt>
<pdfrwt beam="1">  1       21 0.16849207E+00 0.50627290E+03</pdfrwt>
<pdfrwt beam="2">  1       21 0.68507164E-01 0.50627290E+03</pdfrwt>
<totfact> 0.34100273E+02</totfact>
</mgrwt>
</event>
<event>
 4    1  0.4962426E-002  0.4049500E+03  0.7818608E-02  0.1042079E+00
         21   -1    0    0  501  502  0.00000000000E+00  0.00000000000E+00  0.12327289702E+03  0.12327289702E+03  0.00000000000E+00 0.  1.
         21   -1    0    0  502  503 -0.00000000000E+00 -0.00000000000E+00 -0.18086891915E+04  0.18086891915E+04  0.00000000000E+00 0.  1.
    9000005    1    1    2  501    0 -0.39733853146E+02  0.49047824635E+02 -0.34589001192E+03  0.53256395723E+03  0.40000000000E+03 0.  1.
   -9000005    1    1    2    0  503  0.39733853146E+02 -0.49047824635E+02 -0.13395262825E+04  0.13993981313E+04  0.40000000000E+03 0.  1.
<mgrwt>
<rscale>  2 0.40494996E+03</rscale>
<asrwt>0</asrwt>
<pdfrwt beam="1">  1       21 0.18965059E-01 0.40494996E+03</pdfrwt>
<pdfrwt beam="2">  1       21 0.27825990E+00 0.40494996E+03</pdfrwt>
<totfact> 0.96682249E+02</totfact>
</mgrwt>
</event>
<event>
 4    1  0.4962426E-002  0.7230401E+03  0.7818608E-02  0.9678622E-01
         21   -1    0    0  503  502  0.00000000000E+00  0.00000000000E+00  0.34752847811E+03  0.34752847811E+03  0.00000000000E+00 0. -1.
         21   -1    0    0  501  503 -0.00000000000E+00 -0.00000000000E+00 -0.18156409349E+04  0.18156409349E+04  0.00000000000E+00 0.  1.
    9000005    1    1    2  501    0  0.35623173699E+03  0.48568091425E+03 -0.28617398428E+03  0.77761336806E+03  0.40000000000E+03 0. -1.
   -9000005    1    1    2    0  502 -0.35623173699E+03 -0.48568091425E+03 -0.11819384725E+04  0.13855560450E+04  0.40000000000E+03 0.  1.
<mgrwt>
<rscale>  2 0.72304011E+03</rscale>
<asrwt>0</asrwt>
<pdfrwt beam="1">  1       21 0.53465920E-01 0.72304011E+03</pdfrwt>
<pdfrwt beam="2">  1       21 0.27932937E+00 0.72304011E+03</pdfrwt>
<totfact> 0.10184274E+02</totfact>
</mgrwt>
</event>
<event>
 4    1  0.4962426E-002  0.4092125E+03  0.7818608E-02  0.1040636E+00
         21   -1    0    0  501  502  0.00000000000E+00  0.00000000000E+00  0.41630379455E+03  0.41630379455E+03  0.00000000000E+00 0. -1.
         21   -1    0    0  502  503 -0.00000000000E+00 -0.00000000000E+00 -0.62541923968E+03  0.62541923968E+03  0.00000000000E+00 0. -1.
    9000005    1    1    2  501    0 -0.83157401271E+02  0.23232312366E+02  0.20658636338E+03  0.45840246428E+03  0.40000000000E+03 0. -1.
   -9000005    1    1    2    0  503  0.83157401271E+02 -0.23232312366E+02 -0.41570180851E+03  0.58332056995E+03  0.40000000000E+03 0. -1.
<mgrwt>
<rscale>  2 0.40921253E+03</rscale>
<asrwt>0</asrwt>
<pdfrwt beam="1">  1       21 0.64046738E-01 0.40921253E+03</pdfrwt>
<pdfrwt beam="2">  1       21 0.96218344E-01 0.40921253E+03</pdfrwt>
<totfact> 0.17695395E+03</totfact>
</mgrwt>
</event>
<event>
 4    1  0.4962426E-002  0.4581706E+03  0.7818608E-02  0.1025313E+00
         21   -1    0    0  501  502  0.00000000000E+00  0.00000000000E+00  0.64561366501E+03  0.64561366501E+03  0.00000000000E+00 0. -1.
         21   -1    0    0  502  503 -0.00000000000E+00 -0.00000000000E+00 -0.43813120457E+03  0.43813120457E+03  0.00000000000E+00 0. -1.
    9000005    1    1    2  501    0  0.13862100535E+03  0.17522696434E+03  0.37891122540E+03  0.59455360473E+03  0.40000000000E+03 0. -1.
   -9000005    1    1    2    0  503 -0.13862100535E+03 -0.17522696434E+03 -0.17142876496E+03  0.48919126486E+03  0.40000000000E+03 0. -1.
<mgrwt>
<rscale>  2 0.45817057E+03</rscale>
<asrwt>0</asrwt>
<pdfrwt beam="1">  1       21 0.99325179E-01 0.45817057E+03</pdfrwt>
<pdfrwt beam="2">  1       21 0.67404801E-01 0.45817057E+03</pdfrwt>
<totfact> 0.14343631E+03</totfact>
</mgrwt>
</event>
<event>
 4    1  0.4962426E-002  0.5436496E+03  0.7818608E-02  0.1002975E+00
         21   -1    0    0  501  502  0.00000000000E+00  0.00000000000E+00  0.22209442257E+04  0.22209442257E+04  0.00000000000E+00 0. -1.
         21   -1    0    0  502  503 -0.00000000000E+00 -0.00000000000E+00 -0.16813004864E+03  0.16813004864E+03  0.00000000000E+00 0. -1.
    9000005    1    1    2  501    0 -0.36805789530E+03  0.93960154348E+01  0.15718441112E+04  0.16632043799E+04  0.40000000000E+03 0. -1.
   -9000005    1    1    2    0  503  0.36805789530E+03 -0.93960154348E+01  0.48097006586E+03  0.72586989444E+03  0.40000000000E+03 0. -1.
<mgrwt>
<rscale>  2 0.54364961E+03</rscale>
<asrwt>0</asrwt>
<pdfrwt beam="1">  1       21 0.34168371E+00 0.54364961E+03</pdfrwt>
<pdfrwt beam="2">  1       21 0.25866163E-01 0.54364961E+03</pdfrwt>
<totfact> 0.20384706E+02</totfact>
</mgrwt>
</event>
<event>
 4    1  0.4962426E-002  0.6222968E+03  0.7818608E-02  0.9860197E-01
         21   -1    0    0  503  502  0.00000000000E+00  0.00000000000E+00  0.10780126427E+04  0.10780126427E+04  0.00000000000E+00 0.  1.
         21   -1    0    0  501  503 -0.00000000000E+00 -0.00000000000E+00 -0.36864907049E+03  0.36864907049E+03  0.00000000000E+00 0.  1.
    9000005    1    1    2  501    0  0.42263867191E+03  0.22052187549E+03  0.23905491874E+03  0.66663378158E+03  0.40000000000E+03 0.  1.
   -9000005    1    1    2    0  502 -0.42263867191E+03 -0.22052187549E+03  0.47030865345E+03  0.78002793160E+03  0.40000000000E+03 0.  1.
<mgrwt>
<rscale>  2 0.62229683E+03</rscale>
<asrwt>0</asrwt>
<pdfrwt beam="1">  1       21 0.16584810E+00 0.62229683E+03</pdfrwt>
<pdfrwt beam="2">  1       21 0.56715242E-01 0.62229683E+03</pdfrwt>
<totfact> 0.51913474E+02</totfact>
</mgrwt>
</event>
<event>
 4    1  0.4962426E-002  0.4978182E+03  0.7818608E-02  0.1014350E+00
         21   -1    0    0  501  502  0.00000000000E+00  0.00000000000E+00  0.26834261175E+03  0.26834261175E+03  0.00000000000E+00 0.  1.
         21   -1    0    0  502  503 -0.00000000000E+00 -0.00000000000E+00 -0.12120048285E+04  0.12120048285E+04  0.00000000000E+00 0.  1.
    9000005    1    1    2  501    0 -0.93879897797E+02  0.28108635172E+03 -0.11072570307E+03  0.50998348371E+03  0.40000000000E+03 0.  1.
   -9000005    1    1    2    0  503  0.93879897797E+02 -0.28108635172E+03 -0.83293651373E+03  0.97036395658E+03  0.40000000000E+03 0.  1.
<mgrwt>
<rscale>  2 0.49781821E+03</rscale>
<asrwt>0</asrwt>
<pdfrwt beam="1">  1       21 0.41283480E-01 0.49781821E+03</pdfrwt>
<pdfrwt beam="2">  1       21 0.18646227E+00 0.49781821E+03</pdfrwt>
<totfact> 0.75906124E+02</totfact>
</mgrwt>
</event>
<event>
 4    1  0.4962426E-002  0.4136128E+03  0.7818608E-02  0.1039165E+00
         21   -1    0    0  503  502  0.00000000000E+00  0.00000000000E+00  0.14080486359E+04  0.14080486359E+04  0.00000000000E+00 0.  1.
         21   -1    0    0  501  503 -0.00000000000E+00 -0.00000000000E+00 -0.12177821982E+03  0.12177821982E+03  0.00000000000E+00 0.  1.
    9000005    1    1    2  501    0  0.10350005702E+03 -0.19060567620E+02  0.60646478254E+03  0.73408112597E+03  0.40000000000E+03 0. -1.
   -9000005    1    1    2    0  502 -0.10350005702E+03  0.19060567620E+02  0.67980563358E+03  0.79574572980E+03  0.40000000000E+03 0. -1.
<mgrwt>
<rscale>  2 0.41361282E+03</rscale>
<asrwt>0</asrwt>
<pdfrwt beam="1">  1       21 0.21662286E+00 0.41361282E+03</pdfrwt>
<pdfrwt beam="2">  1       21 0.18735112E-01 0.41361282E+03</pdfrwt>
<totfact> 0.23592534E+03</totfact>
</mgrwt>
</event>
<event>
 4    1  0.4962426E-002  0.6827987E+03  0.7818608E-02  0.9747109E-01
         21   -1    0    0  503  502  0.00000000000E+00  0.00000000000E+00  0.61331492976E+03  0.61331492976E+03  0.00000000000E+00 0.  1.
         21   -1    0    0  501  503 -0.00000000000E+00 -0.00000000000E+00 -0.13793552977E+04  0.13793552977E+04  0.00000000000E+00 0. -1.
    9000005    1    1    2  501    0  0.56089354889E+02  0.55051616329E+03 -0.10505691697E+04  0.12529603514E+04  0.40000000000E+03 0. -1.
   -9000005    1    1    2    0  502 -0.56089354889E+02 -0.55051616329E+03  0.28452880176E+03  0.73970987610E+03  0.40000000000E+03 0.  1.
<mgrwt>
<rscale>  2 0.68279870E+03</rscale>
<asrwt>0</asrwt>
<pdfrwt beam="1">  1       21 0.94356143E-01 0.68279870E+03</pdfrwt>
<pdfrwt beam="2">  1       21 0.21220851E+00 0.68279870E+03</pdfrwt>
<totfact> 0.74981098E+01</totfact>
</mgrwt>
</event>
<event>
 4    1  0.4962426E-002  0.5318849E+03  0.7818608E-02  0.1005776E+00
         21   -1    0    0  501  502  0.00000000000E+00  0.00000000000E+00  0.29470976992E+03  0.29470976992E+03  0.00000000000E+00 0. -1.
         21   -1    0    0  502  503 -0.00000000000E+00 -0.00000000000E+00 -0.11229363799E+04  0.11229363799E+04  0.00000000000E+00 0.  1.
    9000005    1    1    2  501    0 -0.33968528629E+03  0.86691919043E+02 -0.14405421086E+03  0.55104736476E+03  0.40000000000E+03 0. -1.
   -9000005    1    1    2    0  503  0.33968528629E+03 -0.86691919043E+02 -0.68417239909E+03  0.86659878503E+03  0.40000000000E+03 0.  1.
<mgrwt>
<rscale>  2 0.53188493E+03</rscale>
<asrwt>0</asrwt>
<pdfrwt beam="1">  1       21 0.45339964E-01 0.53188493E+03</pdfrwt>
<pdfrwt beam="2">  1       21 0.17275945E+00 0.53188493E+03</pdfrwt>
<totfact> 0.77034998E+02</totfact>
</mgrwt>
</event>
<event>
 4    1  0.4962426E-002  0.5063634E+03  0.7818608E-02  0.1012131E+00
         21   -1    0    0  501  502  0.00000000000E+00  0.00000000000E+00  0.10560136409E+03  0.10560136409E+03  0.00000000000E+00 0.  1.
         21   -1    0    0  502  503 -0.00000000000E+00 -0.00000000000E+00 -0.27730347980E+04  0.27730347980E+04  0.00000000000E+00 0.  1.
    9000005    1    1    2  501    0  0.29142764625E+03 -0.10711582739E+03 -0.82603894129E+03  0.96888812874E+03  0.40000000000E+03 0.  1.
   -9000005    1    1    2    0  503 -0.29142764625E+03  0.10711582739E+03 -0.18413944926E+04  0.19097480333E+04  0.40000000000E+03 0.  1.
<mgrwt>
<rscale>  2 0.50636338E+03</rscale>
<asrwt>0</asrwt>
<pdfrwt beam="1">  1       21 0.16246365E-01 0.50636338E+03</pdfrwt>
<pdfrwt beam="2">  1       21 0.42662071E+00 0.50636338E+03</pdfrwt>
<totfact> 0.14612950E+02</totfact>
</mgrwt>
</event>
<event>
 4    1  0.4962426E-002  0.4463190E+03  0.7818608E-02  0.1028825E+00
         21   -1    0    0  501  502  0.00000000000E+00  0.00000000000E+00  0.68508528423E+03  0.68508528423E+03  0.00000000000E+00 0.  1.
         21   -1    0    0  502  503 -0.00000000000E+00 -0.00000000000E+00 -0.33398362233E+03  0.33398362233E+03  0.00000000000E+00 0. -1.
    9000005    1    1    2  501    0 -0.15615030719E+03  0.12172827314E+03  0.35883828009E+03  0.57268281114E+03  0.40000000000E+03 0.  1.
   -9000005    1    1    2    0  503  0.15615030719E+03 -0.12172827314E+03 -0.77366181904E+01  0.44638609541E+03  0.40000000000E+03 0. -1.
<mgrwt>
<rscale>  2 0.44631905E+03</rscale>
<asrwt>0</asrwt>
<pdfrwt beam="1">  1       21 0.10539774E+00 0.44631905E+03</pdfrwt>
<pdfrwt beam="2">  1       21 0.51382096E-01 0.44631905E+03</pdfrwt>
<totfact> 0.22548572E+03</totfact>
</mgrwt>
</event>
<event>
 4    1  0.4962426E-002  0.4256377E+03  0.7818608E-02  0.1035247E+00
         21   -1    0    0  503  502  0.00000000000E+00  0.00000000000E+00  0.54835153473E+03  0.54835153473E+03  0.00000000000E+00 0. -1.
         21   -1    0    0  501  503 -0.00000000000E+00 -0.00000000000E+00 -0.59212213886E+03  0.59212213886E+03  0.00000000000E+00 0.  1.
    9000005    1    1    2  501    0 -0.13957399419E+01 -0.14548357916E+03 -0.40100979602E+03  0.58478737709E+03  0.40000000000E+03 0.  1.
   -9000005    1    1    2    0  502  0.13957399419E+01  0.14548357916E+03  0.35723919189E+03  0.55568629650E+03  0.40000000000E+03 0. -1.
<mgrwt>
<rscale>  2 0.42563766E+03</rscale>
<asrwt>0</asrwt>
<pdfrwt beam="1">  1       21 0.84361775E-01 0.42563766E+03</pdfrwt>
<pdfrwt beam="2">  1       21 0.91095713E-01 0.42563766E+03</pdfrwt>
<totfact> 0.10713269E+03</totfact>
</mgrwt>
</event>
<event>
 4    1  0.4962426E-002  0.4056802E+03  0.7818608E-02  0.1041830E+00
         21   -1    0    0  503  502  0.00000000000E+00  0.00000000000E+00  0.11888529447E+04  0.11888529447E+04  0.00000000000E+00 0.  1.
         21   -1    0    0  501  503 -0.00000000000E+00 -0.00000000000E+00 -0.19581842630E+03  0.19581842630E+03  0.00000000000E+00 0.  1.
    9000005    1    1    2  501    0  0.26532424042E+02 -0.62228995331E+02  0.12172471421E+03  0.42354849006E+03  0.40000000000E+03 0.  1.
   -9000005    1    1    2    0  502 -0.26532424042E+02  0.62228995331E+02  0.87130980415E+03  0.96112288090E+03  0.40000000000E+03 0.  1.
<mgrwt>
<rscale>  2 0.40568019E+03</rscale>
<asrwt>0</asrwt>
<pdfrwt beam="1">  1       21 0.18290045E+00 0.40568019E+03</pdfrwt>
<pdfrwt beam="2">  1       21 0.30125912E-01 0.40568019E+03</pdfrwt>
<totfact> 0.15853987E+03</totfact>
</mgrwt>
</event>
<event>
 4    1  0.4962426E-002  0.5207389E+03  0.7818608E-02  0.1008503E+00
         21   -1    0    0  501  502  0.00000000000E+00  0.00000000000E+00  0.12697567069E+03  0.12697567069E+03  0.00000000000E+00 0.  1.
         21   -1    0    0  502  503 -0.00000000000E+00 -0.00000000000E+00 -0.22053007898E+04  0.22053007898E+04  0.00000000000E+00 0.  1.
    9000005    1    1    2  501    0  0.24017485788E+03  0.23126841201E+03 -0.83184317440E+03  0.98139294248E+03  0.40000000000E+03 0.  1.
   -9000005    1    1    2    0  503 -0.24017485788E+03 -0.23126841201E+03 -0.12464819447E+04  0.13508835180E+04  0.40000000000E+03 0.  1.
<mgrwt>
<rscale>  2 0.52073894E+03</rscale>
<asrwt>0</asrwt>
<pdfrwt beam="1">  1       21 0.19534718E-01 0.52073894E+03</pdfrwt>
<pdfrwt beam="2">  1       21 0.33927705E+00 0.52073894E+03</pdfrwt>
<totfact> 0.36708824E+02</totfact>
</mgrwt>
</event>
<event>
 4    1  0.4962426E-002  0.4130115E+03  0.7818608E-02  0.1039365E+00
         21   -1    0    0  501  502  0.00000000000E+00  0.00000000000E+00  0.41120186116E+03  0.41120186116E+03  0.00000000000E+00 0. -1.
         21   -1    0    0  502  503 -0.00000000000E+00 -0.00000000000E+00 -0.43976744587E+03  0.43976744587E+03  0.00000000000E+00 0. -1.
    9000005    1    1    2  501    0  0.81645983077E+02  0.62549236951E+02  0.87039895057E+02  0.42208342413E+03  0.40000000000E+03 0.  1.
   -9000005    1    1    2    0  503 -0.81645983077E+02 -0.62549236951E+02 -0.11560547977E+03  0.42888588290E+03  0.40000000000E+03 0.  1.
<mgrwt>
<rscale>  2 0.41301147E+03</rscale>
<asrwt>0</asrwt>
<pdfrwt beam="1">  1       21 0.63261825E-01 0.41301147E+03</pdfrwt>
<pdfrwt beam="2">  1       21 0.67656530E-01 0.41301147E+03</pdfrwt>
<totfact> 0.40982242E+03</totfact>
</mgrwt>
</event>
<event>
 4    1  0.4962426E-002  0.4262850E+03  0.7818608E-02  0.1035040E+00
         21   -1    0    0  503  502  0.00000000000E+00  0.00000000000E+00  0.15687482493E+03  0.15687482493E+03  0.00000000000E+00 0.  1.
         21   -1    0    0  501  503 -0.00000000000E+00 -0.00000000000E+00 -0.17429403455E+04  0.17429403455E+04  0.00000000000E+00 0.  1.
    9000005    1    1    2  501    0  0.14181573188E+03  0.40089364699E+02 -0.13431547861E+04  0.14091783558E+04  0.40000000000E+03 0.  1.
   -9000005    1    1    2    0  502 -0.14181573188E+03 -0.40089364699E+02 -0.24291073445E+03  0.49063681464E+03  0.40000000000E+03 0.  1.
<mgrwt>
<rscale>  2 0.42628495E+03</rscale>
<asrwt>0</asrwt>
<pdfrwt beam="1">  1       21 0.24134587E-01 0.42628495E+03</pdfrwt>
<pdfrwt beam="2">  1       21 0.26814468E+00 0.42628495E+03</pdfrwt>
<totfact> 0.69301478E+02</totfact>
</mgrwt>
</event>
<event>
 4    1  0.4962426E-002  0.4742256E+03  0.7818608E-02  0.1020734E+00
         21   -1    0    0  503  502  0.00000000000E+00  0.00000000000E+00  0.33321456004E+04  0.33321456004E+04  0.00000000000E+00 0. -1.
         21   -1    0    0  501  503 -0.00000000000E+00 -0.00000000000E+00 -0.96825022209E+02  0.96825022209E+02  0.00000000000E+00 0. -1.
    9000005    1    1    2  501    0  0.88414483750E+02 -0.23889910777E+03  0.67397838351E+03  0.82409754645E+03  0.40000000000E+03 0. -1.
   -9000005    1    1    2    0  502 -0.88414483750E+02  0.23889910777E+03  0.25613421947E+04  0.26048730762E+04  0.40000000000E+03 0. -1.
<mgrwt>
<rscale>  2 0.47422558E+03</rscale>
<asrwt>0</asrwt>
<pdfrwt beam="1">  1       21 0.51263770E+00 0.47422558E+03</pdfrwt>
<pdfrwt beam="2">  1       21 0.14896160E-01 0.47422558E+03</pdfrwt>
<totfact> 0.44517119E+01</totfact>
</mgrwt>
</event>
<event>
 4    1  0.4962426E-002  0.4361184E+03  0.7818608E-02  0.1031944E+00
         21   -1    0    0  503  502  0.00000000000E+00  0.00000000000E+00  0.49402281135E+03  0.49402281135E+03  0.00000000000E+00 0.  1.
         21   -1    0    0  501  503 -0.00000000000E+00 -0.00000000000E+00 -0.47713380763E+03  0.47713380763E+03  0.00000000000E+00 0.  1.
    9000005    1    1    2  501    0 -0.25617534892E+02 -0.17188083794E+03 -0.20493186544E+03  0.48186756481E+03  0.40000000000E+03 0.  1.
   -9000005    1    1    2    0  502  0.25617534892E+02  0.17188083794E+03  0.22182086915E+03  0.48928905418E+03  0.40000000000E+03 0.  1.
<mgrwt>
<rscale>  2 0.43611842E+03</rscale>
<asrwt>0</asrwt>
<pdfrwt beam="1">  1       21 0.76003509E-01 0.43611842E+03</pdfrwt>
<pdfrwt beam="2">  1       21 0.73405201E-01 0.43611842E+03</pdfrwt>
<totfact> 0.22395159E+03</totfact>
</mgrwt>
</event>
<event>
 4    1  0.4962426E-002  0.6452679E+03  0.7818608E-02  0.9815699E-01
         21   -1    0    0  503  502  0.00000000000E+00  0.00000000000E+00  0.65674332766E+03  0.65674332766E+03  0.00000000000E+00 0. -1.
         21   -1    0    0  501  503 -0.00000000000E+00 -0.00000000000E+00 -0.12813331710E+04  0.12813331710E+04  0.00000000000E+00 0.  1.
    9000005    1    1    2  501    0 -0.42075465621E+03  0.28166682454E+03 -0.10010679939E+04  0.11910112548E+04  0.40000000000E+03 0.  1.
   -9000005    1    1    2    0  502  0.42075465621E+03 -0.28166682454E+03  0.37647815051E+03  0.74706524386E+03  0.40000000000E+03 0. -1.
<mgrwt>
<rscale>  2 0.64526791E+03</rscale>
<asrwt>0</asrwt>
<pdfrwt beam="1">  1       21 0.10103744E+00 0.64526791E+03</pdfrwt>
<pdfrwt beam="2">  1       21 0.19712818E+00 0.64526791E+03</pdfrwt>
<totfact> 0.81262065E+01</totfact>
</mgrwt>
</event>
<event>
 4    1  0.4962426E-002  0.4275224E+03  0.7818608E-02  0.1034645E+00
         21   -1    0    0  501  502  0.00000000000E+00  0.00000000000E+00  0.52513997420E+03  0.52513997420E+03  0.00000000000E+00 0. -1.
         21   -1    0    0  502  503 -0.00000000000E+00 -0.00000000000E+00 -0.34816754591E+03  0.34816754591E+03  0.00000000000E+00 0.  1.
    9000005    1    1    2  501    0 -0.10888587856E+03  0.10449526665E+03  0.80490845676E+02  0.43503352921E+03  0.40000000000E+03 0.  1.
   -9000005    1    1    2    0  503  0.10888587856E+03 -0.10449526665E+03  0.96481582614E+02  0.43827399089E+03  0.40000000000E+03 0. -1.
<mgrwt>
<rscale>  2 0.42752239E+03</rscale>
<asrwt>0</asrwt>
<pdfrwt beam="1">  1       21 0.80790766E-01 0.42752239E+03</pdfrwt>
<pdfrwt beam="2">  1       21 0.53564237E-01 0.42752239E+03</pdfrwt>
<totfact> 0.39137119E+03</totfact>
</mgrwt>
</event>
<event>
 4    1  0.4962426E-002  0.5325483E+03  0.7818608E-02  0.1005616E+00
         21   -1    0    0  503  502  0.00000000000E+00  0.00000000000E+00  0.49704048466E+03  0.49704048466E+03  0.00000000000E+00 0.  1.
         21   -1    0    0  501  503 -0.00000000000E+00 -0.00000000000E+00 -0.65216671497E+03  0.65216671497E+03  0.00000000000E+00 0.  1.
    9000005    1    1    2  501    0 -0.28963896309E+02  0.35038377295E+03 -0.28078235427E+03  0.60203523660E+03  0.40000000000E+03 0.  1.
   -9000005    1    1    2    0  502  0.28963896309E+02 -0.35038377295E+03  0.12565612397E+03  0.54717196303E+03  0.40000000000E+03 0.  1.
<mgrwt>
<rscale>  2 0.53254830E+03</rscale>
<asrwt>0</asrwt>
<pdfrwt beam="1">  1       21 0.76467767E-01 0.53254830E+03</pdfrwt>
<pdfrwt beam="2">  1       21 0.10033334E+00 0.53254830E+03</pdfrwt>
<totfact> 0.10232765E+03</totfact>
</mgrwt>
</event>
<event>
 4    1  0.4962426E-002  0.4005235E+03  0.7818608E-02  0.1043599E+00
         21   -1    0    0  503  502  0.00000000000E+00  0.00000000000E+00  0.25728273778E+04  0.25728273778E+04  0.00000000000E+00 0.  1.
         21   -1    0    0  501  503 -0.00000000000E+00 -0.00000000000E+00 -0.62356647161E+02  0.62356647161E+02  0.00000000000E+00 0.  1.
    9000005    1    1    2  501    0 -0.20440254341E+02 -0.11162632168E+01  0.12429980526E+04  0.13059338455E+04  0.40000000000E+03 0. -1.
   -9000005    1    1    2    0  502  0.20440254341E+02  0.11162632168E+01  0.12674726781E+04  0.13292501795E+04  0.40000000000E+03 0. -1.
<mgrwt>
<rscale>  2 0.40052347E+03</rscale>
<asrwt>0</asrwt>
<pdfrwt beam="1">  1       21 0.39581951E+00 0.40052347E+03</pdfrwt>
<pdfrwt beam="2">  1       21 0.95933323E-02 0.40052347E+03</pdfrwt>
<totfact> 0.65042226E+02</totfact>
</mgrwt>
</event>
<event>
 4    1  0.4962426E-002  0.4466271E+03  0.7818608E-02  0.1028733E+00
         21   -1    0    0  501  502  0.00000000000E+00  0.00000000000E+00  0.51145084679E+03  0.51145084679E+03  0.00000000000E+00 0. -1.
         21   -1    0    0  502  503 -0.00000000000E+00 -0.00000000000E+00 -0.92168146046E+03  0.92168146046E+03  0.00000000000E+00 0. -1.
    9000005    1    1    2  501    0  0.19034903757E+03  0.56947811657E+02  0.33911616735E+03  0.56078122679E+03  0.40000000000E+03 0. -1.
   -9000005    1    1    2    0  503 -0.19034903757E+03 -0.56947811657E+02 -0.74934678102E+03  0.87235108046E+03  0.40000000000E+03 0. -1.
<mgrwt>
<rscale>  2 0.44662715E+03</rscale>
<asrwt>0</asrwt>
<pdfrwt beam="1">  1       21 0.78684747E-01 0.44662715E+03</pdfrwt>
<pdfrwt beam="2">  1       21 0.14179715E+00 0.44662715E+03</pdfrwt>
<totfact> 0.41121406E+02</totfact>
</mgrwt>
</event>
<event>
 4    1  0.4962426E-002  0.5143258E+03  0.7818608E-02  0.1010106E+00
         21   -1    0    0  503  502  0.00000000000E+00  0.00000000000E+00  0.11440840387E+04  0.11440840387E+04  0.00000000000E+00 0. -1.
         21   -1    0    0  501  503 -0.00000000000E+00 -0.00000000000E+00 -0.24164585825E+03  0.24164585825E+03  0.00000000000E+00 0. -1.
    9000005    1    1    2  501    0  0.30970640114E+03 -0.92806049952E+02  0.30727649399E+03  0.59912424552E+03  0.40000000000E+03 0. -1.
   -9000005    1    1    2    0  502 -0.30970640114E+03  0.92806049952E+02  0.59516168646E+03  0.78660565142E+03  0.40000000000E+03 0. -1.
<mgrwt>
<rscale>  2 0.51432579E+03</rscale>
<asrwt>0</asrwt>
<pdfrwt beam="1">  1       21 0.17601293E+00 0.51432579E+03</pdfrwt>
<pdfrwt beam="2">  1       21 0.37176287E-01 0.51432579E+03</pdfrwt>
<totfact> 0.11089659E+03</totfact>
</mgrwt>
</event>
<event>
 4    1  0.4962426E-002  0.4051589E+03  0.7818608E-02  0.1042008E+00
         21   -1    0    0  503  502  0.00000000000E+00  0.00000000000E+00  0.78918830452E+03  0.78918830452E+03  0.00000000000E+00 0.  1.
         21   -1    0    0  501  503 -0.00000000000E+00 -0.00000000000E+00 -0.57079228089E+03  0.57079228089E+03  0.00000000000E+00 0.  1.
    9000005    1    1    2  501    0  0.47711193673E+02 -0.43329064222E+02 -0.43291610367E+03  0.59293348584E+03  0.40000000000E+03 0.  1.
   -9000005    1    1    2    0  502 -0.47711193673E+02  0.43329064222E+02  0.65131212730E+03  0.76704709958E+03  0.40000000000E+03 0.  1.
<mgrwt>
<rscale>  2 0.40515894E+03</rscale>
<asrwt>0</asrwt>
<pdfrwt beam="1">  1       21 0.12141359E+00 0.40515894E+03</pdfrwt>
<pdfrwt beam="2">  1       21 0.87814197E-01 0.40515894E+03</pdfrwt>
<totfact> 0.48677798E+02</totfact>
</mgrwt>
</event>
<event>
 4    1  0.4962426E-002  0.4063352E+03  0.7818608E-02  0.1041608E+00
         21   -1    0    0  503  502  0.00000000000E+00  0.00000000000E+00  0.59765123055E+03  0.59765123055E+03  0.00000000000E+00 0.  1.
         21   -1    0    0  501  503 -0.00000000000E+00 -0.00000000000E+00 -0.27671374700E+03  0.27671374700E+03  0.00000000000E+00 0.  1.
    9000005    1    1    2  501    0  0.48309580448E+02 -0.52672969525E+02  0.17813517553E+03  0.44366699003E+03  0.40000000000E+03 0.  1.
   -9000005    1    1    2    0  502 -0.48309580448E+02  0.52672969525E+02  0.14280230802E+03  0.43069798752E+03  0.40000000000E+03 0.  1.
<mgrwt>
<rscale>  2 0.40633515E+03</rscale>
<asrwt>0</asrwt>
<pdfrwt beam="1">  1       21 0.91946343E-01 0.40633515E+03</pdfrwt>
<pdfrwt beam="2">  1       21 0.42571346E-01 0.40633515E+03</pdfrwt>
<totfact> 0.47295876E+03</totfact>
</mgrwt>
</event>
<event>
 4    1  0.4962426E-002  0.4063216E+03  0.7818608E-02  0.1041612E+00
         21   -1    0    0  503  502  0.00000000000E+00  0.00000000000E+00  0.14335416329E+04  0.14335416329E+04  0.00000000000E+00 0.  1.
         21   -1    0    0  501  503 -0.00000000000E+00 -0.00000000000E+00 -0.11604285792E+03  0.11604285792E+03  0.00000000000E+00 0.  1.
    9000005    1    1    2  501    0 -0.63291681020E+02  0.33036507576E+02  0.59145229827E+03  0.71757443436E+03  0.40000000000E+03 0. -1.
   -9000005    1    1    2    0  502  0.63291681020E+02 -0.33036507576E+02  0.72604647672E+03  0.83201005647E+03  0.40000000000E+03 0. -1.
<mgrwt>
<rscale>  2 0.40632161E+03</rscale>
<asrwt>0</asrwt>
<pdfrwt beam="1">  1       21 0.22054485E+00 0.40632161E+03</pdfrwt>
<pdfrwt beam="2">  1       21 0.17852748E-01 0.40632161E+03</pdfrwt>
<totfact> 0.24473140E+03</totfact>
</mgrwt>
</event>
<event>
 4    1  0.4962426E-002  0.4592023E+03  0.7818608E-02  0.1025013E+00
         21   -1    0    0  503  502  0.00000000000E+00  0.00000000000E+00  0.14506670717E+03  0.14506670717E+03  0.00000000000E+00 0. -1.
         21   -1    0    0  501  503 -0.00000000000E+00 -0.00000000000E+00 -0.17062742723E+04  0.17062742723E+04  0.00000000000E+00 0. -1.
    9000005    1    1    2  501    0  0.38915052400E+02  0.22215394761E+03 -0.42437780396E+03  0.62527056403E+03  0.40000000000E+03 0. -1.
   -9000005    1    1    2    0  502 -0.38915052400E+02 -0.22215394761E+03 -0.11368297612E+04  0.12260704154E+04  0.40000000000E+03 0. -1.
<mgrwt>
<rscale>  2 0.45920231E+03</rscale>
<asrwt>0</asrwt>
<pdfrwt beam="1">  1       21 0.22317958E-01 0.45920231E+03</pdfrwt>
<pdfrwt beam="2">  1       21 0.26250370E+00 0.45920231E+03</pdfrwt>
<totfact> 0.85700164E+02</totfact>
</mgrwt>
</event>
<event>
 4    1  0.4962426E-002  0.4257979E+03  0.7818608E-02  0.1035196E+00
         21   -1    0    0  501  502  0.00000000000E+00  0.00000000000E+00  0.24847854477E+03  0.24847854477E+03  0.00000000000E+00 0. -1.
         21   -1    0    0  502  503 -0.00000000000E+00 -0.00000000000E+00 -0.19772815099E+04  0.19772815099E+04  0.00000000000E+00 0. -1.
    9000005    1    1    2  501    0  0.12804282405E+03 -0.70063471558E+02  0.19606574090E+02  0.42624907341E+03  0.40000000000E+03 0. -1.
   -9000005    1    1    2    0  503 -0.12804282405E+03  0.70063471558E+02 -0.17484095392E+04  0.17995109813E+04  0.40000000000E+03 0. -1.
<mgrwt>
<rscale>  2 0.42579790E+03</rscale>
<asrwt>0</asrwt>
<pdfrwt beam="1">  1       21 0.38227468E-01 0.42579790E+03</pdfrwt>
<pdfrwt beam="2">  1       21 0.30419716E+00 0.42579790E+03</pdfrwt>
<totfact> 0.16869102E+02</totfact>
</mgrwt>
</event>
<event>
 4    1  0.4962426E-002  0.4590464E+03  0.7818608E-02  0.1025058E+00
         21   -1    0    0  501  502  0.00000000000E+00  0.00000000000E+00  0.49929980614E+03  0.49929980614E+03  0.00000000000E+00 0. -1.
         21   -1    0    0  502  503 -0.00000000000E+00 -0.00000000000E+00 -0.61641905086E+03  0.61641905086E+03  0.00000000000E+00 0. -1.
    9000005    1    1    2  501    0 -0.22514608842E+03  0.57293890795E+01  0.25470654997E+03  0.52497525049E+03  0.40000000000E+03 0. -1.
   -9000005    1    1    2    0  503  0.22514608842E+03 -0.57293890795E+01 -0.37182579470E+03  0.59074360651E+03  0.40000000000E+03 0. -1.
<mgrwt>
<rscale>  2 0.45904639E+03</rscale>
<asrwt>0</asrwt>
<pdfrwt beam="1">  1       21 0.76815355E-01 0.45904639E+03</pdfrwt>
<pdfrwt beam="2">  1       21 0.94833700E-01 0.45904639E+03</pdfrwt>
<totfact> 0.11923463E+03</totfact>
</mgrwt>
</event>
<event>
 4    1  0.4962426E-002  0.4083728E+03  0.7818608E-02  0.1040918E+00
         21   -1    0    0  501  502  0.00000000000E+00  0.00000000000E+00  0.16034069178E+04  0.16034069178E+04  0.00000000000E+00 0. -1.
         21   -1    0    0  502  503 -0.00000000000E+00 -0.00000000000E+00 -0.15824248639E+03  0.15824248639E+03  0.00000000000E+00 0. -1.
    9000005    1    1    2  501    0 -0.72070608292E+02 -0.39676318093E+02  0.12382412319E+04  0.13038442128E+04  0.40000000000E+03 0. -1.
   -9000005    1    1    2    0  503  0.72070608292E+02  0.39676318093E+02  0.20692319951E+03  0.45780519142E+03  0.40000000000E+03 0. -1.
<mgrwt>
<rscale>  2 0.40837285E+03</rscale>
<asrwt>0</asrwt>
<pdfrwt beam="1">  1       21 0.24667798E+00 0.40837285E+03</pdfrwt>
<pdfrwt beam="2">  1       21 0.24344999E-01 0.40837285E+03</pdfrwt>
<totfact> 0.92967729E+02</totfact>
</mgrwt>
</event>
<event>
 4    1  0.4962426E-002  0.4805754E+03  0.7818608E-02  0.1018977E+00
         21   -1    0    0  503  502  0.00000000000E+00  0.00000000000E+00  0.43555773289E+03  0.43555773289E+03  0.00000000000E+00 0. -1.
         21   -1    0    0  501  503 -0.00000000000E+00 -0.00000000000E+00 -0.56998280197E+03  0.56998280197E+03  0.00000000000E+00 0. -1.
    9000005    1    1    2  501    0 -0.60083222661E+02 -0.25950467596E+03  0.65537948338E+02  0.48502360062E+03  0.40000000000E+03 0. -1.
   -9000005    1    1    2    0  502  0.60083222661E+02  0.25950467596E+03 -0.19996301742E+03  0.52051693423E+03  0.40000000000E+03 0. -1.
<mgrwt>
<rscale>  2 0.48057535E+03</rscale>
<asrwt>0</asrwt>
<pdfrwt beam="1">  1       21 0.67008882E-01 0.48057535E+03</pdfrwt>
<pdfrwt beam="2">  1       21 0.87689662E-01 0.48057535E+03</pdfrwt>
<totfact> 0.19414046E+03</totfact>
</mgrwt>
</event>
<event>
 4    1  0.4962426E-002  0.4115644E+03  0.7818608E-02  0.1039847E+00
         21   -1    0    0  501  502  0.00000000000E+00  0.00000000000E+00  0.36179041918E+03  0.36179041918E+03  0.00000000000E+00 0. -1.
         21   -1    0    0  502  503 -0.00000000000E+00 -0.00000000000E+00 -0.75091288075E+03  0.75091288075E+03  0.00000000000E+00 0. -1.
    9000005    1    1    2  501    0 -0.13015443658E+02  0.95999183940E+02  0.14681877233E+03  0.43696795878E+03  0.40000000000E+03 0. -1.
   -9000005    1    1    2    0  503  0.13015443658E+02 -0.95999183940E+02 -0.53594123390E+03  0.67573534115E+03  0.40000000000E+03 0. -1.
<mgrwt>
<rscale>  2 0.41156439E+03</rscale>
<asrwt>0</asrwt>
<pdfrwt beam="1">  1       21 0.55660065E-01 0.41156439E+03</pdfrwt>
<pdfrwt beam="2">  1       21 0.11552506E+00 0.41156439E+03</pdfrwt>
<totfact> 0.15339889E+03</totfact>
</mgrwt>
</event>
<event>
 4    1  0.4962426E-002  0.4770570E+03  0.7818608E-02  0.1019947E+00
         21   -1    0    0  501  502  0.00000000000E+00  0.00000000000E+00  0.16124654247E+04  0.16124654247E+04  0.00000000000E+00 0. -1.
         21   -1    0    0  502  503 -0.00000000000E+00 -0.00000000000E+00 -0.53772598361E+03  0.53772598361E+03  0.00000000000E+00 0. -1.
    9000005    1    1    2  501    0  0.16483596749E+03  0.20102853130E+03  0.14606536936E+04  0.15365847127E+04  0.40000000000E+03 0. -1.
   -9000005    1    1    2    0  503 -0.16483596749E+03 -0.20102853130E+03 -0.38591425254E+03  0.61360669561E+03  0.40000000000E+03 0. -1.
<mgrwt>
<rscale>  2 0.47705698E+03</rscale>
<asrwt>0</asrwt>
<pdfrwt beam="1">  1       21 0.24807160E+00 0.47705698E+03</pdfrwt>
<pdfrwt beam="2">  1       21 0.82727075E-01 0.47705698E+03</pdfrwt>
<totfact> 0.66679476E+01</totfact>
</mgrwt>
</event>
<event>
 4    1  0.4962426E-002  0.4674851E+03  0.7818608E-02  0.1022632E+00
         21   -1    0    0  503  502  0.00000000000E+00  0.00000000000E+00  0.40494763687E+03  0.40494763687E+03  0.00000000000E+00 0.  1.
         21   -1    0    0  501  503 -0.00000000000E+00 -0.00000000000E+00 -0.69543349962E+03  0.69543349962E+03  0.00000000000E+00 0.  1.
    9000005    1    1    2  501    0  0.22102703008E+03 -0.98434687290E+02 -0.40562050336E+03  0.61892675531E+03  0.40000000000E+03 0.  1.
   -9000005    1    1    2    0  502 -0.22102703008E+03  0.98434687290E+02  0.11513464061E+03  0.48145438118E+03  0.40000000000E+03 0.  1.
<mgrwt>
<rscale>  2 0.46748512E+03</rscale>
<asrwt>0</asrwt>
<pdfrwt beam="1">  1       21 0.62299637E-01 0.46748512E+03</pdfrwt>
<pdfrwt beam="2">  1       21 0.10698977E+00 0.46748512E+03</pdfrwt>
<totfact> 0.14188586E+03</totfact>
</mgrwt>
</event>
<event>
 4    1  0.4962426E-002  0.4082029E+03  0.7818608E-02  0.1040976E+00
         21   -1    0    0  501  502  0.00000000000E+00  0.00000000000E+00  0.37612404033E+03  0.37612404033E+03  0.00000000000E+00 0.  1.
         21   -1    0    0  502  503 -0.00000000000E+00 -0.00000000000E+00 -0.98462122113E+03  0.98462122113E+03  0.00000000000E+00 0.  1.
    9000005    1    1    2  501    0  0.74983587380E+02  0.31734746819E+02  0.20035803888E+03  0.45472296651E+03  0.40000000000E+03 0.  1.
   -9000005    1    1    2    0  503 -0.74983587380E+02 -0.31734746819E+02 -0.80885521968E+03  0.90602229494E+03  0.40000000000E+03 0.  1.
<mgrwt>
<rscale>  2 0.40820293E+03</rscale>
<asrwt>0</asrwt>
<pdfrwt beam="1">  1       21 0.57865237E-01 0.40820293E+03</pdfrwt>
<pdfrwt beam="2">  1       21 0.15148019E+00 0.40820293E+03</pdfrwt>
<totfact> 0.69704327E+02</totfact>
</mgrwt>
</event>
<event>
 4    1  0.4962426E-002  0.4648840E+03  0.7818608E-02  0.1023374E+00
         21   -1    0    0  501  502  0.00000000000E+00  0.00000000000E+00  0.25361937824E+03  0.25361937824E+03  0.00000000000E+00 0. -1.
         21   -1    0    0  502  503 -0.00000000000E+00 -0.00000000000E+00 -0.15789148248E+04  0.15789148248E+04  0.00000000000E+00 0.  1.
    9000005    1    1    2  501    0 -0.23556630821E+03  0.25013505717E+02 -0.40998920042E+02  0.46668841048E+03  0.40000000000E+03 0. -1.
   -9000005    1    1    2    0  503  0.23556630821E+03 -0.25013505717E+02 -0.12842965265E+04  0.13658457925E+04  0.40000000000E+03 0.  1.
<mgrwt>
<rscale>  2 0.46488403E+03</rscale>
<asrwt>0</asrwt>
<pdfrwt beam="1">  1       21 0.39018367E-01 0.46488403E+03</pdfrwt>
<pdfrwt beam="2">  1       21 0.24290997E+00 0.46488403E+03</pdfrwt>
<totfact> 0.37174108E+02</totfact>
</mgrwt>
</event>
<event>
 4    1  0.4962426E-002  0.5401861E+03  0.7818608E-02  0.1003791E+00
         21   -1    0    0  501  502  0.00000000000E+00  0.00000000000E+00  0.21211745912E+04  0.21211745912E+04  0.00000000000E+00 0. -1.
         21   -1    0    0  502  503 -0.00000000000E+00 -0.00000000000E+00 -0.19313437048E+03  0.19313437048E+03  0.00000000000E+00 0.  1.
    9000005    1    1    2  501    0  0.36193261393E+03  0.28386283732E+02  0.15847123557E+04  0.16742503542E+04  0.40000000000E+03 0. -1.
   -9000005    1    1    2    0  503 -0.36193261393E+03 -0.28386283732E+02  0.34332786498E+03  0.64005860748E+03  0.40000000000E+03 0.  1.
<mgrwt>
<rscale>  2 0.54018608E+03</rscale>
<asrwt>0</asrwt>
<pdfrwt beam="1">  1       21 0.32633454E+00 0.54018608E+03</pdfrwt>
<pdfrwt beam="2">  1       21 0.29712981E-01 0.54018608E+03</pdfrwt>
<totfact> 0.19277520E+02</totfact>
</mgrwt>
</event>
<event>
 4    1  0.4962426E-002  0.4973689E+03  0.7818608E-02  0.1014468E+00
         21   -1    0    0  503  502  0.00000000000E+00  0.00000000000E+00  0.73708520023E+03  0.73708520023E+03  0.00000000000E+00 0. -1.
         21   -1    0    0  501  503 -0.00000000000E+00 -0.00000000000E+00 -0.36997200579E+03  0.36997200579E+03  0.00000000000E+00 0. -1.
    9000005    1    1    2  501    0  0.20497046355E+03  0.21298575229E+03  0.35223990281E+03  0.60946597176E+03  0.40000000000E+03 0. -1.
   -9000005    1    1    2    0  502 -0.20497046355E+03 -0.21298575229E+03  0.14873291625E+02  0.49759123426E+03  0.40000000000E+03 0. -1.
<mgrwt>
<rscale>  2 0.49736890E+03</rscale>
<asrwt>0</asrwt>
<pdfrwt beam="1">  1       21 0.11339772E+00 0.49736890E+03</pdfrwt>
<pdfrwt beam="2">  1       21 0.56918770E-01 0.49736890E+03</pdfrwt>
<totfact> 0.14801895E+03</totfact>
</mgrwt>
</event>
<event>
 4    1  0.4962426E-002  0.4431123E+03  0.7818608E-02  0.1029796E+00
         21   -1    0    0  503  502  0.00000000000E+00  0.00000000000E+00  0.28337989414E+03  0.28337989414E+03  0.00000000000E+00 0. -1.
         21   -1    0    0  501  503 -0.00000000000E+00 -0.00000000000E+00 -0.69755899833E+03  0.69755899833E+03  0.00000000000E+00 0.  1.
    9000005    1    1    2  501    0 -0.14787121836E+03 -0.12034387410E+03 -0.16692421814E+03  0.47351054883E+03  0.40000000000E+03 0.  1.
   -9000005    1    1    2    0  502  0.14787121836E+03  0.12034387410E+03 -0.24725488605E+03  0.50742834364E+03  0.40000000000E+03 0.  1.
<mgrwt>
<rscale>  2 0.44311234E+03</rscale>
<asrwt>0</asrwt>
<pdfrwt beam="1">  1       21 0.43596907E-01 0.44311234E+03</pdfrwt>
<pdfrwt beam="2">  1       21 0.10731677E+00 0.44311234E+03</pdfrwt>
<totfact> 0.30538843E+03</totfact>
</mgrwt>
</event>
<event>
 4    1  0.4962426E-002  0.4894671E+03  0.7818608E-02  0.1016565E+00
         21   -1    0    0  503  502  0.00000000000E+00  0.00000000000E+00  0.64651159550E+03  0.64651159550E+03  0.00000000000E+00 0.  1.
         21   -1    0    0  501  503 -0.00000000000E+00 -0.00000000000E+00 -0.12141783270E+04  0.12141783270E+04  0.00000000000E+00 0.  1.
    9000005    1    1    2  501    0 -0.28186343456E+03 -0.11446428532E+02 -0.10593178538E+04  0.11669328738E+04  0.40000000000E+03 0.  1.
   -9000005    1    1    2    0  502  0.28186343456E+03  0.11446428532E+02  0.49165112237E+03  0.69375704868E+03  0.40000000000E+03 0.  1.
<mgrwt>
<rscale>  2 0.48946707E+03</rscale>
<asrwt>0</asrwt>
<pdfrwt beam="1">  1       21 0.99463323E-01 0.48946707E+03</pdfrwt>
<pdfrwt beam="2">  1       21 0.18679666E+00 0.48946707E+03</pdfrwt>
<totfact> 0.10660785E+02</totfact>
</mgrwt>
</event>
<event>
 4    1  0.4962426E-002  0.5117393E+03  0.7818608E-02  0.1010759E+00
         21   -1    0    0  501  502  0.00000000000E+00  0.00000000000E+00  0.19005974454E+03  0.19005974454E+03  0.00000000000E+00 0.  1.
         21   -1    0    0  502  503 -0.00000000000E+00 -0.00000000000E+00 -0.15528315232E+04  0.15528315232E+04  0.00000000000E+00 0. -1.
    9000005    1    1    2  501    0 -0.80523045963E+02 -0.30885781615E+03 -0.97390397734E+03  0.11001663822E+04  0.40000000000E+03 0.  1.
   -9000005    1    1    2    0  503  0.80523045963E+02  0.30885781615E+03 -0.38886780129E+03  0.64272488548E+03  0.40000000000E+03 0.  1.
<mgrwt>
<rscale>  2 0.51173930E+03</rscale>
<asrwt>0</asrwt>
<pdfrwt beam="1">  1       21 0.29239961E-01 0.51173930E+03</pdfrwt>
<pdfrwt beam="2">  1       21 0.23889716E+00 0.51173930E+03</pdfrwt>
<totfact> 0.68929782E+02</totfact>
</mgrwt>
</event>
<event>
 4    1  0.4962426E-002  0.4740194E+03  0.7818608E-02  0.1020792E+00
         21   -1    0    0  503  502  0.00000000000E+00  0.00000000000E+00  0.23425817432E+04  0.23425817432E+04  0.00000000000E+00 0.  1.
         21   -1    0    0  501  503 -0.00000000000E+00 -0.00000000000E+00 -0.95919966014E+02  0.95919966014E+02  0.00000000000E+00 0.  1.
    9000005    1    1    2  501    0  0.24946312578E+03 -0.49623907236E+02  0.11296196522E+04  0.12250448734E+04  0.40000000000E+03 0.  1.
   -9000005    1    1    2    0  502 -0.24946312578E+03  0.49623907236E+02  0.11170421250E+04  0.12134568358E+04  0.40000000000E+03 0.  1.
<mgrwt>
<rscale>  2 0.47401939E+03</rscale>
<asrwt>0</asrwt>
<pdfrwt beam="1">  1       21 0.36039715E+00 0.47401939E+03</pdfrwt>
<pdfrwt beam="2">  1       21 0.14756920E-01 0.47401939E+03</pdfrwt>
<totfact> 0.47270844E+02</totfact>
</mgrwt>
</event>
<event>
 4    1  0.4962426E-002  0.4035457E+03  0.7818608E-02  0.1042559E+00
         21   -1    0    0  503  502  0.00000000000E+00  0.00000000000E+00  0.69883526701E+02  0.69883526701E+02  0.00000000000E+00 0.  1.
         21   -1    0    0  501  503 -0.00000000000E+00 -0.00000000000E+00 -0.23553252649E+04  0.23553252649E+04  0.00000000000E+00 0.  1.
    9000005    1    1    2  501    0 -0.12729218058E+02  0.51836930876E+02 -0.10177114149E+04  0.10947993535E+04  0.40000000000E+03 0.  1.
   -9000005    1    1    2    0  502  0.12729218058E+02 -0.51836930876E+02 -0.12677303233E+04  0.13304094381E+04  0.40000000000E+03 0.  1.
<mgrwt>
<rscale>  2 0.40354566E+03</rscale>
<asrwt>0</asrwt>
<pdfrwt beam="1">  1       21 0.10751312E-01 0.40354566E+03</pdfrwt>
<pdfrwt beam="2">  1       21 0.36235772E+00 0.40354566E+03</pdfrwt>
<totfact> 0.85682778E+02</totfact>
</mgrwt>
</event>
<event>
 4    1  0.4962426E-002  0.4821364E+03  0.7818608E-02  0.1018550E+00
         21   -1    0    0  501  502  0.00000000000E+00  0.00000000000E+00  0.10944700712E+04  0.10944700712E+04  0.00000000000E+00 0. -1.
         21   -1    0    0  502  503 -0.00000000000E+00 -0.00000000000E+00 -0.21246438202E+03  0.21246438202E+03  0.00000000000E+00 0. -1.
    9000005    1    1    2  501    0 -0.26655051613E+03  0.37500774540E+02  0.45315532893E+03  0.66166852568E+03  0.40000000000E+03 0. -1.
   -9000005    1    1    2    0  503  0.26655051613E+03 -0.37500774540E+02  0.42885036020E+03  0.64526592750E+03  0.40000000000E+03 0. -1.
<mgrwt>
<rscale>  2 0.48213638E+03</rscale>
<asrwt>0</asrwt>
<pdfrwt beam="1">  1       21 0.16838001E+00 0.48213638E+03</pdfrwt>
<pdfrwt beam="2">  1       21 0.32686829E-01 0.48213638E+03</pdfrwt>
<totfact> 0.16554183E+03</totfact>
</mgrwt>
</event>
<event>
 4    1  0.4962426E-002  0.4405695E+03  0.7818608E-02  0.1030572E+00
         21   -1    0    0  501  502  0.00000000000E+00  0.00000000000E+00  0.66575645757E+03  0.66575645757E+03  0.00000000000E+00 0. -1.
         21   -1    0    0  502  503 -0.00000000000E+00 -0.00000000000E+00 -0.34251528160E+03  0.34251528160E+03  0.00000000000E+00 0. -1.
    9000005    1    1    2  501    0 -0.10336714445E+03 -0.15302532471E+03  0.35608647103E+03  0.56647955956E+03  0.40000000000E+03 0. -1.
   -9000005    1    1    2    0  503  0.10336714445E+03  0.15302532471E+03 -0.32845295057E+02  0.44179217961E+03  0.40000000000E+03 0. -1.
<mgrwt>
<rscale>  2 0.44056954E+03</rscale>
<asrwt>0</asrwt>
<pdfrwt beam="1">  1       21 0.10242407E+00 0.44056954E+03</pdfrwt>
<pdfrwt beam="2">  1       21 0.52694659E-01 0.44056954E+03</pdfrwt>
<totfact> 0.22968901E+03</totfact>
</mgrwt>
</event>
<event>
 4    1  0.4962426E-002  0.4321419E+03  0.7818608E-02  0.1033185E+00
         21   -1    0    0  503  502  0.00000000000E+00  0.00000000000E+00  0.85607832071E+03  0.85607832071E+03  0.00000000000E+00 0.  1.
         21   -1    0    0  501  503 -0.00000000000E+00 -0.00000000000E+00 -0.21923578395E+03  0.21923578395E+03  0.00000000000E+00 0.  1.
    9000005    1    1    2  501    0 -0.15912063221E+03 -0.37778998486E+02  0.35639798555E+03  0.56014833073E+03  0.40000000000E+03 0. -1.
   -9000005    1    1    2    0  502  0.15912063221E+03  0.37778998486E+02  0.28044455121E+03  0.51516577393E+03  0.40000000000E+03 0. -1.
<mgrwt>
<rscale>  2 0.43214191E+03</rscale>
<asrwt>0</asrwt>
<pdfrwt beam="1">  1       21 0.13170436E+00 0.43214191E+03</pdfrwt>
<pdfrwt beam="2">  1       21 0.33728583E-01 0.43214191E+03</pdfrwt>
<totfact> 0.30883618E+03</totfact>
</mgrwt>
</event>
<event>
 4    1  0.4962426E-002  0.4145684E+03  0.7818608E-02  0.1038849E+00
         21   -1    0    0  503  502  0.00000000000E+00  0.00000000000E+00  0.31913527147E+03  0.31913527147E+03  0.00000000000E+00 0. -1.
         21   -1    0    0  501  503 -0.00000000000E+00 -0.00000000000E+00 -0.70554128210E+03  0.70554128210E+03  0.00000000000E+00 0. -1.
    9000005    1    1    2  501    0 -0.80575286623E+02 -0.73311311325E+02 -0.44246509996E+03  0.60633512999E+03  0.40000000000E+03 0. -1.
   -9000005    1    1    2    0  502  0.80575286623E+02  0.73311311325E+02  0.56059089335E+02  0.41834142358E+03  0.40000000000E+03 0. -1.
<mgrwt>
<rscale>  2 0.41456836E+03</rscale>
<asrwt>0</asrwt>
<pdfrwt beam="1">  1       21 0.49097734E-01 0.41456836E+03</pdfrwt>
<pdfrwt beam="2">  1       21 0.10854481E+00 0.41456836E+03</pdfrwt>
<totfact> 0.23386647E+03</totfact>
</mgrwt>
</event>
<event>
 4    1  0.4962426E-002  0.4235449E+03  0.7818608E-02  0.1035919E+00
         21   -1    0    0  501  502  0.00000000000E+00  0.00000000000E+00  0.14185319326E+04  0.14185319326E+04  0.00000000000E+00 0.  1.
         21   -1    0    0  502  503 -0.00000000000E+00 -0.00000000000E+00 -0.14933869566E+03  0.14933869566E+03  0.00000000000E+00 0.  1.
    9000005    1    1    2  501    0 -0.13729333999E+03  0.23255292710E+02  0.94142213317E+03  0.10323109525E+04  0.40000000000E+03 0.  1.
   -9000005    1    1    2    0  503  0.13729333999E+03 -0.23255292710E+02  0.32777110379E+03  0.53555967578E+03  0.40000000000E+03 0.  1.
<mgrwt>
<rscale>  2 0.42354489E+03</rscale>
<asrwt>0</asrwt>
<pdfrwt beam="1">  1       21 0.21823567E+00 0.42354489E+03</pdfrwt>
<pdfrwt beam="2">  1       21 0.22975185E-01 0.42354489E+03</pdfrwt>
<totfact> 0.15538178E+03</totfact>
</mgrwt>
</event>
<event>
 4    1  0.4962426E-002  0.4157881E+03  0.7818608E-02  0.1038446E+00
         21   -1    0    0  501  502  0.00000000000E+00  0.00000000000E+00  0.93918288185E+02  0.93918288185E+02  0.00000000000E+00 0. -1.
         21   -1    0    0  502  503 -0.00000000000E+00 -0.00000000000E+00 -0.20003036527E+04  0.20003036527E+04  0.00000000000E+00 0. -1.
    9000005    1    1    2  501    0  0.18893147828E+02  0.11190520907E+03 -0.12489281199E+04  0.13163210761E+04  0.40000000000E+03 0.  1.
   -9000005    1    1    2    0  503 -0.18893147828E+02 -0.11190520907E+03 -0.65745724462E+03  0.77790086473E+03  0.40000000000E+03 0.  1.
<mgrwt>
<rscale>  2 0.41578808E+03</rscale>
<asrwt>0</asrwt>
<pdfrwt beam="1">  1       21 0.14448968E-01 0.41578808E+03</pdfrwt>
<pdfrwt beam="2">  1       21 0.30773900E+00 0.41578808E+03</pdfrwt>
<totfact> 0.10628983E+03</totfact>
</mgrwt>
</event>
<event>
 4    1  0.4962426E-002  0.4439940E+03  0.7818608E-02  0.1029528E+00
         21   -1    0    0  503  502  0.00000000000E+00  0.00000000000E+00  0.20012031002E+04  0.20012031002E+04  0.00000000000E+00 0. -1.
         21   -1    0    0  501  503 -0.00000000000E+00 -0.00000000000E+00 -0.15189977369E+03  0.15189977369E+03  0.00000000000E+00 0.  1.
    9000005    1    1    2  501    0 -0.14223860336E+03  0.12999562977E+03  0.28638644095E+03  0.52834446870E+03  0.40000000000E+03 0.  1.
   -9000005    1    1    2    0  502  0.14223860336E+03 -0.12999562977E+03  0.15629168856E+04  0.16247584052E+04  0.40000000000E+03 0. -1.
<mgrwt>
<rscale>  2 0.44399401E+03</rscale>
<asrwt>0</asrwt>
<pdfrwt beam="1">  1       21 0.30787738E+00 0.44399401E+03</pdfrwt>
<pdfrwt beam="2">  1       21 0.23369197E-01 0.44399401E+03</pdfrwt>
<totfact> 0.42114746E+02</totfact>
</mgrwt>
</event>
<event>
 4    1  0.4962426E-002  0.4206713E+03  0.7818608E-02  0.1036848E+00
         21   -1    0    0  503  502  0.00000000000E+00  0.00000000000E+00  0.18170592937E+03  0.18170592937E+03  0.00000000000E+00 0.  1.
         21   -1    0    0  501  503 -0.00000000000E+00 -0.00000000000E+00 -0.10917403495E+04  0.10917403495E+04  0.00000000000E+00 0.  1.
    9000005    1    1    2  501    0  0.10696722722E+03 -0.74312624410E+02 -0.66420114910E+03  0.78621086250E+03  0.40000000000E+03 0.  1.
   -9000005    1    1    2    0  502 -0.10696722722E+03  0.74312624410E+02 -0.24583327107E+03  0.48723541642E+03  0.40000000000E+03 0.  1.
<mgrwt>
<rscale>  2 0.42067131E+03</rscale>
<asrwt>0</asrwt>
<pdfrwt beam="1">  1       21 0.27954758E-01 0.42067131E+03</pdfrwt>
<pdfrwt beam="2">  1       21 0.16796006E+00 0.42067131E+03</pdfrwt>
<totfact> 0.23330463E+03</totfact>
</mgrwt>
</event>
<event>
 4    1  0.4962426E-002  0.4006510E+03  0.7818608E-02  0.1043554E+00
         21   -1    0    0  501  502  0.00000000000E+00  0.00000000000E+00  0.12204133814E+04  0.12204133814E+04  0.00000000000E+00 0.  1.
         21   -1    0    0  502  503 -0.00000000000E+00 -0.00000000000E+00 -0.23553747942E+03  0.23553747942E+03  0.00000000000E+00 0.  1.
    9000005    1    1    2  501    0  0.39070803310E+01  0.22494314646E+02  0.97618519568E+03  0.10552055704E+04  0.40000000000E+03 0.  1.
   -9000005    1    1    2    0  503 -0.39070803310E+01 -0.22494314646E+02  0.86907063399E+01  0.40074529048E+03  0.40000000000E+03 0.  1.
<mgrwt>
<rscale>  2 0.40065104E+03</rscale>
<asrwt>0</asrwt>
<pdfrwt beam="1">  1       21 0.18775590E+00 0.40065104E+03</pdfrwt>
<pdfrwt beam="2">  1       21 0.36236536E-01 0.40065104E+03</pdfrwt>
<totfact> 0.10160106E+03</totfact>
</mgrwt>
</event>
<event>
 4    1  0.4962426E-002  0.4658141E+03  0.7818608E-02  0.1023108E+00
         21   -1    0    0  501  502  0.00000000000E+00  0.00000000000E+00  0.52558372657E+03  0.52558372657E+03  0.00000000000E+00 0. -1.
         21   -1    0    0  502  503 -0.00000000000E+00 -0.00000000000E+00 -0.83754317320E+03  0.83754317320E+03  0.00000000000E+00 0. -1.
    9000005    1    1    2  501    0 -0.18291826713E+03  0.15337430721E+03  0.32935870610E+03  0.57049095334E+03  0.40000000000E+03 0. -1.
   -9000005    1    1    2    0  503  0.18291826713E+03 -0.15337430721E+03 -0.64131815273E+03  0.79263594643E+03  0.40000000000E+03 0. -1.
<mgrwt>
<rscale>  2 0.46581409E+03</rscale>
<asrwt>0</asrwt>
<pdfrwt beam="1">  1       21 0.80859035E-01 0.46581409E+03</pdfrwt>
<pdfrwt beam="2">  1       21 0.12885280E+00 0.46581409E+03</pdfrwt>
<totfact> 0.49220717E+02</totfact>
</mgrwt>
</event>
<event>
 4    1  0.4962426E-002  0.4457041E+03  0.7818608E-02  0.1029011E+00
         21   -1    0    0  503  502  0.00000000000E+00  0.00000000000E+00  0.31087702791E+03  0.31087702791E+03  0.00000000000E+00 0.  1.
         21   -1    0    0  501  503 -0.00000000000E+00 -0.00000000000E+00 -0.74150820990E+03  0.74150820990E+03  0.00000000000E+00 0.  1.
    9000005    1    1    2  501    0  0.47956467051E+01  0.19654298777E+03 -0.19677079129E+02  0.44613824282E+03  0.40000000000E+03 0.  1.
   -9000005    1    1    2    0  502 -0.47956467051E+01 -0.19654298777E+03 -0.41095410286E+03  0.60624699498E+03  0.40000000000E+03 0.  1.
<mgrwt>
<rscale>  2 0.44570410E+03</rscale>
<asrwt>0</asrwt>
<pdfrwt beam="1">  1       21 0.47827235E-01 0.44570410E+03</pdfrwt>
<pdfrwt beam="2">  1       21 0.11407819E+00 0.44570410E+03</pdfrwt>
<totfact> 0.21584198E+03</totfact>
</mgrwt>
</event>
<event>
 4    1  0.4962426E-002  0.5164116E+03  0.7818608E-02  0.1009582E+00
         21   -1    0    0  503  502  0.00000000000E+00  0.00000000000E+00  0.92523508311E+03  0.92523508311E+03  0.00000000000E+00 0. -1.
         21   -1    0    0  501  503 -0.00000000000E+00 -0.00000000000E+00 -0.29404995115E+03  0.29404995115E+03  0.00000000000E+00 0. -1.
    9000005    1    1    2  501    0 -0.67950867230E+02 -0.31947397028E+03  0.22982817279E+03  0.56524501506E+03  0.40000000000E+03 0. -1.
   -9000005    1    1    2    0  502  0.67950867230E+02  0.31947397028E+03  0.40135695917E+03  0.65404001920E+03  0.40000000000E+03 0. -1.
<mgrwt>
<rscale>  2 0.51641160E+03</rscale>
<asrwt>0</asrwt>
<pdfrwt beam="1">  1       21 0.14234386E+00 0.51641160E+03</pdfrwt>
<pdfrwt beam="2">  1       21 0.45238454E-01 0.51641160E+03</pdfrwt>
<totfact> 0.13332432E+03</totfact>
</mgrwt>
</event>
<event>
 4    1  0.4962426E-002  0.4563004E+03  0.7818608E-02  0.1025860E+00
         21   -1    0    0  501  502  0.00000000000E+00  0.00000000000E+00  0.25032198073E+03  0.25032198073E+03  0.00000000000E+00 0.  1.
         21   -1    0    0  502  503 -0.00000000000E+00 -0.00000000000E+00 -0.14625224603E+04  0.14625224603E+04  0.00000000000E+00 0. -1.
    9000005    1    1    2  501    0  0.12921006443E+03  0.17752419203E+03 -0.43672861240E+02  0.45838564366E+03  0.40000000000E+03 0.  1.
   -9000005    1    1    2    0  503 -0.12921006443E+03 -0.17752419203E+03 -0.11685276183E+04  0.12544587974E+04  0.40000000000E+03 0. -1.
<mgrwt>
<rscale>  2 0.45630043E+03</rscale>
<asrwt>0</asrwt>
<pdfrwt beam="1">  1       21 0.38511074E-01 0.45630043E+03</pdfrwt>
<pdfrwt beam="2">  1       21 0.22500345E+00 0.45630043E+03</pdfrwt>
<totfact> 0.49661221E+02</totfact>
</mgrwt>
</event>
<event>
 4    1  0.4962426E-002  0.4598159E+03  0.7818608E-02  0.1024835E+00
         21   -1    0    0  503  502  0.00000000000E+00  0.00000000000E+00  0.31402248839E+03  0.31402248839E+03  0.00000000000E+00 0. -1.
         21   -1    0    0  501  503 -0.00000000000E+00 -0.00000000000E+00 -0.10822420657E+04  0.10822420657E+04  0.00000000000E+00 0.  1.
    9000005    1    1    2  501    0  0.22308544527E+03  0.40786911643E+02 -0.81325820096E+03  0.93424814128E+03  0.40000000000E+03 0.  1.
   -9000005    1    1    2    0  502 -0.22308544527E+03 -0.40786911643E+02  0.45038623683E+02  0.46201641278E+03  0.40000000000E+03 0. -1.
<mgrwt>
<rscale>  2 0.45981593E+03</rscale>
<asrwt>0</asrwt>
<pdfrwt beam="1">  1       21 0.48311152E-01 0.45981593E+03</pdfrwt>
<pdfrwt beam="2">  1       21 0.16649878E+00 0.45981593E+03</pdfrwt>
<totfact> 0.77094060E+02</totfact>
</mgrwt>
</event>
<event>
 4    1  0.4962426E-002  0.4500928E+03  0.7818608E-02  0.1027694E+00
         21   -1    0    0  501  502  0.00000000000E+00  0.00000000000E+00  0.11450124902E+04  0.11450124902E+04  0.00000000000E+00 0. -1.
         21   -1    0    0  502  503 -0.00000000000E+00 -0.00000000000E+00 -0.18632327867E+03  0.18632327867E+03  0.00000000000E+00 0. -1.
    9000005    1    1    2  501    0  0.11522266628E+03  0.17119363291E+03  0.62883182056E+03  0.77331299053E+03  0.40000000000E+03 0. -1.
   -9000005    1    1    2    0  503 -0.11522266628E+03 -0.17119363291E+03  0.32985739100E+03  0.55802277836E+03  0.40000000000E+03 0. -1.
<mgrwt>
<rscale>  2 0.45009279E+03</rscale>
<asrwt>0</asrwt>
<pdfrwt beam="1">  1       21 0.17615576E+00 0.45009279E+03</pdfrwt>
<pdfrwt beam="2">  1       21 0.28665121E-01 0.45009279E+03</pdfrwt>
<totfact> 0.19138674E+03</totfact>
</mgrwt>
</event>
<event>
 4    1  0.4962426E-002  0.6185877E+03  0.7818608E-02  0.9867576E-01
         21   -1    0    0  501  502  0.00000000000E+00  0.00000000000E+00  0.79521164958E+03  0.79521164958E+03  0.00000000000E+00 0. -1.
         21   -1    0    0  502  503 -0.00000000000E+00 -0.00000000000E+00 -0.51408653470E+03  0.51408653470E+03  0.00000000000E+00 0.  1.
    9000005    1    1    2  501    0 -0.20443595556E+03  0.42527246629E+03  0.30615556046E+03  0.69020428694E+03  0.40000000000E+03 0. -1.
   -9000005    1    1    2    0  503  0.20443595556E+03 -0.42527246629E+03 -0.25030445587E+02  0.61909389734E+03  0.40000000000E+03 0.  1.
<mgrwt>
<rscale>  2 0.61858769E+03</rscale>
<asrwt>0</asrwt>
<pdfrwt beam="1">  1       21 0.12234025E+00 0.61858769E+03</pdfrwt>
<pdfrwt beam="2">  1       21 0.79090236E-01 0.61858769E+03</pdfrwt>
<totfact> 0.55978912E+02</totfact>
</mgrwt>
</event>
<event>
 4    1  0.4962426E-002  0.4374091E+03  0.7818608E-02  0.1031545E+00
         21   -1    0    0  501  502  0.00000000000E+00  0.00000000000E+00  0.29493702244E+03  0.29493702244E+03  0.00000000000E+00 0. -1.
         21   -1    0    0  502  503 -0.00000000000E+00 -0.00000000000E+00 -0.99680211194E+03  0.99680211194E+03  0.00000000000E+00 0. -1.
    9000005    1    1    2  501    0 -0.14549579121E+03  0.10078556200E+03  0.30740361333E+02  0.43848799822E+03  0.40000000000E+03 0. -1.
   -9000005    1    1    2    0  503  0.14549579121E+03 -0.10078556200E+03 -0.73260545083E+03  0.85325113616E+03  0.40000000000E+03 0. -1.
<mgrwt>
<rscale>  2 0.43740914E+03</rscale>
<asrwt>0</asrwt>
<pdfrwt beam="1">  1       21 0.45374926E-01 0.43740914E+03</pdfrwt>
<pdfrwt beam="2">  1       21 0.15335417E+00 0.43740914E+03</pdfrwt>
<totfact> 0.11170607E+03</totfact>
</mgrwt>
</event>
<event>
 4    1  0.4962426E-002  0.5454307E+03  0.7818608E-02  0.1002557E+00
         21   -1    0    0  501  502  0.00000000000E+00  0.00000000000E+00  0.14612077401E+04  0.14612077401E+04  0.00000000000E+00 0.  1.
         21   -1    0    0  502  503 -0.00000000000E+00 -0.00000000000E+00 -0.20360440833E+03  0.20360440833E+03  0.00000000000E+00 0. -1.
    9000005    1    1    2  501    0  0.36452297754E+03 -0.67953586081E+02  0.62316406917E+03  0.82814741931E+03  0.40000000000E+03 0.  1.
   -9000005    1    1    2    0  503 -0.36452297754E+03  0.67953586081E+02  0.63443926262E+03  0.83666472913E+03  0.40000000000E+03 0. -1.
<mgrwt>
<rscale>  2 0.54543074E+03</rscale>
<asrwt>0</asrwt>
<pdfrwt beam="1">  1       21 0.22480118E+00 0.54543074E+03</pdfrwt>
<pdfrwt beam="2">  1       21 0.31323756E-01 0.54543074E+03</pdfrwt>
<totfact> 0.72741333E+02</totfact>
</mgrwt>
</event>
<event>
 4    1  0.4962426E-002  0.4142370E+03  0.7818608E-02  0.1038958E+00
         21   -1    0    0  501  502  0.00000000000E+00  0.00000000000E+00  0.76104392041E+03  0.76104392041E+03  0.00000000000E+00 0. -1.
         21   -1    0    0  502  503 -0.00000000000E+00 -0.00000000000E+00 -0.22609302537E+03  0.22609302537E+03  0.00000000000E+00 0. -1.
    9000005    1    1    2  501    0 -0.74126612150E+02  0.78086573363E+02  0.24155775058E+03  0.47952311147E+03  0.40000000000E+03 0. -1.
   -9000005    1    1    2    0  503  0.74126612150E+02 -0.78086573363E+02  0.29339314446E+03  0.50761383431E+03  0.40000000000E+03 0. -1.
<mgrwt>
<rscale>  2 0.41423697E+03</rscale>
<asrwt>0</asrwt>
<pdfrwt beam="1">  1       21 0.11708368E+00 0.41423697E+03</pdfrwt>
<pdfrwt beam="2">  1       21 0.34783543E-01 0.41423697E+03</pdfrwt>
<totfact> 0.39499001E+03</totfact>
</mgrwt>
</event>
<event>
 4    1  0.4962426E-002  0.4465064E+03  0.7818608E-02  0.1028769E+00
         21   -1    0    0  501  502  0.00000000000E+00  0.00000000000E+00  0.33380187192E+03  0.33380187192E+03  0.00000000000E+00 0.  1.
         21   -1    0    0  502  503 -0.00000000000E+00 -0.00000000000E+00 -0.11296990217E+04  0.11296990217E+04  0.00000000000E+00 0. -1.
    9000005    1    1    2  501    0 -0.89289927564E+02  0.17718705121E+03  0.10441113798E+03  0.45855166341E+03  0.40000000000E+03 0.  1.
   -9000005    1    1    2    0  503  0.89289927564E+02 -0.17718705121E+03 -0.90030828773E+03  0.10049492302E+04  0.40000000000E+03 0. -1.
<mgrwt>
<rscale>  2 0.44650637E+03</rscale>
<asrwt>0</asrwt>
<pdfrwt beam="1">  1       21 0.51354133E-01 0.44650637E+03</pdfrwt>
<pdfrwt beam="2">  1       21 0.17379985E+00 0.44650637E+03</pdfrwt>
<totfact> 0.60277393E+02</totfact>
</mgrwt>
</event>
<event>
 4    1  0.4962426E-002  0.5710885E+03  0.7818608E-02  0.9967273E-01
         21   -1    0    0  503  502  0.00000000000E+00  0.00000000000E+00  0.35978585413E+03  0.35978585413E+03  0.00000000000E+00 0. -1.
         21   -1    0    0  501  503 -0.00000000000E+00 -0.00000000000E+00 -0.12576091461E+04  0.12576091461E+04  0.00000000000E+00 0. -1.
    9000005    1    1    2  501    0 -0.32347512057E+03 -0.24800378538E+03 -0.87621956229E+03  0.10458980603E+04  0.40000000000E+03 0. -1.
   -9000005    1    1    2    0  502  0.32347512057E+03  0.24800378538E+03 -0.21603729666E+02  0.57149693991E+03  0.40000000000E+03 0. -1.
<mgrwt>
<rscale>  2 0.57108846E+03</rscale>
<asrwt>0</asrwt>
<pdfrwt beam="1">  1       21 0.55351669E-01 0.57108846E+03</pdfrwt>
<pdfrwt beam="2">  1       21 0.19347833E+00 0.57108846E+03</pdfrwt>
<totfact> 0.35402540E+02</totfact>
</mgrwt>
</event>
<event>
 4    1  0.4962426E-002  0.5565618E+03  0.7818608E-02  0.9999864E-01
         21   -1    0    0  501  502  0.00000000000E+00  0.00000000000E+00  0.21931980266E+04  0.21931980266E+04  0.00000000000E+00 0.  1.
         21   -1    0    0  502  503 -0.00000000000E+00 -0.00000000000E+00 -0.17184151436E+03  0.17184151436E+03  0.00000000000E+00 0.  1.
    9000005    1    1    2  501    0  0.38146441617E+03  0.65160833858E+02  0.51163745076E+03  0.75599862175E+03  0.40000000000E+03 0.  1.
   -9000005    1    1    2    0  503 -0.38146441617E+03 -0.65160833858E+02  0.15097190615E+04  0.16090409192E+04  0.40000000000E+03 0.  1.
<mgrwt>
<rscale>  2 0.55656180E+03</rscale>
<asrwt>0</asrwt>
<pdfrwt beam="1">  1       21 0.33741506E+00 0.55656180E+03</pdfrwt>
<pdfrwt beam="2">  1       21 0.26437157E-01 0.55656180E+03</pdfrwt>
<totfact> 0.20608554E+02</totfact>
</mgrwt>
</event>
<event>
 4    1  0.4962426E-002  0.4307220E+03  0.7818608E-02  0.1033632E+00
         21   -1    0    0  501  502  0.00000000000E+00  0.00000000000E+00  0.18523600325E+03  0.18523600325E+03  0.00000000000E+00 0.  1.
         21   -1    0    0  502  503 -0.00000000000E+00 -0.00000000000E+00 -0.11993154920E+04  0.11993154920E+04  0.00000000000E+00 0.  1.
    9000005    1    1    2  501    0 -0.81070903677E+01 -0.15954847828E+03 -0.22591595763E+03  0.48637378810E+03  0.40000000000E+03 0.  1.
   -9000005    1    1    2    0  503  0.81070903677E+01  0.15954847828E+03 -0.78816353109E+03  0.89817770712E+03  0.40000000000E+03 0.  1.
<mgrwt>
<rscale>  2 0.43072200E+03</rscale>
<asrwt>0</asrwt>
<pdfrwt beam="1">  1       21 0.28497846E-01 0.43072200E+03</pdfrwt>
<pdfrwt beam="2">  1       21 0.18451008E+00 0.43072200E+03</pdfrwt>
<totfact> 0.17049950E+03</totfact>
</mgrwt>
</event>
<event>
 4    1  0.4962426E-002  0.4721347E+03  0.7818608E-02  0.1021319E+00
         21   -1    0    0  501  502  0.00000000000E+00  0.00000000000E+00  0.19962218618E+03  0.19962218618E+03  0.00000000000E+00 0.  1.
         21   -1    0    0  502  503 -0.00000000000E+00 -0.00000000000E+00 -0.14928148105E+04  0.14928148105E+04  0.00000000000E+00 0.  1.
    9000005    1    1    2  501    0  0.11242388699E+03  0.22421430165E+03 -0.22182052409E+03  0.52164693840E+03  0.40000000000E+03 0.  1.
   -9000005    1    1    2    0  503 -0.11242388699E+03 -0.22421430165E+03 -0.10713721002E+04  0.11707900583E+04  0.40000000000E+03 0.  1.
<mgrwt>
<rscale>  2 0.47213471E+03</rscale>
<asrwt>0</asrwt>
<pdfrwt beam="1">  1       21 0.30711106E-01 0.47213471E+03</pdfrwt>
<pdfrwt beam="2">  1       21 0.22966381E+00 0.47213471E+03</pdfrwt>
<totfact> 0.72748321E+02</totfact>
</mgrwt>
</event>
<event>
 4    1  0.4962426E-002  0.4742831E+03  0.7818608E-02  0.1020718E+00
         21   -1    0    0  501  502  0.00000000000E+00  0.00000000000E+00  0.34229839088E+03  0.34229839088E+03  0.00000000000E+00 0.  1.
         21   -1    0    0  502  503 -0.00000000000E+00 -0.00000000000E+00 -0.96745583304E+03  0.96745583304E+03  0.00000000000E+00 0.  1.
    9000005    1    1    2  501    0 -0.25001995267E+03  0.49340732792E+02  0.58300819550E+02  0.47785297970E+03  0.40000000000E+03 0.  1.
   -9000005    1    1    2    0  503  0.25001995267E+03 -0.49340732792E+02 -0.68345826171E+03  0.83190124422E+03  0.40000000000E+03 0.  1.
<mgrwt>
<rscale>  2 0.47428313E+03</rscale>
<asrwt>0</asrwt>
<pdfrwt beam="1">  1       21 0.52661291E-01 0.47428313E+03</pdfrwt>
<pdfrwt beam="2">  1       21 0.14883936E+00 0.47428313E+03</pdfrwt>
<totfact> 0.86978113E+02</totfact>
</mgrwt>
</event>
<event>
 4    1  0.4962426E-002  0.4881841E+03  0.7818608E-02  0.1016910E+00
         21   -1    0    0  501  502  0.00000000000E+00  0.00000000000E+00  0.30508168194E+03  0.30508168194E+03  0.00000000000E+00 0.  1.
         21   -1    0    0  502  503 -0.00000000000E+00 -0.00000000000E+00 -0.84544808617E+03  0.84544808617E+03  0.00000000000E+00 0. -1.
    9000005    1    1    2  501    0 -0.18491545197E+03  0.21007135052E+03 -0.11157625577E+03  0.50077236100E+03  0.40000000000E+03 0.  1.
   -9000005    1    1    2    0  503  0.18491545197E+03 -0.21007135052E+03 -0.42879014846E+03  0.64975740712E+03  0.40000000000E+03 0. -1.
<mgrwt>
<rscale>  2 0.48818408E+03</rscale>
<asrwt>0</asrwt>
<pdfrwt beam="1">  1       21 0.46935642E-01 0.48818408E+03</pdfrwt>
<pdfrwt beam="2">  1       21 0.13006894E+00 0.48818408E+03</pdfrwt>
<totfact> 0.15813864E+03</totfact>
</mgrwt>
</event>
<event>
 4    1  0.4962426E-002  0.4016916E+03  0.7818608E-02  0.1043196E+00
         21   -1    0    0  503  502  0.00000000000E+00  0.00000000000E+00  0.29385177073E+03  0.29385177073E+03  0.00000000000E+00 0.  1.
         21   -1    0    0  501  503 -0.00000000000E+00 -0.00000000000E+00 -0.61275859900E+03  0.61275859900E+03  0.00000000000E+00 0.  1.
    9000005    1    1    2  501    0  0.17107945342E+02  0.32610305840E+02 -0.30555336261E+03  0.50469691028E+03  0.40000000000E+03 0.  1.
   -9000005    1    1    2    0  502 -0.17107945342E+02 -0.32610305840E+02 -0.13353465664E+02  0.40191345945E+03  0.40000000000E+03 0.  1.
<mgrwt>
<rscale>  2 0.40169157E+03</rscale>
<asrwt>0</asrwt>
<pdfrwt beam="1">  1       21 0.45207965E-01 0.40169157E+03</pdfrwt>
<pdfrwt beam="2">  1       21 0.94270554E-01 0.40169157E+03</pdfrwt>
<totfact> 0.39396280E+03</totfact>
</mgrwt>
</event>
<event>
 4    1  0.4962426E-002  0.4219312E+03  0.7818608E-02  0.1036440E+00
         21   -1    0    0  503  502  0.00000000000E+00  0.00000000000E+00  0.35276825610E+03  0.35276825610E+03  0.00000000000E+00 0. -1.
         21   -1    0    0  501  503 -0.00000000000E+00 -0.00000000000E+00 -0.51606976642E+03  0.51606976642E+03  0.00000000000E+00 0. -1.
    9000005    1    1    2  501    0 -0.11970774231E+03 -0.60794925254E+02 -0.14626141643E+03  0.44656283818E+03  0.40000000000E+03 0. -1.
   -9000005    1    1    2    0  502  0.11970774231E+03  0.60794925254E+02 -0.17040093892E+02  0.42227518434E+03  0.40000000000E+03 0. -1.
<mgrwt>
<rscale>  2 0.42193123E+03</rscale>
<asrwt>0</asrwt>
<pdfrwt beam="1">  1       21 0.54272040E-01 0.42193123E+03</pdfrwt>
<pdfrwt beam="2">  1       21 0.79395348E-01 0.42193123E+03</pdfrwt>
<totfact> 0.39688935E+03</totfact>
</mgrwt>
</event>
<event>
 4    1  0.4962426E-002  0.4620787E+03  0.7818608E-02  0.1024180E+00
         21   -1    0    0  503  502  0.00000000000E+00  0.00000000000E+00  0.68511331486E+03  0.68511331486E+03  0.00000000000E+00 0.  1.
         21   -1    0    0  501  503 -0.00000000000E+00 -0.00000000000E+00 -0.35453348034E+03  0.35453348034E+03  0.00000000000E+00 0.  1.
    9000005    1    1    2  501    0  0.91478260323E+02  0.21248171994E+03 -0.15495510799E+02  0.46233847371E+03  0.40000000000E+03 0.  1.
   -9000005    1    1    2    0  502 -0.91478260323E+02 -0.21248171994E+03  0.34607534531E+03  0.57730832149E+03  0.40000000000E+03 0.  1.
<mgrwt>
<rscale>  2 0.46207873E+03</rscale>
<asrwt>0</asrwt>
<pdfrwt beam="1">  1       21 0.10540205E+00 0.46207873E+03</pdfrwt>
<pdfrwt beam="2">  1       21 0.54543612E-01 0.46207873E+03</pdfrwt>
<totfact> 0.19717959E+03</totfact>
</mgrwt>
</event>
<event>
 4    1  0.4962426E-002  0.4481859E+03  0.7818608E-02  0.1028264E+00
         21   -1    0    0  501  502  0.00000000000E+00  0.00000000000E+00  0.16334242293E+03  0.16334242293E+03  0.00000000000E+00 0.  1.
         21   -1    0    0  502  503 -0.00000000000E+00 -0.00000000000E+00 -0.12510790079E+04  0.12510790079E+04  0.00000000000E+00 0. -1.
    9000005    1    1    2  501    0 -0.16396512795E+02  0.20149868163E+03 -0.63620578890E+03  0.77822128612E+03  0.40000000000E+03 0. -1.
   -9000005    1    1    2    0  503  0.16396512795E+02 -0.20149868163E+03 -0.45153079607E+03  0.63620014471E+03  0.40000000000E+03 0.  1.
<mgrwt>
<rscale>  2 0.44818586E+03</rscale>
<asrwt>0</asrwt>
<pdfrwt beam="1">  1       21 0.25129603E-01 0.44818586E+03</pdfrwt>
<pdfrwt beam="2">  1       21 0.19247370E+00 0.44818586E+03</pdfrwt>
<totfact> 0.19091760E+03</totfact>
</mgrwt>
</event>
<event>
 4    1  0.4962426E-002  0.4583223E+03  0.7818608E-02  0.1025269E+00
         21   -1    0    0  501  502  0.00000000000E+00  0.00000000000E+00  0.78749745534E+03  0.78749745534E+03  0.00000000000E+00 0.  1.
         21   -1    0    0  502  503 -0.00000000000E+00 -0.00000000000E+00 -0.39308950370E+03  0.39308950370E+03  0.00000000000E+00 0. -1.
    9000005    1    1    2  501    0  0.25934657782E+02  0.22223133278E+03  0.53186413383E+03  0.70209602520E+03  0.40000000000E+03 0.  1.
   -9000005    1    1    2    0  503 -0.25934657782E+02 -0.22223133278E+03 -0.13745618220E+03  0.47849093384E+03  0.40000000000E+03 0. -1.
<mgrwt>
<rscale>  2 0.45832234E+03</rscale>
<asrwt>0</asrwt>
<pdfrwt beam="1">  1       21 0.12115345E+00 0.45832234E+03</pdfrwt>
<pdfrwt beam="2">  1       21 0.60475309E-01 0.45832234E+03</pdfrwt>
<totfact> 0.11136252E+03</totfact>
</mgrwt>
</event>
<event>
 4    1  0.4962426E-002  0.5039678E+03  0.7818608E-02  0.1012748E+00
         21   -1    0    0  503  502  0.00000000000E+00  0.00000000000E+00  0.19453589922E+04  0.19453589922E+04  0.00000000000E+00 0. -1.
         21   -1    0    0  501  503 -0.00000000000E+00 -0.00000000000E+00 -0.13178894978E+03  0.13178894978E+03  0.00000000000E+00 0.  1.
    9000005    1    1    2  501    0 -0.23072340955E+03  0.20186699592E+03  0.80644101514E+03  0.95096303117E+03  0.40000000000E+03 0. -1.
   -9000005    1    1    2    0  502  0.23072340955E+03 -0.20186699592E+03  0.10071290273E+04  0.11261849108E+04  0.40000000000E+03 0.  1.
<mgrwt>
<rscale>  2 0.50396783E+03</rscale>
<asrwt>0</asrwt>
<pdfrwt beam="1">  1       21 0.29928598E+00 0.50396783E+03</pdfrwt>
<pdfrwt beam="2">  1       21 0.20275225E-01 0.50396783E+03</pdfrwt>
<totfact> 0.60329294E+02</totfact>
</mgrwt>
</event>
<event>
 4    1  0.4962426E-002  0.5406013E+03  0.7818608E-02  0.1003693E+00
         21   -1    0    0  503  502  0.00000000000E+00  0.00000000000E+00  0.52996950207E+03  0.52996950207E+03  0.00000000000E+00 0. -1.
         21   -1    0    0  501  503 -0.00000000000E+00 -0.00000000000E+00 -0.82364855904E+03  0.82364855904E+03  0.00000000000E+00 0. -1.
    9000005    1    1    2  501    0  0.13289411321E+03 -0.33850984508E+03 -0.53592138227E+03  0.76122367837E+03  0.40000000000E+03 0. -1.
   -9000005    1    1    2    0  502 -0.13289411321E+03  0.33850984508E+03  0.24224232530E+03  0.59239438274E+03  0.40000000000E+03 0. -1.
<mgrwt>
<rscale>  2 0.54060130E+03</rscale>
<asrwt>0</asrwt>
<pdfrwt beam="1">  1       21 0.81533770E-01 0.54060130E+03</pdfrwt>
<pdfrwt beam="2">  1       21 0.12671516E+00 0.54060130E+03</pdfrwt>
<totfact> 0.48916135E+02</totfact>
</mgrwt>
</event>
<event>
 4    1  0.4962426E-002  0.5215609E+03  0.7818608E-02  0.1008300E+00
         21   -1    0    0  501  502  0.00000000000E+00  0.00000000000E+00  0.13438939544E+04  0.13438939544E+04  0.00000000000E+00 0. -1.
         21   -1    0    0  502  503 -0.00000000000E+00 -0.00000000000E+00 -0.22612358766E+03  0.22612358766E+03  0.00000000000E+00 0. -1.
    9000005    1    1    2  501    0 -0.33386901679E+03 -0.23605476137E+02  0.30470331062E+03  0.60404457317E+03  0.40000000000E+03 0. -1.
   -9000005    1    1    2    0  503  0.33386901679E+03  0.23605476137E+02  0.81306705609E+03  0.96597296886E+03  0.40000000000E+03 0. -1.
<mgrwt>
<rscale>  2 0.52156087E+03</rscale>
<asrwt>0</asrwt>
<pdfrwt beam="1">  1       21 0.20675291E+00 0.52156087E+03</pdfrwt>
<pdfrwt beam="2">  1       21 0.34788245E-01 0.52156087E+03</pdfrwt>
<totfact> 0.77856753E+02</totfact>
</mgrwt>
</event>
<event>
 4    1  0.4962426E-002  0.4465964E+03  0.7818608E-02  0.1028742E+00
         21   -1    0    0  503  502  0.00000000000E+00  0.00000000000E+00  0.10022887498E+04  0.10022887498E+04  0.00000000000E+00 0. -1.
         21   -1    0    0  501  503 -0.00000000000E+00 -0.00000000000E+00 -0.53536396366E+03  0.53536396366E+03  0.00000000000E+00 0.  1.
    9000005    1    1    2  501    0 -0.82980051342E+02 -0.18045113771E+03 -0.37595246415E+03  0.58377098020E+03  0.40000000000E+03 0.  1.
   -9000005    1    1    2    0  502  0.82980051342E+02  0.18045113771E+03  0.84287725032E+03  0.95388173331E+03  0.40000000000E+03 0. -1.
<mgrwt>
<rscale>  2 0.44659635E+03</rscale>
<asrwt>0</asrwt>
<pdfrwt beam="1">  1       21 0.15419827E+00 0.44659635E+03</pdfrwt>
<pdfrwt beam="2">  1       21 0.82363687E-01 0.44659635E+03</pdfrwt>
<totfact> 0.29494540E+02</totfact>
</mgrwt>
</event>
<event>
 4    1  0.4962426E-002  0.5681264E+03  0.7818608E-02  0.9973833E-01
         21   -1    0    0  501  502  0.00000000000E+00  0.00000000000E+00  0.55121646760E+03  0.55121646760E+03  0.00000000000E+00 0. -1.
         21   -1    0    0  502  503 -0.00000000000E+00 -0.00000000000E+00 -0.59089079817E+03  0.59089079817E+03  0.00000000000E+00 0.  1.
    9000005    1    1    2  501    0  0.33150648133E+03  0.22993715609E+03  0.34427454368E+02  0.56916859763E+03  0.40000000000E+03 0. -1.
   -9000005    1    1    2    0  503 -0.33150648133E+03 -0.22993715609E+03 -0.74101784931E+02  0.57293866814E+03  0.40000000000E+03 0.  1.
<mgrwt>
<rscale>  2 0.56812643E+03</rscale>
<asrwt>0</asrwt>
<pdfrwt beam="1">  1       21 0.84802534E-01 0.56812643E+03</pdfrwt>
<pdfrwt beam="2">  1       21 0.90906276E-01 0.56812643E+03</pdfrwt>
<totfact> 0.10088110E+03</totfact>
</mgrwt>
</event>
<event>
 4    1  0.4962426E-002  0.4632466E+03  0.7818608E-02  0.1023844E+00
         21   -1    0    0  501  502  0.00000000000E+00  0.00000000000E+00  0.20731224892E+03  0.20731224892E+03  0.00000000000E+00 0.  1.
         21   -1    0    0  502  503 -0.00000000000E+00 -0.00000000000E+00 -0.11364646000E+04  0.11364646000E+04  0.00000000000E+00 0.  1.
    9000005    1    1    2  501    0 -0.19606613761E+01 -0.23365273810E+03 -0.66519612677E+03  0.81060676859E+03  0.40000000000E+03 0.  1.
   -9000005    1    1    2    0  503  0.19606613761E+01  0.23365273810E+03 -0.26395622434E+03  0.53317008035E+03  0.40000000000E+03 0.  1.
<mgrwt>
<rscale>  2 0.46324664E+03</rscale>
<asrwt>0</asrwt>
<pdfrwt beam="1">  1       21 0.31894192E-01 0.46324664E+03</pdfrwt>
<pdfrwt beam="2">  1       21 0.17484071E+00 0.46324664E+03</pdfrwt>
<totfact> 0.15730749E+03</totfact>
</mgrwt>
</event>
<event>
 4    1  0.4962426E-002  0.4064970E+03  0.7818608E-02  0.1041553E+00
         21   -1    0    0  501  502  0.00000000000E+00  0.00000000000E+00  0.38694868374E+03  0.38694868374E+03  0.00000000000E+00 0.  1.
         21   -1    0    0  502  503 -0.00000000000E+00 -0.00000000000E+00 -0.47171049601E+03  0.47171049601E+03  0.00000000000E+00 0.  1.
    9000005    1    1    2  501    0  0.70534845266E+02  0.16268552546E+02  0.89747989153E+02  0.41628659810E+03  0.40000000000E+03 0.  1.
   -9000005    1    1    2    0  503 -0.70534845266E+02 -0.16268552546E+02 -0.17450980143E+03  0.44237258165E+03  0.40000000000E+03 0.  1.
<mgrwt>
<rscale>  2 0.40649702E+03</rscale>
<asrwt>0</asrwt>
<pdfrwt beam="1">  1       21 0.59530567E-01 0.40649702E+03</pdfrwt>
<pdfrwt beam="2">  1       21 0.72570845E-01 0.40649702E+03</pdfrwt>
<totfact> 0.40103261E+03</totfact>
</mgrwt>
</event>
<event>
 4    1  0.4962426E-002  0.5219772E+03  0.7818608E-02  0.1008197E+00
         21   -1    0    0  503  502  0.00000000000E+00  0.00000000000E+00  0.10668468046E+04  0.10668468046E+04  0.00000000000E+00 0.  1.
         21   -1    0    0  501  503 -0.00000000000E+00 -0.00000000000E+00 -0.41207935746E+03  0.41207935746E+03  0.00000000000E+00 0. -1.
    9000005    1    1    2  501    0 -0.18326617928E+03 -0.28084470984E+03 -0.12859870225E+03  0.53758522090E+03  0.40000000000E+03 0. -1.
   -9000005    1    1    2    0  502  0.18326617928E+03  0.28084470984E+03  0.78336614942E+03  0.94134094119E+03  0.40000000000E+03 0.  1.
<mgrwt>
<rscale>  2 0.52197724E+03</rscale>
<asrwt>0</asrwt>
<pdfrwt beam="1">  1       21 0.16413028E+00 0.52197724E+03</pdfrwt>
<pdfrwt beam="2">  1       21 0.63396825E-01 0.52197724E+03</pdfrwt>
<totfact> 0.43399635E+02</totfact>
</mgrwt>
</event>
<event>
 4    1  0.4962426E-002  0.4479751E+03  0.7818608E-02  0.1028328E+00
         21   -1    0    0  501  502  0.00000000000E+00  0.00000000000E+00  0.27468627054E+03  0.27468627054E+03  0.00000000000E+00 0.  1.
         21   -1    0    0  502  503 -0.00000000000E+00 -0.00000000000E+00 -0.77245744923E+03  0.77245744923E+03  0.00000000000E+00 0. -1.
    9000005    1    1    2  501    0 -0.19909419316E+03  0.32297885222E+02 -0.12698563788E+03  0.46562538952E+03  0.40000000000E+03 0.  1.
   -9000005    1    1    2    0  503  0.19909419316E+03 -0.32297885222E+02 -0.37078554082E+03  0.58151833025E+03  0.40000000000E+03 0. -1.
<mgrwt>
<rscale>  2 0.44797506E+03</rscale>
<asrwt>0</asrwt>
<pdfrwt beam="1">  1       21 0.42259426E-01 0.44797506E+03</pdfrwt>
<pdfrwt beam="2">  1       21 0.11883961E+00 0.44797506E+03</pdfrwt>
<totfact> 0.25222262E+03</totfact>
</mgrwt>
</event>
<event>
 4    1  0.4962426E-002  0.4198801E+03  0.7818608E-02  0.1037105E+00
         21   -1    0    0  501  502  0.00000000000E+00  0.00000000000E+00  0.74252734450E+02  0.74252734450E+02  0.00000000000E+00 0. -1.
         21   -1    0    0  502  503 -0.00000000000E+00 -0.00000000000E+00 -0.24304616606E+04  0.24304616606E+04  0.00000000000E+00 0. -1.
    9000005    1    1    2  501    0 -0.76303278424E+02 -0.10235780777E+03 -0.13684529569E+04  0.14314198568E+04  0.40000000000E+03 0. -1.
   -9000005    1    1    2    0  503  0.76303278424E+02  0.10235780777E+03 -0.98775596925E+03  0.10732945383E+04  0.40000000000E+03 0. -1.
<mgrwt>
<rscale>  2 0.41988012E+03</rscale>
<asrwt>0</asrwt>
<pdfrwt beam="1">  1       21 0.11423499E-01 0.41988012E+03</pdfrwt>
<pdfrwt beam="2">  1       21 0.37391715E+00 0.41988012E+03</pdfrwt>
<totfact> 0.64397385E+02</totfact>
</mgrwt>
</event>
<event>
 4    1  0.4962426E-002  0.4199359E+03  0.7818608E-02  0.1037087E+00
         21   -1    0    0  503  502  0.00000000000E+00  0.00000000000E+00  0.16898990023E+04  0.16898990023E+04  0.00000000000E+00 0.  1.
         21   -1    0    0  501  503 -0.00000000000E+00 -0.00000000000E+00 -0.13974299066E+03  0.13974299066E+03  0.00000000000E+00 0.  1.
    9000005    1    1    2  501    0 -0.16793402459E+02 -0.12674434723E+03  0.31470388232E+03  0.52477107529E+03  0.40000000000E+03 0.  1.
   -9000005    1    1    2    0  502  0.16793402459E+02  0.12674434723E+03  0.12354521294E+04  0.13048709177E+04  0.40000000000E+03 0.  1.
<mgrwt>
<rscale>  2 0.41993589E+03</rscale>
<asrwt>0</asrwt>
<pdfrwt beam="1">  1       21 0.25998445E+00 0.41993589E+03</pdfrwt>
<pdfrwt beam="2">  1       21 0.21498923E-01 0.41993589E+03</pdfrwt>
<totfact> 0.97353676E+02</totfact>
</mgrwt>
</event>
<event>
 4    1  0.4962426E-002  0.4247880E+03  0.7818608E-02  0.1035519E+00
         21   -1    0    0  501  502  0.00000000000E+00  0.00000000000E+00  0.45585630205E+03  0.45585630205E+03  0.00000000000E+00 0. -1.
         21   -1    0    0  502  503 -0.00000000000E+00 -0.00000000000E+00 -0.39779170113E+03  0.39779170113E+03  0.00000000000E+00 0. -1.
    9000005    1    1    2  501    0  0.27148218419E+02 -0.14038467579E+03 -0.88612626897E+00  0.42478896900E+03  0.40000000000E+03 0. -1.
   -9000005    1    1    2    0  503 -0.27148218419E+02  0.14038467579E+03  0.58950727189E+02  0.42885903418E+03  0.40000000000E+03 0. -1.
<mgrwt>
<rscale>  2 0.42478804E+03</rscale>
<asrwt>0</asrwt>
<pdfrwt beam="1">  1       21 0.70131739E-01 0.42478804E+03</pdfrwt>
<pdfrwt beam="2">  1       21 0.61198723E-01 0.42478804E+03</pdfrwt>
<totfact> 0.40501403E+03</totfact>
</mgrwt>
</event>
<event>
 4    1  0.4962426E-002  0.6276986E+03  0.7818608E-02  0.9849550E-01
         21   -1    0    0  503  502  0.00000000000E+00  0.00000000000E+00  0.64474432096E+03  0.64474432096E+03  0.00000000000E+00 0.  1.
         21   -1    0    0  501  503 -0.00000000000E+00 -0.00000000000E+00 -0.91605822735E+03  0.91605822735E+03  0.00000000000E+00 0.  1.
    9000005    1    1    2  501    0  0.47035761676E+03  0.11300092657E+03  0.31461420624E+03  0.70213075408E+03  0.40000000000E+03 0.  1.
   -9000005    1    1    2    0  502 -0.47035761676E+03 -0.11300092657E+03 -0.58592811263E+03  0.85867179424E+03  0.40000000000E+03 0.  1.
<mgrwt>
<rscale>  2 0.62769857E+03</rscale>
<asrwt>0</asrwt>
<pdfrwt beam="1">  1       21 0.99191435E-01 0.62769857E+03</pdfrwt>
<pdfrwt beam="2">  1       21 0.14093203E+00 0.62769857E+03</pdfrwt>
<totfact> 0.22436919E+02</totfact>
</mgrwt>
</event>
<event>
 4    1  0.4962426E-002  0.4095414E+03  0.7818608E-02  0.1040525E+00
         21   -1    0    0  503  502  0.00000000000E+00  0.00000000000E+00  0.15515044219E+04  0.15515044219E+04  0.00000000000E+00 0.  1.
         21   -1    0    0  501  503 -0.00000000000E+00 -0.00000000000E+00 -0.11997098283E+03  0.11997098283E+03  0.00000000000E+00 0.  1.
    9000005    1    1    2  501    0  0.87803594895E+02 -0.38307453200E+01  0.45292253941E+03  0.61062506712E+03  0.40000000000E+03 0.  1.
   -9000005    1    1    2    0  502 -0.87803594895E+02  0.38307453200E+01  0.97861089970E+03  0.10608503377E+04  0.40000000000E+03 0.  1.
<mgrwt>
<rscale>  2 0.40954138E+03</rscale>
<asrwt>0</asrwt>
<pdfrwt beam="1">  1       21 0.23869297E+00 0.40954138E+03</pdfrwt>
<pdfrwt beam="2">  1       21 0.18457075E-01 0.40954138E+03</pdfrwt>
<totfact> 0.17659359E+03</totfact>
</mgrwt>
</event>
<event>
 4    1  0.4962426E-002  0.4119105E+03  0.7818608E-02  0.1039732E+00
         21   -1    0    0  503  502  0.00000000000E+00  0.00000000000E+00  0.12326475698E+04  0.12326475698E+04  0.00000000000E+00 0. -1.
         21   -1    0    0  501  503 -0.00000000000E+00 -0.00000000000E+00 -0.18491522901E+03  0.18491522901E+03  0.00000000000E+00 0. -1.
    9000005    1    1    2  501    0 -0.64665252137E+02 -0.74085391307E+02  0.16551350633E+03  0.44391999371E+03  0.40000000000E+03 0.  1.
   -9000005    1    1    2    0  502  0.64665252137E+02  0.74085391307E+02  0.88221883450E+03  0.97364280513E+03  0.40000000000E+03 0.  1.
<mgrwt>
<rscale>  2 0.41191048E+03</rscale>
<asrwt>0</asrwt>
<pdfrwt beam="1">  1       21 0.18963808E+00 0.41191048E+03</pdfrwt>
<pdfrwt beam="2">  1       21 0.28448498E-01 0.41191048E+03</pdfrwt>
<totfact> 0.15909157E+03</totfact>
</mgrwt>
</event>
<event>
 4    1  0.4962426E-002  0.4226437E+03  0.7818608E-02  0.1036209E+00
         21   -1    0    0  501  502  0.00000000000E+00  0.00000000000E+00  0.10089612905E+04  0.10089612905E+04  0.00000000000E+00 0. -1.
         21   -1    0    0  502  503 -0.00000000000E+00 -0.00000000000E+00 -0.22814095644E+03  0.22814095644E+03  0.00000000000E+00 0. -1.
    9000005    1    1    2  501    0  0.10857481974E+03 -0.82699675806E+02  0.68315102619E+03  0.80332001870E+03  0.40000000000E+03 0. -1.
   -9000005    1    1    2    0  503 -0.10857481974E+03  0.82699675806E+02  0.97669307918E+02  0.43378222828E+03  0.40000000000E+03 0. -1.
<mgrwt>
<rscale>  2 0.42264374E+03</rscale>
<asrwt>0</asrwt>
<pdfrwt beam="1">  1       21 0.15522481E+00 0.42264374E+03</pdfrwt>
<pdfrwt beam="2">  1       21 0.35098609E-01 0.42264374E+03</pdfrwt>
<totfact> 0.18448011E+03</totfact>
</mgrwt>
</event>
<event>
 4    1  0.4962426E-002  0.6342341E+03  0.7818608E-02  0.9836821E-01
         21   -1    0    0  501  502  0.00000000000E+00  0.00000000000E+00  0.10388101783E+04  0.10388101783E+04  0.00000000000E+00 0. -1.
         21   -1    0    0  502  503 -0.00000000000E+00 -0.00000000000E+00 -0.52433585643E+03  0.52433585643E+03  0.00000000000E+00 0.  1.
    9000005    1    1    2  501    0 -0.42578015133E+01 -0.49217356463E+03  0.65690683427E+03  0.91311529146E+03  0.40000000000E+03 0. -1.
   -9000005    1    1    2    0  503  0.42578015133E+01  0.49217356463E+03 -0.14243251240E+03  0.65003074326E+03  0.40000000000E+03 0.  1.
<mgrwt>
<rscale>  2 0.63423414E+03</rscale>
<asrwt>0</asrwt>
<pdfrwt beam="1">  1       21 0.15981695E+00 0.63423414E+03</pdfrwt>
<pdfrwt beam="2">  1       21 0.80667055E-01 0.63423414E+03</pdfrwt>
<totfact> 0.25939491E+02</totfact>
</mgrwt>
</event>
<event>
 4    1  0.4962426E-002  0.4746136E+03  0.7818608E-02  0.1020626E+00
         21   -1    0    0  501  502  0.00000000000E+00  0.00000000000E+00  0.11838700266E+04  0.11838700266E+04  0.00000000000E+00 0. -1.
         21   -1    0    0  502  503 -0.00000000000E+00 -0.00000000000E+00 -0.21074406741E+03  0.21074406741E+03  0.00000000000E+00 0.  1.
    9000005    1    1    2  501    0 -0.24070320070E+03 -0.85557167319E+02  0.26923252988E+03  0.54565943119E+03  0.40000000000E+03 0. -1.
   -9000005    1    1    2    0  503  0.24070320070E+03  0.85557167319E+02  0.70389342934E+03  0.84895466285E+03  0.40000000000E+03 0. -1.
<mgrwt>
<rscale>  2 0.47461359E+03</rscale>
<asrwt>0</asrwt>
<pdfrwt beam="1">  1       21 0.18213385E+00 0.47461359E+03</pdfrwt>
<pdfrwt beam="2">  1       21 0.32422165E-01 0.47461359E+03</pdfrwt>
<totfact> 0.13447655E+03</totfact>
</mgrwt>
</event>
<event>
 4    1  0.4962426E-002  0.6849531E+03  0.7818608E-02  0.9743316E-01
         21   -1    0    0  501  502  0.00000000000E+00  0.00000000000E+00  0.18499950113E+03  0.18499950113E+03  0.00000000000E+00 0. -1.
         21   -1    0    0  502  503 -0.00000000000E+00 -0.00000000000E+00 -0.32068548318E+04  0.32068548318E+04  0.00000000000E+00 0.  1.
    9000005    1    1    2  501    0 -0.33287136460E+03 -0.44537337151E+03 -0.73525545053E+03  0.10048688287E+04  0.40000000000E+03 0.  1.
   -9000005    1    1    2    0  503  0.33287136460E+03  0.44537337151E+03 -0.22865998801E+04  0.23869855042E+04  0.40000000000E+03 0. -1.
<mgrwt>
<rscale>  2 0.68495313E+03</rscale>
<asrwt>0</asrwt>
<pdfrwt beam="1">  1       21 0.28461463E-01 0.68495313E+03</pdfrwt>
<pdfrwt beam="2">  1       21 0.49336225E+00 0.68495313E+03</pdfrwt>
<totfact> 0.15640596E+01</totfact>
</mgrwt>
</event>
<event>
 4    1  0.4962426E-002  0.4882474E+03  0.7818608E-02  0.1016893E+00
         21   -1    0    0  503  502  0.00000000000E+00  0.00000000000E+00  0.20231984820E+03  0.20231984820E+03  0.00000000000E+00 0. -1.
         21   -1    0    0  501  503 -0.00000000000E+00 -0.00000000000E+00 -0.11853861895E+04  0.11853861895E+04  0.00000000000E+00 0. -1.
    9000005    1    1    2  501    0 -0.18922304576E+03 -0.20634971293E+03 -0.54532781144E+03  0.73196173876E+03  0.40000000000E+03 0. -1.
   -9000005    1    1    2    0  502  0.18922304576E+03  0.20634971293E+03 -0.43773852985E+03  0.65574429894E+03  0.40000000000E+03 0. -1.
<mgrwt>
<rscale>  2 0.48824744E+03</rscale>
<asrwt>0</asrwt>
<pdfrwt beam="1">  1       21 0.31126130E-01 0.48824744E+03</pdfrwt>
<pdfrwt beam="2">  1       21 0.18236711E+00 0.48824744E+03</pdfrwt>
<totfact> 0.14457329E+03</totfact>
</mgrwt>
</event>
<event>
 4    1  0.4962426E-002  0.4856280E+03  0.7818608E-02  0.1017600E+00
         21   -1    0    0  503  502  0.00000000000E+00  0.00000000000E+00  0.20491117629E+04  0.20491117629E+04  0.00000000000E+00 0.  1.
         21   -1    0    0  501  503 -0.00000000000E+00 -0.00000000000E+00 -0.11671617123E+03  0.11671617123E+03  0.00000000000E+00 0.  1.
    9000005    1    1    2  501    0  0.23386926265E+03 -0.14539493223E+03  0.83841711659E+03  0.96890545448E+03  0.40000000000E+03 0.  1.
   -9000005    1    1    2    0  502 -0.23386926265E+03  0.14539493223E+03  0.10939784751E+04  0.11969224796E+04  0.40000000000E+03 0.  1.
<mgrwt>
<rscale>  2 0.48562796E+03</rscale>
<asrwt>0</asrwt>
<pdfrwt beam="1">  1       21 0.31524794E+00 0.48562796E+03</pdfrwt>
<pdfrwt beam="2">  1       21 0.17956336E-01 0.48562796E+03</pdfrwt>
<totfact> 0.61411246E+02</totfact>
</mgrwt>
</event>
<event>
 4    1  0.4962426E-002  0.4427865E+03  0.7818608E-02  0.1029895E+00
         21   -1    0    0  503  502  0.00000000000E+00  0.00000000000E+00  0.93804345318E+02  0.93804345318E+02  0.00000000000E+00 0.  1.
         21   -1    0    0  501  503 -0.00000000000E+00 -0.00000000000E+00 -0.30205315800E+04  0.30205315800E+04  0.00000000000E+00 0.  1.
    9000005    1    1    2  501    0 -0.77899941854E+02  0.17318059964E+03 -0.23276095356E+04  0.23693514031E+04  0.40000000000E+03 0.  1.
   -9000005    1    1    2    0  502  0.77899941854E+02 -0.17318059964E+03 -0.59911769909E+03  0.74498452225E+03  0.40000000000E+03 0.  1.
<mgrwt>
<rscale>  2 0.44278654E+03</rscale>
<asrwt>0</asrwt>
<pdfrwt beam="1">  1       21 0.14431435E-01 0.44278654E+03</pdfrwt>
<pdfrwt beam="2">  1       21 0.46469726E+00 0.44278654E+03</pdfrwt>
<totfact> 0.10520483E+02</totfact>
</mgrwt>
</event>
<event>
 4    1  0.4962426E-002  0.5688506E+03  0.7818608E-02  0.9972225E-01
         21   -1    0    0  503  502  0.00000000000E+00  0.00000000000E+00  0.27837020755E+03  0.27837020755E+03  0.00000000000E+00 0. -1.
         21   -1    0    0  501  503 -0.00000000000E+00 -0.00000000000E+00 -0.13957994321E+04  0.13957994321E+04  0.00000000000E+00 0.  1.
    9000005    1    1    2  501    0  0.32185937133E+03  0.24494404324E+03 -0.90097977546E+03  0.10655306636E+04  0.40000000000E+03 0.  1.
   -9000005    1    1    2    0  502 -0.32185937133E+03 -0.24494404324E+03 -0.21644944914E+03  0.60863897613E+03  0.40000000000E+03 0.  1.
<mgrwt>
<rscale>  2 0.56885063E+03</rscale>
<asrwt>0</asrwt>
<pdfrwt beam="1">  1       21 0.42826185E-01 0.56885063E+03</pdfrwt>
<pdfrwt beam="2">  1       21 0.21473838E+00 0.56885063E+03</pdfrwt>
<totfact> 0.44141145E+02</totfact>
</mgrwt>
</event>
<event>
 4    1  0.4962426E-002  0.4165338E+03  0.7818608E-02  0.1038200E+00
         21   -1    0    0  503  502  0.00000000000E+00  0.00000000000E+00  0.10677083747E+03  0.10677083747E+03  0.00000000000E+00 0.  1.
         21   -1    0    0  501  503 -0.00000000000E+00 -0.00000000000E+00 -0.20009274199E+04  0.20009274199E+04  0.00000000000E+00 0.  1.
    9000005    1    1    2  501    0  0.39308321944E+02 -0.10934026159E+03 -0.14038787543E+04  0.14643688039E+04  0.40000000000E+03 0.  1.
   -9000005    1    1    2    0  502 -0.39308321944E+02  0.10934026159E+03 -0.49027782813E+03  0.64332945349E+03  0.40000000000E+03 0.  1.
<mgrwt>
<rscale>  2 0.41653384E+03</rscale>
<asrwt>0</asrwt>
<pdfrwt beam="1">  1       21 0.16426283E-01 0.41653384E+03</pdfrwt>
<pdfrwt beam="2">  1       21 0.30783499E+00 0.41653384E+03</pdfrwt>
<totfact> 0.83623666E+02</totfact>
</mgrwt>
</event>
<event>
 4    1  0.4962426E-002  0.5269587E+03  0.7818608E-02  0.1006972E+00
         21   -1    0    0  503  502  0.00000000000E+00  0.00000000000E+00  0.29449676137E+04  0.29449676137E+04  0.00000000000E+00 0. -1.
         21   -1    0    0  501  503 -0.00000000000E+00 -0.00000000000E+00 -0.12891349432E+03  0.12891349432E+03  0.00000000000E+00 0.  1.
    9000005    1    1    2  501    0 -0.33042661041E+03 -0.92215842122E+02  0.22045232868E+04  0.22666293099E+04  0.40000000000E+03 0. -1.
   -9000005    1    1    2    0  502  0.33042661041E+03  0.92215842122E+02  0.61153083261E+03  0.80725179816E+03  0.40000000000E+03 0.  1.
<mgrwt>
<rscale>  2 0.52695873E+03</rscale>
<asrwt>0</asrwt>
<pdfrwt beam="1">  1       21 0.45307189E+00 0.52695873E+03</pdfrwt>
<pdfrwt beam="2">  1       21 0.19832848E-01 0.52695873E+03</pdfrwt>
<totfact> 0.65780130E+01</totfact>
</mgrwt>
</event>
<event>
 4    1  0.4962426E-002  0.4708677E+03  0.7818608E-02  0.1021676E+00
         21   -1    0    0  501  502  0.00000000000E+00  0.00000000000E+00  0.11482389239E+04  0.11482389239E+04  0.00000000000E+00 0. -1.
         21   -1    0    0  502  503 -0.00000000000E+00 -0.00000000000E+00 -0.21798784542E+03  0.21798784542E+03  0.00000000000E+00 0. -1.
    9000005    1    1    2  501    0  0.10952546290E+03  0.22298098883E+03  0.69597855445E+03  0.84029905192E+03  0.40000000000E+03 0. -1.
   -9000005    1    1    2    0  503 -0.10952546290E+03 -0.22298098883E+03  0.23427252400E+03  0.52592771738E+03  0.40000000000E+03 0. -1.
<mgrwt>
<rscale>  2 0.47086765E+03</rscale>
<asrwt>0</asrwt>
<pdfrwt beam="1">  1       21 0.17665214E+00 0.47086765E+03</pdfrwt>
<pdfrwt beam="2">  1       21 0.33536592E-01 0.47086765E+03</pdfrwt>
<totfact> 0.13759651E+03</totfact>
</mgrwt>
</event>
<event>
 4    1  0.4962426E-002  0.5015988E+03  0.7818608E-02  0.1013362E+00
         21   -1    0    0  503  502  0.00000000000E+00  0.00000000000E+00  0.89680962172E+03  0.89680962172E+03  0.00000000000E+00 0. -1.
         21   -1    0    0  501  503 -0.00000000000E+00 -0.00000000000E+00 -0.69202037543E+03  0.69202037543E+03  0.00000000000E+00 0. -1.
    9000005    1    1    2  501    0 -0.15291330871E+03 -0.26118740003E+03 -0.51017641182E+03  0.71545881020E+03  0.40000000000E+03 0. -1.
   -9000005    1    1    2    0  502  0.15291330871E+03  0.26118740003E+03  0.71496565812E+03  0.87337118695E+03  0.40000000000E+03 0. -1.
<mgrwt>
<rscale>  2 0.50159878E+03</rscale>
<asrwt>0</asrwt>
<pdfrwt beam="1">  1       21 0.13797071E+00 0.50159878E+03</pdfrwt>
<pdfrwt beam="2">  1       21 0.10646467E+00 0.50159878E+03</pdfrwt>
<totfact> 0.20970121E+02</totfact>
</mgrwt>
</event>
<event>
 4    1  0.4962426E-002  0.4573206E+03  0.7818608E-02  0.1025561E+00
         21   -1    0    0  503  502  0.00000000000E+00  0.00000000000E+00  0.28085720205E+03  0.28085720205E+03  0.00000000000E+00 0. -1.
         21   -1    0    0  501  503 -0.00000000000E+00 -0.00000000000E+00 -0.75188939826E+03  0.75188939826E+03  0.00000000000E+00 0. -1.
    9000005    1    1    2  501    0  0.16244045476E+03  0.15084848958E+03 -0.18487068923E+03  0.49327410219E+03  0.40000000000E+03 0. -1.
   -9000005    1    1    2    0  502 -0.16244045476E+03 -0.15084848958E+03 -0.28616150698E+03  0.53947249812E+03  0.40000000000E+03 0. -1.
<mgrwt>
<rscale>  2 0.45732064E+03</rscale>
<asrwt>0</asrwt>
<pdfrwt beam="1">  1       21 0.43208802E-01 0.45732064E+03</pdfrwt>
<pdfrwt beam="2">  1       21 0.11567529E+00 0.45732064E+03</pdfrwt>
<totfact> 0.25685423E+03</totfact>
</mgrwt>
</event>
<event>
 4    1  0.4962426E-002  0.4133474E+03  0.7818608E-02  0.1039253E+00
         21   -1    0    0  503  502  0.00000000000E+00  0.00000000000E+00  0.57180761019E+03  0.57180761019E+03  0.00000000000E+00 0.  1.
         21   -1    0    0  501  503 -0.00000000000E+00 -0.00000000000E+00 -0.41202971897E+03  0.41202971897E+03  0.00000000000E+00 0.  1.
    9000005    1    1    2  501    0 -0.74702432330E+02  0.72633579843E+02 -0.17798610363E+03  0.45003904653E+03  0.40000000000E+03 0.  1.
   -9000005    1    1    2    0  502  0.74702432330E+02 -0.72633579843E+02  0.33776399485E+03  0.53379828263E+03  0.40000000000E+03 0.  1.
<mgrwt>
<rscale>  2 0.41334742E+03</rscale>
<asrwt>0</asrwt>
<pdfrwt beam="1">  1       21 0.87970401E-01 0.41334742E+03</pdfrwt>
<pdfrwt beam="2">  1       21 0.63389188E-01 0.41334742E+03</pdfrwt>
<totfact> 0.22358872E+03</totfact>
</mgrwt>
</event>
<event>
 4    1  0.4962426E-002  0.4133482E+03  0.7818608E-02  0.1039253E+00
         21   -1    0    0  501  502  0.00000000000E+00  0.00000000000E+00  0.18940519058E+04  0.18940519058E+04  0.00000000000E+00 0.  1.
         21   -1    0    0  502  503 -0.00000000000E+00 -0.00000000000E+00 -0.10659642667E+03  0.10659642667E+03  0.00000000000E+00 0.  1.
    9000005    1    1    2  501    0 -0.57909935973E+02  0.86620966754E+02  0.50148832481E+03  0.64988252207E+03  0.40000000000E+03 0.  1.
   -9000005    1    1    2    0  503  0.57909935973E+02 -0.86620966754E+02  0.12859671543E+04  0.13507658104E+04  0.40000000000E+03 0.  1.
<mgrwt>
<rscale>  2 0.41334822E+03</rscale>
<asrwt>0</asrwt>
<pdfrwt beam="1">  1       21 0.29139258E+00 0.41334822E+03</pdfrwt>
<pdfrwt beam="2">  1       21 0.16399452E-01 0.41334822E+03</pdfrwt>
<totfact> 0.10543046E+03</totfact>
</mgrwt>
</event>
<event>
 4    1  0.4962426E-002  0.6656591E+03  0.7818608E-02  0.9777832E-01
         21   -1    0    0  501  502  0.00000000000E+00  0.00000000000E+00  0.55148838589E+03  0.55148838589E+03  0.00000000000E+00 0.  1.
         21   -1    0    0  502  503 -0.00000000000E+00 -0.00000000000E+00 -0.14260136626E+04  0.14260136626E+04  0.00000000000E+00 0.  1.
    9000005    1    1    2  501    0 -0.51851229953E+03  0.11936087138E+03  0.21603561690E+03  0.69983813139E+03  0.40000000000E+03 0.  1.
   -9000005    1    1    2    0  503  0.51851229953E+03 -0.11936087138E+03 -0.10905608936E+04  0.12776639171E+04  0.40000000000E+03 0.  1.
<mgrwt>
<rscale>  2 0.66565909E+03</rscale>
<asrwt>0</asrwt>
<pdfrwt beam="1">  1       21 0.84844369E-01 0.66565909E+03</pdfrwt>
<pdfrwt beam="2">  1       21 0.21938671E+00 0.66565909E+03</pdfrwt>
<totfact> 0.87292940E+01</totfact>
</mgrwt>
</event>
<event>
 4    1  0.4962426E-002  0.6204229E+03  0.7818608E-02  0.9863918E-01
         21   -1    0    0  501  502  0.00000000000E+00  0.00000000000E+00  0.12652127877E+04  0.12652127877E+04  0.00000000000E+00 0.  1.
         21   -1    0    0  502  503 -0.00000000000E+00 -0.00000000000E+00 -0.31067392927E+03  0.31067392927E+03  0.00000000000E+00 0.  1.
    9000005    1    1    2  501    0 -0.20533072080E+02  0.47381749088E+03  0.36385198389E+03  0.71924466484E+03  0.40000000000E+03 0.  1.
   -9000005    1    1    2    0  503  0.20533072080E+02 -0.47381749088E+03  0.59068687451E+03  0.85664205210E+03  0.40000000000E+03 0.  1.
<mgrwt>
<rscale>  2 0.62042294E+03</rscale>
<asrwt>0</asrwt>
<pdfrwt beam="1">  1       21 0.19464812E+00 0.62042294E+03</pdfrwt>
<pdfrwt beam="2">  1       21 0.47795990E-01 0.62042294E+03</pdfrwt>
<totfact> 0.46791384E+02</totfact>
</mgrwt>
</event>
<event>
 4    1  0.4962426E-002  0.6542988E+03  0.7818608E-02  0.9798746E-01
         21   -1    0    0  503  502  0.00000000000E+00  0.00000000000E+00  0.22574075505E+03  0.22574075505E+03  0.00000000000E+00 0. -1.
         21   -1    0    0  501  503 -0.00000000000E+00 -0.00000000000E+00 -0.32344133730E+04  0.32344133730E+04  0.00000000000E+00 0.  1.
    9000005    1    1    2  501    0 -0.27814825596E+03 -0.43673840012E+03 -0.26170647895E+04  0.26976165396E+04  0.40000000000E+03 0.  1.
   -9000005    1    1    2    0  502  0.27814825596E+03  0.43673840012E+03 -0.39160782844E+03  0.76253758840E+03  0.40000000000E+03 0. -1.
<mgrwt>
<rscale>  2 0.65429877E+03</rscale>
<asrwt>0</asrwt>
<pdfrwt beam="1">  1       21 0.34729346E-01 0.65429877E+03</pdfrwt>
<pdfrwt beam="2">  1       21 0.49760207E+00 0.65429877E+03</pdfrwt>
<totfact> 0.99239139E+00</totfact>
</mgrwt>
</event>
<event>
 4    1  0.4962426E-002  0.4055277E+03  0.7818608E-02  0.1041882E+00
         21   -1    0    0  501  502  0.00000000000E+00  0.00000000000E+00  0.77800739790E+03  0.77800739790E+03  0.00000000000E+00 0. -1.
         21   -1    0    0  502  503 -0.00000000000E+00 -0.00000000000E+00 -0.21679860482E+03  0.21679860482E+03  0.00000000000E+00 0. -1.
    9000005    1    1    2  501    0  0.62779043868E+02  0.22617286943E+02  0.20194506470E+03  0.45302821013E+03  0.40000000000E+03 0. -1.
   -9000005    1    1    2    0  503 -0.62779043868E+02 -0.22617286943E+02  0.35926372838E+03  0.54177779259E+03  0.40000000000E+03 0. -1.
<mgrwt>
<rscale>  2 0.40552774E+03</rscale>
<asrwt>0</asrwt>
<pdfrwt beam="1">  1       21 0.11969344E+00 0.40552774E+03</pdfrwt>
<pdfrwt beam="2">  1       21 0.33353632E-01 0.40552774E+03</pdfrwt>
<totfact> 0.40795566E+03</totfact>
</mgrwt>
</event>
<event>
 4    1  0.4962426E-002  0.4361585E+03  0.7818608E-02  0.1031932E+00
         21   -1    0    0  501  502  0.00000000000E+00  0.00000000000E+00  0.92713552500E+03  0.92713552500E+03  0.00000000000E+00 0.  1.
         21   -1    0    0  502  503 -0.00000000000E+00 -0.00000000000E+00 -0.25199351833E+03  0.25199351833E+03  0.00000000000E+00 0.  1.
    9000005    1    1    2  501    0  0.15300229529E+03  0.82610515132E+02  0.59166805100E+03  0.73505461168E+03  0.40000000000E+03 0.  1.
   -9000005    1    1    2    0  503 -0.15300229529E+03 -0.82610515132E+02  0.83473955667E+02  0.44407443165E+03  0.40000000000E+03 0.  1.
<mgrwt>
<rscale>  2 0.43615846E+03</rscale>
<asrwt>0</asrwt>
<pdfrwt beam="1">  1       21 0.14263623E+00 0.43615846E+03</pdfrwt>
<pdfrwt beam="2">  1       21 0.38768234E-01 0.43615846E+03</pdfrwt>
<totfact> 0.18835109E+03</totfact>
</mgrwt>
</event>
<event>
 4    1  0.4962426E-002  0.4419728E+03  0.7818608E-02  0.1030143E+00
         21   -1    0    0  501  502  0.00000000000E+00  0.00000000000E+00  0.89512678345E+02  0.89512678345E+02  0.00000000000E+00 0. -1.
         21   -1    0    0  502  503 -0.00000000000E+00 -0.00000000000E+00 -0.30162627614E+04  0.30162627614E+04  0.00000000000E+00 0.  1.
    9000005    1    1    2  501    0 -0.48306789092E+02 -0.18167658661E+03 -0.64681289915E+03  0.78339444375E+03  0.40000000000E+03 0. -1.
   -9000005    1    1    2    0  503  0.48306789092E+02  0.18167658661E+03 -0.22799371839E+04  0.23223809960E+04  0.40000000000E+03 0.  1.
<mgrwt>
<rscale>  2 0.44197277E+03</rscale>
<asrwt>0</asrwt>
<pdfrwt beam="1">  1       21 0.13771180E-01 0.44197277E+03</pdfrwt>
<pdfrwt beam="2">  1       21 0.46404045E+00 0.44197277E+03</pdfrwt>
<totfact> 0.11596676E+02</totfact>
</mgrwt>
</event>
<event>
 4    1  0.4962426E-002  0.4591085E+03  0.7818608E-02  0.1025040E+00
         21   -1    0    0  501  502  0.00000000000E+00  0.00000000000E+00  0.31502627821E+03  0.31502627821E+03  0.00000000000E+00 0. -1.
         21   -1    0    0  502  503 -0.00000000000E+00 -0.00000000000E+00 -0.11428654736E+04  0.11428654736E+04  0.00000000000E+00 0. -1.
    9000005    1    1    2  501    0  0.91825592130E+02 -0.20578793217E+03  0.55417063809E+02  0.46244098365E+03  0.40000000000E+03 0. -1.
   -9000005    1    1    2    0  503 -0.91825592130E+02  0.20578793217E+03 -0.88325625920E+03  0.99545076815E+03  0.40000000000E+03 0. -1.
<mgrwt>
<rscale>  2 0.45910850E+03</rscale>
<asrwt>0</asrwt>
<pdfrwt beam="1">  1       21 0.48465582E-01 0.45910850E+03</pdfrwt>
<pdfrwt beam="2">  1       21 0.17582546E+00 0.45910850E+03</pdfrwt>
<totfact> 0.65547510E+02</totfact>
</mgrwt>
</event>
<event>
 4    1  0.4962426E-002  0.7114689E+03  0.7818608E-02  0.9697817E-01
         21   -1    0    0  501  502  0.00000000000E+00  0.00000000000E+00  0.45380977092E+03  0.45380977092E+03  0.00000000000E+00 0. -1.
         21   -1    0    0  502  503 -0.00000000000E+00 -0.00000000000E+00 -0.16207124636E+04  0.16207124636E+04  0.00000000000E+00 0.  1.
    9000005    1    1    2  501    0 -0.52820756658E+03  0.25920020063E+03 -0.42800734833E+01  0.71148176114E+03  0.40000000000E+03 0. -1.
   -9000005    1    1    2    0  503  0.52820756658E+03 -0.25920020063E+03 -0.11626226192E+04  0.13630404734E+04  0.40000000000E+03 0.  1.
<mgrwt>
<rscale>  2 0.71146889E+03</rscale>
<asrwt>0</asrwt>
<pdfrwt beam="1">  1       21 0.69816890E-01 0.71146889E+03</pdfrwt>
<pdfrwt beam="2">  1       21 0.24934037E+00 0.71146889E+03</pdfrwt>
<totfact> 0.86791631E+01</totfact>
</mgrwt>
</event>
<event>
 4    1  0.4962426E-002  0.4358373E+03  0.7818608E-02  0.1032032E+00
         21   -1    0    0  503  502  0.00000000000E+00  0.00000000000E+00  0.23114118741E+03  0.23114118741E+03  0.00000000000E+00 0. -1.
         21   -1    0    0  501  503 -0.00000000000E+00 -0.00000000000E+00 -0.87165316124E+03  0.87165316124E+03  0.00000000000E+00 0.  1.
    9000005    1    1    2  501    0 -0.16577445536E+03 -0.49729400759E+02 -0.45211039070E+03  0.62797929005E+03  0.40000000000E+03 0.  1.
   -9000005    1    1    2    0  502  0.16577445536E+03  0.49729400759E+02 -0.18840158312E+03  0.47481505860E+03  0.40000000000E+03 0. -1.
<mgrwt>
<rscale>  2 0.43583734E+03</rscale>
<asrwt>0</asrwt>
<pdfrwt beam="1">  1       21 0.35560183E-01 0.43583734E+03</pdfrwt>
<pdfrwt beam="2">  1       21 0.13410049E+00 0.43583734E+03</pdfrwt>
<totfact> 0.26444438E+03</totfact>
</mgrwt>
</event>
<event>
 4    1  0.4962426E-002  0.4077276E+03  0.7818608E-02  0.1041136E+00
         21   -1    0    0  501  502  0.00000000000E+00  0.00000000000E+00  0.97742627870E+03  0.97742627870E+03  0.00000000000E+00 0. -1.
         21   -1    0    0  502  503 -0.00000000000E+00 -0.00000000000E+00 -0.44356909390E+03  0.44356909390E+03  0.00000000000E+00 0. -1.
    9000005    1    1    2  501    0 -0.75519877321E+02 -0.23206866999E+02  0.82482183543E+03  0.92009394670E+03  0.40000000000E+03 0. -1.
   -9000005    1    1    2    0  503  0.75519877321E+02  0.23206866999E+02 -0.29096465064E+03  0.50090142590E+03  0.40000000000E+03 0. -1.
<mgrwt>
<rscale>  2 0.40772762E+03</rscale>
<asrwt>0</asrwt>
<pdfrwt beam="1">  1       21 0.15037327E+00 0.40772762E+03</pdfrwt>
<pdfrwt beam="2">  1       21 0.68241399E-01 0.40772762E+03</pdfrwt>
<totfact> 0.49440817E+02</totfact>
</mgrwt>
</event>
<event>
 4    1  0.4962426E-002  0.5531909E+03  0.7818608E-02  0.1000758E+00
         21   -1    0    0  501  502  0.00000000000E+00  0.00000000000E+00  0.15717046614E+04  0.15717046614E+04  0.00000000000E+00 0. -1.
         21   -1    0    0  502  503 -0.00000000000E+00 -0.00000000000E+00 -0.21434817454E+03  0.21434817454E+03  0.00000000000E+00 0.  1.
    9000005    1    1    2  501    0 -0.26019644953E+03 -0.27985345466E+03  0.94901211032E+03  0.10984735472E+04  0.40000000000E+03 0. -1.
   -9000005    1    1    2    0  503  0.26019644953E+03  0.27985345466E+03  0.40834437659E+03  0.68757928875E+03  0.40000000000E+03 0.  1.
<mgrwt>
<rscale>  2 0.55319088E+03</rscale>
<asrwt>0</asrwt>
<pdfrwt beam="1">  1       21 0.24180071E+00 0.55319088E+03</pdfrwt>
<pdfrwt beam="2">  1       21 0.32976643E-01 0.55319088E+03</pdfrwt>
<totfact> 0.51054806E+02</totfact>
</mgrwt>
</event>
<event>
 4    1  0.4962426E-002  0.4985823E+03  0.7818608E-02  0.1014150E+00
         21   -1    0    0  501  502  0.00000000000E+00  0.00000000000E+00  0.29822144624E+03  0.29822144624E+03  0.00000000000E+00 0.  1.
         21   -1    0    0  502  503 -0.00000000000E+00 -0.00000000000E+00 -0.87089263021E+03  0.87089263021E+03  0.00000000000E+00 0.  1.
    9000005    1    1    2  501    0 -0.77209463822E+02 -0.28744209838E+03 -0.16530018624E+03  0.52526984760E+03  0.40000000000E+03 0. -1.
   -9000005    1    1    2    0  503  0.77209463822E+02  0.28744209838E+03 -0.40737099773E+03  0.64384422885E+03  0.40000000000E+03 0. -1.
<mgrwt>
<rscale>  2 0.49858225E+03</rscale>
<asrwt>0</asrwt>
<pdfrwt beam="1">  1       21 0.45880223E-01 0.49858225E+03</pdfrwt>
<pdfrwt beam="2">  1       21 0.13398348E+00 0.49858225E+03</pdfrwt>
<totfact> 0.15296714E+03</totfact>
</mgrwt>
</event>
<event>
 4    1  0.4962426E-002  0.4765747E+03  0.7818608E-02  0.1020081E+00
         21   -1    0    0  503  502  0.00000000000E+00  0.00000000000E+00  0.31130920734E+03  0.31130920734E+03  0.00000000000E+00 0. -1.
         21   -1    0    0  501  503 -0.00000000000E+00 -0.00000000000E+00 -0.91285150506E+03  0.91285150506E+03  0.00000000000E+00 0. -1.
    9000005    1    1    2  501    0 -0.82740069364E+02  0.24551477310E+03 -0.57503068730E+03  0.74684919108E+03  0.40000000000E+03 0. -1.
   -9000005    1    1    2    0  502  0.82740069364E+02 -0.24551477310E+03 -0.26511610418E+02  0.47731152131E+03  0.40000000000E+03 0. -1.
<mgrwt>
<rscale>  2 0.47657468E+03</rscale>
<asrwt>0</asrwt>
<pdfrwt beam="1">  1       21 0.47893725E-01 0.47657468E+03</pdfrwt>
<pdfrwt beam="2">  1       21 0.14043869E+00 0.47657468E+03</pdfrwt>
<totfact> 0.12438120E+03</totfact>
</mgrwt>
</event>
<event>
 4    1  0.4962426E-002  0.4475668E+03  0.7818608E-02  0.1028450E+00
         21   -1    0    0  501  502  0.00000000000E+00  0.00000000000E+00  0.50312106228E+03  0.50312106228E+03  0.00000000000E+00 0.  1.
         21   -1    0    0  502  503 -0.00000000000E+00 -0.00000000000E+00 -0.10317830371E+04  0.10317830371E+04  0.00000000000E+00 0. -1.
    9000005    1    1    2  501    0 -0.22825527332E+02 -0.19948695244E+03  0.33708789075E+03  0.56030732191E+03  0.40000000000E+03 0.  1.
   -9000005    1    1    2    0  503  0.22825527332E+02  0.19948695244E+03 -0.86574986554E+03  0.97459677742E+03  0.40000000000E+03 0. -1.
<mgrwt>
<rscale>  2 0.44756681E+03</rscale>
<asrwt>0</asrwt>
<pdfrwt beam="1">  1       21 0.77403241E-01 0.44756681E+03</pdfrwt>
<pdfrwt beam="2">  1       21 0.15873585E+00 0.44756681E+03</pdfrwt>
<totfact> 0.31407553E+02</totfact>
</mgrwt>
</event>
<event>
 4    1  0.4962426E-002  0.4490802E+03  0.7818608E-02  0.1027997E+00
         21   -1    0    0  501  502  0.00000000000E+00  0.00000000000E+00  0.11445840093E+04  0.11445840093E+04  0.00000000000E+00 0.  1.
         21   -1    0    0  502  503 -0.00000000000E+00 -0.00000000000E+00 -0.17632524052E+03  0.17632524052E+03  0.00000000000E+00 0.  1.
    9000005    1    1    2  501    0 -0.49866971935E+02 -0.19795526127E+03  0.46636241866E+03  0.64743100473E+03  0.40000000000E+03 0.  1.
   -9000005    1    1    2    0  503  0.49866971935E+02  0.19795526127E+03  0.50189635016E+03  0.67347824513E+03  0.40000000000E+03 0.  1.
<mgrwt>
<rscale>  2 0.44908017E+03</rscale>
<asrwt>0</asrwt>
<pdfrwt beam="1">  1       21 0.17608984E+00 0.44908017E+03</pdfrwt>
<pdfrwt beam="2">  1       21 0.27126961E-01 0.44908017E+03</pdfrwt>
<totfact> 0.21367886E+03</totfact>
</mgrwt>
</event>
<event>
 4    1  0.4962426E-002  0.6185556E+03  0.7818608E-02  0.9867640E-01
         21   -1    0    0  503  502  0.00000000000E+00  0.00000000000E+00  0.91673834244E+03  0.91673834244E+03  0.00000000000E+00 0.  1.
         21   -1    0    0  501  503 -0.00000000000E+00 -0.00000000000E+00 -0.42737480165E+03  0.42737480165E+03  0.00000000000E+00 0.  1.
    9000005    1    1    2  501    0  0.26129916360E+03  0.39285335969E+03  0.34755361363E+03  0.70951006298E+03  0.40000000000E+03 0.  1.
   -9000005    1    1    2    0  502 -0.26129916360E+03 -0.39285335969E+03  0.14180992716E+03  0.63460308111E+03  0.40000000000E+03 0.  1.
<mgrwt>
<rscale>  2 0.61855559E+03</rscale>
<asrwt>0</asrwt>
<pdfrwt beam="1">  1       21 0.14103667E+00 0.61855559E+03</pdfrwt>
<pdfrwt beam="2">  1       21 0.65749970E-01 0.61855559E+03</pdfrwt>
<totfact> 0.58688779E+02</totfact>
</mgrwt>
</event>
<event>
 4    1  0.4962426E-002  0.4779757E+03  0.7818608E-02  0.1019693E+00
         21   -1    0    0  501  502  0.00000000000E+00  0.00000000000E+00  0.17032941301E+03  0.17032941301E+03  0.00000000000E+00 0.  1.
         21   -1    0    0  502  503 -0.00000000000E+00 -0.00000000000E+00 -0.13594105525E+04  0.13594105525E+04  0.00000000000E+00 0. -1.
    9000005    1    1    2  501    0  0.19713097608E+03  0.17204695518E+03 -0.50622780655E+03  0.69622364844E+03  0.40000000000E+03 0. -1.
   -9000005    1    1    2    0  503 -0.19713097608E+03 -0.17204695518E+03 -0.68285333298E+03  0.83351631710E+03  0.40000000000E+03 0. -1.
<mgrwt>
<rscale>  2 0.47797571E+03</rscale>
<asrwt>0</asrwt>
<pdfrwt beam="1">  1       21 0.26204526E-01 0.47797571E+03</pdfrwt>
<pdfrwt beam="2">  1       21 0.20914008E+00 0.47797571E+03</pdfrwt>
<totfact> 0.13448495E+03</totfact>
</mgrwt>
</event>
<event>
 4    1  0.4962426E-002  0.4628805E+03  0.7818608E-02  0.1023949E+00
         21   -1    0    0  501  502  0.00000000000E+00  0.00000000000E+00  0.26930823563E+03  0.26930823563E+03  0.00000000000E+00 0.  1.
         21   -1    0    0  502  503 -0.00000000000E+00 -0.00000000000E+00 -0.80655218238E+03  0.80655218238E+03  0.00000000000E+00 0.  1.
    9000005    1    1    2  501    0  0.16849678692E+03  0.16083291283E+03 -0.33134086529E+03  0.56924964828E+03  0.40000000000E+03 0. -1.
   -9000005    1    1    2    0  503 -0.16849678692E+03 -0.16083291283E+03 -0.20590308145E+03  0.50661076973E+03  0.40000000000E+03 0. -1.
<mgrwt>
<rscale>  2 0.46288054E+03</rscale>
<asrwt>0</asrwt>
<pdfrwt beam="1">  1       21 0.41432037E-01 0.46288054E+03</pdfrwt>
<pdfrwt beam="2">  1       21 0.12408495E+00 0.46288054E+03</pdfrwt>
<totfact> 0.23402344E+03</totfact>
</mgrwt>
</event>
<event>
 4    1  0.4962426E-002  0.4359460E+03  0.7818608E-02  0.1031998E+00
         21   -1    0    0  503  502  0.00000000000E+00  0.00000000000E+00  0.29368955848E+03  0.29368955848E+03  0.00000000000E+00 0. -1.
         21   -1    0    0  501  503 -0.00000000000E+00 -0.00000000000E+00 -0.83054411154E+03  0.83054411154E+03  0.00000000000E+00 0.  1.
    9000005    1    1    2  501    0  0.17240393402E+03  0.18050278983E+02 -0.53259964593E+03  0.68826689001E+03  0.40000000000E+03 0.  1.
   -9000005    1    1    2    0  502 -0.17240393402E+03 -0.18050278983E+02 -0.42549071245E+01  0.43596678001E+03  0.40000000000E+03 0. -1.
<mgrwt>
<rscale>  2 0.43594602E+03</rscale>
<asrwt>0</asrwt>
<pdfrwt beam="1">  1       21 0.45183009E-01 0.43594602E+03</pdfrwt>
<pdfrwt beam="2">  1       21 0.12777602E+00 0.43594602E+03</pdfrwt>
<totfact> 0.18304528E+03</totfact>
</mgrwt>
</event>
<event>
 4    1  0.4962426E-002  0.5534538E+03  0.7818608E-02  0.1000698E+00
         21   -1    0    0  503  502  0.00000000000E+00  0.00000000000E+00  0.40509498379E+03  0.40509498379E+03  0.00000000000E+00 0. -1.
         21   -1    0    0  501  503 -0.00000000000E+00 -0.00000000000E+00 -0.12185113205E+04  0.12185113205E+04  0.00000000000E+00 0. -1.
    9000005    1    1    2  501    0  0.35913554742E+02  0.38081661753E+03 -0.90677543452E+03  0.10623336426E+04  0.40000000000E+03 0. -1.
   -9000005    1    1    2    0  502 -0.35913554742E+02 -0.38081661753E+03  0.93359097806E+02  0.56127266168E+03  0.40000000000E+03 0. -1.
<mgrwt>
<rscale>  2 0.55345377E+03</rscale>
<asrwt>0</asrwt>
<pdfrwt beam="1">  1       21 0.62322305E-01 0.55345377E+03</pdfrwt>
<pdfrwt beam="2">  1       21 0.18746328E+00 0.55345377E+03</pdfrwt>
<totfact> 0.30235090E+02</totfact>
</mgrwt>
</event>
<event>
 4    1  0.4962426E-002  0.4836491E+03  0.7818608E-02  0.1018137E+00
         21   -1    0    0  501  502  0.00000000000E+00  0.00000000000E+00  0.13830150870E+03  0.13830150870E+03  0.00000000000E+00 0. -1.
         21   -1    0    0  502  503 -0.00000000000E+00 -0.00000000000E+00 -0.19058375033E+04  0.19058375033E+04  0.00000000000E+00 0. -1.
    9000005    1    1    2  501    0  0.17428949471E+03 -0.20866143318E+03 -0.54089184012E+03  0.72558969423E+03  0.40000000000E+03 0. -1.
   -9000005    1    1    2    0  503 -0.17428949471E+03  0.20866143318E+03 -0.12266441545E+04  0.13185493178E+04  0.40000000000E+03 0. -1.
<mgrwt>
<rscale>  2 0.48364907E+03</rscale>
<asrwt>0</asrwt>
<pdfrwt beam="1">  1       21 0.21277157E-01 0.48364907E+03</pdfrwt>
<pdfrwt beam="2">  1       21 0.29320575E+00 0.48364907E+03</pdfrwt>
<totfact> 0.60477133E+02</totfact>
</mgrwt>
</event>
<event>
 4    1  0.4962426E-002  0.5417582E+03  0.7818608E-02  0.1003420E+00
         21   -1    0    0  501  502  0.00000000000E+00  0.00000000000E+00  0.10616688838E+04  0.10616688838E+04  0.00000000000E+00 0. -1.
         21   -1    0    0  502  503 -0.00000000000E+00 -0.00000000000E+00 -0.38622848308E+03  0.38622848308E+03  0.00000000000E+00 0.  1.
    9000005    1    1    2  501    0 -0.14268492770E+03  0.33636731075E+03  0.72367598192E+03  0.90399606368E+03  0.40000000000E+03 0. -1.
   -9000005    1    1    2    0  503  0.14268492770E+03 -0.33636731075E+03 -0.48235581201E+02  0.54390130320E+03  0.40000000000E+03 0.  1.
<mgrwt>
<rscale>  2 0.54175821E+03</rscale>
<asrwt>0</asrwt>
<pdfrwt beam="1">  1       21 0.16333367E+00 0.54175821E+03</pdfrwt>
<pdfrwt beam="2">  1       21 0.59419767E-01 0.54175821E+03</pdfrwt>
<totfact> 0.50375794E+02</totfact>
</mgrwt>
</event>
<event>
 4    1  0.4962426E-002  0.4164817E+03  0.7818608E-02  0.1038218E+00
         21   -1    0    0  501  502  0.00000000000E+00  0.00000000000E+00  0.32039111722E+03  0.32039111722E+03  0.00000000000E+00 0. -1.
         21   -1    0    0  502  503 -0.00000000000E+00 -0.00000000000E+00 -0.89360965451E+03  0.89360965451E+03  0.00000000000E+00 0. -1.
    9000005    1    1    2  501    0  0.11376840342E+02 -0.11544502986E+03  0.94474969823E+02  0.42706265037E+03  0.40000000000E+03 0. -1.
   -9000005    1    1    2    0  503 -0.11376840342E+02  0.11544502986E+03 -0.66769350711E+03  0.78693812136E+03  0.40000000000E+03 0. -1.
<mgrwt>
<rscale>  2 0.41648168E+03</rscale>
<asrwt>0</asrwt>
<pdfrwt beam="1">  1       21 0.49290941E-01 0.41648168E+03</pdfrwt>
<pdfrwt beam="2">  1       21 0.13747841E+00 0.41648168E+03</pdfrwt>
<totfact> 0.12698766E+03</totfact>
</mgrwt>
</event>
<event>
 4    1  0.4962426E-002  0.5380110E+03  0.7818608E-02  0.1004308E+00
         21   -1    0    0  501  502  0.00000000000E+00  0.00000000000E+00  0.45712827580E+03  0.45712827580E+03  0.00000000000E+00 0.  1.
         21   -1    0    0  502  503 -0.00000000000E+00 -0.00000000000E+00 -0.78506583310E+03  0.78506583310E+03  0.00000000000E+00 0. -1.
    9000005    1    1    2  501    0 -0.25539958352E+03  0.25343019272E+03  0.10919910194E+03  0.54898110506E+03  0.40000000000E+03 0.  1.
   -9000005    1    1    2    0  503  0.25539958352E+03 -0.25343019272E+03 -0.43713665924E+03  0.69321300384E+03  0.40000000000E+03 0. -1.
<mgrwt>
<rscale>  2 0.53801098E+03</rscale>
<asrwt>0</asrwt>
<pdfrwt beam="1">  1       21 0.70327429E-01 0.53801098E+03</pdfrwt>
<pdfrwt beam="2">  1       21 0.12077936E+00 0.53801098E+03</pdfrwt>
<totfact> 0.77803765E+02</totfact>
</mgrwt>
</event>
<event>
 4    1  0.4962426E-002  0.6028545E+03  0.7818608E-02  0.9899501E-01
         21   -1    0    0  503  502  0.00000000000E+00  0.00000000000E+00  0.11117677570E+04  0.11117677570E+04  0.00000000000E+00 0. -1.
         21   -1    0    0  501  503 -0.00000000000E+00 -0.00000000000E+00 -0.65081322426E+03  0.65081322426E+03  0.00000000000E+00 0. -1.
    9000005    1    1    2  501    0 -0.45871302182E+02 -0.44869743467E+03 -0.39126048515E+03  0.71869209783E+03  0.40000000000E+03 0. -1.
   -9000005    1    1    2    0  502  0.45871302182E+02  0.44869743467E+03  0.85221501793E+03  0.10438888835E+04  0.40000000000E+03 0. -1.
<mgrwt>
<rscale>  2 0.60285451E+03</rscale>
<asrwt>0</asrwt>
<pdfrwt beam="1">  1       21 0.17104119E+00 0.60285451E+03</pdfrwt>
<pdfrwt beam="2">  1       21 0.10012511E+00 0.60285451E+03</pdfrwt>
<totfact> 0.12907913E+02</totfact>
</mgrwt>
</event>
<event>
 4    1  0.4962426E-002  0.4159708E+03  0.7818608E-02  0.1038386E+00
         21   -1    0    0  503  502  0.00000000000E+00  0.00000000000E+00  0.54279717309E+03  0.54279717309E+03  0.00000000000E+00 0. -1.
         21   -1    0    0  501  503 -0.00000000000E+00 -0.00000000000E+00 -0.34224862976E+03  0.34224862976E+03  0.00000000000E+00 0. -1.
    9000005    1    1    2  501    0 -0.42134343506E+02  0.10609606942E+03  0.21615982039E+03  0.46878219548E+03  0.40000000000E+03 0. -1.
   -9000005    1    1    2    0  502  0.42134343506E+02 -0.10609606942E+03 -0.15611277054E+02  0.41626360737E+03  0.40000000000E+03 0. -1.
<mgrwt>
<rscale>  2 0.41597077E+03</rscale>
<asrwt>0</asrwt>
<pdfrwt beam="1">  1       21 0.83507257E-01 0.41597077E+03</pdfrwt>
<pdfrwt beam="2">  1       21 0.52653635E-01 0.41597077E+03</pdfrwt>
<totfact> 0.37763354E+03</totfact>
</mgrwt>
</event>
<event>
 4    1  0.4962426E-002  0.4065248E+03  0.7818608E-02  0.1041543E+00
         21   -1    0    0  503  502  0.00000000000E+00  0.00000000000E+00  0.19867335824E+03  0.19867335824E+03  0.00000000000E+00 0. -1.
         21   -1    0    0  501  503 -0.00000000000E+00 -0.00000000000E+00 -0.11710440659E+04  0.11710440659E+04  0.00000000000E+00 0. -1.
    9000005    1    1    2  501    0 -0.48950566946E+02 -0.53537433692E+02 -0.85478204854E+03  0.94652774144E+03  0.40000000000E+03 0. -1.
   -9000005    1    1    2    0  502  0.48950566946E+02  0.53537433692E+02 -0.11758865915E+03  0.42318968273E+03  0.40000000000E+03 0. -1.
<mgrwt>
<rscale>  2 0.40652480E+03</rscale>
<asrwt>0</asrwt>
<pdfrwt beam="1">  1       21 0.30565132E-01 0.40652480E+03</pdfrwt>
<pdfrwt beam="2">  1       21 0.18016063E+00 0.40652480E+03</pdfrwt>
<totfact> 0.16092699E+03</totfact>
</mgrwt>
</event>
<event>
 4    1  0.4962426E-002  0.6394406E+03  0.7818608E-02  0.9826797E-01
         21   -1    0    0  501  502  0.00000000000E+00  0.00000000000E+00  0.62695175551E+03  0.62695175551E+03  0.00000000000E+00 0. -1.
         21   -1    0    0  502  503 -0.00000000000E+00 -0.00000000000E+00 -0.73636450090E+03  0.73636450090E+03  0.00000000000E+00 0.  1.
    9000005    1    1    2  501    0 -0.20965923797E+03 -0.45268896532E+03  0.17577763363E+03  0.66316066822E+03  0.40000000000E+03 0. -1.
   -9000005    1    1    2    0  503  0.20965923797E+03  0.45268896532E+03 -0.28519037902E+03  0.70015558819E+03  0.40000000000E+03 0.  1.
<mgrwt>
<rscale>  2 0.63944061E+03</rscale>
<asrwt>0</asrwt>
<pdfrwt beam="1">  1       21 0.96454116E-01 0.63944061E+03</pdfrwt>
<pdfrwt beam="2">  1       21 0.11328685E+00 0.63944061E+03</pdfrwt>
<totfact> 0.42235386E+02</totfact>
</mgrwt>
</event>
<event>
 4    1  0.4962426E-002  0.4190062E+03  0.7818608E-02  0.1037390E+00
         21   -1    0    0  501  502  0.00000000000E+00  0.00000000000E+00  0.14336252419E+03  0.14336252419E+03  0.00000000000E+00 0.  1.
         21   -1    0    0  502  503 -0.00000000000E+00 -0.00000000000E+00 -0.13146797309E+04  0.13146797309E+04  0.00000000000E+00 0. -1.
    9000005    1    1    2  501    0  0.98088042685E+02  0.77103467945E+02 -0.39486288055E+03  0.57574551959E+03  0.40000000000E+03 0.  1.
   -9000005    1    1    2    0  503 -0.98088042685E+02 -0.77103467945E+02 -0.77645432617E+03  0.88229673552E+03  0.40000000000E+03 0. -1.
<mgrwt>
<rscale>  2 0.41900622E+03</rscale>
<asrwt>0</asrwt>
<pdfrwt beam="1">  1       21 0.22055773E-01 0.41900622E+03</pdfrwt>
<pdfrwt beam="2">  1       21 0.20225842E+00 0.41900622E+03</pdfrwt>
<totfact> 0.21393794E+03</totfact>
</mgrwt>
</event>
<event>
 4    1  0.4962426E-002  0.4736473E+03  0.7818608E-02  0.1020896E+00
         21   -1    0    0  501  502  0.00000000000E+00  0.00000000000E+00  0.25100098575E+03  0.25100098575E+03  0.00000000000E+00 0.  1.
         21   -1    0    0  502  503 -0.00000000000E+00 -0.00000000000E+00 -0.98771818184E+03  0.98771818184E+03  0.00000000000E+00 0.  1.
    9000005    1    1    2  501    0  0.10142560783E+03  0.23249648623E+03 -0.55935623292E+03  0.73295372660E+03  0.40000000000E+03 0.  1.
   -9000005    1    1    2    0  503 -0.10142560783E+03 -0.23249648623E+03 -0.17736096317E+03  0.50576544098E+03  0.40000000000E+03 0.  1.
<mgrwt>
<rscale>  2 0.47364731E+03</rscale>
<asrwt>0</asrwt>
<pdfrwt beam="1">  1       21 0.38615535E-01 0.47364731E+03</pdfrwt>
<pdfrwt beam="2">  1       21 0.15195665E+00 0.47364731E+03</pdfrwt>
<totfact> 0.15766337E+03</totfact>
</mgrwt>
</event>
<event>
 4    1  0.4962426E-002  0.4007340E+03  0.7818608E-02  0.1043526E+00
         21   -1    0    0  503  502  0.00000000000E+00  0.00000000000E+00  0.55603229491E+03  0.55603229491E+03  0.00000000000E+00 0. -1.
         21   -1    0    0  501  503 -0.00000000000E+00 -0.00000000000E+00 -0.32452983254E+03  0.32452983254E+03  0.00000000000E+00 0. -1.
    9000005    1    1    2  501    0  0.23155783387E+02 -0.71786162841E+01 -0.30317417170E+02  0.40187917167E+03  0.40000000000E+03 0. -1.
   -9000005    1    1    2    0  502 -0.23155783387E+02  0.71786162841E+01  0.26181987955E+03  0.47868295579E+03  0.40000000000E+03 0. -1.
<mgrwt>
<rscale>  2 0.40073398E+03</rscale>
<asrwt>0</asrwt>
<pdfrwt beam="1">  1       21 0.85543429E-01 0.40073398E+03</pdfrwt>
<pdfrwt beam="2">  1       21 0.49927667E-01 0.40073398E+03</pdfrwt>
<totfact> 0.40214911E+03</totfact>
</mgrwt>
</event>
<event>
 4    1  0.4962426E-002  0.4262365E+03  0.7818608E-02  0.1035055E+00
         21   -1    0    0  503  502  0.00000000000E+00  0.00000000000E+00  0.16104375304E+04  0.16104375304E+04  0.00000000000E+00 0.  1.
         21   -1    0    0  501  503 -0.00000000000E+00 -0.00000000000E+00 -0.14310753548E+03  0.14310753548E+03  0.00000000000E+00 0.  1.
    9000005    1    1    2  501    0  0.13937033631E+03  0.47470853426E+02  0.33026023336E+03  0.53921182693E+03  0.40000000000E+03 0.  1.
   -9000005    1    1    2    0  502 -0.13937033631E+03 -0.47470853426E+02  0.11370697616E+04  0.12143332390E+04  0.40000000000E+03 0.  1.
<mgrwt>
<rscale>  2 0.42623652E+03</rscale>
<asrwt>0</asrwt>
<pdfrwt beam="1">  1       21 0.24775961E+00 0.42623652E+03</pdfrwt>
<pdfrwt beam="2">  1       21 0.22016545E-01 0.42623652E+03</pdfrwt>
<totfact> 0.11008925E+03</totfact>
</mgrwt>
</event>
<event>
 4    1  0.4962426E-002  0.4100690E+03  0.7818608E-02  0.1040348E+00
         21   -1    0    0  503  502  0.00000000000E+00  0.00000000000E+00  0.67891745673E+03  0.67891745673E+03  0.00000000000E+00 0. -1.
         21   -1    0    0  501  503 -0.00000000000E+00 -0.00000000000E+00 -0.64968827156E+03  0.64968827156E+03  0.00000000000E+00 0. -1.
    9000005    1    1    2  501    0 -0.65361685385E+02  0.62325105378E+02 -0.50793712756E+03  0.65280678170E+03  0.40000000000E+03 0. -1.
   -9000005    1    1    2    0  502  0.65361685385E+02 -0.62325105378E+02  0.53716631274E+03  0.67579894659E+03  0.40000000000E+03 0. -1.
<mgrwt>
<rscale>  2 0.41006898E+03</rscale>
<asrwt>0</asrwt>
<pdfrwt beam="1">  1       21 0.10444884E+00 0.41006898E+03</pdfrwt>
<pdfrwt beam="2">  1       21 0.99952042E-01 0.41006898E+03</pdfrwt>
<totfact> 0.51873202E+02</totfact>
</mgrwt>
</event>
<event>
 4    1  0.4962426E-002  0.4549548E+03  0.7818608E-02  0.1026255E+00
         21   -1    0    0  503  502  0.00000000000E+00  0.00000000000E+00  0.15724157349E+04  0.15724157349E+04  0.00000000000E+00 0.  1.
         21   -1    0    0  501  503 -0.00000000000E+00 -0.00000000000E+00 -0.14436583003E+03  0.14436583003E+03  0.00000000000E+00 0. -1.
    9000005    1    1    2  501    0 -0.12614737678E+03  0.17626879529E+03  0.96893860295E+03  0.10704325598E+04  0.40000000000E+03 0.  1.
   -9000005    1    1    2    0  502  0.12614737678E+03 -0.17626879529E+03  0.45911130195E+03  0.64634900513E+03  0.40000000000E+03 0. -1.
<mgrwt>
<rscale>  2 0.45495478E+03</rscale>
<asrwt>0</asrwt>
<pdfrwt beam="1">  1       21 0.24191010E+00 0.45495478E+03</pdfrwt>
<pdfrwt beam="2">  1       21 0.22210129E-01 0.45495478E+03</pdfrwt>
<totfact> 0.11595798E+03</totfact>
</mgrwt>
</event>
<event>
 4    1  0.4962426E-002  0.4352397E+03  0.7818608E-02  0.1032217E+00
         21   -1    0    0  501  502  0.00000000000E+00  0.00000000000E+00  0.60946492185E+03  0.60946492185E+03  0.00000000000E+00 0. -1.
         21   -1    0    0  502  503 -0.00000000000E+00 -0.00000000000E+00 -0.36944284561E+03  0.36944284561E+03  0.00000000000E+00 0. -1.
    9000005    1    1    2  501    0 -0.14335161996E+03 -0.94254325671E+02 -0.74961548969E+02  0.44164782200E+03  0.40000000000E+03 0. -1.
   -9000005    1    1    2    0  503  0.14335161996E+03  0.94254325671E+02  0.31498362520E+03  0.53725994546E+03  0.40000000000E+03 0. -1.
<mgrwt>
<rscale>  2 0.43523966E+03</rscale>
<asrwt>0</asrwt>
<pdfrwt beam="1">  1       21 0.93763834E-01 0.43523966E+03</pdfrwt>
<pdfrwt beam="2">  1       21 0.56837361E-01 0.43523966E+03</pdfrwt>
<totfact> 0.24200858E+03</totfact>
</mgrwt>
</event>
<event>
 4    1  0.4962426E-002  0.5668113E+03  0.7818608E-02  0.9976760E-01
         21   -1    0    0  503  502  0.00000000000E+00  0.00000000000E+00  0.51909091366E+03  0.51909091366E+03  0.00000000000E+00 0.  1.
         21   -1    0    0  501  503 -0.00000000000E+00 -0.00000000000E+00 -0.13305040001E+04  0.13305040001E+04  0.00000000000E+00 0.  1.
    9000005    1    1    2  501    0  0.39127000848E+03 -0.90459303547E+02 -0.10820261840E+04  0.12214973467E+04  0.40000000000E+03 0.  1.
   -9000005    1    1    2    0  502 -0.39127000848E+03  0.90459303547E+02  0.27061309759E+03  0.62809756704E+03  0.40000000000E+03 0.  1.
<mgrwt>
<rscale>  2 0.56681135E+03</rscale>
<asrwt>0</asrwt>
<pdfrwt beam="1">  1       21 0.79860143E-01 0.56681135E+03</pdfrwt>
<pdfrwt beam="2">  1       21 0.20469292E+00 0.56681135E+03</pdfrwt>
<totfact> 0.13084982E+02</totfact>
</mgrwt>
</event>
<event>
 4    1  0.4962426E-002  0.5059690E+03  0.7818608E-02  0.1012233E+00
         21   -1    0    0  501  502  0.00000000000E+00  0.00000000000E+00  0.34890108510E+03  0.34890108510E+03  0.00000000000E+00 0.  1.
         21   -1    0    0  502  503 -0.00000000000E+00 -0.00000000000E+00 -0.90720348258E+03  0.90720348258E+03  0.00000000000E+00 0.  1.
    9000005    1    1    2  501    0  0.12282585115E+02 -0.30960262045E+03 -0.55377642947E+03  0.75011531002E+03  0.40000000000E+03 0.  1.
   -9000005    1    1    2    0  503 -0.12282585115E+02  0.30960262045E+03 -0.45259680098E+01  0.50598925766E+03  0.40000000000E+03 0.  1.
<mgrwt>
<rscale>  2 0.50596902E+03</rscale>
<asrwt>0</asrwt>
<pdfrwt beam="1">  1       21 0.53677091E-01 0.50596902E+03</pdfrwt>
<pdfrwt beam="2">  1       21 0.13956977E+00 0.50596902E+03</pdfrwt>
<totfact> 0.98019641E+02</totfact>
</mgrwt>
</event>
<event>
 4    1  0.4962426E-002  0.5235337E+03  0.7818608E-02  0.1007812E+00
         21   -1    0    0  503  502  0.00000000000E+00  0.00000000000E+00  0.51520071761E+03  0.51520071761E+03  0.00000000000E+00 0. -1.
         21   -1    0    0  501  503 -0.00000000000E+00 -0.00000000000E+00 -0.53337016504E+03  0.53337016504E+03  0.00000000000E+00 0.  1.
    9000005    1    1    2  501    0  0.23054512069E+03  0.24685315827E+03  0.17474062892E+02  0.52382523545E+03  0.40000000000E+03 0.  1.
   -9000005    1    1    2    0  502 -0.23054512069E+03 -0.24685315827E+03 -0.35643510323E+02  0.52474564719E+03  0.40000000000E+03 0.  1.
<mgrwt>
<rscale>  2 0.52353370E+03</rscale>
<asrwt>0</asrwt>
<pdfrwt beam="1">  1       21 0.79261650E-01 0.52353370E+03</pdfrwt>
<pdfrwt beam="2">  1       21 0.82056948E-01 0.52353370E+03</pdfrwt>
<totfact> 0.15257562E+03</totfact>
</mgrwt>
</event>
<event>
 4    1  0.4962426E-002  0.4417217E+03  0.7818608E-02  0.1030220E+00
         21   -1    0    0  503  502  0.00000000000E+00  0.00000000000E+00  0.96100944668E+02  0.96100944668E+02  0.00000000000E+00 0. -1.
         21   -1    0    0  501  503 -0.00000000000E+00 -0.00000000000E+00 -0.20959744229E+04  0.20959744229E+04  0.00000000000E+00 0. -1.
    9000005    1    1    2  501    0 -0.91869625821E+02 -0.16333402485E+03 -0.11938837945E+04  0.12729793975E+04  0.40000000000E+03 0. -1.
   -9000005    1    1    2    0  502  0.91869625821E+02  0.16333402485E+03 -0.80598968379E+03  0.91909597007E+03  0.40000000000E+03 0. -1.
<mgrwt>
<rscale>  2 0.44172167E+03</rscale>
<asrwt>0</asrwt>
<pdfrwt beam="1">  1       21 0.14784761E-01 0.44172167E+03</pdfrwt>
<pdfrwt beam="2">  1       21 0.32245759E+00 0.44172167E+03</pdfrwt>
<totfact> 0.81853068E+02</totfact>
</mgrwt>
</event>
<event>
 4    1  0.4962426E-002  0.4309550E+03  0.7818608E-02  0.1033559E+00
         21   -1    0    0  501  502  0.00000000000E+00  0.00000000000E+00  0.16861748179E+03  0.16861748179E+03  0.00000000000E+00 0.  1.
         21   -1    0    0  502  503 -0.00000000000E+00 -0.00000000000E+00 -0.11051045915E+04  0.11051045915E+04  0.00000000000E+00 0. -1.
    9000005    1    1    2  501    0 -0.16038025152E+03 -0.59330174183E+00 -0.43157386050E+03  0.60990013457E+03  0.40000000000E+03 0.  1.
   -9000005    1    1    2    0  503  0.16038025152E+03  0.59330174183E+00 -0.50491324919E+03  0.66382193869E+03  0.40000000000E+03 0.  1.
<mgrwt>
<rscale>  2 0.43095496E+03</rscale>
<asrwt>0</asrwt>
<pdfrwt beam="1">  1       21 0.25941152E-01 0.43095496E+03</pdfrwt>
<pdfrwt beam="2">  1       21 0.17001608E+00 0.43095496E+03</pdfrwt>
<totfact> 0.25983782E+03</totfact>
</mgrwt>
</event>
<event>
 4    1  0.4962426E-002  0.4069738E+03  0.7818608E-02  0.1041391E+00
         21   -1    0    0  503  502  0.00000000000E+00  0.00000000000E+00  0.48271570442E+03  0.48271570442E+03  0.00000000000E+00 0. -1.
         21   -1    0    0  501  503 -0.00000000000E+00 -0.00000000000E+00 -0.35218234743E+03  0.35218234743E+03  0.00000000000E+00 0. -1.
    9000005    1    1    2  501    0  0.19838143505E+02  0.72347161575E+02 -0.17104931746E+01  0.40697738207E+03  0.40000000000E+03 0. -1.
   -9000005    1    1    2    0  502 -0.19838143505E+02 -0.72347161575E+02  0.13224385016E+03  0.42792066979E+03  0.40000000000E+03 0. -1.
<mgrwt>
<rscale>  2 0.40697379E+03</rscale>
<asrwt>0</asrwt>
<pdfrwt beam="1">  1       21 0.74263955E-01 0.40697379E+03</pdfrwt>
<pdfrwt beam="2">  1       21 0.54181899E-01 0.40697379E+03</pdfrwt>
<totfact> 0.46661376E+03</totfact>
</mgrwt>
</event>
<event>
 4    1  0.4962426E-002  0.5025493E+03  0.7818608E-02  0.1013116E+00
         21   -1    0    0  501  502  0.00000000000E+00  0.00000000000E+00  0.18821563269E+04  0.18821563269E+04  0.00000000000E+00 0.  1.
         21   -1    0    0  502  503 -0.00000000000E+00 -0.00000000000E+00 -0.37497548959E+03  0.37497548959E+03  0.00000000000E+00 0.  1.
    9000005    1    1    2  501    0  0.18812065976E+03  0.23909496249E+03  0.16579597046E+04  0.17324509129E+04  0.40000000000E+03 0.  1.
   -9000005    1    1    2    0  503 -0.18812065976E+03 -0.23909496249E+03 -0.15077886729E+03  0.52468090354E+03  0.40000000000E+03 0.  1.
<mgrwt>
<rscale>  2 0.50254928E+03</rscale>
<asrwt>0</asrwt>
<pdfrwt beam="1">  1       21 0.28956251E+00 0.50254928E+03</pdfrwt>
<pdfrwt beam="2">  1       21 0.57688538E-01 0.50254928E+03</pdfrwt>
<totfact> 0.82699481E+01</totfact>
</mgrwt>
</event>
<event>
 4    1  0.4962426E-002  0.4099199E+03  0.7818608E-02  0.1040398E+00
         21   -1    0    0  503  502  0.00000000000E+00  0.00000000000E+00  0.41327447335E+03  0.41327447335E+03  0.00000000000E+00 0.  1.
         21   -1    0    0  501  503 -0.00000000000E+00 -0.00000000000E+00 -0.68982406741E+03  0.68982406741E+03  0.00000000000E+00 0.  1.
    9000005    1    1    2  501    0  0.81663088802E+02  0.36951860490E+02 -0.49169060675E+03  0.64015150771E+03  0.40000000000E+03 0.  1.
   -9000005    1    1    2    0  502 -0.81663088802E+02 -0.36951860490E+02  0.21514101269E+03  0.46294703305E+03  0.40000000000E+03 0.  1.
<mgrwt>
<rscale>  2 0.40991987E+03</rscale>
<asrwt>0</asrwt>
<pdfrwt beam="1">  1       21 0.63580688E-01 0.40991987E+03</pdfrwt>
<pdfrwt beam="2">  1       21 0.10612678E+00 0.40991987E+03</pdfrwt>
<totfact> 0.14166325E+03</totfact>
</mgrwt>
</event>
<event>
 4    1  0.4962426E-002  0.5776043E+03  0.7818608E-02  0.9952991E-01
         21   -1    0    0  503  502  0.00000000000E+00  0.00000000000E+00  0.91095446554E+03  0.91095446554E+03  0.00000000000E+00 0. -1.
         21   -1    0    0  501  503 -0.00000000000E+00 -0.00000000000E+00 -0.36733943233E+03  0.36733943233E+03  0.00000000000E+00 0. -1.
    9000005    1    1    2  501    0  0.41625331881E+03  0.18970091318E+02  0.30679616563E+03  0.65402643450E+03  0.40000000000E+03 0. -1.
   -9000005    1    1    2    0  502 -0.41625331881E+03 -0.18970091318E+02  0.23681886758E+03  0.62426746337E+03  0.40000000000E+03 0. -1.
<mgrwt>
<rscale>  2 0.57760427E+03</rscale>
<asrwt>0</asrwt>
<pdfrwt beam="1">  1       21 0.14014684E+00 0.57760427E+03</pdfrwt>
<pdfrwt beam="2">  1       21 0.56513759E-01 0.57760427E+03</pdfrwt>
<totfact> 0.84549379E+02</totfact>
</mgrwt>
</event>
<event>
 4    1  0.4962426E-002  0.5634004E+03  0.7818608E-02  0.9984390E-01
         21   -1    0    0  503  502  0.00000000000E+00  0.00000000000E+00  0.14268613276E+04  0.14268613276E+04  0.00000000000E+00 0.  1.
         21   -1    0    0  501  503 -0.00000000000E+00 -0.00000000000E+00 -0.23399112843E+03  0.23399112843E+03  0.00000000000E+00 0. -1.
    9000005    1    1    2  501    0 -0.35144647188E+03 -0.18413414961E+03  0.78078015895E+03  0.96282795153E+03  0.40000000000E+03 0. -1.
   -9000005    1    1    2    0  502  0.35144647188E+03  0.18413414961E+03  0.41209004027E+03  0.69802450454E+03  0.40000000000E+03 0.  1.
<mgrwt>
<rscale>  2 0.56340040E+03</rscale>
<asrwt>0</asrwt>
<pdfrwt beam="1">  1       21 0.21951712E+00 0.56340040E+03</pdfrwt>
<pdfrwt beam="2">  1       21 0.35998636E-01 0.56340040E+03</pdfrwt>
<totfact> 0.58949258E+02</totfact>
</mgrwt>
</event>
<event>
 4    1  0.4962426E-002  0.4006483E+03  0.7818608E-02  0.1043555E+00
         21   -1    0    0  503  502  0.00000000000E+00  0.00000000000E+00  0.14249731542E+03  0.14249731542E+03  0.00000000000E+00 0. -1.
         21   -1    0    0  501  503 -0.00000000000E+00 -0.00000000000E+00 -0.11265737373E+04  0.11265737373E+04  0.00000000000E+00 0. -1.
    9000005    1    1    2  501    0  0.17106369562E+02 -0.15048788004E+02 -0.49809765549E+03  0.63923420458E+03  0.40000000000E+03 0.  1.
   -9000005    1    1    2    0  502 -0.17106369562E+02  0.15048788004E+02 -0.48597876639E+03  0.62983684814E+03  0.40000000000E+03 0.  1.
<mgrwt>
<rscale>  2 0.40064834E+03</rscale>
<asrwt>0</asrwt>
<pdfrwt beam="1">  1       21 0.21922664E-01 0.40064834E+03</pdfrwt>
<pdfrwt beam="2">  1       21 0.17331904E+00 0.40064834E+03</pdfrwt>
<totfact> 0.34497945E+03</totfact>
</mgrwt>
</event>
<event>
 4    1  0.4962426E-002  0.4405030E+03  0.7818608E-02  0.1030593E+00
         21   -1    0    0  503  502  0.00000000000E+00  0.00000000000E+00  0.29514414375E+03  0.29514414375E+03  0.00000000000E+00 0.  1.
         21   -1    0    0  501  503 -0.00000000000E+00 -0.00000000000E+00 -0.71512847540E+03  0.71512847540E+03  0.00000000000E+00 0.  1.
    9000005    1    1    2  501    0 -0.18224158721E+03 -0.28825064288E+02 -0.35344819498E+03  0.56477296941E+03  0.40000000000E+03 0. -1.
   -9000005    1    1    2    0  502  0.18224158721E+03  0.28825064288E+02 -0.66536136667E+02  0.44549964974E+03  0.40000000000E+03 0. -1.
<mgrwt>
<rscale>  2 0.44050299E+03</rscale>
<asrwt>0</asrwt>
<pdfrwt beam="1">  1       21 0.45406792E-01 0.44050299E+03</pdfrwt>
<pdfrwt beam="2">  1       21 0.11001976E+00 0.44050299E+03</pdfrwt>
<totfact> 0.26399938E+03</totfact>
</mgrwt>
</event>
<event>
 4    1  0.4962426E-002  0.4827426E+03  0.7818608E-02  0.1018384E+00
         21   -1    0    0  503  502  0.00000000000E+00  0.00000000000E+00  0.94649351533E+02  0.94649351533E+02  0.00000000000E+00 0. -1.
         21   -1    0    0  501  503 -0.00000000000E+00 -0.00000000000E+00 -0.24963317371E+04  0.24963317371E+04  0.00000000000E+00 0. -1.
    9000005    1    1    2  501    0 -0.18094801422E+03 -0.20074421493E+03 -0.10492366589E+04  0.11549623327E+04  0.40000000000E+03 0. -1.
   -9000005    1    1    2    0  502  0.18094801422E+03  0.20074421493E+03 -0.13524457267E+04  0.14360187559E+04  0.40000000000E+03 0. -1.
<mgrwt>
<rscale>  2 0.48274261E+03</rscale>
<asrwt>0</asrwt>
<pdfrwt beam="1">  1       21 0.14561439E-01 0.48274261E+03</pdfrwt>
<pdfrwt beam="2">  1       21 0.38405102E+00 0.48274261E+03</pdfrwt>
<totfact> 0.34270703E+02</totfact>
</mgrwt>
</event>
<event>
 4    1  0.4962426E-002  0.4909324E+03  0.7818608E-02  0.1016173E+00
         21   -1    0    0  501  502  0.00000000000E+00  0.00000000000E+00  0.99483030259E+03  0.99483030259E+03  0.00000000000E+00 0.  1.
         21   -1    0    0  502  503 -0.00000000000E+00 -0.00000000000E+00 -0.27987263936E+03  0.27987263936E+03  0.00000000000E+00 0.  1.
    9000005    1    1    2  501    0  0.71822940911E+01 -0.28454006917E+03  0.12385089406E+03  0.50631381600E+03  0.40000000000E+03 0.  1.
   -9000005    1    1    2    0  503 -0.71822940911E+01  0.28454006917E+03  0.59110676917E+03  0.76838912595E+03  0.40000000000E+03 0.  1.
<mgrwt>
<rscale>  2 0.49093242E+03</rscale>
<asrwt>0</asrwt>
<pdfrwt beam="1">  1       21 0.15305081E+00 0.49093242E+03</pdfrwt>
<pdfrwt beam="2">  1       21 0.43057330E-01 0.49093242E+03</pdfrwt>
<totfact> 0.12258854E+03</totfact>
</mgrwt>
</event>
<event>
 4    1  0.4962426E-002  0.4801606E+03  0.7818608E-02  0.1019091E+00
         21   -1    0    0  501  502  0.00000000000E+00  0.00000000000E+00  0.11258808835E+04  0.11258808835E+04  0.00000000000E+00 0.  1.
         21   -1    0    0  502  503 -0.00000000000E+00 -0.00000000000E+00 -0.21948218588E+03  0.21948218588E+03  0.00000000000E+00 0.  1.
    9000005    1    1    2  501    0 -0.52499826686E+02  0.26038047313E+03  0.62731944271E+03  0.78998981372E+03  0.40000000000E+03 0. -1.
   -9000005    1    1    2    0  503  0.52499826686E+02 -0.26038047313E+03  0.27907925494E+03  0.55537325568E+03  0.40000000000E+03 0. -1.
<mgrwt>
<rscale>  2 0.48016062E+03</rscale>
<asrwt>0</asrwt>
<pdfrwt beam="1">  1       21 0.17321244E+00 0.48016062E+03</pdfrwt>
<pdfrwt beam="2">  1       21 0.33766491E-01 0.48016062E+03</pdfrwt>
<totfact> 0.14311917E+03</totfact>
</mgrwt>
</event>
<event>
 4    1  0.4962426E-002  0.5660284E+03  0.7818608E-02  0.9978506E-01
         21   -1    0    0  501  502  0.00000000000E+00  0.00000000000E+00  0.19027852504E+03  0.19027852504E+03  0.00000000000E+00 0. -1.
         21   -1    0    0  502  503 -0.00000000000E+00 -0.00000000000E+00 -0.17411933072E+04  0.17411933072E+04  0.00000000000E+00 0. -1.
    9000005    1    1    2  501    0  0.38754009693E+03  0.10099896281E+03 -0.95081412159E+03  0.11065421867E+04  0.40000000000E+03 0. -1.
   -9000005    1    1    2    0  503 -0.38754009693E+03 -0.10099896281E+03 -0.60010066057E+03  0.82492964550E+03  0.40000000000E+03 0. -1.
<mgrwt>
<rscale>  2 0.56602837E+03</rscale>
<asrwt>0</asrwt>
<pdfrwt beam="1">  1       21 0.29273619E-01 0.56602837E+03</pdfrwt>
<pdfrwt beam="2">  1       21 0.26787589E+00 0.56602837E+03</pdfrwt>
<totfact> 0.44483952E+02</totfact>
</mgrwt>
</event>
<event>
 4    1  0.4962426E-002  0.4344392E+03  0.7818608E-02  0.1032467E+00
         21   -1    0    0  503  502  0.00000000000E+00  0.00000000000E+00  0.10350003083E+03  0.10350003083E+03  0.00000000000E+00 0.  1.
         21   -1    0    0  501  503 -0.00000000000E+00 -0.00000000000E+00 -0.22720213597E+04  0.22720213597E+04  0.00000000000E+00 0.  1.
    9000005    1    1    2  501    0 -0.60404946423E+02  0.15839412413E+03 -0.16119644613E+04  0.16694810213E+04  0.40000000000E+03 0.  1.
   -9000005    1    1    2    0  502  0.60404946423E+02 -0.15839412413E+03 -0.55655686764E+03  0.70604036926E+03  0.40000000000E+03 0.  1.
<mgrwt>
<rscale>  2 0.43443924E+03</rscale>
<asrwt>0</asrwt>
<pdfrwt beam="1">  1       21 0.15923084E-01 0.43443924E+03</pdfrwt>
<pdfrwt beam="2">  1       21 0.34954169E+00 0.43443924E+03</pdfrwt>
<totfact> 0.49034485E+02</totfact>
</mgrwt>
</event>
<event>
 4    1  0.4962426E-002  0.4058794E+03  0.7818608E-02  0.1041763E+00
         21   -1    0    0  501  502  0.00000000000E+00  0.00000000000E+00  0.10575115966E+04  0.10575115966E+04  0.00000000000E+00 0. -1.
         21   -1    0    0  502  503 -0.00000000000E+00 -0.00000000000E+00 -0.40573350483E+03  0.40573350483E+03  0.00000000000E+00 0. -1.
    9000005    1    1    2  501    0 -0.60926088344E+02 -0.32032795475E+02  0.90013393682E+03  0.98741034654E+03  0.40000000000E+03 0. -1.
   -9000005    1    1    2    0  503  0.60926088344E+02  0.32032795475E+02 -0.24835584503E+03  0.47583475492E+03  0.40000000000E+03 0. -1.
<mgrwt>
<rscale>  2 0.40587940E+03</rscale>
<asrwt>0</asrwt>
<pdfrwt beam="1">  1       21 0.16269409E+00 0.40587940E+03</pdfrwt>
<pdfrwt beam="2">  1       21 0.62420540E-01 0.40587940E+03</pdfrwt>
<totfact> 0.48568686E+02</totfact>
</mgrwt>
</event>
<event>
 4    1  0.4962426E-002  0.4767605E+03  0.7818608E-02  0.1020029E+00
         21   -1    0    0  503  502  0.00000000000E+00  0.00000000000E+00  0.64335959307E+03  0.64335959307E+03  0.00000000000E+00 0.  1.
         21   -1    0    0  501  503 -0.00000000000E+00 -0.00000000000E+00 -0.68227549492E+03  0.68227549492E+03  0.00000000000E+00 0. -1.
    9000005    1    1    2  501    0 -0.21093589380E+03  0.15101856401E+03 -0.47970840687E+03  0.67632885019E+03  0.40000000000E+03 0. -1.
   -9000005    1    1    2    0  502  0.21093589380E+03 -0.15101856401E+03  0.44079250502E+03  0.64930623780E+03  0.40000000000E+03 0.  1.
<mgrwt>
<rscale>  2 0.47676048E+03</rscale>
<asrwt>0</asrwt>
<pdfrwt beam="1">  1       21 0.98978399E-01 0.47676048E+03</pdfrwt>
<pdfrwt beam="2">  1       21 0.10496546E+00 0.47676048E+03</pdfrwt>
<totfact> 0.50897891E+02</totfact>
</mgrwt>
</event>
<event>
 4    1  0.4962426E-002  0.5168201E+03  0.7818608E-02  0.1009480E+00
         21   -1    0    0  503  502  0.00000000000E+00  0.00000000000E+00  0.48854619454E+03  0.48854619454E+03  0.00000000000E+00 0. -1.
         21   -1    0    0  501  503 -0.00000000000E+00 -0.00000000000E+00 -0.58845321502E+03  0.58845321502E+03  0.00000000000E+00 0. -1.
    9000005    1    1    2  501    0  0.32470945561E+03 -0.40826603091E+02  0.93435693415E+02  0.52519831577E+03  0.40000000000E+03 0. -1.
   -9000005    1    1    2    0  502 -0.32470945561E+03  0.40826603091E+02 -0.19334271389E+03  0.55180109378E+03  0.40000000000E+03 0. -1.
<mgrwt>
<rscale>  2 0.51682013E+03</rscale>
<asrwt>0</asrwt>
<pdfrwt beam="1">  1       21 0.75160953E-01 0.51682013E+03</pdfrwt>
<pdfrwt beam="2">  1       21 0.90531263E-01 0.51682013E+03</pdfrwt>
<totfact> 0.13709713E+03</totfact>
</mgrwt>
</event>
<event>
 4    1  0.4962426E-002  0.4588304E+03  0.7818608E-02  0.1025121E+00
         21   -1    0    0  501  502  0.00000000000E+00  0.00000000000E+00  0.59606741166E+03  0.59606741166E+03  0.00000000000E+00 0.  1.
         21   -1    0    0  502  503 -0.00000000000E+00 -0.00000000000E+00 -0.41498312849E+03  0.41498312849E+03  0.00000000000E+00 0.  1.
    9000005    1    1    2  501    0  0.79927715261E+02  0.21008782712E+03  0.28561464497E+03  0.54046374549E+03  0.40000000000E+03 0.  1.
   -9000005    1    1    2    0  503 -0.79927715261E+02 -0.21008782712E+03 -0.10453036180E+03  0.47058679466E+03  0.40000000000E+03 0.  1.
<mgrwt>
<rscale>  2 0.45883040E+03</rscale>
<asrwt>0</asrwt>
<pdfrwt beam="1">  1       21 0.91702679E-01 0.45883040E+03</pdfrwt>
<pdfrwt beam="2">  1       21 0.63843558E-01 0.45883040E+03</pdfrwt>
<totfact> 0.19601700E+03</totfact>
</mgrwt>
</event>
<event>
 4    1  0.4962426E-002  0.5128234E+03  0.7818608E-02  0.1010485E+00
         21   -1    0    0  501  502  0.00000000000E+00  0.00000000000E+00  0.27809701609E+03  0.27809701609E+03  0.00000000000E+00 0. -1.
         21   -1    0    0  502  503 -0.00000000000E+00 -0.00000000000E+00 -0.95620873634E+03  0.95620873634E+03  0.00000000000E+00 0. -1.
    9000005    1    1    2  501    0 -0.31662456697E+03  0.52314073666E+02 -0.27426406006E+03  0.58155709380E+03  0.40000000000E+03 0. -1.
   -9000005    1    1    2    0  503  0.31662456697E+03 -0.52314073666E+02 -0.40384766019E+03  0.65274865863E+03  0.40000000000E+03 0. -1.
<mgrwt>
<rscale>  2 0.51282344E+03</rscale>
<asrwt>0</asrwt>
<pdfrwt beam="1">  1       21 0.42784157E-01 0.51282344E+03</pdfrwt>
<pdfrwt beam="2">  1       21 0.14710904E+00 0.51282344E+03</pdfrwt>
<totfact> 0.13727459E+03</totfact>
</mgrwt>
</event>
<event>
 4    1  0.4962426E-002  0.4810694E+03  0.7818608E-02  0.1018842E+00
         21   -1    0    0  501  502  0.00000000000E+00  0.00000000000E+00  0.66679070705E+03  0.66679070705E+03  0.00000000000E+00 0. -1.
         21   -1    0    0  502  503 -0.00000000000E+00 -0.00000000000E+00 -0.54207947278E+03  0.54207947278E+03  0.00000000000E+00 0.  1.
    9000005    1    1    2  501    0 -0.79457355335E+02 -0.25517506426E+03  0.42488076322E+03  0.64183443947E+03  0.40000000000E+03 0. -1.
   -9000005    1    1    2    0  503  0.79457355335E+02  0.25517506426E+03 -0.30016952895E+03  0.56703574036E+03  0.40000000000E+03 0.  1.
<mgrwt>
<rscale>  2 0.48106942E+03</rscale>
<asrwt>0</asrwt>
<pdfrwt beam="1">  1       21 0.10258319E+00 0.48106942E+03</pdfrwt>
<pdfrwt beam="2">  1       21 0.83396842E-01 0.48106942E+03</pdfrwt>
<totfact> 0.80784904E+02</totfact>
</mgrwt>
</event>
<event>
 4    1  0.4962426E-002  0.4559902E+03  0.7818608E-02  0.1025951E+00
         21   -1    0    0  501  502  0.00000000000E+00  0.00000000000E+00  0.13140697843E+04  0.13140697843E+04  0.00000000000E+00 0.  1.
         21   -1    0    0  502  503 -0.00000000000E+00 -0.00000000000E+00 -0.33364151647E+03  0.33364151647E+03  0.00000000000E+00 0. -1.
    9000005    1    1    2  501    0 -0.20393091126E+03 -0.79619491514E+02  0.10875772727E+04  0.11793012355E+04  0.40000000000E+03 0.  1.
   -9000005    1    1    2    0  503  0.20393091126E+03  0.79619491514E+02 -0.10714900486E+03  0.46841006526E+03  0.40000000000E+03 0. -1.
<mgrwt>
<rscale>  2 0.45599022E+03</rscale>
<asrwt>0</asrwt>
<pdfrwt beam="1">  1       21 0.20216458E+00 0.45599022E+03</pdfrwt>
<pdfrwt beam="2">  1       21 0.51329464E-01 0.45599022E+03</pdfrwt>
<totfact> 0.38285240E+02</totfact>
</mgrwt>
</event>
<event>
 4    1  0.4962426E-002  0.4066617E+03  0.7818608E-02  0.1041497E+00
         21   -1    0    0  503  502  0.00000000000E+00  0.00000000000E+00  0.66220483619E+03  0.66220483619E+03  0.00000000000E+00 0.  1.
         21   -1    0    0  501  503 -0.00000000000E+00 -0.00000000000E+00 -0.32952171211E+03  0.32952171211E+03  0.00000000000E+00 0.  1.
    9000005    1    1    2  501    0 -0.63278680555E+02  0.37007364123E+02  0.41034355982E+03  0.57771582417E+03  0.40000000000E+03 0. -1.
   -9000005    1    1    2    0  502  0.63278680555E+02 -0.37007364123E+02 -0.77660435737E+02  0.41401072413E+03  0.40000000000E+03 0. -1.
<mgrwt>
<rscale>  2 0.40666170E+03</rscale>
<asrwt>0</asrwt>
<pdfrwt beam="1">  1       21 0.10187767E+00 0.40666170E+03</pdfrwt>
<pdfrwt beam="2">  1       21 0.50695648E-01 0.40666170E+03</pdfrwt>
<totfact> 0.25611976E+03</totfact>
</mgrwt>
</event>
<event>
 4    1  0.4962426E-002  0.4114535E+03  0.7818608E-02  0.1039884E+00
         21   -1    0    0  501  502  0.00000000000E+00  0.00000000000E+00  0.11681165401E+04  0.11681165401E+04  0.00000000000E+00 0.  1.
         21   -1    0    0  502  503 -0.00000000000E+00 -0.00000000000E+00 -0.14665654442E+03  0.14665654442E+03  0.00000000000E+00 0.  1.
    9000005    1    1    2  501    0 -0.70934435006E+02 -0.65286440299E+02  0.58207756603E+03  0.71281716185E+03  0.40000000000E+03 0.  1.
   -9000005    1    1    2    0  503  0.70934435006E+02  0.65286440299E+02  0.43938242967E+03  0.60195592269E+03  0.40000000000E+03 0.  1.
<mgrwt>
<rscale>  2 0.41145354E+03</rscale>
<asrwt>0</asrwt>
<pdfrwt beam="1">  1       21 0.17971023E+00 0.41145354E+03</pdfrwt>
<pdfrwt beam="2">  1       21 0.22562546E-01 0.41145354E+03</pdfrwt>
<totfact> 0.29264074E+03</totfact>
</mgrwt>
</event>
<event>
 4    1  0.4962426E-002  0.4018731E+03  0.7818608E-02  0.1043133E+00
         21   -1    0    0  503  502  0.00000000000E+00  0.00000000000E+00  0.29792571051E+03  0.29792571051E+03  0.00000000000E+00 0. -1.
         21   -1    0    0  501  503 -0.00000000000E+00 -0.00000000000E+00 -0.98242910486E+03  0.98242910486E+03  0.00000000000E+00 0. -1.
    9000005    1    1    2  501    0 -0.37582708695E+02 -0.94617068589E+01 -0.77084392923E+03  0.86931142125E+03  0.40000000000E+03 0. -1.
   -9000005    1    1    2    0  502  0.37582708695E+02  0.94617068589E+01  0.86340534872E+02  0.41104339412E+03  0.40000000000E+03 0. -1.
<mgrwt>
<rscale>  2 0.40187309E+03</rscale>
<asrwt>0</asrwt>
<pdfrwt beam="1">  1       21 0.45834724E-01 0.40187309E+03</pdfrwt>
<pdfrwt beam="2">  1       21 0.15114294E+00 0.40187309E+03</pdfrwt>
<totfact> 0.11563872E+03</totfact>
</mgrwt>
</event>
<event>
 4    1  0.4962426E-002  0.7601275E+03  0.7818608E-02  0.9619594E-01
         21   -1    0    0  503  502  0.00000000000E+00  0.00000000000E+00  0.20659852364E+04  0.20659852364E+04  0.00000000000E+00 0.  1.
         21   -1    0    0  501  503 -0.00000000000E+00 -0.00000000000E+00 -0.43005548332E+03  0.43005548332E+03  0.00000000000E+00 0. -1.
    9000005    1    1    2  501    0 -0.46345266616E+03 -0.45056129855E+03  0.79954366204E+02  0.76432097852E+03  0.40000000000E+03 0. -1.
   -9000005    1    1    2    0  502  0.46345266616E+03  0.45056129855E+03  0.15559753869E+04  0.17317197412E+04  0.40000000000E+03 0.  1.
<mgrwt>
<rscale>  2 0.76012753E+03</rscale>
<asrwt>0</asrwt>
<pdfrwt beam="1">  1       21 0.31784388E+00 0.76012753E+03</pdfrwt>
<pdfrwt beam="2">  1       21 0.66162383E-01 0.76012753E+03</pdfrwt>
<totfact> 0.36336889E+01</totfact>
</mgrwt>
</event>
<event>
 4    1  0.4962426E-002  0.4153538E+03  0.7818608E-02  0.1038589E+00
         21   -1    0    0  501  502  0.00000000000E+00  0.00000000000E+00  0.47774315205E+03  0.47774315205E+03  0.00000000000E+00 0.  1.
         21   -1    0    0  502  503 -0.00000000000E+00 -0.00000000000E+00 -0.37087742017E+03  0.37087742017E+03  0.00000000000E+00 0.  1.
    9000005    1    1    2  501    0 -0.10636247680E+03  0.34724988599E+02  0.12228431376E+03  0.43298066319E+03  0.40000000000E+03 0.  1.
   -9000005    1    1    2    0  503  0.10636247680E+03 -0.34724988599E+02 -0.15418581880E+02  0.41563990902E+03  0.40000000000E+03 0.  1.
<mgrwt>
<rscale>  2 0.41535383E+03</rscale>
<asrwt>0</asrwt>
<pdfrwt beam="1">  1       21 0.73498947E-01 0.41535383E+03</pdfrwt>
<pdfrwt beam="2">  1       21 0.57058064E-01 0.41535383E+03</pdfrwt>
<totfact> 0.42594458E+03</totfact>
</mgrwt>
</event>
<event>
 4    1  0.4962426E-002  0.4882984E+03  0.7818608E-02  0.1016879E+00
         21   -1    0    0  503  502  0.00000000000E+00  0.00000000000E+00  0.96040950339E+03  0.96040950339E+03  0.00000000000E+00 0. -1.
         21   -1    0    0  501  503 -0.00000000000E+00 -0.00000000000E+00 -0.26039098324E+03  0.26039098324E+03  0.00000000000E+00 0. -1.
    9000005    1    1    2  501    0  0.36865589080E+02  0.27762616005E+03  0.48173584351E+03  0.68593350940E+03  0.40000000000E+03 0. -1.
   -9000005    1    1    2    0  502 -0.36865589080E+02 -0.27762616005E+03  0.21828267664E+03  0.53486697722E+03  0.40000000000E+03 0. -1.
<mgrwt>
<rscale>  2 0.48829843E+03</rscale>
<asrwt>0</asrwt>
<pdfrwt beam="1">  1       21 0.14775531E+00 0.48829843E+03</pdfrwt>
<pdfrwt beam="2">  1       21 0.40060152E-01 0.48829843E+03</pdfrwt>
<totfact> 0.15688706E+03</totfact>
</mgrwt>
</event>
<event>
 4    1  0.4962426E-002  0.4382739E+03  0.7818608E-02  0.1031278E+00
         21   -1    0    0  503  502  0.00000000000E+00  0.00000000000E+00  0.37680185370E+03  0.37680185370E+03  0.00000000000E+00 0. -1.
         21   -1    0    0  501  503 -0.00000000000E+00 -0.00000000000E+00 -0.51104369500E+03  0.51104369500E+03  0.00000000000E+00 0. -1.
    9000005    1    1    2  501    0  0.12590599994E+03  0.12740372435E+03 -0.44999224974E+02  0.44057798407E+03  0.40000000000E+03 0. -1.
   -9000005    1    1    2    0  502 -0.12590599994E+03 -0.12740372435E+03 -0.89242616333E+02  0.44726756463E+03  0.40000000000E+03 0. -1.
<mgrwt>
<rscale>  2 0.43827392E+03</rscale>
<asrwt>0</asrwt>
<pdfrwt beam="1">  1       21 0.57969516E-01 0.43827392E+03</pdfrwt>
<pdfrwt beam="2">  1       21 0.78622107E-01 0.43827392E+03</pdfrwt>
<totfact> 0.34992571E+03</totfact>
</mgrwt>
</event>
<event>
 4    1  0.4962426E-002  0.4542168E+03  0.7818608E-02  0.1026472E+00
         21   -1    0    0  503  502  0.00000000000E+00  0.00000000000E+00  0.15397864485E+03  0.15397864485E+03  0.00000000000E+00 0. -1.
         21   -1    0    0  501  503 -0.00000000000E+00 -0.00000000000E+00 -0.15084533944E+04  0.15084533944E+04  0.00000000000E+00 0. -1.
    9000005    1    1    2  501    0  0.21451348047E+03 -0.17230091579E+02 -0.95510787934E+03  0.10576123914E+04  0.40000000000E+03 0. -1.
   -9000005    1    1    2    0  502 -0.21451348047E+03  0.17230091579E+02 -0.39936687024E+03  0.60481964783E+03  0.40000000000E+03 0. -1.
<mgrwt>
<rscale>  2 0.45421681E+03</rscale>
<asrwt>0</asrwt>
<pdfrwt beam="1">  1       21 0.23689023E-01 0.45421681E+03</pdfrwt>
<pdfrwt beam="2">  1       21 0.23206975E+00 0.45421681E+03</pdfrwt>
<totfact> 0.11797923E+03</totfact>
</mgrwt>
</event>
<event>
 4    1  0.4962426E-002  0.5451290E+03  0.7818608E-02  0.1002628E+00
         21   -1    0    0  503  502  0.00000000000E+00  0.00000000000E+00  0.75834606737E+03  0.75834606737E+03  0.00000000000E+00 0.  1.
         21   -1    0    0  501  503 -0.00000000000E+00 -0.00000000000E+00 -0.39209842034E+03  0.39209842034E+03  0.00000000000E+00 0.  1.
    9000005    1    1    2  501    0 -0.21246185990E+03 -0.30335724164E+03  0.16894605441E+03  0.57070870615E+03  0.40000000000E+03 0.  1.
   -9000005    1    1    2    0  502  0.21246185990E+03  0.30335724164E+03  0.19730159262E+03  0.57973578156E+03  0.40000000000E+03 0.  1.
<mgrwt>
<rscale>  2 0.54512903E+03</rscale>
<asrwt>0</asrwt>
<pdfrwt beam="1">  1       21 0.11666863E+00 0.54512903E+03</pdfrwt>
<pdfrwt beam="2">  1       21 0.60322834E-01 0.54512903E+03</pdfrwt>
<totfact> 0.11939744E+03</totfact>
</mgrwt>
</event>
<event>
 4    1  0.4962426E-002  0.4572390E+03  0.7818608E-02  0.1025585E+00
         21   -1    0    0  503  502  0.00000000000E+00  0.00000000000E+00  0.33470351329E+03  0.33470351329E+03  0.00000000000E+00 0. -1.
         21   -1    0    0  501  503 -0.00000000000E+00 -0.00000000000E+00 -0.63243530181E+03  0.63243530181E+03  0.00000000000E+00 0.  1.
    9000005    1    1    2  501    0  0.18024197022E+03 -0.12876447393E+03 -0.20257060877E+03  0.50010229865E+03  0.40000000000E+03 0. -1.
   -9000005    1    1    2    0  502 -0.18024197022E+03  0.12876447393E+03 -0.95161179751E+02  0.46703651646E+03  0.40000000000E+03 0.  1.
<mgrwt>
<rscale>  2 0.45723895E+03</rscale>
<asrwt>0</asrwt>
<pdfrwt beam="1">  1       21 0.51492849E-01 0.45723895E+03</pdfrwt>
<pdfrwt beam="2">  1       21 0.97297738E-01 0.45723895E+03</pdfrwt>
<totfact> 0.27170297E+03</totfact>
</mgrwt>
</event>
<event>
 4    1  0.4962426E-002  0.5229790E+03  0.7818608E-02  0.1007949E+00
         21   -1    0    0  503  502  0.00000000000E+00  0.00000000000E+00  0.71066539928E+03  0.71066539928E+03  0.00000000000E+00 0. -1.
         21   -1    0    0  501  503 -0.00000000000E+00 -0.00000000000E+00 -0.44755216028E+03  0.44755216028E+03  0.00000000000E+00 0.  1.
    9000005    1    1    2  501    0 -0.24563864392E+03 -0.23058325792E+03 -0.85185587923E+02  0.52987127362E+03  0.40000000000E+03 0.  1.
   -9000005    1    1    2    0  502  0.24563864392E+03  0.23058325792E+03  0.34829882692E+03  0.62834628594E+03  0.40000000000E+03 0. -1.
<mgrwt>
<rscale>  2 0.52297895E+03</rscale>
<asrwt>0</asrwt>
<pdfrwt beam="1">  1       21 0.10933314E+00 0.52297895E+03</pdfrwt>
<pdfrwt beam="2">  1       21 0.68854178E-01 0.52297895E+03</pdfrwt>
<totfact> 0.10541923E+03</totfact>
</mgrwt>
</event>
<event>
 4    1  0.4962426E-002  0.4455080E+03  0.7818608E-02  0.1029070E+00
         21   -1    0    0  501  502  0.00000000000E+00  0.00000000000E+00  0.40144811040E+03  0.40144811040E+03  0.00000000000E+00 0.  1.
         21   -1    0    0  502  503 -0.00000000000E+00 -0.00000000000E+00 -0.49629646500E+03  0.49629646500E+03  0.00000000000E+00 0.  1.
    9000005    1    1    2  501    0  0.19394311746E+03 -0.29383967841E+02 -0.19702236648E+02  0.44594341402E+03  0.40000000000E+03 0.  1.
   -9000005    1    1    2    0  503 -0.19394311746E+03  0.29383967841E+02 -0.75146117954E+02  0.45180116137E+03  0.40000000000E+03 0.  1.
<mgrwt>
<rscale>  2 0.44550797E+03</rscale>
<asrwt>0</asrwt>
<pdfrwt beam="1">  1       21 0.61761248E-01 0.44550797E+03</pdfrwt>
<pdfrwt beam="2">  1       21 0.76353302E-01 0.44550797E+03</pdfrwt>
<totfact> 0.32492466E+03</totfact>
</mgrwt>
</event>
<event>
 4    1  0.4962426E-002  0.7601939E+03  0.7818608E-02  0.9619492E-01
         21   -1    0    0  501  502  0.00000000000E+00  0.00000000000E+00  0.12044409069E+04  0.12044409069E+04  0.00000000000E+00 0.  1.
         21   -1    0    0  502  503 -0.00000000000E+00 -0.00000000000E+00 -0.10517470768E+04  0.10517470768E+04  0.00000000000E+00 0.  1.
    9000005    1    1    2  501    0 -0.64635265066E+03  0.11089621660E+02  0.90823766764E+03  0.11843945245E+04  0.40000000000E+03 0.  1.
   -9000005    1    1    2    0  503  0.64635265066E+03 -0.11089621660E+02 -0.75554383749E+03  0.10717934592E+04  0.40000000000E+03 0.  1.
<mgrwt>
<rscale>  2 0.76019388E+03</rscale>
<asrwt>0</asrwt>
<pdfrwt beam="1">  1       21 0.18529860E+00 0.76019388E+03</pdfrwt>
<pdfrwt beam="2">  1       21 0.16180724E+00 0.76019388E+03</pdfrwt>
<totfact> 0.27253642E+01</totfact>
</mgrwt>
</event>
<event>
 4    1  0.4962426E-002  0.4099224E+03  0.7818608E-02  0.1040397E+00
         21   -1    0    0  503  502  0.00000000000E+00  0.00000000000E+00  0.34724776142E+03  0.34724776142E+03  0.00000000000E+00 0. -1.
         21   -1    0    0  501  503 -0.00000000000E+00 -0.00000000000E+00 -0.56772193246E+03  0.56772193246E+03  0.00000000000E+00 0. -1.
    9000005    1    1    2  501    0  0.40239436622E+01  0.89555430536E+02 -0.28601488381E+03  0.49984085569E+03  0.40000000000E+03 0. -1.
   -9000005    1    1    2    0  502 -0.40239436622E+01 -0.89555430536E+02  0.65540712769E+02  0.41512883818E+03  0.40000000000E+03 0. -1.
<mgrwt>
<rscale>  2 0.40992239E+03</rscale>
<asrwt>0</asrwt>
<pdfrwt beam="1">  1       21 0.53422733E-01 0.40992239E+03</pdfrwt>
<pdfrwt beam="2">  1       21 0.87341835E-01 0.40992239E+03</pdfrwt>
<totfact> 0.33036421E+03</totfact>
</mgrwt>
</event>
<event>
 4    1  0.4962426E-002  0.4207518E+03  0.7818608E-02  0.1036822E+00
         21   -1    0    0  501  502  0.00000000000E+00  0.00000000000E+00  0.31369347984E+04  0.31369347984E+04  0.00000000000E+00 0. -1.
         21   -1    0    0  502  503 -0.00000000000E+00 -0.00000000000E+00 -0.40053663700E+03  0.40053663700E+03  0.00000000000E+00 0. -1.
    9000005    1    1    2  501    0 -0.60225192143E+02 -0.11578002615E+03  0.30076006943E+04  0.30368888726E+04  0.40000000000E+03 0. -1.
   -9000005    1    1    2    0  503  0.60225192143E+02  0.11578002615E+03 -0.27120253296E+03  0.50058256273E+03  0.40000000000E+03 0. -1.
<mgrwt>
<rscale>  2 0.42075181E+03</rscale>
<asrwt>0</asrwt>
<pdfrwt beam="1">  1       21 0.48260534E+00 0.42075181E+03</pdfrwt>
<pdfrwt beam="2">  1       21 0.61621023E-01 0.42075181E+03</pdfrwt>
<totfact> 0.44353974E+00</totfact>
</mgrwt>
</event>
<event>
 4    1  0.4962426E-002  0.4614684E+03  0.7818608E-02  0.1024356E+00
         21   -1    0    0  501  502  0.00000000000E+00  0.00000000000E+00  0.30199435680E+03  0.30199435680E+03  0.00000000000E+00 0.  1.
         21   -1    0    0  502  503 -0.00000000000E+00 -0.00000000000E+00 -0.21730846823E+04  0.21730846823E+04  0.00000000000E+00 0.  1.
    9000005    1    1    2  501    0  0.21875233281E+02  0.22907327199E+03  0.81577311367E+02  0.46862346025E+03  0.40000000000E+03 0.  1.
   -9000005    1    1    2    0  503 -0.21875233281E+02 -0.22907327199E+03 -0.19526676369E+04  0.20064555788E+04  0.40000000000E+03 0.  1.
<mgrwt>
<rscale>  2 0.46146841E+03</rscale>
<asrwt>0</asrwt>
<pdfrwt beam="1">  1       21 0.46460672E-01 0.46146841E+03</pdfrwt>
<pdfrwt beam="2">  1       21 0.33432071E+00 0.46146841E+03</pdfrwt>
<totfact> 0.72323666E+01</totfact>
</mgrwt>
</event>
<event>
 4    1  0.4962426E-002  0.4622370E+03  0.7818608E-02  0.1024134E+00
         21   -1    0    0  503  502  0.00000000000E+00  0.00000000000E+00  0.15633721437E+04  0.15633721437E+04  0.00000000000E+00 0.  1.
         21   -1    0    0  501  503 -0.00000000000E+00 -0.00000000000E+00 -0.13722446733E+03  0.13722446733E+03  0.00000000000E+00 0. -1.
    9000005    1    1    2  501    0 -0.21633168481E+03  0.82847125157E+02  0.65892982476E+03  0.80489226482E+03  0.40000000000E+03 0. -1.
   -9000005    1    1    2    0  502  0.21633168481E+03 -0.82847125157E+02  0.76721785163E+03  0.89570434623E+03  0.40000000000E+03 0.  1.
<mgrwt>
<rscale>  2 0.46223700E+03</rscale>
<asrwt>0</asrwt>
<pdfrwt beam="1">  1       21 0.24051878E+00 0.46223700E+03</pdfrwt>
<pdfrwt beam="2">  1       21 0.21111458E-01 0.46223700E+03</pdfrwt>
<totfact> 0.12992959E+03</totfact>
</mgrwt>
</event>
<event>
 4    1  0.4962426E-002  0.4205609E+03  0.7818608E-02  0.1036884E+00
         21   -1    0    0  501  502  0.00000000000E+00  0.00000000000E+00  0.83677983992E+03  0.83677983992E+03  0.00000000000E+00 0.  1.
         21   -1    0    0  502  503 -0.00000000000E+00 -0.00000000000E+00 -0.21185816104E+03  0.21185816104E+03  0.00000000000E+00 0.  1.
    9000005    1    1    2  501    0  0.97119829104E+02  0.86250846254E+02  0.33758863698E+03  0.53929357265E+03  0.40000000000E+03 0.  1.
   -9000005    1    1    2    0  503 -0.97119829104E+02 -0.86250846254E+02  0.28733304189E+03  0.50934442831E+03  0.40000000000E+03 0.  1.
<mgrwt>
<rscale>  2 0.42056090E+03</rscale>
<asrwt>0</asrwt>
<pdfrwt beam="1">  1       21 0.12873536E+00 0.42056090E+03</pdfrwt>
<pdfrwt beam="2">  1       21 0.32593564E-01 0.42056090E+03</pdfrwt>
<totfact> 0.35250329E+03</totfact>
</mgrwt>
</event>
<event>
 4    1  0.4962426E-002  0.5951792E+03  0.7818608E-02  0.9915459E-01
         21   -1    0    0  501  502  0.00000000000E+00  0.00000000000E+00  0.25306282907E+03  0.25306282907E+03  0.00000000000E+00 0. -1.
         21   -1    0    0  502  503 -0.00000000000E+00 -0.00000000000E+00 -0.17880307264E+04  0.17880307264E+04  0.00000000000E+00 0. -1.
    9000005    1    1    2  501    0  0.12161964255E+03  0.42361174666E+03 -0.29194248811E+03  0.66292432881E+03  0.40000000000E+03 0. -1.
   -9000005    1    1    2    0  503 -0.12161964255E+03 -0.42361174666E+03 -0.12430254093E+04  0.13781692267E+04  0.40000000000E+03 0. -1.
<mgrwt>
<rscale>  2 0.59517917E+03</rscale>
<asrwt>0</asrwt>
<pdfrwt beam="1">  1       21 0.38932744E-01 0.59517917E+03</pdfrwt>
<pdfrwt beam="2">  1       21 0.27508164E+00 0.59517917E+03</pdfrwt>
<totfact> 0.22267789E+02</totfact>
</mgrwt>
</event>
<event>
 4    1  0.4962426E-002  0.4400825E+03  0.7818608E-02  0.1030721E+00
         21   -1    0    0  503  502  0.00000000000E+00  0.00000000000E+00  0.66133017079E+03  0.66133017079E+03  0.00000000000E+00 0.  1.
         21   -1    0    0  501  503 -0.00000000000E+00 -0.00000000000E+00 -0.31508554940E+03  0.31508554940E+03  0.00000000000E+00 0.  1.
    9000005    1    1    2  501    0 -0.16142733314E+03  0.87257390976E+02  0.43439173441E+02  0.44222120930E+03  0.40000000000E+03 0.  1.
   -9000005    1    1    2    0  502  0.16142733314E+03 -0.87257390976E+02  0.30280544795E+03  0.53419451089E+03  0.40000000000E+03 0.  1.
<mgrwt>
<rscale>  2 0.44008253E+03</rscale>
<asrwt>0</asrwt>
<pdfrwt beam="1">  1       21 0.10174310E+00 0.44008253E+03</pdfrwt>
<pdfrwt beam="2">  1       21 0.48474700E-01 0.44008253E+03</pdfrwt>
<totfact> 0.27894041E+03</totfact>
</mgrwt>
</event>
<event>
 4    1  0.4962426E-002  0.4755175E+03  0.7818608E-02  0.1020374E+00
         21   -1    0    0  503  502  0.00000000000E+00  0.00000000000E+00  0.40651710432E+03  0.40651710432E+03  0.00000000000E+00 0.  1.
         21   -1    0    0  501  503 -0.00000000000E+00 -0.00000000000E+00 -0.65023450915E+03  0.65023450915E+03  0.00000000000E+00 0.  1.
    9000005    1    1    2  501    0 -0.24130868382E+03  0.88809018815E+02 -0.32276000363E+03  0.57470944194E+03  0.40000000000E+03 0.  1.
   -9000005    1    1    2    0  502  0.24130868382E+03 -0.88809018815E+02  0.79042598793E+02  0.48204217153E+03  0.40000000000E+03 0.  1.
<mgrwt>
<rscale>  2 0.47551753E+03</rscale>
<asrwt>0</asrwt>
<pdfrwt beam="1">  1       21 0.62541094E-01 0.47551753E+03</pdfrwt>
<pdfrwt beam="2">  1       21 0.10003608E+00 0.47551753E+03</pdfrwt>
<totfact> 0.16543422E+03</totfact>
</mgrwt>
</event>
<event>
 4    1  0.4962426E-002  0.5178985E+03  0.7818608E-02  0.1009210E+00
         21   -1    0    0  503  502  0.00000000000E+00  0.00000000000E+00  0.33738253795E+03  0.33738253795E+03  0.00000000000E+00 0. -1.
         21   -1    0    0  501  503 -0.00000000000E+00 -0.00000000000E+00 -0.16133766942E+04  0.16133766942E+04  0.00000000000E+00 0. -1.
    9000005    1    1    2  501    0  0.12012496999E+03 -0.30624964236E+03 -0.13326736001E+04  0.14297684345E+04  0.40000000000E+03 0. -1.
   -9000005    1    1    2    0  502 -0.12012496999E+03  0.30624964236E+03  0.56679443883E+02  0.52099079764E+03  0.40000000000E+03 0. -1.
<mgrwt>
<rscale>  2 0.51789850E+03</rscale>
<asrwt>0</asrwt>
<pdfrwt beam="1">  1       21 0.51905005E-01 0.51789850E+03</pdfrwt>
<pdfrwt beam="2">  1       21 0.24821180E+00 0.51789850E+03</pdfrwt>
<totfact> 0.18431445E+02</totfact>
</mgrwt>
</event>
<event>
 4    1  0.4962426E-002  0.4305390E+03  0.7818608E-02  0.1033690E+00
         21   -1    0    0  501  502  0.00000000000E+00  0.00000000000E+00  0.21658173345E+03  0.21658173345E+03  0.00000000000E+00 0.  1.
         21   -1    0    0  502  503 -0.00000000000E+00 -0.00000000000E+00 -0.87690800776E+03  0.87690800776E+03  0.00000000000E+00 0.  1.
    9000005    1    1    2  501    0  0.78077156724E+02 -0.13880858553E+03 -0.41486687079E+03  0.59789496259E+03  0.40000000000E+03 0.  1.
   -9000005    1    1    2    0  503 -0.78077156724E+02  0.13880858553E+03 -0.24545940353E+03  0.49559477862E+03  0.40000000000E+03 0.  1.
<mgrwt>
<rscale>  2 0.43053904E+03</rscale>
<asrwt>0</asrwt>
<pdfrwt beam="1">  1       21 0.33320267E-01 0.43053904E+03</pdfrwt>
<pdfrwt beam="2">  1       21 0.13490892E+00 0.43053904E+03</pdfrwt>
<totfact> 0.29745741E+03</totfact>
</mgrwt>
</event>
<event>
 4    1  0.4962426E-002  0.6068014E+03  0.7818608E-02  0.9891395E-01
         21   -1    0    0  501  502  0.00000000000E+00  0.00000000000E+00  0.19279276236E+04  0.19279276236E+04  0.00000000000E+00 0. -1.
         21   -1    0    0  502  503 -0.00000000000E+00 -0.00000000000E+00 -0.33731475158E+03  0.33731475158E+03  0.00000000000E+00 0.  1.
    9000005    1    1    2  501    0  0.29288962166E+03  0.34989080516E+03  0.15412934943E+04  0.16564400205E+04  0.40000000000E+03 0. -1.
   -9000005    1    1    2    0  503 -0.29288962166E+03 -0.34989080516E+03  0.49319377709E+02  0.60880235465E+03  0.40000000000E+03 0.  1.
<mgrwt>
<rscale>  2 0.60680137E+03</rscale>
<asrwt>0</asrwt>
<pdfrwt beam="1">  1       21 0.29660424E+00 0.60680137E+03</pdfrwt>
<pdfrwt beam="2">  1       21 0.51894578E-01 0.60680137E+03</pdfrwt>
<totfact> 0.89348440E+01</totfact>
</mgrwt>
</event>
<event>
 4    1  0.4962426E-002  0.4149231E+03  0.7818608E-02  0.1038731E+00
         21   -1    0    0  501  502  0.00000000000E+00  0.00000000000E+00  0.11493262578E+04  0.11493262578E+04  0.00000000000E+00 0. -1.
         21   -1    0    0  502  503 -0.00000000000E+00 -0.00000000000E+00 -0.32622947347E+03  0.32622947347E+03  0.00000000000E+00 0. -1.
    9000005    1    1    2  501    0  0.10701323284E+03  0.26633306913E+02  0.95412124680E+03  0.10404366961E+04  0.40000000000E+03 0. -1.
   -9000005    1    1    2    0  503 -0.10701323284E+03 -0.26633306913E+02 -0.13102446243E+03  0.43511903520E+03  0.40000000000E+03 0. -1.
<mgrwt>
<rscale>  2 0.41492308E+03</rscale>
<asrwt>0</asrwt>
<pdfrwt beam="1">  1       21 0.17681942E+00 0.41492308E+03</pdfrwt>
<pdfrwt beam="2">  1       21 0.50189150E-01 0.41492308E+03</pdfrwt>
<totfact> 0.61159581E+02</totfact>
</mgrwt>
</event>
<event>
 4    1  0.4962426E-002  0.4765999E+03  0.7818608E-02  0.1020074E+00
         21   -1    0    0  501  502  0.00000000000E+00  0.00000000000E+00  0.48081587800E+03  0.48081587800E+03  0.00000000000E+00 0. -1.
         21   -1    0    0  502  503 -0.00000000000E+00 -0.00000000000E+00 -0.48076008427E+03  0.48076008427E+03  0.00000000000E+00 0. -1.
    9000005    1    1    2  501    0 -0.24022065976E+03 -0.97167274987E+02  0.63349594007E+02  0.48079165526E+03  0.40000000000E+03 0.  1.
   -9000005    1    1    2    0  503  0.24022065976E+03  0.97167274987E+02 -0.63293800277E+02  0.48078430700E+03  0.40000000000E+03 0.  1.
<mgrwt>
<rscale>  2 0.47659988E+03</rscale>
<asrwt>0</asrwt>
<pdfrwt beam="1">  1       21 0.73971674E-01 0.47659988E+03</pdfrwt>
<pdfrwt beam="2">  1       21 0.73963090E-01 0.47659988E+03</pdfrwt>
<totfact> 0.23074780E+03</totfact>
</mgrwt>
</event>
<event>
 4    1  0.4962426E-002  0.4175784E+03  0.7818608E-02  0.1037857E+00
         21   -1    0    0  503  502  0.00000000000E+00  0.00000000000E+00  0.57826305272E+03  0.57826305272E+03  0.00000000000E+00 0. -1.
         21   -1    0    0  501  503 -0.00000000000E+00 -0.00000000000E+00 -0.13812751994E+04  0.13812751994E+04  0.00000000000E+00 0. -1.
    9000005    1    1    2  501    0  0.11529761439E+03  0.32835467711E+02 -0.12677525565E+04  0.13347540044E+04  0.40000000000E+03 0. -1.
   -9000005    1    1    2    0  502 -0.11529761439E+03 -0.32835467711E+02  0.46474040974E+03  0.62478424778E+03  0.40000000000E+03 0. -1.
<mgrwt>
<rscale>  2 0.41757839E+03</rscale>
<asrwt>0</asrwt>
<pdfrwt beam="1">  1       21 0.88963548E-01 0.41757839E+03</pdfrwt>
<pdfrwt beam="2">  1       21 0.21250387E+00 0.41757839E+03</pdfrwt>
<totfact> 0.97668678E+01</totfact>
</mgrwt>
</event>
<event>
 4    1  0.4962426E-002  0.6076109E+03  0.7818608E-02  0.9889740E-01
         21   -1    0    0  503  502  0.00000000000E+00  0.00000000000E+00  0.33347216531E+03  0.33347216531E+03  0.00000000000E+00 0.  1.
         21   -1    0    0  501  503 -0.00000000000E+00 -0.00000000000E+00 -0.12122572960E+04  0.12122572960E+04  0.00000000000E+00 0. -1.
    9000005    1    1    2  501    0  0.13827094770E+03 -0.43597268647E+03 -0.21177750485E+03  0.64345998313E+03  0.40000000000E+03 0.  1.
   -9000005    1    1    2    0  502 -0.13827094770E+03  0.43597268647E+03 -0.66700762585E+03  0.90226947819E+03  0.40000000000E+03 0. -1.
<mgrwt>
<rscale>  2 0.60761093E+03</rscale>
<asrwt>0</asrwt>
<pdfrwt beam="1">  1       21 0.51303409E-01 0.60761093E+03</pdfrwt>
<pdfrwt beam="2">  1       21 0.18650113E+00 0.60761093E+03</pdfrwt>
<totfact> 0.45988328E+02</totfact>
</mgrwt>
</event>
<event>
 4    1  0.4962426E-002  0.4054149E+03  0.7818608E-02  0.1041921E+00
         21   -1    0    0  501  502  0.00000000000E+00  0.00000000000E+00  0.10351324493E+04  0.10351324493E+04  0.00000000000E+00 0.  1.
         21   -1    0    0  502  503 -0.00000000000E+00 -0.00000000000E+00 -0.36298236413E+03  0.36298236413E+03  0.00000000000E+00 0.  1.
    9000005    1    1    2  501    0  0.16680757324E+01  0.66018541936E+02  0.86039632069E+03  0.95112725700E+03  0.40000000000E+03 0.  1.
   -9000005    1    1    2    0  503 -0.16680757324E+01 -0.66018541936E+02 -0.18824623557E+03  0.44698755638E+03  0.40000000000E+03 0.  1.
<mgrwt>
<rscale>  2 0.40541489E+03</rscale>
<asrwt>0</asrwt>
<pdfrwt beam="1">  1       21 0.15925114E+00 0.40541489E+03</pdfrwt>
<pdfrwt beam="2">  1       21 0.55843441E-01 0.40541489E+03</pdfrwt>
<totfact> 0.65727462E+02</totfact>
</mgrwt>
</event>
<event>
 4    1  0.4962426E-002  0.5889928E+03  0.7818608E-02  0.9928509E-01
         21   -1    0    0  501  502  0.00000000000E+00  0.00000000000E+00  0.51100567795E+03  0.51100567795E+03  0.00000000000E+00 0.  1.
         21   -1    0    0  502  503 -0.00000000000E+00 -0.00000000000E+00 -0.11524874759E+04  0.11524874759E+04  0.00000000000E+00 0. -1.
    9000005    1    1    2  501    0  0.13585863801E+02 -0.43212022759E+03  0.21244831221E+03  0.62613636865E+03  0.40000000000E+03 0.  1.
   -9000005    1    1    2    0  503 -0.13585863801E+02  0.43212022759E+03 -0.85393011019E+03  0.10373567852E+04  0.40000000000E+03 0. -1.
<mgrwt>
<rscale>  2 0.58899276E+03</rscale>
<asrwt>0</asrwt>
<pdfrwt beam="1">  1       21 0.78616258E-01 0.58899276E+03</pdfrwt>
<pdfrwt beam="2">  1       21 0.17730577E+00 0.58899276E+03</pdfrwt>
<totfact> 0.20777709E+02</totfact>
</mgrwt>
</event>
<event>
 4    1  0.4962426E-002  0.4313979E+03  0.7818608E-02  0.1033419E+00
         21   -1    0    0  503  502  0.00000000000E+00  0.00000000000E+00  0.18643147156E+03  0.18643147156E+03  0.00000000000E+00 0.  1.
         21   -1    0    0  501  503 -0.00000000000E+00 -0.00000000000E+00 -0.10220795042E+04  0.10220795042E+04  0.00000000000E+00 0.  1.
    9000005    1    1    2  501    0 -0.78200530000E+02 -0.14138174262E+03 -0.32554789036E+03  0.54044939537E+03  0.40000000000E+03 0.  1.
   -9000005    1    1    2    0  502  0.78200530000E+02  0.14138174262E+03 -0.51010014226E+03  0.66806158037E+03  0.40000000000E+03 0.  1.
<mgrwt>
<rscale>  2 0.43139787E+03</rscale>
<asrwt>0</asrwt>
<pdfrwt beam="1">  1       21 0.28681765E-01 0.43139787E+03</pdfrwt>
<pdfrwt beam="2">  1       21 0.15724300E+00 0.43139787E+03</pdfrwt>
<totfact> 0.26551326E+03</totfact>
</mgrwt>
</event>
<event>
 4    1  0.4962426E-002  0.4327208E+03  0.7818608E-02  0.1033004E+00
         21   -1    0    0  501  502  0.00000000000E+00  0.00000000000E+00  0.49876632809E+03  0.49876632809E+03  0.00000000000E+00 0. -1.
         21   -1    0    0  502  503 -0.00000000000E+00 -0.00000000000E+00 -0.37768800203E+03  0.37768800203E+03  0.00000000000E+00 0.  1.
    9000005    1    1    2  501    0  0.71030961922E+02 -0.14900305707E+03  0.26587010379E+02  0.43353682391E+03  0.40000000000E+03 0.  1.
   -9000005    1    1    2    0  503 -0.71030961922E+02  0.14900305707E+03  0.94491315674E+02  0.44291750621E+03  0.40000000000E+03 0. -1.
<mgrwt>
<rscale>  2 0.43272082E+03</rscale>
<asrwt>0</asrwt>
<pdfrwt beam="1">  1       21 0.76733281E-01 0.43272082E+03</pdfrwt>
<pdfrwt beam="2">  1       21 0.58105846E-01 0.43272082E+03</pdfrwt>
<totfact> 0.36884865E+03</totfact>
</mgrwt>
</event>
<event>
 4    1  0.4962426E-002  0.4066617E+03  0.7818608E-02  0.1041497E+00
         21   -1    0    0  501  502  0.00000000000E+00  0.00000000000E+00  0.13814589541E+04  0.13814589541E+04  0.00000000000E+00 0. -1.
         21   -1    0    0  502  503 -0.00000000000E+00 -0.00000000000E+00 -0.14263325713E+03  0.14263325713E+03  0.00000000000E+00 0. -1.
    9000005    1    1    2  501    0 -0.48315326823E+02  0.55130687828E+02  0.31391108071E+03  0.51372553970E+03  0.40000000000E+03 0. -1.
   -9000005    1    1    2    0  503  0.48315326823E+02 -0.55130687828E+02  0.92491461622E+03  0.10103666715E+04  0.40000000000E+03 0. -1.
<mgrwt>
<rscale>  2 0.40666173E+03</rscale>
<asrwt>0</asrwt>
<pdfrwt beam="1">  1       21 0.21253214E+00 0.40666173E+03</pdfrwt>
<pdfrwt beam="2">  1       21 0.21943579E-01 0.40666173E+03</pdfrwt>
<totfact> 0.18619130E+03</totfact>
</mgrwt>
</event>
<event>
 4    1  0.4962426E-002  0.4317372E+03  0.7818608E-02  0.1033313E+00
         21   -1    0    0  501  502  0.00000000000E+00  0.00000000000E+00  0.36380171010E+03  0.36380171010E+03  0.00000000000E+00 0. -1.
         21   -1    0    0  502  503 -0.00000000000E+00 -0.00000000000E+00 -0.63092840450E+03  0.63092840450E+03  0.00000000000E+00 0. -1.
    9000005    1    1    2  501    0  0.75871037413E+02  0.14366827195E+03  0.82048202717E+02  0.43946432648E+03  0.40000000000E+03 0.  1.
   -9000005    1    1    2    0  503 -0.75871037413E+02 -0.14366827195E+03 -0.34917489711E+03  0.55526578812E+03  0.40000000000E+03 0.  1.
<mgrwt>
<rscale>  2 0.43173717E+03</rscale>
<asrwt>0</asrwt>
<pdfrwt beam="1">  1       21 0.55969494E-01 0.43173717E+03</pdfrwt>
<pdfrwt beam="2">  1       21 0.97065908E-01 0.43173717E+03</pdfrwt>
<totfact> 0.23059775E+03</totfact>
</mgrwt>
</event>
<event>
 4    1  0.4962426E-002  0.4190269E+03  0.7818608E-02  0.1037383E+00
         21   -1    0    0  501  502  0.00000000000E+00  0.00000000000E+00  0.24528787527E+03  0.24528787527E+03  0.00000000000E+00 0.  1.
         21   -1    0    0  502  503 -0.00000000000E+00 -0.00000000000E+00 -0.84680542812E+03  0.84680542812E+03  0.00000000000E+00 0.  1.
    9000005    1    1    2  501    0  0.91724353315E+02  0.84676993448E+02 -0.86006032107E+02  0.42776230288E+03  0.40000000000E+03 0.  1.
   -9000005    1    1    2    0  503 -0.91724353315E+02 -0.84676993448E+02 -0.51551152074E+03  0.66433100050E+03  0.40000000000E+03 0.  1.
<mgrwt>
<rscale>  2 0.41902691E+03</rscale>
<asrwt>0</asrwt>
<pdfrwt beam="1">  1       21 0.37736596E-01 0.41902691E+03</pdfrwt>
<pdfrwt beam="2">  1       21 0.13027776E+00 0.41902691E+03</pdfrwt>
<totfact> 0.25434315E+03</totfact>
</mgrwt>
</event>
<event>
 4    1  0.4962426E-002  0.4594763E+03  0.7818608E-02  0.1024933E+00
         21   -1    0    0  501  502  0.00000000000E+00  0.00000000000E+00  0.21938365137E+04  0.21938365137E+04  0.00000000000E+00 0. -1.
         21   -1    0    0  502  503 -0.00000000000E+00 -0.00000000000E+00 -0.14748781857E+03  0.14748781857E+03  0.00000000000E+00 0. -1.
    9000005    1    1    2  501    0  0.72343724914E+02 -0.21420740109E+03  0.17132915819E+04  0.17738338338E+04  0.40000000000E+03 0. -1.
   -9000005    1    1    2    0  503 -0.72343724914E+02  0.21420740109E+03  0.33305711324E+03  0.56749049851E+03  0.40000000000E+03 0. -1.
<mgrwt>
<rscale>  2 0.45947625E+03</rscale>
<asrwt>0</asrwt>
<pdfrwt beam="1">  1       21 0.33751329E+00 0.45947625E+03</pdfrwt>
<pdfrwt beam="2">  1       21 0.22690435E-01 0.45947625E+03</pdfrwt>
<totfact> 0.29234983E+02</totfact>
</mgrwt>
</event>
<event>
 4    1  0.4962426E-002  0.4516024E+03  0.7818608E-02  0.1027245E+00
         21   -1    0    0  503  502  0.00000000000E+00  0.00000000000E+00  0.17063180585E+03  0.17063180585E+03  0.00000000000E+00 0.  1.
         21   -1    0    0  501  503 -0.00000000000E+00 -0.00000000000E+00 -0.13820471901E+04  0.13820471901E+04  0.00000000000E+00 0.  1.
    9000005    1    1    2  501    0  0.20340810577E+03 -0.50693660322E+02 -0.89113504461E+03  0.99903271839E+03  0.40000000000E+03 0.  1.
   -9000005    1    1    2    0  502 -0.20340810577E+03  0.50693660322E+02 -0.32028033963E+03  0.55364627755E+03  0.40000000000E+03 0.  1.
<mgrwt>
<rscale>  2 0.45160237E+03</rscale>
<asrwt>0</asrwt>
<pdfrwt beam="1">  1       21 0.26251046E-01 0.45160237E+03</pdfrwt>
<pdfrwt beam="2">  1       21 0.21262265E+00 0.45160237E+03</pdfrwt>
<totfact> 0.12868482E+03</totfact>
</mgrwt>
</event>
<event>
 4    1  0.4962426E-002  0.4569422E+03  0.7818608E-02  0.1025672E+00
         21   -1    0    0  501  502  0.00000000000E+00  0.00000000000E+00  0.39843836326E+03  0.39843836326E+03  0.00000000000E+00 0. -1.
         21   -1    0    0  502  503 -0.00000000000E+00 -0.00000000000E+00 -0.10262273321E+04  0.10262273321E+04  0.00000000000E+00 0. -1.
    9000005    1    1    2  501    0 -0.22007593302E+03 -0.19046270456E+02  0.18441097719E+03  0.49275103777E+03  0.40000000000E+03 0. -1.
   -9000005    1    1    2    0  503  0.22007593302E+03  0.19046270456E+02 -0.81219994603E+03  0.93191465760E+03  0.40000000000E+03 0. -1.
<mgrwt>
<rscale>  2 0.45694220E+03</rscale>
<asrwt>0</asrwt>
<pdfrwt beam="1">  1       21 0.61298209E-01 0.45694220E+03</pdfrwt>
<pdfrwt beam="2">  1       21 0.15788113E+00 0.45694220E+03</pdfrwt>
<totfact> 0.53602214E+02</totfact>
</mgrwt>
</event>
<event>
 4    1  0.4962426E-002  0.1364338E+04  0.7818608E-02  0.8980045E-01
         21   -1    0    0  503  502  0.00000000000E+00  0.00000000000E+00  0.27558030098E+04  0.27558030098E+04  0.00000000000E+00 0. -1.
         21   -1    0    0  501  503 -0.00000000000E+00 -0.00000000000E+00 -0.73651107360E+03  0.73651107360E+03  0.00000000000E+00 0.  1.
    9000005    1    1    2  501    0 -0.73317355774E+03 -0.10788299974E+04  0.50688408404E+03  0.14554549473E+04  0.40000000000E+03 0.  1.
   -9000005    1    1    2    0  502  0.73317355774E+03  0.10788299974E+04  0.15124078522E+04  0.20368591361E+04  0.40000000000E+03 0. -1.
<mgrwt>
<rscale>  2 0.13643378E+04</rscale>
<asrwt>0</asrwt>
<pdfrwt beam="1">  1       21 0.42396969E+00 0.13643378E+04</pdfrwt>
<pdfrwt beam="2">  1       21 0.11330940E+00 0.13643378E+04</pdfrwt>
<totfact> 0.17161193E+00</totfact>
</mgrwt>
</event>
<event>
 4    1  0.4962426E-002  0.6223552E+03  0.7818608E-02  0.9860082E-01
         21   -1    0    0  503  502  0.00000000000E+00  0.00000000000E+00  0.40526781932E+03  0.40526781932E+03  0.00000000000E+00 0. -1.
         21   -1    0    0  501  503 -0.00000000000E+00 -0.00000000000E+00 -0.13653880862E+04  0.13653880862E+04  0.00000000000E+00 0. -1.
    9000005    1    1    2  501    0  0.44139890159E+02  0.47473956762E+03 -0.96499979690E+03  0.11482815835E+04  0.40000000000E+03 0. -1.
   -9000005    1    1    2    0  502 -0.44139890159E+02 -0.47473956762E+03  0.48795299823E+01  0.62237432207E+03  0.40000000000E+03 0. -1.
<mgrwt>
<rscale>  2 0.62235519E+03</rscale>
<asrwt>0</asrwt>
<pdfrwt beam="1">  1       21 0.62348896E-01 0.62235519E+03</pdfrwt>
<pdfrwt beam="2">  1       21 0.21005970E+00 0.62235519E+03</pdfrwt>
<totfact> 0.20675862E+02</totfact>
</mgrwt>
</event>
<event>
 4    1  0.4962426E-002  0.6855768E+03  0.7818608E-02  0.9742221E-01
         21   -1    0    0  503  502  0.00000000000E+00  0.00000000000E+00  0.28112209188E+03  0.28112209188E+03  0.00000000000E+00 0. -1.
         21   -1    0    0  501  503 -0.00000000000E+00 -0.00000000000E+00 -0.16787914493E+04  0.16787914493E+04  0.00000000000E+00 0.  1.
    9000005    1    1    2  501    0 -0.48250407307E+03 -0.27785847452E+03 -0.63616997048E+03  0.93526880827E+03  0.40000000000E+03 0. -1.
   -9000005    1    1    2    0  502  0.48250407307E+03  0.27785847452E+03 -0.76149938699E+03  0.10246447330E+04  0.40000000000E+03 0.  1.
<mgrwt>
<rscale>  2 0.68557677E+03</rscale>
<asrwt>0</asrwt>
<pdfrwt beam="1">  1       21 0.43249553E-01 0.68557677E+03</pdfrwt>
<pdfrwt beam="2">  1       21 0.25827561E+00 0.68557677E+03</pdfrwt>
<totfact> 0.21915440E+02</totfact>
</mgrwt>
</event>
<event>
 4    1  0.4962426E-002  0.4763345E+03  0.7818608E-02  0.1020147E+00
         21   -1    0    0  503  502  0.00000000000E+00  0.00000000000E+00  0.16338396413E+04  0.16338396413E+04  0.00000000000E+00 0.  1.
         21   -1    0    0  501  503 -0.00000000000E+00 -0.00000000000E+00 -0.14037194709E+03  0.14037194709E+03  0.00000000000E+00 0. -1.
    9000005    1    1    2  501    0  0.18114665774E+03 -0.18460882913E+03  0.65503214196E+03  0.80991458711E+03  0.40000000000E+03 0. -1.
   -9000005    1    1    2    0  502 -0.18114665774E+03  0.18460882913E+03  0.83843555226E+03  0.96429700129E+03  0.40000000000E+03 0. -1.
<mgrwt>
<rscale>  2 0.47633447E+03</rscale>
<asrwt>0</asrwt>
<pdfrwt beam="1">  1       21 0.25135993E+00 0.47633447E+03</pdfrwt>
<pdfrwt beam="2">  1       21 0.21595685E-01 0.47633447E+03</pdfrwt>
<totfact> 0.10591537E+03</totfact>
</mgrwt>
</event>
<event>
 4    1  0.4962426E-002  0.5294357E+03  0.7818608E-02  0.1006369E+00
         21   -1    0    0  503  502  0.00000000000E+00  0.00000000000E+00  0.41175349715E+03  0.41175349715E+03  0.00000000000E+00 0.  1.
         21   -1    0    0  501  503 -0.00000000000E+00 -0.00000000000E+00 -0.68276710355E+03  0.68276710355E+03  0.00000000000E+00 0.  1.
    9000005    1    1    2  501    0  0.33343597101E+03 -0.95512186700E+02 -0.10577795393E+03  0.53989915735E+03  0.40000000000E+03 0.  1.
   -9000005    1    1    2    0  502 -0.33343597101E+03  0.95512186700E+02 -0.16523565247E+03  0.55462144335E+03  0.40000000000E+03 0.  1.
<mgrwt>
<rscale>  2 0.52943567E+03</rscale>
<asrwt>0</asrwt>
<pdfrwt beam="1">  1       21 0.63346693E-01 0.52943567E+03</pdfrwt>
<pdfrwt beam="2">  1       21 0.10504109E+00 0.52943567E+03</pdfrwt>
<totfact> 0.13998714E+03</totfact>
</mgrwt>
</event>
<event>
 4    1  0.4962426E-002  0.4161863E+03  0.7818608E-02  0.1038315E+00
         21   -1    0    0  501  502  0.00000000000E+00  0.00000000000E+00  0.17200338115E+03  0.17200338115E+03  0.00000000000E+00 0.  1.
         21   -1    0    0  502  503 -0.00000000000E+00 -0.00000000000E+00 -0.13058326239E+04  0.13058326239E+04  0.00000000000E+00 0.  1.
    9000005    1    1    2  501    0 -0.56146600506E+02  0.10029256513E+03 -0.21344577768E+03  0.46772870275E+03  0.40000000000E+03 0.  1.
   -9000005    1    1    2    0  503  0.56146600506E+02 -0.10029256513E+03 -0.92038346510E+03  0.10101073023E+04  0.40000000000E+03 0.  1.
<mgrwt>
<rscale>  2 0.41618630E+03</rscale>
<asrwt>0</asrwt>
<pdfrwt beam="1">  1       21 0.26462058E-01 0.41618630E+03</pdfrwt>
<pdfrwt beam="2">  1       21 0.20089733E+00 0.41618630E+03</pdfrwt>
<totfact> 0.15371551E+03</totfact>
</mgrwt>
</event>
<event>
 4    1  0.4962426E-002  0.4218964E+03  0.7818608E-02  0.1036451E+00
         21   -1    0    0  501  502  0.00000000000E+00  0.00000000000E+00  0.26112192298E+03  0.26112192298E+03  0.00000000000E+00 0.  1.
         21   -1    0    0  502  503 -0.00000000000E+00 -0.00000000000E+00 -0.86854652137E+03  0.86854652137E+03  0.00000000000E+00 0.  1.
    9000005    1    1    2  501    0  0.88360866610E+02 -0.10094042318E+03 -0.41705613387E+02  0.42395279215E+03  0.40000000000E+03 0.  1.
   -9000005    1    1    2    0  503 -0.88360866610E+02  0.10094042318E+03 -0.56571898500E+03  0.70571565220E+03  0.40000000000E+03 0.  1.
<mgrwt>
<rscale>  2 0.42189645E+03</rscale>
<asrwt>0</asrwt>
<pdfrwt beam="1">  1       21 0.40172604E-01 0.42189645E+03</pdfrwt>
<pdfrwt beam="2">  1       21 0.13362254E+00 0.42189645E+03</pdfrwt>
<totfact> 0.20924043E+03</totfact>
</mgrwt>
</event>
<event>
 4    1  0.4962426E-002  0.4447976E+03  0.7818608E-02  0.1029285E+00
         21   -1    0    0  501  502  0.00000000000E+00  0.00000000000E+00  0.45503749865E+03  0.45503749865E+03  0.00000000000E+00 0.  1.
         21   -1    0    0  502  503 -0.00000000000E+00 -0.00000000000E+00 -0.13651760615E+04  0.13651760615E+04  0.00000000000E+00 0.  1.
    9000005    1    1    2  501    0 -0.11404123776E+03  0.15760549775E+03  0.29625955048E+03  0.53442924516E+03  0.40000000000E+03 0.  1.
   -9000005    1    1    2    0  503  0.11404123776E+03 -0.15760549775E+03 -0.12063981133E+04  0.12857843150E+04  0.40000000000E+03 0.  1.
<mgrwt>
<rscale>  2 0.44479759E+03</rscale>
<asrwt>0</asrwt>
<pdfrwt beam="1">  1       21 0.70005770E-01 0.44479759E+03</pdfrwt>
<pdfrwt beam="2">  1       21 0.21002708E+00 0.44479759E+03</pdfrwt>
<totfact> 0.17319569E+02</totfact>
</mgrwt>
</event>
<event>
 4    1  0.4962426E-002  0.5110172E+03  0.7818608E-02  0.1010943E+00
         21   -1    0    0  503  502  0.00000000000E+00  0.00000000000E+00  0.22215640645E+03  0.22215640645E+03  0.00000000000E+00 0.  1.
         21   -1    0    0  501  503 -0.00000000000E+00 -0.00000000000E+00 -0.16784351243E+04  0.16784351243E+04  0.00000000000E+00 0. -1.
    9000005    1    1    2  501    0  0.23739797134E+03 -0.21161462536E+03 -0.12483446435E+04  0.13488895045E+04  0.40000000000E+03 0. -1.
   -9000005    1    1    2    0  502 -0.23739797134E+03  0.21161462536E+03 -0.20793407434E+03  0.55170202622E+03  0.40000000000E+03 0.  1.
<mgrwt>
<rscale>  2 0.51101717E+03</rscale>
<asrwt>0</asrwt>
<pdfrwt beam="1">  1       21 0.34177909E-01 0.51101717E+03</pdfrwt>
<pdfrwt beam="2">  1       21 0.25822078E+00 0.51101717E+03</pdfrwt>
<totfact> 0.38291831E+02</totfact>
</mgrwt>
</event>
<event>
 4    1  0.4962426E-002  0.4119439E+03  0.7818608E-02  0.1039721E+00
         21   -1    0    0  501  502  0.00000000000E+00  0.00000000000E+00  0.23263144560E+03  0.23263144560E+03  0.00000000000E+00 0. -1.
         21   -1    0    0  502  503 -0.00000000000E+00 -0.00000000000E+00 -0.11301014022E+04  0.11301014022E+04  0.00000000000E+00 0. -1.
    9000005    1    1    2  501    0  0.74999527602E+02 -0.63818724838E+02 -0.85442496331E+03  0.94854613842E+03  0.40000000000E+03 0. -1.
   -9000005    1    1    2    0  503 -0.74999527602E+02  0.63818724838E+02 -0.43044993278E+02  0.41418670938E+03  0.40000000000E+03 0. -1.
<mgrwt>
<rscale>  2 0.41194388E+03</rscale>
<asrwt>0</asrwt>
<pdfrwt beam="1">  1       21 0.35789453E-01 0.41194388E+03</pdfrwt>
<pdfrwt beam="2">  1       21 0.17386176E+00 0.41194388E+03</pdfrwt>
<totfact> 0.12964165E+03</totfact>
</mgrwt>
</event>
<event>
 4    1  0.4962426E-002  0.4122351E+03  0.7818608E-02  0.1039624E+00
         21   -1    0    0  501  502  0.00000000000E+00  0.00000000000E+00  0.13816643014E+03  0.13816643014E+03  0.00000000000E+00 0.  1.
         21   -1    0    0  502  503 -0.00000000000E+00 -0.00000000000E+00 -0.12894402583E+04  0.12894402583E+04  0.00000000000E+00 0. -1.
    9000005    1    1    2  501    0 -0.59025672486E+02 -0.80335130740E+02 -0.72895799902E+03  0.83744702972E+03  0.40000000000E+03 0. -1.
   -9000005    1    1    2    0  503  0.59025672486E+02  0.80335130740E+02 -0.42231582915E+03  0.59015965873E+03  0.40000000000E+03 0.  1.
<mgrwt>
<rscale>  2 0.41223508E+03</rscale>
<asrwt>0</asrwt>
<pdfrwt beam="1">  1       21 0.21256375E-01 0.41223508E+03</pdfrwt>
<pdfrwt beam="2">  1       21 0.19837541E+00 0.41223508E+03</pdfrwt>
<totfact> 0.24440881E+03</totfact>
</mgrwt>
</event>
<event>
 4    1  0.4962426E-002  0.4162440E+03  0.7818608E-02  0.1038296E+00
         21   -1    0    0  503  502  0.00000000000E+00  0.00000000000E+00  0.17904034758E+04  0.17904034758E+04  0.00000000000E+00 0.  1.
         21   -1    0    0  501  503 -0.00000000000E+00 -0.00000000000E+00 -0.27986447965E+03  0.27986447965E+03  0.00000000000E+00 0.  1.
    9000005    1    1    2  501    0  0.97591855433E+02  0.61113624622E+02 -0.81988243830E+02  0.42424181487E+03  0.40000000000E+03 0.  1.
   -9000005    1    1    2    0  502 -0.97591855433E+02 -0.61113624622E+02  0.15925272400E+04  0.16460261406E+04  0.40000000000E+03 0.  1.
<mgrwt>
<rscale>  2 0.41624397E+03</rscale>
<asrwt>0</asrwt>
<pdfrwt beam="1">  1       21 0.27544668E+00 0.41624397E+03</pdfrwt>
<pdfrwt beam="2">  1       21 0.43056075E-01 0.41624397E+03</pdfrwt>
<totfact> 0.19759590E+02</totfact>
</mgrwt>
</event>
<event>
 4    1  0.4962426E-002  0.4265365E+03  0.7818608E-02  0.1034960E+00
         21   -1    0    0  501  502  0.00000000000E+00  0.00000000000E+00  0.10680323248E+04  0.10680323248E+04  0.00000000000E+00 0. -1.
         21   -1    0    0  502  503 -0.00000000000E+00 -0.00000000000E+00 -0.18812936258E+03  0.18812936258E+03  0.00000000000E+00 0. -1.
    9000005    1    1    2  501    0  0.96062022936E+02 -0.11271868942E+03  0.63306501386E+03  0.76335098544E+03  0.40000000000E+03 0. -1.
   -9000005    1    1    2    0  503 -0.96062022936E+02  0.11271868942E+03  0.24683794837E+03  0.49281070194E+03  0.40000000000E+03 0. -1.
<mgrwt>
<rscale>  2 0.42653653E+03</rscale>
<asrwt>0</asrwt>
<pdfrwt beam="1">  1       21 0.16431266E+00 0.42653653E+03</pdfrwt>
<pdfrwt beam="2">  1       21 0.28942979E-01 0.42653653E+03</pdfrwt>
<totfact> 0.23118086E+03</totfact>
</mgrwt>
</event>
<event>
 4    1  0.4962426E-002  0.4702143E+03  0.7818608E-02  0.1021860E+00
         21   -1    0    0  501  502  0.00000000000E+00  0.00000000000E+00  0.86505009338E+03  0.86505009338E+03  0.00000000000E+00 0. -1.
         21   -1    0    0  502  503 -0.00000000000E+00 -0.00000000000E+00 -0.69194401666E+03  0.69194401666E+03  0.00000000000E+00 0. -1.
    9000005    1    1    2  501    0 -0.23698502461E+03  0.70282422238E+02  0.70476733856E+03  0.84722991110E+03  0.40000000000E+03 0. -1.
   -9000005    1    1    2    0  503  0.23698502461E+03 -0.70282422238E+02 -0.53166126183E+03  0.70976419894E+03  0.40000000000E+03 0. -1.
<mgrwt>
<rscale>  2 0.47021433E+03</rscale>
<asrwt>0</asrwt>
<pdfrwt beam="1">  1       21 0.13308463E+00 0.47021433E+03</pdfrwt>
<pdfrwt beam="2">  1       21 0.10645293E+00 0.47021433E+03</pdfrwt>
<totfact> 0.23403559E+02</totfact>
</mgrwt>
</event>
<event>
 4    1  0.4962426E-002  0.5437933E+03  0.7818608E-02  0.1002941E+00
         21   -1    0    0  501  502  0.00000000000E+00  0.00000000000E+00  0.25015323022E+04  0.25015323022E+04  0.00000000000E+00 0.  1.
         21   -1    0    0  502  503 -0.00000000000E+00 -0.00000000000E+00 -0.16648236437E+03  0.16648236437E+03  0.00000000000E+00 0. -1.
    9000005    1    1    2  501    0 -0.12789489264E+03 -0.34547654527E+03  0.18858390323E+04  0.19626767443E+04  0.40000000000E+03 0.  1.
   -9000005    1    1    2    0  503  0.12789489264E+03  0.34547654527E+03  0.44921090547E+03  0.70533792220E+03  0.40000000000E+03 0. -1.
<mgrwt>
<rscale>  2 0.54379329E+03</rscale>
<asrwt>0</asrwt>
<pdfrwt beam="1">  1       21 0.38485110E+00 0.54379329E+03</pdfrwt>
<pdfrwt beam="2">  1       21 0.25612673E-01 0.54379329E+03</pdfrwt>
<totfact> 0.11167876E+02</totfact>
</mgrwt>
</event>
<event>
 4    1  0.4962426E-002  0.6430338E+03  0.7818608E-02  0.9819939E-01
         21   -1    0    0  503  502  0.00000000000E+00  0.00000000000E+00  0.78440891186E+03  0.78440891186E+03  0.00000000000E+00 0.  1.
         21   -1    0    0  501  503 -0.00000000000E+00 -0.00000000000E+00 -0.53049465577E+03  0.53049465577E+03  0.00000000000E+00 0.  1.
    9000005    1    1    2  501    0  0.43121327804E+03  0.25989918451E+03  0.74667397552E+02  0.64735438326E+03  0.40000000000E+03 0.  1.
   -9000005    1    1    2    0  502 -0.43121327804E+03 -0.25989918451E+03  0.17924685854E+03  0.66754918437E+03  0.40000000000E+03 0.  1.
<mgrwt>
<rscale>  2 0.64303381E+03</rscale>
<asrwt>0</asrwt>
<pdfrwt beam="1">  1       21 0.12067829E+00 0.64303381E+03</pdfrwt>
<pdfrwt beam="2">  1       21 0.81614562E-01 0.64303381E+03</pdfrwt>
<totfact> 0.53490635E+02</totfact>
</mgrwt>
</event>
<event>
 4    1  0.4962426E-002  0.4020785E+03  0.7818608E-02  0.1043062E+00
         21   -1    0    0  503  502  0.00000000000E+00  0.00000000000E+00  0.17760894980E+04  0.17760894980E+04  0.00000000000E+00 0.  1.
         21   -1    0    0  501  503 -0.00000000000E+00 -0.00000000000E+00 -0.11254087429E+03  0.11254087429E+03  0.00000000000E+00 0. -1.
    9000005    1    1    2  501    0  0.31013454996E+02 -0.26557025509E+02  0.41886992829E+03  0.58061960596E+03  0.40000000000E+03 0. -1.
   -9000005    1    1    2    0  502 -0.31013454996E+02  0.26557025509E+02  0.12446786955E+04  0.13080107664E+04  0.40000000000E+03 0.  1.
<mgrwt>
<rscale>  2 0.40207849E+03</rscale>
<asrwt>0</asrwt>
<pdfrwt beam="1">  1       21 0.27324452E+00 0.40207849E+03</pdfrwt>
<pdfrwt beam="2">  1       21 0.17313982E-01 0.40207849E+03</pdfrwt>
<totfact> 0.12320197E+03</totfact>
</mgrwt>
</event>
<event>
 4    1  0.4962426E-002  0.5821922E+03  0.7818608E-02  0.9943056E-01
         21   -1    0    0  501  502  0.00000000000E+00  0.00000000000E+00  0.12470071741E+04  0.12470071741E+04  0.00000000000E+00 0.  1.
         21   -1    0    0  502  503 -0.00000000000E+00 -0.00000000000E+00 -0.27561420677E+03  0.27561420677E+03  0.00000000000E+00 0.  1.
    9000005    1    1    2  501    0 -0.31309160342E+03 -0.28446683855E+03  0.57515094944E+03  0.81838032051E+03  0.40000000000E+03 0.  1.
   -9000005    1    1    2    0  503  0.31309160342E+03  0.28446683855E+03  0.39624201793E+03  0.70424106039E+03  0.40000000000E+03 0.  1.
<mgrwt>
<rscale>  2 0.58219218E+03</rscale>
<asrwt>0</asrwt>
<pdfrwt beam="1">  1       21 0.19184725E+00 0.58219218E+03</pdfrwt>
<pdfrwt beam="2">  1       21 0.42402186E-01 0.58219218E+03</pdfrwt>
<totfact> 0.63804709E+02</totfact>
</mgrwt>
</event>
<event>
 4    1  0.4962426E-002  0.4166871E+03  0.7818608E-02  0.1038150E+00
         21   -1    0    0  503  502  0.00000000000E+00  0.00000000000E+00  0.66179444904E+03  0.66179444904E+03  0.00000000000E+00 0.  1.
         21   -1    0    0  501  503 -0.00000000000E+00 -0.00000000000E+00 -0.38506585478E+03  0.38506585478E+03  0.00000000000E+00 0.  1.
    9000005    1    1    2  501    0 -0.81127793551E+02  0.83943029544E+02 -0.15711327184E+03  0.44532317623E+03  0.40000000000E+03 0.  1.
   -9000005    1    1    2    0  502  0.81127793551E+02 -0.83943029544E+02  0.43384186611E+03  0.60153712760E+03  0.40000000000E+03 0.  1.
<mgrwt>
<rscale>  2 0.41668711E+03</rscale>
<asrwt>0</asrwt>
<pdfrwt beam="1">  1       21 0.10181453E+00 0.41668711E+03</pdfrwt>
<pdfrwt beam="2">  1       21 0.59240901E-01 0.41668711E+03</pdfrwt>
<totfact> 0.18263946E+03</totfact>
</mgrwt>
</event>
<event>
 4    1  0.4962426E-002  0.4754308E+03  0.7818608E-02  0.1020399E+00
         21   -1    0    0  503  502  0.00000000000E+00  0.00000000000E+00  0.25987527383E+03  0.25987527383E+03  0.00000000000E+00 0. -1.
         21   -1    0    0  501  503 -0.00000000000E+00 -0.00000000000E+00 -0.11379585699E+04  0.11379585699E+04  0.00000000000E+00 0. -1.
    9000005    1    1    2  501    0  0.22513439715E+03  0.12389095628E+03 -0.77833386506E+03  0.91205157274E+03  0.40000000000E+03 0. -1.
   -9000005    1    1    2    0  502 -0.22513439715E+03 -0.12389095628E+03 -0.99749431016E+02  0.48578227100E+03  0.40000000000E+03 0. -1.
<mgrwt>
<rscale>  2 0.47543082E+03</rscale>
<asrwt>0</asrwt>
<pdfrwt beam="1">  1       21 0.39980812E-01 0.47543082E+03</pdfrwt>
<pdfrwt beam="2">  1       21 0.17507055E+00 0.47543082E+03</pdfrwt>
<totfact> 0.98528361E+02</totfact>
</mgrwt>
</event>
<event>
 4    1  0.4962426E-002  0.4518664E+03  0.7818608E-02  0.1027167E+00
         21   -1    0    0  501  502  0.00000000000E+00  0.00000000000E+00  0.11363261531E+04  0.11363261531E+04  0.00000000000E+00 0. -1.
         21   -1    0    0  502  503 -0.00000000000E+00 -0.00000000000E+00 -0.22206435516E+03  0.22206435516E+03  0.00000000000E+00 0.  1.
    9000005    1    1    2  501    0 -0.11757806560E+03  0.17423731683E+03  0.75383340085E+03  0.87889023224E+03  0.40000000000E+03 0. -1.
   -9000005    1    1    2    0  503  0.11757806560E+03 -0.17423731683E+03  0.16042839706E+03  0.47950027598E+03  0.40000000000E+03 0.  1.
<mgrwt>
<rscale>  2 0.45186640E+03</rscale>
<asrwt>0</asrwt>
<pdfrwt beam="1">  1       21 0.17481940E+00 0.45186640E+03</pdfrwt>
<pdfrwt beam="2">  1       21 0.34163748E-01 0.45186640E+03</pdfrwt>
<totfact> 0.13770913E+03</totfact>
</mgrwt>
</event>
<event>
 4    1  0.4962426E-002  0.4175093E+03  0.7818608E-02  0.1037880E+00
         21   -1    0    0  501  502  0.00000000000E+00  0.00000000000E+00  0.65274658080E+03  0.65274658080E+03  0.00000000000E+00 0. -1.
         21   -1    0    0  502  503 -0.00000000000E+00 -0.00000000000E+00 -0.27575419409E+03  0.27575419409E+03  0.00000000000E+00 0. -1.
    9000005    1    1    2  501    0 -0.31588743454E+02 -0.11539572106E+03  0.10600071718E+03  0.43075535190E+03  0.40000000000E+03 0.  1.
   -9000005    1    1    2    0  503  0.31588743454E+02  0.11539572106E+03  0.27099166954E+03  0.49774542299E+03  0.40000000000E+03 0.  1.
<mgrwt>
<rscale>  2 0.41750931E+03</rscale>
<asrwt>0</asrwt>
<pdfrwt beam="1">  1       21 0.10042255E+00 0.41750931E+03</pdfrwt>
<pdfrwt beam="2">  1       21 0.42423722E-01 0.41750931E+03</pdfrwt>
<totfact> 0.38397142E+03</totfact>
</mgrwt>
</event>
<event>
 4    1  0.4962426E-002  0.4307782E+03  0.7818608E-02  0.1033614E+00
         21   -1    0    0  501  502  0.00000000000E+00  0.00000000000E+00  0.75394015526E+03  0.75394015526E+03  0.00000000000E+00 0. -1.
         21   -1    0    0  502  503 -0.00000000000E+00 -0.00000000000E+00 -0.39164819599E+03  0.39164819599E+03  0.00000000000E+00 0. -1.
    9000005    1    1    2  501    0  0.22115086578E+01  0.15989059582E+03  0.53028953259E+03  0.68321071550E+03  0.40000000000E+03 0. -1.
   -9000005    1    1    2    0  503 -0.22115086578E+01 -0.15989059582E+03 -0.16799757333E+03  0.46237763575E+03  0.40000000000E+03 0. -1.
<mgrwt>
<rscale>  2 0.43077824E+03</rscale>
<asrwt>0</asrwt>
<pdfrwt beam="1">  1       21 0.11599079E+00 0.43077824E+03</pdfrwt>
<pdfrwt beam="2">  1       21 0.60253569E-01 0.43077824E+03</pdfrwt>
<totfact> 0.12676542E+03</totfact>
</mgrwt>
</event>
<event>
 4    1  0.4962426E-002  0.4057400E+03  0.7818608E-02  0.1041810E+00
         21   -1    0    0  501  502  0.00000000000E+00  0.00000000000E+00  0.15879015700E+04  0.15879015700E+04  0.00000000000E+00 0. -1.
         21   -1    0    0  502  503 -0.00000000000E+00 -0.00000000000E+00 -0.25514692042E+03  0.25514692042E+03  0.00000000000E+00 0. -1.
    9000005    1    1    2  501    0 -0.23770595500E+02  0.63717107285E+02  0.13764100642E+04  0.14349667508E+04  0.40000000000E+03 0. -1.
   -9000005    1    1    2    0  503  0.23770595500E+02 -0.63717107285E+02 -0.43655414667E+02  0.40808173961E+03  0.40000000000E+03 0. -1.
<mgrwt>
<rscale>  2 0.40573995E+03</rscale>
<asrwt>0</asrwt>
<pdfrwt beam="1">  1       21 0.24429254E+00 0.40573995E+03</pdfrwt>
<pdfrwt beam="2">  1       21 0.39253373E-01 0.40573995E+03</pdfrwt>
<totfact> 0.37211547E+02</totfact>
</mgrwt>
</event>
<event>
 4    1  0.4962426E-002  0.4761937E+03  0.7818608E-02  0.1020187E+00
         21   -1    0    0  501  502  0.00000000000E+00  0.00000000000E+00  0.12192645455E+04  0.12192645455E+04  0.00000000000E+00 0. -1.
         21   -1    0    0  502  503 -0.00000000000E+00 -0.00000000000E+00 -0.21036414486E+03  0.21036414486E+03  0.00000000000E+00 0. -1.
    9000005    1    1    2  501    0  0.29035854242E+02 -0.25674375143E+03  0.74781029862E+03  0.88655551290E+03  0.40000000000E+03 0. -1.
   -9000005    1    1    2    0  503 -0.29035854242E+02  0.25674375143E+03  0.26109010205E+03  0.54307317749E+03  0.40000000000E+03 0. -1.
<mgrwt>
<rscale>  2 0.47619369E+03</rscale>
<asrwt>0</asrwt>
<pdfrwt beam="1">  1       21 0.18757916E+00 0.47619369E+03</pdfrwt>
<pdfrwt beam="2">  1       21 0.32363715E-01 0.47619369E+03</pdfrwt>
<totfact> 0.12360814E+03</totfact>
</mgrwt>
</event>
<event>
 4    1  0.4962426E-002  0.5125913E+03  0.7818608E-02  0.1010544E+00
         21   -1    0    0  503  502  0.00000000000E+00  0.00000000000E+00  0.22502017963E+04  0.22502017963E+04  0.00000000000E+00 0. -1.
         21   -1    0    0  501  503 -0.00000000000E+00 -0.00000000000E+00 -0.46894835863E+03  0.46894835863E+03  0.00000000000E+00 0. -1.
    9000005    1    1    2  501    0  0.28413954913E+03  0.14837311662E+03 -0.28758602494E+03  0.58775469956E+03  0.40000000000E+03 0. -1.
   -9000005    1    1    2    0  502 -0.28413954913E+03 -0.14837311662E+03  0.20688394626E+04  0.21313954553E+04  0.40000000000E+03 0. -1.
<mgrwt>
<rscale>  2 0.51259132E+03</rscale>
<asrwt>0</asrwt>
<pdfrwt beam="1">  1       21 0.34618489E+00 0.51259132E+03</pdfrwt>
<pdfrwt beam="2">  1       21 0.72145903E-01 0.51259132E+03</pdfrwt>
<totfact> 0.22628306E+01</totfact>
</mgrwt>
</event>
<event>
 4    1  0.4962426E-002  0.6696185E+03  0.7818608E-02  0.9770647E-01
         21   -1    0    0  503  502  0.00000000000E+00  0.00000000000E+00  0.49320459277E+03  0.49320459277E+03  0.00000000000E+00 0. -1.
         21   -1    0    0  501  503 -0.00000000000E+00 -0.00000000000E+00 -0.12425554525E+04  0.12425554525E+04  0.00000000000E+00 0. -1.
    9000005    1    1    2  501    0  0.53701690321E+03  0.13434581435E+01 -0.82424686597E+03  0.10619660330E+04  0.40000000000E+03 0. -1.
   -9000005    1    1    2    0  502 -0.53701690321E+03 -0.13434581435E+01  0.74896006234E+02  0.67379401226E+03  0.40000000000E+03 0. -1.
<mgrwt>
<rscale>  2 0.66961852E+03</rscale>
<asrwt>0</asrwt>
<pdfrwt beam="1">  1       21 0.75877629E-01 0.66961852E+03</pdfrwt>
<pdfrwt beam="2">  1       21 0.19116238E+00 0.66961852E+03</pdfrwt>
<totfact> 0.17488538E+02</totfact>
</mgrwt>
</event>
<event>
 4    1  0.4962426E-002  0.4797471E+03  0.7818608E-02  0.1019205E+00
         21   -1    0    0  503  502  0.00000000000E+00  0.00000000000E+00  0.12022092688E+03  0.12022092688E+03  0.00000000000E+00 0.  1.
         21   -1    0    0  501  503 -0.00000000000E+00 -0.00000000000E+00 -0.23209510106E+04  0.23209510106E+04  0.00000000000E+00 0.  1.
    9000005    1    1    2  501    0 -0.25609314658E+03 -0.67627950323E+02 -0.16111815579E+04  0.16810899000E+04  0.40000000000E+03 0.  1.
   -9000005    1    1    2    0  502  0.25609314658E+03  0.67627950323E+02 -0.58954852581E+03  0.76008203746E+03  0.40000000000E+03 0.  1.
<mgrwt>
<rscale>  2 0.47974706E+03</rscale>
<asrwt>0</asrwt>
<pdfrwt beam="1">  1       21 0.18495529E-01 0.47974706E+03</pdfrwt>
<pdfrwt beam="2">  1       21 0.35706936E+00 0.47974706E+03</pdfrwt>
<totfact> 0.32366589E+02</totfact>
</mgrwt>
</event>
<event>
 4    1  0.4962426E-002  0.9106325E+03  0.7818608E-02  0.9412387E-01
         21   -1    0    0  501  502  0.00000000000E+00  0.00000000000E+00  0.14350755284E+04  0.14350755284E+04  0.00000000000E+00 0.  1.
         21   -1    0    0  502  503 -0.00000000000E+00 -0.00000000000E+00 -0.57896208707E+03  0.57896208707E+03  0.00000000000E+00 0. -1.
    9000005    1    1    2  501    0  0.33275922403E+03  0.74734382896E+03  0.47228682282E+03  0.10258198394E+04  0.40000000000E+03 0. -1.
   -9000005    1    1    2    0  503 -0.33275922403E+03 -0.74734382896E+03  0.38382661846E+03  0.98821777605E+03  0.40000000000E+03 0.  1.
<mgrwt>
<rscale>  2 0.91063247E+03</rscale>
<asrwt>0</asrwt>
<pdfrwt beam="1">  1       21 0.22078085E+00 0.91063247E+03</pdfrwt>
<pdfrwt beam="2">  1       21 0.89071091E-01 0.91063247E+03</pdfrwt>
<totfact> 0.70301037E+01</totfact>
</mgrwt>
</event>
<event>
 4    1  0.4962426E-002  0.4065665E+03  0.7818608E-02  0.1041529E+00
         21   -1    0    0  501  502  0.00000000000E+00  0.00000000000E+00  0.57687793084E+03  0.57687793084E+03  0.00000000000E+00 0. -1.
         21   -1    0    0  502  503 -0.00000000000E+00 -0.00000000000E+00 -0.39918675037E+03  0.39918675037E+03  0.00000000000E+00 0. -1.
    9000005    1    1    2  501    0  0.72751697190E+02 -0.18662850730E+01  0.34810086174E+03  0.53522939232E+03  0.40000000000E+03 0. -1.
   -9000005    1    1    2    0  503 -0.72751697190E+02  0.18662850730E+01 -0.17040968127E+03  0.44083528889E+03  0.40000000000E+03 0. -1.
<mgrwt>
<rscale>  2 0.40656647E+03</rscale>
<asrwt>0</asrwt>
<pdfrwt beam="1">  1       21 0.88750451E-01 0.40656647E+03</pdfrwt>
<pdfrwt beam="2">  1       21 0.61413346E-01 0.40656647E+03</pdfrwt>
<totfact> 0.23545428E+03</totfact>
</mgrwt>
</event>
<event>
 4    1  0.4962426E-002  0.1105717E+04  0.7818608E-02  0.9199637E-01
         21   -1    0    0  501  502  0.00000000000E+00  0.00000000000E+00  0.56705739527E+03  0.56705739527E+03  0.00000000000E+00 0.  1.
         21   -1    0    0  502  503 -0.00000000000E+00 -0.00000000000E+00 -0.22273736642E+04  0.22273736642E+04  0.00000000000E+00 0. -1.
    9000005    1    1    2  501    0 -0.89061396279E+03  0.51905443157E+03 -0.10801627649E+04  0.15457562331E+04  0.40000000000E+03 0. -1.
   -9000005    1    1    2    0  503  0.89061396279E+03 -0.51905443157E+03 -0.58015350404E+03  0.12486748263E+04  0.40000000000E+03 0.  1.
<mgrwt>
<rscale>  2 0.11057173E+04</rscale>
<asrwt>0</asrwt>
<pdfrwt beam="1">  1       21 0.87239597E-01 0.11057173E+04</pdfrwt>
<pdfrwt beam="2">  1       21 0.34267288E+00 0.11057173E+04</pdfrwt>
<totfact> 0.11927836E+01</totfact>
</mgrwt>
</event>
<event>
 4    1  0.4962426E-002  0.4981935E+03  0.7818608E-02  0.1014252E+00
         21   -1    0    0  501  502  0.00000000000E+00  0.00000000000E+00  0.10604818803E+04  0.10604818803E+04  0.00000000000E+00 0. -1.
         21   -1    0    0  502  503 -0.00000000000E+00 -0.00000000000E+00 -0.40038652239E+03  0.40038652239E+03  0.00000000000E+00 0. -1.
    9000005    1    1    2  501    0 -0.21866887596E+03 -0.20094938069E+03  0.80085838298E+03  0.94317065291E+03  0.40000000000E+03 0. -1.
   -9000005    1    1    2    0  503  0.21866887596E+03  0.20094938069E+03 -0.14076302507E+03  0.51769774979E+03  0.40000000000E+03 0. -1.
<mgrwt>
<rscale>  2 0.49819347E+03</rscale>
<asrwt>0</asrwt>
<pdfrwt beam="1">  1       21 0.16315106E+00 0.49819347E+03</pdfrwt>
<pdfrwt beam="2">  1       21 0.61597927E-01 0.49819347E+03</pdfrwt>
<totfact> 0.47502519E+02</totfact>
</mgrwt>
</event>
<event>
 4    1  0.4962426E-002  0.4828178E+03  0.7818608E-02  0.1018364E+00
         21   -1    0    0  503  502  0.00000000000E+00  0.00000000000E+00  0.12775752735E+04  0.12775752735E+04  0.00000000000E+00 0. -1.
         21   -1    0    0  501  503 -0.00000000000E+00 -0.00000000000E+00 -0.39918780094E+03  0.39918780094E+03  0.00000000000E+00 0.  1.
    9000005    1    1    2  501    0  0.25533710916E+03 -0.88971970220E+02 -0.17854546085E+03  0.51477328252E+03  0.40000000000E+03 0.  1.
   -9000005    1    1    2    0  502 -0.25533710916E+03  0.88971970220E+02  0.10569329334E+04  0.11619897919E+04  0.40000000000E+03 0.  1.
<mgrwt>
<rscale>  2 0.48281782E+03</rscale>
<asrwt>0</asrwt>
<pdfrwt beam="1">  1       21 0.19655004E+00 0.48281782E+03</pdfrwt>
<pdfrwt beam="2">  1       21 0.61413508E-01 0.48281782E+03</pdfrwt>
<totfact> 0.27918344E+02</totfact>
</mgrwt>
</event>
<event>
 4    1  0.4962426E-002  0.5312885E+03  0.7818608E-02  0.1005920E+00
         21   -1    0    0  503  502  0.00000000000E+00  0.00000000000E+00  0.98834998132E+03  0.98834998132E+03  0.00000000000E+00 0.  1.
         21   -1    0    0  501  503 -0.00000000000E+00 -0.00000000000E+00 -0.55363000426E+03  0.55363000426E+03  0.00000000000E+00 0.  1.
    9000005    1    1    2  501    0 -0.11242049685E+03 -0.33110280564E+03 -0.31909711200E+03  0.61975027462E+03  0.40000000000E+03 0.  1.
   -9000005    1    1    2    0  502  0.11242049685E+03  0.33110280564E+03  0.75381708906E+03  0.92222971095E+03  0.40000000000E+03 0.  1.
<mgrwt>
<rscale>  2 0.53128847E+03</rscale>
<asrwt>0</asrwt>
<pdfrwt beam="1">  1       21 0.15205384E+00 0.53128847E+03</pdfrwt>
<pdfrwt beam="2">  1       21 0.85173847E-01 0.53128847E+03</pdfrwt>
<totfact> 0.27269050E+02</totfact>
</mgrwt>
</event>
<event>
 4    1  0.4962426E-002  0.4589185E+03  0.7818608E-02  0.1025095E+00
         21   -1    0    0  501  502  0.00000000000E+00  0.00000000000E+00  0.20618015822E+03  0.20618015822E+03  0.00000000000E+00 0.  1.
         21   -1    0    0  502  503 -0.00000000000E+00 -0.00000000000E+00 -0.12382528872E+04  0.12382528872E+04  0.00000000000E+00 0.  1.
    9000005    1    1    2  501    0 -0.20828907895E+03  0.84981393283E+02 -0.21384747581E+03  0.50629726498E+03  0.40000000000E+03 0.  1.
   -9000005    1    1    2    0  503  0.20828907895E+03 -0.84981393283E+02 -0.81822525314E+03  0.93813578041E+03  0.40000000000E+03 0.  1.
<mgrwt>
<rscale>  2 0.45891849E+03</rscale>
<asrwt>0</asrwt>
<pdfrwt beam="1">  1       21 0.31720024E-01 0.45891849E+03</pdfrwt>
<pdfrwt beam="2">  1       21 0.19050044E+00 0.45891849E+03</pdfrwt>
<totfact> 0.12378979E+03</totfact>
</mgrwt>
</event>
<event>
 4    1  0.4962426E-002  0.6198522E+03  0.7818608E-02  0.9865054E-01
         21   -1    0    0  503  502  0.00000000000E+00  0.00000000000E+00  0.12438081314E+03  0.12438081314E+03  0.00000000000E+00 0.  1.
         21   -1    0    0  501  503 -0.00000000000E+00 -0.00000000000E+00 -0.30959592056E+04  0.30959592056E+04  0.00000000000E+00 0. -1.
    9000005    1    1    2  501    0  0.38045504421E+03 -0.28190553799E+03 -0.14096449780E+04  0.15399077040E+04  0.40000000000E+03 0.  1.
   -9000005    1    1    2    0  502 -0.38045504421E+03  0.28190553799E+03 -0.15619334145E+04  0.16804323147E+04  0.40000000000E+03 0. -1.
<mgrwt>
<rscale>  2 0.61985222E+03</rscale>
<asrwt>0</asrwt>
<pdfrwt beam="1">  1       21 0.19135512E-01 0.61985222E+03</pdfrwt>
<pdfrwt beam="2">  1       21 0.47630135E+00 0.61985222E+03</pdfrwt>
<totfact> 0.46199013E+01</totfact>
</mgrwt>
</event>
<event>
 4    1  0.4962426E-002  0.4149506E+03  0.7818608E-02  0.1038722E+00
         21   -1    0    0  503  502  0.00000000000E+00  0.00000000000E+00  0.69432495492E+03  0.69432495492E+03  0.00000000000E+00 0. -1.
         21   -1    0    0  501  503 -0.00000000000E+00 -0.00000000000E+00 -0.25347656414E+03  0.25347656414E+03  0.00000000000E+00 0. -1.
    9000005    1    1    2  501    0  0.55204531514E+01  0.11024306399E+03  0.15068739421E+03  0.44146426733E+03  0.40000000000E+03 0.  1.
   -9000005    1    1    2    0  502 -0.55204531514E+01 -0.11024306399E+03  0.29016099657E+03  0.50633725173E+03  0.40000000000E+03 0.  1.
<mgrwt>
<rscale>  2 0.41495061E+03</rscale>
<asrwt>0</asrwt>
<pdfrwt beam="1">  1       21 0.10681922E+00 0.41495061E+03</pdfrwt>
<pdfrwt beam="2">  1       21 0.38996395E-01 0.41495061E+03</pdfrwt>
<totfact> 0.39306148E+03</totfact>
</mgrwt>
</event>
<event>
 4    1  0.4962426E-002  0.5510908E+03  0.7818608E-02  0.1001242E+00
         21   -1    0    0  501  502  0.00000000000E+00  0.00000000000E+00  0.47545559245E+03  0.47545559245E+03  0.00000000000E+00 0.  1.
         21   -1    0    0  502  503 -0.00000000000E+00 -0.00000000000E+00 -0.65166221985E+03  0.65166221985E+03  0.00000000000E+00 0. -1.
    9000005    1    1    2  501    0  0.36015461304E+03  0.11827805616E+03 -0.87994017182E+01  0.55116102305E+03  0.40000000000E+03 0.  1.
   -9000005    1    1    2    0  503 -0.36015461304E+03 -0.11827805616E+03 -0.16740722569E+03  0.57595678924E+03  0.40000000000E+03 0. -1.
<mgrwt>
<rscale>  2 0.55109078E+03</rscale>
<asrwt>0</asrwt>
<pdfrwt beam="1">  1       21 0.73147014E-01 0.55109078E+03</pdfrwt>
<pdfrwt beam="2">  1       21 0.10025573E+00 0.55109078E+03</pdfrwt>
<totfact> 0.11279154E+03</totfact>
</mgrwt>
</event>
<event>
 4    1  0.4962426E-002  0.4016570E+03  0.7818608E-02  0.1043207E+00
         21   -1    0    0  503  502  0.00000000000E+00  0.00000000000E+00  0.55057040271E+03  0.55057040271E+03  0.00000000000E+00 0. -1.
         21   -1    0    0  501  503 -0.00000000000E+00 -0.00000000000E+00 -0.34500378370E+03  0.34500378370E+03  0.00000000000E+00 0. -1.
    9000005    1    1    2  501    0  0.36235298458E+02 -0.39134274287E+01 -0.71033701825E+02  0.40788981179E+03  0.40000000000E+03 0.  1.
   -9000005    1    1    2    0  502 -0.36235298458E+02  0.39134274287E+01  0.27660032084E+03  0.48768437463E+03  0.40000000000E+03 0.  1.
<mgrwt>
<rscale>  2 0.40165696E+03</rscale>
<asrwt>0</asrwt>
<pdfrwt beam="1">  1       21 0.84703139E-01 0.40165696E+03</pdfrwt>
<pdfrwt beam="2">  1       21 0.53077505E-01 0.40165696E+03</pdfrwt>
<totfact> 0.36108548E+03</totfact>
</mgrwt>
</event>
<event>
 4    1  0.4962426E-002  0.4454384E+03  0.7818608E-02  0.1029091E+00
         21   -1    0    0  503  502  0.00000000000E+00  0.00000000000E+00  0.12498398797E+03  0.12498398797E+03  0.00000000000E+00 0. -1.
         21   -1    0    0  501  503 -0.00000000000E+00 -0.00000000000E+00 -0.18296643304E+04  0.18296643304E+04  0.00000000000E+00 0. -1.
    9000005    1    1    2  501    0 -0.76849301142E+02  0.18030400353E+03 -0.12078769754E+04  0.12873935437E+04  0.40000000000E+03 0. -1.
   -9000005    1    1    2    0  502  0.76849301142E+02 -0.18030400353E+03 -0.49680336708E+03  0.66725477467E+03  0.40000000000E+03 0. -1.
<mgrwt>
<rscale>  2 0.44543838E+03</rscale>
<asrwt>0</asrwt>
<pdfrwt beam="1">  1       21 0.19228305E-01 0.44543838E+03</pdfrwt>
<pdfrwt beam="2">  1       21 0.28148683E+00 0.44543838E+03</pdfrwt>
<totfact> 0.88075848E+02</totfact>
</mgrwt>
</event>
<event>
 4    1  0.4962426E-002  0.4712317E+03  0.7818608E-02  0.1021573E+00
         21   -1    0    0  503  502  0.00000000000E+00  0.00000000000E+00  0.17850598659E+03  0.17850598659E+03  0.00000000000E+00 0.  1.
         21   -1    0    0  501  503 -0.00000000000E+00 -0.00000000000E+00 -0.15818667496E+04  0.15818667496E+04  0.00000000000E+00 0.  1.
    9000005    1    1    2  501    0 -0.10302684835E+03  0.22681444000E+03 -0.11084701953E+04  0.12044772707E+04  0.40000000000E+03 0.  1.
   -9000005    1    1    2    0  502  0.10302684835E+03 -0.22681444000E+03 -0.29489056771E+03  0.55589546553E+03  0.40000000000E+03 0.  1.
<mgrwt>
<rscale>  2 0.47123171E+03</rscale>
<asrwt>0</asrwt>
<pdfrwt beam="1">  1       21 0.27462461E-01 0.47123171E+03</pdfrwt>
<pdfrwt beam="2">  1       21 0.24336410E+00 0.47123171E+03</pdfrwt>
<totfact> 0.74573405E+02</totfact>
</mgrwt>
</event>
<event>
 4    1  0.4962426E-002  0.5916541E+03  0.7818608E-02  0.9922874E-01
         21   -1    0    0  501  502  0.00000000000E+00  0.00000000000E+00  0.10694935165E+04  0.10694935165E+04  0.00000000000E+00 0.  1.
         21   -1    0    0  502  503 -0.00000000000E+00 -0.00000000000E+00 -0.32932556508E+03  0.32932556508E+03  0.00000000000E+00 0. -1.
    9000005    1    1    2  501    0  0.35321415426E+03 -0.25552756615E+03  0.42481743471E+03  0.72837107896E+03  0.40000000000E+03 0. -1.
   -9000005    1    1    2    0  503 -0.35321415426E+03  0.25552756615E+03  0.31535051674E+03  0.67044800264E+03  0.40000000000E+03 0.  1.
<mgrwt>
<rscale>  2 0.59165410E+03</rscale>
<asrwt>0</asrwt>
<pdfrwt beam="1">  1       21 0.16453746E+00 0.59165410E+03</pdfrwt>
<pdfrwt beam="2">  1       21 0.50665472E-01 0.59165410E+03</pdfrwt>
<totfact> 0.68469774E+02</totfact>
</mgrwt>
</event>
<event>
 4    1  0.4962426E-002  0.4233824E+03  0.7818608E-02  0.1035971E+00
         21   -1    0    0  503  502  0.00000000000E+00  0.00000000000E+00  0.34956578133E+03  0.34956578133E+03  0.00000000000E+00 0. -1.
         21   -1    0    0  501  503 -0.00000000000E+00 -0.00000000000E+00 -0.67780153242E+03  0.67780153242E+03  0.00000000000E+00 0. -1.
    9000005    1    1    2  501    0 -0.13700517099E+03  0.21960875398E+02 -0.41757582442E+03  0.59466147182E+03  0.40000000000E+03 0. -1.
   -9000005    1    1    2    0  502  0.13700517099E+03 -0.21960875398E+02  0.89340073335E+02  0.43270584192E+03  0.40000000000E+03 0. -1.
<mgrwt>
<rscale>  2 0.42338245E+03</rscale>
<asrwt>0</asrwt>
<pdfrwt beam="1">  1       21 0.53779351E-01 0.42338245E+03</pdfrwt>
<pdfrwt beam="2">  1       21 0.10427716E+00 0.42338245E+03</pdfrwt>
<totfact> 0.21182017E+03</totfact>
</mgrwt>
</event>
<event>
 4    1  0.4962426E-002  0.4198445E+03  0.7818608E-02  0.1037117E+00
         21   -1    0    0  503  502  0.00000000000E+00  0.00000000000E+00  0.80600566992E+03  0.80600566992E+03  0.00000000000E+00 0. -1.
         21   -1    0    0  501  503 -0.00000000000E+00 -0.00000000000E+00 -0.25100032463E+03  0.25100032463E+03  0.00000000000E+00 0. -1.
    9000005    1    1    2  501    0 -0.63766082041E+02 -0.11046852575E+03  0.87898722497E+02  0.42894707578E+03  0.40000000000E+03 0. -1.
   -9000005    1    1    2    0  502  0.63766082041E+02  0.11046852575E+03  0.46710662279E+03  0.62805891878E+03  0.40000000000E+03 0. -1.
<mgrwt>
<rscale>  2 0.41984451E+03</rscale>
<asrwt>0</asrwt>
<pdfrwt beam="1">  1       21 0.12400087E+00 0.41984451E+03</pdfrwt>
<pdfrwt beam="2">  1       21 0.38615435E-01 0.41984451E+03</pdfrwt>
<totfact> 0.27548285E+03</totfact>
</mgrwt>
</event>
<event>
 4    1  0.4962426E-002  0.4246471E+03  0.7818608E-02  0.1035564E+00
         21   -1    0    0  503  502  0.00000000000E+00  0.00000000000E+00  0.94236048854E+03  0.94236048854E+03  0.00000000000E+00 0.  1.
         21   -1    0    0  501  503 -0.00000000000E+00 -0.00000000000E+00 -0.19734541240E+03  0.19734541240E+03  0.00000000000E+00 0. -1.
    9000005    1    1    2  501    0  0.11682116616E+03  0.81718874185E+02  0.27322186840E+03  0.50495083784E+03  0.40000000000E+03 0. -1.
   -9000005    1    1    2    0  502 -0.11682116616E+03 -0.81718874185E+02  0.47179320774E+03  0.63475506310E+03  0.40000000000E+03 0.  1.
<mgrwt>
<rscale>  2 0.42464710E+03</rscale>
<asrwt>0</asrwt>
<pdfrwt beam="1">  1       21 0.14497853E+00 0.42464710E+03</pdfrwt>
<pdfrwt beam="2">  1       21 0.30360833E-01 0.42464710E+03</pdfrwt>
<totfact> 0.29661057E+03</totfact>
</mgrwt>
</event>
